G3NPOcore-PETIM betagalactose in water
79378
    1aaa     O1    1   2.888   1.584   7.070 -0.4252  0.1993  0.2440
    1aaa     C1    2   2.764   1.587   7.005  0.1014  0.2408  0.4704
    1aaa     H1    3   2.706   1.669   7.048  1.6146  0.6974  1.7205
    1aaa     H2    4   2.706   1.495   7.020  0.7721 -0.2703  0.0092
    1aaa     C2    5   2.890   1.544   7.203 -0.5519  0.4919 -0.1313
    1aaa     H3    6   2.803   1.489   7.240  1.6060 -3.1752  0.0422
    1aaa     H4    7   2.907   1.636   7.259  1.8665  0.0726 -0.0723
    1aaa     C3    8   2.780   1.601   6.854 -0.6678  0.6621  0.3348
    1aaa     H5    9   2.806   1.705   6.829 -1.1309  0.8794  0.7293
    1aaa     H6   10   2.682   1.593   6.805 -0.6120  0.9529  0.1686
    1aaa     C4   11   3.026   1.460   7.215 -0.1754 -0.1201  0.5641
    1aaa     H7   12   3.050   1.430   7.318  0.3196 -0.3754  0.3795
    1aaa     H8   13   3.101   1.531   7.178 -0.4159  0.1213  0.5326
    1aaa     C5   14   2.882   1.507   6.793  0.7128 -0.5442  0.1485
    1aaa     H9   15   2.975   1.499   6.851  0.8009 -0.1724  0.0622
    1aaa    H10   16   2.845   1.404   6.788 -0.2450 -0.1764 -0.7264
    1aaa     C6   17   3.017   1.340   7.116 -0.3383  0.0694 -0.8092
    1aaa    H11   18   3.022   1.377   7.013 -0.1698  1.0268 -0.4672
    1aaa    H12   19   2.921   1.288   7.119 -0.3496  0.0837 -0.9263
    1aaa     N1   20   2.924   1.549   6.652 -0.3970  0.1926 -0.3698
    1aaa     N2   21   3.125   1.241   7.138  0.1027 -0.7802 -0.1747
    1aaa     C7   22   3.087   1.107   7.095 -0.4842 -0.0615  0.5974
    1aaa    H13   23   3.165   1.037   7.129  0.5654 -0.4744 -2.3790
    1aaa    H14   24   2.994   1.073   7.142 -0.7131  0.5702  0.6081
    1aaa     C8   25   3.253   1.291   7.096 -0.3074 -0.1807 -0.1889
    1aaa    H15   26   3.272   1.289   6.988  1.0101 -1.3869  0.0283
    1aaa    H16   27   3.263   1.397   7.119 -0.4885 -0.2145  0.0462
    1aaa     C9   28   2.816   1.544   6.545 -0.6176 -0.0536  0.2606
    1aaa    H17   29   2.770   1.445   6.553 -2.2637  0.8350  4.1267
    1aaa    H18   30   2.732   1.612   6.561 -0.8768 -0.1329 -0.7584
    1aaa    C10   31   3.051   1.479   6.618  0.0413 -0.5579 -0.3677
    1aaa    H19   32   3.097   1.516   6.526  3.0987  0.2819  1.3384
    1aaa    H20   33   3.119   1.508   6.700 -1.9453 -1.9688  1.9248
    1aaa    C11   34   3.071   1.099   6.942 -0.0396  0.0697  0.2290
    1aaa    H21   35   3.027   1.191   6.901 -0.4468 -0.0674  0.3638
    1aaa    H22   36   3.171   1.090   6.896  0.1170 -2.9154  0.9626
    1aaa    C12   37   3.372   1.229   7.173 -0.9869  0.0832  0.7378
    1aaa    H23   38   3.354   1.249   7.279 -0.9291 -0.1154  0.7866
    1aaa    H24   39   3.379   1.120   7.160 -1.0272  0.2827 -1.1456
    1aaa    C13   40   2.870   1.565   6.402 -0.0462  0.4589 -0.0001
    1aaa    H25   41   2.939   1.487   6.368 -1.6706 -0.6621 -0.9018
    1aaa    H26   42   2.791   1.549   6.328 -0.2011 -1.0378  0.4593
    1aaa    C14   43   3.035   1.324   6.602  0.1718  0.2412 -0.2556
    1aaa    H27   44   2.981   1.281   6.688  0.5586 -3.6245 -1.7454
    1aaa    H28   45   2.986   1.298   6.507  0.0574 -1.3157  0.2059
    1aaa    C15   46   3.174   1.257   6.595 -0.3707 -0.4204 -0.0501
    1aaa    H29   47   3.156   1.149   6.605  0.7388 -0.9909 -3.0951
    1aaa    H30   48   3.222   1.277   6.499  0.9019  0.5690  0.7695
    1aaa    C16   49   2.936   1.701   6.390  0.3306 -0.3344 -0.4680
    1aaa    H31   50   2.854   1.773   6.407 -0.0507 -1.4640  3.1189
    1aaa    H32   51   3.016   1.716   6.463  1.8294 -2.1534 -1.6538
    1aaa    C17   52   3.509   1.286   7.119  0.1918 -0.5989 -0.1091
    1aaa    H33   53   3.505   1.270   7.010  2.5095 -0.1972 -0.3022
    1aaa    H34   54   3.530   1.391   7.144  0.7475 -1.2379  2.3476
    1aaa    C18   55   3.000   0.970   6.905 -0.1514 -0.5302 -0.1686
    1aaa    H35   56   3.062   0.891   6.950  2.9427  0.9178 -1.5325
    1aaa    H36   57   2.897   0.966   6.942 -0.5005 -1.4696 -1.1740
    2bbb     N1   58   3.532   1.511   6.669 -0.3236  0.0620  0.0226
    2bbb     C1   59   3.550   1.651   6.620  0.3445  1.1400  0.7772
    2bbb     H1   60   3.632   1.651   6.546 -1.2325  0.6340 -1.0747
    2bbb     H2   61   3.577   1.723   6.698 -0.1833  0.8295  1.2470
    2bbb     C2   62   3.648   1.475   6.762 -0.0457 -0.3923 -0.2021
    2bbb     H3   63   3.626   1.392   6.831 -0.5017  1.1272  1.5722
    2bbb     H4   64   3.662   1.562   6.828 -1.7863 -0.8209  0.8174
    2bbb     C3   65   3.483   1.410   6.567  0.3331 -0.2281  0.1545
    2bbb     H5   66   3.555   1.411   6.484  0.4179 -0.7550  0.2206
    2bbb     H6   67   3.384   1.438   6.528  0.8412 -0.4366 -1.3578
    2bbb     C4   68   3.469   1.264   6.617 -0.2864  1.1145 -0.0983
    2bbb     H7   69   3.568   1.223   6.640 -1.7032 -1.3720  2.1882
    2bbb     H8   70   3.430   1.202   6.535 -0.7340 -0.5938  1.3645
    2bbb     C5   71   3.422   1.710   6.547 -1.0775  0.4762  0.0304
    2bbb     H9   72   3.363   1.748   6.631  0.8371 -0.1527  1.7287
    2bbb    H10   73   3.365   1.629   6.501 -0.6721  1.4426 -2.3186
    2bbb     C6   74   3.787   1.446   6.699  0.6796 -0.2008 -0.6969
    2bbb    H11   75   3.832   1.531   6.646  2.2893 -0.9693 -0.6472
    2bbb    H12   76   3.783   1.386   6.607  2.4990  1.7711 -2.1777
    2bbb     C7   77   3.373   1.238   6.737  0.3687 -0.5491 -0.3240
    2bbb    H13   78   3.426   1.287   6.820  2.4492  0.1453 -1.9549
    2bbb    H14   79   3.376   1.129   6.740  1.3441 -0.5065  0.9990
    2bbb     C8   80   3.890   1.383   6.795 -0.6824  0.0604 -0.1878
    2bbb    H15   81   3.977   1.348   6.738  1.0128  1.5207  1.3759
    2bbb    H16   82   3.858   1.284   6.831  0.0900 -0.1730 -0.1200
    2bbb     C9   83   3.461   1.813   6.442  0.0442 -0.3094 -0.2167
    2bbb    H17   84   3.527   1.892   6.481 -0.8464  0.1975  0.2936
    2bbb    H18   85   3.371   1.871   6.418 -0.1940 -0.1063  1.1102
    2bbb     O1   86   3.251   1.298   6.707 -0.0737 -0.0681 -0.3804
    3bbb     N1   87   3.182   1.524   5.899 -0.1288  0.0525 -0.2929
    3bbb     C1   88   3.118   1.419   5.814  0.7132  0.1196 -0.2260
    3bbb     H1   89   3.165   1.397   5.718  0.7927  0.5932 -0.2951
    3bbb     H2   90   3.012   1.443   5.795  0.4504 -1.1990 -0.5902
    3bbb     C2   91   3.237   1.636   5.819 -0.3959  0.1128  0.4719
    3bbb     H3   92   3.231   1.725   5.882  0.0484  1.9397 -1.9089
    3bbb     H4   93   3.181   1.646   5.726 -2.1173 -3.2807  0.9597
    3bbb     C3   94   3.113   1.563   6.026  0.3962  0.2567  0.0287
    3bbb     H5   95   3.078   1.471   6.076  1.9980 -1.0830 -1.1730
    3bbb     H6   96   3.027   1.620   5.992 -0.9982 -2.0979 -0.6353
    3bbb     C4   97   3.206   1.633   6.131 -0.2316  0.1642  0.1212
    3bbb     H7   98   3.233   1.733   6.096  0.6905  0.4754  1.6430
    3bbb     H8   99   3.302   1.580   6.138  0.8750  2.1297  0.4886
    3bbb     C5  100   3.136   1.286   5.895 -0.0805  0.0922 -0.4547
    3bbb     H9  101   3.066   1.281   5.979 -0.8196 -1.5325 -1.1371
    3bbb    H10  102   3.239   1.289   5.934 -0.3580  2.7134  0.2526
    3bbb     C6  103   3.392   1.615   5.795  0.9021  0.0676  0.1042
    3bbb    H11  104   3.441   1.575   5.885  1.5500 -2.6223 -1.3332
    3bbb    H12  105   3.444   1.711   5.792  1.3324 -0.1224  1.0171
    3bbb     C7  106   3.143   1.652   6.271 -0.1768  0.5703 -0.4059
    3bbb    H13  107   3.209   1.727   6.316  1.0341  0.9274 -2.6235
    3bbb    H14  108   3.131   1.555   6.321 -2.2191  0.7816 -0.4041
    3bbb     C8  109   3.422   1.507   5.686 -0.8930  0.2454  0.3659
    3bbb    H15  110   3.356   1.530   5.601 -1.5899 -0.6104  0.6539
    3bbb    H16  111   3.394   1.408   5.725  0.4895  0.3340  1.6566
    3bbb     C9  112   3.126   1.158   5.815  0.0007  0.4056 -0.2413
    3bbb    H17  113   3.020   1.131   5.801  0.0982 -1.1500  1.5590
    3bbb    H18  114   3.170   1.087   5.886  2.5439  2.9385  0.8808
    3bbb     O1  115   3.004   1.699   6.263 -0.4389  0.1754  0.1683
    4bbb     N1  116   3.969   1.073   6.983 -0.4657  0.0688 -0.1461
    4bbb     C1  117   4.094   1.079   6.903  0.4722 -0.1999  0.1833
    4bbb     H1  118   4.174   1.026   6.955  1.0176  1.8247  1.5363
    4bbb     H2  119   4.120   1.186   6.903  0.6967 -0.1869  2.6745
    4bbb     C2  120   3.895   0.936   6.976  0.0143 -0.1911  0.9927
    4bbb     H3  121   3.896   0.891   6.876  2.1583 -0.2580  0.9848
    4bbb     H4  122   3.795   0.965   7.010  1.0111  2.2108  2.1497
    4bbb     C3  123   3.987   1.133   7.113 -0.1212  0.3898 -0.5565
    4bbb     H5  124   4.031   1.231   7.092  2.1892 -0.8955 -2.1574
    4bbb     H6  125   4.059   1.072   7.170 -2.0275 -2.0970 -0.6009
    4bbb     C4  126   3.853   1.148   7.191  0.6730  0.5531 -0.4364
    4bbb     H7  127   3.881   1.205   7.280  0.5243 -1.0062  0.6522
    4bbb     H8  128   3.815   1.049   7.218  1.6682  0.0897 -0.7199
    4bbb     C5  129   4.088   1.032   6.754  0.5788 -0.3614  0.3085
    4bbb     H9  130   4.002   1.076   6.703 -0.0665 -0.6411  1.1441
    4bbb    H10  131   4.078   0.923   6.746  1.0140 -0.3123 -1.3869
    4bbb     C6  132   3.957   0.816   7.056 -0.1524 -0.3128 -0.4141
    4bbb    H11  133   3.984   0.853   7.155 -1.9780 -2.2309  0.8848
    4bbb    H12  134   4.044   0.782   6.999  1.2056  0.7631  0.9337
    4bbb     C7  135   3.744   1.220   7.112 -0.5898  0.7927 -0.3463
    4bbb    H13  136   3.749   1.175   7.013  2.5961 -0.4566  0.2569
    4bbb    H14  137   3.776   1.325   7.112  2.0022  0.1378  2.2107
    4bbb     C8  138   3.861   0.703   7.093 -0.4242  0.0770 -0.2945
    4bbb    H15  139   3.768   0.753   7.122 -0.7321  0.7807 -2.3546
    4bbb    H16  140   3.894   0.645   7.180  1.2422  0.0869 -0.8760
    4bbb     C9  141   4.214   1.067   6.673 -0.9153 -0.0406  0.0758
    4bbb    H17  142   4.222   1.007   6.582 -1.7900  0.6389 -0.4751
    4bbb    H18  143   4.306   1.054   6.731  0.5443  0.6975 -1.9603
    4bbb     O1  144   3.618   1.204   7.176  0.1970 -0.3463  0.2099
    5bbb     N1  145   3.383   0.808   6.679 -0.3979  0.5248  0.0448
    5bbb     C1  146   3.431   0.788   6.817  0.1431  0.3295  0.3314
    5bbb     H1  147   3.520   0.728   6.795 -0.1907  0.6689 -2.3706
    5bbb     H2  148   3.365   0.730   6.882  1.0676  0.3559  1.3281
    5bbb     C2  149   3.478   0.877   6.590 -0.5278 -0.2431  0.5787
    5bbb     H3  150   3.500   0.981   6.619  1.0657 -0.1615 -0.7595
    5bbb     H4  151   3.439   0.884   6.488 -0.6708  0.2773  0.6664
    5bbb     C3  152   3.255   0.865   6.668  1.3840  0.5168 -0.1204
    5bbb     H5  153   3.223   0.873   6.564 -2.1575  0.2065  0.8082
    5bbb     H6  154   3.248   0.965   6.713  0.0270  0.2219  0.3773
    5bbb     C4  155   3.136   0.777   6.724  0.0870  0.0872 -0.7330
    5bbb     H7  156   3.145   0.751   6.831 -0.0933 -3.2227 -1.4175
    5bbb     H8  157   3.138   0.674   6.688 -0.7322 -0.9781  1.9652
    5bbb     C5  158   3.479   0.911   6.902 -0.0059 -0.1126  0.7205
    5bbb     H9  159   3.400   0.985   6.918 -1.4650 -1.4412 -0.0867
    5bbb    H10  160   3.560   0.964   6.851  2.1742 -4.1788 -0.5175
    5bbb     C6  161   3.627   0.820   6.577 -0.9237  0.1229 -0.1038
    5bbb    H11  162   3.620   0.719   6.533  0.0257  0.1566 -0.3455
    5bbb    H12  163   3.678   0.807   6.673  1.5510  1.7958 -1.0931
    5bbb     C7  164   3.001   0.851   6.691 -0.3465 -0.4346  0.4453
    5bbb    H13  165   2.925   0.786   6.735 -0.8296 -1.3336 -1.6128
    5bbb    H14  166   2.980   0.855   6.583 -4.5273 -0.2968  1.1221
    5bbb     C8  167   3.714   0.911   6.484 -0.4088 -0.0826  0.2707
    5bbb    H15  168   3.676   0.911   6.381  0.3468  0.8593 -0.0189
    5bbb    H16  169   3.809   0.856   6.488  0.5580  1.3867 -1.3280
    5bbb     C9  170   3.538   0.878   7.037 -0.3136 -0.6268  0.4876
    5bbb    H17  171   3.583   0.965   7.086 -0.6514 -1.1009  1.6760
    5bbb    H18  172   3.607   0.795   7.021 -0.9325 -0.8793 -1.0906
    5bbb     O1  173   3.003   0.980   6.763  0.4001  0.2323 -0.4643
    6bbb     N1  174   4.250   1.509   7.192  0.2721 -0.4865 -0.2795
    6bbb     C1  175   4.388   1.570   7.185  0.4192 -0.1850 -0.8020
    6bbb     H1  176   4.405   1.616   7.087  0.6463  2.1523  0.2724
    6bbb     H2  177   4.468   1.497   7.204 -0.2738 -0.9399 -0.7093
    6bbb     C2  178   4.244   1.393   7.283  0.1264  0.3780  0.4450
    6bbb     H3  179   4.139   1.376   7.311 -0.5601  2.7585 -0.4135
    6bbb     H4  180   4.293   1.428   7.375  2.2612  2.7634 -1.4720
    6bbb     C3  181   4.177   1.483   7.069  0.1635  0.0244 -0.0482
    6bbb     H5  182   4.090   1.422   7.098  0.8144 -0.9784 -0.1436
    6bbb     H6  183   4.233   1.417   7.001  2.3779  0.1177  1.6133
    6bbb     C4  184   4.127   1.600   6.982 -0.2798 -0.2796 -0.3586
    6bbb     H7  185   4.217   1.654   6.950  0.5138 -0.6763  1.1239
    6bbb     H8  186   4.059   1.665   7.039  2.2873  1.2452  1.1376
    6bbb     C5  187   4.399   1.675   7.298 -0.2366 -0.2126  0.2441
    6bbb     H9  188   4.505   1.689   7.322  0.1133 -0.5772 -1.0233
    6bbb    H10  189   4.357   1.635   7.391  0.1504  0.6472  0.7918
    6bbb     C6  190   4.305   1.263   7.219  0.4411 -0.1693  0.0255
    6bbb    H11  191   4.412   1.274   7.195  0.2739 -0.0848 -0.7025
    6bbb    H12  192   4.251   1.245   7.125  1.5259 -1.5454 -0.3894
    6bbb     C7  193   4.053   1.549   6.866  0.1923 -0.0281 -0.1998
    6bbb    H13  194   4.121   1.481   6.812 -1.0649  0.5547 -2.6832
    6bbb    H14  195   4.027   1.636   6.804 -1.0846  0.5678  1.1154
    6bbb     C8  196   4.286   1.145   7.309 -0.7403 -0.2504  0.2356
    6bbb    H15  197   4.185   1.120   7.341 -0.3940 -2.5394 -0.3127
    6bbb    H16  198   4.365   1.153   7.386 -0.3382 -1.5821 -0.0104
    6bbb     C9  199   4.343   1.816   7.260 -0.0991 -0.3339 -0.4559
    6bbb    H17  200   4.355   1.885   7.344 -0.0756 -0.4042 -0.4009
    6bbb    H18  201   4.241   1.804   7.223  0.6302  0.2681 -2.7881
    6bbb     O1  202   3.930   1.477   6.899 -0.3966 -0.5706  0.3088
    7bbb     N1  203   3.912   1.689   6.249  0.0230 -0.0710 -0.1451
    7bbb     C1  204   4.009   1.599   6.315 -0.0852 -0.3063  0.1577
    7bbb     H1  205   3.983   1.598   6.421  1.6613 -0.5584  0.6191
    7bbb     H2  206   4.109   1.640   6.291 -0.3038  0.4722  0.5383
    7bbb     C2  207   3.941   1.836   6.276  0.6325  0.1888 -0.4488
    7bbb     H3  208   3.937   1.865   6.382  1.2835 -0.9097 -0.1086
    7bbb     H4  209   3.854   1.896   6.245 -0.6608 -1.5800 -0.3591
    7bbb     C3  210   3.772   1.641   6.216 -0.5964  0.3414 -0.2486
    7bbb     H5  211   3.729   1.607   6.311 -0.0537  1.0638  0.2658
    7bbb     H6  212   3.787   1.551   6.154  1.9657  1.2594 -1.0463
    7bbb     C4  213   3.679   1.738   6.144  0.3693 -0.9854 -0.2398
    7bbb     H7  214   3.606   1.673   6.095 -1.0977 -0.2870  0.9618
    7bbb     H8  215   3.733   1.798   6.069  0.8612 -0.1908  0.7233
    7bbb     C5  216   4.008   1.451   6.257  0.1460  0.1779  0.1286
    7bbb     H9  217   3.907   1.409   6.258 -0.1398  0.8514  0.8629
    7bbb    H10  218   4.071   1.398   6.329 -0.4440  0.1673  0.6528
    7bbb     C6  219   4.071   1.898   6.225 -0.1646 -0.7132  0.3085
    7bbb    H11  220   4.152   1.847   6.278  0.5234 -0.8577 -0.8547
    7bbb    H12  221   4.076   2.004   6.256 -0.4680 -0.0538 -1.7420
    7bbb     C7  222   3.597   1.823   6.246 -0.1774 -0.1712  0.8245
    7bbb    H13  223   3.527   1.894   6.202 -1.1703 -1.3522  0.4324
    7bbb    H14  224   3.669   1.885   6.300  1.1459 -0.2354 -0.7546
    7bbb     C8  225   4.073   1.903   6.071 -0.0829  0.2079 -0.2295
    7bbb    H15  226   3.985   1.954   6.029 -2.6103 -1.8949  2.0554
    7bbb    H16  227   4.054   1.798   6.046 -1.4336 -0.3783  2.7132
    7bbb     C9  228   4.073   1.453   6.115 -0.8178 -0.3885  0.4497
    7bbb    H17  229   4.043   1.545   6.063 -1.0014 -1.8381 -2.1985
    7bbb    H18  230   4.045   1.362   6.060  0.7084 -0.9042  0.4746
    7bbb     O1  231   3.526   1.744   6.339 -0.1312  0.1051  0.1977
    8bbb     N1  232   3.977   1.436   5.417  0.4933  0.8923 -0.7129
    8bbb     C1  233   4.063   1.510   5.517  0.8599  0.5638 -0.2167
    8bbb     H1  234   4.105   1.446   5.596 -0.7435 -1.4919 -0.9624
    8bbb     H2  235   3.990   1.576   5.564  0.3003  0.1318 -0.4677
    8bbb     C2  236   4.067   1.345   5.335  0.6483 -0.0881  0.2352
    8bbb     H3  237   4.146   1.415   5.306 -0.1622  0.8898  0.3052
    8bbb     H4  238   4.017   1.333   5.238 -0.9531  1.3920  0.8067
    8bbb     C3  239   3.854   1.377   5.465 -0.4704  0.3407 -0.7734
    8bbb     H5  240   3.882   1.296   5.535  0.9694  1.8365  0.4487
    8bbb     H6  241   3.793   1.335   5.384 -2.9029  2.9925 -0.4664
    8bbb     C4  242   3.762   1.482   5.528  0.2649 -0.2929  0.5092
    8bbb     H7  243   3.750   1.570   5.464 -0.0138 -1.0547 -0.5023
    8bbb     H8  244   3.801   1.519   5.624  0.0865  0.7133  0.1968
    8bbb     C5  245   4.183   1.603   5.466  1.2118  0.1965 -0.1630
    8bbb     H9  246   4.263   1.554   5.410  1.5255 -3.1583  2.8834
    8bbb    H10  247   4.234   1.623   5.561 -0.9941 -1.7710  1.5774
    8bbb     C6  248   4.105   1.206   5.383  0.2601  0.0546  0.2476
    8bbb    H11  249   4.173   1.159   5.311 -1.5680 -2.2354 -0.1018
    8bbb    H12  250   4.015   1.144   5.379 -0.5029  1.0716  1.0292
    8bbb     C7  251   3.621   1.417   5.560  0.0630 -0.3304  0.1987
    8bbb    H13  252   3.639   1.327   5.621  0.3061  0.3293  1.1281
    8bbb    H14  253   3.559   1.383   5.477  1.0382 -2.5183  0.2928
    8bbb     C8  254   4.178   1.199   5.518 -0.5313  0.1008  0.3896
    8bbb    H15  255   4.209   1.096   5.540 -2.3532 -0.8319 -1.1176
    8bbb    H16  256   4.109   1.221   5.600 -2.2433 -2.9903 -0.0737
    8bbb     C9  257   4.134   1.741   5.419  0.9162 -0.2606 -0.3182
    8bbb    H17  258   4.080   1.792   5.500 -0.7300 -1.0652 -0.8647
    8bbb    H18  259   4.070   1.722   5.333  0.2694 -1.6566  0.4380
    8bbb     O1  260   3.560   1.512   5.650  0.2795 -0.9422 -0.2612
    9bbb     N1  261   3.478   1.156   5.363 -0.5748  0.2678  0.1475
    9bbb     C1  262   3.388   1.243   5.280  0.3614  0.0442 -0.1151
    9bbb     H1  263   3.342   1.322   5.341 -2.1180 -0.0648 -1.7036
    9bbb     H2  264   3.308   1.180   5.240 -1.1165  0.3925  2.1681
    9bbb     C2  265   3.527   1.044   5.284  0.0555  0.2317  0.0912
    9bbb     H3  266   3.588   1.085   5.203  1.2988  0.1957  0.9610
    9bbb     H4  267   3.446   0.989   5.236 -0.5074 -0.2370  1.5145
    9bbb     C3  268   3.413   1.128   5.494 -0.2590  0.2357  0.9008
    9bbb     H5  269   3.406   1.218   5.556  1.1962  0.5276  0.6784
    9bbb     H6  270   3.476   1.060   5.553  2.4795  3.7337  2.3654
    9bbb     C4  271   3.277   1.062   5.485 -0.2885 -0.4292 -0.6677
    9bbb     H7  272   3.266   0.982   5.411 -2.5955  0.3338 -1.2379
    9bbb     H8  273   3.211   1.133   5.435  1.0751  0.4601 -1.2662
    9bbb     C5  274   3.454   1.323   5.166  0.1662 -0.2510 -0.3778
    9bbb     H9  275   3.508   1.254   5.101  2.0750  2.2104 -1.5630
    9bbb    H10  276   3.516   1.402   5.211  0.9369 -0.7582 -0.5342
    9bbb     C6  277   3.616   0.945   5.361 -0.4429  0.9245 -0.1720
    9bbb    H11  278   3.627   0.857   5.297 -3.2949  1.8951 -2.2104
    9bbb    H12  279   3.579   0.914   5.460 -0.4640  4.3261  1.0313
    9bbb     C7  280   3.214   1.039   5.623 -0.6422 -0.2784  0.1630
    9bbb    H13  281   3.277   0.969   5.680  1.0196  1.7716  0.9429
    9bbb    H14  282   3.115   0.994   5.606 -0.6966  0.0027 -0.2844
    9bbb     C8  283   3.761   1.000   5.384 -0.3463 -0.1746 -0.1170
    9bbb    H15  284   3.751   1.093   5.442  1.4011  0.3372 -0.5593
    9bbb    H16  285   3.817   1.009   5.290 -0.7221  0.8098 -0.2668
    9bbb     C9  286   3.338   1.385   5.085  0.0670  0.1452 -0.1530
    9bbb    H17  287   3.268   1.306   5.055 -2.4803  0.7816  3.3884
    9bbb    H18  288   3.396   1.431   5.005  2.3694  2.2219  2.5063
    9bbb     O1  289   3.197   1.165   5.690  0.1294  0.0694  0.3090
   10bbb     N1  290   3.539   0.301   7.038 -0.0662 -0.0819 -0.6920
   10bbb     C1  291   3.510   0.167   7.098  0.8683  0.0441 -0.9837
   10bbb     H1  292   3.419   0.122   7.057 -0.8087  0.6201  1.8552
   10bbb     H2  293   3.482   0.179   7.203 -0.2750  1.2009 -1.3871
   10bbb     C2  294   3.426   0.400   7.062 -0.1054 -0.5611 -0.0371
   10bbb     H3  295   3.480   0.494   7.078  1.8157 -1.5970 -0.0530
   10bbb     H4  296   3.380   0.382   7.160  2.4081 -1.0454  1.1367
   10bbb     C3  297   3.607   0.318   6.913 -0.0470  0.2994 -0.5139
   10bbb     H5  298   3.537   0.312   6.828  0.5050 -0.1510 -0.9425
   10bbb     H6  299   3.673   0.231   6.899 -0.7047 -0.1416 -0.9443
   10bbb     C4  300   3.668   0.460   6.897 -0.2160  0.3812  0.2060
   10bbb     H7  301   3.586   0.532   6.894 -0.9366 -0.3555  1.3419
   10bbb     H8  302   3.732   0.482   6.811  0.8510  1.0977  1.1612
   10bbb     C5  303   3.631   0.069   7.095 -0.0820 -0.2427 -0.0061
   10bbb     H9  304   3.659   0.022   7.001  4.2503  0.2784  0.8047
   10bbb    H10  305   3.605  -0.015   7.161 -0.4190  1.0451  1.5895
   10bbb     C6  306   3.312   0.410   6.958  0.4983 -0.0770  0.7506
   10bbb    H11  307   3.284   0.307   6.931 -0.3765  0.0826  1.0076
   10bbb    H12  308   3.350   0.463   6.870  2.4358 -0.2132  1.4666
   10bbb     C7  309   3.757   0.501   7.015 -0.2806 -0.4516  0.2263
   10bbb    H13  310   3.827   0.426   7.054  0.7636  1.4238  2.1811
   10bbb    H14  311   3.685   0.528   7.093  0.2933  1.2769  0.2106
   10bbb     C8  312   3.189   0.469   7.027  0.7462  0.3362  0.3079
   10bbb    H15  313   3.210   0.563   7.080 -0.5768  0.1492  1.1989
   10bbb    H16  314   3.156   0.393   7.099  0.4300  1.2015  1.1052
   10bbb     C9  315   3.751   0.127   7.170 -0.4815  0.2213 -0.0522
   10bbb    H17  316   3.720   0.130   7.275 -1.2869 -0.2043 -0.2639
   10bbb    H18  317   3.775   0.224   7.125 -1.0145 -0.7595 -2.6588
   10bbb     O1  318   3.829   0.613   6.979 -0.2868 -0.3571  0.4120
   11bbb     N1  319   4.533   1.427   6.658  0.5904 -0.1004  0.0174
   11bbb     C1  320   4.597   1.453   6.791 -0.7175  0.2162  0.1941
   11bbb     H1  321   4.591   1.561   6.813  1.2182  0.6754 -1.2024
   11bbb     H2  322   4.703   1.426   6.794 -0.7213  0.2190  0.3603
   11bbb     C2  323   4.601   1.486   6.548  0.1738 -0.6681  0.4803
   11bbb     H3  324   4.606   1.594   6.562  0.1410 -0.3714 -1.5631
   11bbb     H4  325   4.543   1.469   6.456  1.8348 -0.2266 -0.6988
   11bbb     C3  326   4.385   1.463   6.652 -0.0430  0.3375 -0.1875
   11bbb     H5  327   4.372   1.572   6.652 -0.9664  0.2481  0.9012
   11bbb     H6  328   4.343   1.419   6.743  1.3370 -2.4655 -0.8019
   11bbb     C4  329   4.306   1.402   6.535  0.0687  0.5321  0.4463
   11bbb     H7  330   4.349   1.430   6.438  1.6630 -1.1760  0.6056
   11bbb     H8  331   4.204   1.441   6.543 -0.4427 -1.0255  2.2857
   11bbb     C5  332   4.533   1.380   6.911 -0.0592  0.5287  0.4866
   11bbb     H9  333   4.433   1.422   6.928  0.9045  3.0758  0.3680
   11bbb    H10  334   4.577   1.399   7.009 -1.6278  1.6044  1.0321
   11bbb     C6  335   4.744   1.441   6.524  0.2474  0.6689  0.4146
   11bbb    H11  336   4.742   1.335   6.496 -0.3857  0.9254 -0.5229
   11bbb    H12  337   4.808   1.454   6.612 -0.4633  1.1413  0.8725
   11bbb     C7  338   4.303   1.249   6.541  0.1849  0.1077  0.0032
   11bbb    H13  339   4.401   1.211   6.570  0.4519  0.8708  0.0983
   11bbb    H14  340   4.285   1.214   6.438  0.7156 -1.0872  0.2986
   11bbb     C8  341   4.816   1.522   6.415  0.3472 -0.0439 -0.0558
   11bbb    H15  342   4.801   1.627   6.441  4.3531  0.4916  0.8002
   11bbb    H16  343   4.756   1.507   6.325 -0.6312 -0.9511  0.7239
   11bbb     C9  344   4.512   1.233   6.892 -0.4040  0.2449 -0.1419
   11bbb    H17  345   4.481   1.208   6.790  0.3424 -1.5548  0.0242
   11bbb    H18  346   4.432   1.195   6.957 -2.3754  1.6795 -1.6023
   11bbb     O1  347   4.205   1.206   6.640  0.6179 -0.6809  0.1433
   12bbb     N1  348   3.601   1.233   6.141  0.2076  0.2059 -0.5570
   12bbb     C1  349   3.480   1.321   6.139  0.2933 -0.0820 -0.1911
   12bbb     H1  350   3.436   1.329   6.039 -0.0516  1.0977  0.0450
   12bbb     H2  351   3.506   1.422   6.172 -0.4693 -0.0754  0.4378
   12bbb     C2  352   3.697   1.245   6.030  0.0975 -0.1842 -0.1353
   12bbb     H3  353   3.775   1.169   6.037  0.3067 -0.1654 -1.8435
   12bbb     H4  354   3.757   1.335   6.051  2.0991 -1.3155 -0.6983
   12bbb     C3  355   3.655   1.227   6.279 -0.1922 -1.1160  0.4887
   12bbb     H5  356   3.583   1.216   6.360 -3.0538 -0.1289 -1.7421
   12bbb     H6  357   3.680   1.333   6.290 -1.6335 -0.8641  1.5655
   12bbb     C4  358   3.782   1.136   6.297  0.2460  0.4700 -0.3633
   12bbb     H7  359   3.869   1.187   6.252  0.8933  1.3090  1.7016
   12bbb     H8  360   3.766   1.042   6.244  2.3537 -0.4650  0.5653
   12bbb     C5  361   3.363   1.276   6.227  0.5887  0.4936  0.1305
   12bbb     H9  362   3.278   1.337   6.197  0.7799  0.7982  0.2027
   12bbb    H10  363   3.382   1.300   6.333  0.6584  1.4752 -0.0995
   12bbb     C6  364   3.647   1.256   5.888 -0.1904 -0.1987 -0.3477
   12bbb    H11  365   3.731   1.258   5.817  1.7909 -2.6489  1.7265
   12bbb    H12  366   3.612   1.360   5.881 -2.3402 -0.7081  1.6003
   12bbb     C7  367   3.821   1.117   6.447  0.3769 -0.0698  0.2940
   12bbb    H13  368   3.845   1.217   6.486  0.4525 -0.1948  0.5677
   12bbb    H14  369   3.913   1.059   6.431 -1.1574 -2.5215 -0.0454
   12bbb     C8  370   3.548   1.143   5.849  0.3153 -0.9220  0.4247
   12bbb    H15  371   3.501   1.169   5.754  0.1426 -0.0010  0.7504
   12bbb    H16  372   3.469   1.144   5.925  1.4763 -1.1915  1.6755
   12bbb     C9  373   3.313   1.129   6.207 -0.3239  0.3802 -0.3840
   12bbb    H17  374   3.383   1.067   6.264  2.1712  3.0096 -0.3525
   12bbb    H18  375   3.316   1.115   6.098 -0.9900  0.1450 -0.3787
   12bbb     O1  376   3.729   1.047   6.529  0.0738 -0.1750 -0.0071
   13bbb     N1  377   3.144   0.684   7.412  0.3934 -0.2993 -0.2199
   13bbb     C1  378   3.007   0.750   7.430 -0.3712 -0.4024 -0.3428
   13bbb     H1  379   3.014   0.856   7.458 -2.0358 -0.5895  0.9235
   13bbb     H2  380   2.951   0.700   7.509 -1.2866 -1.4110 -1.6085
   13bbb     C2  381   3.141   0.546   7.363 -0.0450  0.0932  0.1561
   13bbb     H3  382   3.244   0.515   7.344  0.3755  1.3198  0.3456
   13bbb     H4  383   3.085   0.542   7.268  0.2396  1.1540 -0.0735
   13bbb     C3  384   3.232   0.768   7.333 -1.1601  0.1025  0.3080
   13bbb     H5  385   3.217   0.873   7.360 -0.8338  0.3134 -0.2919
   13bbb     H6  386   3.197   0.773   7.229  0.0120  0.8154 -0.0821
   13bbb     C4  387   3.383   0.717   7.340  0.0008 -0.2182 -0.7588
   13bbb     H7  388   3.392   0.624   7.283  1.6553  0.4972 -1.7477
   13bbb     H8  389   3.414   0.685   7.440 -0.3039 -1.9773 -1.1875
   13bbb     C5  390   2.917   0.724   7.308  0.1701  0.0606  0.0081
   13bbb     H9  391   2.875   0.623   7.301 -4.3716  1.6349  1.1085
   13bbb    H10  392   2.982   0.741   7.222  1.1300 -0.3432  0.6325
   13bbb     C6  393   3.070   0.446   7.460 -0.5318 -0.7686  0.2523
   13bbb    H11  394   2.963   0.469   7.454 -0.4644 -0.5350 -0.1153
   13bbb    H12  395   3.113   0.468   7.558  0.4807 -2.2549  0.1714
   13bbb     C7  396   3.480   0.817   7.266 -0.8791 -0.2372  0.2594
   13bbb    H13  397   3.576   0.765   7.274 -1.5891 -1.3393  2.7691
   13bbb    H14  398   3.487   0.916   7.314  1.5682  0.8974 -2.1850
   13bbb     C8  399   3.100   0.295   7.424 -0.5687 -0.2839  0.2958
   13bbb    H15  400   3.063   0.233   7.506  0.3170  0.0820  0.9834
   13bbb    H16  401   3.206   0.282   7.448 -0.6029  2.1511  2.1293
   13bbb     C9  402   2.792   0.828   7.297 -0.7566 -0.5722 -0.2740
   13bbb    H17  403   2.830   0.929   7.317 -1.6844 -0.2803  0.0905
   13bbb    H18  404   2.722   0.815   7.381  1.3679 -1.7472  1.4097
   13bbb     O1  405   3.437   0.834   7.125  0.0405 -0.2017 -0.0676
   14bbb     N1  406   4.471   0.603   7.070  0.4522 -0.1792  0.7367
   14bbb     C1  407   4.400   0.512   6.978 -0.0697 -0.2273  1.0798
   14bbb     H1  408   4.455   0.417   6.981  1.1980  0.4667  0.6559
   14bbb     H2  409   4.405   0.547   6.874  0.0593  0.7964  1.4265
   14bbb     C2  410   4.607   0.642   7.015 -0.1598  1.1263  0.8852
   14bbb     H3  411   4.655   0.710   7.086  0.0247 -0.0470  1.9245
   14bbb     H4  412   4.587   0.699   6.924  0.3946  2.3954  1.5432
   14bbb     C3  413   4.384   0.721   7.119  0.0444  0.2531  0.1888
   14bbb     H5  414   4.294   0.688   7.172  0.0360 -0.1335 -0.0590
   14bbb     H6  415   4.342   0.772   7.031 -1.9749  0.3531  1.1620
   14bbb     C4  416   4.461   0.814   7.211 -0.7137 -0.3850 -0.8266
   14bbb     H7  417   4.531   0.887   7.166 -0.2795  1.4994  2.5490
   14bbb     H8  418   4.521   0.746   7.271  0.3462  1.1857 -0.0311
   14bbb     C5  419   4.250   0.486   7.002  0.1248  0.4689  0.2682
   14bbb     H9  420   4.185   0.575   7.001 -0.1096  0.3357 -1.8475
   14bbb    H10  421   4.242   0.442   7.102  1.5606 -0.2275  0.0984
   14bbb     C6  422   4.711   0.528   6.969  0.6463 -0.1469 -0.3971
   14bbb    H11  423   4.668   0.453   6.901 -1.1688 -1.1274  1.6775
   14bbb    H12  424   4.737   0.467   7.057 -0.8857 -1.4176 -0.7749
   14bbb     C7  425   4.375   0.908   7.298 -0.1505 -0.5172  0.3377
   14bbb    H13  426   4.439   0.941   7.380  1.5520 -0.2783 -1.0164
   14bbb    H14  427   4.286   0.862   7.341 -0.3024  1.3545  2.1531
   14bbb     C8  428   4.843   0.582   6.911  0.1183  0.2885  0.6659
   14bbb    H15  429   4.823   0.625   6.812  2.8238 -0.7021 -0.4026
   14bbb    H16  430   4.890   0.484   6.893 -0.2297 -0.1370  2.0159
   14bbb     C9  431   4.182   0.377   6.905 -0.0128  0.4520  0.7152
   14bbb    H17  432   4.165   0.415   6.803  0.6372 -0.5878  0.2063
   14bbb    H18  433   4.076   0.357   6.927 -0.3509 -0.1375 -1.2539
   14bbb     O1  434   4.338   1.036   7.232  0.1223 -0.2526  0.2734
   15bbb     N1  435   4.683   1.976   6.970 -0.1144 -0.3615  0.0335
   15bbb     C1  436   4.680   1.838   6.920 -0.0388 -0.2935  0.3858
   15bbb     H1  437   4.668   1.852   6.812  0.4887  0.1422  0.3742
   15bbb     H2  438   4.590   1.783   6.947 -0.1393 -0.0510  0.5509
   15bbb     C2  439   4.807   2.059   6.945 -0.2343 -0.8411  0.1014
   15bbb     H3  440   4.889   2.016   7.004  0.5326 -0.4107 -0.6218
   15bbb     H4  441   4.795   2.158   6.993  0.6533  0.5880 -2.4464
   15bbb     C3  442   4.557   2.059   6.944  0.0836  0.7968  0.3437
   15bbb     H5  443   4.570   2.114   6.850  1.0529 -0.9784 -0.6219
   15bbb     H6  444   4.560   2.134   7.024  1.9978 -0.2830  1.3662
   15bbb     C4  445   4.422   1.990   6.934 -1.2170 -0.3415 -0.4391
   15bbb     H7  446   4.436   1.899   6.875 -1.4393 -0.8517  0.2767
   15bbb     H8  447   4.359   2.061   6.880 -0.1083 -0.1380 -1.5101
   15bbb     C5  448   4.800   1.750   6.949  0.1543  0.1221 -0.3989
   15bbb     H9  449   4.897   1.794   6.923  0.2837 -0.0700 -0.2420
   15bbb    H10  450   4.776   1.664   6.886 -1.1845 -0.6546  1.1167
   15bbb     C6  451   4.846   2.096   6.802 -0.4002 -0.3533  0.3651
   15bbb    H11  452   4.761   2.143   6.751  0.3493 -0.3905 -0.9861
   15bbb    H12  453   4.875   2.000   6.757 -0.2147  0.5615 -1.5836
   15bbb     C7  454   4.349   1.967   7.071  0.0811 -0.7640  0.3270
   15bbb    H13  455   4.250   1.933   7.038 -0.7505  1.3272  0.5325
   15bbb    H14  456   4.352   2.061   7.126 -0.0150 -0.7470  0.3037
   15bbb     C8  457   4.985   2.177   6.808 -0.4257 -0.7344  0.9776
   15bbb    H15  458   5.050   2.126   6.881  0.9537  1.1749  1.1776
   15bbb    H16  459   4.972   2.276   6.853  1.7626  0.9607 -1.7546
   15bbb     C9  460   4.791   1.712   7.095 -0.0045 -0.0797 -0.1783
   15bbb    H17  461   4.687   1.688   7.121 -0.2860 -1.9540 -2.7097
   15bbb    H18  462   4.830   1.799   7.149  1.1424 -0.0117 -1.0713
   15bbb     O1  463   4.418   1.860   7.146  0.5182 -0.0922 -0.6288
   16bbb     N1  464   4.544   1.858   5.685 -0.4125 -0.4515  0.1077
   16bbb     C1  465   4.586   1.731   5.618  0.0750  1.0573 -0.3900
   16bbb     H1  466   4.554   1.644   5.677  3.3220  0.8942  1.3204
   16bbb     H2  467   4.694   1.719   5.607 -0.3376 -2.4608 -2.4063
   16bbb     C2  468   4.605   1.984   5.642 -0.2345 -0.9280  0.3903
   16bbb     H3  469   4.583   2.056   5.722  0.7093  1.1411 -1.0993
   16bbb     H4  470   4.568   2.016   5.544 -1.2251  0.4824  1.1848
   16bbb     C3  471   4.401   1.869   5.708  0.4640  0.7481  0.3931
   16bbb     H5  472   4.365   1.766   5.723  2.1114  0.0192 -0.4396
   16bbb     H6  473   4.351   1.921   5.626 -0.9548 -0.3480  0.5272
   16bbb     C4  474   4.373   1.932   5.847  0.0141 -0.1618  0.0424
   16bbb     H7  475   4.408   2.036   5.853  0.0978 -0.2444  1.3658
   16bbb     H8  476   4.440   1.879   5.916  0.0056 -2.1565 -1.3801
   16bbb     C5  477   4.549   1.727   5.467 -0.3029 -0.4455 -0.7289
   16bbb     H9  478   4.517   1.829   5.442 -1.6241 -0.6226  0.1424
   16bbb    H10  479   4.472   1.650   5.449  3.1563 -3.9484 -2.0369
   16bbb     C6  480   4.751   1.989   5.644 -1.0061 -0.5856 -0.0185
   16bbb    H11  481   4.785   1.909   5.577 -0.6573  0.3946 -1.0545
   16bbb    H12  482   4.789   1.966   5.744 -0.8329  1.7990  0.5375
   16bbb     C7  483   4.216   1.918   5.875 -0.2845 -0.4318  0.0211
   16bbb    H13  484   4.197   1.816   5.838 -1.9223  0.0919 -0.6801
   16bbb    H14  485   4.158   1.987   5.812  1.7028 -0.4528 -1.9554
   16bbb     C8  486   4.806   2.123   5.600  0.3592 -0.1118 -0.1992
   16bbb    H15  487   4.749   2.208   5.639  1.4248  0.3381  0.4380
   16bbb    H16  488   4.796   2.121   5.491  1.6233 -1.2343 -0.3237
   16bbb     C9  489   4.666   1.685   5.374  0.0443  0.5967  0.3036
   16bbb    H17  490   4.750   1.754   5.369 -0.6147  1.3992  0.0456
   16bbb    H18  491   4.622   1.691   5.273  1.0509  0.0882 -0.1739
   16bbb     O1  492   4.196   1.935   6.018 -0.4742 -0.1239  0.4766
   17bbb     N1  493   4.597   1.696   6.074 -0.1357  0.5656  0.2695
   17bbb     C1  494   4.575   1.737   6.216  0.4926 -0.2100 -0.3703
   17bbb     H1  495   4.669   1.781   6.252 -0.2618  3.7271 -2.6580
   17bbb     H2  496   4.548   1.658   6.288 -2.4247  2.1605  1.3529
   17bbb     C2  497   4.722   1.621   6.057  0.0524 -0.2725  0.5492
   17bbb     H3  498   4.715   1.527   6.113 -1.5284  0.2843  1.3450
   17bbb     H4  499   4.792   1.689   6.106  1.9031 -0.8916 -1.0949
   17bbb     C3  500   4.480   1.636   6.008 -0.0481  0.0093  0.2481
   17bbb     H5  501   4.501   1.623   5.902  3.2598 -0.0860  0.8210
   17bbb     H6  502   4.394   1.704   6.013 -0.2157 -0.1202 -0.7599
   17bbb     C4  503   4.436   1.510   6.072 -0.1392  0.1158  0.0724
   17bbb     H7  504   4.435   1.523   6.181 -0.0169 -2.0280  0.3671
   17bbb     H8  505   4.511   1.433   6.050 -1.7463 -0.9640 -1.9910
   17bbb     C5  506   4.463   1.835   6.254  0.3732 -0.4314  0.0689
   17bbb     H9  507   4.452   1.830   6.363 -2.7202  2.1293  0.0137
   17bbb    H10  508   4.375   1.788   6.208  0.3646 -1.7663  1.3800
   17bbb     C6  509   4.776   1.607   5.918 -0.0067 -0.4562 -0.2439
   17bbb    H11  510   4.764   1.704   5.868  3.5456  0.3655  0.1956
   17bbb    H12  511   4.724   1.526   5.867  1.4528 -0.8531 -1.1688
   17bbb     C7  512   4.300   1.453   6.022 -0.0554  0.1027 -0.1764
   17bbb    H13  513   4.289   1.353   5.980 -0.1466  0.3207 -0.6776
   17bbb    H14  514   4.260   1.528   5.953  0.1061  0.9443  0.6215
   17bbb     C8  515   4.924   1.566   5.921 -0.0797 -0.8610 -0.4216
   17bbb    H15  516   4.954   1.535   5.821 -1.4362  1.5736 -1.6753
   17bbb    H16  517   4.932   1.476   5.984 -2.2887  0.1076  1.3918
   17bbb     C9  518   4.466   1.988   6.212  0.2022 -0.6705  0.3033
   17bbb    H17  519   4.369   2.035   6.228  1.7812  3.4520 -0.9016
   17bbb    H18  520   4.486   1.994   6.104 -0.3974  0.2596  0.2370
   17bbb     O1  521   4.216   1.458   6.139  0.1185  0.1739 -0.6788
   18bbb     N1  522   4.652   1.150   5.768  0.3306 -0.0686 -0.1258
   18bbb     C1  523   4.700   1.161   5.907  0.6359  0.4855  0.0254
   18bbb     H1  524   4.702   1.065   5.959  4.2756  0.6821  0.5051
   18bbb     H2  525   4.638   1.230   5.965  0.2069  1.6013 -1.6999
   18bbb     C2  526   4.729   1.049   5.688  0.1841  0.2812  0.0474
   18bbb     H3  527   4.736   0.956   5.746  0.8829  1.3697  1.7810
   18bbb     H4  528   4.831   1.085   5.666  0.8984 -1.2913  0.6274
   18bbb     C3  529   4.630   1.278   5.700 -0.2672 -0.4421 -0.3867
   18bbb     H5  530   4.725   1.319   5.665 -0.5504 -0.0160 -0.6646
   18bbb     H6  531   4.594   1.350   5.775 -2.8754 -1.2489 -0.7626
   18bbb     C4  532   4.524   1.286   5.584  0.6369  0.1961  0.1719
   18bbb     H7  533   4.540   1.217   5.501  0.0795 -0.2424  0.4247
   18bbb     H8  534   4.538   1.382   5.534  2.0525 -0.1394 -0.1295
   18bbb     C5  535   4.844   1.210   5.919 -0.0897  0.7592 -0.1465
   18bbb     H9  536   4.857   1.259   6.016  0.1293 -0.1386  0.2825
   18bbb    H10  537   4.860   1.291   5.847  2.1524  1.4148  0.9872
   18bbb     C6  538   4.663   0.997   5.559  0.1110  0.3696 -0.2588
   18bbb    H11  539   4.684   1.060   5.472  1.5915  0.8070  0.3746
   18bbb    H12  540   4.555   0.983   5.574  0.1924 -0.1069 -0.0807
   18bbb     C7  541   4.382   1.280   5.628  0.0684 -0.3462  0.3085
   18bbb    H13  542   4.364   1.367   5.693 -1.6595  0.0566 -0.6523
   18bbb    H14  543   4.377   1.189   5.690  1.5079  0.2374  1.3441
   18bbb     C8  544   4.728   0.857   5.525 -0.3028  0.2258 -0.3340
   18bbb    H15  545   4.704   0.782   5.601  2.2981 -0.5508 -0.1912
   18bbb    H16  546   4.837   0.868   5.518 -0.2791 -0.0742 -0.4405
   18bbb     C9  547   4.956   1.103   5.917 -0.7748 -0.2836  0.4373
   18bbb    H17  548   4.927   1.012   5.863  2.1240 -0.7279 -0.5650
   18bbb    H18  549   4.968   1.065   6.019  0.2818 -1.5089 -0.1075
   18bbb     O1  550   4.300   1.281   5.510 -0.2163 -0.8025  0.3732
   19bbb     N1  551   4.414   2.232   5.171 -0.3934  0.4523  0.5167
   19bbb     C1  552   4.370   2.351   5.107  0.4389  0.5221  0.5620
   19bbb     H1  553   4.460   2.410   5.083  0.8879 -0.6391 -0.7862
   19bbb     H2  554   4.311   2.411   5.177 -0.5715  1.2793 -0.8822
   19bbb     C2  555   4.515   2.263   5.284 -0.0810  0.1202  0.6255
   19bbb     H3  556   4.569   2.171   5.309  0.8513 -0.3059 -2.4552
   19bbb     H4  557   4.458   2.303   5.369  1.4625  1.9572  0.8703
   19bbb     C3  558   4.297   2.163   5.229  0.3569  0.8995 -0.7348
   19bbb     H5  559   4.216   2.138   5.159 -1.5869 -0.7760  1.8998
   19bbb     H6  560   4.243   2.222   5.305  0.2508  0.0721 -0.1498
   19bbb     C4  561   4.326   2.031   5.308 -0.1835  0.3037 -0.0019
   19bbb     H7  562   4.369   2.058   5.406 -1.7062 -0.2180  0.8450
   19bbb     H8  563   4.402   1.973   5.255  1.4363  2.3210 -0.0322
   19bbb     C5  564   4.296   2.335   4.966 -0.2713  0.1139 -0.7962
   19bbb     H9  565   4.209   2.269   4.978 -0.3342 -0.3338 -3.1038
   19bbb    H10  566   4.357   2.283   4.891  1.4031  1.3581 -0.3485
   19bbb     C6  567   4.637   2.359   5.252 -0.3282  0.3072  0.1623
   19bbb    H11  568   4.698   2.385   5.339 -2.3112 -0.5623  1.9058
   19bbb    H12  569   4.597   2.455   5.220 -2.0046 -0.3832  0.0891
   19bbb     C7  570   4.200   1.950   5.331  0.2377  0.2417  0.0987
   19bbb    H13  571   4.153   1.914   5.239  0.4197 -0.0151  0.1067
   19bbb    H14  572   4.130   2.002   5.397 -0.0565  0.5005 -0.4068
   19bbb     C8  573   4.744   2.293   5.162 -0.4215  0.8729  0.0198
   19bbb    H15  574   4.825   2.364   5.142 -1.5957  1.8177 -1.6014
   19bbb    H16  575   4.704   2.264   5.064  0.7997 -0.1253 -0.2047
   19bbb     C9  576   4.241   2.469   4.905 -0.2299  0.0761 -0.0574
   19bbb    H17  577   4.186   2.435   4.816  1.0001 -1.7261 -0.1764
   19bbb    H18  578   4.333   2.526   4.885  0.6288 -0.9922  0.7682
   19bbb     O1  579   4.244   1.824   5.387 -0.1327  0.1375 -0.1114
   20bbb     N1  580   4.177   0.950   5.759  0.2834  0.3015  0.5519
   20bbb     C1  581   4.318   0.957   5.789 -0.1604  0.4460 -0.2491
   20bbb     H1  582   4.326   1.047   5.850  2.4009  0.1991 -0.1397
   20bbb     H2  583   4.375   0.983   5.699  1.5548  1.6621  1.1366
   20bbb     C2  584   4.084   0.962   5.875  0.5440  0.2554  0.2214
   20bbb     H3  585   4.085   0.877   5.945  2.2649  0.3134  0.3163
   20bbb     H4  586   3.982   0.960   5.836  0.8606 -2.2721 -0.6512
   20bbb     C3  587   4.146   0.836   5.660 -0.3320 -0.1661  0.5094
   20bbb     H5  588   4.164   0.744   5.716  0.3040  0.6993  1.7899
   20bbb     H6  589   4.223   0.838   5.583  1.1584 -1.7749  1.8808
   20bbb     C4  590   4.003   0.827   5.608  0.8159 -0.3061 -0.3661
   20bbb     H7  591   3.931   0.806   5.689 -0.8575  0.3799 -1.5999
   20bbb     H8  592   4.008   0.740   5.542  1.9559 -0.2760 -0.3367
   20bbb     C5  593   4.381   0.836   5.866  0.3313 -0.4498 -0.5215
   20bbb     H9  594   4.296   0.783   5.910 -0.5067 -0.7602 -2.4116
   20bbb    H10  595   4.443   0.862   5.953  0.7423  1.1590 -1.2558
   20bbb     C6  596   4.098   1.083   5.976  0.9782 -0.6139  0.2955
   20bbb    H11  597   4.008   1.096   6.037 -0.7435  1.9144 -2.5452
   20bbb    H12  598   4.098   1.168   5.907 -1.5645 -0.1984  0.7259
   20bbb     C7  599   3.958   0.955   5.532 -0.1383 -0.5687  0.6716
   20bbb    H13  600   4.043   0.959   5.462  0.9042 -1.5889  1.8246
   20bbb    H14  601   3.955   1.046   5.593 -2.4380 -1.2295  1.6276
   20bbb     C8  602   4.212   1.082   6.080 -0.5038  0.9205 -0.1068
   20bbb    H15  603   4.206   1.151   6.165 -0.5371 -1.2024  1.6970
   20bbb    H16  604   4.298   1.125   6.027 -0.6193  2.7097  1.0788
   20bbb     C9  605   4.458   0.745   5.775 -0.0636 -0.4813  0.1468
   20bbb    H17  606   4.549   0.794   5.740  0.0685 -1.1459 -0.4781
   20bbb    H18  607   4.399   0.722   5.686  1.6031  0.3685 -1.2323
   20bbb     O1  608   3.836   0.916   5.472 -0.2057 -0.3528 -0.2048
   21bbb     N1  609   2.905   1.418   5.399 -0.2412  0.0583  0.1421
   21bbb     C1  610   2.911   1.267   5.389  0.9457  0.7207  0.6456
   21bbb     H1  611   2.999   1.229   5.442  0.9310 -0.0996  0.0973
   21bbb     H2  612   2.922   1.233   5.285 -0.5672  0.9221  0.3993
   21bbb     C2  613   2.896   1.469   5.538  0.0279 -0.9409 -0.1603
   21bbb     H3  614   2.972   1.429   5.606  0.8370 -1.7704 -1.5284
   21bbb     H4  615   2.795   1.452   5.579 -0.1987 -0.6119 -0.5760
   21bbb     C3  616   3.026   1.477   5.328 -0.2522  0.6003  0.2780
   21bbb     H5  617   3.115   1.439   5.380 -0.5187 -0.0801  0.2420
   21bbb     H6  618   3.019   1.585   5.345 -0.6486  0.1434  3.5872
   21bbb     C4  619   3.041   1.448   5.172 -0.0544 -0.1437  0.0424
   21bbb     H7  620   2.946   1.477   5.126  0.5278  0.4334 -0.8430
   21bbb     H8  621   3.059   1.342   5.150  2.3828  0.2782 -0.3364
   21bbb     C5  622   2.774   1.204   5.440 -0.1273  0.2573 -0.6395
   21bbb     H9  623   2.755   1.110   5.387 -1.4542  0.8350 -1.2278
   21bbb    H10  624   2.688   1.266   5.415  0.4359  1.3438  0.0777
   21bbb     C6  625   2.917   1.627   5.566  0.4268  0.4663 -0.3978
   21bbb    H11  626   2.852   1.687   5.500 -2.8557 -3.1310 -0.8443
   21bbb    H12  627   3.020   1.648   5.534  0.9474 -1.5684 -0.1373
   21bbb     C7  628   3.153   1.531   5.106  0.5011 -0.1055 -0.5128
   21bbb    H13  629   3.138   1.635   5.138  2.5640  0.3019 -0.7243
   21bbb    H14  630   3.142   1.518   4.997 -1.3809 -0.3743 -0.3314
   21bbb     C8  631   2.882   1.677   5.705 -0.7438 -0.5476 -0.1447
   21bbb    H15  632   2.952   1.639   5.781 -1.4909  3.6129  2.9383
   21bbb    H16  633   2.783   1.645   5.738 -0.8462  0.2441  0.3386
   21bbb     C9  634   2.765   1.163   5.590 -0.0277 -0.4648 -0.0771
   21bbb    H17  635   2.804   1.243   5.655  2.9996 -3.3550  2.0320
   21bbb    H18  636   2.827   1.073   5.603 -0.7311 -1.0616 -0.7925
   21bbb     O1  637   3.272   1.483   5.169 -0.0466 -0.4909 -0.3501
   22bbb     N1  638   2.723   0.376   6.737  0.1444  0.1378  1.1414
   22bbb     C1  639   2.771   0.444   6.609  0.0744  0.8525  0.4509
   22bbb     H1  640   2.738   0.549   6.602  0.8163  1.2690  2.4411
   22bbb     H2  641   2.718   0.397   6.525  0.6143 -0.5026  0.8379
   22bbb     C2  642   2.582   0.414   6.774 -0.0789  0.3311 -0.2430
   22bbb     H3  643   2.582   0.523   6.769 -0.1883  0.3618  0.3282
   22bbb     H4  644   2.567   0.383   6.878 -1.4418 -2.5247 -1.1779
   22bbb     C3  645   2.817   0.391   6.847 -0.1129 -0.7909  0.2622
   22bbb     H5  646   2.909   0.342   6.811  0.2883  0.9739 -1.2280
   22bbb     H6  647   2.784   0.335   6.936 -1.5314  0.5769  0.6372
   22bbb     C4  648   2.860   0.539   6.885  0.4651  0.1923 -0.2414
   22bbb     H7  649   2.768   0.574   6.932  0.0640 -2.1125  0.8750
   22bbb     H8  650   2.883   0.603   6.799  0.7382  0.8907  0.3453
   22bbb     C5  651   2.918   0.427   6.571  0.2588  0.1361  0.5633
   22bbb     H9  652   2.983   0.478   6.644  1.6029  0.6983 -0.9550
   22bbb    H10  653   2.941   0.484   6.481  0.4685 -0.7078  0.0737
   22bbb     C6  654   2.470   0.358   6.679  0.0727 -0.5049 -0.1231
   22bbb    H11  655   2.485   0.251   6.658 -1.4266 -0.8435  0.3945
   22bbb    H12  656   2.466   0.395   6.575 -2.6925  2.2723  0.8251
   22bbb     C7  657   2.978   0.548   6.991  0.0199  0.0093 -0.2803
   22bbb    H13  658   2.948   0.497   7.084  1.1821 -1.1465 -0.5008
   22bbb    H14  659   2.986   0.656   7.008  0.7044 -0.0867  0.0671
   22bbb     C8  660   2.328   0.376   6.734 -0.1960 -0.6867  0.4463
   22bbb    H15  661   2.321   0.306   6.817 -1.4055  0.3017  1.2037
   22bbb    H16  662   2.247   0.351   6.665 -1.7249 -1.6334  2.4970
   22bbb     C9  663   2.957   0.272   6.548  0.2965 -0.2909 -0.3544
   22bbb    H17  664   2.942   0.218   6.642  0.9302 -1.7482 -1.0626
   22bbb    H18  665   3.065   0.268   6.531  0.3379 -0.9898  0.0339
   22bbb     O1  666   3.092   0.489   6.929  0.5887 -0.2176  0.0488
   23bbb     N1  667   4.344  -0.035   7.268 -0.5460  0.3903  0.0899
   23bbb     C1  668   4.482   0.027   7.293  0.1235 -0.1902 -0.4563
   23bbb     H1  669   4.562  -0.047   7.283  0.1853  0.1128 -2.7988
   23bbb     H2  670   4.490   0.086   7.385  0.0279 -0.4525 -0.2774
   23bbb     C2  671   4.316  -0.165   7.336  0.0503 -0.1013 -0.0350
   23bbb     H3  672   4.223  -0.207   7.295 -0.9006  1.7803  0.0711
   23bbb     H4  673   4.303  -0.146   7.443 -0.4113  1.1383 -0.3002
   23bbb     C3  674   4.229   0.056   7.292  0.8555  0.6824 -1.0294
   23bbb     H5  675   4.254   0.159   7.263  0.5955  1.1595  0.3622
   23bbb     H6  676   4.191   0.058   7.395 -0.4879 -2.5378 -1.3531
   23bbb     C4  677   4.112   0.022   7.194 -0.7970  0.1522 -0.5221
   23bbb     H7  678   4.087  -0.084   7.205  1.8437 -0.5144 -0.0659
   23bbb     H8  679   4.150   0.033   7.092  0.3683  0.2118 -0.1083
   23bbb     C5  680   4.529   0.120   7.176 -0.0325  0.4742  0.0180
   23bbb     H9  681   4.463   0.205   7.154 -0.4216 -0.3859 -2.4935
   23bbb    H10  682   4.522   0.054   7.089  0.5356  1.5750 -0.8811
   23bbb     C6  683   4.425  -0.276   7.314 -0.2875  0.5947 -0.0586
   23bbb    H11  684   4.529  -0.245   7.334 -0.9253  1.9450  1.3974
   23bbb    H12  685   4.422  -0.308   7.210 -0.4602  0.4867 -0.0203
   23bbb     C7  686   3.980   0.109   7.214  0.5635  0.5234  0.2173
   23bbb    H13  687   4.002   0.200   7.157 -1.6069 -0.9691 -3.4000
   23bbb    H14  688   3.973   0.144   7.317  1.6134  2.2350 -0.2439
   23bbb     C8  689   4.389  -0.395   7.407 -0.2709  0.5505  0.8253
   23bbb    H15  690   4.374  -0.343   7.502 -0.8858 -0.1514  1.1202
   23bbb    H16  691   4.472  -0.467   7.409 -1.1357 -0.4629  1.0277
   23bbb     C9  692   4.671   0.170   7.196  0.4293 -0.2889 -0.7237
   23bbb    H17  693   4.677   0.214   7.296  1.6905 -1.4756 -0.2370
   23bbb    H18  694   4.682   0.249   7.121  0.4247 -1.2528 -1.7752
   23bbb     O1  695   3.864   0.040   7.158  0.0612 -0.0913  0.2386
   24bbb     N1  696   5.420   1.564   6.388  0.1270 -0.1137 -0.2958
   24bbb     C1  697   5.494   1.575   6.519 -0.0701  0.3051 -0.4969
   24bbb     H1  698   5.438   1.512   6.590  1.0687 -0.1994 -0.0173
   24bbb     H2  699   5.480   1.679   6.550  0.1313  0.3952 -0.7067
   24bbb     C2  700   5.447   1.437   6.316  0.1345 -0.3615 -0.1891
   24bbb     H3  701   5.555   1.427   6.299  0.4025 -1.4474  1.7558
   24bbb     H4  702   5.397   1.445   6.219 -0.5553  2.6227  0.3376
   24bbb     C3  703   5.273   1.581   6.407 -1.2025 -0.2302 -0.0085
   24bbb     H5  704   5.240   1.675   6.454 -2.4209 -0.5535 -0.1763
   24bbb     H6  705   5.250   1.508   6.485  1.5601 -2.6097 -1.2447
   24bbb     C4  706   5.179   1.543   6.285  0.2282  0.0560 -0.3756
   24bbb     H7  707   5.188   1.438   6.256  1.0396  0.5450 -2.0173
   24bbb     H8  708   5.213   1.605   6.201  0.7472  0.3725  0.0586
   24bbb     C5  709   5.642   1.537   6.514  0.2951  0.5301 -0.6868
   24bbb     H9  710   5.648   1.432   6.483 -3.1854 -0.5171  1.5604
   24bbb    H10  711   5.685   1.538   6.615 -1.5256 -0.4003  0.1584
   24bbb     C6  712   5.403   1.309   6.389 -0.5619  0.2628  0.0062
   24bbb    H11  713   5.294   1.301   6.402 -0.4037 -0.1107  1.2820
   24bbb    H12  714   5.450   1.299   6.488  2.0079 -3.7795 -1.3807
   24bbb     C7  715   5.033   1.582   6.308 -0.0874  0.5033  0.3058
   24bbb    H13  716   4.980   1.569   6.212  0.5814 -0.4993  0.0544
   24bbb    H14  717   5.021   1.689   6.330  1.3804  0.9869 -1.0492
   24bbb     C8  718   5.461   1.190   6.314  0.7433  0.0176  0.1648
   24bbb    H15  719   5.570   1.203   6.320  0.7839 -0.7958  1.4468
   24bbb    H16  720   5.414   1.187   6.215  0.4780 -0.8834  0.3106
   24bbb     C9  721   5.725   1.636   6.427  0.1902 -0.9326  0.0878
   24bbb    H17  722   5.664   1.672   6.343  0.6184  3.1257  1.3002
   24bbb    H18  723   5.812   1.598   6.373 -0.1408  2.4229 -3.2315
   24bbb     O1  724   4.962   1.490   6.409  0.5950 -0.2641 -0.7642
   25bbb     N1  725   4.893   0.968   6.634  0.0006 -0.3596 -0.1380
   25bbb     C1  726   4.890   0.827   6.590 -0.4455 -0.6933 -0.1575
   25bbb     H1  727   4.785   0.799   6.599 -1.3567  2.5985  0.7045
   25bbb     H2  728   4.948   0.761   6.655  1.6265 -0.2419 -1.4512
   25bbb     C2  729   5.020   1.022   6.684 -0.5630  0.0096  0.6295
   25bbb     H3  730   5.107   0.978   6.633 -0.1053  0.3352  1.1186
   25bbb     H4  731   5.035   0.991   6.788  0.0863  1.1422  0.8971
   25bbb     C3  732   4.772   1.014   6.703  0.0154  0.6702  0.2896
   25bbb     H5  733   4.687   0.982   6.642  0.8727  0.3423 -0.7657
   25bbb     H6  734   4.768   1.123   6.705  1.0364  0.7104  0.9491
   25bbb     C4  735   4.758   0.962   6.852 -0.5901  0.0457  0.2152
   25bbb     H7  736   4.844   0.983   6.916 -1.1271 -0.2570  1.0529
   25bbb     H8  737   4.742   0.853   6.848 -2.4108  0.3012 -0.6009
   25bbb     C5  738   4.934   0.800   6.449 -0.4024  0.5473 -0.8595
   25bbb     H9  739   5.044   0.808   6.452 -0.3328 -0.4441 -0.6668
   25bbb    H10  740   4.895   0.873   6.376 -1.6488 -1.1405 -1.9406
   25bbb     C6  741   5.030   1.171   6.657  0.9444 -0.0302 -0.5486
   25bbb    H11  742   4.946   1.224   6.704  0.1356 -1.0248 -0.8514
   25bbb    H12  743   5.010   1.183   6.549 -0.2844 -3.7487 -0.8475
   25bbb     C7  744   4.624   1.026   6.908 -0.0998 -0.1938 -0.5156
   25bbb    H13  745   4.603   0.994   7.011 -2.4174 -2.2677 -1.5259
   25bbb    H14  746   4.534   0.984   6.862 -0.2012 -0.5790  0.0188
   25bbb     C8  747   5.164   1.235   6.682  0.1040  0.3052 -0.3599
   25bbb    H15  748   5.170   1.336   6.641  1.7704 -0.3220 -1.8024
   25bbb    H16  749   5.240   1.171   6.634 -0.0062 -0.9664  1.0783
   25bbb     C9  750   4.905   0.658   6.400 -0.9316  0.2078  0.3280
   25bbb    H17  751   4.898   0.660   6.290 -2.5994 -1.2366  0.3634
   25bbb    H18  752   4.803   0.632   6.429 -1.1156  1.4286  0.8232
   25bbb     O1  753   4.637   1.166   6.915  0.6105 -0.7804 -0.0033
   26bbb     N1  754   3.643   0.533   5.798  0.4225  0.5273 -0.4328
   26bbb     C1  755   3.514   0.484   5.736 -0.3261 -0.6091 -0.1088
   26bbb     H1  756   3.482   0.549   5.655 -1.8731 -0.1924  0.8010
   26bbb     H2  757   3.435   0.488   5.812 -0.1206  2.1791  0.0437
   26bbb     C2  758   3.762   0.513   5.718 -0.1631  0.0836  0.2627
   26bbb     H3  759   3.756   0.585   5.635  0.2423  0.3714  0.4819
   26bbb     H4  760   3.760   0.413   5.672 -1.6158  0.5380 -0.7367
   26bbb     C3  761   3.627   0.672   5.859 -0.3689  0.3662  0.1134
   26bbb     H5  762   3.704   0.689   5.936  2.2964 -0.1205 -2.2998
   26bbb     H6  763   3.529   0.673   5.909 -0.5585  1.0372 -0.2598
   26bbb     C4  764   3.623   0.784   5.757 -0.0323 -0.2229  0.2410
   26bbb     H7  765   3.578   0.753   5.662 -2.5434  0.7034  1.0353
   26bbb     H8  766   3.725   0.820   5.742  0.6109 -1.7027  0.7968
   26bbb     C5  767   3.509   0.336   5.680 -0.8985 -0.5006  0.1060
   26bbb     H9  768   3.549   0.273   5.760 -0.6576  0.3763  0.6932
   26bbb    H10  769   3.580   0.319   5.598 -1.3484 -1.1890 -0.1527
   26bbb     C6  770   3.901   0.529   5.797 -0.0514  0.5159 -0.4248
   26bbb    H11  771   3.902   0.634   5.829 -0.5493  0.9914 -1.8824
   26bbb    H12  772   3.983   0.515   5.727  0.1191 -1.4388  0.1031
   26bbb     C7  773   3.540   0.907   5.800 -0.2476  0.2190  0.2149
   26bbb    H13  774   3.479   0.875   5.885 -0.0189  0.4103  0.4545
   26bbb    H14  775   3.470   0.927   5.718  2.0039  1.9217 -1.4144
   26bbb     C8  776   3.917   0.416   5.908  0.1024 -0.6992  1.4365
   26bbb    H15  777   3.896   0.316   5.867 -1.5566  0.5288 -0.8979
   26bbb    H16  778   3.841   0.427   5.986  0.4615 -1.3722  1.9005
   26bbb     C9  779   3.372   0.294   5.628 -0.1807 -0.3762 -0.5175
   26bbb    H17  780   3.392   0.208   5.563  0.8603  0.6459 -1.6142
   26bbb    H18  781   3.325   0.369   5.564 -0.5697  1.7119  2.0275
   26bbb     O1  782   3.618   1.019   5.837 -0.3879  0.0210  0.1179
   27bbb     N1  783   2.736   1.149   6.173 -0.5439  0.0454  0.1367
   27bbb     C1  784   2.669   1.225   6.062 -0.0939  0.0938  0.3175
   27bbb     H1  785   2.560   1.216   6.062 -0.1682  0.9375 -0.3999
   27bbb     H2  786   2.707   1.192   5.965 -0.1274  2.6309 -0.6196
   27bbb     C2  787   2.682   1.176   6.310  0.0912  0.1133 -0.7313
   27bbb     H3  788   2.734   1.261   6.357  0.0702 -0.6471  0.7006
   27bbb     H4  789   2.718   1.101   6.381 -2.1565  0.4805  0.8855
   27bbb     C3  790   2.889   1.148   6.163 -0.5828  0.2331 -0.4139
   27bbb     H5  791   2.928   1.248   6.185 -1.4957  0.3565  0.7425
   27bbb     H6  792   2.901   1.129   6.056 -0.8203 -1.4895 -0.1646
   27bbb     C4  793   2.957   1.040   6.253  0.3934  0.5809 -0.0156
   27bbb     H7  794   2.897   0.948   6.247  2.5933 -0.9432  0.0624
   27bbb     H8  795   2.940   1.070   6.358  1.5809  1.2995 -0.0057
   27bbb     C5  796   2.686   1.379   6.065  0.1648 -0.5713 -0.1644
   27bbb     H9  797   2.790   1.406   6.087  1.1390 -2.9863 -1.5225
   27bbb    H10  798   2.631   1.422   6.150 -0.7105  2.2355 -1.9871
   27bbb     C6  799   2.527   1.199   6.322  0.3056  0.1490  0.3189
   27bbb    H11  800   2.507   1.296   6.275  2.5508  0.5099 -0.0276
   27bbb    H12  801   2.522   1.220   6.430  1.1261  3.9023 -0.2342
   27bbb     C7  802   3.102   1.014   6.213  0.1932 -0.6767  0.5450
   27bbb    H13  803   3.096   0.980   6.109 -0.7287 -0.1486  0.4205
   27bbb    H14  804   3.149   0.933   6.271  1.3189 -1.6587 -1.6289
   27bbb     C8  805   2.424   1.089   6.265  0.1030 -0.0942 -0.2777
   27bbb    H15  806   2.466   0.999   6.311  2.6875  0.7267 -0.8490
   27bbb    H16  807   2.434   1.091   6.156 -1.7959 -1.8198 -0.5257
   27bbb     C9  808   2.648   1.440   5.932 -0.0178  0.4157 -0.1408
   27bbb    H17  809   2.733   1.421   5.865 -0.4931 -2.3726 -0.0892
   27bbb    H18  810   2.640   1.549   5.923  0.3919  0.4685  0.0992
   27bbb     O1  811   3.171   1.137   6.237  0.1327 -0.2284 -0.0700
   28bbb     N1  812   2.987  -0.034   6.922 -0.2852 -0.2363  0.0630
   28bbb     C1  813   2.848   0.017   6.881 -0.3457 -0.2476  0.1793
   28bbb     H1  814   2.857   0.124   6.861  2.6501  0.6374  4.7159
   28bbb     H2  815   2.765  -0.000   6.951 -1.8682  2.6875 -0.7364
   28bbb     C2  816   3.098  -0.002   6.824  0.4371 -0.4244 -0.2186
   28bbb     H3  817   3.109   0.103   6.794  3.4465 -0.6452 -0.1955
   28bbb     H4  818   3.077  -0.058   6.732  1.6032  0.2527 -0.9234
   28bbb     C3  819   3.017  -0.017   7.061  0.1631  0.2722  0.2347
   28bbb     H5  820   3.101  -0.076   7.100 -0.1837 -0.5193 -0.1919
   28bbb     H6  821   2.924  -0.037   7.115  0.1436 -1.4012 -0.3507
   28bbb     C4  822   3.057   0.122   7.103 -0.4290  0.4160  0.3967
   28bbb     H7  823   2.971   0.186   7.078 -0.7093 -0.4576 -0.9560
   28bbb     H8  824   3.151   0.144   7.052  1.5104 -4.7123  1.1715
   28bbb     C5  825   2.806  -0.061   6.749 -0.1373 -0.1550 -0.6807
   28bbb     H9  826   2.788  -0.165   6.779  0.8321  0.1464  1.1040
   28bbb    H10  827   2.887  -0.045   6.676 -0.7376 -0.5837 -1.4606
   28bbb     C6  828   3.241  -0.042   6.868 -0.1107 -0.4127 -0.4706
   28bbb    H11  829   3.265   0.011   6.961  1.3819 -0.0112 -1.0625
   28bbb    H12  830   3.314  -0.016   6.791  0.2717 -1.1827 -0.3754
   28bbb     C7  831   3.086   0.132   7.253 -0.1291  1.1042  0.9172
   28bbb    H13  832   3.188   0.099   7.276  0.0063  0.5263 -0.4432
   28bbb    H14  833   3.010   0.069   7.300 -1.0960  1.1299 -0.5257
   28bbb     C8  834   3.260  -0.197   6.884 -0.5834  0.7386  0.0381
   28bbb    H15  835   3.252  -0.243   6.785 -0.1539  1.3504 -0.2847
   28bbb    H16  836   3.172  -0.234   6.938 -0.1702 -2.0619 -1.0058
   28bbb     C9  837   2.676  -0.000   6.687  0.2813  0.0165  0.2143
   28bbb    H17  838   2.693   0.104   6.658  1.9862 -0.2619  0.1098
   28bbb    H18  839   2.601  -0.005   6.767  0.2300 -1.9508  0.0930
   28bbb     O1  840   3.059   0.263   7.292 -0.0040 -0.3359  0.1893
   29bbb     N1  841   2.601   0.929   6.750 -0.0632  0.2944  0.1142
   29bbb     C1  842   2.661   1.025   6.656  0.5845 -0.1463 -0.0905
   29bbb     H1  843   2.590   1.036   6.573  1.2631  2.6940 -0.3876
   29bbb     H2  844   2.749   0.972   6.618  0.3714 -0.4988 -0.1021
   29bbb     C2  845   2.573   0.790   6.686 -0.2683 -0.6622  0.1913
   29bbb     H3  846   2.512   0.728   6.753  0.2978 -0.1313  1.2285
   29bbb     H4  847   2.670   0.739   6.687  0.7278  1.1309  0.3609
   29bbb     C3  848   2.661   0.914   6.886  0.4575 -0.0367  0.0297
   29bbb     H5  849   2.692   1.012   6.924 -1.2617  0.1454  1.0360
   29bbb     H6  850   2.748   0.847   6.878 -0.7046 -1.9672  2.4033
   29bbb     C4  851   2.566   0.859   7.000 -0.3554 -0.3304 -0.2852
   29bbb     H7  852   2.552   0.752   6.986  1.5021 -0.6358 -0.0237
   29bbb     H8  853   2.464   0.898   6.992 -0.4934 -1.0306 -2.4431
   29bbb     C5  854   2.707   1.160   6.707 -0.8218  0.2147  0.6709
   29bbb     H9  855   2.763   1.211   6.628 -0.4604 -0.5172  0.4536
   29bbb    H10  856   2.791   1.132   6.772 -0.2743  0.2250 -0.0220
   29bbb     C6  857   2.521   0.801   6.543 -0.0604 -0.6623  1.1617
   29bbb    H11  858   2.606   0.828   6.478 -2.2270  0.9718 -1.2363
   29bbb    H12  859   2.451   0.885   6.530  1.5882  0.8333  1.5285
   29bbb     C7  860   2.614   0.875   7.149  0.1444 -0.1701  0.7002
   29bbb    H13  861   2.546   0.818   7.213  0.2821 -1.4464 -0.2515
   29bbb    H14  862   2.614   0.983   7.170 -0.1974  0.6784 -2.8844
   29bbb     C8  863   2.435   0.686   6.496  0.0575  0.5976  0.6885
   29bbb    H15  864   2.342   0.675   6.553 -0.8786  0.0810 -0.9077
   29bbb    H16  865   2.488   0.590   6.499  1.1140  1.0482 -1.5600
   29bbb     C9  866   2.593   1.250   6.769  0.2913 -0.4161  0.6717
   29bbb    H17  867   2.625   1.330   6.837 -1.1176  0.6406  0.1482
   29bbb    H18  868   2.524   1.194   6.834 -0.7555  0.4976  0.3757
   29bbb     O1  869   2.746   0.818   7.159 -0.2513 -0.1657 -0.3282
   30ccc     C1  870   5.258   0.677   6.853  0.1155 -0.1575  0.2312
   30ccc     C2  871   5.336   0.748   6.976  0.0066  0.5272  0.0558
   30ccc     H1  872   5.230   0.745   6.772 -0.3386  0.1578  0.6431
   30ccc     H2  873   5.427   0.794   6.936  0.1366  0.1408 -0.0940
   30ccc     C3  874   5.248   0.853   7.049  0.2486 -0.3595 -0.0805
   30ccc     C4  875   5.115   0.796   7.086  0.8320  1.2872 -0.1602
   30ccc     C5  876   5.044   0.727   6.966  0.5251  0.7710 -0.3428
   30ccc     H3  877   5.133   0.712   7.154 -0.8518  1.7924  0.9664
   30ccc     H4  878   5.225   0.931   6.975 -0.0884  1.4209  1.8025
   30ccc     H5  879   5.010   0.801   6.892 -0.2937  0.4378 -0.3145
   30ccc     O1  880   4.923   0.658   7.010  0.3883  0.2974  0.2678
   30ccc     O2  881   5.025   0.896   7.134  0.4720  0.5123  0.1588
   30ccc     O3  882   5.312   0.921   7.165  0.1203  0.3639  0.5804
   30ccc     O4  883   5.374   0.636   7.064 -0.3795  0.6818  0.6187
   30ccc     C6  884   5.334   0.553   6.793  0.3668  0.6638 -0.3310
   30ccc     H6  885   5.242   0.952   7.224 -2.0475 -1.4952 -0.8510
   30ccc     H7  886   5.393   0.561   7.005  0.4941  0.5438  1.0549
   30ccc     H8  887   4.967   0.847   7.195 -1.1200  0.9401 -0.9297
   30ccc     H9  888   5.421   0.585   6.735  2.8539 -2.8490  1.0697
   30ccc    H10  889   5.264   0.511   6.720 -0.1353 -0.3209  0.6860
   30ccc     O5  890   5.368   0.450   6.887 -0.5232  0.4395 -0.0644
   30ccc    H11  891   5.297   0.384   6.878  1.1337 -1.3479 -0.9641
   30ccc     O6  892   5.125   0.628   6.901 -0.0940 -0.2674  0.1029
   31ccc     C1  893   4.059  -0.005   6.728  0.4984 -0.2672 -0.6011
   31ccc     C2  894   4.144  -0.123   6.759 -0.2438  0.4052 -0.0257
   31ccc     H1  895   4.069   0.011   6.620 -2.9981 -0.6738 -1.1000
   31ccc     H2  896   4.120  -0.201   6.685 -1.3794  0.2591  0.4769
   31ccc     C3  897   4.291  -0.077   6.734 -0.1372  0.8242  0.0231
   31ccc     C4  898   4.330   0.051   6.815  0.7872  0.0522 -0.2893
   31ccc     C5  899   4.232   0.163   6.792  0.1745 -0.2103  0.6185
   31ccc     H3  900   4.318   0.026   6.921  0.6584  0.3345 -0.2349
   31ccc     H4  901   4.295  -0.039   6.631 -0.2725  3.1459  0.8077
   31ccc     H5  902   4.250   0.215   6.697 -1.3364 -0.0362  0.3985
   31ccc     O1  903   4.259   0.259   6.900 -0.0520 -0.3241  0.0084
   31ccc     O2  904   4.469   0.096   6.785  0.4732  0.5641  0.3021
   31ccc     O3  905   4.375  -0.195   6.755 -0.1193 -0.0145  0.6493
   31ccc     O4  906   4.123  -0.169   6.891 -0.2969 -0.2750 -0.5891
   31ccc     C6  907   3.908  -0.025   6.761  0.5291 -0.5159 -0.1252
   31ccc     H6  908   4.412  -0.227   6.671 -0.1280 -1.0605  1.0320
   31ccc     H7  909   4.194  -0.235   6.895 -1.1797 -1.3254 -1.3125
   31ccc     H8  910   4.526   0.038   6.838  0.0566 -0.3232 -0.2023
   31ccc     H9  911   3.889   0.012   6.863  0.5007  2.1275 -1.0180
   31ccc    H10  912   3.872  -0.128   6.755 -0.0836 -0.4119  1.3571
   31ccc     O5  913   3.842   0.068   6.680 -0.1677  0.1171  0.1846
   31ccc    H11  914   3.750   0.038   6.689  0.4762 -2.0444  0.0729
   31ccc     O6  915   4.100   0.110   6.806 -0.3671 -0.5953 -0.0204
   32ccc     C1  916   5.335   1.938   6.653  0.2972 -0.6315 -0.0179
   32ccc     C2  917   5.392   1.972   6.513  0.3948  0.5272  0.2814
   32ccc     H1  918   5.287   1.839   6.651  0.5225 -0.7347 -0.5900
   32ccc     H2  919   5.448   1.885   6.479 -1.4219 -0.9211  0.8650
   32ccc     C3  920   5.272   1.996   6.417  0.4681  0.2103  0.1100
   32ccc     C4  921   5.162   2.106   6.464  0.1513  1.1389 -0.7444
   32ccc     C5  922   5.122   2.077   6.616 -0.9622 -0.4068  0.1681
   32ccc     H3  923   5.216   2.201   6.474 -0.3826  1.2605  1.6882
   32ccc     H4  924   5.211   1.905   6.416 -1.6858  1.5685  1.1286
   32ccc     H5  925   5.053   1.996   6.642 -1.9120  1.1153  2.7420
   32ccc     O1  926   5.052   2.189   6.675  0.0600  0.0273 -0.1549
   32ccc     O2  927   5.052   2.104   6.369 -0.3312  0.0907  0.5496
   32ccc     O3  928   5.313   2.024   6.275 -0.1719 -0.4309  0.2642
   32ccc     O4  929   5.475   2.086   6.513  0.0077 -0.1579  0.2280
   32ccc     C6  930   5.451   1.919   6.753  0.5813 -0.1388 -0.1095
   32ccc     H6  931   5.364   1.947   6.245  0.4986  0.2643 -0.4233
   32ccc     H7  932   5.562   2.063   6.551  0.6598  0.1300 -1.0357
   32ccc     H8  933   5.001   2.026   6.394 -1.3470  0.5241 -0.1176
   32ccc     H9  934   5.490   2.015   6.788  0.9292 -0.6926  1.0911
   32ccc    H10  935   5.538   1.866   6.712  0.2638  0.2448 -1.3139
   32ccc     O5  936   5.393   1.859   6.862 -0.2946  0.7621  0.0684
   32ccc    H11  937   5.313   1.908   6.887 -0.5820 -0.8212  2.5294
   32ccc     O6  938   5.248   2.052   6.695 -0.4264 -0.0002  0.6477
   33ccc     C1  939   4.735   1.295   7.232 -0.4627 -0.1371 -0.2119
   33ccc     C2  940   4.866   1.213   7.245 -0.1482  0.4927  0.4756
   33ccc     H1  941   4.678   1.250   7.150 -1.2688  1.0160 -0.3176
   33ccc     H2  942   4.841   1.108   7.263  0.0770  0.2944 -0.3190
   33ccc     C3  943   4.935   1.223   7.103 -0.0212 -0.3300 -0.1482
   33ccc     C4  944   4.965   1.371   7.073  0.2900  0.2193 -0.1079
   33ccc     C5  945   4.840   1.466   7.086  0.3704 -0.2818 -0.7583
   33ccc     H3  946   5.052   1.402   7.131  0.7682 -1.2871  0.0026
   33ccc     H4  947   4.864   1.197   7.024 -1.7168  0.5886  0.9922
   33ccc     H5  948   4.785   1.468   6.991 -0.2193 -2.6453 -0.5135
   33ccc     O1  949   4.885   1.600   7.119 -0.2661  0.5938  0.1022
   33ccc     O2  950   5.011   1.379   6.937 -0.5048  0.0005 -0.1994
   33ccc     O3  951   5.064   1.157   7.081 -0.0217  0.1580  0.0022
   33ccc     O4  952   4.942   1.259   7.357 -0.3389  0.2325 -0.0510
   33ccc     C6  953   4.648   1.292   7.363 -0.3847 -0.1927 -0.5676
   33ccc     H6  954   5.050   1.066   7.114 -1.6417  0.5035  0.3623
   33ccc     H7  955   4.871   1.293   7.415 -1.8945 -4.0759  0.9734
   33ccc     H8  956   5.070   1.304   6.921  0.9301  1.0130  0.1793
   33ccc     H9  957   4.607   1.191   7.378 -0.0778 -0.0117  1.9618
   33ccc    H10  958   4.564   1.362   7.359 -0.9584 -0.5756  2.5128
   33ccc     O5  959   4.724   1.319   7.482 -0.2482 -0.7324 -0.2119
   33ccc    H11  960   4.660   1.311   7.555  1.1558  0.5013  1.2117
   33ccc     O6  961   4.760   1.434   7.200 -0.0408 -0.3740  0.2626
   34ccc     C1  962   5.004   2.498   5.663  0.0688 -0.1774 -0.5506
   34ccc     C2  963   4.982   2.530   5.522  0.4849  0.7942  0.2056
   34ccc     H1  964   5.113   2.510   5.670 -0.1039  1.9109 -0.8837
   34ccc     H2  965   5.029   2.625   5.496  0.8524  0.1665 -1.5318
   34ccc     C3  966   5.064   2.433   5.422  0.6297 -0.4754 -0.7122
   34ccc     C4  967   5.016   2.290   5.447 -0.3612 -0.0367  0.1052
   34ccc     C5  968   5.017   2.255   5.602  0.0568  0.3899 -0.3573
   34ccc     H3  969   4.910   2.289   5.418 -1.2923  2.6843  2.8420
   34ccc     H4  970   5.170   2.454   5.441  0.0838  0.8147  1.1742
   34ccc     H5  971   5.121   2.248   5.635  0.2349  1.8669 -0.5641
   34ccc     O1  972   4.946   2.127   5.635 -0.2611  0.1439 -0.0042
   34ccc     O2  973   5.092   2.191   5.371  0.2151 -0.3068 -0.4015
   34ccc     O3  974   5.054   2.467   5.281  0.0112 -0.1314  0.1408
   34ccc     O4  975   4.846   2.531   5.484  0.3646  0.4029 -0.3229
   34ccc     C6  976   4.928   2.596   5.758  0.3994  0.0318  0.8331
   34ccc     H6  977   5.086   2.390   5.231  1.7215  0.1374  0.7328
   34ccc     H7  978   4.821   2.610   5.434 -1.5485  0.2193  0.2600
   34ccc     H8  979   5.045   2.106   5.367 -1.4866  0.4783  1.2621
   34ccc     H9  980   4.823   2.598   5.726  1.1837 -0.4424 -2.0289
   34ccc    H10  981   4.963   2.699   5.744  1.7464 -0.4928  0.1038
   34ccc     O5  982   4.943   2.555   5.890 -1.2182  0.1925  0.2352
   34ccc    H11  983   5.008   2.483   5.891 -0.6974  0.6540 -0.0257
   34ccc     O6  984   4.963   2.360   5.689 -0.3294 -0.6852 -0.2386
   35ccc     C1  985   4.671   1.375   5.071  0.2081 -1.2006 -0.1015
   35ccc     C2  986   4.694   1.226   5.123 -0.1504 -0.5362  0.0656
   35ccc     H1  987   4.750   1.408   5.002 -3.1433  3.3416 -2.3180
   35ccc     H2  988   4.723   1.167   5.035  0.8058  0.1774 -0.1113
   35ccc     C3  989   4.813   1.227   5.222 -0.5467 -0.2602 -0.4501
   35ccc     C4  990   4.795   1.323   5.346 -0.0159 -1.0878 -0.0441
   35ccc     C5  991   4.763   1.470   5.292  0.3228 -0.1870 -0.2261
   35ccc     H3  992   4.708   1.292   5.406 -0.4549 -2.2649 -1.2505
   35ccc     H4  993   4.891   1.271   5.157  0.3103 -1.2703 -0.1220
   35ccc     H5  994   4.851   1.520   5.250  1.1899 -2.4932 -1.3384
   35ccc     O1  995   4.712   1.549   5.401  0.5603 -0.4111 -0.2213
   35ccc     O2  996   4.922   1.305   5.417 -0.5242 -0.1001 -0.3417
   35ccc     O3  997   4.855   1.100   5.274  0.4149 -0.6441 -0.9115
   35ccc     O4  998   4.572   1.191   5.190 -0.0095 -0.0458  0.3746
   35ccc     C6  999   4.549   1.385   4.976 -0.4348 -0.5640 -0.5026
   35ccc     H6 1000   4.776   1.052   5.305  2.2305 -2.0658  1.9173
   35ccc     H7 1001   4.502   1.244   5.147 -0.2214  0.8624  1.7503
   35ccc     H8 1002   4.963   1.234   5.366  1.2019  1.0842 -0.7145
   35ccc     H9 1003   4.550   1.307   4.899 -0.4999  1.3710 -2.5575
   35ccc    H10 1004   4.553   1.481   4.924 -0.6637 -0.1900  0.1626
   35ccc     O5 1005   4.432   1.367   5.049  0.7408 -0.1954 -0.3819
   35ccc    H11 1006   4.415   1.449   5.098  0.5739  0.0538 -0.8420
   35ccc     O6 1007   4.658   1.473   5.188  0.0950  0.5430 -0.4048
   36ccc     C1 1008   5.108   1.850   5.671 -0.3138 -0.2526 -0.0606
   36ccc     C2 1009   5.202   1.953   5.737 -0.5765 -0.4236 -0.1449
   36ccc     H1 1010   5.017   1.903   5.641  1.3471  2.7723 -0.1677
   36ccc     H2 1011   5.224   2.039   5.672 -1.9156 -1.1136 -1.5459
   36ccc     C3 1012   5.143   1.999   5.871  0.6306 -0.9807 -0.5594
   36ccc     C4 1013   5.113   1.880   5.963 -0.5918 -0.1406 -0.2708
   36ccc     C5 1014   5.024   1.780   5.886 -0.6753  0.1728  0.4589
   36ccc     H3 1015   5.208   1.831   5.989  0.0043  1.3952  0.5946
   36ccc     H4 1016   5.042   2.032   5.845  1.0821 -1.7253 -3.6829
   36ccc     H5 1017   4.923   1.821   5.879 -1.8468 -2.6571 -0.7018
   36ccc     O1 1018   5.016   1.663   5.970 -0.0985 -0.5112  0.0383
   36ccc     O2 1019   5.044   1.931   6.087  0.4543 -0.5259 -0.0289
   36ccc     O3 1020   5.207   2.113   5.946  0.5072  0.3381 -0.2881
   36ccc     O4 1021   5.327   1.894   5.765 -0.1416  0.6921  0.4882
   36ccc     C6 1022   5.169   1.807   5.541  0.4599  0.6812  0.1584
   36ccc     H6 1023   5.302   2.093   5.938 -0.0167 -2.2788 -1.0456
   36ccc     H7 1024   5.384   1.912   5.688 -1.2575 -0.5690 -0.6990
   36ccc     H8 1025   4.948   1.912   6.086  0.0893  1.1749 -0.5891
   36ccc     H9 1026   5.251   1.736   5.562 -0.6857 -0.0841  2.2658
   36ccc    H10 1027   5.213   1.897   5.497 -0.0514  0.8281 -0.0570
   36ccc     O5 1028   5.067   1.746   5.456  0.0128 -0.8981  0.6511
   36ccc    H11 1029   5.043   1.663   5.501 -0.7317 -0.6162  0.7920
   36ccc     O6 1030   5.074   1.741   5.756 -0.0875  0.3979  0.1732
   37ccc     C1 1031   4.729   2.301   6.072  0.5865  0.0492  0.1768
   37ccc     C2 1032   4.866   2.328   6.146  0.1701  0.4336 -0.6364
   37ccc     H1 1033   4.667   2.392   6.077  0.9536  0.3235 -0.2640
   37ccc     H2 1034   4.918   2.416   6.105  2.2827  0.1974  1.3253
   37ccc     C3 1035   4.834   2.337   6.294 -0.3663 -0.2100  0.4425
   37ccc     C4 1036   4.752   2.211   6.340  0.8989 -0.1782 -0.1573
   37ccc     C5 1037   4.620   2.182   6.256  0.3900 -0.4712 -0.3605
   37ccc     H3 1038   4.816   2.122   6.326 -1.3969 -2.1179  0.9227
   37ccc     H4 1039   4.775   2.429   6.309 -0.7066 -0.7242  2.5003
   37ccc     H5 1040   4.550   2.264   6.276 -0.0450 -1.2761  1.5790
   37ccc     O1 1041   4.568   2.053   6.298  0.6221 -0.2396  0.6579
   37ccc     O2 1042   4.715   2.225   6.480  0.0875  0.4958 -0.3964
   37ccc     O3 1043   4.958   2.350   6.374  0.4349 -0.1824  0.0722
   37ccc     O4 1044   4.953   2.212   6.113 -0.1406  0.3985 -0.0033
   37ccc     C6 1045   4.727   2.275   5.919 -0.4453 -0.4965 -0.1613
   37ccc     H6 1046   5.001   2.266   6.352  0.3898 -0.2625  0.2835
   37ccc     H7 1047   4.912   2.182   6.029  2.3850  1.7045 -1.8391
   37ccc     H8 1048   4.770   2.296   6.516  0.1680 -1.5972  4.4663
   37ccc     H9 1049   4.737   2.371   5.867 -0.8347  1.0841  2.5172
   37ccc    H10 1050   4.624   2.245   5.893 -0.9468  1.4522 -0.5394
   37ccc     O5 1051   4.832   2.177   5.890 -0.1799 -0.2131  0.3547
   37ccc    H11 1052   4.841   2.162   5.795  2.7900 -2.1447  0.7991
   37ccc     O6 1053   4.653   2.185   6.120  0.3939 -0.4199  0.3973
   38ccc     C1 1054   4.802   0.464   5.372  0.3208 -0.1234 -0.4956
   38ccc     C2 1055   4.820   0.452   5.218 -0.1740  0.3278  0.1091
   38ccc     H1 1056   4.704   0.420   5.397  0.8321  0.3481  2.8751
   38ccc     H2 1057   4.818   0.344   5.202  0.0590  0.3192  0.1384
   38ccc     C3 1058   4.703   0.524   5.141  0.2582 -0.4718 -0.3736
   38ccc     C4 1059   4.685   0.672   5.193  0.0770 -0.0714 -0.5404
   38ccc     C5 1060   4.680   0.675   5.350 -0.0709 -0.0371  0.2056
   38ccc     H3 1061   4.773   0.729   5.161 -0.9990  0.4221 -2.8136
   38ccc     H4 1062   4.613   0.466   5.166 -0.9590  0.7835 -1.7393
   38ccc     H5 1063   4.583   0.628   5.371 -0.2009  0.0049 -0.2858
   38ccc     O1 1064   4.695   0.816   5.394  0.0513  0.0402 -0.0510
   38ccc     O2 1065   4.557   0.716   5.127  0.0116  0.6508  0.2327
   38ccc     O3 1066   4.736   0.535   4.996 -0.3292  0.0068 -0.3562
   38ccc     O4 1067   4.944   0.511   5.172  0.2796 -0.1220 -0.1667
   38ccc     C6 1068   4.911   0.394   5.459  0.1077  0.3963 -0.1453
   38ccc     H6 1069   4.661   0.584   4.959 -0.5857  1.8878  2.3803
   38ccc     H7 1070   4.929   0.516   5.076 -2.2049 -0.9358  0.1148
   38ccc     H8 1071   4.597   0.780   5.065 -0.4504  1.1601  0.4556
   38ccc     H9 1072   5.007   0.446   5.462 -0.5311  1.5756  0.2897
   38ccc    H10 1073   4.929   0.288   5.435 -1.3062  0.0905  0.0285
   38ccc     O5 1074   4.856   0.408   5.588  0.4313  0.2790  0.1049
   38ccc    H11 1075   4.885   0.496   5.618 -1.1624  0.3049  1.7483
   38ccc     O6 1076   4.791   0.603   5.410 -1.2185 -0.0638 -0.6463
   39ccc     C1 1077   5.158   0.967   5.567 -0.2965 -0.1918  0.3406
   39ccc     C2 1078   5.285   1.041   5.524  0.1683 -0.2217 -0.7372
   39ccc     H1 1079   5.072   0.994   5.503  0.2568  2.2549  0.5144
   39ccc     H2 1080   5.301   1.025   5.417  0.3938  0.4941 -0.8165
   39ccc     C3 1081   5.266   1.195   5.548 -0.7144 -0.4526 -0.4236
   39ccc     C4 1082   5.243   1.230   5.697  0.4824  0.0727  0.8845
   39ccc     C5 1083   5.112   1.147   5.729  0.5510  0.0523  0.0467
   39ccc     H3 1084   5.330   1.200   5.756  2.0803 -1.7496 -2.1761
   39ccc     H4 1085   5.178   1.226   5.491 -1.2943 -1.8848 -0.3519
   39ccc     H5 1086   5.023   1.185   5.678 -0.0419 -0.1117  0.9315
   39ccc     O1 1087   5.077   1.171   5.868  0.5429 -0.1462 -0.0007
   39ccc     O2 1088   5.214   1.370   5.713 -0.0123  0.6389 -0.2439
   39ccc     O3 1089   5.382   1.265   5.505 -0.3851 -1.2107  0.2313
   39ccc     O4 1090   5.400   0.989   5.589 -0.1423 -0.1513  0.0779
   39ccc     C6 1091   5.175   0.813   5.562 -0.1584 -0.4090 -0.0936
   39ccc     H6 1092   5.349   1.355   5.486  2.4372 -0.6120 -2.6149
   39ccc     H7 1093   5.460   1.066   5.585 -1.3566  0.7851 -2.0881
   39ccc     H8 1094   5.246   1.399   5.800  0.1666 -2.3271  0.8076
   39ccc     H9 1095   5.178   0.775   5.665 -0.5754 -0.9757 -0.2819
   39ccc    H10 1096   5.271   0.791   5.514  0.6622  0.5123  1.0768
   39ccc     O5 1097   5.054   0.758   5.512  0.2335  0.0989 -0.7641
   39ccc    H11 1098   5.069   0.736   5.419 -0.7082 -2.6011 -0.3609
   39ccc     O6 1099   5.135   1.003   5.703  0.0122 -0.2334 -0.4154
   40ccc     C1 1100   4.929   1.990   4.927  0.8223  0.2439 -0.3941
   40ccc     C2 1101   4.963   1.855   4.987 -0.4786  0.2281  0.1524
   40ccc     H1 1102   5.031   2.027   4.939  1.0844 -1.1606  2.7002
   40ccc     H2 1103   5.044   1.806   4.931 -0.8178  0.0351 -0.1730
   40ccc     C3 1104   5.004   1.865   5.139 -0.2555  0.0087 -0.0968
   40ccc     C4 1105   4.909   1.960   5.227  0.3258  0.0145 -0.0947
   40ccc     C5 1106   4.885   2.095   5.150  0.0056 -0.3211 -0.9294
   40ccc     H3 1107   4.818   1.899   5.233 -0.1070  0.5777 -0.8629
   40ccc     H4 1108   5.104   1.910   5.137 -0.7791  1.3499  1.4968
   40ccc     H5 1109   4.983   2.143   5.152 -0.6680  1.1037 -0.8649
   40ccc     O1 1110   4.785   2.170   5.223 -1.0207  0.3080 -0.5058
   40ccc     O2 1111   4.965   1.974   5.357  0.1915 -0.3131  0.3968
   40ccc     O3 1112   5.021   1.737   5.197 -0.3958 -0.2050  0.1901
   40ccc     O4 1113   4.845   1.774   4.976 -0.6728 -0.3238  0.1925
   40ccc     C6 1114   4.877   1.981   4.778  0.8835  0.2334  0.3445
   40ccc     H6 1115   5.051   1.751   5.289  0.7013  1.1862 -0.3495
   40ccc     H7 1116   4.892   1.688   4.977  2.2193  1.1488  0.5026
   40ccc     H8 1117   4.982   1.883   5.388 -1.0763 -0.1538  1.6924
   40ccc     H9 1118   4.775   1.940   4.782  1.0135  0.0065  2.3951
   40ccc    H10 1119   4.934   1.907   4.721 -0.1507 -0.8076  0.6130
   40ccc     O5 1120   4.864   2.109   4.721  0.4705  0.3189  1.0208
   40ccc    H11 1121   4.859   2.164   4.801  1.6382 -1.7907  2.6687
   40ccc     O6 1122   4.837   2.068   5.014 -0.0862  0.3916  0.0361
   41ccc     C1 1123   3.861   2.318   4.946 -0.4449  0.0520 -0.1498
   41ccc     C2 1124   3.754   2.418   4.989  0.4679  0.2271 -0.4489
   41ccc     H1 1125   3.869   2.246   5.028 -1.0854 -0.6006 -0.6577
   41ccc     H2 1126   3.666   2.368   5.031  1.2040  0.9264  2.1303
   41ccc     C3 1127   3.803   2.505   5.105 -0.2057  0.1797  0.0312
   41ccc     C4 1128   3.936   2.567   5.092  0.5902 -0.5817 -0.8673
   41ccc     C5 1129   4.044   2.462   5.044  0.5000  0.0106  0.4377
   41ccc     H3 1130   3.935   2.648   5.018  1.4291  1.4203  1.2181
   41ccc     H4 1131   3.811   2.443   5.194  2.1862 -0.1584 -0.3685
   41ccc     H5 1132   4.059   2.387   5.122 -1.2170 -3.4647 -2.2935
   41ccc     O1 1133   4.159   2.540   5.000  0.2274  0.4618 -0.3680
   41ccc     O2 1134   3.979   2.642   5.213  0.5909  0.0715  0.3871
   41ccc     O3 1135   3.701   2.610   5.129  0.1613  0.4115  0.0410
   41ccc     O4 1136   3.722   2.493   4.878 -0.0721 -0.0449 -0.5182
   41ccc     C6 1137   3.840   2.241   4.816  0.9896  0.2651 -0.2629
   41ccc     H6 1138   3.709   2.631   5.223 -1.1428  1.3262 -0.0329
   41ccc     H7 1139   3.673   2.567   4.918 -0.7269 -1.8333  2.3082
   41ccc     H8 1140   3.923   2.722   5.217  1.6905  0.8773  0.0722
   41ccc     H9 1141   3.860   2.306   4.730  1.4669  1.2367  0.5689
   41ccc    H10 1142   3.734   2.212   4.818  1.3792 -1.2281  0.0554
   41ccc     O5 1143   3.930   2.131   4.810  0.0480  0.1898 -0.2812
   41ccc    H11 1144   3.999   2.174   4.756 -1.4494  0.8337 -1.7615
   41ccc     O6 1145   3.984   2.391   4.926 -0.1006 -0.5573 -0.6145
   42ccc     C1 1146   4.530   0.984   6.344  0.2439 -0.5309 -0.9532
   42ccc     C2 1147   4.581   0.841   6.353  0.6877  0.2026 -0.2603
   42ccc     H1 1148   4.479   1.018   6.434  0.8574 -0.1468 -0.7428
   42ccc     H2 1149   4.641   0.817   6.442  0.8926 -0.8353 -0.6605
   42ccc     C3 1150   4.460   0.740   6.360 -0.5892  0.0722 -0.1946
   42ccc     C4 1151   4.348   0.767   6.250  0.2850  0.0255 -0.9333
   42ccc     C5 1152   4.310   0.919   6.251  0.7827 -0.6139  0.0249
   42ccc     H3 1153   4.393   0.746   6.152  0.0176  1.5148 -1.4001
   42ccc     H4 1154   4.412   0.766   6.455 -0.1253  1.1341 -0.2261
   42ccc     H5 1155   4.256   0.938   6.344 -1.0816 -0.6984 -1.0114
   42ccc     O1 1156   4.233   0.944   6.129  0.2771  0.1298 -0.4539
   42ccc     O2 1157   4.236   0.676   6.279 -0.1417 -0.1491  0.0821
   42ccc     O3 1158   4.502   0.601   6.361  0.5243  0.5668  0.3591
   42ccc     O4 1159   4.649   0.818   6.224  0.0171  0.3842  0.6853
   42ccc     C6 1160   4.645   1.092   6.338 -0.1702  0.0075 -0.0678
   42ccc     H6 1161   4.497   0.583   6.266 -0.6307  4.4439 -0.4994
   42ccc     H7 1162   4.674   0.909   6.201 -4.7856  1.6103 -0.9317
   42ccc     H8 1163   4.165   0.698   6.216  0.1834  0.4692 -0.0797
   42ccc     H9 1164   4.708   1.093   6.427 -1.0280 -1.7182  0.5990
   42ccc    H10 1165   4.597   1.190   6.341 -0.1577  0.0885 -1.5762
   42ccc     O5 1166   4.727   1.065   6.222  0.9114 -0.3941 -0.5724
   42ccc    H11 1167   4.798   1.131   6.233  1.3322 -1.2109  2.6942
   42ccc     O6 1168   4.433   0.999   6.238 -0.0249  0.0490 -0.2123
   43ccc     C1 1169   4.860   0.662   5.936  0.5972  0.2940 -0.0634
   43ccc     C2 1170   4.886   0.534   6.011  0.7130 -0.3303 -0.0629
   43ccc     H1 1171   4.847   0.750   5.999  3.1039  2.7547 -2.6891
   43ccc     H2 1172   4.977   0.530   6.072 -0.4866 -1.6760  1.7597
   43ccc     C3 1173   4.770   0.500   6.102  0.1102  0.1431 -0.0123
   43ccc     C4 1174   4.630   0.501   6.026 -0.2130  0.3065 -0.2665
   43ccc     C5 1175   4.615   0.636   5.945  0.4004 -0.2335 -0.0213
   43ccc     H3 1176   4.625   0.417   5.955  0.3154  0.9266 -1.0577
   43ccc     H4 1177   4.758   0.573   6.182 -0.3984 -1.3237  1.2965
   43ccc     H5 1178   4.598   0.719   6.015  1.8897 -0.2340  0.3752
   43ccc     O1 1179   4.496   0.629   5.859  0.5306 -0.4571  0.0531
   43ccc     O2 1180   4.525   0.498   6.125  0.6887 -0.3450  0.2644
   43ccc     O3 1181   4.792   0.370   6.159  0.0421  0.2722 -0.3205
   43ccc     O4 1182   4.901   0.431   5.917 -0.0385 -0.7894  0.0803
   43ccc     C6 1183   4.966   0.690   5.832 -0.1567 -0.9601  0.0176
   43ccc     H6 1184   4.709   0.339   6.201  0.6602 -1.8170 -0.5113
   43ccc     H7 1185   4.911   0.481   5.834 -1.3855 -1.0739 -0.2683
   43ccc     H8 1186   4.451   0.448   6.086 -0.1779  0.7991  0.3939
   43ccc     H9 1187   5.064   0.701   5.881 -0.4924  0.0882  0.4935
   43ccc    H10 1188   4.947   0.792   5.795 -0.2163 -1.0213 -0.1211
   43ccc     O5 1189   4.962   0.600   5.721 -0.5871 -0.3262 -0.4942
   43ccc    H11 1190   4.988   0.656   5.646  2.4197 -1.5009 -0.4372
   43ccc     O6 1191   4.732   0.655   5.860 -0.2871 -1.1222 -0.0257
   44ccc     C1 1192   2.768   1.895   6.044  0.6544 -0.1403  0.1049
   44ccc     C2 1193   2.718   2.043   6.021  0.5942  0.6791 -0.4902
   44ccc     H1 1194   2.857   1.910   6.108 -0.1357  0.3484  1.1200
   44ccc     H2 1195   2.734   2.089   6.119  2.1379  1.1167 -0.9270
   44ccc     C3 1196   2.803   2.121   5.918 -0.4307  0.1042  0.1398
   44ccc     C4 1197   2.804   2.032   5.789 -0.7948 -0.1874  0.3760
   44ccc     C5 1198   2.870   1.892   5.813  0.2143  0.1515 -0.1135
   44ccc     H3 1199   2.698   2.019   5.763 -0.9462 -1.1540  1.3963
   44ccc     H4 1200   2.905   2.139   5.955  0.3103 -1.5039 -1.0521
   44ccc     H5 1201   2.969   1.914   5.854  0.7004 -0.3606 -0.9665
   44ccc     O1 1202   2.885   1.822   5.696 -0.0781 -0.4959  0.1852
   44ccc     O2 1203   2.872   2.119   5.691 -0.2449  0.7038 -0.2891
   44ccc     O3 1204   2.746   2.244   5.874  0.5567  0.3800 -1.0631
   44ccc     O4 1205   2.585   2.040   5.972  0.3686  0.0165  0.0045
   44ccc     C6 1206   2.676   1.812   6.137  0.2522  0.9151 -0.3989
   44ccc     H6 1207   2.792   2.272   5.793 -0.6866  1.5033 -1.4170
   44ccc     H7 1208   2.584   2.118   5.915 -2.1329  0.3842  0.4365
   44ccc     H8 1209   2.962   2.124   5.729 -0.2258 -0.6608 -0.0912
   44ccc     H9 1210   2.663   1.865   6.232 -2.5219  1.0621 -0.7825
   44ccc    H10 1211   2.732   1.720   6.159  2.0668  2.7118  3.6161
   44ccc     O5 1212   2.547   1.801   6.082  0.1692  0.0450  0.5186
   44ccc    H11 1213   2.541   1.879   6.023  3.0593  1.5036  1.9457
   44ccc     O6 1214   2.789   1.825   5.922  0.0095  0.2947  0.2723
   45ccc     C1 1215   2.689   0.888   5.888 -0.3539 -0.4091 -0.2001
   45ccc     C2 1216   2.598   0.769   5.846  0.1362 -0.2238 -0.0467
   45ccc     H1 1217   2.645   0.940   5.975  0.9932  0.2278  0.1328
   45ccc     H2 1218   2.565   0.706   5.930 -1.6499  1.3570  0.4889
   45ccc     C3 1219   2.464   0.824   5.781 -0.0562  0.0588 -0.0643
   45ccc     C4 1220   2.490   0.932   5.675 -0.0879  0.0300  0.4753
   45ccc     C5 1221   2.585   1.041   5.726 -0.0079 -0.3255 -0.7436
   45ccc     H3 1222   2.544   0.881   5.596 -2.2414 -3.8542  1.2736
   45ccc     H4 1223   2.427   0.886   5.863 -0.4985  0.7234 -0.7416
   45ccc     H5 1224   2.539   1.105   5.802 -1.8591  0.3612 -2.3459
   45ccc     O1 1225   2.624   1.131   5.618  0.5006 -0.0474  0.9825
   45ccc     O2 1226   2.367   0.985   5.623 -0.0867 -0.1461  0.1333
   45ccc     O3 1227   2.364   0.725   5.733  0.1856  0.3199  0.5581
   45ccc     O4 1228   2.678   0.701   5.740  0.2869  0.1031 -0.2929
   45ccc     C6 1229   2.835   0.844   5.924  0.4272  0.5110  0.1616
   45ccc     H6 1230   2.397   0.682   5.653 -1.1313  0.6674 -0.1895
   45ccc     H7 1231   2.762   0.750   5.737  1.8365 -2.2651  1.2299
   45ccc     H8 1232   2.367   1.080   5.641 -0.6375  0.1101 -1.1214
   45ccc     H9 1233   2.829   0.746   5.973  1.1129  0.6128  0.4650
   45ccc    H10 1234   2.876   0.916   5.996 -2.4043  1.4801  0.9619
   45ccc     O5 1235   2.910   0.828   5.804 -0.3477  0.6653 -0.2766
   45ccc    H11 1236   3.003   0.845   5.828  0.3113  1.7503 -3.1361
   45ccc     O6 1237   2.701   0.987   5.788  0.1259  0.4028  0.2874
   46ccc     C1 1238   1.970   0.615   6.696 -0.5973  0.5568 -0.1964
   46ccc     C2 1239   2.000   0.766   6.713  0.5000  0.6891 -0.3393
   46ccc     H1 1240   1.896   0.587   6.773 -0.7922 -0.2180 -0.6537
   46ccc     H2 1241   1.903   0.816   6.706 -1.1094 -2.2995 -1.5283
   46ccc     C3 1242   2.065   0.790   6.850  0.3646  0.1590  0.6601
   46ccc     C4 1243   2.197   0.704   6.858 -0.0262  0.1863  0.3608
   46ccc     C5 1244   2.179   0.549   6.821  0.1129 -1.0397 -0.1369
   46ccc     H3 1245   2.272   0.754   6.796 -0.6812  0.1367 -0.4963
   46ccc     H4 1246   1.993   0.755   6.924 -0.8345 -1.0604 -0.9953
   46ccc     H5 1247   2.143   0.492   6.907 -2.4936 -1.3272 -1.3108
   46ccc     O1 1248   2.312   0.515   6.780  0.1188  0.1802  0.2619
   46ccc     O2 1249   2.237   0.717   6.999  0.4712  0.1824 -0.0322
   46ccc     O3 1250   2.090   0.929   6.876 -0.1054  0.4556 -0.0213
   46ccc     O4 1251   2.094   0.799   6.609  0.4931 -0.3028  0.6107
   46ccc     C6 1252   1.907   0.576   6.565 -0.4714 -0.3584  0.1606
   46ccc     H6 1253   2.180   0.942   6.841 -0.1868  1.0820 -0.0007
   46ccc     H7 1254   2.078   0.895   6.607 -3.5465 -0.8045  1.2108
   46ccc     H8 1255   2.234   0.810   7.026  0.4569  0.1624  0.0360
   46ccc     H9 1256   1.809   0.625   6.557 -0.8476 -0.6051  2.6117
   46ccc    H10 1257   1.896   0.467   6.567 -0.4951 -0.3700 -0.3580
   46ccc     O5 1258   1.997   0.611   6.459 -0.2125 -0.4932  0.3371
   46ccc    H11 1259   2.049   0.686   6.493 -1.0882  0.8284 -1.0858
   46ccc     O6 1260   2.086   0.533   6.710  0.3574 -0.2602  0.3804
   47ccc     C1 1261   3.053  -0.103   6.383  0.2193  0.3598  0.1250
   47ccc     C2 1262   3.036  -0.077   6.235 -0.3446  0.0925 -0.5462
   47ccc     H1 1263   2.987  -0.186   6.413  0.3215  0.2596  0.0735
   47ccc     H2 1264   3.071  -0.162   6.175  2.7690  1.0781 -0.3217
   47ccc     C3 1265   2.890  -0.062   6.202 -0.7750  0.8190  0.1222
   47ccc     C4 1266   2.837   0.065   6.268 -0.0730  0.5826 -0.1380
   47ccc     C5 1267   2.878   0.082   6.413  0.6422  0.7002 -0.2975
   47ccc     H3 1268   2.878   0.151   6.214  0.6466  0.9946  1.0392
   47ccc     H4 1269   2.841  -0.150   6.245 -0.9134  0.6232 -0.4294
   47ccc     H5 1270   2.806   0.044   6.486  0.4813  1.3950 -0.0902
   47ccc     O1 1271   2.890   0.225   6.431  0.8363  0.0004 -0.6794
   47ccc     O2 1272   2.691   0.072   6.251  0.9911  0.2484  0.7089
   47ccc     O3 1273   2.876  -0.067   6.054 -0.0230 -0.4360 -0.0188
   47ccc     O4 1274   3.110   0.042   6.198 -0.2985  0.1270  0.5503
   47ccc     C6 1275   3.194  -0.135   6.438  0.3492  0.5024 -0.5848
   47ccc     H6 1276   2.872  -0.161   6.030 -0.7876 -0.4631  0.1885
   47ccc     H7 1277   3.096   0.039   6.102 -2.1536 -0.3298  0.7996
   47ccc     H8 1278   2.658   0.160   6.275 -3.8729 -1.4384  1.2391
   47ccc     H9 1279   3.235  -0.231   6.403 -0.4234 -0.1733  0.3057
   47ccc    H10 1280   3.184  -0.133   6.547 -0.3750 -0.1909 -0.6282
   47ccc     O5 1281   3.281  -0.035   6.388  0.2758  0.3205 -0.2578
   47ccc    H11 1282   3.207   0.016   6.351 -0.3731 -0.2547  0.2158
   47ccc     O6 1283   3.007   0.020   6.450  0.1917  0.1420  0.1646
   48ccc     C1 1284   4.130  -0.680   7.620 -0.2659  0.6982 -0.1145
   48ccc     C2 1285   3.984  -0.699   7.576  0.0102  0.1303  0.6782
   48ccc     H1 1286   4.122  -0.605   7.699 -0.8862  0.4629  0.0534
   48ccc     H2 1287   3.919  -0.718   7.663 -1.6756  1.0924 -0.3203
   48ccc     C3 1288   3.926  -0.576   7.505  0.5193  0.3026 -0.0747
   48ccc     C4 1289   4.027  -0.515   7.404 -0.3646 -0.2517  0.0971
   48ccc     C5 1290   4.167  -0.509   7.455 -0.4520  0.4399 -0.3221
   48ccc     H3 1291   4.014  -0.576   7.314 -0.7911  0.0664 -0.0552
   48ccc     H4 1292   3.915  -0.497   7.581  1.8544  0.9360 -0.4945
   48ccc     H5 1293   4.170  -0.448   7.546 -2.3503 -0.7871  0.6160
   48ccc     O1 1294   4.262  -0.458   7.358  0.5710  0.2526  0.0742
   48ccc     O2 1295   3.972  -0.387   7.368 -0.2201  0.1868 -0.0776
   48ccc     O3 1296   3.800  -0.609   7.440 -0.0272 -0.4994  0.0982
   48ccc     O4 1297   3.983  -0.812   7.483 -0.4933 -0.0186 -0.3268
   48ccc     C6 1298   4.189  -0.811   7.682  0.1222  0.0302  0.7016
   48ccc     H6 1299   3.818  -0.674   7.370 -0.8871  2.1131 -2.7401
   48ccc     H7 1300   3.952  -0.889   7.535  0.0807 -0.9134 -1.2750
   48ccc     H8 1301   4.024  -0.373   7.287 -0.5952  1.0652 -0.1794
   48ccc     H9 1302   4.202  -0.890   7.609 -0.1455 -0.0910  0.7830
   48ccc    H10 1303   4.136  -0.840   7.774  0.9256 -1.3771  0.7312
   48ccc     O5 1304   4.319  -0.766   7.724  0.1891 -0.3384 -0.3985
   48ccc    H11 1305   4.351  -0.719   7.646  0.8552  0.7911  0.5269
   48ccc     O6 1306   4.213  -0.636   7.500  0.1069  0.2508 -0.3221
   49ccc     C1 1307   5.091   0.215   7.287  0.1656  0.6861  0.0903
   49ccc     C2 1308   5.138   0.281   7.154  0.1555  0.7175 -0.3011
   49ccc     H1 1309   5.141   0.118   7.296 -0.2745  0.3524 -0.8480
   49ccc     H2 1310   5.247   0.280   7.161  0.1743 -0.0425 -0.6742
   49ccc     C3 1311   5.093   0.208   7.021 -0.3835 -0.1285  0.1744
   49ccc     C4 1312   4.946   0.168   7.034 -0.2843  0.3727 -0.0443
   49ccc     C5 1313   4.912   0.093   7.166  0.5297  0.3612 -0.0826
   49ccc     H3 1314   4.890   0.262   7.023 -0.7506  0.1825  0.6512
   49ccc     H4 1315   5.135   0.107   7.013  0.3773  0.2226 -0.3935
   49ccc     H5 1316   4.975   0.005   7.183  0.4887  0.6607  1.9714
   49ccc     O1 1317   4.764   0.058   7.183 -0.2659 -0.2122 -0.1178
   49ccc     O2 1318   4.913   0.076   6.931  0.0195 -0.5355  0.3919
   49ccc     O3 1319   5.134   0.280   6.902 -0.1123 -0.2350 -0.2357
   49ccc     O4 1320   5.087   0.414   7.147  0.1241  0.0176  0.5025
   49ccc     C6 1321   5.120   0.285   7.418  0.1898 -1.0878  0.2540
   49ccc     H6 1322   5.119   0.213   6.833 -0.5596  0.3204 -0.6953
   49ccc     H7 1323   5.108   0.435   7.055 -0.9816 -0.6339  0.0819
   49ccc     H8 1324   4.882   0.135   6.861  1.0383 -0.6373 -0.1756
   49ccc     H9 1325   5.227   0.270   7.439  1.6172  1.3849 -3.8204
   49ccc    H10 1326   5.056   0.247   7.498  1.5650  0.6377  2.2617
   49ccc     O5 1327   5.101   0.427   7.411 -0.0247  0.0100 -0.2430
   49ccc    H11 1328   5.106   0.438   7.314  1.0205 -0.3653 -0.2453
   49ccc     O6 1329   4.946   0.185   7.268 -0.0678 -0.0713  0.0457
   50ccc     C1 1330   5.409   0.807   6.140  0.8405  0.5797 -0.0978
   50ccc     C2 1331   5.325   0.699   6.220 -0.2824 -1.1532 -0.6924
   50ccc     H1 1332   5.514   0.776   6.131  1.7509  2.7125  2.1349
   50ccc     H2 1333   5.347   0.604   6.170  0.7479  0.3373 -3.3109
   50ccc     C3 1334   5.366   0.701   6.360 -0.3091 -0.2539  0.2621
   50ccc     C4 1335   5.369   0.842   6.428  0.6183  0.8320 -0.0381
   50ccc     C5 1336   5.450   0.943   6.344  0.2443  0.5349  0.1327
   50ccc     H3 1337   5.265   0.877   6.420 -0.0696 -1.3046 -1.3571
   50ccc     H4 1338   5.469   0.666   6.374  0.2065  1.1317  0.0844
   50ccc     H5 1339   5.556   0.919   6.356  0.1334 -0.0793 -0.0965
   50ccc     O1 1340   5.417   1.077   6.393 -0.4890  0.0738  0.3334
   50ccc     O2 1341   5.407   0.825   6.566  0.2269 -0.1873  0.0876
   50ccc     O3 1342   5.280   0.616   6.438  0.0161  0.2589  0.2279
   50ccc     O4 1343   5.183   0.720   6.213 -0.2162  0.6804  0.5140
   50ccc     C6 1344   5.356   0.830   5.999 -0.6619 -0.3137 -0.0223
   50ccc     H6 1345   5.195   0.622   6.392 -1.3107 -0.5177  2.4380
   50ccc     H7 1346   5.172   0.767   6.129 -0.2733 -0.4476 -0.1202
   50ccc     H8 1347   5.394   0.729   6.574 -0.2720 -0.3339 -1.9960
   50ccc     H9 1348   5.363   0.734   5.946  2.5304 -1.2525  1.7971
   50ccc    H10 1349   5.420   0.908   5.955 -0.3345 -0.6639 -0.1695
   50ccc     O5 1350   5.222   0.875   6.008 -0.1172  0.0890  0.0802
   50ccc    H11 1351   5.227   0.967   6.040  1.7574  0.9416 -2.3423
   50ccc     O6 1352   5.406   0.937   6.204  0.4629 -0.3671 -0.8088
   51ccc     C1 1353   6.033   1.918   6.362 -0.8825  0.5185  0.5201
   51ccc     C2 1354   6.062   2.020   6.471  0.5811  0.0339  0.1737
   51ccc     H1 1355   5.983   1.961   6.275 -0.3356 -1.1991 -0.7150
   51ccc     H2 1356   6.118   2.107   6.434  0.0712  0.1701 -0.2844
   51ccc     C3 1357   5.932   2.086   6.515 -0.0259 -0.4683 -0.1932
   51ccc     C4 1358   5.836   1.981   6.568  0.0787  0.3495 -0.6370
   51ccc     C5 1359   5.823   1.866   6.463  0.2609  0.1188  0.2400
   51ccc     H3 1360   5.878   1.932   6.657  0.5844 -1.5916 -1.9002
   51ccc     H4 1361   5.884   2.128   6.426  0.1790  1.9258  0.7538
   51ccc     H5 1362   5.778   1.904   6.370  0.8658  1.4820  0.4754
   51ccc     O1 1363   5.754   1.749   6.519  0.3203 -0.1741 -0.6720
   51ccc     O2 1364   5.714   2.040   6.616  1.1245 -0.2694 -0.1386
   51ccc     O3 1365   5.956   2.192   6.605  0.0620  0.1402  0.2752
   51ccc     O4 1366   6.127   1.975   6.591 -0.1444 -0.7195 -0.0257
   51ccc     C6 1367   6.160   1.845   6.311  0.4356 -0.9432  0.3312
   51ccc     H6 1368   6.009   2.150   6.675 -1.7469  0.5591  1.9805
   51ccc     H7 1369   6.215   2.015   6.593  0.2716 -1.6182 -0.0676
   51ccc     H8 1370   5.742   2.102   6.685  0.4719 -0.1224 -0.0043
   51ccc     H9 1371   6.200   1.784   6.393  1.7027 -3.2912 -1.9026
   51ccc    H10 1372   6.235   1.922   6.292  0.6007 -1.1248  0.2444
   51ccc     O5 1373   6.144   1.768   6.185 -0.1856  0.2544  0.0177
   51ccc    H11 1374   6.223   1.714   6.169 -0.7904 -0.2691 -1.3080
   51ccc     O6 1375   5.951   1.816   6.421  0.1211  0.1890 -0.5031
   52ccc     C1 1376   5.564   1.186   6.804 -0.1367  0.0406 -0.1548
   52ccc     C2 1377   5.600   1.131   6.952 -0.1693  0.1390  0.3164
   52ccc     H1 1378   5.598   1.290   6.811  0.2666 -0.2089  2.3536
   52ccc     H2 1379   5.708   1.140   6.966  0.0010 -0.3467 -0.6246
   52ccc     C3 1380   5.513   1.211   7.050 -0.5981 -0.3127 -1.0844
   52ccc     C4 1381   5.365   1.211   7.007  0.4735  0.1703  0.4885
   52ccc     C5 1382   5.338   1.258   6.859 -0.8883 -0.0790 -0.0001
   52ccc     H3 1383   5.333   1.106   7.005 -1.4699  0.7330 -0.8675
   52ccc     H4 1384   5.553   1.313   7.046  2.5662 -1.2911  1.3920
   52ccc     H5 1385   5.350   1.367   6.853 -1.4393 -0.0375 -0.4430
   52ccc     O1 1386   5.203   1.221   6.818  0.1905  0.4860 -0.2344
   52ccc     O2 1387   5.282   1.290   7.096  0.2255  0.3661 -0.4336
   52ccc     O3 1388   5.532   1.151   7.184 -0.1300 -0.0087 -0.1434
   52ccc     O4 1389   5.561   1.000   6.951 -0.4603  0.9189 -0.6243
   52ccc     C6 1390   5.638   1.102   6.694  0.8474  0.2054 -0.2193
   52ccc     H6 1391   5.622   1.179   7.207  0.6601 -0.3326 -2.5992
   52ccc     H7 1392   5.605   0.955   6.877 -0.6294  0.2453 -0.3179
   52ccc     H8 1393   5.204   1.237   7.118 -0.4887  1.1507 -1.0106
   52ccc     H9 1394   5.746   1.111   6.713  1.4127 -1.4900 -2.2366
   52ccc    H10 1395   5.615   1.140   6.594 -0.4823 -0.5148 -0.2051
   52ccc     O5 1396   5.604   0.967   6.697  0.8874  0.4231 -0.3105
   52ccc    H11 1397   5.520   0.968   6.648  1.2200  0.3870 -0.8790
   52ccc     O6 1398   5.420   1.184   6.766  0.0917  0.2447 -0.2377
   53ccc     C1 1399   4.777   0.273   6.520  0.9003 -0.5546 -0.5149
   53ccc     C2 1400   4.864   0.201   6.624 -0.1105  0.4387 -0.1428
   53ccc     H1 1401   4.800   0.234   6.420 -0.4017  0.2464 -1.1469
   53ccc     H2 1402   4.830   0.097   6.622 -2.5536  1.1672 -0.5253
   53ccc     C3 1403   5.014   0.210   6.588 -0.3490 -0.0669  0.2573
   53ccc     C4 1404   5.061   0.357   6.576 -0.1788  0.1270  0.2020
   53ccc     C5 1405   4.956   0.425   6.476  0.0695  0.3977 -0.0629
   53ccc     H3 1406   5.052   0.412   6.671  0.3608 -1.6379  1.3389
   53ccc     H4 1407   5.030   0.162   6.490 -1.0983  1.1703 -0.4952
   53ccc     H5 1408   4.961   0.373   6.379 -2.0432 -1.6931  0.8537
   53ccc     O1 1409   5.001   0.562   6.457  0.4600 -0.2415 -0.2203
   53ccc     O2 1410   5.201   0.366   6.524  0.1066  0.5022  0.3159
   53ccc     O3 1411   5.086   0.134   6.682  0.1756 -0.0488 -0.7005
   53ccc     O4 1412   4.841   0.262   6.752  0.0077  0.4367 -0.1052
   53ccc     C6 1413   4.627   0.257   6.548 -0.0027 -0.9283  0.0507
   53ccc     H6 1414   5.111   0.050   6.641  0.9056 -0.3845  0.3893
   53ccc     H7 1415   4.754   0.298   6.729 -1.1649 -2.0217  0.1107
   53ccc     H8 1416   5.223   0.460   6.509  1.2066  0.0729 -0.9922
   53ccc     H9 1417   4.600   0.152   6.531 -2.3506 -0.4247  0.2669
   53ccc    H10 1418   4.582   0.316   6.467  0.7813 -0.2324  0.1039
   53ccc     O5 1419   4.596   0.306   6.678 -0.4243  0.3827  0.4078
   53ccc    H11 1420   4.551   0.230   6.719  2.3473 -1.2775  0.6122
   53ccc     O6 1421   4.822   0.413   6.518  0.1056 -0.2983  0.3718
   54ccc     C1 1422   4.000   0.249   6.277  0.9750  0.1835 -0.9001
   54ccc     C2 1423   4.118   0.292   6.355 -0.3579 -0.4258  0.3361
   54ccc     H1 1424   4.013   0.145   6.245 -1.9480 -1.0460  1.5259
   54ccc     H2 1425   4.125   0.215   6.432 -0.8340 -1.3830 -0.5475
   54ccc     C3 1426   4.241   0.278   6.265  0.1597 -0.5017  0.2833
   54ccc     C4 1427   4.218   0.358   6.137 -0.1292 -0.3317 -0.6338
   54ccc     C5 1428   4.081   0.335   6.067  0.1268  0.0909  0.4470
   54ccc     H3 1429   4.206   0.464   6.165  2.9304 -0.2630  0.7834
   54ccc     H4 1430   4.251   0.170   6.250 -0.4603 -0.4315 -0.6954
   54ccc     H5 1431   4.077   0.234   6.023 -1.8374 -0.1491  1.0513
   54ccc     O1 1432   4.051   0.425   5.962  0.0272  0.1827  0.1665
   54ccc     O2 1433   4.335   0.346   6.047  0.3855 -0.3297  0.2362
   54ccc     O3 1434   4.357   0.334   6.330 -0.1001  0.4490 -0.0925
   54ccc     O4 1435   4.097   0.425   6.397 -0.1647  0.4231  0.2948
   54ccc     C6 1436   3.871   0.241   6.368 -0.0324 -0.2355 -0.3807
   54ccc     H6 1437   4.439   0.311   6.283  0.6508 -0.4548  1.5474
   54ccc     H7 1438   4.001   0.410   6.409 -0.1669 -0.6515 -0.8392
   54ccc     H8 1439   4.309   0.277   5.984  0.9975  0.5605 -1.0321
   54ccc     H9 1440   3.896   0.171   6.448 -1.4280 -0.3078  0.0130
   54ccc    H10 1441   3.782   0.204   6.316 -1.3415  1.5717  0.4747
   54ccc     O5 1442   3.844   0.360   6.434 -0.5044 -0.0469 -0.8699
   54ccc    H11 1443   3.751   0.359   6.464 -0.1042  2.3566  0.7695
   54ccc     O6 1444   3.975   0.334   6.161 -0.3251  0.1064  0.1070
   55ccc     C1 1445   2.977   0.321   5.587  0.1408 -0.3011  0.2983
   55ccc     C2 1446   2.875   0.301   5.703 -0.3913 -0.1803 -0.0835
   55ccc     H1 1447   2.975   0.236   5.518 -0.2894 -0.3009  0.3084
   55ccc     H2 1448   2.772   0.284   5.669  0.1915 -0.9974 -1.5101
   55ccc     C3 1449   2.919   0.184   5.796 -0.7947  0.1739 -0.1004
   55ccc     C4 1450   3.070   0.197   5.846  0.1729  0.6439  0.4463
   55ccc     C5 1451   3.153   0.222   5.715 -0.0118 -0.4130 -0.7918
   55ccc     H3 1452   3.076   0.283   5.914  1.8265  0.3866  0.6532
   55ccc     H4 1453   2.923   0.099   5.727  2.6831  0.6008 -0.6118
   55ccc     H5 1454   3.158   0.133   5.651  3.8379 -1.3176  0.4637
   55ccc     O1 1455   3.289   0.260   5.742  0.1315 -0.3903 -0.2635
   55ccc     O2 1456   3.101   0.074   5.914 -0.4606 -0.2889  0.0562
   55ccc     O3 1457   2.825   0.152   5.898  0.0624  0.0008 -0.2321
   55ccc     O4 1458   2.868   0.427   5.770  0.2147 -0.0072  0.3163
   55ccc     C6 1459   2.948   0.445   5.500 -0.1934 -0.3291  0.2905
   55ccc     H6 1460   2.869   0.078   5.945  1.1041  2.5180  3.1201
   55ccc     H7 1461   2.917   0.485   5.709  0.5799 -0.1599  0.4623
   55ccc     H8 1462   3.133   0.012   5.846  0.1604 -0.9074  0.8998
   55ccc     H9 1463   2.861   0.424   5.436 -2.2357 -0.0578  2.7966
   55ccc    H10 1464   3.036   0.466   5.438 -0.4367 -0.3889 -0.0855
   55ccc     O5 1465   2.936   0.567   5.582 -0.4534  0.0195  0.3902
   55ccc    H11 1466   2.864   0.616   5.539 -0.2073  2.0528  2.1462
   55ccc     O6 1467   3.107   0.337   5.648  0.1291  0.1443  0.0085
   56ccc     C1 1468   2.044   0.909   6.133 -0.1186 -0.4117 -0.0502
   56ccc     C2 1469   1.910   0.964   6.194 -0.0483 -1.0062 -0.4039
   56ccc     H1 1470   2.066   0.811   6.179  1.8114 -0.3780 -0.8018
   56ccc     H2 1471   1.837   0.889   6.160  0.1599 -1.1881 -0.4513
   56ccc     C3 1472   1.942   0.960   6.350  0.6326  0.5053  0.1116
   56ccc     C4 1473   2.060   1.065   6.378  0.2036  0.4095  0.6126
   56ccc     C5 1474   2.189   1.017   6.304  0.4908 -0.6195 -0.1775
   56ccc     H3 1475   2.027   1.160   6.335 -1.2709  0.0561  0.9115
   56ccc     H4 1476   1.981   0.860   6.366  1.6069  0.4852 -2.0430
   56ccc     H5 1477   2.226   0.925   6.350  0.1146 -2.2410 -2.9392
   56ccc     O1 1478   2.287   1.125   6.311 -0.3490 -0.0500 -0.3087
   56ccc     O2 1479   2.077   1.066   6.517 -1.0259  0.0645 -0.1074
   56ccc     O3 1480   1.822   0.983   6.430  0.4096 -0.7539  0.1098
   56ccc     O4 1481   1.878   1.093   6.151  0.4978 -0.0018 -0.3287
   56ccc     C6 1482   2.041   0.883   5.982  0.3090  0.4320 -0.5726
   56ccc     H6 1483   1.845   1.061   6.484 -1.2831  0.6052 -1.0184
   56ccc     H7 1484   1.794   1.101   6.199  0.1736 -0.9577 -0.7213
   56ccc     H8 1485   2.123   1.149   6.536 -0.3658 -0.1799 -0.5611
   56ccc     H9 1486   2.026   0.980   5.934  1.9311  0.3798 -1.2601
   56ccc    H10 1487   1.963   0.812   5.951  0.3916 -0.1193  0.4180
   56ccc     O5 1488   2.167   0.837   5.939 -0.5573  0.0806 -0.6920
   56ccc    H11 1489   2.151   0.851   5.844  0.7572  0.0508 -0.9336
   56ccc     O6 1490   2.161   0.996   6.166  0.3423 -0.0378 -0.3191
   57ccc     C1 1491   2.455   1.611   5.588  0.3862  0.3407  0.1530
   57ccc     C2 1492   2.311   1.576   5.563 -0.3019 -0.6178 -0.1938
   57ccc     H1 1493   2.506   1.566   5.502  1.8067  3.6945 -0.9355
   57ccc     H2 1494   2.282   1.582   5.458 -1.1159 -0.9082  0.0079
   57ccc     C3 1495   2.280   1.425   5.597  0.0124  0.6432 -0.1328
   57ccc     C4 1496   2.335   1.379   5.735  0.0460 -0.1820  0.0951
   57ccc     C5 1497   2.485   1.422   5.748  0.5802  0.1284 -0.0638
   57ccc     H3 1498   2.266   1.424   5.808 -0.0103  0.5400 -0.3992
   57ccc     H4 1499   2.322   1.358   5.521 -0.1670 -1.5436  1.5848
   57ccc     H5 1500   2.541   1.376   5.666 -2.0330  0.3253 -2.0648
   57ccc     O1 1501   2.532   1.373   5.876 -0.0166  0.3462  0.2885
   57ccc     O2 1502   2.329   1.236   5.734 -0.3236  0.7119  0.5945
   57ccc     O3 1503   2.131   1.412   5.593 -0.2723 -0.2042 -0.1266
   57ccc     O4 1504   2.226   1.660   5.643 -0.2135 -0.2407  0.2304
   57ccc     C6 1505   2.498   1.759   5.578 -0.4550 -0.0471  0.1853
   57ccc     H6 1506   2.098   1.322   5.612 -1.5382  0.9283  4.3634
   57ccc     H7 1507   2.142   1.610   5.645  0.4826 -1.4593 -0.1213
   57ccc     H8 1508   2.300   1.196   5.818  2.6851 -2.3775  0.3637
   57ccc     H9 1509   2.477   1.803   5.480 -0.6458 -0.5172  0.0127
   57ccc    H10 1510   2.606   1.774   5.590 -0.6276 -0.2191  2.3515
   57ccc     O5 1511   2.433   1.813   5.689 -0.0026  0.2524  0.1069
   57ccc    H11 1512   2.359   1.751   5.699  1.3423 -1.5370 -0.5856
   57ccc     O6 1513   2.504   1.562   5.719  0.2084 -0.5395  0.0819
   58ccc     C1 1514   3.391  -0.515   7.164  0.9847  0.6126 -0.5778
   58ccc     C2 1515   3.537  -0.515   7.215  0.8703  0.1016  0.1712
   58ccc     H1 1516   3.370  -0.602   7.099 -2.7756  0.0028  1.1744
   58ccc     H2 1517   3.566  -0.616   7.248 -2.1985 -1.1662 -0.6485
   58ccc     C3 1518   3.632  -0.478   7.101 -0.6473 -0.1611  0.2366
   58ccc     C4 1519   3.583  -0.337   7.038 -0.3629  0.2235  0.5739
   58ccc     C5 1520   3.435  -0.340   6.985 -0.2366 -0.2166 -0.3469
   58ccc     H3 1521   3.578  -0.261   7.117 -1.4671 -0.5093  1.2438
   58ccc     H4 1522   3.631  -0.561   7.030  1.9487 -0.7686  0.8192
   58ccc     H5 1523   3.431  -0.396   6.891  0.2892 -0.2754 -0.3378
   58ccc     O1 1524   3.393  -0.206   6.953  0.3565  0.1063 -0.2555
   58ccc     O2 1525   3.673  -0.313   6.927  0.1109 -0.1851 -0.4959
   58ccc     O3 1526   3.772  -0.466   7.149  0.0006  0.1973  0.3445
   58ccc     O4 1527   3.552  -0.423   7.325 -0.3814  0.2226 -0.0768
   58ccc     C6 1528   3.290  -0.556   7.273  0.3970  0.0234 -0.0629
   58ccc     H6 1529   3.828  -0.486   7.072  1.7471 -1.8894  2.0189
   58ccc     H7 1530   3.461  -0.421   7.357  0.0970 -0.0055  1.3637
   58ccc     H8 1531   3.749  -0.274   6.974  1.4892 -0.7695 -2.1363
   58ccc     H9 1532   3.314  -0.651   7.321 -1.0771 -0.2954  0.1096
   58ccc    H10 1533   3.191  -0.569   7.226  0.6378  0.3348 -0.6644
   58ccc     O5 1534   3.290  -0.455   7.375 -0.0551 -0.1565  0.1779
   58ccc    H11 1535   3.232  -0.381   7.349  0.7996 -0.0641 -1.6494
   58ccc     O6 1536   3.355  -0.393   7.100  0.6613 -0.6454  0.0676
   59ccc     C1 1537   2.270   0.008   6.573  0.5351 -0.1333 -0.7234
   59ccc     C2 1538   2.214  -0.089   6.471  0.4070  0.1826  1.1196
   59ccc     H1 1539   2.275   0.110   6.532  0.5493  0.6132  1.0273
   59ccc     H2 1540   2.122  -0.049   6.426 -0.8207 -0.7093  2.7548
   59ccc     C3 1541   2.322  -0.105   6.360  0.7250  0.1177  0.1920
   59ccc     C4 1542   2.467  -0.140   6.413  0.5625  0.8640  0.0045
   59ccc     C5 1543   2.509  -0.037   6.521 -0.5475  0.7077 -0.6871
   59ccc     H3 1544   2.450  -0.237   6.461  1.7492 -0.0402 -1.3205
   59ccc     H4 1545   2.329  -0.007   6.310 -0.9042  1.0699  1.7083
   59ccc     H5 1546   2.515   0.064   6.479 -1.6384  0.5818 -1.1743
   59ccc     O1 1547   2.635  -0.076   6.576 -0.6947 -0.2372 -0.1225
   59ccc     O2 1548   2.572  -0.147   6.310 -0.4257  0.0004 -0.5589
   59ccc     O3 1549   2.279  -0.202   6.262 -0.0078 -0.1433 -0.2621
   59ccc     O4 1550   2.191  -0.208   6.537 -0.0774  0.2067  0.1593
   59ccc     C6 1551   2.191   0.029   6.703  0.1897 -0.1340  0.4176
   59ccc     H6 1552   2.312  -0.170   6.176 -0.3318  2.2501  0.4377
   59ccc     H7 1553   2.144  -0.183   6.618 -1.2849 -0.4401 -0.3088
   59ccc     H8 1554   2.604  -0.058   6.288  0.6118 -0.1618  0.2457
   59ccc     H9 1555   2.100   0.088   6.689 -0.0061 -0.0930  1.7156
   59ccc    H10 1556   2.254   0.082   6.776  1.3677  0.8161 -1.2189
   59ccc     O5 1557   2.158  -0.093   6.765 -0.2573 -0.0604 -0.2489
   59ccc    H11 1558   2.216  -0.092   6.843 -0.8721  2.3603  0.2656
   59ccc     O6 1559   2.408  -0.036   6.624  0.0893  0.1141  0.5310
   60ccc     C1 1560   2.193   0.435   6.256  0.5325  0.6363 -0.0579
   60ccc     C2 1561   2.252   0.416   6.111  0.0914  0.6882 -0.0183
   60ccc     H1 1562   2.096   0.479   6.235  1.3664  1.5191 -2.3232
   60ccc     H2 1563   2.178   0.363   6.050 -0.3983  0.7412  0.5198
   60ccc     C3 1564   2.272   0.552   6.047  0.4054 -0.1208 -0.6218
   60ccc     C4 1565   2.365   0.644   6.134  0.0868  0.7813  0.2274
   60ccc     C5 1566   2.310   0.659   6.277  0.0456  0.2805  0.6108
   60ccc     H3 1567   2.458   0.590   6.154  0.1428  0.8662  0.1957
   60ccc     H4 1568   2.174   0.601   6.039  0.7342  0.2922 -3.7296
   60ccc     H5 1569   2.208   0.698   6.282 -0.2990 -0.7441  2.2176
   60ccc     O1 1570   2.402   0.732   6.361  0.1010  0.0295 -0.1301
   60ccc     O2 1571   2.384   0.773   6.078  0.0758 -0.3049  0.2882
   60ccc     O3 1572   2.321   0.542   5.913  0.3800  0.4249 -0.0612
   60ccc     O4 1573   2.373   0.338   6.129 -0.0439 -0.0752  0.4207
   60ccc     C6 1574   2.181   0.303   6.342  0.1758  0.0218 -0.4848
   60ccc     H6 1575   2.325   0.630   5.871  0.9507  0.0468 -0.8181
   60ccc     H7 1576   2.391   0.314   6.036  0.0002  3.0564 -0.4899
   60ccc     H8 1577   2.299   0.791   6.033  0.7322 -0.1891 -0.9434
   60ccc     H9 1578   2.273   0.256   6.377  0.1288  0.4539  0.2381
   60ccc    H10 1579   2.123   0.224   6.293  1.3652 -1.6685  0.7254
   60ccc     O5 1580   2.111   0.339   6.463  0.7822  0.6250 -0.0438
   60ccc    H11 1581   2.102   0.436   6.458 -1.2339  0.4768 -0.4646
   60ccc     O6 1582   2.276   0.526   6.334 -0.3284  0.1935 -0.2407
   61ccc     C1 1583   2.191   1.384   6.749 -0.6307  0.2874  0.2003
   61ccc     C2 1584   2.137   1.434   6.611  0.3504  0.1704 -0.1415
   61ccc     H1 1585   2.177   1.463   6.825 -1.4442  1.6387 -1.2978
   61ccc     H2 1586   2.039   1.482   6.621  0.4943  0.3663  0.3351
   61ccc     C3 1587   2.239   1.532   6.559 -0.6065  0.2935  0.1716
   61ccc     C4 1588   2.377   1.470   6.538  0.0248 -0.1629 -0.1985
   61ccc     C5 1589   2.427   1.410   6.675 -0.2158  0.3408 -0.1406
   61ccc     H3 1590   2.366   1.400   6.455  1.7557 -0.9029  0.1459
   61ccc     H4 1591   2.256   1.609   6.635  0.3887  0.0144  0.2335
   61ccc     H5 1592   2.456   1.492   6.741  0.0231  2.8908 -3.1819
   61ccc     O1 1593   2.539   1.320   6.655  0.4001  0.6096 -0.0660
   61ccc     O2 1594   2.469   1.573   6.492 -0.0374  0.0707 -0.1386
   61ccc     O3 1595   2.178   1.591   6.438 -0.4100 -0.3984 -0.1826
   61ccc     O4 1596   2.129   1.325   6.523  0.1673 -0.4214  0.0903
   61ccc     C6 1597   2.092   1.276   6.803 -0.0281 -0.2440 -0.2473
   61ccc     H6 1598   2.239   1.646   6.385  1.5045 -0.7221  1.5553
   61ccc     H7 1599   2.098   1.374   6.445 -2.4096 -0.5309  0.9450
   61ccc     H8 1600   2.481   1.570   6.395  2.1999  1.0186  0.0479
   61ccc     H9 1601   2.101   1.171   6.772  1.9983 -0.0844 -0.3268
   61ccc    H10 1602   1.991   1.317   6.790  0.5018  1.1371 -0.1363
   61ccc     O5 1603   2.113   1.283   6.949 -0.6308  0.3510 -0.5066
   61ccc    H11 1604   2.209   1.277   6.964 -0.6709  0.6042 -0.1368
   61ccc     O6 1605   2.324   1.333   6.732  0.3348 -0.2239 -0.2391
   62SOL     OW 1606   4.191   4.920   8.419  0.4874 -0.3093 -0.2683
   62SOL    HW1 1607   4.111   4.869   8.406  0.5832 -1.2813  2.4483
   62SOL    HW2 1608   4.217   4.947   8.330 -1.0040 -2.7610 -1.5457
   63SOL     OW 1609   7.333   4.436   7.231  0.5420 -0.0258  0.3356
   63SOL    HW1 1610   7.371   4.524   7.226  0.5185  0.0638  1.3697
   63SOL    HW2 1611   7.250   4.449   7.276 -0.5724 -0.2817 -1.5589
   64SOL     OW 1612   3.412   7.641   8.246  0.0433 -0.1917 -0.4004
   64SOL    HW1 1613   3.456   7.724   8.227  1.8072 -0.7606  0.9046
   64SOL    HW2 1614   3.347   7.662   8.314  1.9322 -0.1583  1.5000
   65SOL     OW 1615   3.542   6.249   4.542  0.3337  0.0722 -0.4288
   65SOL    HW1 1616   3.586   6.167   4.518  0.0283  0.0033 -0.7491
   65SOL    HW2 1617   3.481   6.224   4.611  1.9429  0.4416  1.2141
   66SOL     OW 1618   8.289   8.965   1.844 -0.4672  0.2817  0.2259
   66SOL    HW1 1619   8.295   8.878   1.804 -3.0575  0.5146 -0.8637
   66SOL    HW2 1620   8.322   9.025   1.777 -0.7780  0.2998  0.0836
   67SOL     OW 1621   3.172   2.001   0.339  0.5876  0.3393 -0.0486
   67SOL    HW1 1622   3.223   2.081   0.324  0.8203  0.4729  1.3313
   67SOL    HW2 1623   3.215   1.935   0.285  2.0427  0.5266  0.8078
   68SOL     OW 1624   8.379   1.360   6.721  0.4075 -0.0852 -0.8504
   68SOL    HW1 1625   8.306   1.422   6.720 -0.0704 -0.6163 -2.3271
   68SOL    HW2 1626   8.431   1.384   6.798 -0.3910  1.3912 -0.7420
   69SOL     OW 1627   4.322   3.399   5.849 -0.6238 -0.0595  0.0072
   69SOL    HW1 1628   4.386   3.459   5.888 -1.3793  0.2726  0.7615
   69SOL    HW2 1629   4.260   3.455   5.803 -1.5757 -0.2117  1.0722
   70SOL     OW 1630   2.235   8.612   3.542 -0.1129  0.2934 -0.3394
   70SOL    HW1 1631   2.283   8.693   3.559  1.5026  0.0041 -2.9058
   70SOL    HW2 1632   2.143   8.636   3.557  0.3034  2.6528 -1.0439
   71SOL     OW 1633   2.750   1.668   2.191 -0.4802 -0.6655 -0.6984
   71SOL    HW1 1634   2.806   1.722   2.136 -0.0172  0.1594  0.5435
   71SOL    HW2 1635   2.801   1.652   2.270 -2.2657  0.9193  0.8929
   72SOL     OW 1636   7.766   8.778   3.300  0.1295  0.6395 -0.2245
   72SOL    HW1 1637   7.718   8.790   3.382 -1.2508 -1.7861 -0.5534
   72SOL    HW2 1638   7.699   8.781   3.233  0.6186 -1.2915 -0.8592
   73SOL     OW 1639   6.490   0.083   1.553 -0.5459  0.4819 -0.2115
   73SOL    HW1 1640   6.475   0.094   1.647  0.8016  0.1413  0.0636
   73SOL    HW2 1641   6.466  -0.008   1.535 -0.9920  0.6045 -0.2379
   74SOL     OW 1642   0.327   4.757   0.372 -0.0577 -0.5969 -0.1013
   74SOL    HW1 1643   0.308   4.796   0.287 -1.5348 -0.2647  0.3563
   74SOL    HW2 1644   0.360   4.670   0.351 -0.3004 -0.4793 -1.0236
   75SOL     OW 1645   8.182   6.654   3.328 -0.4128  0.3128 -0.0559
   75SOL    HW1 1646   8.141   6.568   3.324 -0.6079  0.4113 -0.1602
   75SOL    HW2 1647   8.191   6.672   3.421 -0.2054  0.1007 -0.0325
   76SOL     OW 1648   0.329   4.306   2.754 -0.1828  0.1568  0.6185
   76SOL    HW1 1649   0.279   4.235   2.715 -0.5966  1.4552 -1.3308
   76SOL    HW2 1650   0.269   4.348   2.815 -2.6881  3.2619 -3.4375
   77SOL     OW 1651   0.822   1.038   3.981  0.0219 -0.4462  0.0766
   77SOL    HW1 1652   0.795   1.091   3.906 -1.9048  0.3637  1.2778
   77SOL    HW2 1653   0.800   0.948   3.956 -1.0930 -0.1259 -0.1540
   78SOL     OW 1654   1.303   1.483   3.431 -0.3697 -0.1068 -0.0110
   78SOL    HW1 1655   1.250   1.403   3.438 -0.6685  0.0117 -0.8299
   78SOL    HW2 1656   1.350   1.474   3.348  3.1357 -1.5361  1.8848
   79SOL     OW 1657   6.043   0.721   2.730 -0.3167  0.3889 -0.1851
   79SOL    HW1 1658   5.958   0.721   2.773 -0.4541  1.3418 -0.4361
   79SOL    HW2 1659   6.106   0.737   2.802 -0.4218  0.5048 -0.1180
   80SOL     OW 1660   4.472   2.749   7.298  0.1631 -0.1159 -0.0513
   80SOL    HW1 1661   4.455   2.674   7.355 -0.5608  0.4098  0.4379
   80SOL    HW2 1662   4.483   2.710   7.211 -1.8346 -0.6823 -0.1057
   81SOL     OW 1663   4.561   4.618   6.401  0.2750  0.4726 -0.4800
   81SOL    HW1 1664   4.496   4.548   6.401  0.4577  0.3015 -0.1490
   81SOL    HW2 1665   4.529   4.681   6.336 -0.2588  0.4285 -0.2600
   82SOL     OW 1666   0.663   5.049   5.270  0.1559 -0.4747  0.4747
   82SOL    HW1 1667   0.576   5.084   5.287  0.6305  0.0576  2.0302
   82SOL    HW2 1668   0.722   5.121   5.291  1.0761 -1.5990  1.9653
   83SOL     OW 1669   5.903   5.591   5.129  0.5961 -0.1751 -0.1601
   83SOL    HW1 1670   5.814   5.596   5.164  1.1603 -1.9107  1.7214
   83SOL    HW2 1671   5.896   5.624   5.039 -2.0306 -0.7085 -0.2170
   84SOL     OW 1672   5.129   3.520   8.460 -0.1492  0.4294  0.5500
   84SOL    HW1 1673   5.084   3.435   8.469 -0.3745  0.6389  1.4693
   84SOL    HW2 1674   5.122   3.560   8.546 -4.1117  3.4441 -0.8277
   85SOL     OW 1675   3.179   0.543   6.396  0.8421 -0.2212  0.1783
   85SOL    HW1 1676   3.136   0.597   6.331  1.0051 -1.8101 -1.3097
   85SOL    HW2 1677   3.171   0.453   6.363  1.3873 -1.0264  2.0811
   86SOL     OW 1678   5.105   7.258   4.730  0.2007 -0.0116  0.3572
   86SOL    HW1 1679   5.105   7.323   4.800  2.0695  0.4785 -0.0503
   86SOL    HW2 1680   5.100   7.174   4.776 -3.1651  0.3474  0.8516
   87SOL     OW 1681   6.174   0.307   5.626  0.1140  0.5744 -0.0549
   87SOL    HW1 1682   6.107   0.273   5.566  0.6589  0.0918 -0.3902
   87SOL    HW2 1683   6.123   0.345   5.698 -0.5125 -0.7598  0.2311
   88SOL     OW 1684   3.479   3.169   8.918 -0.3225  0.3730 -0.3776
   88SOL    HW1 1685   3.410   3.212   8.968  2.0318  2.1208  1.5963
   88SOL    HW2 1686   3.470   3.076   8.938 -1.6814  0.6441  0.3416
   89SOL     OW 1687   1.497   4.995   6.982  0.1865 -0.0554 -0.1914
   89SOL    HW1 1688   1.519   5.033   7.067 -0.1159  1.6115 -0.7995
   89SOL    HW2 1689   1.580   4.963   6.948  0.4824  0.1285  0.3417
   90SOL     OW 1690   4.435   8.255   7.637 -0.1848  0.3925 -0.2487
   90SOL    HW1 1691   4.452   8.342   7.600  1.8167  0.3739  0.5205
   90SOL    HW2 1692   4.509   8.202   7.607 -0.8106 -0.7548  0.2086
   91SOL     OW 1693   8.580   4.577   0.436 -0.0283 -0.4338 -0.5679
   91SOL    HW1 1694   8.651   4.607   0.379  1.0903  1.6907  1.7541
   91SOL    HW2 1695   8.552   4.494   0.398  3.6431 -1.3474 -1.6409
   92SOL     OW 1696   6.731   5.296   8.652  0.5270 -0.4005 -0.5727
   92SOL    HW1 1697   6.644   5.322   8.623 -0.2760 -3.2251 -1.0141
   92SOL    HW2 1698   6.744   5.342   8.735  0.0869  2.6447 -2.0560
   93SOL     OW 1699   7.786   0.784   2.641  0.6376 -0.3941  0.1622
   93SOL    HW1 1700   7.848   0.804   2.711 -1.0897  0.6709  1.4584
   93SOL    HW2 1701   7.740   0.706   2.671  0.5495 -0.5011 -0.2510
   94SOL     OW 1702   1.439   5.452   6.496  0.2326  0.1263 -0.6340
   94SOL    HW1 1703   1.444   5.378   6.557  1.3137  0.7093  0.0039
   94SOL    HW2 1704   1.530   5.479   6.483 -0.1892  1.6787 -0.4571
   95SOL     OW 1705   8.541   6.401   4.665  0.5646  0.4772 -0.0280
   95SOL    HW1 1706   8.624   6.353   4.666  1.0082  1.1704 -1.4209
   95SOL    HW2 1707   8.558   6.480   4.717  0.2403 -0.1927  1.1256
   96SOL     OW 1708   5.600   2.478   0.507  0.4142  0.8136 -0.6576
   96SOL    HW1 1709   5.521   2.531   0.517  0.0513  0.2651 -0.5866
   96SOL    HW2 1710   5.665   2.521   0.562 -0.4810 -0.0037  1.1080
   97SOL     OW 1711   8.565   1.173   7.544 -0.3404 -1.0353 -0.0258
   97SOL    HW1 1712   8.492   1.111   7.546  0.6488 -2.2235  0.2615
   97SOL    HW2 1713   8.620   1.143   7.473 -0.0552 -0.2188 -0.1609
   98SOL     OW 1714   4.525   5.029   4.691 -0.2857 -0.6518 -0.1835
   98SOL    HW1 1715   4.470   5.077   4.752  0.0537 -0.7649  0.2126
   98SOL    HW2 1716   4.481   5.038   4.606 -0.8552 -0.6539  0.1116
   99SOL     OW 1717   0.101   5.375   3.096 -0.2304 -0.2553 -0.1049
   99SOL    HW1 1718   0.175   5.358   3.154 -1.2187 -1.2839  0.8987
   99SOL    HW2 1719   0.041   5.302   3.111 -1.5007  0.6021 -0.8155
  100SOL     OW 1720   9.102   6.905   3.159 -0.0829 -0.1334 -0.2561
  100SOL    HW1 1721   9.091   6.810   3.162 -0.0129 -0.1507 -0.5199
  100SOL    HW2 1722   9.052   6.937   3.233  0.2912 -0.4175  0.1250
  101SOL     OW 1723   2.223   7.871   3.702 -0.2601  0.1515 -0.0326
  101SOL    HW1 1724   2.304   7.846   3.658 -0.4390  1.2679 -1.0352
  101SOL    HW2 1725   2.201   7.795   3.756  1.2311 -0.3278 -0.0461
  102SOL     OW 1726   3.888   6.412   7.811  0.1171  0.0589 -0.4142
  102SOL    HW1 1727   3.889   6.406   7.716 -0.8558  0.1343 -0.4434
  102SOL    HW2 1728   3.897   6.506   7.830  0.3128  0.0437 -0.4283
  103SOL     OW 1729   6.083   5.556   5.378  0.3440  0.4504  0.7552
  103SOL    HW1 1730   6.019   5.544   5.308  0.1999 -0.1296  0.9809
  103SOL    HW2 1731   6.031   5.572   5.456  0.5229  2.6404  0.4744
  104SOL     OW 1732   5.298   2.702   9.207 -0.2154 -0.2115 -0.2267
  104SOL    HW1 1733   5.392   2.702   9.187 -0.1449  1.7830 -0.0512
  104SOL    HW2 1734   5.288   2.636   9.276  0.6185 -2.2543 -1.9445
  105SOL     OW 1735   0.142   1.815   1.594  0.0019 -0.0651 -0.1767
  105SOL    HW1 1736   0.109   1.876   1.527 -0.9157  1.6384  1.7272
  105SOL    HW2 1737   0.073   1.748   1.601 -0.8490  0.8342  0.3959
  106SOL     OW 1738   0.340   0.672   8.413 -0.5696  0.0267 -0.1346
  106SOL    HW1 1739   0.405   0.643   8.349 -0.1195  0.7717 -0.0304
  106SOL    HW2 1740   0.318   0.593   8.462  2.6575  0.2514  1.9685
  107SOL     OW 1741   1.990   8.199   6.018  0.4010  0.4287  0.0108
  107SOL    HW1 1742   2.065   8.258   6.024  0.1288  0.8167 -0.3086
  107SOL    HW2 1743   1.927   8.234   6.081  1.3026 -1.1575  1.8867
  108SOL     OW 1744   7.453   8.782   3.921 -0.0031 -0.0995  0.4661
  108SOL    HW1 1745   7.445   8.793   4.016 -2.0691  2.4879  0.1099
  108SOL    HW2 1746   7.507   8.855   3.892  0.3695 -0.7010 -0.4104
  109SOL     OW 1747   4.170   6.286   2.402  0.0915  0.7099 -0.0870
  109SOL    HW1 1748   4.209   6.365   2.439 -2.2708  1.7019  0.4951
  109SOL    HW2 1749   4.120   6.317   2.327 -1.1301 -0.1682  0.3395
  110SOL     OW 1750   0.794   0.321   0.615 -0.3091  0.2228  0.1145
  110SOL    HW1 1751   0.762   0.250   0.558 -0.6057  0.1033  0.4250
  110SOL    HW2 1752   0.869   0.283   0.660  0.4684  0.5968 -0.8296
  111SOL     OW 1753   1.224   5.289   7.085 -0.3422  0.1307 -0.2960
  111SOL    HW1 1754   1.163   5.304   7.013 -0.7207  0.5989  0.1098
  111SOL    HW2 1755   1.280   5.367   7.087 -1.9545  1.3409  1.4666
  112SOL     OW 1756   0.246   7.636   5.789 -0.5683  0.1380 -0.0364
  112SOL    HW1 1757   0.159   7.620   5.753 -1.1013  0.1285  1.2074
  112SOL    HW2 1758   0.258   7.567   5.855 -0.4379  1.2758  1.1706
  113SOL     OW 1759   3.997   2.345   5.870  0.3403  0.2533  0.0932
  113SOL    HW1 1760   3.926   2.391   5.824 -1.6042 -3.5179 -1.1274
  113SOL    HW2 1761   4.062   2.328   5.803 -0.3502 -1.2265 -0.2494
  114SOL     OW 1762   1.355   4.639   3.032 -0.2647  0.0669 -0.5444
  114SOL    HW1 1763   1.444   4.607   3.040 -0.9086 -1.6831  0.1672
  114SOL    HW2 1764   1.338   4.686   3.113 -0.7818 -1.8140  0.4965
  115SOL     OW 1765   0.530   2.434   7.491 -0.2546 -0.4265  0.0927
  115SOL    HW1 1766   0.602   2.493   7.515 -0.3752 -0.6940  1.1759
  115SOL    HW2 1767   0.503   2.463   7.404 -0.2537  1.0629  0.5684
  116SOL     OW 1768   7.919   6.746   0.586 -0.0424 -0.1066  0.5136
  116SOL    HW1 1769   7.866   6.802   0.529  0.0892  0.6888  1.1668
  116SOL    HW2 1770   7.861   6.672   0.607 -0.2414 -0.1860 -0.2872
  117SOL     OW 1771   2.842   0.720   3.665 -0.1221 -0.1786 -0.1622
  117SOL    HW1 1772   2.836   0.700   3.572  2.3915  0.0839 -0.4549
  117SOL    HW2 1773   2.887   0.645   3.703 -0.5594 -0.0007  0.7332
  118SOL     OW 1774   4.743   8.824   3.373  0.0471 -0.6504  0.1621
  118SOL    HW1 1775   4.826   8.871   3.365  0.7504 -2.0060 -0.9140
  118SOL    HW2 1776   4.677   8.893   3.373  1.2030  0.5782  2.8335
  119SOL     OW 1777   5.125   5.682   7.683  0.4577 -0.8821 -0.4134
  119SOL    HW1 1778   5.038   5.648   7.704 -0.0696  0.4163 -0.4449
  119SOL    HW2 1779   5.185   5.623   7.728 -0.5058 -0.5588  1.3743
  120SOL     OW 1780   4.833   1.634   7.402  0.3352  0.2396 -0.3187
  120SOL    HW1 1781   4.743   1.609   7.418 -0.1244  1.0756 -1.4303
  120SOL    HW2 1782   4.840   1.636   7.306  2.0153 -1.4736 -0.2977
  121SOL     OW 1783   1.101   3.740   0.431  0.1616 -0.4255 -0.0102
  121SOL    HW1 1784   1.103   3.687   0.352 -0.4483 -1.6807  0.7960
  121SOL    HW2 1785   1.028   3.801   0.417  1.2846  0.7275 -1.2222
  122SOL     OW 1786   6.215   7.707   4.275 -0.2723 -0.0818 -0.3584
  122SOL    HW1 1787   6.300   7.663   4.267  1.0018  1.7504  1.6309
  122SOL    HW2 1788   6.178   7.704   4.187  1.4633 -1.6879 -1.1166
  123SOL     OW 1789   4.880   0.767   7.320  0.6905 -0.0379 -0.4333
  123SOL    HW1 1790   4.924   0.717   7.389  0.2818 -0.0320 -0.1690
  123SOL    HW2 1791   4.817   0.822   7.367  0.9518  0.5328 -0.7445
  124SOL     OW 1792   4.317   2.750   0.138  0.0206  0.2051  0.5573
  124SOL    HW1 1793   4.266   2.824   0.172  0.5100  0.5960  0.4609
  124SOL    HW2 1794   4.408   2.780   0.143  0.2440 -0.5025  0.7684
  125SOL     OW 1795   4.399   9.242   6.406  0.0192 -0.6418  0.1116
  125SOL    HW1 1796   4.446   9.258   6.325 -0.9453 -3.9415 -1.2529
  125SOL    HW2 1797   4.307   9.252   6.383 -0.2445 -0.9260  0.9836
  126SOL     OW 1798   8.209   6.323   2.743  0.4450  0.2984  0.4989
  126SOL    HW1 1799   8.227   6.233   2.769  2.2009  0.6841  0.7510
  126SOL    HW2 1800   8.127   6.318   2.693  0.1368 -1.3088  1.1156
  127SOL     OW 1801   8.544   6.267   2.731  0.1599 -0.1283 -0.0090
  127SOL    HW1 1802   8.608   6.206   2.769  3.7040  2.8307 -0.6928
  127SOL    HW2 1803   8.547   6.247   2.637  0.8403  0.5938 -0.1522
  128SOL     OW 1804   6.073   8.543   4.407  0.0539  0.1340  0.4023
  128SOL    HW1 1805   6.096   8.634   4.387 -1.7000  0.6008  0.3367
  128SOL    HW2 1806   6.037   8.509   4.325  0.2251 -0.4748  0.5700
  129SOL     OW 1807   1.846   6.661   8.526  0.2358 -0.1333  0.4120
  129SOL    HW1 1808   1.909   6.629   8.462 -0.8424 -1.3003 -0.0826
  129SOL    HW2 1809   1.884   6.744   8.557  1.8567 -0.6578 -0.0862
  130SOL     OW 1810   7.597   8.586   8.189 -0.2459  0.0790  0.0838
  130SOL    HW1 1811   7.656   8.554   8.120  0.0904 -1.2603  0.9520
  130SOL    HW2 1812   7.528   8.633   8.141  0.3012 -0.2886 -1.1153
  131SOL     OW 1813   6.859   6.309   0.170  0.1179 -0.0217 -0.1326
  131SOL    HW1 1814   6.877   6.312   0.264  0.5692  0.9644 -0.2413
  131SOL    HW2 1815   6.787   6.371   0.157 -0.3809 -0.6324 -0.3528
  132SOL     OW 1816   3.616   5.376   1.699 -0.7492 -0.3623  0.2978
  132SOL    HW1 1817   3.665   5.368   1.780  1.2303  2.6741 -0.4431
  132SOL    HW2 1818   3.678   5.354   1.630 -1.3480  0.3921 -0.5190
  133SOL     OW 1819   7.817   4.974   8.805 -0.2703 -0.2874  0.0860
  133SOL    HW1 1820   7.876   4.921   8.751  0.7723  1.4693 -0.6177
  133SOL    HW2 1821   7.807   5.056   8.755 -3.0984 -0.4014  0.3442
  134SOL     OW 1822   1.348   1.399   0.945 -0.3049  0.5055 -0.3992
  134SOL    HW1 1823   1.319   1.489   0.941 -0.6574  0.3960 -0.3097
  134SOL    HW2 1824   1.428   1.401   0.997  0.1737  0.8880 -1.1385
  135SOL     OW 1825   8.056   4.894   2.438  0.0698  0.2836  0.0345
  135SOL    HW1 1826   8.105   4.825   2.392  0.6686  0.6525  0.1057
  135SOL    HW2 1827   7.984   4.848   2.481 -0.4918 -0.0779 -1.2463
  136SOL     OW 1828   2.061   2.440   2.664  0.5446 -0.3039 -0.3878
  136SOL    HW1 1829   2.010   2.448   2.583  2.8914  1.4118 -1.8560
  136SOL    HW2 1830   2.092   2.350   2.664 -2.7066 -1.5580  0.8204
  137SOL     OW 1831   0.579   8.654   4.762  0.2157  0.3310 -0.3229
  137SOL    HW1 1832   0.612   8.565   4.758  0.4783  0.3142  1.4079
  137SOL    HW2 1833   0.601   8.692   4.677  0.3812 -1.1439 -0.9616
  138SOL     OW 1834   1.269   3.884   8.853 -0.3195 -0.3353 -0.4638
  138SOL    HW1 1835   1.259   3.802   8.805  0.4041 -0.6653 -0.0718
  138SOL    HW2 1836   1.188   3.933   8.835 -0.7594 -1.1336 -0.6907
  139SOL     OW 1837   1.246   6.908   7.772  0.2637  0.5832 -0.2225
  139SOL    HW1 1838   1.201   6.899   7.856 -1.6963  1.2939 -1.1342
  139SOL    HW2 1839   1.298   6.828   7.764 -0.8066 -0.2766  0.9206
  140SOL     OW 1840   8.986   4.261   7.692 -0.0701 -0.4942 -0.2243
  140SOL    HW1 1841   8.949   4.259   7.780 -0.4613  1.2640 -0.3266
  140SOL    HW2 1842   8.930   4.201   7.642  1.8802 -3.8649  1.2689
  141SOL     OW 1843   8.948   5.351   2.417 -0.2263 -0.0310  0.0577
  141SOL    HW1 1844   8.928   5.305   2.499 -0.2058 -0.6486 -0.2843
  141SOL    HW2 1845   8.937   5.285   2.349  1.4974  0.0083 -0.2926
  142SOL     OW 1846   3.503   2.750   7.372 -0.6532  0.1318  0.1442
  142SOL    HW1 1847   3.451   2.830   7.377 -0.3116  0.3913 -0.4562
  142SOL    HW2 1848   3.541   2.741   7.460 -0.6809  0.6319  0.2120
  143SOL     OW 1849   4.112   2.013   6.623  0.2291  0.0490 -0.0895
  143SOL    HW1 1850   4.115   2.077   6.694 -0.5100 -2.1732  2.1035
  143SOL    HW2 1851   4.188   2.035   6.568 -0.1899  2.9354  0.3147
  144SOL     OW 1852   1.951   6.693   5.553  0.3476 -0.4219 -0.3957
  144SOL    HW1 1853   1.886   6.724   5.616  0.5028  0.7433 -0.7774
  144SOL    HW2 1854   1.918   6.609   5.523  0.5533 -1.2813  1.6501
  145SOL     OW 1855   7.244   2.841   8.710  0.3402  0.0225 -0.6311
  145SOL    HW1 1856   7.192   2.921   8.716 -2.5519 -1.7244 -0.3968
  145SOL    HW2 1857   7.208   2.795   8.634  1.3000 -1.4900 -0.2232
  146SOL     OW 1858   2.267   0.891   0.695  0.2176 -0.2428  0.1810
  146SOL    HW1 1859   2.188   0.937   0.666  1.3247  2.1295  0.6351
  146SOL    HW2 1860   2.308   0.952   0.756  2.5761 -1.2387 -0.3049
  147SOL     OW 1861   3.054   8.922   0.838 -0.2288  0.0969  0.6503
  147SOL    HW1 1862   3.026   8.914   0.930  1.3347 -1.9620  1.0287
  147SOL    HW2 1863   2.980   8.890   0.788  0.1097 -2.0801  1.4354
  148SOL     OW 1864   5.142   2.250   1.209 -0.0553  0.2782 -0.6161
  148SOL    HW1 1865   5.207   2.279   1.144  1.0072  0.3550  0.4399
  148SOL    HW2 1866   5.088   2.187   1.162  0.0526  1.0774 -1.8563
  149SOL     OW 1867   3.047   6.291   5.702 -0.0015  0.0926  0.0997
  149SOL    HW1 1868   3.006   6.351   5.640 -0.5267  1.0434  1.3150
  149SOL    HW2 1869   2.978   6.270   5.764  0.8952  0.4267  1.2554
  150SOL     OW 1870   2.870   2.426   9.148 -0.3519 -0.4969  0.4723
  150SOL    HW1 1871   2.880   2.331   9.144  0.6423 -0.4621  1.5795
  150SOL    HW2 1872   2.879   2.447   9.241  0.7782  0.8104  0.1020
  151SOL     OW 1873   5.261   8.049   7.365 -0.1798 -0.5487 -0.3059
  151SOL    HW1 1874   5.305   8.101   7.296 -1.2805 -0.2646 -0.8149
  151SOL    HW2 1875   5.330   7.994   7.401  0.6301 -0.0065 -0.9891
  152SOL     OW 1876   0.733   5.916   8.263 -0.3955 -0.2689  0.0150
  152SOL    HW1 1877   0.646   5.919   8.302  0.1916 -1.1818  1.4746
  152SOL    HW2 1878   0.752   6.007   8.241 -1.2407  0.1074  0.7830
  153SOL     OW 1879   7.757   6.956   2.578 -0.1080 -0.1178 -0.3937
  153SOL    HW1 1880   7.664   6.945   2.557 -0.3537  0.1964  0.4786
  153SOL    HW2 1881   7.773   6.892   2.648 -0.1503  1.1510  0.8020
  154SOL     OW 1882   0.357   9.237   0.219 -0.2046 -0.1758 -0.1457
  154SOL    HW1 1883   0.430   9.273   0.168 -0.4780  0.2214 -0.2662
  154SOL    HW2 1884   0.298   9.311   0.231 -0.6276 -0.5138 -0.1174
  155SOL     OW 1885   3.364   1.649   8.661 -0.6505  0.0931 -0.4264
  155SOL    HW1 1886   3.385   1.571   8.712  0.0950 -1.9496 -3.6012
  155SOL    HW2 1887   3.269   1.643   8.646 -0.7340  0.2761  0.0021
  156SOL     OW 1888   5.631   6.219   0.283 -0.2743  0.1019 -0.4614
  156SOL    HW1 1889   5.698   6.151   0.292 -0.8284 -0.3411  0.4573
  156SOL    HW2 1890   5.593   6.228   0.370  0.4653  2.3458 -0.3046
  157SOL     OW 1891   8.769   1.938   5.574  0.4195 -0.5096  0.1836
  157SOL    HW1 1892   8.755   1.889   5.655  1.6196  1.2103  1.5290
  157SOL    HW2 1893   8.852   1.984   5.589 -0.5073  1.7083 -1.0502
  158SOL     OW 1894   0.626   2.782   6.612  0.3681 -0.4125 -0.0495
  158SOL    HW1 1895   0.652   2.870   6.584  1.0653 -0.8732 -0.8757
  158SOL    HW2 1896   0.684   2.762   6.685  0.6846 -0.4597 -0.3114
  159SOL     OW 1897   7.283   5.718   0.551  0.4944 -0.3079  0.4352
  159SOL    HW1 1898   7.248   5.647   0.604  1.2091 -1.4078 -0.5090
  159SOL    HW2 1899   7.287   5.682   0.462  2.1530  0.4313  0.1668
  160SOL     OW 1900   5.535   2.490   1.477 -0.4324 -0.2927 -0.4213
  160SOL    HW1 1901   5.516   2.451   1.562 -0.9548  0.1478 -0.3305
  160SOL    HW2 1902   5.524   2.418   1.415  1.5133 -1.0293  0.0147
  161SOL     OW 1903   3.949   2.185   0.796  0.2604  0.6143  0.2897
  161SOL    HW1 1904   4.029   2.138   0.820 -0.1432  0.1884  0.8198
  161SOL    HW2 1905   3.899   2.121   0.746 -0.6401  0.1884  1.6750
  162SOL     OW 1906   0.563   0.048   7.255  0.2924  0.3408  0.4575
  162SOL    HW1 1907   0.610   0.095   7.325  0.6147 -1.2169  1.3252
  162SOL    HW2 1908   0.471   0.065   7.272  0.2137 -1.8061  2.6757
  163SOL     OW 1909   7.085   4.173   6.003  0.0355  0.1847  0.5494
  163SOL    HW1 1910   7.036   4.096   6.030 -0.8357  0.5301 -0.0351
  163SOL    HW2 1911   7.134   4.146   5.926  0.4602 -0.0367  0.8881
  164SOL     OW 1912   5.351   6.633   1.293 -0.2502  0.0881  0.7644
  164SOL    HW1 1913   5.255   6.632   1.293 -0.3634  0.4105 -2.3090
  164SOL    HW2 1914   5.377   6.541   1.287 -0.4925  0.0690 -0.3075
  165SOL     OW 1915   6.292   8.234   8.508 -0.1633 -0.3537 -0.1802
  165SOL    HW1 1916   6.304   8.244   8.414  0.3046 -0.8611 -0.1756
  165SOL    HW2 1917   6.296   8.139   8.523  0.5865 -0.2332  0.4569
  166SOL     OW 1918   1.246   8.061   5.259  0.1424  0.5080  0.1245
  166SOL    HW1 1919   1.284   8.117   5.192 -1.0155 -0.0616 -1.0367
  166SOL    HW2 1920   1.166   8.026   5.220 -1.1958  1.0563  2.2068
  167SOL     OW 1921   0.479   9.074   4.773  0.5642  0.7358  0.3233
  167SOL    HW1 1922   0.568   9.046   4.752  0.7471  1.5671 -0.0416
  167SOL    HW2 1923   0.467   9.155   4.723  0.0074  1.2495  1.2745
  168SOL     OW 1924   1.576   7.156   4.858 -0.1739  0.6786  0.3647
  168SOL    HW1 1925   1.598   7.236   4.810 -1.5054  0.4439 -0.7231
  168SOL    HW2 1926   1.532   7.101   4.793 -0.3387 -0.4612  1.3969
  169SOL     OW 1927   2.834   3.448   4.456 -0.4174 -0.2650 -0.1563
  169SOL    HW1 1928   2.744   3.472   4.477  0.1510  1.1773  0.8368
  169SOL    HW2 1929   2.886   3.523   4.484  1.2261 -1.5454  0.4308
  170SOL     OW 1930   0.454   3.343   4.061  0.0092  0.7501 -0.1323
  170SOL    HW1 1931   0.525   3.400   4.030  0.2789  0.0259 -0.8661
  170SOL    HW2 1932   0.463   3.263   4.010 -0.7360  0.2662  0.4711
  171SOL     OW 1933   4.404   4.932   3.502 -0.1784 -0.1849 -0.1190
  171SOL    HW1 1934   4.371   4.933   3.592 -0.3976  0.2974 -0.2048
  171SOL    HW2 1935   4.487   4.884   3.508 -0.7434 -1.1606  0.1434
  172SOL     OW 1936   2.457   5.511   8.350  0.0632  0.0004 -0.0676
  172SOL    HW1 1937   2.389   5.575   8.372  0.6445  0.2674  0.9829
  172SOL    HW2 1938   2.413   5.448   8.294 -0.7515  0.8227 -0.3791
  173SOL     OW 1939   0.801   2.082   0.684 -0.3531  0.3117 -0.0526
  173SOL    HW1 1940   0.892   2.075   0.713 -0.5158  1.5880  0.8202
  173SOL    HW2 1941   0.753   2.022   0.741 -0.0688 -0.4263 -0.5694
  174SOL     OW 1942   2.861   5.220   7.902 -0.1842 -0.7446  0.5904
  174SOL    HW1 1943   2.917   5.154   7.861 -0.4664 -0.6185 -0.0186
  174SOL    HW2 1944   2.893   5.303   7.866 -0.4427 -0.6319  0.6223
  175SOL     OW 1945   5.166   5.988   7.756  0.6083 -0.1975 -0.0732
  175SOL    HW1 1946   5.251   6.002   7.714  0.2183 -0.2328 -0.9013
  175SOL    HW2 1947   5.155   5.893   7.759 -0.9932 -0.2502 -3.3945
  176SOL     OW 1948   5.772   5.385   5.822 -0.0889 -0.2866 -0.0835
  176SOL    HW1 1949   5.682   5.408   5.800 -0.5739 -1.2613  0.7796
  176SOL    HW2 1950   5.797   5.449   5.888 -0.9438 -1.2886  1.2808
  177SOL     OW 1951   6.008   0.226   1.906  0.3960  0.2421  0.0692
  177SOL    HW1 1952   5.980   0.225   1.998  2.6679  2.0536  0.8902
  177SOL    HW2 1953   6.101   0.204   1.909  0.7765  1.3701 -1.6537
  178SOL     OW 1954   2.250   8.639   2.733  0.3867  0.7932 -0.3642
  178SOL    HW1 1955   2.177   8.582   2.708  1.5574 -1.2707  0.6473
  178SOL    HW2 1956   2.238   8.653   2.827  1.6777 -0.2143 -0.0257
  179SOL     OW 1957   7.618   5.443   8.977 -0.1219 -0.7064 -0.3134
  179SOL    HW1 1958   7.630   5.503   8.903  0.8785 -0.8557 -0.2805
  179SOL    HW2 1959   7.563   5.372   8.942 -0.5829 -0.2196 -0.5942
  180SOL     OW 1960   3.309   0.493   9.225  0.1679 -0.1040  0.1926
  180SOL    HW1 1961   3.230   0.544   9.205 -0.0187  1.1857  3.5400
  180SOL    HW2 1962   3.378   0.533   9.173 -0.8904  0.4072 -0.8661
  181SOL     OW 1963   3.846   0.324   2.576  0.4986  0.1867 -0.8604
  181SOL    HW1 1964   3.799   0.357   2.653  1.0521  3.1634 -1.6706
  181SOL    HW2 1965   3.779   0.313   2.509  0.4454  0.8736 -0.9280
  182SOL     OW 1966   6.892   6.654   5.420  0.1982 -0.4057 -0.4573
  182SOL    HW1 1967   6.952   6.713   5.465  0.4742 -0.1164 -1.1825
  182SOL    HW2 1968   6.936   6.569   5.421 -0.8185 -0.9724  1.8218
  183SOL     OW 1969   0.189   1.050   3.249  0.0708  0.3595 -0.3843
  183SOL    HW1 1970   0.182   1.108   3.325  0.3455  1.1756 -0.9644
  183SOL    HW2 1971   0.271   1.075   3.207  0.7754 -1.2285 -0.0367
  184SOL     OW 1972   3.599   6.167   8.391  0.0864  0.4943  0.5504
  184SOL    HW1 1973   3.635   6.227   8.325  1.6039 -0.7627  0.1924
  184SOL    HW2 1974   3.676   6.126   8.431 -0.8919 -0.8744  1.1021
  185SOL     OW 1975   3.770   7.570   7.398  0.3942  0.2852 -0.0950
  185SOL    HW1 1976   3.721   7.494   7.367  1.4137 -0.1737 -0.6357
  185SOL    HW2 1977   3.852   7.534   7.431  0.4536  1.0544  0.6447
  186SOL     OW 1978   3.796   7.973   2.291 -0.2155  0.4344  0.3292
  186SOL    HW1 1979   3.812   8.006   2.203  0.7518 -1.9963 -0.4868
  186SOL    HW2 1980   3.861   8.017   2.345  0.0165  1.0101 -0.4016
  187SOL     OW 1981   7.120   7.094   5.852  0.1589  0.0963  0.3373
  187SOL    HW1 1982   7.121   6.999   5.842 -0.0823 -0.1728  2.4976
  187SOL    HW2 1983   7.201   7.115   5.898 -1.1922  0.5304  2.6583
  188SOL     OW 1984   0.020   8.230   0.670  0.6144  0.1117 -0.0355
  188SOL    HW1 1985   0.099   8.185   0.642  0.3944  0.3430 -1.0702
  188SOL    HW2 1986  -0.047   8.202   0.608  0.1830  0.8816  0.0677
  189SOL     OW 1987   2.473   5.663   0.101  0.5838  0.4539 -0.0286
  189SOL    HW1 1988   2.517   5.711   0.030 -0.0410 -0.0771 -0.7938
  189SOL    HW2 1989   2.383   5.695   0.099  0.7562  1.0530  1.1034
  190SOL     OW 1990   4.830   8.273   3.860  0.3596  1.2212  0.2029
  190SOL    HW1 1991   4.912   8.263   3.908 -0.4798 -0.0724  1.4417
  190SOL    HW2 1992   4.802   8.183   3.842  0.3571  1.6410 -2.3010
  191SOL     OW 1993   7.925   3.825   5.735 -0.0221  0.1207  0.2393
  191SOL    HW1 1994   7.943   3.815   5.828 -0.3065 -0.3225  0.2477
  191SOL    HW2 1995   8.011   3.840   5.695  0.0589  0.6603  0.6131
  192SOL     OW 1996   3.980   3.669   2.705 -0.1136  0.3486 -0.1941
  192SOL    HW1 1997   3.988   3.584   2.749  0.6708  0.9575  0.8726
  192SOL    HW2 1998   3.997   3.650   2.613 -1.6862 -0.9352 -0.2774
  193SOL     OW 1999   5.823   6.232   6.239  0.0396 -0.1506  0.3890
  193SOL    HW1 2000   5.780   6.226   6.154  1.2281 -0.0465 -0.2375
  193SOL    HW2 2001   5.915   6.246   6.218  0.1851  0.9888  1.7063
  194SOL     OW 2002   1.483   1.753   7.670  0.0712  0.3260  0.8277
  194SOL    HW1 2003   1.418   1.727   7.735 -0.0088  0.2625  0.7228
  194SOL    HW2 2004   1.474   1.689   7.600 -1.4290  1.6630 -0.2889
  195SOL     OW 2005   3.550   4.823   5.966 -0.0129 -0.0098  0.6027
  195SOL    HW1 2006   3.541   4.825   5.870  0.2659 -1.6096  0.5118
  195SOL    HW2 2007   3.629   4.771   5.981  0.4396  0.9633  1.7017
  196SOL     OW 2008   6.249   9.085   2.174 -0.1865  0.6632 -0.4406
  196SOL    HW1 2009   6.208   9.062   2.091 -1.3977  1.0941  0.0182
  196SOL    HW2 2010   6.226   9.013   2.233  0.1124  0.6818 -0.2977
  197SOL     OW 2011   3.070   0.514   4.521 -0.1131  0.0251 -0.5013
  197SOL    HW1 2012   3.107   0.583   4.467  1.4689  0.6794  1.2748
  197SOL    HW2 2013   3.059   0.439   4.462  0.1923  1.1207 -1.9859
  198SOL     OW 2014   2.666   8.612   0.223 -0.4192 -0.1097  0.2401
  198SOL    HW1 2015   2.752   8.605   0.182 -0.5835 -0.7597 -0.0082
  198SOL    HW2 2016   2.644   8.705   0.217 -0.7280 -0.2592 -1.7671
  199SOL     OW 2017   2.666   6.234   6.430 -0.1328  0.1956  0.6461
  199SOL    HW1 2018   2.668   6.277   6.345  0.9538 -0.5051  0.2967
  199SOL    HW2 2019   2.588   6.270   6.473 -0.6890  0.5643 -0.6200
  200SOL     OW 2020   1.763   9.257   2.452  0.3407 -0.2376  0.0243
  200SOL    HW1 2021   1.789   9.222   2.366  1.1015 -0.9058  0.5097
  200SOL    HW2 2022   1.846   9.271   2.498 -0.0863 -2.6582  1.7225
  201SOL     OW 2023   2.500   6.330   3.220 -0.0037  0.2389  0.0484
  201SOL    HW1 2024   2.428   6.268   3.235  0.3925  0.2148  2.2243
  201SOL    HW2 2025   2.489   6.396   3.289  1.0437  1.2147 -0.6888
  202SOL     OW 2026   1.536   9.059   7.293 -1.1884 -0.2135  0.8944
  202SOL    HW1 2027   1.626   9.029   7.301 -1.2135  0.0236  2.2629
  202SOL    HW2 2028   1.507   9.026   7.208  0.3877  0.2859  0.1261
  203SOL     OW 2029   0.725   4.697   8.657 -0.1967 -0.0573  0.1533
  203SOL    HW1 2030   0.714   4.715   8.750 -2.3808  0.8832 -0.2012
  203SOL    HW2 2031   0.803   4.746   8.631  0.4133 -0.3077  1.4610
  204SOL     OW 2032   5.884   4.683   3.046 -0.1867 -0.0727 -0.4433
  204SOL    HW1 2033   5.843   4.632   3.115  0.7291 -0.3803 -0.1061
  204SOL    HW2 2034   5.977   4.684   3.069  0.1987 -0.5221 -1.8782
  205SOL     OW 2035   6.081   2.786   5.649  0.0204  0.2933  0.1981
  205SOL    HW1 2036   6.142   2.833   5.593  1.1150  0.4817  1.4930
  205SOL    HW2 2037   6.084   2.832   5.732 -2.1520  0.4890  0.2275
  206SOL     OW 2038   3.715   7.539   3.615 -0.1034  0.3220  0.1829
  206SOL    HW1 2039   3.784   7.580   3.667 -0.4301 -0.6535  1.4419
  206SOL    HW2 2040   3.641   7.532   3.676 -1.3337  1.3517 -1.1344
  207SOL     OW 2041   1.325   3.993   6.277 -0.2675  0.3873  0.3009
  207SOL    HW1 2042   1.407   4.003   6.325 -0.4155 -0.1431  0.6751
  207SOL    HW2 2043   1.260   3.972   6.344 -0.7510  0.9829  0.0301
  208SOL     OW 2044   7.447   1.666   7.242 -0.4085  0.2701 -0.0992
  208SOL    HW1 2045   7.471   1.581   7.278 -1.2531  0.8177  1.8717
  208SOL    HW2 2046   7.524   1.694   7.192 -0.5911 -2.2056 -1.9517
  209SOL     OW 2047   8.669   4.244   7.087  0.4479  0.2580  1.1823
  209SOL    HW1 2048   8.601   4.226   7.151 -0.4089  0.8348  0.4671
  209SOL    HW2 2049   8.633   4.213   7.004  1.4737 -0.3422  0.9347
  210SOL     OW 2050   0.941   4.595   0.972 -0.3291  0.4149 -0.1561
  210SOL    HW1 2051   0.942   4.668   1.035  1.3196  0.2490  0.0442
  210SOL    HW2 2052   0.848   4.581   0.954 -0.9159  0.0409  2.7340
  211SOL     OW 2053   9.107   7.947   8.203  0.0786  0.0544 -0.2945
  211SOL    HW1 2054   9.088   7.944   8.109  0.2400  0.0632 -0.3281
  211SOL    HW2 2055   9.117   7.855   8.228 -1.0208 -0.0155 -0.0641
  212SOL     OW 2056   6.779   7.962   1.841 -0.2665 -0.1621  0.5156
  212SOL    HW1 2057   6.719   7.910   1.789 -2.3429  1.2266  1.3901
  212SOL    HW2 2058   6.820   8.021   1.779 -0.8902 -0.1645  0.0929
  213SOL     OW 2059   1.971   8.313   0.454 -0.1092  0.1688 -0.4911
  213SOL    HW1 2060   1.892   8.304   0.507  0.3660 -1.1957  0.0208
  213SOL    HW2 2061   1.991   8.225   0.424  1.9888  0.2270  0.5425
  214SOL     OW 2062   0.385   2.184   7.399  0.3261 -0.3468  0.3915
  214SOL    HW1 2063   0.457   2.205   7.340 -0.7975 -1.2761 -1.3984
  214SOL    HW2 2064   0.323   2.135   7.345 -1.1988 -0.4355  2.1207
  215SOL     OW 2065   6.377   2.551   2.812  0.0761 -0.7975  0.0767
  215SOL    HW1 2066   6.411   2.463   2.800  1.7015 -0.3074  0.8541
  215SOL    HW2 2067   6.363   2.559   2.907 -2.6668 -1.1006 -0.2091
  216SOL     OW 2068   8.990   2.039   5.693  0.0238  0.4576  0.3914
  216SOL    HW1 2069   9.003   2.132   5.675 -1.9318  1.1299  2.0577
  216SOL    HW2 2070   9.029   2.026   5.780  0.8692 -0.4532 -0.1092
  217SOL     OW 2071   3.955   3.617   6.326 -0.2120 -0.6777  0.7351
  217SOL    HW1 2072   3.915   3.575   6.250 -0.0916  0.1402  0.2082
  217SOL    HW2 2073   3.935   3.559   6.400  0.4478 -1.9528 -0.0620
  218SOL     OW 2074   7.419   0.241   6.884  0.2909  0.0151  0.7500
  218SOL    HW1 2075   7.480   0.307   6.851  0.9031  1.1807  3.8718
  218SOL    HW2 2076   7.474   0.165   6.902 -0.1117 -0.7714 -1.1345
  219SOL     OW 2077   4.677   7.735   6.651  0.0401 -0.4874 -0.0257
  219SOL    HW1 2078   4.724   7.807   6.692  0.1687 -1.1885  1.1141
  219SOL    HW2 2079   4.741   7.664   6.646  0.5712  0.0842 -3.1163
  220SOL     OW 2080   6.923   0.511   7.756 -0.1883 -0.2970  0.5521
  220SOL    HW1 2081   6.895   0.421   7.742 -2.2486  0.2572  0.8802
  220SOL    HW2 2082   6.940   0.516   7.850 -0.2585 -0.2972  0.5650
  221SOL     OW 2083   5.510   7.186   8.497  0.0197  0.1229 -0.0360
  221SOL    HW1 2084   5.428   7.233   8.511  0.2692  0.8756 -0.9313
  221SOL    HW2 2085   5.564   7.209   8.572  0.0050  1.0057 -0.2804
  222SOL     OW 2086   2.491   6.416   6.554 -0.1142 -0.3596 -0.9910
  222SOL    HW1 2087   2.468   6.506   6.532 -0.0217 -0.2971 -0.8319
  222SOL    HW2 2088   2.428   6.392   6.622  0.5319 -0.0632 -0.2855
  223SOL     OW 2089   7.213   8.526   0.736  0.1042 -0.9921  0.2600
  223SOL    HW1 2090   7.129   8.481   0.733 -0.1948 -0.4507  0.4011
  223SOL    HW2 2091   7.192   8.615   0.763  0.6783 -0.7471 -0.0695
  224SOL     OW 2092   6.197   2.091   2.991  0.4034  0.2190 -0.2181
  224SOL    HW1 2093   6.282   2.135   2.986  2.1774 -3.0262 -1.5481
  224SOL    HW2 2094   6.179   2.064   2.901 -0.6553 -1.5404  0.4732
  225SOL     OW 2095   6.255   2.227   3.864 -0.2629  0.7343  0.2345
  225SOL    HW1 2096   6.320   2.158   3.881  0.1221  1.2603  0.9947
  225SOL    HW2 2097   6.192   2.187   3.804  0.2870 -0.0763  0.1808
  226SOL     OW 2098   7.760   5.248   8.149  0.2329  0.5203  0.3021
  226SOL    HW1 2099   7.850   5.281   8.148  0.0854  0.9372  0.5989
  226SOL    HW2 2100   7.753   5.201   8.232  0.8712 -1.5048 -0.7088
  227SOL     OW 2101   5.424   7.273   5.160 -0.2338  0.0546 -0.4370
  227SOL    HW1 2102   5.389   7.243   5.076  0.1775 -2.6292  0.2728
  227SOL    HW2 2103   5.502   7.323   5.137 -1.0079  0.7494 -1.7006
  228SOL     OW 2104   3.450   7.781   5.605  0.1925 -0.1857 -0.1673
  228SOL    HW1 2105   3.413   7.794   5.518  0.9176 -1.8370 -0.7671
  228SOL    HW2 2106   3.535   7.739   5.589  0.7609  0.3240  1.3051
  229SOL     OW 2107   1.591   2.720   3.370  0.0609 -0.0608 -0.1382
  229SOL    HW1 2108   1.588   2.743   3.463  1.9912 -1.2514  0.2794
  229SOL    HW2 2109   1.546   2.635   3.365 -0.1053  0.0361 -0.3201
  230SOL     OW 2110   2.830   8.795   0.720  0.1671  0.3120  0.4736
  230SOL    HW1 2111   2.813   8.828   0.631 -1.5407 -1.8532 -0.1128
  230SOL    HW2 2112   2.744   8.793   0.761  0.3840 -1.8184  0.9633
  231SOL     OW 2113   2.361   2.466   6.006  0.1821 -0.8885 -0.2386
  231SOL    HW1 2114   2.422   2.422   6.065 -0.1166 -2.7481 -1.2239
  231SOL    HW2 2115   2.414   2.491   5.930  0.1213 -0.6499 -0.2023
  232SOL     OW 2116   6.876   5.294   2.273  0.0352 -0.4577 -0.0783
  232SOL    HW1 2117   6.937   5.362   2.245  0.6871 -1.0891 -0.2095
  232SOL    HW2 2118   6.796   5.312   2.222  0.8227 -0.9137 -1.5280
  233SOL     OW 2119   2.444   2.021   3.511 -0.0554 -0.1941 -0.5571
  233SOL    HW1 2120   2.435   1.926   3.516  1.1800 -0.3552 -1.0522
  233SOL    HW2 2121   2.441   2.041   3.418 -3.3338  0.6298 -0.4063
  234SOL     OW 2122   7.451   5.299   7.685 -0.5846  0.4330  0.1943
  234SOL    HW1 2123   7.508   5.348   7.626 -1.5548  1.7904  0.3197
  234SOL    HW2 2124   7.387   5.256   7.627 -0.9908  1.0328  0.1872
  235SOL     OW 2125   6.811   5.180   3.896  0.5680 -0.3798 -0.0926
  235SOL    HW1 2126   6.869   5.178   3.820  0.2189  0.3175 -0.3871
  235SOL    HW2 2127   6.763   5.262   3.888  0.2048 -0.5060  0.6462
  236SOL     OW 2128   1.983   7.372   5.829 -0.5052  0.0114  0.3569
  236SOL    HW1 2129   1.938   7.288   5.820 -3.2445  1.2849  1.0042
  236SOL    HW2 2130   2.040   7.361   5.905 -0.1510 -1.5001 -0.1050
  237SOL     OW 2131   8.909   3.867   1.438  0.3136 -0.1599 -0.4890
  237SOL    HW1 2132   8.992   3.839   1.477  1.3074  2.0051 -0.8673
  237SOL    HW2 2133   8.909   3.962   1.448 -0.8500  0.1843 -2.9354
  238SOL     OW 2134   5.824   4.600   7.781 -0.1808  0.0216  0.5615
  238SOL    HW1 2135   5.906   4.568   7.820  0.5075 -0.2011 -0.9914
  238SOL    HW2 2136   5.841   4.600   7.687 -2.5887 -1.8574  0.0305
  239SOL     OW 2137   4.141   2.762   6.655 -0.1572  0.5725 -0.2509
  239SOL    HW1 2138   4.069   2.803   6.704 -0.7975  2.6280 -2.6494
  239SOL    HW2 2139   4.217   2.773   6.711 -1.3452  0.0474  1.5609
  240SOL     OW 2140   3.947   7.987   3.907 -0.2902  0.5506 -0.3823
  240SOL    HW1 2141   3.942   7.954   3.817  0.4034  2.8899 -1.3538
  240SOL    HW2 2142   4.023   7.944   3.944 -1.2346 -1.3060 -0.4843
  241SOL     OW 2143   1.683   1.666   8.186 -0.3730 -0.6179 -0.0742
  241SOL    HW1 2144   1.677   1.627   8.099  0.8571 -1.8624  0.3751
  241SOL    HW2 2145   1.592   1.666   8.217 -0.5911 -1.9402 -0.6117
  242SOL     OW 2146   3.631   4.734   5.452 -0.6755  0.0773  0.1178
  242SOL    HW1 2147   3.599   4.668   5.391 -1.0712  0.1459  0.2535
  242SOL    HW2 2148   3.714   4.763   5.414 -1.0892  0.3749 -0.5699
  243SOL     OW 2149   4.968   5.166   8.339  0.1614  0.2286 -0.2156
  243SOL    HW1 2150   5.028   5.111   8.389  0.0981  0.6205  0.2893
  243SOL    HW2 2151   4.885   5.160   8.386  0.1104  0.6287 -0.2581
  244SOL     OW 2152   3.038   5.360   1.047  0.8344 -0.6226 -0.2743
  244SOL    HW1 2153   3.122   5.406   1.055 -0.4682  1.7301  1.1535
  244SOL    HW2 2154   3.018   5.331   1.136 -1.0421  1.2232 -0.0160
  245SOL     OW 2155   6.443   4.818   8.003  0.5354 -0.3496  0.3668
  245SOL    HW1 2156   6.415   4.749   7.943 -0.5010 -1.5500  2.1505
  245SOL    HW2 2157   6.502   4.775   8.065 -0.3002  0.2726  1.6447
  246SOL     OW 2158   2.796   8.097   1.737  0.7476  0.3443  0.8174
  246SOL    HW1 2159   2.857   8.161   1.771 -1.4986  2.2139  1.6051
  246SOL    HW2 2160   2.763   8.135   1.655  1.2183 -1.0180 -0.0512
  247SOL     OW 2161   8.098   5.721   6.394 -0.1540 -0.6001 -0.4887
  247SOL    HW1 2162   8.104   5.686   6.483 -0.3670 -1.6727 -0.8747
  247SOL    HW2 2163   8.175   5.778   6.385 -1.1813  1.1127  1.0191
  248SOL     OW 2164   6.788   3.521   9.103  0.4223 -0.4019  0.1167
  248SOL    HW1 2165   6.853   3.589   9.118 -0.3613  0.1886  0.9593
  248SOL    HW2 2166   6.806   3.454   9.170 -0.5711  0.3455  1.1805
  249SOL     OW 2167   0.090   0.378   2.799  0.3067  0.7294 -0.3039
  249SOL    HW1 2168   0.054   0.342   2.718  0.5610  0.6783 -0.3976
  249SOL    HW2 2169   0.148   0.449   2.770 -0.4895  1.4811 -0.1001
  250SOL     OW 2170   2.060   0.763   3.532 -0.6609 -0.4008 -0.5202
  250SOL    HW1 2171   2.024   0.842   3.491 -0.4071  0.8936  1.6214
  250SOL    HW2 2172   2.027   0.765   3.621  3.7143  0.3408  1.3409
  251SOL     OW 2173   7.865   6.093   2.506 -0.6063 -0.1410 -0.3630
  251SOL    HW1 2174   7.814   6.143   2.570  0.2905 -0.4571  0.6235
  251SOL    HW2 2175   7.904   6.022   2.556  0.3189 -0.2565 -1.2190
  252SOL     OW 2176   1.608   8.521   7.187 -0.0687 -0.0367  0.0231
  252SOL    HW1 2177   1.563   8.478   7.114  0.2898  0.0260 -0.2342
  252SOL    HW2 2178   1.553   8.597   7.206 -0.8088 -0.7002  0.6070
  253SOL     OW 2179   2.339   0.172   3.925  0.0117 -0.5852 -0.9036
  253SOL    HW1 2180   2.414   0.232   3.930 -1.3008  1.0154  0.3089
  253SOL    HW2 2181   2.357   0.119   3.847  1.7926  0.5812 -1.3475
  254SOL     OW 2182   9.063   5.649   5.873  0.1458 -0.2506 -0.5957
  254SOL    HW1 2183   9.070   5.728   5.927 -0.9423 -1.3885  1.3135
  254SOL    HW2 2184   9.154   5.619   5.865  0.4346  0.4666 -0.1881
  255SOL     OW 2185   4.079   4.857   8.044 -0.1878 -0.2209 -0.7972
  255SOL    HW1 2186   4.096   4.929   7.984  0.9878 -1.4818 -2.0593
  255SOL    HW2 2187   4.163   4.839   8.086 -0.4855 -0.7995 -0.4248
  256SOL     OW 2188   6.037   0.071   8.530  0.0385  0.9389 -0.0164
  256SOL    HW1 2189   6.108   0.054   8.592  0.3861  0.0855 -0.6215
  256SOL    HW2 2190   6.065   0.029   8.449 -2.0148 -1.2107  0.2592
  257SOL     OW 2191   3.044   3.365   7.057 -0.4341  0.4345 -0.1020
  257SOL    HW1 2192   3.035   3.459   7.072 -0.9185  0.2738  0.6705
  257SOL    HW2 2193   2.960   3.338   7.020 -0.7400  0.1040  0.8056
  258SOL     OW 2194   0.952   8.113   3.392  0.0431 -0.2150  0.3007
  258SOL    HW1 2195   0.928   8.206   3.387  1.8436  0.3669  1.5629
  258SOL    HW2 2196   0.876   8.071   3.433 -1.1699  0.4941 -1.1100
  259SOL     OW 2197   7.935   7.750   5.355 -0.1379 -0.0003  0.4099
  259SOL    HW1 2198   7.893   7.744   5.270 -0.1783 -0.4406  0.4591
  259SOL    HW2 2199   8.018   7.703   5.344  0.0464  0.3058  0.4944
  260SOL     OW 2200   8.008   6.112   6.719 -1.0614  0.4393  0.3298
  260SOL    HW1 2201   7.947   6.104   6.645 -1.8033  1.2703  0.8331
  260SOL    HW2 2202   7.972   6.056   6.787 -0.5140 -0.1263  0.1641
  261SOL     OW 2203   0.631   8.828   4.971 -0.4916  0.6921 -0.3372
  261SOL    HW1 2204   0.595   8.760   4.915 -1.1912 -0.7452  1.7505
  261SOL    HW2 2205   0.676   8.887   4.910 -0.6528 -1.0964 -2.3252
  262SOL     OW 2206   7.339   3.605   4.768  0.1792 -0.5431  0.5442
  262SOL    HW1 2207   7.270   3.579   4.709  1.1867 -0.2772 -0.7988
  262SOL    HW2 2208   7.365   3.692   4.738  0.8490 -0.4881  1.2403
  263SOL     OW 2209   4.221   4.227   4.045 -0.3465 -0.1049  0.6032
  263SOL    HW1 2210   4.141   4.193   4.087  0.2921  0.4560  2.3523
  263SOL    HW2 2211   4.288   4.223   4.113  1.0321 -0.1483 -0.7044
  264SOL     OW 2212   0.413   6.914   2.401  0.2509  0.1194 -0.5371
  264SOL    HW1 2213   0.369   6.958   2.474  0.4139 -1.0745  0.3080
  264SOL    HW2 2214   0.357   6.838   2.382  0.5458  0.0745 -1.2361
  265SOL     OW 2215   3.313   9.243   2.422  0.0750  0.0118 -0.4022
  265SOL    HW1 2216   3.303   9.338   2.412 -0.9348 -0.0707 -0.2640
  265SOL    HW2 2217   3.406   9.231   2.442  0.0266  1.0583  0.5734
  266SOL     OW 2218   8.567   4.155   1.195 -0.1125  0.0365 -0.2459
  266SOL    HW1 2219   8.502   4.087   1.213 -1.8111  1.3947 -0.9843
  266SOL    HW2 2220   8.585   4.148   1.102 -0.6430  0.8549 -0.4235
  267SOL     OW 2221   3.677   4.679   4.265  0.3748  0.5871 -0.0802
  267SOL    HW1 2222   3.671   4.702   4.357 -0.3511 -0.2146  0.0878
  267SOL    HW2 2223   3.588   4.652   4.241  0.6002  0.5982 -0.9614
  268SOL     OW 2224   0.041   6.150   2.731  0.0157 -0.3411 -0.5094
  268SOL    HW1 2225   0.106   6.082   2.711 -0.9433 -1.3589 -0.2443
  268SOL    HW2 2226   0.049   6.164   2.825 -0.9032 -1.2918 -0.2726
  269SOL     OW 2227   5.072   6.008   4.265 -0.3289 -0.2204  0.4954
  269SOL    HW1 2228   4.981   5.999   4.295 -0.0198 -0.1536  1.4800
  269SOL    HW2 2229   5.101   6.091   4.301  0.6997 -1.0895  1.7659
  270SOL     OW 2230   9.010   5.145   9.251  0.1105 -0.1285  0.4375
  270SOL    HW1 2231   8.930   5.131   9.302  0.0974  4.6533  2.2777
  270SOL    HW2 2232   8.979   5.146   9.160 -2.0250  1.2714  1.0694
  271SOL     OW 2233   3.240   8.772   3.587  0.4531 -0.3577 -0.5708
  271SOL    HW1 2234   3.232   8.748   3.680  1.7247  0.3607 -0.2486
  271SOL    HW2 2235   3.165   8.730   3.545 -0.1640 -0.6766  0.7856
  272SOL     OW 2236   8.877   9.160   5.480 -0.4909 -0.2800  0.0797
  272SOL    HW1 2237   8.915   9.137   5.395  0.9014 -2.0175  1.1165
  272SOL    HW2 2238   8.817   9.088   5.500 -1.9682  0.8646 -0.0706
  273SOL     OW 2239   5.608   1.794   3.821  0.0636 -0.0981 -0.2743
  273SOL    HW1 2240   5.574   1.876   3.854  0.2379  0.3156 -1.1019
  273SOL    HW2 2241   5.634   1.745   3.899  0.0716  0.6778  0.2094
  274SOL     OW 2242   8.052   3.212   8.524 -0.0922 -0.1581 -0.3096
  274SOL    HW1 2243   8.091   3.298   8.510  1.0286 -0.6652 -0.3638
  274SOL    HW2 2244   7.961   3.231   8.547  0.2492  1.0584  0.1138
  275SOL     OW 2245   8.162   6.913   6.556 -0.1136  0.1767  0.1294
  275SOL    HW1 2246   8.116   6.902   6.639 -0.1669  0.3937  0.1293
  275SOL    HW2 2247   8.096   6.895   6.489  0.4848 -2.3391  0.1170
  276SOL     OW 2248   1.378   1.434   2.580 -0.8409  0.5983 -0.1055
  276SOL    HW1 2249   1.288   1.453   2.607 -0.7540  2.5479 -1.0673
  276SOL    HW2 2250   1.368   1.373   2.506 -1.2879 -0.1212  0.5258
  277SOL     OW 2251   7.644   5.495   5.503  0.2069 -0.1581  0.1747
  277SOL    HW1 2252   7.608   5.482   5.415 -0.5290 -0.8101  0.5628
  277SOL    HW2 2253   7.713   5.430   5.511  0.6048  0.2260 -0.0932
  278SOL     OW 2254   8.552   4.494   7.708  0.1674 -0.0827  0.0771
  278SOL    HW1 2255   8.563   4.399   7.710  2.5374  0.1291  0.8258
  278SOL    HW2 2256   8.564   4.518   7.616 -0.1109 -0.4618 -0.0604
  279SOL     OW 2257   4.572   5.759   8.577 -0.2442  0.0510 -0.0194
  279SOL    HW1 2258   4.546   5.797   8.493  1.8776  1.1731 -0.2363
  279SOL    HW2 2259   4.495   5.710   8.606 -0.7748 -1.0423 -2.9802
  280SOL     OW 2260   7.705   3.365   6.785 -0.5291 -0.5903 -0.4044
  280SOL    HW1 2261   7.757   3.286   6.801 -0.2581 -0.1468  1.0223
  280SOL    HW2 2262   7.620   3.332   6.756 -0.2990 -1.4053 -0.1715
  281SOL     OW 2263   7.603   8.762   5.560 -0.0808  0.2117 -0.5742
  281SOL    HW1 2264   7.563   8.787   5.643 -2.4692  0.3165 -1.6658
  281SOL    HW2 2265   7.621   8.846   5.516  1.2552  0.1606 -0.1827
  282SOL     OW 2266   4.502   6.285   0.111 -0.3472 -0.3382  0.2738
  282SOL    HW1 2267   4.591   6.263   0.138  0.4578  1.4017 -0.7732
  282SOL    HW2 2268   4.487   6.373   0.146 -0.3323  0.7970 -2.3668
  283SOL     OW 2269   5.598   3.923   8.900  0.6903 -0.7334 -0.5049
  283SOL    HW1 2270   5.599   3.854   8.966  1.1180 -0.1083  0.1709
  283SOL    HW2 2271   5.510   3.919   8.862 -0.5235  0.5354  1.9250
  284SOL     OW 2272   3.368   6.097   3.335  0.3166  0.2138  0.0187
  284SOL    HW1 2273   3.359   6.003   3.318  0.7903  0.3989 -1.4094
  284SOL    HW2 2274   3.278   6.130   3.334  0.2228 -0.0477 -0.6704
  285SOL     OW 2275   0.138   3.037   6.154  0.1792 -1.3119  0.2932
  285SOL    HW1 2276   0.109   3.009   6.067 -1.0090 -1.4093  0.7112
  285SOL    HW2 2277   0.058   3.061   6.200  0.6390 -2.4940  1.8053
  286SOL     OW 2278   7.712   2.294   7.727 -0.1393 -0.2287 -0.0347
  286SOL    HW1 2279   7.727   2.381   7.765 -0.3523 -0.5848  0.8833
  286SOL    HW2 2280   7.789   2.243   7.753  0.5850 -0.0058 -1.5911
  287SOL     OW 2281   5.335   8.728   5.000 -0.0457  0.5443  0.5577
  287SOL    HW1 2282   5.351   8.756   4.910  1.4380 -0.2379  0.5515
  287SOL    HW2 2283   5.239   8.727   5.008 -0.1966  1.0440 -0.8624
  288SOL     OW 2284   3.099   7.756   7.557  0.4694 -0.0679 -0.1674
  288SOL    HW1 2285   3.030   7.820   7.568  0.2038  0.1096 -2.4417
  288SOL    HW2 2286   3.064   7.692   7.495  2.4936  0.3717 -1.9059
  289SOL     OW 2287   5.406   0.483   2.984  0.2997  0.0202  0.3995
  289SOL    HW1 2288   5.418   0.390   2.964  0.3725 -0.1451  1.1919
  289SOL    HW2 2289   5.312   0.495   2.994  0.2997  0.0074  0.4135
  290SOL     OW 2290   1.447   2.734   0.746 -0.0807  0.1303  0.1799
  290SOL    HW1 2291   1.360   2.762   0.773 -0.5729  0.5509 -1.6675
  290SOL    HW2 2292   1.507   2.782   0.803 -1.0428  0.4735  0.9229
  291SOL     OW 2293   1.075   8.484   7.760 -0.5524 -0.2752  0.1797
  291SOL    HW1 2294   1.051   8.391   7.765  0.8138 -0.7843 -1.6130
  291SOL    HW2 2295   1.170   8.483   7.746 -0.9625  1.1705 -3.9256
  292SOL     OW 2296   7.834   7.572   8.819 -0.2810  0.2485  0.2584
  292SOL    HW1 2297   7.883   7.506   8.770 -0.9596 -1.2017  1.4299
  292SOL    HW2 2298   7.890   7.595   8.892 -0.7475 -0.3715  0.8254
  293SOL     OW 2299   5.458   2.808   7.193  0.1006 -0.6332  0.0723
  293SOL    HW1 2300   5.544   2.796   7.233  0.2248  2.4156  1.0398
  293SOL    HW2 2301   5.405   2.735   7.226  1.7830 -1.4539  1.0737
  294SOL     OW 2302   7.668   1.942   8.442 -0.3235 -0.8680 -0.0044
  294SOL    HW1 2303   7.749   1.948   8.392 -0.3208  0.7239  0.1367
  294SOL    HW2 2304   7.671   2.018   8.501 -0.9837 -1.9041  1.4308
  295SOL     OW 2305   9.263   8.917   9.139 -0.0183 -0.1131  0.4737
  295SOL    HW1 2306   9.334   8.981   9.147  0.3412 -0.2985 -0.9566
  295SOL    HW2 2307   9.187   8.961   9.179  1.0039 -0.1485  2.5672
  296SOL     OW 2308   0.320   8.492   0.961 -0.0456  0.5246 -0.0039
  296SOL    HW1 2309   0.300   8.582   0.935  1.4621  0.1205 -3.0431
  296SOL    HW2 2310   0.404   8.498   1.007  0.7687  0.5695 -1.4569
  297SOL     OW 2311   5.561   4.564   0.614 -0.0897 -0.1804  0.2725
  297SOL    HW1 2312   5.516   4.486   0.583  0.2848 -0.8748  1.4263
  297SOL    HW2 2313   5.646   4.533   0.644  0.4197  0.8141 -0.0879
  298SOL     OW 2314   5.204   4.745   6.869  0.2411 -0.2000  0.1000
  298SOL    HW1 2315   5.137   4.748   6.801  0.4299  0.5237 -0.0681
  298SOL    HW2 2316   5.280   4.787   6.829  1.1232 -1.8317 -0.0450
  299SOL     OW 2317   1.599   4.952   5.642  0.1980  0.1144 -0.3415
  299SOL    HW1 2318   1.561   5.039   5.653 -1.8415 -0.7691  0.0029
  299SOL    HW2 2319   1.540   4.906   5.583  1.3869 -0.9703 -0.7470
  300SOL     OW 2320   4.160   7.453   7.923 -0.2183  0.0120  0.1040
  300SOL    HW1 2321   4.087   7.515   7.934  0.1270  0.5619 -0.6108
  300SOL    HW2 2322   4.162   7.403   8.004 -1.2442  0.1550  0.2246
  301SOL     OW 2323   7.655   0.585   6.266  0.1743  0.7915  0.2620
  301SOL    HW1 2324   7.638   0.601   6.173 -1.0017  0.4358  0.4014
  301SOL    HW2 2325   7.675   0.671   6.302  0.6741  0.9300 -0.3100
  302SOL     OW 2326   9.061   7.362   1.664 -0.4678  0.2968 -0.5593
  302SOL    HW1 2327   9.056   7.358   1.760 -1.8179 -2.0930 -0.6523
  302SOL    HW2 2328   9.137   7.308   1.642 -0.7099  0.0750 -0.8591
  303SOL     OW 2329   3.709   2.561   0.970  0.0576 -0.1580 -0.2291
  303SOL    HW1 2330   3.723   2.469   0.944  0.0219 -0.4752  0.8268
  303SOL    HW2 2331   3.629   2.559   1.021  1.8153 -0.1765  2.7493
  304SOL     OW 2332   1.379   6.316   7.008  0.0029 -0.3680 -0.1378
  304SOL    HW1 2333   1.468   6.311   7.044 -0.3931 -0.2426  0.9044
  304SOL    HW2 2334   1.382   6.389   6.946 -0.0000  1.3853  1.8194
  305SOL     OW 2335   5.888   1.407   6.978 -0.9042  0.1895  0.5572
  305SOL    HW1 2336   5.820   1.470   7.002  1.0297  2.3965  0.6617
  305SOL    HW2 2337   5.966   1.461   6.965  0.5847 -2.1002 -0.6031
  306SOL     OW 2338   1.266   2.981   5.231  0.3810  0.4278 -0.1956
  306SOL    HW1 2339   1.340   2.982   5.170  1.0270 -0.9617  0.5262
  306SOL    HW2 2340   1.274   2.898   5.278 -0.8060  0.9083  0.9316
  307SOL     OW 2341   1.373   6.521   4.444 -0.2239 -0.5373 -0.4252
  307SOL    HW1 2342   1.468   6.529   4.446 -0.0778 -1.5174 -1.8635
  307SOL    HW2 2343   1.356   6.427   4.439 -1.2291 -0.3435 -1.0196
  308SOL     OW 2344   4.347   3.403   8.409  0.4012  0.6594  0.1965
  308SOL    HW1 2345   4.301   3.399   8.325  1.3070 -1.4242 -0.2710
  308SOL    HW2 2346   4.290   3.356   8.469  0.9395 -0.1755  0.0823
  309SOL     OW 2347   4.838   4.894   4.327 -0.1370 -0.0777  0.2991
  309SOL    HW1 2348   4.802   4.901   4.415  0.3723 -1.4902  0.6407
  309SOL    HW2 2349   4.783   4.830   4.283  1.4919 -1.7957  0.6334
  310SOL     OW 2350   6.738   4.098   2.583  0.7182 -0.1739 -0.0993
  310SOL    HW1 2351   6.664   4.149   2.613  1.6340  0.9507  0.3241
  310SOL    HW2 2352   6.787   4.157   2.526  0.6533 -1.2861 -1.3742
  311SOL     OW 2353   6.795   1.044   0.099 -0.0786 -0.6391 -0.9115
  311SOL    HW1 2354   6.873   0.989   0.095 -0.1611 -0.8850  0.4615
  311SOL    HW2 2355   6.730   0.991   0.145  0.0392  0.7883  1.0254
  312SOL     OW 2356   3.997   1.131   2.999 -0.3818  0.1942 -0.2625
  312SOL    HW1 2357   3.916   1.108   2.954 -0.4227 -3.2065  1.1860
  312SOL    HW2 2358   4.060   1.146   2.928 -1.9021  1.6165 -1.3947
  313SOL     OW 2359   4.809   2.224   0.423  0.3817 -0.0251  0.1749
  313SOL    HW1 2360   4.845   2.216   0.511  1.3468  1.1822 -0.0717
  313SOL    HW2 2361   4.802   2.319   0.409 -1.7979 -0.2021 -0.2506
  314SOL     OW 2362   4.126   4.744   9.226  0.2068 -0.4928 -0.0464
  314SOL    HW1 2363   4.086   4.759   9.312 -2.1073 -2.0915 -0.7567
  314SOL    HW2 2364   4.146   4.832   9.194  0.2263  0.1871  1.7210
  315SOL     OW 2365   0.214   7.226   2.982  0.2102 -0.0660  0.1638
  315SOL    HW1 2366   0.163   7.308   2.988 -0.1369 -0.0905 -1.6852
  315SOL    HW2 2367   0.279   7.244   2.914  0.3314 -1.2128 -0.0425
  316SOL     OW 2368   5.504   3.592   7.621 -0.9331  0.1068  0.1343
  316SOL    HW1 2369   5.554   3.520   7.658  0.2739  0.3668 -0.9150
  316SOL    HW2 2370   5.420   3.553   7.597 -0.0772 -1.1422 -1.0004
  317SOL     OW 2371   0.834   9.247   4.508 -0.0790  0.4467  0.1699
  317SOL    HW1 2372   0.760   9.195   4.540 -1.8365  2.1647 -0.8615
  317SOL    HW2 2373   0.882   9.273   4.586 -1.5132  0.6316  1.0126
  318SOL     OW 2374   8.971   0.025   4.557  0.1026  0.1991 -0.1248
  318SOL    HW1 2375   8.948  -0.027   4.633  0.7970  2.0667  1.4382
  318SOL    HW2 2376   9.062   0.002   4.538  1.5545  2.9250  2.5691
  319SOL     OW 2377   0.639   5.903   2.754  0.3358  0.2596 -0.4611
  319SOL    HW1 2378   0.731   5.928   2.763  0.1396  0.8243  0.0300
  319SOL    HW2 2379   0.604   5.906   2.843 -0.8073  2.5939 -0.9167
  320SOL     OW 2380   4.293   5.530   4.782 -0.5471 -0.1615 -0.0571
  320SOL    HW1 2381   4.305   5.541   4.688  0.1308  0.1760  0.0595
  320SOL    HW2 2382   4.228   5.461   4.791 -0.9421  0.1076 -0.7786
  321SOL     OW 2383   1.096   1.616   3.953 -0.1064 -0.3034  0.0088
  321SOL    HW1 2384   1.144   1.630   3.871 -1.4838  1.1416 -0.5905
  321SOL    HW2 2385   1.135   1.679   4.014 -0.4724  0.0757 -0.1471
  322SOL     OW 2386   1.571   4.822   0.153 -0.0496  0.0836 -0.0618
  322SOL    HW1 2387   1.565   4.729   0.176 -0.5512  0.1941  0.2689
  322SOL    HW2 2388   1.663   4.844   0.166 -0.1028 -0.1407  0.7541
  323SOL     OW 2389   3.543   5.379   5.027 -0.4150 -0.0262  0.0514
  323SOL    HW1 2390   3.484   5.441   5.069 -0.6162 -0.3969  0.3262
  323SOL    HW2 2391   3.538   5.400   4.934 -2.5351 -1.3208 -0.1830
  324SOL     OW 2392   2.973   5.669   0.524 -0.1308 -0.3934  0.0092
  324SOL    HW1 2393   2.953   5.676   0.430 -2.3560  0.2640  0.4704
  324SOL    HW2 2394   2.910   5.604   0.557 -0.0770  0.1368  1.2045
  325SOL     OW 2395   6.503   6.349   4.887  0.0151  0.5444  0.3131
  325SOL    HW1 2396   6.495   6.444   4.876 -0.4240  0.7158  1.8723
  325SOL    HW2 2397   6.445   6.328   4.960  0.1159 -0.9334  0.0019
  326SOL     OW 2398   2.128   1.262   8.242 -0.2252  0.5290  0.2529
  326SOL    HW1 2399   2.105   1.270   8.335 -1.4863 -1.2903  0.1333
  326SOL    HW2 2400   2.044   1.250   8.197  0.4464  0.3904 -1.0036
  327SOL     OW 2401   1.560   3.018   8.326  0.0207  0.3752  0.3751
  327SOL    HW1 2402   1.471   2.985   8.337  0.5538 -2.4138 -2.1077
  327SOL    HW2 2403   1.615   2.956   8.374  0.8834 -1.1689 -2.3634
  328SOL     OW 2404   0.729   8.163   2.715 -0.1307 -0.0927 -0.0064
  328SOL    HW1 2405   0.634   8.150   2.710  0.0011 -1.0286 -0.1007
  328SOL    HW2 2406   0.739   8.240   2.772 -0.9904  0.8099 -1.0285
  329SOL     OW 2407   2.177   3.278   1.572 -0.1599  0.5384  0.1779
  329SOL    HW1 2408   2.196   3.184   1.575  0.7608  0.6968 -0.3353
  329SOL    HW2 2409   2.190   3.308   1.662 -0.7865  0.1226  0.4161
  330SOL     OW 2410   4.627   6.355   5.858  0.1662  0.2216 -0.0414
  330SOL    HW1 2411   4.584   6.273   5.883  1.2079  0.4501  2.9716
  330SOL    HW2 2412   4.721   6.334   5.861  0.4507  1.4613  0.8074
  331SOL     OW 2413   0.679   3.636   4.961 -0.6270 -0.0397  0.0557
  331SOL    HW1 2414   0.618   3.593   5.022  1.8153 -1.6350  1.5778
  331SOL    HW2 2415   0.680   3.579   4.884 -1.1066  0.0339 -0.0069
  332SOL     OW 2416   6.346   2.208   9.198  0.4987  0.0147 -0.1613
  332SOL    HW1 2417   6.262   2.185   9.236  0.3000  0.7723 -0.1357
  332SOL    HW2 2418   6.392   2.124   9.190 -1.0456 -0.7264 -2.1521
  333SOL     OW 2419   1.094   0.553   7.850  0.0101 -0.5711  0.2939
  333SOL    HW1 2420   1.032   0.519   7.786 -0.0206 -0.4954  0.2834
  333SOL    HW2 2421   1.155   0.480   7.865 -1.0226 -1.2113  1.5133
  334SOL     OW 2422   5.006   8.762   7.532  0.2822  0.3559 -0.0904
  334SOL    HW1 2423   4.997   8.752   7.627 -1.2736  1.6608 -0.0426
  334SOL    HW2 2424   5.100   8.767   7.517  0.6979 -2.3711  1.0483
  335SOL     OW 2425   5.980   2.237   3.765 -0.1908 -0.7344  0.0299
  335SOL    HW1 2426   5.906   2.289   3.735  0.5035  0.2640  0.0058
  335SOL    HW2 2427   5.983   2.162   3.704 -0.0253  0.2117 -1.1675
  336SOL     OW 2428   0.410   4.735   1.450  0.1427 -0.0404 -0.3068
  336SOL    HW1 2429   0.444   4.656   1.409 -0.5935 -0.9474  0.7506
  336SOL    HW2 2430   0.348   4.702   1.516  1.1293  1.3183  1.3882
  337SOL     OW 2431   8.147   6.604   8.729  0.2281 -0.4541 -0.1416
  337SOL    HW1 2432   8.144   6.663   8.804 -0.3247  0.1254 -0.6106
  337SOL    HW2 2433   8.086   6.642   8.666 -0.1668 -1.5492 -0.4456
  338SOL     OW 2434   6.293   3.495   2.774 -0.3739  0.5833  0.8453
  338SOL    HW1 2435   6.335   3.518   2.691 -1.4594  3.7685  1.0360
  338SOL    HW2 2436   6.363   3.502   2.839 -0.1429  1.0263  0.5581
  339SOL     OW 2437   4.573   8.524   3.228 -0.5215 -0.0706  0.4188
  339SOL    HW1 2438   4.639   8.517   3.296  2.8434 -0.0088 -2.5151
  339SOL    HW2 2439   4.511   8.454   3.246  1.6537 -1.6735  2.1177
  340SOL     OW 2440   4.212   1.609   1.772  0.4669  0.6251  0.0392
  340SOL    HW1 2441   4.193   1.699   1.746  3.0169  1.6860  1.4093
  340SOL    HW2 2442   4.275   1.618   1.844  0.0015 -2.2587  0.9286
  341SOL     OW 2443   6.551   5.465   2.294 -0.2815 -0.0862 -0.0646
  341SOL    HW1 2444   6.457   5.450   2.283 -0.3036 -0.5606  0.6946
  341SOL    HW2 2445   6.589   5.377   2.298 -0.1107  0.0244  1.9904
  342SOL     OW 2446   6.949   8.013   1.158  0.1284 -0.3183 -0.1385
  342SOL    HW1 2447   6.977   7.969   1.238 -0.5589 -1.4410 -0.4948
  342SOL    HW2 2448   6.855   8.028   1.170  0.0725 -0.2562 -0.6204
  343SOL     OW 2449   2.524   2.882   3.662 -0.1119 -0.2174 -0.3482
  343SOL    HW1 2450   2.541   2.968   3.625  0.8529  0.5206  1.6746
  343SOL    HW2 2451   2.486   2.900   3.748  0.4389 -1.7941  0.2576
  344SOL     OW 2452   8.730   8.320   0.687  0.5978  0.6945 -0.4818
  344SOL    HW1 2453   8.654   8.309   0.745  1.0593 -0.0148  0.0073
  344SOL    HW2 2454   8.733   8.238   0.637  0.6332  1.0062 -1.0000
  345SOL     OW 2455   4.272   2.245   3.484 -0.3803  0.2200 -0.8129
  345SOL    HW1 2456   4.267   2.151   3.468 -1.3932  0.1072  0.0894
  345SOL    HW2 2457   4.192   2.266   3.532 -0.6271  1.7175 -1.8296
  346SOL     OW 2458   2.480   6.586   3.039 -0.1040 -0.3869 -0.0658
  346SOL    HW1 2459   2.501   6.529   3.113 -0.1634  0.0048  0.2572
  346SOL    HW2 2460   2.475   6.673   3.077 -1.6353 -0.3686 -0.2551
  347SOL     OW 2461   8.559   0.266   6.133  0.3215  0.0811 -0.3935
  347SOL    HW1 2462   8.565   0.222   6.218  0.1068 -0.1237 -0.4832
  347SOL    HW2 2463   8.474   0.311   6.136 -0.1109 -0.6741 -0.8490
  348SOL     OW 2464   5.399   8.292   6.156 -0.0568  0.0038  0.3916
  348SOL    HW1 2465   5.439   8.256   6.077  0.2618  1.0946  0.0337
  348SOL    HW2 2466   5.305   8.294   6.137  0.1119  1.2171 -0.3766
  349SOL     OW 2467   0.871   6.160   3.145  0.1814 -0.5394  0.6325
  349SOL    HW1 2468   0.886   6.084   3.090  0.1783  0.4836 -0.8424
  349SOL    HW2 2469   0.950   6.213   3.136 -0.1331  0.0105  0.9910
  350SOL     OW 2470   8.311   4.546   1.765 -0.4273  0.3025 -0.3465
  350SOL    HW1 2471   8.286   4.623   1.816  1.2074  1.5603 -1.3271
  350SOL    HW2 2472   8.368   4.497   1.825  1.4722  1.7623 -0.8500
  351SOL     OW 2473   0.655   0.617   2.749  0.0803 -0.3782 -0.2256
  351SOL    HW1 2474   0.716   0.593   2.679  0.2886  2.6917 -1.2096
  351SOL    HW2 2475   0.568   0.599   2.714  0.2115  0.6040 -1.0903
  352SOL     OW 2476   0.312   2.701   7.619 -1.0391  0.3625 -0.3334
  352SOL    HW1 2477   0.234   2.715   7.566 -1.1203  0.3821 -0.2080
  352SOL    HW2 2478   0.313   2.607   7.636 -1.2861  0.4279  0.0529
  353SOL     OW 2479   4.085   8.686   0.764 -0.1013 -0.1335 -0.6321
  353SOL    HW1 2480   4.158   8.679   0.703  0.8136  3.9352 -0.3251
  353SOL    HW2 2481   4.007   8.693   0.708  0.1612 -0.8904 -1.1071
  354SOL     OW 2482   6.985   5.294   5.971 -0.2850 -0.1443  0.7724
  354SOL    HW1 2483   6.944   5.216   5.935  0.8122 -0.0591 -0.7440
  354SOL    HW2 2484   6.998   5.352   5.896 -0.4642  1.2388  1.7552
  355SOL     OW 2485   2.636   9.178   5.301 -0.0847 -0.1689  0.2830
  355SOL    HW1 2486   2.585   9.120   5.245  1.0725 -0.5107 -0.4567
  355SOL    HW2 2487   2.666   9.247   5.242 -1.0747  0.9671  1.0645
  356SOL     OW 2488   8.310   5.456   2.601  0.0031  0.0298 -0.2644
  356SOL    HW1 2489   8.310   5.401   2.679 -1.2157  1.2486  0.6397
  356SOL    HW2 2490   8.233   5.427   2.552  1.4051 -1.5356 -1.6637
  357SOL     OW 2491   2.453   5.986   0.615  0.0146  0.1998  0.0486
  357SOL    HW1 2492   2.542   5.959   0.637 -0.5539 -1.4951  0.4442
  357SOL    HW2 2493   2.441   5.958   0.525 -0.3115 -0.1546  0.1974
  358SOL     OW 2494   8.547   6.190   0.168  0.4420  0.2154  0.2863
  358SOL    HW1 2495   8.596   6.141   0.234  0.1099 -0.3429  0.1256
  358SOL    HW2 2496   8.604   6.262   0.144  1.1361 -0.3587  0.1952
  359SOL     OW 2497   2.894   8.832   3.802 -0.4484  0.2576  0.1301
  359SOL    HW1 2498   2.841   8.822   3.881 -1.3467  0.5862 -0.4077
  359SOL    HW2 2499   2.984   8.829   3.832 -0.7109 -1.8669  0.9240
  360SOL     OW 2500   4.451   4.654   4.969  0.5203  0.4924 -0.3242
  360SOL    HW1 2501   4.401   4.736   4.978  0.8385  0.5465  1.3157
  360SOL    HW2 2502   4.520   4.675   4.907 -0.6964  0.7989 -1.6346
  361SOL     OW 2503   1.586   3.971   2.244  0.0113  0.2466  0.0358
  361SOL    HW1 2504   1.589   4.066   2.249  2.1951  0.2017  1.1733
  361SOL    HW2 2505   1.543   3.943   2.325 -1.4081  0.2430 -0.6898
  362SOL     OW 2506   2.442   3.474   6.560  0.4893 -0.4651 -0.1139
  362SOL    HW1 2507   2.499   3.396   6.562  0.3584 -0.5547  0.7755
  362SOL    HW2 2508   2.361   3.443   6.520  0.3779 -0.8440  0.3855
  363SOL     OW 2509   6.940   0.625   2.132  0.2685  0.2211 -0.6685
  363SOL    HW1 2510   6.852   0.607   2.097 -0.0991  0.5053  0.0857
  363SOL    HW2 2511   6.961   0.713   2.102  0.3778  0.0866 -0.9968
  364SOL     OW 2512   7.360   6.944   8.142  0.2780 -0.1855  0.1227
  364SOL    HW1 2513   7.268   6.920   8.129 -0.0689  0.9203  0.4570
  364SOL    HW2 2514   7.387   6.980   8.057  0.2997 -0.1971  0.1247
  365SOL     OW 2515   5.453   4.935   2.526 -0.0646 -0.1687  0.1677
  365SOL    HW1 2516   5.423   4.912   2.438  1.1844 -0.0049 -0.3168
  365SOL    HW2 2517   5.483   4.853   2.564 -0.4882 -0.2178  0.4083
  366SOL     OW 2518   1.660   6.539   2.252  0.0450 -0.1317 -0.3663
  366SOL    HW1 2519   1.600   6.560   2.324 -0.0328  2.7409 -1.1318
  366SOL    HW2 2520   1.604   6.537   2.174  0.7658  1.9940 -1.0093
  367SOL     OW 2521   1.027   8.865   5.541 -0.2095  0.6789  0.3802
  367SOL    HW1 2522   0.969   8.897   5.610 -0.6340 -1.0077  0.8409
  367SOL    HW2 2523   0.990   8.780   5.516  1.1404  0.3176 -0.4612
  368SOL     OW 2524   5.341   6.526   3.661  0.1151  0.1734  0.1559
  368SOL    HW1 2525   5.305   6.614   3.649  1.6446  0.7868 -0.1252
  368SOL    HW2 2526   5.284   6.487   3.728 -2.7697  0.0599 -2.1740
  369SOL     OW 2527   6.838   8.644   1.900 -0.1346  0.0943 -0.1557
  369SOL    HW1 2528   6.771   8.580   1.924 -1.4597  1.6999  0.6633
  369SOL    HW2 2529   6.799   8.695   1.829  1.9699 -1.6467 -2.7897
  370SOL     OW 2530   1.935   3.301   5.206  0.6136  0.2490 -0.1306
  370SOL    HW1 2531   1.850   3.322   5.246  1.8698  0.9343  2.3928
  370SOL    HW2 2532   1.970   3.385   5.177  0.8299  0.0814 -0.3620
  371SOL     OW 2533   0.302   4.162   7.045  0.3331  0.6080 -0.2207
  371SOL    HW1 2534   0.310   4.079   6.998 -3.6219 -0.3988  0.5064
  371SOL    HW2 2535   0.305   4.229   6.977  0.1382 -0.4026 -1.2564
  372SOL     OW 2536   0.684   8.966   7.676  0.1551  0.1672 -0.1777
  372SOL    HW1 2537   0.755   8.929   7.728 -0.7886 -0.0465  1.0229
  372SOL    HW2 2538   0.680   9.058   7.702 -0.4562  0.0104  0.3058
  373SOL     OW 2539   5.501   1.250   1.891 -0.5504 -0.1165 -0.4924
  373SOL    HW1 2540   5.445   1.311   1.939 -0.2886  0.0938 -0.4526
  373SOL    HW2 2541   5.486   1.165   1.932 -0.9872 -0.0948 -0.6079
  374SOL     OW 2542   8.662   3.113   4.237  0.1320  0.8534 -0.4285
  374SOL    HW1 2543   8.754   3.108   4.263 -0.7289 -1.8310  2.7409
  374SOL    HW2 2544   8.661   3.080   4.147  2.4209  3.3312 -1.5326
  375SOL     OW 2545   1.466   5.750   7.323  0.3334  0.2453  0.8207
  375SOL    HW1 2546   1.536   5.757   7.258  0.4068  0.1564  0.8892
  375SOL    HW2 2547   1.489   5.672   7.374 -0.6864 -0.7870 -0.2225
  376SOL     OW 2548   3.422   4.448   4.012  0.5650 -0.3129  0.7258
  376SOL    HW1 2549   3.459   4.367   4.047 -1.0576 -1.0122  0.8810
  376SOL    HW2 2550   3.465   4.460   3.928  1.7974 -0.6023  1.2911
  377SOL     OW 2551   0.737   3.433   4.782 -0.0790 -0.3345  0.5353
  377SOL    HW1 2552   0.831   3.444   4.768  0.0002 -0.4519  0.9390
  377SOL    HW2 2553   0.720   3.341   4.762 -0.5971  0.2451 -2.0729
  378SOL     OW 2554   8.882   2.426   9.210  0.3170 -0.0487  0.5800
  378SOL    HW1 2555   8.792   2.452   9.193  0.6704  1.0095  0.2661
  378SOL    HW2 2556   8.875   2.356   9.275 -0.8082 -1.0091 -0.5217
  379SOL     OW 2557   7.454   4.872   8.602 -0.0046  0.6107  0.1875
  379SOL    HW1 2558   7.385   4.928   8.568 -0.2930 -0.2443 -0.6843
  379SOL    HW2 2559   7.412   4.824   8.674 -0.0453  0.7748  0.2740
  380SOL     OW 2560   7.295   8.385   3.623  0.1629 -0.4622  0.2769
  380SOL    HW1 2561   7.351   8.346   3.555 -1.4369 -1.2045 -0.6756
  380SOL    HW2 2562   7.206   8.368   3.593 -0.6029 -0.4257  2.3816
  381SOL     OW 2563   3.960   3.065   0.544 -0.1224  0.0918  0.5712
  381SOL    HW1 2564   3.985   3.149   0.504 -0.4416 -0.9326 -1.9985
  381SOL    HW2 2565   3.878   3.042   0.501 -0.4574 -1.1766  1.8439
  382SOL     OW 2566   4.475   1.884   8.504  0.9704  0.5753  0.1246
  382SOL    HW1 2567   4.532   1.916   8.574 -0.2387  2.8212  0.1670
  382SOL    HW2 2568   4.400   1.847   8.550  1.6909 -1.0888  0.0348
  383SOL     OW 2569   9.257   4.767   5.151 -0.4572  0.7843  0.2274
  383SOL    HW1 2570   9.167   4.767   5.120  0.2575  0.7675 -2.0782
  383SOL    HW2 2571   9.284   4.675   5.149 -0.1721  0.8665  0.1720
  384SOL     OW 2572   4.683   2.714   8.470  0.0030 -0.4108  0.0043
  384SOL    HW1 2573   4.777   2.732   8.464  0.1475 -0.9579  0.4642
  384SOL    HW2 2574   4.641   2.800   8.464  0.5693 -0.0990  0.4174
  385SOL     OW 2575   2.763   5.260   4.618  0.2679  0.3352  0.4054
  385SOL    HW1 2576   2.715   5.190   4.662 -1.4193  0.0984 -1.6597
  385SOL    HW2 2577   2.798   5.220   4.539  2.3130  0.9974  0.9259
  386SOL     OW 2578   6.264   4.682   3.613  0.5951  0.2637  0.6591
  386SOL    HW1 2579   6.168   4.678   3.618  0.5800 -2.2149 -0.3646
  386SOL    HW2 2580   6.293   4.650   3.698  0.6035  2.3451  1.5162
  387SOL     OW 2581   8.715   6.736   1.114  0.0924  0.0621  0.1204
  387SOL    HW1 2582   8.779   6.671   1.144 -0.8641 -1.2736 -0.6767
  387SOL    HW2 2583   8.762   6.820   1.121  1.4169 -0.7107  0.9707
  388SOL     OW 2584   5.798   6.722   2.030 -0.6038 -0.1434 -0.1705
  388SOL    HW1 2585   5.744   6.785   1.982 -1.6056  0.1806  1.3057
  388SOL    HW2 2586   5.861   6.776   2.077 -0.8032 -0.2930  0.2829
  389SOL     OW 2587   2.193   5.034   5.854 -0.1723 -0.5017  0.2483
  389SOL    HW1 2588   2.232   5.096   5.916  0.0058 -1.5956  1.2678
  389SOL    HW2 2589   2.216   4.948   5.888  1.0678 -1.1699 -2.0705
  390SOL     OW 2590   4.869   9.059   7.273 -0.3773 -0.2281 -0.0387
  390SOL    HW1 2591   4.861   9.076   7.179  0.0718  0.3136  0.0154
  390SOL    HW2 2592   4.798   8.998   7.292 -0.4975 -0.3154 -0.7231
  391SOL     OW 2593   4.196   0.014   8.016 -0.3264 -0.0402 -0.0075
  391SOL    HW1 2594   4.291   0.006   8.017 -0.3887 -0.9242 -0.2063
  391SOL    HW2 2595   4.175   0.058   8.098  0.2874  0.6531 -0.2086
  392SOL     OW 2596   5.490   3.798   2.518  0.3740 -0.4810 -0.2559
  392SOL    HW1 2597   5.448   3.882   2.500  1.5002 -0.3973 -3.0622
  392SOL    HW2 2598   5.569   3.799   2.464  0.8249 -3.0513  0.2225
  393SOL     OW 2599   1.341   3.331   2.551 -0.2335  0.4388 -0.0115
  393SOL    HW1 2600   1.329   3.236   2.545 -1.3474  0.4704  1.3004
  393SOL    HW2 2601   1.422   3.348   2.503  0.0733 -1.1956 -0.1212
  394SOL     OW 2602   5.271   4.498   2.422 -0.2253 -0.1934 -0.0910
  394SOL    HW1 2603   5.347   4.555   2.412  0.0968 -0.6856 -0.5133
  394SOL    HW2 2604   5.208   4.550   2.472  0.4577  0.1502  0.4254
  395SOL     OW 2605   0.642   4.346   7.152  0.2359 -0.1598  0.3046
  395SOL    HW1 2606   0.563   4.370   7.105 -0.5475 -0.3622  1.4684
  395SOL    HW2 2607   0.646   4.407   7.226  1.6322  0.3970 -0.1964
  396SOL     OW 2608   8.044   0.745   2.877 -0.0782  0.0956 -0.1704
  396SOL    HW1 2609   8.115   0.807   2.893 -1.9488  2.5786 -0.7514
  396SOL    HW2 2610   7.983   0.759   2.949 -1.9960  1.3349 -1.8895
  397SOL     OW 2611   8.410   5.872   0.164  0.3170 -0.3829 -0.5303
  397SOL    HW1 2612   8.430   5.964   0.146 -0.0177 -0.1879  0.0652
  397SOL    HW2 2613   8.322   5.859   0.131  0.9861 -0.9575 -2.1756
  398SOL     OW 2614   2.873   3.669   5.567  0.1949  0.2807 -0.2312
  398SOL    HW1 2615   2.778   3.669   5.554 -0.0512  1.7548  1.2199
  398SOL    HW2 2616   2.895   3.577   5.578 -1.1040 -0.0728 -0.3934
  399SOL     OW 2617   0.777   5.843   2.360  0.8896  0.3000  0.1207
  399SOL    HW1 2618   0.711   5.849   2.428  0.5323 -0.2376 -0.1755
  399SOL    HW2 2619   0.729   5.818   2.281  1.7485 -3.0161  0.4861
  400SOL     OW 2620   7.723   4.826   8.188 -0.2053 -0.1404  0.3665
  400SOL    HW1 2621   7.752   4.900   8.242 -1.9992  0.9083 -0.0299
  400SOL    HW2 2622   7.633   4.810   8.217 -0.3090 -1.2566 -0.5257
  401SOL     OW 2623   8.367   6.103   9.232 -0.0631  0.4444  0.2625
  401SOL    HW1 2624   8.430   6.033   9.214  0.2447  1.1011 -1.3326
  401SOL    HW2 2625   8.419   6.173   9.271 -0.5060 -0.4609  2.6469
  402SOL     OW 2626   9.196   2.464   0.281 -0.6525  0.1875 -1.0240
  402SOL    HW1 2627   9.144   2.525   0.229 -1.0444  0.0042 -0.8501
  402SOL    HW2 2628   9.132   2.411   0.328 -0.3566  1.3930  0.8979
  403SOL     OW 2629   4.445   0.362   5.401 -0.4687 -0.0252  0.1057
  403SOL    HW1 2630   4.493   0.419   5.461 -2.0997  0.6473  0.8233
  403SOL    HW2 2631   4.440   0.278   5.448  1.6225 -0.7329 -0.8023
  404SOL     OW 2632   1.593   0.855   1.798  0.0536 -0.6179  0.0202
  404SOL    HW1 2633   1.654   0.835   1.870  1.8909 -0.6822 -1.4784
  404SOL    HW2 2634   1.621   0.798   1.727  0.3809  1.6985 -1.8069
  405SOL     OW 2635   5.158   8.375   2.776  0.1028  0.0015 -0.0220
  405SOL    HW1 2636   5.103   8.405   2.704  1.3103 -2.3894 -2.0987
  405SOL    HW2 2637   5.225   8.443   2.785  0.1366  0.1825 -1.4235
  406SOL     OW 2638   2.774   4.260   5.218  0.3913 -0.2441  0.3682
  406SOL    HW1 2639   2.727   4.202   5.158  1.5172 -0.4051 -0.3783
  406SOL    HW2 2640   2.765   4.347   5.180 -1.6316  0.1918  1.6928
  407SOL     OW 2641   4.882   9.106   0.840  0.3960  0.2219  0.1327
  407SOL    HW1 2642   4.932   9.164   0.782 -0.2278 -0.0247 -0.6776
  407SOL    HW2 2643   4.798   9.095   0.796  0.0961 -0.4056  0.8317
  408SOL     OW 2644   1.473   1.343   8.937  0.3664 -0.0659 -0.2721
  408SOL    HW1 2645   1.395   1.324   8.989  0.4983 -1.4945 -0.5576
  408SOL    HW2 2646   1.446   1.327   8.847 -0.0367  2.9683 -0.8104
  409SOL     OW 2647   7.300   8.729   1.726  0.5842  0.0293  0.4090
  409SOL    HW1 2648   7.239   8.696   1.792 -1.1315  1.6230 -0.2967
  409SOL    HW2 2649   7.325   8.652   1.676  0.9774 -1.0153  2.1354
  410SOL     OW 2650   7.365   8.227   0.410 -0.2652 -0.2015  0.0667
  410SOL    HW1 2651   7.353   8.318   0.435 -1.0087 -0.1743 -0.3386
  410SOL    HW2 2652   7.446   8.226   0.358 -0.2237  0.2145  0.1223
  411SOL     OW 2653   0.056   5.808   0.882 -0.4022  0.5410 -0.1478
  411SOL    HW1 2654   0.063   5.789   0.976  0.0450  2.7600  0.3342
  411SOL    HW2 2655   0.137   5.854   0.861 -1.6934  2.6100 -0.9126
  412SOL     OW 2656   7.846   7.886   1.532 -0.0395  0.9671 -0.0175
  412SOL    HW1 2657   7.777   7.936   1.488 -1.0084  1.3657  1.8659
  412SOL    HW2 2658   7.812   7.797   1.539  1.1287  0.2679 -2.1495
  413SOL     OW 2659   3.954   8.578   1.068  0.5581 -0.3954 -0.1950
  413SOL    HW1 2660   3.888   8.560   1.135  0.3811  0.2948 -0.1796
  413SOL    HW2 2661   3.965   8.494   1.023  1.1839 -1.0437  1.1231
  414SOL     OW 2662   5.431   7.572   3.690 -0.0632  0.1550  0.0415
  414SOL    HW1 2663   5.366   7.566   3.760 -0.8650 -1.2072 -0.7707
  414SOL    HW2 2664   5.399   7.640   3.632 -0.2660  0.1476  0.1453
  415SOL     OW 2665   5.261   9.102   3.113 -0.3874 -0.0088 -0.0027
  415SOL    HW1 2666   5.202   9.103   3.038 -0.9840  1.2026  0.4452
  415SOL    HW2 2667   5.308   9.019   3.107 -0.8324 -0.1747 -1.3869
  416SOL     OW 2668   7.670   4.965   2.290 -0.3242 -0.1608  0.0969
  416SOL    HW1 2669   7.592   4.940   2.241 -1.0245  2.4342 -0.2768
  416SOL    HW2 2670   7.741   4.963   2.226 -0.9584  1.7511 -0.7333
  417SOL     OW 2671   0.183   2.257   8.010  0.2391 -0.2591  0.4666
  417SOL    HW1 2672   0.145   2.201   7.943 -0.7015  1.0373 -0.1300
  417SOL    HW2 2673   0.235   2.198   8.064  1.4685 -1.3005 -1.6950
  418SOL     OW 2674   5.681   3.831   6.822  0.6056 -0.1857 -0.1641
  418SOL    HW1 2675   5.732   3.807   6.899  0.5800 -0.2777 -0.1764
  418SOL    HW2 2676   5.608   3.883   6.857 -0.7075 -2.1128  0.1319
  419SOL     OW 2677   6.781   0.891   7.707  0.1934 -0.9990  0.0897
  419SOL    HW1 2678   6.834   0.947   7.764  1.3942 -1.6282 -0.3796
  419SOL    HW2 2679   6.751   0.950   7.638  2.7863 -1.1487 -1.3162
  420SOL     OW 2680   3.152   1.738   8.303 -0.0468 -0.2379  0.1714
  420SOL    HW1 2681   3.223   1.683   8.335  1.0609  0.6118 -0.7054
  420SOL    HW2 2682   3.127   1.698   8.220 -1.9005 -1.5900  1.3067
  421SOL     OW 2683   0.305   4.096   5.414 -0.0240 -0.6199  0.3432
  421SOL    HW1 2684   0.379   4.057   5.461  1.1159 -0.9734 -1.6154
  421SOL    HW2 2685   0.336   4.104   5.324 -2.0950  0.0309 -0.3639
  422SOL     OW 2686   2.339   9.146   6.973  0.6257 -0.2774  0.6841
  422SOL    HW1 2687   2.416   9.170   7.024  1.5489 -2.6041  0.5133
  422SOL    HW2 2688   2.275   9.118   7.038 -0.1848  1.7027  0.8298
  423SOL     OW 2689   0.461   0.103   2.378  0.0242  0.1747  0.1385
  423SOL    HW1 2690   0.404   0.179   2.373  1.2762  1.1852  0.7506
  423SOL    HW2 2691   0.407   0.031   2.345 -1.0124  1.4034 -0.9869
  424SOL     OW 2692   0.049   3.594   3.945 -0.2913 -0.6331  0.0826
  424SOL    HW1 2693   0.075   3.670   3.997 -1.0844  0.4806 -1.1150
  424SOL    HW2 2694  -0.045   3.587   3.957 -0.0731 -2.2382  1.1986
  425SOL     OW 2695   4.402   4.573   0.333  0.8906  0.0471 -0.6595
  425SOL    HW1 2696   4.325   4.583   0.389  0.3501 -0.2316 -1.3433
  425SOL    HW2 2697   4.381   4.500   0.275  0.2208  2.1144 -3.1822
  426SOL     OW 2698   1.135   8.365   6.621 -0.7407 -0.6898 -0.3428
  426SOL    HW1 2699   1.174   8.342   6.536 -1.3807 -0.6577 -0.6534
  426SOL    HW2 2700   1.097   8.283   6.652 -1.3722 -0.4792 -0.5568
  427SOL     OW 2701   0.344   3.568   2.085 -0.8656  0.7510 -0.1590
  427SOL    HW1 2702   0.416   3.572   2.023 -1.6778  0.6478 -1.1362
  427SOL    HW2 2703   0.385   3.575   2.171  0.3113  0.5138 -0.6920
  428SOL     OW 2704   1.218   5.742   0.200  0.0088 -0.8191  0.0095
  428SOL    HW1 2705   1.286   5.787   0.250  0.2791 -0.6597 -0.4971
  428SOL    HW2 2706   1.200   5.799   0.126  0.2591 -1.4704 -0.5680
  429SOL     OW 2707   4.659   3.240   5.892  0.4017  0.7320  0.0043
  429SOL    HW1 2708   4.718   3.167   5.873 -0.5703  0.0485 -0.4834
  429SOL    HW2 2709   4.671   3.256   5.986 -1.8728 -2.4328  1.0344
  430SOL     OW 2710   6.244   5.277   3.040  0.1257  0.7467 -0.0176
  430SOL    HW1 2711   6.323   5.224   3.042  0.0441  0.4453 -2.1378
  430SOL    HW2 2712   6.270   5.358   2.998 -0.2263  1.5842  1.3145
  431SOL     OW 2713   0.472   8.865   7.548 -0.7678 -0.0165 -0.5013
  431SOL    HW1 2714   0.523   8.790   7.519 -0.4712  0.2268 -0.6236
  431SOL    HW2 2715   0.533   8.916   7.602 -1.5687 -0.9317  1.3481
  432SOL     OW 2716   2.415   0.530   1.401 -0.2875 -0.5596 -0.2804
  432SOL    HW1 2717   2.412   0.444   1.359 -0.0647  0.1010 -1.7078
  432SOL    HW2 2718   2.372   0.588   1.340  0.5158  0.5480  0.1683
  433SOL     OW 2719   6.259   3.384   4.477  0.1863 -0.0901  0.3397
  433SOL    HW1 2720   6.200   3.315   4.446  0.1748  0.1818 -0.2540
  433SOL    HW2 2721   6.334   3.337   4.513  0.8698 -0.4109 -1.4162
  434SOL     OW 2722   5.000   2.023   1.050 -0.5607 -0.1713 -0.1321
  434SOL    HW1 2723   5.047   1.947   1.084 -0.9357 -0.6293 -0.6246
  434SOL    HW2 2724   5.026   2.030   0.958 -0.8335  0.0508 -0.1981
  435SOL     OW 2725   1.728   2.841   1.272  0.1662  0.4502 -0.2459
  435SOL    HW1 2726   1.637   2.859   1.249  0.2967 -0.3172 -1.4047
  435SOL    HW2 2727   1.763   2.926   1.301 -0.9874  0.6822  0.5157
  436SOL     OW 2728   7.376   4.977   7.035 -0.4162  0.2491  0.6002
  436SOL    HW1 2729   7.327   4.932   7.103  1.4585 -2.5703  0.2996
  436SOL    HW2 2730   7.382   4.912   6.964 -2.9168  3.2515 -2.7299
  437SOL     OW 2731   2.162   2.923   2.093  0.0518 -0.4051  0.1895
  437SOL    HW1 2732   2.236   2.871   2.062  0.0675 -0.6612  0.6412
  437SOL    HW2 2733   2.155   2.901   2.186 -0.0803  0.2354  0.3357
  438SOL     OW 2734   0.272   0.321   7.482 -0.6034  0.6550  0.1708
  438SOL    HW1 2735   0.284   0.297   7.574 -1.5926  1.7599  0.6125
  438SOL    HW2 2736   0.177   0.321   7.470 -0.4914  0.7478 -0.7986
  439SOL     OW 2737   4.598   7.280   3.150  0.2606  0.7675 -0.0733
  439SOL    HW1 2738   4.637   7.255   3.233 -2.1586 -0.0498  0.8958
  439SOL    HW2 2739   4.667   7.266   3.085  1.3313 -1.2756  1.4269
  440SOL     OW 2740   3.924   3.240   2.191 -0.0444  0.0962 -0.1768
  440SOL    HW1 2741   3.979   3.230   2.269 -0.2130  1.1018  0.0852
  440SOL    HW2 2742   3.839   3.206   2.217 -0.3399  1.1869  0.3804
  441SOL     OW 2743   4.576   0.629   8.267  0.0017  0.2688  0.3239
  441SOL    HW1 2744   4.493   0.654   8.225 -1.2889  1.3215  3.2045
  441SOL    HW2 2745   4.635   0.701   8.247  0.0834 -0.2079 -1.2733
  442SOL     OW 2746   3.577   8.066   3.274  0.4647  0.0345  0.4309
  442SOL    HW1 2747   3.644   8.134   3.264  1.2066 -0.6057  0.8693
  442SOL    HW2 2748   3.508   8.091   3.213  1.2122  0.5781 -0.2136
  443SOL     OW 2749   9.057   1.330   8.816 -0.7508 -0.6327 -0.3942
  443SOL    HW1 2750   8.987   1.315   8.752 -0.2933  1.7378 -1.5654
  443SOL    HW2 2751   9.114   1.394   8.773  1.1755 -1.1877  1.2490
  444SOL     OW 2752   3.373   3.254   0.151 -0.0341  0.0095  0.0123
  444SOL    HW1 2753   3.355   3.189   0.083  2.3117  0.6867 -1.3718
  444SOL    HW2 2754   3.287   3.276   0.186 -1.2961 -0.7747 -2.3726
  445SOL     OW 2755   1.076   0.939   3.328  0.3556 -0.1625  0.4987
  445SOL    HW1 2756   1.040   0.919   3.242 -1.7709  1.2446  0.9866
  445SOL    HW2 2757   1.146   1.002   3.312 -1.0704  1.3232 -0.1454
  446SOL     OW 2758   4.974   3.159   6.355 -0.4035  0.1398  0.1422
  446SOL    HW1 2759   4.993   3.132   6.444  3.2002  0.9513 -0.2464
  446SOL    HW2 2760   5.008   3.088   6.300  1.1058  1.4245 -0.6478
  447SOL     OW 2761   6.486   0.579   7.239 -0.4697  0.4382 -0.2971
  447SOL    HW1 2762   6.527   0.569   7.325 -0.7860  2.7992  0.1921
  447SOL    HW2 2763   6.429   0.502   7.231  0.8081 -0.6909  0.8507
  448SOL     OW 2764   6.860   5.506   8.433  0.2773 -0.4397 -0.1536
  448SOL    HW1 2765   6.818   5.420   8.442  0.4818 -0.5629 -0.3653
  448SOL    HW2 2766   6.788   5.568   8.435  0.0270 -0.6863 -1.1357
  449SOL     OW 2767   0.678   4.396   9.208  0.8989  0.0377 -0.3173
  449SOL    HW1 2768   0.672   4.301   9.211 -1.0167  0.1475  1.4071
  449SOL    HW2 2769   0.770   4.415   9.226  1.4188 -1.4549 -1.2005
  450SOL     OW 2770   7.167   2.528   5.126  0.0198  0.4245 -0.1013
  450SOL    HW1 2771   7.113   2.600   5.093 -0.6770  0.5761  1.2771
  450SOL    HW2 2772   7.123   2.449   5.095  0.2105  0.5708 -0.7618
  451SOL     OW 2773   7.405   7.227   8.834 -0.1632 -0.5892 -0.6566
  451SOL    HW1 2774   7.416   7.258   8.744 -0.7230 -0.3865 -0.6613
  451SOL    HW2 2775   7.494   7.217   8.868  0.0470 -0.5201 -1.1817
  452SOL     OW 2776   0.746   1.513   3.787 -0.9056 -0.0387  0.1399
  452SOL    HW1 2777   0.711   1.559   3.710 -0.9455 -2.0937 -1.1387
  452SOL    HW2 2778   0.676   1.519   3.852 -1.6027  0.1995 -0.6121
  453SOL     OW 2779   7.421   5.667   3.420 -0.0101 -0.7604 -0.6218
  453SOL    HW1 2780   7.415   5.761   3.404 -1.7287 -0.9231 -1.1615
  453SOL    HW2 2781   7.489   5.658   3.487 -1.8948  1.1659  1.7442
  454SOL     OW 2782   8.748   0.122   8.368  0.0874  0.2593  0.1258
  454SOL    HW1 2783   8.763   0.063   8.295 -1.4699  0.4650 -0.4084
  454SOL    HW2 2784   8.808   0.093   8.436  2.0031  0.4287 -1.4030
  455SOL     OW 2785   9.141   6.878   7.653  0.0862  0.2854  0.8741
  455SOL    HW1 2786   9.197   6.834   7.717 -1.7992  0.3682  2.7355
  455SOL    HW2 2787   9.191   6.954   7.625  0.9955  0.2496  2.2938
  456SOL     OW 2788   9.062   9.188   5.740 -0.1373  0.2573 -0.0759
  456SOL    HW1 2789   8.991   9.190   5.676  0.8240 -0.3379 -1.2060
  456SOL    HW2 2790   9.115   9.266   5.719  0.1498  0.0925  0.0306
  457SOL     OW 2791   2.575   3.383   5.072 -0.2051 -0.2561  0.5067
  457SOL    HW1 2792   2.662   3.417   5.092 -0.2216  0.6380 -0.8232
  457SOL    HW2 2793   2.534   3.370   5.158  1.1570 -0.5210  1.1358
  458SOL     OW 2794   7.573   5.732   1.080 -0.2282  0.0550 -0.5297
  458SOL    HW1 2795   7.478   5.748   1.077 -0.1856  0.6718  0.6535
  458SOL    HW2 2796   7.588   5.698   1.168  0.5289 -0.9812 -1.0494
  459SOL     OW 2797   1.441   1.685   8.663 -0.2101 -0.5780 -0.1206
  459SOL    HW1 2798   1.517   1.644   8.706 -0.1136 -0.8088 -0.5008
  459SOL    HW2 2799   1.475   1.715   8.579 -0.5173 -0.5939 -0.2527
  460SOL     OW 2800   1.214   0.300   0.810  0.1881  0.5387  0.4159
  460SOL    HW1 2801   1.262   0.231   0.856  0.4970 -0.1504 -0.8729
  460SOL    HW2 2802   1.132   0.257   0.783  0.0783  0.8765  0.2077
  461SOL     OW 2803   4.771   4.182   4.109  0.5537 -0.3190 -0.8190
  461SOL    HW1 2804   4.840   4.122   4.079  0.8401 -0.5455  0.2524
  461SOL    HW2 2805   4.704   4.124   4.146  0.9337  0.0302  0.4305
  462SOL     OW 2806   5.924   0.249   3.219 -0.4127 -0.4889  0.2223
  462SOL    HW1 2807   5.972   0.202   3.151  0.8263 -0.7190  1.2182
  462SOL    HW2 2808   5.906   0.183   3.286  0.1268  0.1377  1.0058
  463SOL     OW 2809   6.469   6.593   9.049 -0.8105  0.0396 -0.3331
  463SOL    HW1 2810   6.504   6.560   8.967  0.9575 -3.0291  1.4796
  463SOL    HW2 2811   6.546   6.610   9.104 -1.9438  1.5303  0.9043
  464SOL     OW 2812   2.287   0.294   0.271  0.0170 -0.6256  0.0825
  464SOL    HW1 2813   2.282   0.319   0.179 -1.9609 -1.3745 -0.0860
  464SOL    HW2 2814   2.373   0.323   0.301 -0.0852  1.4555 -1.4515
  465SOL     OW 2815   9.113   3.656   7.697 -0.2311  0.3458  0.0092
  465SOL    HW1 2816   9.183   3.591   7.693  0.0354  0.6761 -1.4236
  465SOL    HW2 2817   9.037   3.611   7.659 -0.3246  0.5396 -0.0356
  466SOL     OW 2818   6.542   2.594   5.242 -0.5393 -0.3087  0.5008
  466SOL    HW1 2819   6.620   2.549   5.209 -1.3775 -0.4969 -1.3132
  466SOL    HW2 2820   6.545   2.681   5.203 -1.4704 -0.4726  0.0333
  467SOL     OW 2821   7.444   1.459   6.788 -0.0228  0.3739  0.4969
  467SOL    HW1 2822   7.456   1.451   6.694 -1.0427 -0.6976  0.4294
  467SOL    HW2 2823   7.518   1.413   6.827  0.8125  1.4766  0.2459
  468SOL     OW 2824   8.524   2.242   8.106  0.3662  0.2121 -0.2617
  468SOL    HW1 2825   8.562   2.238   8.194 -0.2988  1.0234  0.0730
  468SOL    HW2 2826   8.549   2.329   8.073 -1.0974  0.7244 -0.0679
  469SOL     OW 2827   1.942   2.821   7.258  1.1855  0.1157  0.3200
  469SOL    HW1 2828   1.896   2.839   7.340 -1.4601 -0.8619 -0.8382
  469SOL    HW2 2829   1.991   2.901   7.240 -1.7050  2.1333  0.6761
  470SOL     OW 2830   0.210   0.867   4.907  0.2235 -0.2113  0.3826
  470SOL    HW1 2831   0.160   0.864   4.825  1.8673  0.7316 -0.7188
  470SOL    HW2 2832   0.269   0.792   4.901  0.8366  0.2672  0.3608
  471SOL     OW 2833   1.803   3.572   6.218  0.6575  0.1606 -0.1156
  471SOL    HW1 2834   1.838   3.588   6.130  0.2519  0.2159 -0.2704
  471SOL    HW2 2835   1.726   3.630   6.224  0.9626  0.5080  0.4545
  472SOL     OW 2836   7.007   7.920   2.861 -0.4853  0.4471 -0.2872
  472SOL    HW1 2837   7.028   7.999   2.911  0.1804  0.3947 -0.4746
  472SOL    HW2 2838   6.912   7.925   2.846 -0.6075  0.7387  0.5031
  473SOL     OW 2839   4.093   5.504   0.530  0.3601  0.6691 -0.1816
  473SOL    HW1 2840   4.176   5.523   0.486 -0.5625  0.0709 -2.2666
  473SOL    HW2 2841   4.066   5.419   0.497 -0.8741  0.6324  0.8194
  474SOL     OW 2842   3.157   1.459   2.075 -0.3868  0.1913  0.0479
  474SOL    HW1 2843   3.223   1.517   2.037  0.3340 -0.6045  0.0560
  474SOL    HW2 2844   3.078   1.477   2.025 -0.2508  1.3816  0.2434
  475SOL     OW 2845   7.737   6.073   0.854 -0.0861  0.3556  0.0713
  475SOL    HW1 2846   7.673   6.081   0.783  0.2007  0.1664 -0.2116
  475SOL    HW2 2847   7.799   6.006   0.823 -1.8861 -2.4173  1.9342
  476SOL     OW 2848   9.220   1.653   9.206 -0.7476 -0.3315 -0.3127
  476SOL    HW1 2849   9.183   1.598   9.137 -0.7495 -0.6139 -0.0852
  476SOL    HW2 2850   9.150   1.661   9.271 -1.2292  1.0274 -0.9526
  477SOL     OW 2851   0.288   3.445   7.515  0.0594 -0.3664 -0.6959
  477SOL    HW1 2852   0.327   3.361   7.541 -0.4653 -0.7627 -1.1549
  477SOL    HW2 2853   0.355   3.487   7.462  0.9716  0.2596  0.9110
  478SOL     OW 2854   2.265   5.337   4.561  0.5986 -0.0424 -0.0119
  478SOL    HW1 2855   2.238   5.308   4.473  1.1776  2.0929 -0.9568
  478SOL    HW2 2856   2.218   5.419   4.574 -0.0945 -0.7126  2.0744
  479SOL     OW 2857   5.597   7.824   3.177  0.2029  0.0971  0.0315
  479SOL    HW1 2858   5.533   7.794   3.111 -1.3795  1.9010  0.6505
  479SOL    HW2 2859   5.672   7.854   3.126  0.5754 -1.9278 -0.7252
  480SOL     OW 2860   0.030   1.927   3.099 -0.4262  0.7103  0.6481
  480SOL    HW1 2861   0.058   1.862   3.035 -0.6817  1.5326 -0.3226
  480SOL    HW2 2862   0.105   1.934   3.159 -0.1920 -0.0872  0.4598
  481SOL     OW 2863   6.252   7.753   2.046  0.1554  0.0820 -0.7245
  481SOL    HW1 2864   6.343   7.776   2.067 -0.1909  1.4069 -0.6114
  481SOL    HW2 2865   6.260   7.683   1.982  1.2479 -0.5395  0.0462
  482SOL     OW 2866   0.725   6.461   3.874 -0.5124 -0.1801 -0.7684
  482SOL    HW1 2867   0.671   6.447   3.796 -0.3088  2.0653 -1.3770
  482SOL    HW2 2868   0.670   6.434   3.947 -1.6243 -0.0040 -1.5203
  483SOL     OW 2869   6.951   6.440   9.098  0.3411  0.1018 -0.0013
  483SOL    HW1 2870   6.871   6.485   9.125  0.6975 -0.5517  2.3688
  483SOL    HW2 2871   6.997   6.503   9.043 -2.0655  0.2636 -1.9812
  484SOL     OW 2872   3.997   7.281   0.461  0.5592  0.1470  0.3207
  484SOL    HW1 2873   4.001   7.269   0.556  2.0956 -1.6357  0.0770
  484SOL    HW2 2874   3.916   7.238   0.435  1.1312 -1.1655  0.6238
  485SOL     OW 2875   5.808   4.142   5.786 -0.0789  0.2608  0.2320
  485SOL    HW1 2876   5.838   4.166   5.698 -0.1356  1.1620  0.4438
  485SOL    HW2 2877   5.739   4.078   5.772 -0.4524  0.7863 -0.4137
  486SOL     OW 2878   6.790   2.323   2.523 -0.0257  0.0320  0.7738
  486SOL    HW1 2879   6.719   2.332   2.460 -0.2355  0.9314  1.1200
  486SOL    HW2 2880   6.781   2.234   2.557 -0.2343 -0.2781 -0.0627
  487SOL     OW 2881   1.690   7.366   1.174  0.0592 -0.7960 -0.0168
  487SOL    HW1 2882   1.627   7.390   1.106  0.6560 -1.9367 -1.0106
  487SOL    HW2 2883   1.687   7.270   1.177  1.5392 -0.8652  0.1024
  488SOL     OW 2884   3.790   2.592   7.351 -0.0975  0.6775 -0.1882
  488SOL    HW1 2885   3.852   2.599   7.423 -0.8377  1.1970  0.4129
  488SOL    HW2 2886   3.706   2.618   7.389 -0.2404  2.4089 -1.6013
  489SOL     OW 2887   5.960   1.395   1.234 -0.4827 -0.1296 -0.7745
  489SOL    HW1 2888   5.878   1.376   1.189 -0.8950 -2.5452  0.8171
  489SOL    HW2 2889   5.952   1.487   1.261 -1.6384  0.3517 -2.6143
  490SOL     OW 2890   7.859   4.738   2.552 -0.0548 -0.2042 -0.1991
  490SOL    HW1 2891   7.829   4.758   2.641  2.3946 -1.3648  0.9717
  490SOL    HW2 2892   7.851   4.643   2.544 -0.8511 -0.0561 -1.5035
  491SOL     OW 2893   1.527   5.620   3.837  0.0593 -0.3383 -0.1824
  491SOL    HW1 2894   1.492   5.535   3.809  0.6559 -0.1292 -1.6556
  491SOL    HW2 2895   1.453   5.680   3.830 -0.4105 -0.7519  1.0313
  492SOL     OW 2896   7.017   8.799   2.415  0.0195  0.2960 -0.0573
  492SOL    HW1 2897   7.018   8.892   2.438  0.5108  0.4232 -0.5683
  492SOL    HW2 2898   7.100   8.785   2.370  0.0695 -0.4545  0.2556
  493SOL     OW 2899   8.358   0.163   0.060  0.6699  0.3011 -0.0606
  493SOL    HW1 2900   8.295   0.232   0.077 -0.9347 -1.2342  0.5069
  493SOL    HW2 2901   8.411   0.158   0.140 -0.8238 -0.7126  0.9220
  494SOL     OW 2902   0.013   1.267   6.740 -0.6516  0.2554  0.2738
  494SOL    HW1 2903   0.027   1.353   6.700 -0.8832 -0.1845 -0.7731
  494SOL    HW2 2904  -0.018   1.212   6.669  0.1166 -0.8821  0.7956
  495SOL     OW 2905   6.568   6.984   5.254 -0.1128  0.0637  0.2989
  495SOL    HW1 2906   6.569   6.947   5.166 -2.6812  0.1034  0.1833
  495SOL    HW2 2907   6.647   6.948   5.296  1.2201  0.1121 -1.9828
  496SOL     OW 2908   5.183   7.796   4.171 -0.1363  0.0253 -0.1138
  496SOL    HW1 2909   5.266   7.768   4.209  0.4621 -1.1315 -2.1494
  496SOL    HW2 2910   5.206   7.873   4.119 -0.2114 -0.5906 -1.0813
  497SOL     OW 2911   4.896   2.328   4.875 -0.1193  0.0298  0.0075
  497SOL    HW1 2912   4.917   2.417   4.845  1.0178 -0.9447 -2.4234
  497SOL    HW2 2913   4.967   2.306   4.935  1.6950 -0.4429 -2.1760
  498SOL     OW 2914   4.255   4.420   8.901 -0.3174  0.0568 -0.1738
  498SOL    HW1 2915   4.274   4.473   8.824 -0.4838  0.5199  0.1064
  498SOL    HW2 2916   4.159   4.410   8.901 -0.2497 -0.6977 -0.5266
  499SOL     OW 2917   7.538   6.706   2.687 -0.0308  0.6260  0.6250
  499SOL    HW1 2918   7.504   6.630   2.734  1.0345  0.0806  0.5547
  499SOL    HW2 2919   7.626   6.718   2.724  0.5725  0.5903 -0.7565
  500SOL     OW 2920   2.917   4.385   4.652 -0.5739  0.0138  0.4150
  500SOL    HW1 2921   2.943   4.371   4.560  0.9138 -0.1764  0.8254
  500SOL    HW2 2922   2.935   4.301   4.694  1.7586  0.9572  1.4898
  501SOL     OW 2923   7.269   7.860   1.626 -0.0831 -0.5115 -0.2929
  501SOL    HW1 2924   7.235   7.913   1.699  0.1909 -1.5106  0.5918
  501SOL    HW2 2925   7.360   7.844   1.649  0.4648  0.4593 -1.6531
  502SOL     OW 2926   2.019   7.147   8.909 -0.2440  0.3972 -0.9887
  502SOL    HW1 2927   2.036   7.088   8.983 -1.4253  0.8854 -0.3065
  502SOL    HW2 2928   2.085   7.215   8.918  1.1793 -0.8029 -1.8189
  503SOL     OW 2929   6.516   5.700   5.860  0.5128 -0.0211 -0.1499
  503SOL    HW1 2930   6.502   5.683   5.953  0.5264 -0.1966 -0.1793
  503SOL    HW2 2931   6.599   5.656   5.839 -0.3023 -1.3974 -0.6159
  504SOL     OW 2932   1.842   2.198   0.943 -0.0713 -0.1132 -0.3400
  504SOL    HW1 2933   1.877   2.143   1.013  1.3134  1.2362  0.0897
  504SOL    HW2 2934   1.909   2.195   0.875 -0.8919 -0.5237 -1.1382
  505SOL     OW 2935   1.117   0.986   3.876 -0.0813 -0.0737 -0.0103
  505SOL    HW1 2936   1.165   1.061   3.912  0.3340 -0.5581  0.4654
  505SOL    HW2 2937   1.034   0.986   3.924 -1.0178  1.3553 -1.5259
  506SOL     OW 2938   1.516   9.034   1.395 -0.2372 -0.0763  0.4077
  506SOL    HW1 2939   1.483   8.947   1.419  0.8696  0.0599  2.6878
  506SOL    HW2 2940   1.453   9.066   1.330  0.3909 -3.3470 -2.0744
  507SOL     OW 2941   2.678   8.417   7.226  0.3600 -0.4898  0.2244
  507SOL    HW1 2942   2.710   8.457   7.146 -0.7948 -1.0459 -0.5556
  507SOL    HW2 2943   2.591   8.384   7.203 -0.0379 -0.5889  1.7339
  508SOL     OW 2944   0.746   0.313   2.196 -0.3371 -0.4074  0.0210
  508SOL    HW1 2945   0.704   0.289   2.113 -0.9021 -0.4733  0.3182
  508SOL    HW2 2946   0.724   0.405   2.208  2.0675  0.4095 -1.2597
  509SOL     OW 2947   1.337   1.755   3.396 -0.1460  0.0556 -0.4110
  509SOL    HW1 2948   1.374   1.817   3.460 -1.9504  0.7215  0.0320
  509SOL    HW2 2949   1.338   1.671   3.441 -1.5169  0.5412  0.5968
  510SOL     OW 2950   1.820   6.812   2.642  0.3979 -0.1543  0.6487
  510SOL    HW1 2951   1.850   6.883   2.585 -1.4131  1.4231  1.5152
  510SOL    HW2 2952   1.776   6.751   2.583  0.7678  0.1459  0.0451
  511SOL     OW 2953   8.738   8.182   5.023  0.4772 -0.1036  0.1336
  511SOL    HW1 2954   8.766   8.145   4.939  0.0961 -0.2806  0.0846
  511SOL    HW2 2955   8.747   8.111   5.086 -3.7026 -1.5444 -0.5788
  512SOL     OW 2956   2.075   7.869   3.227 -0.2413 -0.1397 -0.3926
  512SOL    HW1 2957   2.009   7.859   3.295  0.9630 -0.6173  0.7497
  512SOL    HW2 2958   2.123   7.786   3.227  0.6822  0.3741 -0.8287
  513SOL     OW 2959   7.975   7.356   8.726  0.2993  0.1675 -0.8691
  513SOL    HW1 2960   8.045   7.294   8.749 -1.2282 -1.2404  0.1808
  513SOL    HW2 2961   7.914   7.305   8.674 -1.7417  0.3019  1.2434
  514SOL     OW 2962   8.027   5.335   7.232  0.2398  0.7992 -0.2796
  514SOL    HW1 2963   8.070   5.256   7.265 -0.9671  0.4540  0.5461
  514SOL    HW2 2964   8.027   5.325   7.137  2.1196  0.9165 -0.3383
  515SOL     OW 2965   0.842   7.251   1.498  0.2225  0.2525 -0.3982
  515SOL    HW1 2966   0.930   7.285   1.514  1.1395 -1.6034 -1.1393
  515SOL    HW2 2967   0.793   7.325   1.463  0.5276  2.1857  2.8703
  516SOL     OW 2968   0.363   8.296   4.965 -0.2096  0.0186  0.3438
  516SOL    HW1 2969   0.276   8.311   4.927  0.3123  0.5088 -0.7108
  516SOL    HW2 2970   0.384   8.205   4.941 -1.3774 -0.9120  2.6161
  517SOL     OW 2971   8.867   7.891   5.985 -0.0287 -0.3212  0.3200
  517SOL    HW1 2972   8.821   7.844   5.915 -1.7356  0.5430  0.8222
  517SOL    HW2 2973   8.869   7.982   5.955  0.3473 -0.1528  0.8470
  518SOL     OW 2974   3.609   1.907   8.418  0.8459  0.2550  0.2268
  518SOL    HW1 2975   3.556   1.933   8.494 -0.1933  1.6421 -0.9122
  518SOL    HW2 2976   3.693   1.950   8.432  0.6066  0.6383  0.5156
  519SOL     OW 2977   1.719   3.695   1.371  0.6223  0.0039 -0.7875
  519SOL    HW1 2978   1.702   3.738   1.287 -1.0999  0.5704 -0.1939
  519SOL    HW2 2979   1.789   3.746   1.411 -0.9276  1.9429 -0.3933
  520SOL     OW 2980   2.393   0.369   0.999  0.2853 -0.1423 -0.6864
  520SOL    HW1 2981   2.461   0.336   0.941  0.4733 -0.3888 -0.3315
  520SOL    HW2 2982   2.322   0.305   0.992  0.5837 -0.5392 -0.1242
  521SOL     OW 2983   8.348   3.788   7.626  0.0851  0.1329  0.1730
  521SOL    HW1 2984   8.374   3.780   7.717  1.4757 -1.0298 -0.2868
  521SOL    HW2 2985   8.269   3.735   7.618  0.5485 -0.6042  0.4779
  522SOL     OW 2986   5.566   5.839   5.665 -0.4853 -0.2405  0.2877
  522SOL    HW1 2987   5.547   5.770   5.601 -1.2223 -1.2636  1.5627
  522SOL    HW2 2988   5.660   5.829   5.684 -0.3261 -0.1063 -0.4201
  523SOL     OW 2989   8.233   0.082   0.467 -0.2934  0.1958  0.0641
  523SOL    HW1 2990   8.161   0.106   0.409 -0.7982 -0.2085  0.5205
  523SOL    HW2 2991   8.292   0.158   0.465 -0.6311  0.4464 -0.4615
  524SOL     OW 2992   0.724   6.739   5.585  0.0953 -0.2162 -0.1220
  524SOL    HW1 2993   0.783   6.705   5.518 -0.6620  1.0701 -1.5251
  524SOL    HW2 2994   0.702   6.664   5.640 -0.4261 -1.6881 -2.2198
  525SOL     OW 2995   0.415   7.298   2.820 -0.8030  0.3392  0.2495
  525SOL    HW1 2996   0.455   7.360   2.759 -0.2605  0.0021  0.2566
  525SOL    HW2 2997   0.426   7.338   2.906  1.3739 -0.6644  0.4980
  526SOL     OW 2998   6.516   4.698   8.271 -0.2219 -0.5028  0.7939
  526SOL    HW1 2999   6.452   4.696   8.342  1.6736 -0.1083  2.5948
  526SOL    HW2 3000   6.555   4.785   8.277 -0.5137 -0.1858 -1.2412
  527SOL     OW 3001   4.740   0.171   5.607  0.0636  0.3385  0.3890
  527SOL    HW1 3002   4.718   0.162   5.514 -0.0141  0.3458  0.4065
  527SOL    HW2 3003   4.781   0.257   5.614 -1.5564  1.1188  0.6690
  528SOL     OW 3004   3.011   4.409   8.892 -0.1337 -0.0902  0.1153
  528SOL    HW1 3005   3.010   4.495   8.849 -1.3655 -0.5413 -0.8422
  528SOL    HW2 3006   3.051   4.351   8.827 -1.5155 -0.6792 -0.2462
  529SOL     OW 3007   4.268   0.706   3.754  0.0142  0.4793  0.1545
  529SOL    HW1 3008   4.233   0.621   3.782  1.0368  0.5461  1.7625
  529SOL    HW2 3009   4.195   0.767   3.768 -0.0521  0.2058  1.0759
  530SOL     OW 3010   8.725   7.825   1.781  0.1734  0.0942 -0.1973
  530SOL    HW1 3011   8.801   7.809   1.726 -0.1534 -5.1536  0.3446
  530SOL    HW2 3012   8.650   7.820   1.721  0.0671  0.2508 -0.0782
  531SOL     OW 3013   1.870   5.463   4.731  0.3482  0.5836  0.3936
  531SOL    HW1 3014   1.944   5.518   4.706 -1.0679  2.2959 -0.2252
  531SOL    HW2 3015   1.899   5.419   4.811  3.1679 -1.2496 -1.4488
  532SOL     OW 3016   1.898   6.320   8.199  0.3614 -0.8710  0.6129
  532SOL    HW1 3017   1.945   6.290   8.122 -0.4733  0.4056 -0.4486
  532SOL    HW2 3018   1.890   6.415   8.186 -0.2388 -0.7065  2.0220
  533SOL     OW 3019   8.231   1.588   0.146  0.5719  0.0828  0.7818
  533SOL    HW1 3020   8.260   1.497   0.136 -0.1961 -0.1504  0.6562
  533SOL    HW2 3021   8.164   1.585   0.215 -1.3447  0.1268 -0.9905
  534SOL     OW 3022   7.912   5.850   0.809 -0.1530 -0.5237  0.3105
  534SOL    HW1 3023   7.985   5.912   0.805 -2.3018  2.2584  0.6589
  534SOL    HW2 3024   7.928   5.789   0.737  1.9930  0.5683 -0.2307
  535SOL     OW 3025   4.973   5.711   5.898 -0.1721 -0.6460 -0.8170
  535SOL    HW1 3026   5.002   5.767   5.970  0.3062 -0.8683 -0.8323
  535SOL    HW2 3027   4.923   5.641   5.940 -0.6797 -0.2692 -0.7883
  536SOL     OW 3028   0.979   3.559   9.152  0.1854 -0.3528  0.1605
  536SOL    HW1 3029   0.951   3.638   9.105  0.7530 -0.2270  0.0294
  536SOL    HW2 3030   1.071   3.575   9.173  0.5598 -1.3495 -0.6471
  537SOL     OW 3031   8.175   4.378   6.287 -0.2816 -0.2177 -0.4243
  537SOL    HW1 3032   8.164   4.295   6.241 -2.7399 -1.3669  1.9769
  537SOL    HW2 3033   8.206   4.352   6.375 -1.3049  1.3641  0.4325
  538SOL     OW 3034   5.262   1.640   2.688 -0.1173  0.0986 -0.0908
  538SOL    HW1 3035   5.266   1.683   2.774 -1.4654 -0.2641  0.1728
  538SOL    HW2 3036   5.248   1.712   2.626 -1.8733  0.1342  0.2998
  539SOL     OW 3037   5.866   1.725   5.057 -0.5497 -0.2472  0.4222
  539SOL    HW1 3038   5.914   1.749   5.136 -0.3879  0.3560  0.1431
  539SOL    HW2 3039   5.884   1.795   4.995 -0.4354 -0.8672 -0.2588
  540SOL     OW 3040   7.037   1.032   2.901 -0.4426 -0.9619 -0.0097
  540SOL    HW1 3041   7.005   0.969   2.966  0.4915 -0.6895  0.7467
  540SOL    HW2 3042   7.130   1.041   2.921 -0.5918  0.7974  0.0289
  541SOL     OW 3043   5.577   5.927   2.240  0.4875 -0.1926  0.6236
  541SOL    HW1 3044   5.589   5.992   2.309  1.2593  1.0046 -0.5833
  541SOL    HW2 3045   5.666   5.912   2.206 -0.1066  0.9969 -1.6131
  542SOL     OW 3046   1.128   1.102   1.600 -0.0134  0.5211  0.1668
  542SOL    HW1 3047   1.213   1.065   1.576  0.4590  1.0000  1.0316
  542SOL    HW2 3048   1.114   1.174   1.538 -0.0893  0.0429 -0.3747
  543SOL     OW 3049   7.561   3.504   6.234 -0.0003  1.1512  0.2916
  543SOL    HW1 3050   7.513   3.517   6.316 -0.5790 -0.5355  0.2548
  543SOL    HW2 3051   7.541   3.582   6.182 -2.6733  0.5690  0.3171
  544SOL     OW 3052   2.190   0.125   0.709 -0.3233 -0.4038 -0.1038
  544SOL    HW1 3053   2.203   0.030   0.705  2.3821 -0.1365  0.3889
  544SOL    HW2 3054   2.256   0.161   0.650 -0.6796  1.2062  0.4226
  545SOL     OW 3055   4.343   3.004   3.332 -0.0311 -0.4753  0.3096
  545SOL    HW1 3056   4.374   3.066   3.266  1.3332 -0.1842  1.1729
  545SOL    HW2 3057   4.278   3.053   3.383  0.0887 -0.1720  0.1759
  546SOL     OW 3058   6.881   1.911   2.406 -0.9329  0.0413 -0.2395
  546SOL    HW1 3059   6.858   1.849   2.337  0.5002 -0.7472 -0.0353
  546SOL    HW2 3060   6.895   1.857   2.484  1.0031  0.5179 -0.2174
  547SOL     OW 3061   8.139   0.781   5.454 -0.3699 -0.1258  0.3471
  547SOL    HW1 3062   8.163   0.741   5.370  1.6460  1.6963 -0.0454
  547SOL    HW2 3063   8.063   0.836   5.433  0.1496  0.3568 -0.3220
  548SOL     OW 3064   7.375   3.778   8.325  0.3714  0.0646 -0.0711
  548SOL    HW1 3065   7.446   3.816   8.273  0.7382  0.0580  0.4241
  548SOL    HW2 3066   7.299   3.781   8.267  0.5045  1.1280 -0.1951
  549SOL     OW 3067   8.836   2.807   4.430  0.1635  0.0696  0.0487
  549SOL    HW1 3068   8.834   2.902   4.433  1.8238  0.1483 -0.4823
  549SOL    HW2 3069   8.876   2.786   4.346  0.7132 -1.0785  0.5694
  550SOL     OW 3070   6.546   1.023   2.087  0.2357 -0.1855 -0.6377
  550SOL    HW1 3071   6.579   1.112   2.104 -0.2434 -0.3050  1.0920
  550SOL    HW2 3072   6.463   1.037   2.042 -1.1808  0.3724  2.0113
  551SOL     OW 3073   5.132   2.901   6.230  0.2205 -0.5146  0.4878
  551SOL    HW1 3074   5.225   2.894   6.209  0.0017  1.4265 -1.4612
  551SOL    HW2 3075   5.090   2.831   6.181  0.4352 -0.1047 -0.2851
  552SOL     OW 3076   6.992   2.734   1.225  0.2931  0.1204 -0.9527
  552SOL    HW1 3077   6.936   2.730   1.302  0.9584 -1.8614 -0.5346
  552SOL    HW2 3078   6.946   2.683   1.158  0.8496 -0.2169 -1.0906
  553SOL     OW 3079   4.595   3.101   5.539  0.1510  0.6341  0.9271
  553SOL    HW1 3080   4.630   3.024   5.584  1.9844  1.9293  1.8842
  553SOL    HW2 3081   4.657   3.117   5.468 -1.2225  0.2027 -0.4006
  554SOL     OW 3082   1.569   8.538   3.889  0.2027 -0.0439 -0.1653
  554SOL    HW1 3083   1.549   8.544   3.796 -1.8182 -0.4258  0.2035
  554SOL    HW2 3084   1.584   8.445   3.904  0.5421  0.0196 -0.1088
  555SOL     OW 3085   0.561   6.514   7.944  0.1250  0.5486 -0.8508
  555SOL    HW1 3086   0.528   6.465   8.019  1.1173  1.8193  0.4778
  555SOL    HW2 3087   0.601   6.592   7.982  0.0884  1.5633 -2.7656
  556SOL     OW 3088   5.838   5.890   5.097 -0.2448  0.0917  0.1094
  556SOL    HW1 3089   5.758   5.838   5.103 -0.8653  1.1883  2.2029
  556SOL    HW2 3090   5.811   5.978   5.124  1.9446  0.1438  2.4409
  557SOL     OW 3091   2.920   4.068   2.019  0.2479  0.5537 -0.3069
  557SOL    HW1 3092   2.950   4.010   1.949 -0.0300  1.3324 -1.0787
  557SOL    HW2 3093   2.829   4.089   1.995 -0.3207 -0.2565  1.0036
  558SOL     OW 3094   0.066   3.169   3.700  0.3689 -0.3879  0.1477
  558SOL    HW1 3095   0.051   3.173   3.794 -0.5937 -1.7084  0.0633
  558SOL    HW2 3096   0.161   3.180   3.690  0.3100  1.4731  1.1223
  559SOL     OW 3097   5.445   0.619   8.233  0.5478 -0.2189 -0.1591
  559SOL    HW1 3098   5.443   0.690   8.297  0.2196 -2.7707  2.9391
  559SOL    HW2 3099   5.362   0.626   8.186  0.4453  1.2857  0.1948
  560SOL     OW 3100   3.494   2.364   8.638 -0.2805 -0.5164 -0.2509
  560SOL    HW1 3101   3.557   2.357   8.566  1.3407 -1.0822  1.1481
  560SOL    HW2 3102   3.439   2.438   8.615  0.7190 -0.1708 -1.6718
  561SOL     OW 3103   2.693   6.864   7.720 -0.3583 -0.3238  0.2554
  561SOL    HW1 3104   2.754   6.797   7.689  0.1520 -0.8914  2.3106
  561SOL    HW2 3105   2.612   6.846   7.673  0.3074 -1.2502 -0.5699
  562SOL     OW 3106   4.351   7.438   5.343  0.6058  0.2323  0.0928
  562SOL    HW1 3107   4.435   7.401   5.371  0.2299  0.6629  1.9392
  562SOL    HW2 3108   4.355   7.529   5.370 -0.8621 -0.0039  1.2206
  563SOL     OW 3109   9.033   8.324   9.098 -0.3161  0.1992 -0.0386
  563SOL    HW1 3110   9.120   8.305   9.065  0.8847  2.3722  1.5960
  563SOL    HW2 3111   8.990   8.371   9.027  0.0095 -0.4146 -0.6594
  564SOL     OW 3112   2.689   1.918   7.210  0.5414  0.1130  0.4420
  564SOL    HW1 3113   2.767   1.939   7.158 -0.3746  0.5836 -0.7853
  564SOL    HW2 3114   2.616   1.945   7.156 -0.4685  0.9400  2.1215
  565SOL     OW 3115   6.505   6.275   0.890 -0.1319  0.0294 -0.7198
  565SOL    HW1 3116   6.457   6.277   0.972  0.9540 -0.5086 -0.0351
  565SOL    HW2 3117   6.471   6.348   0.839  0.7647  1.8370  1.1378
  566SOL     OW 3118   3.387   6.723   1.471 -0.3215  0.3885  0.0167
  566SOL    HW1 3119   3.399   6.677   1.388  2.8319  1.1028 -0.0262
  566SOL    HW2 3120   3.444   6.678   1.533 -1.1497  1.0679  1.3403
  567SOL     OW 3121   4.001   0.432   1.780 -0.1747  0.4250  0.4693
  567SOL    HW1 3122   3.934   0.387   1.831 -1.6520  0.4648 -1.3452
  567SOL    HW2 3123   4.061   0.363   1.753 -0.9244 -0.0483 -0.0260
  568SOL     OW 3124   1.009   0.772   6.192  0.0360  0.0093 -0.6677
  568SOL    HW1 3125   0.915   0.772   6.172 -0.3794 -0.7672  1.0879
  568SOL    HW2 3126   1.016   0.822   6.273  0.6748 -2.4210  0.8863
  569SOL     OW 3127   7.811   7.019   0.058  0.0184 -0.2888 -0.8213
  569SOL    HW1 3128   7.780   6.945   0.111  1.1490  0.0623  0.3903
  569SOL    HW2 3129   7.833   7.087   0.122  1.1833  0.2529 -1.7567
  570SOL     OW 3130   8.460   2.349   1.387  0.5959 -0.1134 -0.0128
  570SOL    HW1 3131   8.455   2.259   1.353 -0.2554 -0.2757  0.5062
  570SOL    HW2 3132   8.491   2.339   1.477 -2.2245 -0.1908  1.0596
  571SOL     OW 3133   2.453   8.114   4.817  0.1711  0.0634 -0.3901
  571SOL    HW1 3134   2.387   8.046   4.801  0.5624 -0.1870 -0.9621
  571SOL    HW2 3135   2.405   8.196   4.808 -0.4622 -0.1241  0.9867
  572SOL     OW 3136   4.717   4.901   3.797 -0.9027  0.1637 -0.0467
  572SOL    HW1 3137   4.651   4.849   3.843 -1.5931 -0.9304 -2.1707
  572SOL    HW2 3138   4.711   4.873   3.706  1.2800  1.3385 -0.6200
  573SOL     OW 3139   4.727   4.942   8.044 -0.4521  0.0456 -0.3715
  573SOL    HW1 3140   4.682   4.983   7.969  1.0675  1.4106 -0.5978
  573SOL    HW2 3141   4.750   5.016   8.101 -0.3769 -0.8466  0.7835
  574SOL     OW 3142   9.123   0.932   0.554  0.5634 -0.5877  0.6238
  574SOL    HW1 3143   9.030   0.917   0.573  0.0862 -0.4489 -1.3192
  574SOL    HW2 3144   9.163   0.846   0.561 -0.0159 -0.9123  0.1203
  575SOL     OW 3145   5.898   7.406   1.672 -0.0615 -0.4334  0.3225
  575SOL    HW1 3146   5.928   7.407   1.582 -1.8246  0.2295 -0.3033
  575SOL    HW2 3147   5.933   7.324   1.708  0.0484 -1.0852 -1.1846
  576SOL     OW 3148   4.983   8.752   5.895 -1.1494 -0.0545  0.4022
  576SOL    HW1 3149   4.947   8.699   5.965 -0.3513 -1.0206  0.1019
  576SOL    HW2 3150   4.911   8.762   5.833 -1.3378 -0.7001  0.5139
  577SOL     OW 3151   2.380   2.829   0.164  0.0655  0.0375 -0.4576
  577SOL    HW1 3152   2.349   2.739   0.173  0.3359 -0.0331 -0.2071
  577SOL    HW2 3153   2.311   2.882   0.203 -0.2792 -0.0325 -0.9739
  578SOL     OW 3154   0.741   6.088   7.814 -0.2064  0.3511 -0.1486
  578SOL    HW1 3155   0.776   6.027   7.750  0.2687  0.0799  0.3601
  578SOL    HW2 3156   0.816   6.110   7.870 -0.6854  0.3260  0.5133
  579SOL     OW 3157   1.295   2.538   4.575 -0.0877  0.2691 -0.3229
  579SOL    HW1 3158   1.215   2.556   4.526 -0.8099 -3.0232 -0.5481
  579SOL    HW2 3159   1.363   2.534   4.508 -0.2933  0.0251 -0.5203
  580SOL     OW 3160   0.441   4.574   3.046 -0.0699 -0.3193 -0.1902
  580SOL    HW1 3161   0.406   4.657   3.013 -0.0902 -0.6266 -0.9537
  580SOL    HW2 3162   0.535   4.588   3.051 -0.0646 -0.2847 -0.3988
  581SOL     OW 3163   0.771   6.414   6.225  0.4260  0.5288 -0.1563
  581SOL    HW1 3164   0.737   6.413   6.136 -1.1315 -2.5215  0.3463
  581SOL    HW2 3165   0.701   6.377   6.278  2.7766 -1.7037  1.6730
  582SOL     OW 3166   0.275   8.518   0.455  0.9557  0.7330 -0.4817
  582SOL    HW1 3167   0.345   8.580   0.434  2.2911  0.1713  1.9371
  582SOL    HW2 3168   0.199   8.573   0.474  1.1655  1.4362 -1.6097
  583SOL     OW 3169   8.946   3.110   8.014 -0.5090 -0.4870  0.4001
  583SOL    HW1 3170   8.873   3.132   8.073 -0.2860 -0.3601  0.6296
  583SOL    HW2 3171   8.904   3.068   7.939 -1.0360  1.3298 -0.3766
  584SOL     OW 3172   4.887   6.889   5.061 -0.0234 -0.5148 -0.8298
  584SOL    HW1 3173   4.802   6.860   5.092  0.3444 -0.2836  0.4262
  584SOL    HW2 3174   4.938   6.809   5.048 -0.1918 -0.6116 -0.8901
  585SOL     OW 3175   0.718   7.925   0.228  0.3294 -0.3449  0.0116
  585SOL    HW1 3176   0.735   7.895   0.318 -0.5387  2.9950  1.4703
  585SOL    HW2 3177   0.685   7.848   0.182  0.0505 -2.0111  2.7793
  586SOL     OW 3178   8.626   8.537   0.246 -0.1473 -0.4977  0.0422
  586SOL    HW1 3179   8.554   8.584   0.205  0.3931 -0.5374 -0.9771
  586SOL    HW2 3180   8.701   8.595   0.238 -0.0556 -0.4481  1.1146
  587SOL     OW 3181   1.845   3.306   0.040 -0.1046  0.3942 -0.0994
  587SOL    HW1 3182   1.815   3.367  -0.028 -0.2072 -0.6996 -1.0798
  587SOL    HW2 3183   1.822   3.348   0.122  1.6543  2.6422 -0.6474
  588SOL     OW 3184   2.153   4.984   6.351  0.0031 -0.5292  0.0121
  588SOL    HW1 3185   2.231   4.985   6.294 -1.7172 -1.8778 -2.5948
  588SOL    HW2 3186   2.092   4.925   6.306 -2.4116  0.2013  2.1146
  589SOL     OW 3187   3.362   1.971   5.984 -0.0633 -0.0250  0.6368
  589SOL    HW1 3188   3.452   1.977   6.015 -0.8460  1.8340  2.9106
  589SOL    HW2 3189   3.363   2.010   5.897  1.3617 -0.3355  0.4942
  590SOL     OW 3190   3.219   8.108   0.364 -0.3771  0.0768  0.5191
  590SOL    HW1 3191   3.162   8.066   0.300 -1.1990  2.5880 -0.5126
  590SOL    HW2 3192   3.306   8.106   0.323 -0.8311  1.3263 -0.5892
  591SOL     OW 3193   8.611   1.713   1.830 -0.0261  0.2229 -0.0044
  591SOL    HW1 3194   8.585   1.796   1.869 -0.4813 -0.5074  1.3308
  591SOL    HW2 3195   8.695   1.693   1.870 -1.0758 -1.1475  1.6791
  592SOL     OW 3196   2.025   5.790   5.616  0.5911 -0.5696  0.3148
  592SOL    HW1 3197   2.044   5.698   5.599 -0.4571 -0.3429 -2.5513
  592SOL    HW2 3198   2.101   5.837   5.584  0.1925 -0.3240 -0.2794
  593SOL     OW 3199   1.853   3.062   3.457 -0.3659 -0.4955  0.3226
  593SOL    HW1 3200   1.816   3.074   3.369 -0.6516  2.4707  0.7471
  593SOL    HW2 3201   1.777   3.042   3.512 -0.7963  1.2865  0.4497
  594SOL     OW 3202   8.885   4.523   7.605  0.2892 -0.2514  0.0298
  594SOL    HW1 3203   8.819   4.564   7.548  1.9802 -0.0176 -1.8917
  594SOL    HW2 3204   8.874   4.429   7.590 -0.3338 -0.2766  0.6018
  595SOL     OW 3205   8.767   2.649   0.216  0.5984  0.0977  0.6064
  595SOL    HW1 3206   8.733   2.592   0.147  2.5184 -0.4185  0.0231
  595SOL    HW2 3207   8.697   2.653   0.281 -0.8057 -0.3404 -0.8185
  596SOL     OW 3208   8.908   2.215   5.228 -0.1495  0.1083 -0.4532
  596SOL    HW1 3209   8.860   2.285   5.184 -1.7278  0.1346  1.1861
  596SOL    HW2 3210   8.867   2.134   5.196  0.5706 -0.0140 -1.0990
  597SOL     OW 3211   4.249   6.463   8.822 -0.2862 -0.4083  0.7221
  597SOL    HW1 3212   4.323   6.403   8.824  0.2568  0.2527  2.1984
  597SOL    HW2 3213   4.277   6.535   8.766 -0.3870 -0.8363  0.1116
  598SOL     OW 3214   1.426   1.860   1.151 -0.0592  0.0382 -0.0209
  598SOL    HW1 3215   1.418   1.952   1.128 -0.6621  0.3930  1.4978
  598SOL    HW2 3216   1.477   1.859   1.232  0.6113 -1.0396 -0.4158
  599SOL     OW 3217   1.503   6.303   3.035  0.2602 -0.4486 -0.4561
  599SOL    HW1 3218   1.430   6.347   3.077  1.6178  0.2655  1.2778
  599SOL    HW2 3219   1.581   6.348   3.068  1.5405 -1.7685 -1.5216
  600SOL     OW 3220   5.503   5.578   1.725 -0.1520  0.6820  0.4471
  600SOL    HW1 3221   5.548   5.498   1.754 -0.9398 -0.1085 -0.4326
  600SOL    HW2 3222   5.504   5.573   1.630  1.6334  2.8081  0.2726
  601SOL     OW 3223   8.905   5.906   9.273 -0.2936  0.0012  0.2939
  601SOL    HW1 3224   8.850   5.979   9.245 -0.0278  0.4113  0.7942
  601SOL    HW2 3225   8.893   5.903   9.368  1.0980  0.5969  0.5242
  602SOL     OW 3226   1.917   1.507   5.415 -0.3819  0.3379 -0.4667
  602SOL    HW1 3227   1.849   1.440   5.406 -1.3038  1.0274  0.9882
  602SOL    HW2 3228   1.989   1.463   5.459 -0.8245  0.1754  0.1139
  603SOL     OW 3229   5.789   4.230   2.154 -0.0840 -0.3961 -0.3567
  603SOL    HW1 3230   5.836   4.183   2.222 -0.8191  0.7511  0.9971
  603SOL    HW2 3231   5.762   4.163   2.092  0.2693 -1.5258  0.6836
  604SOL     OW 3232   5.440   0.306   8.386 -0.2493  0.0833  0.1062
  604SOL    HW1 3233   5.401   0.315   8.299  1.5188  1.7975 -0.5804
  604SOL    HW2 3234   5.469   0.215   8.389  0.7075  0.2897 -1.5960
  605SOL     OW 3235   3.790   3.824   8.850 -0.3751 -0.6163 -0.0465
  605SOL    HW1 3236   3.788   3.879   8.928 -2.9697 -1.2224  0.4033
  605SOL    HW2 3237   3.864   3.764   8.864 -1.4530 -1.4548  2.5063
  606SOL     OW 3238   6.170   0.272   2.199 -0.8114  0.5148  0.2812
  606SOL    HW1 3239   6.180   0.191   2.249 -0.0455 -0.0354 -0.7244
  606SOL    HW2 3240   6.088   0.310   2.231 -1.7217 -1.1637  0.0777
  607SOL     OW 3241   5.539   6.240   6.745 -0.1815  0.0158  0.1282
  607SOL    HW1 3242   5.598   6.284   6.806  1.9239  0.1521 -1.8653
  607SOL    HW2 3243   5.453   6.279   6.762  1.1577  3.4148 -0.0774
  608SOL     OW 3244   5.778   7.071   0.619 -0.1493  0.4138  0.0484
  608SOL    HW1 3245   5.840   7.084   0.690 -2.1277  2.1857  1.5929
  608SOL    HW2 3246   5.716   7.006   0.652  0.4010 -0.7632 -1.1579
  609SOL     OW 3247   8.968   3.323   0.807 -0.4498  0.4519  0.1099
  609SOL    HW1 3248   8.892   3.316   0.749 -0.1535  1.8103 -0.4769
  609SOL    HW2 3249   9.042   3.296   0.753 -0.3828  0.1230  0.3655
  610SOL     OW 3250   4.263   4.412   8.217 -0.3466  0.0164 -0.2459
  610SOL    HW1 3251   4.245   4.378   8.304 -0.3325  1.0576  0.1757
  610SOL    HW2 3252   4.176   4.426   8.179 -0.4939 -3.9399 -1.8969
  611SOL     OW 3253   3.846   5.438   7.877 -0.6054 -0.3823  1.2251
  611SOL    HW1 3254   3.773   5.493   7.852  0.1369  0.5926  1.1410
  611SOL    HW2 3255   3.922   5.496   7.876  0.7101 -1.9123 -1.4967
  612SOL     OW 3256   1.715   6.224   8.487 -0.1710 -0.4284 -0.2993
  612SOL    HW1 3257   1.693   6.303   8.439 -0.8258 -1.1708 -1.2662
  612SOL    HW2 3258   1.810   6.229   8.500 -0.0947  0.1516 -1.0140
  613SOL     OW 3259   4.631   0.109   4.968  0.5181 -0.6510  0.3367
  613SOL    HW1 3260   4.706   0.166   4.981  0.1697 -0.4773  1.8619
  613SOL    HW2 3261   4.575   0.126   5.045 -0.9670 -0.9293 -0.6354
  614SOL     OW 3262   7.099   3.790   8.214  0.7849 -0.5246 -0.2410
  614SOL    HW1 3263   7.047   3.754   8.286 -1.6144  0.3515 -1.4397
  614SOL    HW2 3264   7.081   3.884   8.216 -0.1934 -0.5901 -2.5649
  615SOL     OW 3265   3.423   3.785   3.168 -0.0833 -0.1204  0.3121
  615SOL    HW1 3266   3.402   3.737   3.248  2.0846  1.0759  1.6950
  615SOL    HW2 3267   3.363   3.750   3.102 -2.5307 -0.5849  2.6194
  616SOL     OW 3268   0.732   0.448   3.704  0.0034 -0.5022 -0.1639
  616SOL    HW1 3269   0.667   0.517   3.695 -0.2844 -0.5933  1.1177
  616SOL    HW2 3270   0.740   0.434   3.798  1.0408 -1.2884 -0.3506
  617SOL     OW 3271   6.797   2.075   4.540  0.0729 -0.0103  0.5913
  617SOL    HW1 3272   6.856   2.025   4.597 -0.2153 -1.4033 -0.2666
  617SOL    HW2 3273   6.713   2.029   4.547 -0.5575  1.1259  0.7377
  618SOL     OW 3274   3.162   2.282   4.738  0.2266 -0.4206  0.0800
  618SOL    HW1 3275   3.190   2.298   4.647 -0.0688  2.7058  0.4414
  618SOL    HW2 3276   3.096   2.214   4.731  1.1295 -1.1727 -1.8916
  619SOL     OW 3277   3.501   0.264   2.799 -0.8130  0.2100  0.2680
  619SOL    HW1 3278   3.495   0.206   2.875  0.4342 -0.2900  0.0160
  619SOL    HW2 3279   3.504   0.352   2.836 -0.1993 -0.0271  0.8125
  620SOL     OW 3280   3.863   6.825   3.122 -0.2204 -0.1240  0.2726
  620SOL    HW1 3281   3.867   6.871   3.038 -0.4674 -0.2329  0.2013
  620SOL    HW2 3282   3.840   6.893   3.185 -0.0521 -0.0455  0.2503
  621SOL     OW 3283   3.221   7.743   2.532 -0.0184  0.0262  0.0316
  621SOL    HW1 3284   3.288   7.786   2.585 -0.7493  2.6043 -0.9585
  621SOL    HW2 3285   3.258   7.657   2.511  0.9405 -0.4866  3.3232
  622SOL     OW 3286   9.197   0.712   4.935 -0.1544  0.0275  0.2810
  622SOL    HW1 3287   9.240   0.651   4.995  0.8145  2.5538  2.3910
  622SOL    HW2 3288   9.261   0.727   4.866  0.5892  0.4178  1.0358
  623SOL     OW 3289   1.017   0.288   1.661 -0.7038  0.5852 -0.1041
  623SOL    HW1 3290   1.006   0.347   1.586 -1.5049  0.0980 -0.3805
  623SOL    HW2 3291   0.931   0.248   1.673 -0.8528  1.3217  1.6616
  624SOL     OW 3292   4.429   2.085   0.988  0.1224  0.9142  0.2311
  624SOL    HW1 3293   4.393   2.166   1.024 -0.6445  0.1754  1.1977
  624SOL    HW2 3294   4.362   2.019   1.008 -0.8690  0.5984 -3.5010
  625SOL     OW 3295   4.553   7.009   1.775 -0.0427 -0.1946  0.1752
  625SOL    HW1 3296   4.466   6.985   1.808 -0.4440 -0.1815 -0.8508
  625SOL    HW2 3297   4.557   6.970   1.688  0.1739  1.5491 -0.6281
  626SOL     OW 3298   0.951   0.622   5.677 -0.2913 -0.3036 -0.6115
  626SOL    HW1 3299   1.015   0.673   5.627 -0.2003  0.6688  0.4647
  626SOL    HW2 3300   0.993   0.538   5.691  1.0520  0.5371  0.6358
  627SOL     OW 3301   7.639   1.289   6.896  0.2674  0.0367  0.3138
  627SOL    HW1 3302   7.659   1.195   6.899  1.3540  0.2853  1.0452
  627SOL    HW2 3303   7.662   1.322   6.983 -1.0487  0.8092  0.3971
  628SOL     OW 3304   6.777   8.037   6.528 -0.2577 -0.1543  0.0148
  628SOL    HW1 3305   6.861   7.997   6.552 -1.0814 -0.8648  1.9782
  628SOL    HW2 3306   6.759   8.098   6.600 -0.4961  1.5214 -1.4064
  629SOL     OW 3307   7.244   0.602   2.065  0.1596  0.1328  0.0783
  629SOL    HW1 3308   7.165   0.628   2.018 -0.7794 -0.9373  1.0201
  629SOL    HW2 3309   7.300   0.562   1.999 -0.3218  0.3844 -0.4872
  630SOL     OW 3310   0.315   7.094   7.968  0.0029  0.4705 -0.0505
  630SOL    HW1 3311   0.318   7.047   7.885 -1.1846  2.1494 -1.1327
  630SOL    HW2 3312   0.253   7.045   8.022  1.6994 -1.3259  0.3813
  631SOL     OW 3313   7.352   4.174   2.526  0.0328 -0.1630 -0.2543
  631SOL    HW1 3314   7.281   4.151   2.466  0.3394 -0.4397 -0.5120
  631SOL    HW2 3315   7.393   4.250   2.486  0.0396 -0.1565 -0.2344
  632SOL     OW 3316   3.331   6.716   2.379  0.0933  1.0303  0.5080
  632SOL    HW1 3317   3.419   6.701   2.413  0.4255  1.8910  0.0693
  632SOL    HW2 3318   3.273   6.682   2.446  0.7629  0.5451  0.8518
  633SOL     OW 3319   4.465   9.173   5.111 -0.5411  0.2434  0.1154
  633SOL    HW1 3320   4.376   9.140   5.101 -1.4276  2.2532  0.9679
  633SOL    HW2 3321   4.506   9.114   5.175 -1.6967  0.0990  0.7449
  634SOL     OW 3322   6.577   8.017   7.398  0.5076  0.1797 -0.5396
  634SOL    HW1 3323   6.622   8.016   7.482  1.4342  0.7856 -1.0137
  634SOL    HW2 3324   6.509   7.949   7.406  0.5060  0.3086  0.7230
  635SOL     OW 3325   7.054   0.831   7.883 -0.6405  0.1610  0.0386
  635SOL    HW1 3326   7.081   0.755   7.832 -1.8306 -0.3789  0.1995
  635SOL    HW2 3327   7.135   0.860   7.927 -0.2816 -1.3557  0.4308
  636SOL     OW 3328   7.285   8.569   0.128  0.2299 -0.1210 -0.1913
  636SOL    HW1 3329   7.236   8.592   0.049 -0.0537  0.3704  0.1203
  636SOL    HW2 3330   7.276   8.646   0.185  0.7312 -0.3261  0.1752
  637SOL     OW 3331   6.719   3.799   6.917  0.3372  0.5270 -0.1857
  637SOL    HW1 3332   6.676   3.767   6.995  0.7654 -0.1917 -0.2300
  637SOL    HW2 3333   6.649   3.835   6.863 -0.1841 -0.4366 -0.1729
  638SOL     OW 3334   7.846   9.195   0.775 -0.1494  0.0659  0.1544
  638SOL    HW1 3335   7.940   9.182   0.761  0.1006  0.4693  1.3885
  638SOL    HW2 3336   7.804   9.131   0.716  0.7589  2.3316 -3.2607
  639SOL     OW 3337   6.190   0.510   2.628  0.0044 -0.2589 -0.0065
  639SOL    HW1 3338   6.155   0.592   2.663 -1.0969 -1.0555  0.8118
  639SOL    HW2 3339   6.112   0.460   2.602  0.6936 -0.7358 -1.2371
  640SOL     OW 3340   4.672   5.489   3.706  0.1162 -0.4048 -0.2845
  640SOL    HW1 3341   4.600   5.427   3.714 -1.2300  1.2769  1.7713
  640SOL    HW2 3342   4.710   5.493   3.794  1.3143  0.3823 -0.8096
  641SOL     OW 3343   2.895   6.898   8.788 -0.5051 -0.2582  0.1175
  641SOL    HW1 3344   2.957   6.913   8.716 -0.2951 -0.0466  0.3404
  641SOL    HW2 3345   2.950   6.885   8.865 -0.7296  1.7975  0.6914
  642SOL     OW 3346   3.673   3.846   1.373  0.0698 -0.7474  0.2747
  642SOL    HW1 3347   3.761   3.833   1.411 -0.3149 -0.0677  1.4583
  642SOL    HW2 3348   3.676   3.799   1.290  1.3099 -1.4010  0.6550
  643SOL     OW 3349   6.795   1.436   7.619 -0.0228 -0.0811 -0.1153
  643SOL    HW1 3350   6.826   1.374   7.686 -0.1300  1.3085  1.2738
  643SOL    HW2 3351   6.830   1.402   7.537  1.0472 -1.2437  0.7815
  644SOL     OW 3352   1.766   1.014   2.904 -0.1740  0.2675  0.1939
  644SOL    HW1 3353   1.690   0.957   2.916 -0.5679  0.9587  1.1070
  644SOL    HW2 3354   1.809   0.981   2.825  0.7093 -2.5681  1.7083
  645SOL     OW 3355   5.685   4.556   8.282 -0.7699 -0.1154 -0.0441
  645SOL    HW1 3356   5.698   4.499   8.206  1.1702 -0.0897  0.2132
  645SOL    HW2 3357   5.662   4.641   8.245 -0.1071 -0.1693 -0.6084
  646SOL     OW 3358   7.447   9.271   2.971 -1.0267  0.0442 -0.5748
  646SOL    HW1 3359   7.361   9.231   2.983 -0.8996 -0.5063 -1.4127
  646SOL    HW2 3360   7.428   9.355   2.927 -1.1227 -0.2227 -1.0533
  647SOL     OW 3361   6.367   2.357   8.459 -0.0705  0.3458  0.4275
  647SOL    HW1 3362   6.458   2.358   8.489 -0.7171  1.1224  2.6164
  647SOL    HW2 3363   6.350   2.266   8.435  1.1941  0.1387  0.2482
  648SOL     OW 3364   8.400   8.009   1.651 -0.1955 -0.5172  0.0613
  648SOL    HW1 3365   8.442   7.925   1.635 -1.3719 -1.1273  0.0556
  648SOL    HW2 3366   8.457   8.073   1.610  1.4580 -1.1439  1.2756
  649SOL     OW 3367   0.965   7.258   2.656 -0.1989 -0.3090 -1.0348
  649SOL    HW1 3368   0.933   7.231   2.570 -0.5607 -1.5106 -0.5404
  649SOL    HW2 3369   0.888   7.253   2.712  0.5512 -2.0288 -0.0984
  650SOL     OW 3370   6.296   9.205   0.186 -0.4739  0.4834 -0.5646
  650SOL    HW1 3371   6.249   9.142   0.240  0.5406  1.1491  1.1830
  650SOL    HW2 3372   6.347   9.152   0.124  1.5777 -0.5881  1.8664
  651SOL     OW 3373   2.602   1.582   9.187  0.0659  0.3236  0.1173
  651SOL    HW1 3374   2.557   1.503   9.157 -2.1369  1.2653  0.7770
  651SOL    HW2 3375   2.684   1.550   9.225 -0.0211 -1.4644 -1.0897
  652SOL     OW 3376   0.409   2.095   4.862  0.4043  0.2064 -0.1966
  652SOL    HW1 3377   0.502   2.117   4.866  1.3621 -2.7384 -2.4063
  652SOL    HW2 3378   0.395   2.037   4.937  0.9268 -0.9150 -0.9321
  653SOL     OW 3379   3.181   9.057   8.105  0.0984  0.4169  0.2803
  653SOL    HW1 3380   3.241   8.986   8.129  0.9455  1.4137  1.2291
  653SOL    HW2 3381   3.121   9.065   8.179 -0.0451  0.6205  0.1440
  654SOL     OW 3382   7.872   7.808   6.531 -0.0977 -0.0897 -0.1490
  654SOL    HW1 3383   7.784   7.775   6.550  0.3746 -0.4455  1.6696
  654SOL    HW2 3384   7.912   7.739   6.478 -0.7219 -0.1956 -0.4917
  655SOL     OW 3385   0.447   6.106   4.311  0.6118  0.1736 -0.6420
  655SOL    HW1 3386   0.397   6.175   4.269 -0.2996  1.4510  2.2911
  655SOL    HW2 3387   0.527   6.149   4.343  0.8141 -0.4942 -0.2032
  656SOL     OW 3388   7.530   0.498   1.425  0.0950  0.2760 -0.3963
  656SOL    HW1 3389   7.580   0.503   1.344  2.2523 -1.9575  0.6615
  656SOL    HW2 3390   7.441   0.477   1.396  0.6878  0.0587 -2.2163
  657SOL     OW 3391   9.116   3.606   4.169  0.4634  0.1723 -0.3168
  657SOL    HW1 3392   9.137   3.697   4.191  0.5237 -0.2503  1.5362
  657SOL    HW2 3393   9.126   3.559   4.251  1.4849 -1.7252 -1.4636
  658SOL     OW 3394   4.228   0.520   0.484 -0.1708  0.0690 -0.5385
  658SOL    HW1 3395   4.166   0.464   0.437 -1.0266  1.5798 -1.2844
  658SOL    HW2 3396   4.181   0.547   0.563 -0.5606  1.3296 -1.1733
  659SOL     OW 3397   6.403   5.495   0.635  0.1235  0.0366 -0.3219
  659SOL    HW1 3398   6.317   5.509   0.594  0.0987 -0.1862 -0.3456
  659SOL    HW2 3399   6.459   5.465   0.563  0.0977 -0.2896 -0.2073
  660SOL     OW 3400   5.966   7.993   1.568 -0.7380  0.0567  0.1248
  660SOL    HW1 3401   5.988   8.085   1.587  1.2463 -0.2763 -0.3652
  660SOL    HW2 3402   5.965   7.988   1.473 -0.9941 -0.4067  0.1510
  661SOL     OW 3403   2.476   7.773   2.947  0.3806 -0.0784 -0.4438
  661SOL    HW1 3404   2.390   7.767   2.905  0.5204  0.9621 -0.9122
  661SOL    HW2 3405   2.517   7.851   2.907  1.8902 -1.0483 -0.8949
  662SOL     OW 3406   5.227   5.025   4.252 -0.1858  0.4539 -0.0960
  662SOL    HW1 3407   5.243   5.035   4.345 -0.5117 -0.3803  0.0567
  662SOL    HW2 3408   5.311   5.045   4.210 -0.4289  2.3640  0.2547
  663SOL     OW 3409   1.770   4.625   9.005 -0.1282  0.3364  0.0294
  663SOL    HW1 3410   1.743   4.713   8.977  2.7107  1.9676  1.9035
  663SOL    HW2 3411   1.742   4.568   8.933 -0.2254  3.0554 -2.2944
  664SOL     OW 3412   3.697   5.333   5.267 -0.0697  0.8913 -0.7037
  664SOL    HW1 3413   3.792   5.344   5.273 -0.1016  0.5679  1.2958
  664SOL    HW2 3414   3.678   5.337   5.174  1.9334  0.7486 -1.1708
  665SOL     OW 3415   7.391   1.436   6.460 -0.1503  0.2548 -0.3291
  665SOL    HW1 3416   7.419   1.348   6.437  0.4242  0.3173  0.0967
  665SOL    HW2 3417   7.473   1.485   6.472 -0.4119  0.3219  1.4298
  666SOL     OW 3418   8.531   4.499   1.457 -0.3207  0.7775 -0.3987
  666SOL    HW1 3419   8.554   4.407   1.465  1.7677  1.0891 -2.0536
  666SOL    HW2 3420   8.562   4.539   1.538  0.0592  0.2555 -0.2838
  667SOL     OW 3421   0.882   8.457   0.265  0.2330  0.6743  0.4151
  667SOL    HW1 3422   0.845   8.444   0.353  1.9775  1.1557  1.2648
  667SOL    HW2 3423   0.952   8.392   0.259  0.8631  1.3973 -0.1777
  668SOL     OW 3424   0.027   2.236   4.925  0.5509  0.2873 -0.3822
  668SOL    HW1 3425   0.070   2.153   4.944 -0.3715 -0.3722 -1.0856
  668SOL    HW2 3426  -0.032   2.251   4.999  0.1325 -0.0985 -0.6317
  669SOL     OW 3427   4.732   7.055   9.089 -0.0332 -0.5100 -0.2730
  669SOL    HW1 3428   4.767   6.968   9.110  0.2440 -0.5679 -0.9565
  669SOL    HW2 3429   4.769   7.075   9.004 -0.2003  0.2312 -0.1715
  670SOL     OW 3430   2.161   7.889   8.186 -0.2495 -0.3174 -0.2157
  670SOL    HW1 3431   2.149   7.977   8.221 -0.0710  0.3472 -1.7700
  670SOL    HW2 3432   2.253   7.885   8.162 -0.9659  0.3952 -3.4863
  671SOL     OW 3433   4.590   3.534   7.068 -0.2301  0.1652  0.6467
  671SOL    HW1 3434   4.675   3.493   7.081 -0.1600  0.1382  0.0889
  671SOL    HW2 3435   4.546   3.525   7.153  0.1425 -0.2280  0.7966
  672SOL     OW 3436   4.546   3.005   8.296 -0.3095 -0.8656  0.1278
  672SOL    HW1 3437   4.498   2.976   8.219  0.8598 -0.2133 -0.8786
  672SOL    HW2 3438   4.637   3.008   8.268  0.3760 -2.2128  2.0291
  673SOL     OW 3439   8.485   5.558   0.982  0.4050 -0.1932  0.4566
  673SOL    HW1 3440   8.470   5.652   0.974 -1.7601 -0.4528  0.7237
  673SOL    HW2 3441   8.558   5.540   0.923  1.5690  1.7797  1.1726
  674SOL     OW 3442   5.634   0.218   7.871 -0.0136  0.4031  0.2681
  674SOL    HW1 3443   5.714   0.240   7.919 -1.3948  2.4633  1.7920
  674SOL    HW2 3444   5.609   0.300   7.827  0.1177 -0.8968 -2.4686
  675SOL     OW 3445   1.105   5.799   8.517  0.2774  0.1420  0.1595
  675SOL    HW1 3446   1.068   5.774   8.602 -0.8736 -0.4306 -0.4780
  675SOL    HW2 3447   1.090   5.893   8.510 -0.4499  0.0405  0.2276
  676SOL     OW 3448   5.752   2.682   2.444  0.3415  0.2628  0.1195
  676SOL    HW1 3449   5.680   2.630   2.481  0.7584  0.4900  1.2878
  676SOL    HW2 3450   5.786   2.628   2.373 -0.4078 -0.2422  0.1260
  677SOL     OW 3451   7.272   4.957   1.407  0.0981  0.1686  0.3023
  677SOL    HW1 3452   7.301   5.032   1.354  2.6465  0.4828  1.9551
  677SOL    HW2 3453   7.304   4.881   1.359 -2.0230  0.0852 -1.1022
  678SOL     OW 3454   2.757   3.573   3.280  0.3715  0.9641 -0.5743
  678SOL    HW1 3455   2.716   3.610   3.359  0.6732  1.2683 -0.5575
  678SOL    HW2 3456   2.688   3.521   3.239  0.4415  0.1709  0.2977
  679SOL     OW 3457   4.638   5.703   5.433 -0.4409  0.2531 -0.3042
  679SOL    HW1 3458   4.589   5.782   5.455 -0.5561  0.2809 -0.6511
  679SOL    HW2 3459   4.692   5.686   5.510  1.0860  1.8165 -0.9537
  680SOL     OW 3460   6.131   4.086   5.526  0.4984  0.3158  0.1133
  680SOL    HW1 3461   6.094   4.011   5.572 -1.2659  2.1949  1.9672
  680SOL    HW2 3462   6.209   4.051   5.481 -0.8628 -2.8039 -0.0528
  681SOL     OW 3463   2.742   2.739   6.992 -0.5415  0.2826 -0.7259
  681SOL    HW1 3464   2.658   2.693   6.998 -0.3390 -0.2160 -1.5078
  681SOL    HW2 3465   2.800   2.690   7.051 -0.4770 -0.1436 -1.1315
  682SOL     OW 3466   4.397   5.720   7.969 -0.3185  0.1740  0.1974
  682SOL    HW1 3467   4.365   5.721   8.059  1.6462  2.9575  0.9851
  682SOL    HW2 3468   4.342   5.783   7.923 -0.6585 -0.4960 -0.3434
  683SOL     OW 3469   4.187   1.884   1.758 -0.4979  0.4005 -0.3234
  683SOL    HW1 3470   4.117   1.871   1.822  0.8613  0.1895  1.1678
  683SOL    HW2 3471   4.255   1.932   1.805 -0.3933  2.3647 -2.2919
  684SOL     OW 3472   6.878   4.216   1.446 -0.0580 -0.4255  0.0760
  684SOL    HW1 3473   6.833   4.143   1.403 -1.8473  0.1406  0.8938
  684SOL    HW2 3474   6.910   4.179   1.529  1.7154 -1.0162 -0.8144
  685SOL     OW 3475   5.245   6.987   3.985 -0.5232 -0.6381 -0.4057
  685SOL    HW1 3476   5.190   7.063   4.002 -0.5717 -0.7338 -0.1296
  685SOL    HW2 3477   5.289   6.970   4.069 -1.7507 -1.9245  0.0239
  686SOL     OW 3478   2.050   4.963   8.754 -0.1951 -0.1238 -0.2995
  686SOL    HW1 3479   2.043   4.937   8.846  0.2756 -1.3142 -0.5834
  686SOL    HW2 3480   2.131   4.922   8.724 -0.6055 -0.1663 -1.3861
  687SOL     OW 3481   2.852   8.634   1.302  0.2058 -0.0754  0.8031
  687SOL    HW1 3482   2.791   8.561   1.315  1.5164 -1.0367  1.9277
  687SOL    HW2 3483   2.931   8.593   1.268 -0.4820  1.4640 -3.1631
  688SOL     OW 3484   6.568   7.794   8.113  0.8528  0.4074  0.1016
  688SOL    HW1 3485   6.588   7.743   8.035 -1.4180 -1.0179  0.3470
  688SOL    HW2 3486   6.603   7.742   8.186  0.8761  0.5386  0.1848
  689SOL     OW 3487   2.069   0.015   7.999 -0.1584  0.0081  0.1428
  689SOL    HW1 3488   2.146  -0.030   7.966  2.0689  3.9543 -0.5781
  689SOL    HW2 3489   2.083   0.021   8.094  0.3920  0.6047  0.0276
  690SOL     OW 3490   9.253   1.871   1.396  0.2011 -0.1134  0.2714
  690SOL    HW1 3491   9.242   1.889   1.302 -2.5266 -1.0357  0.3254
  690SOL    HW2 3492   9.221   1.951   1.439 -0.6678 -0.5060  0.3901
  691SOL     OW 3493   8.846   4.050   9.018  0.6036 -0.4691 -0.3399
  691SOL    HW1 3494   8.900   4.114   9.063  2.4712 -2.0051 -0.2361
  691SOL    HW2 3495   8.801   4.003   9.088  0.6579 -0.4586 -0.2973
  692SOL     OW 3496   5.227   4.464   6.143 -0.1738  0.4420 -0.1246
  692SOL    HW1 3497   5.196   4.546   6.181  1.2812  1.5647 -1.2528
  692SOL    HW2 3498   5.296   4.434   6.202 -0.7260 -0.0153  0.3040
  693SOL     OW 3499   5.011   6.309   5.268 -0.6435  0.0391  0.3567
  693SOL    HW1 3500   4.948   6.237   5.270  1.8721 -2.3896  2.5532
  693SOL    HW2 3501   5.072   6.284   5.198 -0.9676  1.2977 -0.3996
  694SOL     OW 3502   7.730   5.603   6.858 -0.0868  0.2808 -0.5299
  694SOL    HW1 3503   7.786   5.602   6.780  0.7600  0.0871  0.0694
  694SOL    HW2 3504   7.656   5.546   6.836  0.9055 -0.9884 -0.6391
  695SOL     OW 3505   5.430   7.141   0.684 -0.1946 -0.8939  0.4761
  695SOL    HW1 3506   5.488   7.068   0.707 -0.0979 -0.8752  0.2973
  695SOL    HW2 3507   5.480   7.219   0.706 -0.2924 -0.8831  0.6546
  696SOL     OW 3508   0.298   8.151   1.373 -0.0639  0.5323  0.0004
  696SOL    HW1 3509   0.234   8.135   1.303 -0.8141  0.0409  0.7840
  696SOL    HW2 3510   0.255   8.213   1.432  0.8472  1.5161 -0.3245
  697SOL     OW 3511   6.574   1.515   4.211  0.4084  0.5751 -0.7859
  697SOL    HW1 3512   6.608   1.436   4.169  0.2374 -0.0350  0.1959
  697SOL    HW2 3513   6.641   1.581   4.194  0.6109  0.1930 -1.5178
  698SOL     OW 3514   2.169   5.981   2.530 -0.0516 -0.0459  0.4081
  698SOL    HW1 3515   2.187   6.075   2.522 -1.1835  0.2482  1.0218
  698SOL    HW2 3516   2.102   5.964   2.463  2.3521 -1.1305 -1.9003
  699SOL     OW 3517   5.273   7.887   1.363 -0.0876 -0.6703 -0.1445
  699SOL    HW1 3518   5.196   7.941   1.346 -0.4271 -1.3186 -0.7261
  699SOL    HW2 3519   5.286   7.892   1.457 -0.3821  0.0591 -0.1359
  700SOL     OW 3520   3.184   4.289   1.926  0.6364 -0.4548  0.1577
  700SOL    HW1 3521   3.104   4.324   1.966 -1.0466 -1.1978 -2.3139
  700SOL    HW2 3522   3.225   4.364   1.884 -0.0678 -0.4471 -0.5477
  701SOL     OW 3523   4.913   0.433   1.597 -0.1344  0.3970 -0.0119
  701SOL    HW1 3524   4.855   0.471   1.531  1.5935  1.7255 -0.8568
  701SOL    HW2 3525   4.966   0.507   1.627  0.4927 -0.5838  1.4128
  702SOL     OW 3526   2.626   4.204   4.291 -0.0431  0.3787 -0.1861
  702SOL    HW1 3527   2.686   4.137   4.323 -0.7262 -0.2013 -0.0718
  702SOL    HW2 3528   2.675   4.250   4.223  1.0754  0.9732  0.9898
  703SOL     OW 3529   7.864   8.827   6.511  0.1459 -0.0219 -0.3570
  703SOL    HW1 3530   7.920   8.794   6.441 -0.6001 -0.8517 -0.5807
  703SOL    HW2 3531   7.779   8.787   6.494 -0.6690  1.6636 -0.3352
  704SOL     OW 3532   2.733   3.072   7.688 -0.5567 -0.1809 -0.5402
  704SOL    HW1 3533   2.804   3.034   7.638  0.4829  1.7216 -0.6269
  704SOL    HW2 3534   2.724   3.161   7.654 -3.6549 -0.5987 -1.1974
  705SOL     OW 3535   4.327   5.826   4.588 -0.0122 -0.0478 -0.0626
  705SOL    HW1 3536   4.409   5.838   4.636  0.1361 -0.9688 -0.0770
  705SOL    HW2 3537   4.278   5.761   4.638 -0.6827  0.4000 -0.1228
  706SOL     OW 3538   2.110   1.514   6.001  0.2422  0.5785  0.4628
  706SOL    HW1 3539   2.128   1.422   6.020  2.1156  0.5556 -1.0487
  706SOL    HW2 3540   2.196   1.553   5.989 -0.5431  1.8186 -1.8936
  707SOL     OW 3541   2.019   3.559   5.182  0.3418  0.6401  0.2879
  707SOL    HW1 3542   2.082   3.592   5.246 -1.2543  1.2813  1.6226
  707SOL    HW2 3543   1.941   3.613   5.196 -1.2526 -1.5382  0.2327
  708SOL     OW 3544   0.922   2.416   8.180  0.5606  0.1613  0.2809
  708SOL    HW1 3545   0.979   2.369   8.241  0.8687 -1.6254 -1.2631
  708SOL    HW2 3546   0.836   2.417   8.223  1.0552  0.1176  1.2952
  709SOL     OW 3547   5.384   8.469   5.649  0.2816 -0.2276  0.4216
  709SOL    HW1 3548   5.428   8.439   5.729 -0.5103  0.5257  1.1487
  709SOL    HW2 3549   5.298   8.498   5.678  0.1837  0.5818 -0.6283
  710SOL     OW 3550   5.057   8.238   6.759  0.5522 -0.5015 -0.2750
  710SOL    HW1 3551   4.975   8.215   6.717  0.9836 -0.7300 -1.0118
  710SOL    HW2 3552   5.123   8.187   6.712  1.0432 -0.8486  0.7471
  711SOL     OW 3553   2.895   2.530   6.861  0.0175  0.5233 -0.0388
  711SOL    HW1 3554   2.962   2.541   6.794 -0.4582  0.1419 -0.5885
  711SOL    HW2 3555   2.850   2.614   6.864  1.4150  1.2934  1.3654
  712SOL     OW 3556   3.643   8.139   6.867 -0.8527  0.0845 -0.1089
  712SOL    HW1 3557   3.567   8.081   6.856 -0.4594 -0.5024  0.2342
  712SOL    HW2 3558   3.681   8.145   6.780 -0.7553 -0.3742 -0.1014
  713SOL     OW 3559   8.412   0.544   2.471  0.3396 -0.0629 -0.3761
  713SOL    HW1 3560   8.455   0.613   2.522  0.0875  0.5582 -0.9824
  713SOL    HW2 3561   8.333   0.586   2.435  0.4251 -0.5287 -1.1382
  714SOL     OW 3562   3.259   5.907   1.883  0.6215 -0.3925  0.4673
  714SOL    HW1 3563   3.284   5.899   1.975  0.9176  2.1177  0.6785
  714SOL    HW2 3564   3.265   6.001   1.864 -3.8930 -0.1205 -0.8349
  715SOL     OW 3565   7.838   5.960   6.040 -0.0015  0.2427  0.3994
  715SOL    HW1 3566   7.844   6.048   6.001 -3.4022  1.5615  2.3580
  715SOL    HW2 3567   7.906   5.959   6.107  0.4972  1.1473 -0.0680
  716SOL     OW 3568   5.321   4.463   7.322  0.3277 -0.0212  0.1006
  716SOL    HW1 3569   5.229   4.449   7.303  0.1908 -0.9700  1.3305
  716SOL    HW2 3570   5.325   4.551   7.360  0.1356  0.5275 -1.0959
  717SOL     OW 3571   4.141   0.467   3.515  0.6105  0.4387 -0.0412
  717SOL    HW1 3572   4.127   0.532   3.447  2.1748  1.9906  1.0277
  717SOL    HW2 3573   4.235   0.470   3.533  0.3073 -0.1276  1.9409
  718SOL     OW 3574   8.561   6.635   5.195 -1.0665 -0.2047 -0.3826
  718SOL    HW1 3575   8.569   6.573   5.122 -0.8471 -0.9676  0.2762
  718SOL    HW2 3576   8.467   6.650   5.204 -1.0998 -0.1713 -0.7623
  719SOL     OW 3577   6.820   2.379   1.134  0.6865  0.3993 -0.4881
  719SOL    HW1 3578   6.747   2.331   1.096 -1.1350  2.1013  0.6757
  719SOL    HW2 3579   6.819   2.464   1.090 -0.2779  1.7135  1.8907
  720SOL     OW 3580   5.717   1.468   8.556 -0.2069  0.3011 -0.0394
  720SOL    HW1 3581   5.665   1.505   8.484 -0.5481 -0.2508 -0.0764
  720SOL    HW2 3582   5.679   1.382   8.571  1.7591 -0.8243 -1.1914
  721SOL     OW 3583   7.421   0.118   0.490 -0.2105 -0.3265 -0.3867
  721SOL    HW1 3584   7.472   0.046   0.527  0.9899  0.7270  0.0544
  721SOL    HW2 3585   7.433   0.191   0.550 -1.8381  0.1231 -0.5487
  722SOL     OW 3586   9.024   2.681   4.595 -0.0722  0.4854 -0.3138
  722SOL    HW1 3587   8.940   2.710   4.559 -1.2148 -2.1019  0.0204
  722SOL    HW2 3588   9.073   2.651   4.519  0.6979  2.2116 -0.5372
  723SOL     OW 3589   4.863   3.433   4.134 -0.0857 -0.3791  0.2786
  723SOL    HW1 3590   4.786   3.388   4.098  1.8586 -2.5453 -1.4472
  723SOL    HW2 3591   4.903   3.369   4.193  0.4191  0.7296  1.1763
  724SOL     OW 3592   7.985   4.269   7.929 -0.4169  0.1433 -0.0033
  724SOL    HW1 3593   7.944   4.317   8.001  0.9207 -0.0538  0.9355
  724SOL    HW2 3594   7.965   4.320   7.851 -2.7350 -0.1564  0.3253
  725SOL     OW 3595   5.138   8.373   5.307 -0.4257  0.1764 -0.2849
  725SOL    HW1 3596   5.171   8.461   5.323 -0.3246  0.8150 -3.3736
  725SOL    HW2 3597   5.204   8.314   5.344 -0.4286  1.3596  1.6956
  726SOL     OW 3598   6.592   6.831   8.091  0.0587 -0.2315  0.4217
  726SOL    HW1 3599   6.552   6.817   8.005 -1.1827 -0.6791  1.0495
  726SOL    HW2 3600   6.619   6.744   8.119 -2.8911 -0.7754  2.0361
  727SOL     OW 3601   5.681   2.509   8.733 -0.5883 -0.5697 -0.3046
  727SOL    HW1 3602   5.663   2.584   8.790 -1.6861  0.4364 -1.8928
  727SOL    HW2 3603   5.735   2.450   8.787  0.7402  1.5621  0.8397
  728SOL     OW 3604   5.509   0.694   4.424  0.4048  0.0735 -0.0369
  728SOL    HW1 3605   5.600   0.666   4.437  0.9188  1.6414 -0.0023
  728SOL    HW2 3606   5.516   0.766   4.361 -0.5964  1.4010  1.2968
  729SOL     OW 3607   4.419   8.428   2.455 -0.1393 -0.2446  0.0735
  729SOL    HW1 3608   4.332   8.407   2.488 -0.4173  0.1324 -0.4197
  729SOL    HW2 3609   4.471   8.445   2.534 -0.3289 -1.1286  0.4059
  730SOL     OW 3610   1.224   9.260   6.881  0.0217  0.3676  0.1768
  730SOL    HW1 3611   1.314   9.265   6.849 -0.2008 -1.0148 -0.7428
  730SOL    HW2 3612   1.180   9.336   6.841  0.4249  0.2256 -0.5472
  731SOL     OW 3613   4.505   6.132   7.852  0.5051  0.5858  0.2303
  731SOL    HW1 3614   4.453   6.120   7.931  1.1636  1.6826  0.8552
  731SOL    HW2 3615   4.586   6.085   7.868  0.3447  0.1848 -0.1086
  732SOL     OW 3616   6.152   1.622   0.826  0.1427  0.2541 -0.0842
  732SOL    HW1 3617   6.213   1.586   0.762  0.2140 -0.1179  0.1961
  732SOL    HW2 3618   6.177   1.583   0.909 -0.0464  0.6234  0.1520
  733SOL     OW 3619   5.206   1.838   2.002  0.3147 -0.1590  0.0454
  733SOL    HW1 3620   5.214   1.765   2.064 -0.1383  0.6938  1.1322
  733SOL    HW2 3621   5.285   1.891   2.018 -0.8977  1.2911  1.5639
  734SOL     OW 3622   0.747   4.200   8.771 -0.1837  0.4398 -0.5253
  734SOL    HW1 3623   0.816   4.265   8.787 -1.9986  2.4340 -0.2519
  734SOL    HW2 3624   0.750   4.185   8.677  0.9425  0.0923 -0.4462
  735SOL     OW 3625   3.589   1.743   3.821 -0.7468 -0.6010 -0.3894
  735SOL    HW1 3626   3.599   1.648   3.824 -3.2447 -0.9262 -0.6873
  735SOL    HW2 3627   3.632   1.769   3.740  0.7504 -1.3188  0.1333
  736SOL     OW 3628   7.422   1.354   2.256  0.0910 -0.1441  0.0486
  736SOL    HW1 3629   7.378   1.406   2.189 -0.9237  0.3148  1.0288
  736SOL    HW2 3630   7.425   1.265   2.221 -1.4712 -0.1468 -0.1399
  737SOL     OW 3631   1.882   4.980   5.718 -0.1650 -0.0039  0.8360
  737SOL    HW1 3632   1.896   5.032   5.798 -0.3681  0.3829  0.6203
  737SOL    HW2 3633   1.796   4.939   5.731  1.2550 -2.8330  2.4170
  738SOL     OW 3634   6.204   4.503   4.324 -0.3157  0.2351  0.1140
  738SOL    HW1 3635   6.217   4.540   4.411  0.7454 -1.4628  0.7280
  738SOL    HW2 3636   6.187   4.578   4.268  1.7072  1.6371  1.2860
  739SOL     OW 3637   5.736   5.792   3.990 -0.2349 -0.7779 -0.3281
  739SOL    HW1 3638   5.730   5.776   3.896  0.6056  1.7087 -0.8862
  739SOL    HW2 3639   5.646   5.808   4.018 -0.3332 -0.0401 -1.0321
  740SOL     OW 3640   3.092   0.413   2.373 -0.2296 -0.0892  0.1606
  740SOL    HW1 3641   3.120   0.470   2.445  2.2768 -0.6177 -0.3222
  740SOL    HW2 3642   3.019   0.461   2.332  0.3772  1.7255  1.1058
  741SOL     OW 3643   3.826   4.925   1.026 -0.6330 -0.4970 -0.1437
  741SOL    HW1 3644   3.781   4.961   1.103 -0.4655 -1.4443  0.4092
  741SOL    HW2 3645   3.784   4.841   1.011  1.4308 -1.7936  0.8799
  742SOL     OW 3646   1.954   0.734   0.857  0.2155 -0.3628 -0.0353
  742SOL    HW1 3647   2.035   0.720   0.808  0.1406 -1.4466  0.1334
  742SOL    HW2 3648   1.888   0.685   0.807  0.2934 -2.2144  1.5780
  743SOL     OW 3649   2.788   3.436   2.192 -0.1737 -0.4806  0.3416
  743SOL    HW1 3650   2.850   3.500   2.226 -0.6602  0.8521 -1.1815
  743SOL    HW2 3651   2.837   3.388   2.125 -0.4835 -0.0990 -0.1646
  744SOL     OW 3652   0.662   1.359   2.722  0.1512 -0.4233 -0.4107
  744SOL    HW1 3653   0.739   1.309   2.696  0.7002  0.9411 -1.5412
  744SOL    HW2 3654   0.589   1.317   2.677  0.3055 -1.3501  0.1790
  745SOL     OW 3655   0.525   5.682   7.095 -0.6497  0.3370  0.0450
  745SOL    HW1 3656   0.559   5.762   7.055 -0.8958  0.6680  0.5003
  745SOL    HW2 3657   0.604   5.633   7.119 -0.4806 -0.3076 -1.6935
  746SOL     OW 3658   1.529   4.470   6.380  0.0438  0.4765 -0.6226
  746SOL    HW1 3659   1.587   4.499   6.310  1.1775 -1.2086 -0.4187
  746SOL    HW2 3660   1.555   4.380   6.398 -1.3641  0.3075  0.8065
  747SOL     OW 3661   3.811   5.993   2.345 -0.1304  0.1907  0.1270
  747SOL    HW1 3662   3.749   5.937   2.391  0.1416 -1.3800 -1.3083
  747SOL    HW2 3663   3.765   6.076   2.334 -1.0210 -0.1304  1.2200
  748SOL     OW 3664   7.404   0.742   3.606  0.3032 -0.4649 -0.2966
  748SOL    HW1 3665   7.364   0.688   3.675 -0.6241 -0.5231 -0.8576
  748SOL    HW2 3666   7.498   0.729   3.617  0.3427  1.1962  2.3249
  749SOL     OW 3667   8.453   0.643   6.314 -0.1335 -0.3038 -0.2919
  749SOL    HW1 3668   8.404   0.600   6.244  0.2062 -0.5417 -0.3853
  749SOL    HW2 3669   8.393   0.644   6.389 -0.2586 -0.6555 -0.3846
  750SOL     OW 3670   8.946   0.466   8.529 -0.2146  0.0053 -0.1360
  750SOL    HW1 3671   9.029   0.498   8.564  0.2094 -0.7949 -0.3774
  750SOL    HW2 3672   8.954   0.475   8.434  0.0972 -1.1851 -0.2474
  751SOL     OW 3673   3.713   7.579   3.354 -0.4694  0.2350  0.0359
  751SOL    HW1 3674   3.708   7.564   3.448 -2.7208 -0.2136 -0.1028
  751SOL    HW2 3675   3.681   7.668   3.342 -0.4696  0.1875 -0.3280
  752SOL     OW 3676   4.794   4.601   2.486  0.3951 -0.6230 -0.4382
  752SOL    HW1 3677   4.795   4.646   2.570  0.3643 -0.5126 -0.4966
  752SOL    HW2 3678   4.744   4.521   2.502  1.0169 -0.9689 -0.1627
  753SOL     OW 3679   1.925   1.324   2.965 -0.5520  0.1155  0.4510
  753SOL    HW1 3680   1.932   1.231   2.984 -1.5994 -0.2913 -1.0211
  753SOL    HW2 3681   1.998   1.364   3.013 -0.3081 -1.3998  1.3973
  754SOL     OW 3682   5.723   1.949   1.442 -0.1062  0.0236 -0.0377
  754SOL    HW1 3683   5.656   1.981   1.502  0.5938 -1.8210  1.8609
  754SOL    HW2 3684   5.683   1.873   1.399 -1.1176  2.1319 -3.1406
  755SOL     OW 3685   7.498   1.797   0.468 -0.1522  0.1713  0.5943
  755SOL    HW1 3686   7.561   1.724   0.468 -0.5594 -0.1973  1.8535
  755SOL    HW2 3687   7.544   1.868   0.423  0.8043 -0.3919  0.6582
  756SOL     OW 3688   1.662   8.827   2.076  0.4202  0.1776 -0.2439
  756SOL    HW1 3689   1.681   8.851   1.986  0.7670 -1.1417 -0.5517
  756SOL    HW2 3690   1.734   8.769   2.101  0.3422  0.5559  0.8914
  757SOL     OW 3691   0.152   0.729   8.765 -0.4051 -0.1423 -0.2349
  757SOL    HW1 3692   0.222   0.672   8.796 -0.6892  0.1083  0.9138
  757SOL    HW2 3693   0.142   0.796   8.833 -0.4607  0.9654 -1.2783
  758SOL     OW 3694   7.458   5.139   6.396 -0.3619  0.4823  0.0291
  758SOL    HW1 3695   7.532   5.097   6.353 -1.6969 -0.6069 -1.3171
  758SOL    HW2 3696   7.391   5.144   6.328 -0.9272  3.1625  0.6447
  759SOL     OW 3697   4.038   0.849   6.413 -0.7622  0.2248  0.3562
  759SOL    HW1 3698   3.947   0.842   6.387  0.0063 -0.7383 -2.3476
  759SOL    HW2 3699   4.079   0.770   6.379  1.7496  2.2207 -1.6767
  760SOL     OW 3700   2.977   1.843   3.533  0.6173  0.0780 -0.3646
  760SOL    HW1 3701   2.886   1.871   3.533  0.3901 -0.6149 -0.5097
  760SOL    HW2 3702   2.972   1.748   3.548  1.2732 -0.0569 -0.9381
  761SOL     OW 3703   2.853   5.727   8.960 -0.3206 -0.7093  0.4393
  761SOL    HW1 3704   2.936   5.755   8.998  0.4155 -1.0970 -0.8280
  761SOL    HW2 3705   2.862   5.632   8.952 -0.3350 -0.6141 -0.9210
  762SOL     OW 3706   7.039   2.159   6.474 -0.2197  0.6556 -0.0961
  762SOL    HW1 3707   6.948   2.187   6.476 -0.5390 -0.0500 -2.3925
  762SOL    HW2 3708   7.089   2.240   6.487 -1.1005  0.9510  1.8654
  763SOL     OW 3709   1.530   4.201   2.841 -0.1046 -0.1332 -0.5490
  763SOL    HW1 3710   1.599   4.138   2.822  1.0761  1.5217 -2.0477
  763SOL    HW2 3711   1.494   4.223   2.755 -1.1136  0.5664  0.0329
  764SOL     OW 3712   8.743   2.617   2.903 -0.8553  0.2266  0.0780
  764SOL    HW1 3713   8.674   2.551   2.905 -0.9977  0.2908 -1.7756
  764SOL    HW2 3714   8.808   2.586   2.966 -1.8964 -0.5662  0.7888
  765SOL     OW 3715   5.316   4.200   1.025  0.6103 -0.1128  0.0050
  765SOL    HW1 3716   5.259   4.130   1.057  1.0405  0.5304  2.3886
  765SOL    HW2 3717   5.292   4.211   0.933 -0.4102 -2.4321 -0.0700
  766SOL     OW 3718   5.199   8.517   0.079  0.0291  1.0813 -0.5181
  766SOL    HW1 3719   5.282   8.555   0.052  1.1670 -1.1602 -0.4522
  766SOL    HW2 3720   5.169   8.572   0.151  1.2066  2.2075 -0.8459
  767SOL     OW 3721   9.128   4.602   2.610 -0.0585  0.7799 -0.0371
  767SOL    HW1 3722   9.188   4.676   2.612  0.0284  0.7671 -1.3317
  767SOL    HW2 3723   9.044   4.638   2.640  0.3575  1.0141  0.8742
  768SOL     OW 3724   1.360   8.015   5.489 -0.2172 -0.5512 -0.3318
  768SOL    HW1 3725   1.328   8.013   5.399 -0.4125 -2.6594 -0.2702
  768SOL    HW2 3726   1.281   8.018   5.543 -0.0941  1.0718 -0.1937
  769SOL     OW 3727   2.556   3.933   3.704  0.3508 -0.5466 -0.3859
  769SOL    HW1 3728   2.479   3.986   3.723  0.3508 -1.0532  1.1804
  769SOL    HW2 3729   2.622   3.995   3.674 -0.4554 -0.0239 -1.1056
  770SOL     OW 3730   5.923   8.568   7.012 -0.5771 -0.3911 -0.0776
  770SOL    HW1 3731   5.904   8.501   7.078  1.5338 -2.2488 -1.2069
  770SOL    HW2 3732   5.840   8.615   7.001 -2.0578 -2.5213  1.1225
  771SOL     OW 3733   5.489   8.656   8.802  0.1234  0.7354 -0.3303
  771SOL    HW1 3734   5.580   8.686   8.797  0.1193  0.6378 -1.2626
  771SOL    HW2 3735   5.492   8.565   8.774 -0.0537  0.2501  1.1764
  772SOL     OW 3736   0.409   3.041   2.350  0.5813  0.1611 -0.1996
  772SOL    HW1 3737   0.433   2.961   2.397 -0.6716 -0.7639 -1.0759
  772SOL    HW2 3738   0.336   3.077   2.400  0.5861  0.2996 -0.2916
  773SOL     OW 3739   2.856   2.381   2.568  0.5181  0.4577 -0.2471
  773SOL    HW1 3740   2.904   2.424   2.497  0.5147  0.8754 -0.0026
  773SOL    HW2 3741   2.767   2.414   2.560  0.5455  0.6040  0.0240
  774SOL     OW 3742   0.183   2.566   4.455 -0.1261  0.7454 -0.3449
  774SOL    HW1 3743   0.180   2.472   4.469 -0.2191  0.5036 -1.7547
  774SOL    HW2 3744   0.273   2.584   4.428  0.0268  1.1506  0.4076
  775SOL     OW 3745   7.201   1.697   7.136 -0.4635 -1.0652 -0.0070
  775SOL    HW1 3746   7.283   1.674   7.181 -0.3265 -0.5562  0.0128
  775SOL    HW2 3747   7.213   1.664   7.047 -0.2528 -1.0399  0.0095
  776SOL     OW 3748   8.869   6.908   8.111  0.1566  0.1185 -0.0363
  776SOL    HW1 3749   8.846   6.829   8.160  2.0373  0.5379  1.6650
  776SOL    HW2 3750   8.897   6.971   8.177  0.4284  1.6039 -1.4819
  777SOL     OW 3751   8.520   1.072   6.361  0.2909  0.2013 -0.1419
  777SOL    HW1 3752   8.510   1.038   6.450  2.0479 -0.0133  0.0021
  777SOL    HW2 3753   8.500   0.998   6.305  1.0454 -0.2105  0.1215
  778SOL     OW 3754   0.971   8.383   3.336 -0.0939 -0.1342 -0.8367
  778SOL    HW1 3755   0.972   8.464   3.387 -3.0758 -0.2144 -0.4806
  778SOL    HW2 3756   0.938   8.410   3.250 -0.2949 -0.8440 -0.9853
  779SOL     OW 3757   7.444   2.441   5.499 -0.4690  0.4556  1.1536
  779SOL    HW1 3758   7.408   2.458   5.586 -3.5358  0.3146  0.0206
  779SOL    HW2 3759   7.394   2.498   5.441  0.2982 -0.7137 -0.7323
  780SOL     OW 3760   6.757   6.216   5.773 -0.1352 -0.1300  0.2825
  780SOL    HW1 3761   6.662   6.220   5.762 -0.1832  1.8564  1.1035
  780SOL    HW2 3762   6.773   6.133   5.819 -1.4610 -0.4183  0.2545
  781SOL     OW 3763   0.619   0.828   7.226  0.3915 -0.1457 -0.2388
  781SOL    HW1 3764   0.539   0.866   7.190  1.9303  1.8224 -1.8834
  781SOL    HW2 3765   0.616   0.736   7.199  0.1492  0.6276 -3.1901
  782SOL     OW 3766   5.046   6.560   2.844 -0.1029 -0.3192 -0.0921
  782SOL    HW1 3767   4.958   6.529   2.868 -0.0383 -0.3255  0.1335
  782SOL    HW2 3768   5.038   6.582   2.751 -0.0063 -1.5068 -0.3890
  783SOL     OW 3769   6.903   0.320   5.005  0.2736 -0.6967  0.6895
  783SOL    HW1 3770   6.855   0.265   4.945  2.3607 -1.7085 -0.1517
  783SOL    HW2 3771   6.859   0.405   5.001 -1.3527 -1.5407 -0.0485
  784SOL     OW 3772   0.795   8.370   4.580  0.4910  0.0658 -0.4195
  784SOL    HW1 3773   0.808   8.374   4.485 -0.2898 -2.5195 -0.7155
  784SOL    HW2 3774   0.821   8.281   4.604 -1.8518 -0.2354  1.3591
  785SOL     OW 3775   5.158   5.145   4.806 -0.5324  0.3841 -0.0576
  785SOL    HW1 3776   5.093   5.078   4.787  1.0107 -0.8167 -1.3208
  785SOL    HW2 3777   5.141   5.215   4.743  0.2624 -0.5750 -1.3879
  786SOL     OW 3778   8.600   4.873   7.449 -0.7062  0.6670  0.1024
  786SOL    HW1 3779   8.674   4.831   7.493 -1.4338 -1.2723 -0.4323
  786SOL    HW2 3780   8.627   4.964   7.441  1.7410  0.0030 -0.2516
  787SOL     OW 3781   6.612   6.194   0.419  0.1824 -0.2732 -0.5070
  787SOL    HW1 3782   6.676   6.264   0.416 -0.4258  0.2653 -1.2071
  787SOL    HW2 3783   6.565   6.207   0.501  1.7276 -1.3899  0.6239
  788SOL     OW 3784   8.811   4.094   7.567 -0.3840  0.0922 -0.2068
  788SOL    HW1 3785   8.795   4.000   7.567 -2.5872  0.3753 -1.8563
  788SOL    HW2 3786   8.852   4.111   7.482 -1.8381  0.8262 -0.7908
  789SOL     OW 3787   4.128   2.897   2.913  0.0504  0.4198  0.1871
  789SOL    HW1 3788   4.039   2.919   2.942  0.2935 -0.5455  1.7732
  789SOL    HW2 3789   4.165   2.847   2.985  1.0219 -1.3944 -1.4818
  790SOL     OW 3790   0.578   3.643   0.299  0.2856 -0.2774 -0.3491
  790SOL    HW1 3791   0.608   3.570   0.354 -0.1631 -1.6153 -1.8050
  790SOL    HW2 3792   0.494   3.669   0.337  0.0152 -1.1389 -0.3390
  791SOL     OW 3793   3.972   2.434   9.161 -0.0949  0.3064 -0.3643
  791SOL    HW1 3794   3.995   2.341   9.163 -0.2372  0.2263  2.7029
  791SOL    HW2 3795   4.044   2.475   9.115  2.2390 -0.8967  1.9452
  792SOL     OW 3796   6.410   2.031   8.094  0.4193 -0.0684 -0.0794
  792SOL    HW1 3797   6.387   2.122   8.074  0.2004 -0.3190 -1.0208
  792SOL    HW2 3798   6.490   2.038   8.146  1.1181  0.6398 -1.2012
  793SOL     OW 3799   2.995   8.146   1.190 -0.1379 -0.2663  0.1348
  793SOL    HW1 3800   2.912   8.169   1.150  0.5211  1.5989 -0.2467
  793SOL    HW2 3801   3.027   8.227   1.228  1.2758 -1.0618  0.7363
  794SOL     OW 3802   6.616   3.864   1.065 -0.1750 -0.2310 -0.2728
  794SOL    HW1 3803   6.591   3.843   1.155 -0.5408 -0.7429 -0.4855
  794SOL    HW2 3804   6.680   3.798   1.042 -0.0901 -0.1068 -0.3937
  795SOL     OW 3805   4.571   8.779   7.058 -0.0222  0.1125  0.3874
  795SOL    HW1 3806   4.638   8.808   7.120  2.3366 -2.7505 -0.6010
  795SOL    HW2 3807   4.605   8.806   6.972  0.2125 -1.8385 -0.1762
  796SOL     OW 3808   4.275   2.667   5.348 -0.0288 -0.2819  0.2937
  796SOL    HW1 3809   4.192   2.643   5.308  1.4002 -0.0909 -3.1207
  796SOL    HW2 3810   4.293   2.598   5.411 -1.8229 -1.3888 -0.3551
  797SOL     OW 3811   1.452   2.133   6.600  0.3952 -0.5248 -0.4472
  797SOL    HW1 3812   1.545   2.121   6.577  0.5250  0.9043 -0.7919
  797SOL    HW2 3813   1.454   2.201   6.668 -0.6504  4.4387 -4.7870
  798SOL     OW 3814   1.476   2.235   3.760  0.0640  0.4331 -0.1432
  798SOL    HW1 3815   1.413   2.166   3.735  0.6870  0.3435 -1.5334
  798SOL    HW2 3816   1.423   2.299   3.808 -0.8030 -0.3261 -0.0467
  799SOL     OW 3817   4.801   8.226   6.679  0.3006  0.2947 -0.0015
  799SOL    HW1 3818   4.816   8.310   6.637 -0.1406  0.5851  0.4187
  799SOL    HW2 3819   4.721   8.192   6.638 -0.7306  1.0542  1.3043
  800SOL     OW 3820   3.825   2.864   7.517  0.1892  0.4407 -0.4219
  800SOL    HW1 3821   3.910   2.905   7.500  0.8995 -0.4206  0.8135
  800SOL    HW2 3822   3.848   2.776   7.549 -1.1585  0.2995  0.2057
  801SOL     OW 3823   2.068   2.627   5.396  0.5784 -0.2356 -0.0435
  801SOL    HW1 3824   2.149   2.576   5.395  0.0293 -1.2936  2.4008
  801SOL    HW2 3825   2.011   2.584   5.332  0.3089 -2.5113  1.5995
  802SOL     OW 3826   5.262   5.466   0.739 -0.2016  0.6100  0.7832
  802SOL    HW1 3827   5.224   5.529   0.677  0.7940 -0.7172 -1.2794
  802SOL    HW2 3828   5.188   5.412   0.766 -0.5205  0.6978  0.1132
  803SOL     OW 3829   4.020   3.642   4.925 -0.2104 -0.3713  0.2745
  803SOL    HW1 3830   3.945   3.613   4.976 -1.8130  2.7206 -0.0405
  803SOL    HW2 3831   4.095   3.595   4.962 -1.5707  0.0601  4.0350
  804SOL     OW 3832   0.387   0.338   2.764 -0.4531 -0.3564  0.1455
  804SOL    HW1 3833   0.366   0.405   2.699  1.6582 -1.2441 -1.5728
  804SOL    HW2 3834   0.369   0.255   2.720  1.2113 -0.9901  0.5604
  805SOL     OW 3835   1.057   3.966   3.522  0.3327  0.2624 -0.1582
  805SOL    HW1 3836   1.027   4.056   3.509  0.3369  0.0980 -1.5091
  805SOL    HW2 3837   1.044   3.949   3.615 -1.0439  1.1694 -0.1540
  806SOL     OW 3838   3.200   2.029   4.477  0.2802 -0.2078  0.7722
  806SOL    HW1 3839   3.280   2.019   4.427 -0.4008  0.8972 -0.6161
  806SOL    HW2 3840   3.187   1.945   4.520  1.3213 -0.9207 -0.2734
  807SOL     OW 3841   3.484   5.658   7.305  0.2805 -0.0560 -0.3220
  807SOL    HW1 3842   3.564   5.676   7.255  0.4752 -0.2426 -0.0775
  807SOL    HW2 3843   3.428   5.734   7.288 -0.2959 -0.8183 -2.0993
  808SOL     OW 3844   7.669   3.702   4.851  0.2082 -0.2585 -0.0929
  808SOL    HW1 3845   7.666   3.738   4.940  0.1273  0.2584 -0.2988
  808SOL    HW2 3846   7.626   3.617   4.858 -1.0773  0.3832  0.0955
  809SOL     OW 3847   0.671   7.072   8.712 -0.4926  0.2733  0.5314
  809SOL    HW1 3848   0.628   7.132   8.652  0.5925  0.3277 -0.2161
  809SOL    HW2 3849   0.658   7.110   8.798 -1.1396  0.7637  0.2234
  810SOL     OW 3850   0.772   1.758   4.192 -0.3679  0.6927  0.3255
  810SOL    HW1 3851   0.793   1.686   4.133  1.0326 -0.2119  1.8802
  810SOL    HW2 3852   0.677   1.755   4.200 -0.4659 -0.0023 -0.8163
  811SOL     OW 3853   5.571   7.165   2.147  0.1266 -0.2658  1.0411
  811SOL    HW1 3854   5.494   7.222   2.153 -1.2200 -2.0279  1.2699
  811SOL    HW2 3855   5.564   7.109   2.224  3.0699  1.1460  2.4812
  812SOL     OW 3856   1.419   6.830   2.078 -0.3475  0.3844  0.0602
  812SOL    HW1 3857   1.487   6.826   2.145  1.0075 -1.2720 -1.3391
  812SOL    HW2 3858   1.421   6.745   2.035 -1.8750  1.0314 -1.4423
  813SOL     OW 3859   1.686   8.531   6.017 -0.0483 -0.2297 -0.1629
  813SOL    HW1 3860   1.650   8.568   6.098  0.7992 -0.1095  0.1688
  813SOL    HW2 3861   1.631   8.568   5.947 -0.4614  0.0748  0.3138
  814SOL     OW 3862   4.225   1.114   0.303  0.2824  0.1543  0.1809
  814SOL    HW1 3863   4.209   1.182   0.237  0.6861  2.6580  2.5029
  814SOL    HW2 3864   4.318   1.123   0.324  0.1895 -0.7203  1.0092
  815SOL     OW 3865   6.704   2.115   8.823  0.1847 -0.9961  0.1621
  815SOL    HW1 3866   6.755   2.153   8.894  0.7740 -1.8843  0.2354
  815SOL    HW2 3867   6.751   2.034   8.801 -1.0512 -1.7089  0.0612
  816SOL     OW 3868   3.638   5.122   2.415 -0.4494  0.0943 -0.8894
  816SOL    HW1 3869   3.727   5.156   2.421  0.1499 -1.1824 -1.9716
  816SOL    HW2 3870   3.643   5.053   2.349 -1.6164 -1.9363  0.9766
  817SOL     OW 3871   4.291   8.405   8.344 -0.5900 -0.4865  0.1446
  817SOL    HW1 3872   4.249   8.483   8.307  0.9680  0.6466  0.6468
  817SOL    HW2 3873   4.331   8.361   8.269  0.3727  0.4115  0.1011
  818SOL     OW 3874   5.851   8.758   2.192  0.7860  0.2336  0.2110
  818SOL    HW1 3875   5.902   8.683   2.223  0.8979  0.6085  0.9530
  818SOL    HW2 3876   5.807   8.726   2.113  0.5347 -0.7229  0.7243
  819SOL     OW 3877   4.017   0.014   2.624 -0.2852  0.0552  0.1014
  819SOL    HW1 3878   4.051   0.096   2.587 -1.6911  0.5203 -0.2222
  819SOL    HW2 3879   3.979  -0.032   2.549  0.0925 -0.6841  0.3647
  820SOL     OW 3880   2.389   0.236   3.151 -0.6829 -0.5547 -0.3756
  820SOL    HW1 3881   2.459   0.258   3.213 -1.5041 -0.2087  0.4435
  820SOL    HW2 3882   2.372   0.318   3.104 -0.0797 -0.8096 -1.0588
  821SOL     OW 3883   1.476   5.699   5.677  0.4142 -0.1546 -0.4509
  821SOL    HW1 3884   1.489   5.773   5.736 -0.7636  1.1669 -1.7666
  821SOL    HW2 3885   1.554   5.698   5.622  1.1095 -0.8435  0.5183
  822SOL     OW 3886   0.887   7.173   0.698 -0.3697  0.0723  0.6351
  822SOL    HW1 3887   0.842   7.200   0.618 -1.4140  1.4450  1.6313
  822SOL    HW2 3888   0.954   7.239   0.712 -1.1894  0.7265  1.6678
  823SOL     OW 3889   6.509   1.478   3.881  0.3834  0.7847 -0.3732
  823SOL    HW1 3890   6.600   1.510   3.885  0.7345 -0.1783 -0.2695
  823SOL    HW2 3891   6.463   1.542   3.827  1.6846  0.0514 -2.4796
  824SOL     OW 3892   8.297   7.471   4.953  0.0528 -0.3438 -0.4440
  824SOL    HW1 3893   8.360   7.413   4.910  1.4107 -0.7458  1.9081
  824SOL    HW2 3894   8.294   7.549   4.897  1.7390 -0.8098 -1.2450
  825SOL     OW 3895   2.274   7.979   3.954 -0.1623  0.5560 -0.6852
  825SOL    HW1 3896   2.193   8.002   4.001 -0.0319 -1.1815  0.4871
  825SOL    HW2 3897   2.247   7.973   3.862 -1.3229  0.2450 -0.3437
  826SOL     OW 3898   2.675   4.131   6.784  0.3586 -0.0509  0.2724
  826SOL    HW1 3899   2.693   4.143   6.877  0.2021  1.0802  0.1630
  826SOL    HW2 3900   2.703   4.212   6.742 -1.2564  0.1982 -0.4225
  827SOL     OW 3901   2.235   5.944   5.193 -0.1973  0.1991 -0.2437
  827SOL    HW1 3902   2.292   5.987   5.257 -1.8450  0.8366  0.8642
  827SOL    HW2 3903   2.239   6.000   5.116  2.1112 -0.7739 -0.9332
  828SOL     OW 3904   5.419   0.090   0.835 -0.4419  0.4710 -0.1088
  828SOL    HW1 3905   5.455   0.158   0.893  0.3156  0.7739 -0.9161
  828SOL    HW2 3906   5.460   0.106   0.751 -0.5191 -0.7910 -0.4052
  829SOL     OW 3907   1.206   3.457   5.867 -0.0598  0.4837  0.2771
  829SOL    HW1 3908   1.174   3.404   5.793 -0.4753  0.7494  0.2660
  829SOL    HW2 3909   1.149   3.433   5.940 -0.4919  1.1918  0.1770
  830SOL     OW 3910   3.803   4.411   4.136 -0.0456  0.3924  0.0763
  830SOL    HW1 3911   3.776   4.461   4.059 -0.2743  0.2204  0.0423
  830SOL    HW2 3912   3.721   4.394   4.182 -0.2991 -2.0527 -1.1566
  831SOL     OW 3913   4.031   5.589   3.864 -0.0053  1.0322 -0.2777
  831SOL    HW1 3914   4.074   5.505   3.853  1.2714  1.9086 -2.9242
  831SOL    HW2 3915   3.946   5.579   3.820 -0.2000  0.9037  0.1234
  832SOL     OW 3916   6.966   4.111   6.395 -0.3157 -0.1154  0.1688
  832SOL    HW1 3917   7.007   4.196   6.380  0.6094 -0.4213  0.8573
  832SOL    HW2 3918   6.906   4.126   6.469  1.6435 -0.5623  1.9393
  833SOL     OW 3919   4.062   3.482   5.753  0.7419 -0.2705  0.4472
  833SOL    HW1 3920   4.025   3.419   5.691  1.3570  0.3199 -0.5495
  833SOL    HW2 3921   4.050   3.567   5.711  3.0514 -0.0360  0.1517
  834SOL     OW 3922   1.191   2.153   5.201  0.6253 -0.0521 -0.2464
  834SOL    HW1 3923   1.239   2.235   5.185  0.4969 -0.2317 -1.7145
  834SOL    HW2 3924   1.258   2.092   5.232  0.6222  0.7361  1.4147
  835SOL     OW 3925   5.678   6.784   9.206  0.1695  0.0675 -0.1584
  835SOL    HW1 3926   5.757   6.805   9.255 -0.8299  1.0789  1.0969
  835SOL    HW2 3927   5.660   6.862   9.154 -0.7052  0.3749  0.5724
  836SOL     OW 3928   2.056   5.526   5.577  0.2959 -0.1079 -0.3102
  836SOL    HW1 3929   1.986   5.486   5.526  1.8034 -1.1773 -1.6307
  836SOL    HW2 3930   2.114   5.454   5.600  1.3834  0.8554  0.0824
  837SOL     OW 3931   0.211   1.053   5.819 -0.3835 -0.3249  0.0666
  837SOL    HW1 3932   0.246   0.964   5.818 -0.4052 -0.3416 -1.1143
  837SOL    HW2 3933   0.288   1.109   5.823 -0.3801 -0.3821  1.1472
  838SOL     OW 3934   6.438   0.869   3.015 -0.1239 -0.0763 -0.3419
  838SOL    HW1 3935   6.470   0.958   3.006  0.6046 -0.3323 -0.3416
  838SOL    HW2 3936   6.499   0.816   2.963 -1.0001 -0.4813 -1.0009
  839SOL     OW 3937   3.875   0.753   2.408  0.2464 -0.0411 -0.2383
  839SOL    HW1 3938   3.884   0.681   2.346  0.4252 -0.2550  0.0292
  839SOL    HW2 3939   3.788   0.743   2.445  0.2060 -0.0189 -0.3284
  840SOL     OW 3940   6.641   8.227   0.830 -0.8568 -0.7803 -0.1932
  840SOL    HW1 3941   6.679   8.203   0.746  0.8680 -0.3279  0.4132
  840SOL    HW2 3942   6.593   8.150   0.858  0.1864 -1.6375 -0.7021
  841SOL     OW 3943   8.400   1.405   7.506  0.0681  0.5119 -0.0037
  841SOL    HW1 3944   8.377   1.393   7.414 -1.7629 -0.8831  0.5665
  841SOL    HW2 3945   8.467   1.340   7.523  0.7765  1.1124 -0.4575
  842SOL     OW 3946   0.830   3.425   0.064 -0.2578 -0.2132  0.0551
  842SOL    HW1 3947   0.843   3.357   0.129  0.2293  0.8452  1.1040
  842SOL    HW2 3948   0.908   3.420   0.008 -0.6200 -1.0425 -0.3913
  843SOL     OW 3949   1.054   1.628   4.500  0.2924  0.1123 -0.6642
  843SOL    HW1 3950   1.050   1.684   4.578 -2.8118  0.0649 -0.6311
  843SOL    HW2 3951   1.037   1.688   4.427  3.0873  0.1410 -1.3985
  844SOL     OW 3952   2.935   1.293   3.617 -0.2839 -0.0978 -0.2134
  844SOL    HW1 3953   2.926   1.219   3.557  1.4162  0.2899 -1.0142
  844SOL    HW2 3954   2.991   1.260   3.687  2.9366  1.0847 -1.9890
  845SOL     OW 3955   5.267   8.177   0.308  0.0323  0.2012  0.3180
  845SOL    HW1 3956   5.336   8.243   0.321  1.3401 -0.6776 -1.6729
  845SOL    HW2 3957   5.198   8.223   0.261  1.6377 -0.1181 -2.5573
  846SOL     OW 3958   3.683   4.061   8.197 -0.5068  0.3298 -0.3108
  846SOL    HW1 3959   3.659   4.122   8.266  0.6395 -0.6881  1.0388
  846SOL    HW2 3960   3.688   3.976   8.240  1.0115 -0.2189 -1.4583
  847SOL     OW 3961   7.504   4.044   8.606 -0.1515  0.1152  0.6610
  847SOL    HW1 3962   7.521   4.083   8.692  1.6572  0.8737  0.0127
  847SOL    HW2 3963   7.543   4.105   8.544 -1.4711 -0.3869 -0.7394
  848SOL     OW 3964   7.904   3.679   1.381 -0.0095  0.1564  0.1235
  848SOL    HW1 3965   7.848   3.757   1.377 -1.9338 -1.1998 -0.6240
  848SOL    HW2 3966   7.976   3.699   1.320 -0.2406  1.4767  0.2401
  849SOL     OW 3967   4.888   3.406   1.993 -0.3355 -0.2225  0.6456
  849SOL    HW1 3968   4.970   3.455   2.003  0.1800 -0.4635 -1.7813
  849SOL    HW2 3969   4.911   3.316   2.018 -0.0442 -0.1379  0.6895
  850SOL     OW 3970   9.107   3.179   8.433 -0.0315 -0.3644  0.2415
  850SOL    HW1 3971   9.120   3.179   8.338 -1.5304  0.5099  0.0039
  850SOL    HW2 3972   9.187   3.218   8.468 -0.9270  2.8748 -0.9694
  851SOL     OW 3973   7.131   8.824   1.550 -0.2981 -0.4257 -0.2962
  851SOL    HW1 3974   7.164   8.801   1.463  0.8650  0.3263 -0.0782
  851SOL    HW2 3975   7.193   8.784   1.610 -0.4948 -0.0494  0.1598
  852SOL     OW 3976   8.452   8.836   3.114 -0.4380  0.1386 -0.5072
  852SOL    HW1 3977   8.456   8.893   3.037  1.2082  2.3688  1.0742
  852SOL    HW2 3978   8.539   8.797   3.120 -1.4666 -2.4763 -1.4096
  853SOL     OW 3979   4.127   6.780   5.660  0.3775  0.2601  0.4441
  853SOL    HW1 3980   4.214   6.778   5.699  1.1373  0.0162 -1.1644
  853SOL    HW2 3981   4.101   6.688   5.656  0.4596  0.2498  0.0817
  854SOL     OW 3982   1.267   6.970   5.297  0.0040 -0.0440 -0.2266
  854SOL    HW1 3983   1.356   7.002   5.280  0.4078 -0.5333  0.8576
  854SOL    HW2 3984   1.264   6.958   5.392 -2.4993  3.7678  0.4001
  855SOL     OW 3985   1.999   2.123   3.736  0.0403 -0.3588  0.0356
  855SOL    HW1 3986   2.018   2.206   3.779  2.2494  0.4936 -2.3924
  855SOL    HW2 3987   1.903   2.121   3.728 -0.0889  1.6194  0.7235
  856SOL     OW 3988   5.981   1.519   4.253 -0.7358  0.0632  0.0059
  856SOL    HW1 3989   6.054   1.465   4.285 -1.2647 -0.0531  1.0822
  856SOL    HW2 3990   5.908   1.458   4.248 -1.8937  0.9629  3.1998
  857SOL     OW 3991   4.649   3.001   0.346  0.0345 -0.0118 -0.3920
  857SOL    HW1 3992   4.632   3.064   0.276 -2.0947 -0.9855 -0.8455
  857SOL    HW2 3993   4.656   2.916   0.302  1.2827 -0.3255  0.3505
  858SOL     OW 3994   3.875   4.853   8.431 -0.0012 -0.2535  0.2402
  858SOL    HW1 3995   3.824   4.782   8.392 -0.0353  0.9906 -2.1627
  858SOL    HW2 3996   3.812   4.924   8.443  0.1368 -0.3890  2.1693
  859SOL     OW 3997   4.948   8.652   6.307 -0.1671 -0.1306 -0.4698
  859SOL    HW1 3998   4.929   8.579   6.247  0.2182 -0.1698 -0.5436
  859SOL    HW2 3999   4.896   8.632   6.386 -0.1408 -0.4326 -0.5281
  860SOL     OW 4000   7.715   4.978   1.410  0.1451  0.2219 -0.4512
  860SOL    HW1 4001   7.800   4.942   1.387 -0.5338 -0.9849 -1.2107
  860SOL    HW2 4002   7.667   4.981   1.327 -1.5081 -1.8276  0.3123
  861SOL     OW 4003   1.910   2.967   1.993 -0.4338 -0.6330  0.2794
  861SOL    HW1 4004   1.890   2.878   2.021  0.5992 -0.8255  0.4450
  861SOL    HW2 4005   1.995   2.987   2.034 -0.7734  0.5199  0.4607
  862SOL     OW 4006   4.451   1.439   9.005 -0.4404  0.4870 -0.0312
  862SOL    HW1 4007   4.519   1.378   8.975  0.3101  1.0944  0.3998
  862SOL    HW2 4008   4.462   1.442   9.100 -0.5579  1.1984 -0.0395
  863SOL     OW 4009   1.620   0.556   7.218  0.2335 -0.3167  0.0729
  863SOL    HW1 4010   1.533   0.566   7.180 -2.1289 -1.8761  4.3759
  863SOL    HW2 4011   1.634   0.637   7.267 -0.7327 -1.5348  2.5351
  864SOL     OW 4012   4.729   4.002   8.178  0.0350  0.0164 -0.1305
  864SOL    HW1 4013   4.735   3.972   8.268  1.1047  1.1748  0.2124
  864SOL    HW2 4014   4.665   4.073   8.180  0.8649  0.7794 -0.0557
  865SOL     OW 4015   7.505   5.395   8.508  0.4388  0.3076  0.4983
  865SOL    HW1 4016   7.505   5.329   8.438 -0.6142  1.5819 -0.7501
  865SOL    HW2 4017   7.588   5.440   8.498  1.5821 -1.3312  1.9281
  866SOL     OW 4018   2.945   6.302   6.435 -0.3978 -0.2111  0.1157
  866SOL    HW1 4019   2.962   6.389   6.472 -1.2071  0.2221 -0.5077
  866SOL    HW2 4020   2.850   6.294   6.435 -0.3737 -0.6555 -0.8334
  867SOL     OW 4021   6.547   5.745   3.504  0.1452  0.4880 -0.6741
  867SOL    HW1 4022   6.455   5.729   3.525 -0.1477  0.0481 -2.2266
  867SOL    HW2 4023   6.578   5.663   3.467  0.7803  1.0612 -1.4345
  868SOL     OW 4024   7.024   5.818   7.129 -0.3326 -0.3586  0.0779
  868SOL    HW1 4025   6.947   5.833   7.074  0.6925 -0.7381 -1.5234
  868SOL    HW2 4026   7.046   5.905   7.162 -0.3997  0.0650 -0.9379
  869SOL     OW 4027   3.711   3.251   7.296  0.3135 -0.0972  0.0708
  869SOL    HW1 4028   3.746   3.290   7.376  1.0090  2.2370 -1.2647
  869SOL    HW2 4029   3.625   3.292   7.284  1.1369  1.3066 -1.4608
  870SOL     OW 4030   1.217   4.000   6.533 -0.0007  0.2173  0.4679
  870SOL    HW1 4031   1.127   4.033   6.533 -1.4447 -3.2735 -0.4267
  870SOL    HW2 4032   1.223   3.947   6.612  1.9262  1.6701  1.3983
  871SOL     OW 4033   3.437   2.499   7.988 -0.1580 -0.5267 -0.2824
  871SOL    HW1 4034   3.365   2.548   8.027 -0.4164 -0.4214 -0.8828
  871SOL    HW2 4035   3.504   2.498   8.056 -0.5304 -0.1900  0.0986
  872SOL     OW 4036   2.746   7.284   7.597 -0.5458  0.8374  0.4029
  872SOL    HW1 4037   2.780   7.256   7.682  2.8931  2.0426 -0.3882
  872SOL    HW2 4038   2.719   7.375   7.611  1.1972  1.4485  0.0027
  873SOL     OW 4039   1.268   0.376   2.032  0.7069 -0.3906  0.7965
  873SOL    HW1 4040   1.256   0.370   2.126 -1.2430  1.5969  0.7625
  873SOL    HW2 4041   1.352   0.334   2.015  0.2608 -2.4076  3.1541
  874SOL     OW 4042   0.458   7.575   0.658  0.2374 -0.0700 -0.0800
  874SOL    HW1 4043   0.501   7.591   0.742 -1.4049 -0.3871  0.8711
  874SOL    HW2 4044   0.458   7.660   0.614  1.7349 -0.0507 -0.0844
  875SOL     OW 4045   1.639   0.630   8.867 -0.7756 -0.1426  0.3243
  875SOL    HW1 4046   1.612   0.698   8.928  2.9976  0.7614  1.2612
  875SOL    HW2 4047   1.669   0.558   8.923 -0.3520 -0.6482 -0.5229
  876SOL     OW 4048   5.535   1.378   0.867 -0.1873  0.3275 -0.0668
  876SOL    HW1 4049   5.594   1.359   0.940 -0.7147 -1.0314  0.0295
  876SOL    HW2 4050   5.447   1.361   0.901 -0.4468 -0.2272 -0.9640
  877SOL     OW 4051   1.546   3.662   5.116  0.0294  0.3567  0.1387
  877SOL    HW1 4052   1.473   3.696   5.063 -2.0914 -3.0256  0.5929
  877SOL    HW2 4053   1.541   3.712   5.198 -0.1731  1.8434 -0.7483
  878SOL     OW 4054   4.573   7.535   0.418 -0.1465 -0.1600 -0.1646
  878SOL    HW1 4055   4.560   7.503   0.508  2.8458  0.8331  0.7392
  878SOL    HW2 4056   4.645   7.482   0.384 -0.2318  0.5023 -1.4546
  879SOL     OW 4057   5.601   7.426   0.009  0.1034 -0.6939  0.2627
  879SOL    HW1 4058   5.592   7.379  -0.074 -0.5269  0.0845 -0.1192
  879SOL    HW2 4059   5.662   7.498  -0.011  0.4651 -0.8872  0.6478
  880SOL     OW 4060   1.419   5.609   6.799  0.4157 -0.6409  0.0943
  880SOL    HW1 4061   1.487   5.641   6.740  0.7228 -0.4010  0.5686
  880SOL    HW2 4062   1.396   5.685   6.852 -0.0500 -0.7835  0.1012
  881SOL     OW 4063   1.792   7.631   0.735 -0.0027  0.1711  0.0854
  881SOL    HW1 4064   1.748   7.598   0.656  1.0679  1.7026 -1.1987
  881SOL    HW2 4065   1.721   7.666   0.788 -0.7057 -0.5701 -0.3286
  882SOL     OW 4066   8.070   2.561   6.340 -0.0402 -0.3675  0.1140
  882SOL    HW1 4067   8.062   2.609   6.257 -2.1329 -0.3834  0.2350
  882SOL    HW2 4068   8.160   2.574   6.367 -0.1931  2.5221 -0.4583
  883SOL     OW 4069   0.997   3.714   6.398 -0.6881  0.0727  0.2028
  883SOL    HW1 4070   1.014   3.804   6.370 -1.2833 -0.2928 -1.4541
  883SOL    HW2 4071   1.045   3.660   6.334  2.0712 -0.8154  2.8143
  884SOL     OW 4072   2.207   4.228   3.140  0.0544  0.0601 -0.1311
  884SOL    HW1 4073   2.265   4.199   3.211 -0.3930 -3.0096 -0.8423
  884SOL    HW2 4074   2.246   4.190   3.061 -0.1791  2.2930 -1.3982
  885SOL     OW 4075   5.805   4.444   6.907 -0.0996  0.1494 -0.1601
  885SOL    HW1 4076   5.771   4.509   6.968  0.6710 -0.9539  1.5164
  885SOL    HW2 4077   5.739   4.375   6.906  1.2251 -1.2492  1.8638
  886SOL     OW 4078   5.877   6.844   7.460  0.0490 -0.5617 -0.2782
  886SOL    HW1 4079   5.947   6.910   7.462  1.2248 -1.7243 -1.0146
  886SOL    HW2 4080   5.920   6.763   7.490 -1.2258 -1.1154  0.1191
  887SOL     OW 4081   2.299   7.782   2.645 -0.6765 -0.0141 -0.0713
  887SOL    HW1 4082   2.270   7.764   2.735 -0.2652  2.3259  0.5978
  887SOL    HW2 4083   2.355   7.708   2.623 -1.8140 -1.2778  1.1009
  888SOL     OW 4084   4.550   6.781   6.694  0.4793  0.0413 -0.1273
  888SOL    HW1 4085   4.510   6.746   6.615 -1.1771  2.3444 -0.4207
  888SOL    HW2 4086   4.644   6.783   6.675  0.0724  1.2793 -2.4288
  889SOL     OW 4087   5.166   6.394   7.800  0.3102  0.5093  0.0554
  889SOL    HW1 4088   5.112   6.373   7.724  0.2343  1.7038 -0.2329
  889SOL    HW2 4089   5.163   6.314   7.854 -3.4404  1.1094  1.0641
  890SOL     OW 4090   7.932   4.755   8.010  0.4507 -0.4359 -0.3376
  890SOL    HW1 4091   7.893   4.795   7.932  0.3543  0.4877  0.1776
  890SOL    HW2 4092   7.869   4.770   8.079 -0.1298 -2.4973 -0.3437
  891SOL     OW 4093   3.665   8.388   3.084 -0.7309  0.0293 -0.1497
  891SOL    HW1 4094   3.668   8.332   3.162 -1.7570 -0.1002 -0.1863
  891SOL    HW2 4095   3.634   8.330   3.015  2.6191 -0.5515 -1.3229
  892SOL     OW 4096   4.492   5.106   8.204  0.4925 -0.5006 -0.0093
  892SOL    HW1 4097   4.425   5.172   8.185 -0.2879 -1.7509 -1.8897
  892SOL    HW2 4098   4.575   5.151   8.190  0.1085  0.9160  1.7926
  893SOL     OW 4099   8.164   2.295   8.981  0.3130  0.1315 -0.2017
  893SOL    HW1 4100   8.081   2.252   8.963 -0.4222  0.3770  2.3066
  893SOL    HW2 4101   8.182   2.277   9.073  1.4274  2.7561  0.1889
  894SOL     OW 4102   2.042   5.121   8.025 -0.3616  0.9948  0.3869
  894SOL    HW1 4103   2.004   5.092   7.941  1.1491 -1.0009  0.3162
  894SOL    HW2 4104   2.061   5.214   8.012  0.9114  0.4744 -1.9406
  895SOL     OW 4105   6.701   8.305   0.307  0.2126  0.7655  0.0192
  895SOL    HW1 4106   6.694   8.209   0.312 -0.5474  0.7530 -0.9871
  895SOL    HW2 4107   6.679   8.335   0.395  0.4831  0.0210  0.3544
  896SOL     OW 4108   3.754   8.823   9.143 -1.0925  0.1833  0.0542
  896SOL    HW1 4109   3.669   8.793   9.110 -0.9031 -0.9505  0.5689
  896SOL    HW2 4110   3.732   8.885   9.213 -1.4820  0.3913 -0.2444
  897SOL     OW 4111   2.065   3.555   4.546 -0.5192  0.3790  0.2228
  897SOL    HW1 4112   2.003   3.486   4.569 -0.1284 -1.1720 -2.8262
  897SOL    HW2 4113   2.140   3.541   4.604 -1.2134 -0.6020  0.9037
  898SOL     OW 4114   8.083   2.550   7.265 -0.3316  0.3625 -0.0129
  898SOL    HW1 4115   8.154   2.522   7.323 -0.9285  1.3413  1.2322
  898SOL    HW2 4116   8.123   2.618   7.210 -0.6969  2.2894  1.9603
  899SOL     OW 4117   5.235   7.077   7.868 -0.0762 -0.0862 -0.1408
  899SOL    HW1 4118   5.330   7.066   7.869 -0.1971 -1.2305 -0.0746
  899SOL    HW2 4119   5.218   7.149   7.928  0.7571  0.2403 -0.2844
  900SOL     OW 4120   0.560   8.776   2.003  0.2380  0.6135  0.2951
  900SOL    HW1 4121   0.533   8.856   2.049  1.9370  0.7411  1.1467
  900SOL    HW2 4122   0.493   8.712   2.026  0.1337  1.1504  1.5940
  901SOL     OW 4123   3.709   4.813   2.618  0.0428 -0.1390 -0.2789
  901SOL    HW1 4124   3.672   4.900   2.636  0.2642  0.4048 -2.2513
  901SOL    HW2 4125   3.633   4.758   2.601 -0.0274  0.0697 -0.6468
  902SOL     OW 4126   0.966   6.950   7.072  0.1912  0.6940  0.0447
  902SOL    HW1 4127   0.928   6.887   7.133  1.5059  0.9256  1.1607
  902SOL    HW2 4128   1.047   6.909   7.042  0.1156  1.0620 -0.6733
  903SOL     OW 4129   6.076   2.484   6.285  0.5653 -0.4005 -0.4492
  903SOL    HW1 4130   5.994   2.512   6.326  0.7792  1.3085 -1.1220
  903SOL    HW2 4131   6.053   2.403   6.239 -0.7375  0.0063 -0.5707
  904SOL     OW 4132   1.369   9.023   4.317  0.8656 -0.0623  0.3678
  904SOL    HW1 4133   1.312   8.948   4.332 -0.9979  1.1979 -0.0814
  904SOL    HW2 4134   1.391   9.018   4.224 -0.3247  0.6350  0.0355
  905SOL     OW 4135   1.856   3.329   4.023 -0.0573  0.2413  0.1343
  905SOL    HW1 4136   1.936   3.310   4.071  0.1716 -1.0993 -0.7160
  905SOL    HW2 4137   1.811   3.245   4.016 -0.5650  0.5883 -1.1009
  906SOL     OW 4138   7.432   8.244   4.849 -0.3922  0.3116 -0.2935
  906SOL    HW1 4139   7.517   8.205   4.833 -1.1673 -1.6896  0.2095
  906SOL    HW2 4140   7.449   8.338   4.856  1.8396 -0.0982  0.3824
  907SOL     OW 4141   1.689   7.582   6.275  0.5994 -0.0179  0.1477
  907SOL    HW1 4142   1.741   7.630   6.339  0.4627 -0.9351  0.9732
  907SOL    HW2 4143   1.671   7.498   6.317  0.3920 -0.5946 -1.0483
  908SOL     OW 4144   7.171   5.894   6.125  0.0379 -0.5260 -0.1297
  908SOL    HW1 4145   7.175   5.913   6.031 -0.7058 -0.0445 -0.0756
  908SOL    HW2 4146   7.247   5.938   6.162 -0.1747  0.0720 -0.3859
  909SOL     OW 4147   8.487   4.420   5.184 -0.2868  0.4829 -0.0222
  909SOL    HW1 4148   8.516   4.435   5.274  1.1553 -1.8580 -0.0071
  909SOL    HW2 4149   8.469   4.326   5.180 -1.8484  0.8050 -1.7897
  910SOL     OW 4150   9.062   4.599   2.345 -0.4202 -0.4947  0.5901
  910SOL    HW1 4151   9.098   4.614   2.433  1.4592 -0.3204 -0.1610
  910SOL    HW2 4152   9.109   4.523   2.313 -2.3593 -1.6403  0.3626
  911SOL     OW 4153   1.580   2.720   9.247 -0.5438  0.4330 -0.0211
  911SOL    HW1 4154   1.585   2.681   9.160 -2.1953 -1.3523  0.5999
  911SOL    HW2 4155   1.666   2.706   9.285  0.4319  1.8697 -1.5598
  912SOL     OW 4156   8.798   2.180   3.327  0.3504 -0.0961 -0.1640
  912SOL    HW1 4157   8.751   2.248   3.374  0.8135  0.8645 -1.0605
  912SOL    HW2 4158   8.882   2.172   3.373 -0.5457 -1.7162  1.3522
  913SOL     OW 4159   3.119   1.174   3.818 -0.0117  0.3108  0.0115
  913SOL    HW1 4160   3.062   1.154   3.893  1.6144  0.1601  1.2644
  913SOL    HW2 4161   3.122   1.093   3.767  0.1069 -0.0931  0.6495
  914SOL     OW 4162   4.691   2.769   4.392 -0.2244  0.2730  0.1439
  914SOL    HW1 4163   4.755   2.780   4.462  0.7418  1.3613 -0.8559
  914SOL    HW2 4164   4.711   2.839   4.330 -1.4912 -0.2288 -0.8883
  915SOL     OW 4165   5.169   5.590   1.841 -0.0978 -0.9089  0.0273
  915SOL    HW1 4166   5.258   5.587   1.806  0.4013  2.3936  0.6957
  915SOL    HW2 4167   5.116   5.544   1.776  1.8727 -1.7532 -1.0665
  916SOL     OW 4168   8.293   7.899   1.986  0.1897  0.1683 -0.2538
  916SOL    HW1 4169   8.219   7.908   1.926  1.0564 -1.4000 -1.6120
  916SOL    HW2 4170   8.370   7.900   1.930  1.1055 -0.0155  0.9644
  917SOL     OW 4171   2.177   4.852   1.478  0.3792  0.5532  0.7071
  917SOL    HW1 4172   2.270   4.829   1.477 -0.2806 -2.6539 -0.3730
  917SOL    HW2 4173   2.146   4.828   1.390 -1.9421 -1.0150  1.8704
  918SOL     OW 4174   4.146   9.113   5.695  0.4038  0.0330  0.2499
  918SOL    HW1 4175   4.210   9.044   5.675  0.8230  0.4470  0.1497
  918SOL    HW2 4176   4.121   9.097   5.786 -0.8207 -1.3058 -0.2798
  919SOL     OW 4177   9.129   6.128   6.106 -0.6199 -0.4838 -0.7087
  919SOL    HW1 4178   9.107   6.167   6.021 -0.6230 -1.2552 -1.0633
  919SOL    HW2 4179   9.224   6.132   6.110 -0.5358 -1.5629 -1.2950
  920SOL     OW 4180   2.460   4.714   5.433  0.2826  0.1609  0.1169
  920SOL    HW1 4181   2.486   4.790   5.381 -0.4810 -0.1693 -0.7572
  920SOL    HW2 4182   2.427   4.751   5.515  3.3050  0.6345  1.2834
  921SOL     OW 4183   0.350   3.507   2.416 -0.0969 -0.5239  0.2676
  921SOL    HW1 4184   0.415   3.438   2.430 -0.0886 -0.3902  0.9570
  921SOL    HW2 4185   0.402   3.584   2.390 -0.0889 -0.7179 -0.3056
  922SOL     OW 4186   3.908   1.853   6.737 -0.0781 -0.4346 -0.4991
  922SOL    HW1 4187   3.996   1.862   6.701  1.2820  0.4337  2.7167
  922SOL    HW2 4188   3.852   1.901   6.675  1.3328 -2.2638 -3.4340
  923SOL     OW 4189   8.937   8.760   8.401 -0.2755  0.0463  0.5001
  923SOL    HW1 4190   8.877   8.748   8.475  0.9563  1.5781  1.8290
  923SOL    HW2 4191   8.881   8.783   8.328 -1.3101  2.0477  1.8513
  924SOL     OW 4192   1.894   9.061   6.239 -0.2464 -0.1451  0.3009
  924SOL    HW1 4193   1.844   9.141   6.220 -0.9460 -0.7601 -0.4856
  924SOL    HW2 4194   1.897   9.057   6.335 -0.2708  0.7726  0.3527
  925SOL     OW 4195   2.705   6.497   0.709 -0.6809 -0.1876 -0.3829
  925SOL    HW1 4196   2.685   6.523   0.799  1.5137 -1.4160  0.5325
  925SOL    HW2 4197   2.739   6.576   0.668 -0.4787  0.0746  0.2741
  926SOL     OW 4198   3.586   6.261   1.881  0.2362  0.1742 -0.3352
  926SOL    HW1 4199   3.613   6.319   1.953  0.3108 -1.3247  0.8833
  926SOL    HW2 4200   3.659   6.263   1.820  0.2763  1.2933 -0.2772
  927SOL     OW 4201   2.022   2.820   3.474 -0.0338  0.2030  0.3624
  927SOL    HW1 4202   2.112   2.809   3.505 -0.0006 -0.5988  0.0125
  927SOL    HW2 4203   2.027   2.894   3.412  0.1813  0.8132  1.0897
  928SOL     OW 4204   1.964   8.277   5.757 -0.2593  0.0637 -0.0948
  928SOL    HW1 4205   1.965   8.246   5.848  1.2157 -0.0782 -0.1438
  928SOL    HW2 4206   1.991   8.369   5.763 -1.3728  0.4267 -0.2922
  929SOL     OW 4207   3.652   8.812   0.946  0.0180 -0.6482  0.1185
  929SOL    HW1 4208   3.597   8.852   0.879 -0.1501  1.8555  1.6511
  929SOL    HW2 4209   3.628   8.719   0.944 -1.9570 -0.1737 -1.3969
  930SOL     OW 4210   6.758   1.243   1.508 -0.1501 -0.4206 -0.7904
  930SOL    HW1 4211   6.785   1.329   1.475 -3.2872  1.1554  0.3245
  930SOL    HW2 4212   6.763   1.251   1.603  1.3451 -2.2078 -0.6662
  931SOL     OW 4213   0.699   8.665   3.831 -0.0604  0.3791  0.4915
  931SOL    HW1 4214   0.679   8.582   3.787 -1.4880  0.6674  0.5274
  931SOL    HW2 4215   0.791   8.658   3.857  0.2577 -0.5836 -0.8045
  932SOL     OW 4216   4.233   5.047   5.900 -0.0893 -0.1530  0.4751
  932SOL    HW1 4217   4.280   5.126   5.875  0.8619 -0.9693 -0.4376
  932SOL    HW2 4218   4.152   5.051   5.849  0.0427  0.1490  0.2805
  933SOL     OW 4219   7.875   0.921   6.014  0.7279  0.2866 -0.4060
  933SOL    HW1 4220   7.889   0.963   6.099 -1.4966 -0.3936  0.3852
  933SOL    HW2 4221   7.896   0.988   5.950 -1.5033  2.2660  0.7870
  934SOL     OW 4222   1.896   3.769   3.155 -0.0479  0.1124 -0.3649
  934SOL    HW1 4223   1.829   3.835   3.170  0.3538  0.4215  0.0910
  934SOL    HW2 4224   1.907   3.725   3.239  0.7891  0.5143 -0.2449
  935SOL     OW 4225   4.193   5.615   2.878 -0.3173  0.5627 -0.5085
  935SOL    HW1 4226   4.208   5.636   2.970 -0.4847  0.6295 -0.4950
  935SOL    HW2 4227   4.203   5.699   2.833  0.8488  0.3431 -0.6966
  936SOL     OW 4228   2.476   2.780   1.321 -0.6845 -0.2526 -0.5718
  936SOL    HW1 4229   2.512   2.866   1.341 -1.2591 -0.2867  0.7103
  936SOL    HW2 4230   2.491   2.769   1.227  0.8695  0.5393 -0.4400
  937SOL     OW 4231   3.520   6.140   9.045 -0.3911  0.2785 -0.0936
  937SOL    HW1 4232   3.615   6.148   9.054 -0.2271  1.5722 -2.1642
  937SOL    HW2 4233   3.498   6.060   9.092  1.5067  0.6865  1.6338
  938SOL     OW 4234   6.279   0.282   0.561  0.7369 -0.5896  0.0511
  938SOL    HW1 4235   6.331   0.349   0.515 -0.3358  0.6625  0.6034
  938SOL    HW2 4236   6.311   0.284   0.651 -0.7417  0.7577  0.5901
  939SOL     OW 4237   6.704   6.076   0.193  0.5970 -0.0814  0.0855
  939SOL    HW1 4238   6.770   6.145   0.181  0.4215  0.2325  0.8783
  939SOL    HW2 4239   6.647   6.109   0.262 -1.4889  0.4441 -1.7675
  940SOL     OW 4240   6.478   8.529   5.868  0.5354 -0.2742  0.0971
  940SOL    HW1 4241   6.393   8.550   5.831  0.9400  0.5583 -0.3998
  940SOL    HW2 4242   6.474   8.436   5.887 -0.5323 -0.2084  0.2178
  941SOL     OW 4243   5.026   7.954   0.650 -0.4442 -0.3558  0.2897
  941SOL    HW1 4244   5.084   8.026   0.677  2.5943 -2.2588 -0.7141
  941SOL    HW2 4245   5.034   7.952   0.555 -0.3298 -2.0806  0.3072
  942SOL     OW 4246   0.517   8.219   1.679  0.1044  0.4123  0.5190
  942SOL    HW1 4247   0.515   8.130   1.714  0.8575  0.5652  0.9788
  942SOL    HW2 4248   0.537   8.208   1.586 -1.7915  0.0035  0.1189
  943SOL     OW 4249   6.068   7.279   7.894  0.0762 -0.3188  0.1374
  943SOL    HW1 4250   5.982   7.243   7.874 -0.9480  1.3772  1.2769
  943SOL    HW2 4251   6.096   7.321   7.813 -0.3078 -0.5934 -0.1404
  944SOL     OW 4252   1.650   8.869   5.660 -0.0013 -0.3959 -0.3269
  944SOL    HW1 4253   1.705   8.834   5.730  0.5605 -0.2540 -0.6845
  944SOL    HW2 4254   1.591   8.930   5.704 -0.2782 -0.9953  0.1462
  945SOL     OW 4255   5.936   0.162   3.759  0.1594  0.2103  0.6786
  945SOL    HW1 4256   5.892   0.128   3.837  0.8614 -1.3019  0.4521
  945SOL    HW2 4257   5.865   0.198   3.705 -0.6091 -0.7135  1.0428
  946SOL     OW 4258   3.744   2.058   2.605  0.4602  0.4165 -0.6311
  946SOL    HW1 4259   3.792   1.975   2.609 -0.3013 -0.0199 -0.4672
  946SOL    HW2 4260   3.812   2.123   2.589  1.4891  0.1349  1.9639
  947SOL     OW 4261   5.468   2.760   1.399  0.0986  0.3067  0.1054
  947SOL    HW1 4262   5.450   2.688   1.338  3.1571  1.0785 -1.9450
  947SOL    HW2 4263   5.493   2.717   1.481  1.5149 -1.0447 -0.9695
  948SOL     OW 4264   3.900   8.046   4.586  0.2049  0.1655  0.3244
  948SOL    HW1 4265   3.868   8.017   4.672 -0.0597  0.1705  0.2273
  948SOL    HW2 4266   3.834   8.107   4.555 -0.4531 -0.9264 -0.5186
  949SOL     OW 4267   5.096   0.729   5.235 -0.1783  0.4762 -0.9096
  949SOL    HW1 4268   5.029   0.670   5.200  0.6031 -1.2948  0.4221
  949SOL    HW2 4269   5.177   0.701   5.194  0.2928  0.2023  0.1604
  950SOL     OW 4270   2.785   5.472   5.983 -0.4396  0.0743 -0.1433
  950SOL    HW1 4271   2.873   5.444   6.008 -0.7457 -0.8378 -0.0329
  950SOL    HW2 4272   2.789   5.483   5.888  0.1593  1.4489  0.0148
  951SOL     OW 4273   6.687   8.021   3.916  0.7467 -0.1259  0.0415
  951SOL    HW1 4274   6.696   8.066   4.000 -1.2750 -0.9603  0.7832
  951SOL    HW2 4275   6.751   8.062   3.859  1.5317  1.1029  1.7323
  952SOL     OW 4276   2.571   4.762   6.331  0.4674  0.1834  0.0682
  952SOL    HW1 4277   2.550   4.822   6.403 -0.2811  0.3578 -0.2844
  952SOL    HW2 4278   2.667   4.758   6.330  0.4991  0.6004  0.7258
  953SOL     OW 4279   0.377   5.866   4.203 -0.3610  0.0709 -0.2598
  953SOL    HW1 4280   0.286   5.879   4.230  0.2708 -1.2741  3.0766
  953SOL    HW2 4281   0.425   5.938   4.244 -0.0803  2.3958 -4.2304
  954SOL     OW 4282   7.680   3.282   2.924 -0.2507  0.3281 -0.7148
  954SOL    HW1 4283   7.675   3.192   2.891 -2.2014  0.4584 -0.9345
  954SOL    HW2 4284   7.723   3.331   2.854  2.9760 -0.7681  0.3365
  955SOL     OW 4285   6.610   1.035   3.822  0.4901 -0.0610 -0.2738
  955SOL    HW1 4286   6.541   1.036   3.756  1.5434  0.9719 -1.4169
  955SOL    HW2 4287   6.626   0.942   3.839 -1.3358 -0.3152  0.2238
  956SOL     OW 4288   8.102   3.088   7.177 -0.3776 -0.1508 -0.0316
  956SOL    HW1 4289   8.052   3.010   7.152  0.0798 -0.2807 -0.5579
  956SOL    HW2 4290   8.088   3.149   7.105 -0.0944 -0.0400  0.0086
  957SOL     OW 4291   0.939   3.332   0.644  0.0789 -0.3868 -0.2369
  957SOL    HW1 4292   1.033   3.349   0.653 -0.3432  2.6949 -0.4266
  957SOL    HW2 4293   0.905   3.341   0.733 -0.0822 -1.2331 -0.2088
  958SOL     OW 4294   8.198   5.397   6.034 -0.0869 -0.2019  0.6787
  958SOL    HW1 4295   8.173   5.349   6.113  0.6700 -1.6520  0.0633
  958SOL    HW2 4296   8.287   5.428   6.051 -0.8945  1.8817  1.4480
  959SOL     OW 4297   4.590   8.617   6.655  0.4502  0.6779  0.2607
  959SOL    HW1 4298   4.538   8.566   6.717 -0.1334  1.4986  0.4735
  959SOL    HW2 4299   4.531   8.630   6.580  1.5351 -1.2768 -0.9955
  960SOL     OW 4300   2.148   6.951   3.460 -0.0127 -0.0750  0.7570
  960SOL    HW1 4301   2.072   6.911   3.417  0.3926 -0.5517  0.4681
  960SOL    HW2 4302   2.213   6.881   3.463  0.8381  0.6452 -0.0676
  961SOL     OW 4303   9.269   8.572   2.512 -0.1695  0.1333  0.2048
  961SOL    HW1 4304   9.197   8.606   2.565 -0.9270 -0.0209 -0.6989
  961SOL    HW2 4305   9.240   8.585   2.422  0.2565 -1.3556 -0.1640
  962SOL     OW 4306   5.097   2.025   2.330  0.0469  0.4313 -0.8804
  962SOL    HW1 4307   5.142   1.985   2.256  0.6458  0.5646 -0.5933
  962SOL    HW2 4308   5.119   2.118   2.325 -0.4683  0.5527 -0.9276
  963SOL     OW 4309   3.901   6.163   0.555  0.5337 -0.0742  0.0636
  963SOL    HW1 4310   3.981   6.189   0.601  0.7752  0.2403 -0.5157
  963SOL    HW2 4311   3.875   6.081   0.596 -0.7201  1.4488  2.5281
  964SOL     OW 4312   6.737   4.025   0.825  0.2290  0.6312  0.0570
  964SOL    HW1 4313   6.829   4.051   0.821 -0.1006  1.7884 -0.2787
  964SOL    HW2 4314   6.737   3.949   0.884  1.5388 -0.1067 -0.8274
  965SOL     OW 4315   0.995   0.937   1.253  0.1233  0.1901 -1.0756
  965SOL    HW1 4316   0.936   0.995   1.301  0.0893 -1.3583  0.8933
  965SOL    HW2 4317   0.936   0.877   1.206 -0.0707 -2.1148  1.8197
  966SOL     OW 4318   8.209   8.043   4.313 -0.1520  0.6655  0.0926
  966SOL    HW1 4319   8.215   8.028   4.218 -1.1475  1.2087 -0.0619
  966SOL    HW2 4320   8.124   8.083   4.326 -0.2679  0.0717  1.3023
  967SOL     OW 4321   0.998   4.917   0.793  0.1465 -0.5994  0.1498
  967SOL    HW1 4322   1.003   4.964   0.709 -1.0094  0.0341  0.4245
  967SOL    HW2 4323   0.918   4.865   0.787  0.5175 -1.2336  0.5325
  968SOL     OW 4324   0.388   3.116   6.188  0.5797 -0.1715  0.0513
  968SOL    HW1 4325   0.294   3.102   6.174  1.1681 -3.3116 -1.4040
  968SOL    HW2 4326   0.414   3.047   6.249  1.9841  0.6296  0.3970
  969SOL     OW 4327   4.182   5.281   5.338  0.2001 -0.2226  0.0241
  969SOL    HW1 4328   4.157   5.243   5.422  0.4053  0.4349  0.3874
  969SOL    HW2 4329   4.236   5.356   5.361  2.0640 -1.2751 -0.7336
  970SOL     OW 4330   7.313   8.668   8.911 -0.2027 -0.5025  0.1478
  970SOL    HW1 4331   7.248   8.664   8.981 -1.2601 -0.3611 -0.8004
  970SOL    HW2 4332   7.393   8.634   8.951 -0.2681  1.2667  1.9772
  971SOL     OW 4333   8.002   4.679   7.649 -0.7351  0.4195  0.1422
  971SOL    HW1 4334   7.933   4.722   7.599  0.1045  1.0041 -0.5433
  971SOL    HW2 4335   8.084   4.709   7.609 -0.0846 -2.1010 -0.6414
  972SOL     OW 4336   8.653   4.530   4.377  0.2425 -0.0056 -0.2305
  972SOL    HW1 4337   8.719   4.497   4.439  0.3202 -2.1436 -1.3462
  972SOL    HW2 4338   8.629   4.453   4.326  0.0357  1.6368 -2.7366
  973SOL     OW 4339   7.297   0.930   6.389 -0.5263  0.7390 -0.5243
  973SOL    HW1 4340   7.223   0.871   6.402 -0.3319  0.3041 -1.3451
  973SOL    HW2 4341   7.294   0.953   6.296 -0.2471  1.5545 -0.3401
  974SOL     OW 4342   4.650   3.116   8.524  0.3276  0.0742  0.2076
  974SOL    HW1 4343   4.618   3.205   8.537  0.3127  0.5953 -2.8257
  974SOL    HW2 4344   4.594   3.080   8.455  2.2903 -1.1749 -0.8080
  975SOL     OW 4345   0.032   6.924   3.997 -0.4688  0.3316 -0.1011
  975SOL    HW1 4346  -0.030   6.934   4.070 -0.1214  1.2591  0.0808
  975SOL    HW2 4347   0.116   6.948   4.034 -0.1226 -0.1483 -0.5611
  976SOL     OW 4348   3.705   1.631   0.639 -0.5418  0.4302  0.0110
  976SOL    HW1 4349   3.775   1.575   0.673 -1.5434 -0.4105  0.7706
  976SOL    HW2 4350   3.626   1.578   0.649 -1.7133  2.4062  1.8220
  977SOL     OW 4351   7.801   7.856   8.688  0.5228  0.3968 -0.0935
  977SOL    HW1 4352   7.850   7.774   8.696  0.2959  0.2433 -0.2455
  977SOL    HW2 4353   7.718   7.838   8.731 -0.0309  0.1247 -1.2505
  978SOL     OW 4354   3.296   8.487   2.240  0.0295 -0.0961 -0.3193
  978SOL    HW1 4355   3.225   8.424   2.224 -1.2033  0.6200  1.9865
  978SOL    HW2 4356   3.253   8.572   2.240  0.4636  0.2446  2.7920
  979SOL     OW 4357   8.055   3.292   2.092  0.3360 -0.0373  0.6753
  979SOL    HW1 4358   7.970   3.312   2.052  0.9751  0.1798 -0.5854
  979SOL    HW2 4359   8.085   3.213   2.048 -0.0511 -1.2422  2.4521
  980SOL     OW 4360   2.863   5.334   6.702 -0.0225 -0.1492 -0.5490
  980SOL    HW1 4361   2.944   5.321   6.752  0.6420  0.5893 -1.3987
  980SOL    HW2 4362   2.854   5.429   6.698 -0.5598 -0.2245 -1.0614
  981SOL     OW 4363   7.934   8.329   7.046 -0.4553 -0.0744 -0.2365
  981SOL    HW1 4364   7.848   8.348   7.008 -0.4319  1.7891  0.5409
  981SOL    HW2 4365   7.914   8.286   7.129 -0.6161 -0.0328 -0.2515
  982SOL     OW 4366   8.096   0.329   1.682  0.8033 -0.0446  0.7285
  982SOL    HW1 4367   8.012   0.356   1.719 -0.0057 -1.5457  0.0819
  982SOL    HW2 4368   8.119   0.249   1.729  0.9067 -0.6839 -0.3606
  983SOL     OW 4369   3.177   4.223   1.429  0.1655 -0.2617 -0.3244
  983SOL    HW1 4370   3.102   4.186   1.381 -0.2950  1.4521 -0.9822
  983SOL    HW2 4371   3.162   4.197   1.520  0.8114 -3.1918 -0.9322
  984SOL     OW 4372   0.163   0.832   7.894  0.2493  0.6774 -0.3925
  984SOL    HW1 4373   0.083   0.780   7.889  0.5237  0.1287  0.5414
  984SOL    HW2 4374   0.133   0.918   7.923 -0.1385  0.8648 -1.3225
  985SOL     OW 4375   6.482   2.761   7.672 -0.3253  0.1741  0.2958
  985SOL    HW1 4376   6.429   2.813   7.611 -1.7360  0.2536  1.5237
  985SOL    HW2 4377   6.536   2.826   7.718 -1.6946  0.5502  1.4480
  986SOL     OW 4378   2.634   8.446   8.525 -0.5611  0.1047 -0.4496
  986SOL    HW1 4379   2.578   8.432   8.602 -1.3434  1.7789 -0.6854
  986SOL    HW2 4380   2.585   8.405   8.453  0.0044 -1.1495 -0.1415
  987SOL     OW 4381   3.236   6.321   4.027  0.2996 -0.2262 -0.4336
  987SOL    HW1 4382   3.329   6.338   4.044 -0.1353  2.5735 -0.4676
  987SOL    HW2 4383   3.228   6.326   3.932  0.1919 -1.0575 -0.4745
  988SOL     OW 4384   7.397   2.558   3.164 -0.4342 -0.2246  0.1743
  988SOL    HW1 4385   7.455   2.635   3.163 -1.1000  0.2856 -0.4728
  988SOL    HW2 4386   7.430   2.504   3.236  0.9696 -0.0414 -0.2876
  989SOL     OW 4387   6.856   7.447   3.761 -0.0978 -0.6363 -0.3502
  989SOL    HW1 4388   6.875   7.432   3.853  0.0341 -0.6777 -0.3830
  989SOL    HW2 4389   6.876   7.363   3.718 -0.6253 -0.7632 -0.3471
  990SOL     OW 4390   8.338   3.279   1.656  0.2273  0.8327  0.1608
  990SOL    HW1 4391   8.364   3.341   1.589  3.1340  0.7025  1.0305
  990SOL    HW2 4392   8.319   3.198   1.608  2.6042  0.6321 -0.5466
  991SOL     OW 4393   5.942   0.528   2.019 -0.4241  0.2449 -0.0999
  991SOL    HW1 4394   5.906   0.490   2.099  0.5328 -0.2997  0.0945
  991SOL    HW2 4395   5.872   0.520   1.954 -1.0745  0.3402  0.5775
  992SOL     OW 4396   2.870   4.131   0.000 -0.8227  0.0196 -0.2141
  992SOL    HW1 4397   2.844   4.051  -0.046  1.7171 -0.8361 -0.3024
  992SOL    HW2 4398   2.915   4.183  -0.066  1.4980 -0.5346  0.8250
  993SOL     OW 4399   7.130   1.039   8.100  0.0633 -0.2604 -0.1326
  993SOL    HW1 4400   7.178   1.112   8.061 -1.1359 -0.0893 -1.3721
  993SOL    HW2 4401   7.078   1.079   8.169 -1.4130  0.3105 -1.5057
  994SOL     OW 4402   8.494   7.155   2.813  0.2946  0.1400  0.6558
  994SOL    HW1 4403   8.435   7.114   2.876  1.4427  1.2945  2.5942
  994SOL    HW2 4404   8.581   7.126   2.839  0.8354  0.9277 -0.1929
  995SOL     OW 4405   0.208   2.743   4.059 -0.2164  0.3617  0.1993
  995SOL    HW1 4406   0.148   2.671   4.039  0.4230  0.0639 -0.7023
  995SOL    HW2 4407   0.235   2.777   3.973  1.7617 -0.2361  0.5401
  996SOL     OW 4408   2.981   0.929   2.095  0.5459 -0.3465  0.4438
  996SOL    HW1 4409   2.986   0.992   2.167  2.7429 -1.2939  1.1951
  996SOL    HW2 4410   3.072   0.907   2.076  0.0540  0.1127 -2.9097
  997SOL     OW 4411   8.065   7.621   1.761  0.4744 -0.2772 -0.2810
  997SOL    HW1 4412   8.134   7.652   1.702  0.2667 -0.5123 -0.6518
  997SOL    HW2 4413   8.082   7.665   1.844  0.2025  0.8123 -0.7908
  998SOL     OW 4414   6.860   6.123   3.319  0.4490  0.1187  0.0281
  998SOL    HW1 4415   6.944   6.077   3.316  0.0768 -0.5604 -0.2307
  998SOL    HW2 4416   6.796   6.054   3.338 -0.1304  0.5089 -0.4854
  999SOL     OW 4417   6.975   1.255   4.853 -0.1756 -0.2135  0.5487
  999SOL    HW1 4418   6.993   1.161   4.849  0.3558 -0.0853 -0.2005
  999SOL    HW2 4419   6.882   1.263   4.831 -0.6486 -0.6879  2.2267
 1000SOL     OW 4420   3.767   0.252   9.139  0.0626 -0.4079  0.7280
 1000SOL    HW1 4421   3.688   0.228   9.091 -0.8987 -0.8706  2.4583
 1000SOL    HW2 4422   3.828   0.281   9.071 -1.9512  1.0613 -0.5674
 1001SOL     OW 4423   1.638   5.968   8.003 -0.6797  0.0006  0.2533
 1001SOL    HW1 4424   1.588   6.049   8.015 -1.0750 -0.1438 -0.3873
 1001SOL    HW2 4425   1.690   5.960   8.083 -0.1043  1.2558  0.0284
 1002SOL     OW 4426   9.051   1.901   0.371 -0.6837  0.2175  0.6298
 1002SOL    HW1 4427   9.103   1.830   0.409  1.4197  0.4848 -1.4990
 1002SOL    HW2 4428   9.004   1.939   0.445  0.2936 -1.6121  2.2851
 1003SOL     OW 4429   9.243   1.600   3.592 -0.0869 -0.4333 -0.4268
 1003SOL    HW1 4430   9.267   1.657   3.665 -0.9325  0.0511 -0.5033
 1003SOL    HW2 4431   9.275   1.514   3.616  1.3032  0.0824 -0.3448
 1004SOL     OW 4432   3.440   8.141   7.748 -0.4268  0.4310  0.4951
 1004SOL    HW1 4433   3.498   8.214   7.724 -1.1899  0.8861 -0.0191
 1004SOL    HW2 4434   3.360   8.158   7.699 -0.6283 -0.7503  0.3937
 1005SOL     OW 4435   0.347   6.651   0.123 -0.1977 -0.5573 -0.2258
 1005SOL    HW1 4436   0.343   6.556   0.139  1.8063 -0.4669  1.2193
 1005SOL    HW2 4437   0.294   6.688   0.193 -2.5425 -0.5990 -1.8639
 1006SOL     OW 4438   7.187   8.759   1.305  0.2083 -0.1394 -0.4092
 1006SOL    HW1 4439   7.264   8.787   1.257  0.7305  0.0370  0.5090
 1006SOL    HW2 4440   7.192   8.664   1.307 -0.0012 -0.1698 -0.9811
 1007SOL     OW 4441   6.144   2.364   2.845  0.0813  0.4616 -0.1274
 1007SOL    HW1 4442   6.224   2.397   2.887  0.3343  1.4845 -1.3299
 1007SOL    HW2 4443   6.078   2.364   2.915  1.6191 -2.7147  1.5423
 1008SOL     OW 4444   4.183   5.545   5.931  0.3444  0.3146 -0.0514
 1008SOL    HW1 4445   4.196   5.559   6.025  1.6495  0.9991 -0.3164
 1008SOL    HW2 4446   4.183   5.633   5.894 -2.1921  0.2151 -0.4948
 1009SOL     OW 4447   7.785   2.099   0.417  0.4379  0.2482 -0.2785
 1009SOL    HW1 4448   7.824   2.179   0.450 -0.4207  1.1918 -1.4764
 1009SOL    HW2 4449   7.797   2.036   0.488  2.2705  1.0464  0.1922
 1010SOL     OW 4450   4.649   6.886   7.650 -0.4628  0.3643  0.3943
 1010SOL    HW1 4451   4.733   6.902   7.606 -1.0424 -1.0523 -1.3505
 1010SOL    HW2 4452   4.641   6.790   7.652 -2.6560  0.4602 -0.7804
 1011SOL     OW 4453   6.728   4.634   3.406  0.0699 -0.3819  0.0512
 1011SOL    HW1 4454   6.652   4.622   3.463  0.6594 -2.5173  0.4961
 1011SOL    HW2 4455   6.794   4.676   3.462  0.8945 -3.0957  1.3015
 1012SOL     OW 4456   6.946   2.330   7.824  0.3721 -0.2233  1.0244
 1012SOL    HW1 4457   7.037   2.309   7.805  0.5055 -1.7169  2.9119
 1012SOL    HW2 4458   6.900   2.247   7.816 -0.7488  0.4153  0.5801
 1013SOL     OW 4459   4.547   2.892   1.889  0.2170 -0.0816 -0.6592
 1013SOL    HW1 4460   4.535   2.874   1.983 -1.0591  0.5188 -0.6879
 1013SOL    HW2 4461   4.563   2.806   1.850 -0.5526 -0.4967 -0.0703
 1014SOL     OW 4462   6.409   3.008   4.290  0.2578 -0.3183 -0.0384
 1014SOL    HW1 4463   6.368   3.052   4.215  0.8999 -0.2990 -0.3880
 1014SOL    HW2 4464   6.450   2.930   4.252  0.0625 -0.6347  0.3974
 1015SOL     OW 4465   2.200   5.196   3.871  0.0087  0.6953  0.0606
 1015SOL    HW1 4466   2.184   5.106   3.845  0.7647  0.6818 -0.4085
 1015SOL    HW2 4467   2.258   5.231   3.803  0.5358  1.2271  0.7626
 1016SOL     OW 4468   7.617   3.003   0.738 -0.4978  0.0205 -0.3174
 1016SOL    HW1 4469   7.625   3.095   0.761 -0.4730 -0.4674  1.8600
 1016SOL    HW2 4470   7.628   3.000   0.643 -1.0237  2.2978 -0.4881
 1017SOL     OW 4471   2.502   0.786   8.712 -0.0051 -0.0149  0.3984
 1017SOL    HW1 4472   2.422   0.743   8.684 -1.5158  1.8428  1.6566
 1017SOL    HW2 4473   2.533   0.833   8.634 -0.2157 -0.6055 -0.0424
 1018SOL     OW 4474   5.976   4.194   8.265  0.7709 -0.0410 -0.0820
 1018SOL    HW1 4475   5.903   4.215   8.322  0.5752 -0.3056 -0.2341
 1018SOL    HW2 4476   6.046   4.165   8.324  0.5828 -0.2784  0.0251
 1019SOL     OW 4477   0.791   5.640   4.933  0.1791 -0.0441  0.0121
 1019SOL    HW1 4478   0.846   5.568   4.964  1.6995 -0.0046 -2.3194
 1019SOL    HW2 4479   0.851   5.715   4.928 -0.8097  0.7792  0.1256
 1020SOL     OW 4480   5.651   2.867   2.022  0.3608 -0.3301  0.6017
 1020SOL    HW1 4481   5.607   2.934   2.074 -1.7970 -1.6402  0.5822
 1020SOL    HW2 4482   5.712   2.916   1.966 -1.7650  1.7472 -0.0797
 1021SOL     OW 4483   9.135   7.052   4.965  0.6832  0.2726 -0.2818
 1021SOL    HW1 4484   9.090   7.022   4.885  1.9789  0.8720 -1.2689
 1021SOL    HW2 4485   9.105   7.143   4.975 -0.9308 -0.3572  1.0186
 1022SOL     OW 4486   6.374   3.289   1.303 -0.0292  0.1940  0.0169
 1022SOL    HW1 4487   6.324   3.254   1.229  2.8480 -1.9944 -1.0650
 1022SOL    HW2 4488   6.404   3.375   1.272 -0.2551  0.0345 -0.6706
 1023SOL     OW 4489   6.960   0.883   5.721  0.2999  0.1369  0.0924
 1023SOL    HW1 4490   6.971   0.798   5.677 -0.5692  0.3864 -0.6353
 1023SOL    HW2 4491   6.993   0.947   5.657  0.9660  0.3540  0.6440
 1024SOL     OW 4492   0.025   4.326   1.320 -0.3352  0.3120 -0.7737
 1024SOL    HW1 4493  -0.004   4.382   1.248 -1.2617  0.1621 -0.5408
 1024SOL    HW2 4494  -0.055   4.310   1.371  0.4193  0.9742  0.6896
 1025SOL     OW 4495   0.762   7.215   8.355  0.7602 -0.4247 -0.2968
 1025SOL    HW1 4496   0.793   7.295   8.311  0.4262 -0.7177 -1.0785
 1025SOL    HW2 4497   0.672   7.235   8.380  1.3798  0.2668  1.5858
 1026SOL     OW 4498   6.140   8.228   0.882  0.1937 -0.3457  0.6798
 1026SOL    HW1 4499   6.152   8.210   0.789  0.3551 -0.3778  0.7077
 1026SOL    HW2 4500   6.127   8.323   0.887 -0.7183 -0.4512  0.5249
 1027SOL     OW 4501   8.222   4.163   8.928 -0.4470 -0.3959 -0.0991
 1027SOL    HW1 4502   8.246   4.079   8.890  1.6646 -0.1448  0.5318
 1027SOL    HW2 4503   8.146   4.144   8.984 -0.1727 -1.8141 -0.1848
 1028SOL     OW 4504   6.385   2.646   5.462  0.0190  0.6747 -0.3269
 1028SOL    HW1 4505   6.303   2.615   5.423  0.6012  0.1647 -1.1783
 1028SOL    HW2 4506   6.449   2.638   5.392  0.8190  0.9965  0.3540
 1029SOL     OW 4507   4.661   2.776   3.192 -0.4456  0.4126  0.3562
 1029SOL    HW1 4508   4.725   2.732   3.249  0.2525  0.3303 -0.4705
 1029SOL    HW2 4509   4.595   2.709   3.173 -1.5091  0.8497  2.2494
 1030SOL     OW 4510   5.896   0.990   7.138 -0.3233 -0.0691  0.0915
 1030SOL    HW1 4511   5.885   0.956   7.050  1.9423 -1.2380  0.1678
 1030SOL    HW2 4512   5.948   1.070   7.127 -0.1800 -0.1259  0.3323
 1031SOL     OW 4513   9.230   2.927   6.640 -0.8085 -0.2458  0.6470
 1031SOL    HW1 4514   9.137   2.912   6.622 -0.8409  1.0485 -0.4522
 1031SOL    HW2 4515   9.272   2.843   6.620 -1.5699 -0.4378 -0.2541
 1032SOL     OW 4516   2.616   7.936   1.206 -0.3927  0.2501  0.0522
 1032SOL    HW1 4517   2.615   8.001   1.277  0.3931  0.6435 -0.2863
 1032SOL    HW2 4518   2.709   7.918   1.192 -0.5880 -0.5656 -0.2090
 1033SOL     OW 4519   5.736   6.608   6.439 -0.6595 -0.2124  0.2879
 1033SOL    HW1 4520   5.828   6.582   6.444 -0.8854 -0.8593  1.3123
 1033SOL    HW2 4521   5.709   6.580   6.351  0.4814  1.3070 -0.6110
 1034SOL     OW 4522   0.480   3.154   1.440 -0.4206  0.3823  0.2556
 1034SOL    HW1 4523   0.510   3.131   1.352 -3.3817 -0.7943 -0.5815
 1034SOL    HW2 4524   0.440   3.240   1.431  1.8621  1.6236  1.1983
 1035SOL     OW 4525   7.104   7.562   7.735 -0.8588 -0.3707  0.5735
 1035SOL    HW1 4526   7.187   7.605   7.715  0.4413 -2.3841  1.3919
 1035SOL    HW2 4527   7.110   7.538   7.828 -2.1289 -1.0490  0.5121
 1036SOL     OW 4528   4.388   0.333   4.689 -0.1424  0.7833  0.2902
 1036SOL    HW1 4529   4.368   0.259   4.747  0.7453 -0.4252 -0.9017
 1036SOL    HW2 4530   4.349   0.310   4.605  1.7699  0.7483 -0.6444
 1037SOL     OW 4531   1.334   4.216   7.117 -0.1124  0.1776  0.0786
 1037SOL    HW1 4532   1.387   4.254   7.047 -0.7913 -0.5911 -0.8720
 1037SOL    HW2 4533   1.313   4.291   7.173  2.9623  0.3407  1.2149
 1038SOL     OW 4534   0.340   8.732   7.269 -0.4534 -0.2678  0.2247
 1038SOL    HW1 4535   0.352   8.695   7.181 -2.5660  1.1857 -0.7768
 1038SOL    HW2 4536   0.293   8.664   7.317 -0.9381 -0.3801 -0.3916
 1039SOL     OW 4537   1.069   3.349   6.077  0.1849 -0.2665 -0.0844
 1039SOL    HW1 4538   1.057   3.255   6.082 -0.5431 -0.1837 -0.1058
 1039SOL    HW2 4539   1.006   3.385   6.140  1.3144  0.1611  0.8405
 1040SOL     OW 4540   7.542   1.941   2.813  0.2449 -0.4242  0.4430
 1040SOL    HW1 4541   7.493   1.937   2.731 -0.2484 -0.7866  0.7522
 1040SOL    HW2 4542   7.611   1.875   2.803 -0.3721 -1.1219  0.6719
 1041SOL     OW 4543   1.312   8.664   1.115  0.2590 -0.1274  0.1931
 1041SOL    HW1 4544   1.386   8.696   1.065 -1.9381  1.7337 -2.1297
 1041SOL    HW2 4545   1.322   8.569   1.116  3.1561  0.0987  0.9302
 1042SOL     OW 4546   6.221   5.880   3.080  0.9550 -0.1598 -0.1984
 1042SOL    HW1 4547   6.201   5.974   3.078  1.9424  0.0523 -0.7338
 1042SOL    HW2 4548   6.137   5.838   3.061  0.5636  0.6245 -0.2499
 1043SOL     OW 4549   2.262   8.545   6.211 -0.3033  0.5167  0.2566
 1043SOL    HW1 4550   2.293   8.593   6.134  0.7895  0.3044  0.5513
 1043SOL    HW2 4551   2.170   8.525   6.191  0.7880 -2.5315 -2.5463
 1044SOL     OW 4552   2.445   7.741   3.572  0.3364 -0.2422  0.3829
 1044SOL    HW1 4553   2.425   7.649   3.552 -1.8570 -0.1486  1.8008
 1044SOL    HW2 4554   2.502   7.737   3.649 -0.2087 -0.4145  0.7820
 1045SOL     OW 4555   8.714   1.276   0.512 -0.2851  0.6516  0.0718
 1045SOL    HW1 4556   8.769   1.229   0.449  0.2499 -0.0024  1.0102
 1045SOL    HW2 4557   8.628   1.236   0.502 -0.1532  0.4037 -0.0860
 1046SOL     OW 4558   0.973   0.883   8.028  0.4597  0.5724 -0.3293
 1046SOL    HW1 4559   0.901   0.917   7.975 -0.8104  0.9137  1.4890
 1046SOL    HW2 4560   0.998   0.957   8.084  0.5289 -0.2385  0.7532
 1047SOL     OW 4561   7.798   2.140   3.988 -0.5562  0.2591 -0.0392
 1047SOL    HW1 4562   7.855   2.068   3.964 -1.1202 -0.2139  0.0134
 1047SOL    HW2 4563   7.834   2.216   3.942 -0.0002 -0.0671 -0.1502
 1048SOL     OW 4564   8.081   3.693   4.109 -0.0678 -0.0939  0.0665
 1048SOL    HW1 4565   8.160   3.678   4.160  0.0524  0.1655 -0.0384
 1048SOL    HW2 4566   8.009   3.677   4.170  0.0800  2.1191  0.9143
 1049SOL     OW 4567   6.631   5.313   6.025 -0.3330 -0.0172 -0.5397
 1049SOL    HW1 4568   6.632   5.287   6.117 -1.1463  1.0102 -0.2294
 1049SOL    HW2 4569   6.624   5.230   5.978 -0.1945 -0.5392  0.3234
 1050SOL     OW 4570   6.185   0.980   3.775  0.2866  0.2055 -0.1053
 1050SOL    HW1 4571   6.175   0.887   3.756 -1.8915  0.6965 -1.9183
 1050SOL    HW2 4572   6.102   1.019   3.747  1.3244  2.7762  0.0739
 1051SOL     OW 4573   0.240   7.173   7.445 -0.0418  0.7634 -0.7933
 1051SOL    HW1 4574   0.244   7.249   7.386 -0.4193  0.8468 -0.7082
 1051SOL    HW2 4575   0.150   7.141   7.437 -0.0554  0.6940 -0.3594
 1052SOL     OW 4576   3.143   3.310   3.420  0.0574 -0.0636  0.1162
 1052SOL    HW1 4577   3.048   3.309   3.429 -0.0171 -2.1643 -0.5307
 1052SOL    HW2 4578   3.158   3.316   3.326  0.6214  1.5762  0.2761
 1053SOL     OW 4579   6.956   4.318   1.936 -0.1552  0.4021  0.0226
 1053SOL    HW1 4580   6.987   4.234   1.903 -0.6832  0.3107 -0.2620
 1053SOL    HW2 4581   6.926   4.365   1.858  2.2970  1.8353 -0.1679
 1054SOL     OW 4582   7.425   9.036   4.397  0.4625 -0.3750  0.1071
 1054SOL    HW1 4583   7.406   9.007   4.486 -1.1720 -0.6577 -0.3056
 1054SOL    HW2 4584   7.471   9.119   4.408  1.0395 -0.8198  1.2150
 1055SOL     OW 4585   0.421   0.770   3.325  0.1359 -0.0834  0.3132
 1055SOL    HW1 4586   0.500   0.821   3.308 -0.4596  0.3897 -1.2003
 1055SOL    HW2 4587   0.418   0.707   3.253 -1.6131  0.8572 -0.4810
 1056SOL     OW 4588   9.218   0.520   6.309 -0.5250  0.3916 -0.1041
 1056SOL    HW1 4589   9.280   0.518   6.382  1.5549 -0.8314 -1.7786
 1056SOL    HW2 4590   9.255   0.584   6.248 -2.2347  1.4100 -0.1272
 1057SOL     OW 4591   6.616   4.132   6.298  0.2180 -0.0043  0.3987
 1057SOL    HW1 4592   6.579   4.144   6.210  0.6935  1.5188  0.3894
 1057SOL    HW2 4593   6.612   4.219   6.338  1.2387 -0.4060  1.4030
 1058SOL     OW 4594   0.634   4.285   6.568  0.2006  0.1538 -0.1680
 1058SOL    HW1 4595   0.681   4.349   6.514  0.3511  0.9636  0.8980
 1058SOL    HW2 4596   0.574   4.337   6.620 -0.5203 -0.7014 -0.1257
 1059SOL     OW 4597   7.689   6.612   1.860 -0.2909 -0.5386  0.1061
 1059SOL    HW1 4598   7.618   6.655   1.811  2.0634  2.2169 -1.1607
 1059SOL    HW2 4599   7.669   6.632   1.952 -0.9136  0.6494 -0.2611
 1060SOL     OW 4600   0.159   7.911   4.896 -0.1833  0.0756  0.3794
 1060SOL    HW1 4601   0.124   7.988   4.939 -0.6172 -0.2095  0.5458
 1060SOL    HW2 4602   0.094   7.842   4.913 -0.0227 -0.2128 -0.1448
 1061SOL     OW 4603   3.230   0.187   0.440  0.9426 -0.0604 -0.0141
 1061SOL    HW1 4604   3.149   0.219   0.480  1.1628 -0.2209  0.5643
 1061SOL    HW2 4605   3.204   0.162   0.351  0.0011 -1.5593  0.6434
 1062SOL     OW 4606   6.685   7.518   3.261 -0.0806  0.5273 -0.1918
 1062SOL    HW1 4607   6.670   7.437   3.213 -1.1745  1.6085 -1.7999
 1062SOL    HW2 4608   6.683   7.493   3.353  0.5057 -1.3810 -0.6562
 1063SOL     OW 4609   4.649   9.062   9.024 -0.1786  0.1593 -0.5012
 1063SOL    HW1 4610   4.622   9.036   9.112  0.8481 -1.6816 -0.6754
 1063SOL    HW2 4611   4.714   8.996   8.998  0.9489  1.7283 -1.9053
 1064SOL     OW 4612   9.235   9.166   2.293 -0.1393  0.1746  0.3179
 1064SOL    HW1 4613   9.243   9.098   2.360 -0.5766  0.5931  0.8099
 1064SOL    HW2 4614   9.154   9.212   2.316 -1.7862 -1.3514 -2.0489
 1065SOL     OW 4615   7.642   6.044   7.274 -0.4126 -0.0517  0.1841
 1065SOL    HW1 4616   7.591   6.024   7.352  0.2478 -1.1590  0.3624
 1065SOL    HW2 4617   7.717   6.094   7.305  0.1340 -0.9533  0.3610
 1066SOL     OW 4618   0.455   8.704   2.782  0.1565 -0.2871  0.0055
 1066SOL    HW1 4619   0.444   8.615   2.815  1.2893 -0.9114 -1.2144
 1066SOL    HW2 4620   0.410   8.704   2.697  0.1472  0.2991  0.0074
 1067SOL     OW 4621   0.619   7.569   0.319  0.4376  0.7672  0.3067
 1067SOL    HW1 4622   0.639   7.581   0.412  0.7154  2.5739  0.0348
 1067SOL    HW2 4623   0.704   7.549   0.279  0.2312 -0.6194  0.4939
 1068SOL     OW 4624   5.687   5.259   0.884 -0.0657 -0.0996 -0.9673
 1068SOL    HW1 4625   5.745   5.302   0.946 -1.3373 -0.8464  0.8202
 1068SOL    HW2 4626   5.640   5.331   0.841  1.5147  0.4648 -1.8437
 1069SOL     OW 4627   6.144   4.270   2.076  0.1385  0.2178  0.6811
 1069SOL    HW1 4628   6.190   4.260   1.992  1.1275 -0.2547  1.2605
 1069SOL    HW2 4629   6.070   4.210   2.070  0.0572  0.3764  0.0432
 1070SOL     OW 4630   0.362   1.693   4.209 -0.4228  0.3314 -0.1502
 1070SOL    HW1 4631   0.272   1.704   4.237  0.2356  0.4054  2.1214
 1070SOL    HW2 4632   0.381   1.600   4.223  0.2786  0.6090  0.8550
 1071SOL     OW 4633   3.991   8.428   0.767 -0.4578 -0.9315 -0.1001
 1071SOL    HW1 4634   4.019   8.385   0.848 -0.0548  0.2820  0.4383
 1071SOL    HW2 4635   4.006   8.521   0.784 -2.6947 -0.4223 -0.6651
 1072SOL     OW 4636   0.728   4.042   6.519  0.2297  0.7040 -0.7105
 1072SOL    HW1 4637   0.677   4.124   6.523 -0.2550  0.3678  0.1217
 1072SOL    HW2 4638   0.778   4.041   6.600 -2.2329 -1.3886  0.9455
 1073SOL     OW 4639   1.880   9.213   6.967  0.3983 -0.1110 -0.6139
 1073SOL    HW1 4640   1.937   9.135   6.965  0.4693 -0.1273  0.8363
 1073SOL    HW2 4641   1.877   9.237   7.059 -0.5589  0.9368 -0.9055
 1074SOL     OW 4642   0.397   7.900   0.267 -0.0597 -0.1063  0.1586
 1074SOL    HW1 4643   0.420   7.891   0.359  1.6292 -0.1782 -0.2367
 1074SOL    HW2 4644   0.424   7.989   0.244  0.4054 -0.4062 -0.4934
 1075SOL     OW 4645   6.586   1.702   6.923 -0.2296  0.0422 -0.1720
 1075SOL    HW1 4646   6.641   1.645   6.978  0.2534 -1.4497 -2.0926
 1075SOL    HW2 4647   6.648   1.748   6.867 -0.7946  0.4064 -0.5061
 1076SOL     OW 4648   1.609   8.622   1.480 -0.5241 -0.1479 -0.4493
 1076SOL    HW1 4649   1.663   8.659   1.550 -2.4377  2.1896 -0.0965
 1076SOL    HW2 4650   1.566   8.547   1.520 -1.2829  0.9207  0.7974
 1077SOL     OW 4651   1.572   1.704   6.050  0.6746  0.3604  0.0017
 1077SOL    HW1 4652   1.505   1.655   6.004  0.7075  0.4102 -0.1006
 1077SOL    HW2 4653   1.528   1.783   6.081  0.8208  0.6632 -0.5551
 1078SOL     OW 4654   3.142   7.583   2.802 -0.3671  0.1910  0.6091
 1078SOL    HW1 4655   3.075   7.585   2.870  0.4334  1.6908  1.3865
 1078SOL    HW2 4656   3.092   7.578   2.720 -1.4176  0.7386  1.1939
 1079SOL     OW 4657   5.974   8.706   1.056  0.4930  0.8637 -0.1994
 1079SOL    HW1 4658   5.934   8.752   1.130  0.5794  0.3009  0.2066
 1079SOL    HW2 4659   6.058   8.676   1.090 -0.9303 -2.5854  0.7400
 1080SOL     OW 4660   7.684   5.527   2.173  0.1075 -0.0634 -0.6924
 1080SOL    HW1 4661   7.683   5.555   2.264 -2.2258  0.2695 -0.7728
 1080SOL    HW2 4662   7.612   5.574   2.132  0.7529 -0.6351 -2.5934
 1081SOL     OW 4663   5.281   3.299   9.087  0.3175 -0.3465 -0.2837
 1081SOL    HW1 4664   5.370   3.326   9.065  0.3521 -0.6161 -0.4781
 1081SOL    HW2 4665   5.250   3.367   9.146  1.6805 -1.6847  2.1534
 1082SOL     OW 4666   0.012   8.378   1.598 -0.5685  0.7557 -0.3035
 1082SOL    HW1 4667   0.108   8.382   1.592 -0.4853 -0.8880 -0.5219
 1082SOL    HW2 4668  -0.012   8.457   1.646  1.0754  0.2964  1.3872
 1083SOL     OW 4669   6.789   5.165   8.191  0.1896  1.2823 -0.2358
 1083SOL    HW1 4670   6.851   5.125   8.252  0.8162  1.5617 -0.6730
 1083SOL    HW2 4671   6.746   5.235   8.241 -0.4457  0.4972  0.3405
 1084SOL     OW 4672   0.001   3.995   4.988  0.1893  0.0458 -0.7001
 1084SOL    HW1 4673  -0.024   3.974   5.078  0.3293 -1.4311 -0.9731
 1084SOL    HW2 4674   0.062   4.068   4.996  0.8678 -0.6203  0.4846
 1085SOL     OW 4675   2.565   7.411   0.485 -0.7420 -0.0063  0.2282
 1085SOL    HW1 4676   2.647   7.461   0.479 -0.9538  0.5154  1.3437
 1085SOL    HW2 4677   2.506   7.469   0.533 -1.6156 -0.5726 -0.1455
 1086SOL     OW 4678   5.745   5.165   8.806 -0.5029  0.2001 -0.0770
 1086SOL    HW1 4679   5.724   5.075   8.779  0.4516 -0.3293  0.8859
 1086SOL    HW2 4680   5.821   5.189   8.753 -0.8001  0.4692 -0.3837
 1087SOL     OW 4681   6.642   3.766   3.055  0.0327 -0.1924  0.3606
 1087SOL    HW1 4682   6.696   3.745   3.131  1.1348  2.4941  0.4181
 1087SOL    HW2 4683   6.651   3.690   2.997  4.9823  0.4814 -0.1817
 1088SOL     OW 4684   5.421   1.839   7.180  0.6398  0.1869  0.3725
 1088SOL    HW1 4685   5.440   1.825   7.088 -0.2411 -2.7629  0.5616
 1088SOL    HW2 4686   5.360   1.913   7.181 -1.2038 -1.2051 -1.6655
 1089SOL     OW 4687   8.605   1.128   4.053 -0.5725 -0.4558 -0.5151
 1089SOL    HW1 4688   8.588   1.155   4.144  0.1879 -1.3346 -0.1019
 1089SOL    HW2 4689   8.644   1.205   4.013 -0.1524 -0.3193  0.1366
 1090SOL     OW 4690   5.122   3.910   4.874 -0.1131 -0.2519  0.3881
 1090SOL    HW1 4691   5.178   3.837   4.851 -0.9345 -1.2154  1.3006
 1090SOL    HW2 4692   5.085   3.940   4.791  1.3441  0.0964 -0.1602
 1091SOL     OW 4693   8.595   0.339   3.798  0.6620  0.4238 -0.0481
 1091SOL    HW1 4694   8.663   0.271   3.797  0.5668  0.3108  0.6407
 1091SOL    HW2 4695   8.643   0.421   3.801  0.7718  0.3590 -0.0171
 1092SOL     OW 4696   8.992   0.980   3.278  0.0742 -0.3779  0.0961
 1092SOL    HW1 4697   9.050   0.917   3.320  0.0217 -0.6587 -0.2454
 1092SOL    HW2 4698   8.907   0.937   3.276 -0.0301 -0.1751  0.1283
 1093SOL     OW 4699   3.228   5.472   3.155 -0.1715  0.8588  0.3618
 1093SOL    HW1 4700   3.289   5.408   3.193  0.9685  1.6312 -0.1187
 1093SOL    HW2 4701   3.143   5.429   3.160  0.3941 -0.2387  1.0909
 1094SOL     OW 4702   8.866   3.234   2.037 -0.1950 -0.2087 -0.1867
 1094SOL    HW1 4703   8.874   3.138   2.044  0.9961 -0.0537  1.1299
 1094SOL    HW2 4704   8.859   3.251   1.943 -1.0023 -1.6158 -0.4121
 1095SOL     OW 4705   6.636   3.348   3.397  0.6019  0.0345 -0.0710
 1095SOL    HW1 4706   6.587   3.310   3.471  1.5539 -1.6862 -0.2726
 1095SOL    HW2 4707   6.577   3.337   3.322  0.1966  0.5184  0.1677
 1096SOL     OW 4708   8.533   8.386   4.845  0.4537  0.0286 -0.1849
 1096SOL    HW1 4709   8.439   8.382   4.828  0.5156  0.8575 -0.7659
 1096SOL    HW2 4710   8.540   8.421   4.934  0.2101  0.0347 -0.1680
 1097SOL     OW 4711   3.217   0.831   1.248 -0.3208  0.2029 -0.1256
 1097SOL    HW1 4712   3.306   0.806   1.224 -1.5048 -2.3904 -2.1434
 1097SOL    HW2 4713   3.180   0.869   1.169 -1.3721  0.2832  0.3845
 1098SOL     OW 4714   2.516   6.406   9.225  0.8535 -0.1489 -0.2672
 1098SOL    HW1 4715   2.593   6.394   9.280  0.2264  0.5713  0.8212
 1098SOL    HW2 4716   2.487   6.496   9.244 -0.2603 -0.4197 -0.6139
 1099SOL     OW 4717   4.212   1.997   3.782 -0.4640  0.5394  0.7572
 1099SOL    HW1 4718   4.123   2.030   3.764 -1.0929 -0.8139  1.2236
 1099SOL    HW2 4719   4.197   1.913   3.825  1.0556  1.0331  2.3282
 1100SOL     OW 4720   6.888   2.245   8.976  0.4849 -0.0560 -0.3461
 1100SOL    HW1 4721   6.951   2.220   9.045 -0.6207  0.1803  0.7929
 1100SOL    HW2 4722   6.841   2.320   9.014 -0.0467  0.1727 -1.4439
 1101SOL     OW 4723   0.117   1.355   0.864  0.0626  0.5735  0.5013
 1101SOL    HW1 4724   0.209   1.373   0.846  0.6623 -1.3095  1.4694
 1101SOL    HW2 4725   0.117   1.299   0.941 -1.7254 -1.3658 -0.7750
 1102SOL     OW 4726   6.768   8.649   1.062 -0.1935 -0.4171  0.4813
 1102SOL    HW1 4727   6.801   8.664   1.151  1.0404  1.8072 -0.2818
 1102SOL    HW2 4728   6.674   8.669   1.068  0.4272  3.0275  0.7023
 1103SOL     OW 4729   6.915   0.256   5.409 -0.2825 -0.0556 -0.1786
 1103SOL    HW1 4730   6.832   0.272   5.364 -0.3770 -0.8615 -0.3043
 1103SOL    HW2 4731   6.899   0.288   5.498 -0.2742  1.0332 -0.5464
 1104SOL     OW 4732   6.354   2.128   7.375  0.1166  0.1534  0.0720
 1104SOL    HW1 4733   6.413   2.066   7.418 -0.4903 -0.7089 -0.3120
 1104SOL    HW2 4734   6.267   2.105   7.407 -0.0168  1.5446  0.7905
 1105SOL     OW 4735   4.809   4.909   9.059  0.1973  0.4068 -0.5567
 1105SOL    HW1 4736   4.778   4.889   8.971  0.4835 -0.1864 -0.5260
 1105SOL    HW2 4737   4.813   5.005   9.061  0.7958  0.4111 -1.3956
 1106SOL     OW 4738   0.134   4.594   0.101 -0.4634  0.6406  0.0984
 1106SOL    HW1 4739   0.108   4.579   0.010 -1.5436 -0.5708  0.5672
 1106SOL    HW2 4740   0.197   4.525   0.120  0.1916  1.2331  0.1162
 1107SOL     OW 4741   7.553   0.942   8.002 -0.4134 -0.0002 -0.1669
 1107SOL    HW1 4742   7.530   0.962   8.093  0.6003  0.1459  0.0749
 1107SOL    HW2 4743   7.470   0.921   7.960 -0.8660 -0.3340  0.8572
 1108SOL     OW 4744   4.109   4.628   5.913  0.1368 -0.1422 -0.0903
 1108SOL    HW1 4745   4.152   4.656   5.994  1.3333  0.7413 -1.0008
 1108SOL    HW2 4746   4.026   4.676   5.913  0.4482  0.4074  0.2713
 1109SOL     OW 4747   7.161   2.611   5.900 -0.4319 -0.1361 -0.6286
 1109SOL    HW1 4748   7.073   2.645   5.915 -0.9432 -0.9765 -1.6183
 1109SOL    HW2 4749   7.148   2.528   5.856  0.8482 -0.8518  0.2741
 1110SOL     OW 4750   0.233   1.982   1.113  0.2068 -0.3854  0.4849
 1110SOL    HW1 4751   0.276   1.971   1.197  0.8185  3.2034  0.7841
 1110SOL    HW2 4752   0.144   1.948   1.126  1.5935 -4.3571  0.9816
 1111SOL     OW 4753   6.518   6.579   5.134  0.3616 -0.5243 -0.2536
 1111SOL    HW1 4754   6.462   6.590   5.057 -1.0488 -2.1660  0.4575
 1111SOL    HW2 4755   6.606   6.600   5.103 -0.2868 -0.2914 -2.0747
 1112SOL     OW 4756   4.081   5.329   3.775 -0.4929  0.1602 -0.6443
 1112SOL    HW1 4757   4.029   5.255   3.805 -1.0569  0.4351 -0.9210
 1112SOL    HW2 4758   4.172   5.300   3.782 -0.6534 -0.0674  0.5311
 1113SOL     OW 4759   8.202   0.660   6.146 -0.2138  0.2813 -0.1691
 1113SOL    HW1 4760   8.270   0.683   6.083  0.0609 -1.0611 -0.4094
 1113SOL    HW2 4761   8.130   0.627   6.093  0.2260 -1.3754  0.1843
 1114SOL     OW 4762   1.531   6.934   7.053 -0.0140  0.4200  0.0584
 1114SOL    HW1 4763   1.517   7.023   7.021  0.4276  1.2074  1.9380
 1114SOL    HW2 4764   1.467   6.922   7.123  0.0553 -0.6835 -0.0369
 1115SOL     OW 4765   5.834   4.147   5.496  0.3004  0.2142  0.1336
 1115SOL    HW1 4766   5.856   4.163   5.404  1.8616  0.1238  0.4557
 1115SOL    HW2 4767   5.802   4.057   5.498 -2.7696  1.1657 -0.7609
 1116SOL     OW 4768   7.014   8.249   5.749  0.0878  0.1720 -0.2093
 1116SOL    HW1 4769   7.056   8.318   5.698 -1.8336  0.3734 -1.6049
 1116SOL    HW2 4770   6.921   8.271   5.748 -0.9605 -3.5153 -2.5460
 1117SOL     OW 4771   1.980   7.834   1.538 -0.0976 -0.2679  0.0668
 1117SOL    HW1 4772   2.063   7.869   1.504 -0.6505 -0.1528 -1.2370
 1117SOL    HW2 4773   1.994   7.740   1.544  0.2311 -0.2161  0.1382
 1118SOL     OW 4774   6.587   8.748   3.050  0.4881 -0.1529  0.2259
 1118SOL    HW1 4775   6.542   8.664   3.044  0.4307 -0.2036  1.1966
 1118SOL    HW2 4776   6.531   8.809   3.001  0.4549 -0.6437 -0.3524
 1119SOL     OW 4777   1.999   4.295   0.738  0.4184  0.2921  0.4745
 1119SOL    HW1 4778   1.936   4.260   0.675 -0.8885  1.8664  0.8404
 1119SOL    HW2 4779   2.084   4.274   0.700 -0.3196  0.3336 -1.3310
 1120SOL     OW 4780   0.135   2.273   4.439 -0.3341  0.1501  0.4590
 1120SOL    HW1 4781   0.053   2.309   4.474 -0.1277 -0.0401  1.1581
 1120SOL    HW2 4782   0.184   2.247   4.517  0.1149 -0.3404  0.0154
 1121SOL     OW 4783   0.519   4.936   2.163 -0.0891 -0.2459 -0.1924
 1121SOL    HW1 4784   0.611   4.931   2.189 -0.0529  3.0699  0.8250
 1121SOL    HW2 4785   0.472   4.889   2.232  0.8028 -2.5812 -1.0876
 1122SOL     OW 4786   5.174   9.275   0.890  0.1609 -0.5406  0.0188
 1122SOL    HW1 4787   5.153   9.338   0.960  0.3061 -1.5678  1.0184
 1122SOL    HW2 4788   5.264   9.295   0.866  0.3747 -0.6864  0.6851
 1123SOL     OW 4789   1.198   2.248   4.435  0.3539  0.9203 -0.0566
 1123SOL    HW1 4790   1.264   2.267   4.368 -0.1572 -1.2376 -1.2431
 1123SOL    HW2 4791   1.114   2.255   4.390 -0.0557  0.3032  0.5877
 1124SOL     OW 4792   3.907   5.647   6.884 -0.6329 -0.3708 -0.7278
 1124SOL    HW1 4793   3.936   5.716   6.824 -1.4828 -0.5210 -1.3410
 1124SOL    HW2 4794   3.943   5.566   6.846 -0.6587 -0.3972 -0.6953
 1125SOL     OW 4795   5.282   6.550   5.139  0.0521  0.3869  0.1472
 1125SOL    HW1 4796   5.316   6.492   5.207 -0.1805  0.9780  0.7791
 1125SOL    HW2 4797   5.338   6.533   5.063 -0.7064 -1.4637 -0.0474
 1126SOL     OW 4798   1.433   3.047   6.532 -0.0706  0.4640  0.1048
 1126SOL    HW1 4799   1.353   3.086   6.567  0.5583  1.6913  0.2373
 1126SOL    HW2 4800   1.450   2.972   6.589  0.1255  1.5563  1.5429
 1127SOL     OW 4801   0.424   0.539   6.488 -0.2516 -0.2948 -0.0843
 1127SOL    HW1 4802   0.519   0.537   6.478 -0.2035 -0.8223  0.4083
 1127SOL    HW2 4803   0.393   0.596   6.418  0.4985  0.6289  0.3238
 1128SOL     OW 4804   0.328   1.451   7.006 -0.1263 -0.3640  0.1135
 1128SOL    HW1 4805   0.290   1.391   6.941  0.4485 -0.4436 -0.1467
 1128SOL    HW2 4806   0.266   1.447   7.079 -1.0544  0.1173 -0.6144
 1129SOL     OW 4807   5.271   6.732   9.151 -0.1283  0.3219  0.7811
 1129SOL    HW1 4808   5.214   6.655   9.145  1.4641 -0.9709  1.4682
 1129SOL    HW2 4809   5.266   6.773   9.065 -0.3484 -1.0497  0.1192
 1130SOL     OW 4810   0.496   5.913   7.923  0.1066 -0.6254 -0.0319
 1130SOL    HW1 4811   0.500   5.845   7.990  0.9945  0.2214  0.8262
 1130SOL    HW2 4812   0.577   5.902   7.873  1.2853  0.9716  1.3772
 1131SOL     OW 4813   6.138   4.540   7.375 -0.0042 -0.0089  0.7677
 1131SOL    HW1 4814   6.202   4.606   7.399  0.1257  0.6079 -1.0916
 1131SOL    HW2 4815   6.182   4.457   7.391  1.1021  0.4007 -0.0104
 1132SOL     OW 4816   1.488   1.073   1.246 -0.1252 -0.2638 -0.2854
 1132SOL    HW1 4817   1.538   1.125   1.310 -1.2586 -1.3394  1.5413
 1132SOL    HW2 4818   1.420   1.133   1.214 -0.2904 -0.0732  0.4165
 1133SOL     OW 4819   4.697   5.479   8.177 -0.3388  0.5968 -0.5745
 1133SOL    HW1 4820   4.610   5.450   8.204  0.8256 -2.0921  0.6522
 1133SOL    HW2 4821   4.732   5.526   8.253 -0.4495  1.0993 -0.8282
 1134SOL     OW 4822   2.224   6.573   6.606 -0.4882  0.2021 -0.2114
 1134SOL    HW1 4823   2.242   6.497   6.551 -0.8194 -0.0938  0.0792
 1134SOL    HW2 4824   2.265   6.553   6.690  0.1821  0.7372 -0.4000
 1135SOL     OW 4825   2.243   2.379   3.289  0.2466 -0.4646 -0.0467
 1135SOL    HW1 4826   2.327   2.393   3.244  0.7336  0.3307  1.0596
 1135SOL    HW2 4827   2.186   2.341   3.222  1.3000 -0.4251 -0.9980
 1136SOL     OW 4828   2.952   4.119   1.310 -0.4114  0.4410 -0.1115
 1136SOL    HW1 4829   2.868   4.075   1.296  0.9149 -1.5387 -2.5194
 1136SOL    HW2 4830   2.991   4.073   1.384 -0.2121 -0.6582 -0.8840
 1137SOL     OW 4831   7.222   2.928   0.613  0.3533 -0.1748 -0.3049
 1137SOL    HW1 4832   7.207   3.018   0.583  0.1716  0.2347  0.9657
 1137SOL    HW2 4833   7.316   2.925   0.631  0.0038  0.5532  1.9993
 1138SOL     OW 4834   6.066   4.608   7.117 -0.2825 -0.0620  0.0084
 1138SOL    HW1 4835   6.099   4.603   7.206 -0.1371 -0.0376 -0.0445
 1138SOL    HW2 4836   5.999   4.540   7.113  0.2562 -0.5901 -0.0938
 1139SOL     OW 4837   0.667   4.571   0.828 -0.0013 -0.8046 -0.6579
 1139SOL    HW1 4838   0.669   4.521   0.910 -1.1581  0.8506  0.4552
 1139SOL    HW2 4839   0.575   4.571   0.803 -0.3488  1.9833  0.2456
 1140SOL     OW 4840   2.379   4.796   6.757  0.0631  0.2951 -0.3142
 1140SOL    HW1 4841   2.422   4.794   6.842 -0.6503 -0.6098  0.0509
 1140SOL    HW2 4842   2.450   4.803   6.693  0.6690 -0.0641  0.3161
 1141SOL     OW 4843   8.160   1.490   0.934  0.3045 -0.6370 -0.2398
 1141SOL    HW1 4844   8.097   1.554   0.967 -0.0233 -0.9680 -0.2180
 1141SOL    HW2 4845   8.237   1.500   0.990  0.6412  0.4415 -0.8738
 1142SOL     OW 4846   1.007   7.579   5.346 -0.5519 -0.1444  0.2276
 1142SOL    HW1 4847   1.043   7.637   5.279  0.0943 -3.0277 -2.1430
 1142SOL    HW2 4848   1.043   7.611   5.428  1.7519  1.3288 -1.2452
 1143SOL     OW 4849   4.803   5.316   1.886  0.3005  0.7022 -0.0278
 1143SOL    HW1 4850   4.751   5.242   1.856  1.2117 -1.0211  2.3207
 1143SOL    HW2 4851   4.741   5.389   1.891 -1.6791 -0.9471  1.4542
 1144SOL     OW 4852   8.381   7.290   1.643 -0.2097  0.3085 -0.1059
 1144SOL    HW1 4853   8.405   7.208   1.598  0.0932  0.1706  0.2978
 1144SOL    HW2 4854   8.333   7.340   1.578 -0.5494 -0.2701 -0.3037
 1145SOL     OW 4855   8.112   5.909   9.054  0.1475  0.0307 -0.1364
 1145SOL    HW1 4856   8.016   5.908   9.055  0.1516 -0.7069  1.1858
 1145SOL    HW2 4857   8.135   6.002   9.061 -0.4625  0.1889 -0.1582
 1146SOL     OW 4858   8.593   8.745   5.528  0.0737  0.8500 -0.0213
 1146SOL    HW1 4859   8.552   8.668   5.488  1.4084  0.2309 -0.2636
 1146SOL    HW2 4860   8.522   8.790   5.573 -0.7277 -0.5731  0.1833
 1147SOL     OW 4861   0.934   8.885   7.795  0.1478  0.7971  0.3773
 1147SOL    HW1 4862   0.946   8.942   7.719  0.8150 -2.1672 -1.9306
 1147SOL    HW2 4863   1.011   8.900   7.849 -0.8489  3.7397  1.1231
 1148SOL     OW 4864   4.300   8.013   0.320  1.5050  0.5475 -0.0184
 1148SOL    HW1 4865   4.274   7.984   0.408  0.4098 -0.1121 -0.5378
 1148SOL    HW2 4866   4.254   8.096   0.308  1.1728  0.3413 -0.1907
 1149SOL     OW 4867   7.276   8.997   5.060  0.6277  0.5674 -0.0376
 1149SOL    HW1 4868   7.208   8.995   4.992  1.0172  0.6621 -0.4345
 1149SOL    HW2 4869   7.348   8.946   5.024  0.5088 -0.1154  0.6726
 1150SOL     OW 4870   9.219   3.927   3.513  0.2271  0.1444 -0.7811
 1150SOL    HW1 4871   9.154   3.856   3.514 -1.1164  1.2909  1.3074
 1150SOL    HW2 4872   9.185   3.989   3.448 -0.9515  0.8276  0.4330
 1151SOL     OW 4873   8.177   8.867   4.007 -0.5260  0.5027  0.0526
 1151SOL    HW1 4874   8.235   8.829   3.941 -0.2483 -0.7033  0.9691
 1151SOL    HW2 4875   8.221   8.853   4.090 -1.3891  1.0146  0.6159
 1152SOL     OW 4876   8.873   4.268   0.835 -0.4534 -0.2314  0.4213
 1152SOL    HW1 4877   8.929   4.207   0.883  0.5037  1.4984  1.6187
 1152SOL    HW2 4878   8.927   4.346   0.824 -2.4819  1.3752  1.2963
 1153SOL     OW 4879   1.649   1.381   0.745  0.4451  0.1541 -0.3658
 1153SOL    HW1 4880   1.708   1.343   0.681  1.5792  1.3310 -0.0526
 1153SOL    HW2 4881   1.673   1.340   0.828  0.7497  0.5525 -0.2562
 1154SOL     OW 4882   2.150   8.645   4.660  0.1562 -0.7419  0.3453
 1154SOL    HW1 4883   2.072   8.648   4.715 -0.8989 -1.8693 -1.0193
 1154SOL    HW2 4884   2.174   8.736   4.647 -0.5042 -0.4111  1.3723
 1155SOL     OW 4885   3.094   3.039   2.054 -0.5888 -0.2085 -0.0404
 1155SOL    HW1 4886   3.008   3.054   2.094 -0.5976 -1.2944  0.3820
 1155SOL    HW2 4887   3.074   2.996   1.971 -0.4909  0.5959 -0.4960
 1156SOL     OW 4888   6.194   5.764   0.522  0.7402  0.2352 -0.6065
 1156SOL    HW1 4889   6.100   5.768   0.505  0.6312  1.3844  0.1776
 1156SOL    HW2 4890   6.215   5.671   0.519 -0.6611 -0.1366  0.4768
 1157SOL     OW 4891   2.218   5.420   1.597  0.3854  0.1443 -0.2427
 1157SOL    HW1 4892   2.258   5.339   1.628 -2.1389 -0.3527  2.1202
 1157SOL    HW2 4893   2.152   5.391   1.534 -1.5087  0.0978  1.6493
 1158SOL     OW 4894   1.627   6.082   1.537  0.1495  0.2782 -0.2048
 1158SOL    HW1 4895   1.560   6.146   1.512 -0.0404 -0.7997 -2.8682
 1158SOL    HW2 4896   1.703   6.105   1.484 -0.2146 -2.0933 -1.9605
 1159SOL     OW 4897   4.665   6.072   1.337 -0.0776  0.2503 -0.2633
 1159SOL    HW1 4898   4.753   6.047   1.367  0.8388  0.5664 -2.5210
 1159SOL    HW2 4899   4.681   6.130   1.263 -2.2012  2.5531  0.9456
 1160SOL     OW 4900   3.297   1.724   4.043  0.0263  0.1024 -0.2310
 1160SOL    HW1 4901   3.242   1.724   4.121  0.6214 -0.5322  0.2069
 1160SOL    HW2 4902   3.300   1.632   4.016  1.4415 -0.0013  0.1885
 1161SOL     OW 4903   4.376   1.094   8.756  0.3375 -0.2455 -0.0981
 1161SOL    HW1 4904   4.386   1.061   8.845 -0.8020 -3.3090 -1.0054
 1161SOL    HW2 4905   4.389   1.018   8.700  0.0437  1.3878 -2.5452
 1162SOL     OW 4906   3.404   5.099   0.970 -0.0798 -0.1418 -0.4292
 1162SOL    HW1 4907   3.465   5.092   0.897 -0.3951 -0.3233 -0.6768
 1162SOL    HW2 4908   3.335   5.035   0.951 -0.4412  0.1857 -0.2444
 1163SOL     OW 4909   0.597   0.969   3.593 -0.3107  0.3166 -0.0266
 1163SOL    HW1 4910   0.657   1.000   3.524 -0.5230  0.2496 -0.2444
 1163SOL    HW2 4911   0.612   1.029   3.666 -0.1203  0.4230 -0.1508
 1164SOL     OW 4912   8.902   0.686   4.604  0.2774  0.1788  0.4777
 1164SOL    HW1 4913   8.832   0.648   4.657  0.8645 -1.9353 -0.1668
 1164SOL    HW2 4914   8.856   0.738   4.538 -0.5795  0.4000  1.2294
 1165SOL     OW 4915   4.623   4.290   5.654  0.3468  0.3635  0.6646
 1165SOL    HW1 4916   4.640   4.255   5.567  1.6781 -0.5068  1.2530
 1165SOL    HW2 4917   4.559   4.229   5.692  0.5156  0.1779  0.6535
 1166SOL     OW 4918   8.932   1.683   8.376  0.0771  0.4715 -0.3804
 1166SOL    HW1 4919   8.902   1.764   8.416  0.2317 -0.0473  0.8132
 1166SOL    HW2 4920   9.027   1.689   8.376  0.0914  0.2549 -0.2218
 1167SOL     OW 4921   5.921   4.677   5.436  0.1465 -0.2817  0.0411
 1167SOL    HW1 4922   5.931   4.726   5.517  0.9136 -2.0854  1.1042
 1167SOL    HW2 4923   5.979   4.602   5.446 -0.5350 -1.1155 -1.7445
 1168SOL     OW 4924   8.846   4.883   8.862  0.7187  0.3730 -0.0455
 1168SOL    HW1 4925   8.856   4.834   8.781  1.7526 -2.3486  1.5886
 1168SOL    HW2 4926   8.756   4.915   8.859 -0.2006 -2.0396 -1.0767
 1169SOL     OW 4927   8.120   1.101   5.260  0.0852  0.1454 -0.0217
 1169SOL    HW1 4928   8.199   1.050   5.275  0.0948  0.5903  1.6637
 1169SOL    HW2 4929   8.106   1.149   5.342 -1.3619  0.8532 -0.6369
 1170SOL     OW 4930   4.306   3.104   8.472  0.1316 -0.6227  0.4552
 1170SOL    HW1 4931   4.263   3.019   8.485 -0.4178 -0.4083  0.0413
 1170SOL    HW2 4932   4.391   3.082   8.433 -0.3125 -0.9372 -0.3489
 1171SOL     OW 4933   0.639   9.270   6.376  0.5570 -0.4293  0.4000
 1171SOL    HW1 4934   0.700   9.212   6.422  2.6600  0.1526 -1.5206
 1171SOL    HW2 4935   0.631   9.346   6.433  0.2013 -1.2471  1.4860
 1172SOL     OW 4936   0.370   7.558   0.178  0.3067 -0.0630 -0.3599
 1172SOL    HW1 4937   0.411   7.486   0.131  0.4921  1.0546 -2.0156
 1172SOL    HW2 4938   0.437   7.588   0.240 -0.1747 -1.9813  1.1957
 1173SOL     OW 4939   7.651   0.350   0.235 -0.2133 -0.1443 -0.1618
 1173SOL    HW1 4940   7.608   0.265   0.245 -1.6237  0.4166 -1.0557
 1173SOL    HW2 4941   7.731   0.343   0.287  0.7125 -2.6998 -1.7264
 1174SOL     OW 4942   7.531   3.558   7.624 -0.1270 -0.4339  0.3083
 1174SOL    HW1 4943   7.502   3.617   7.693  0.5811  0.0099  0.2453
 1174SOL    HW2 4944   7.599   3.505   7.665  1.3198  0.7959 -0.3815
 1175SOL     OW 4945   3.388   4.485   2.402 -0.2624  0.0133  0.3264
 1175SOL    HW1 4946   3.408   4.485   2.308  1.5155  2.3815  0.6051
 1175SOL    HW2 4947   3.437   4.410   2.436  0.9595  0.4657 -0.3544
 1176SOL     OW 4948   6.776   5.045   1.050  0.3075  0.6039 -0.3568
 1176SOL    HW1 4949   6.825   5.013   0.975 -0.9691  0.4204 -1.1448
 1176SOL    HW2 4950   6.843   5.077   1.111  1.4051 -0.0728 -1.1751
 1177SOL     OW 4951   3.650   3.860   8.392 -0.2201  0.2729  0.2053
 1177SOL    HW1 4952   3.582   3.792   8.389 -0.3592  0.4500 -1.8568
 1177SOL    HW2 4953   3.640   3.900   8.479 -2.0497 -0.3978  0.3449
 1178SOL     OW 4954   3.893   6.385   0.359  0.0834  0.0786  0.4400
 1178SOL    HW1 4955   3.858   6.337   0.284  1.7723  0.1837 -0.4799
 1178SOL    HW2 4956   3.903   6.319   0.427  0.4837 -0.4875 -0.1446
 1179SOL     OW 4957   8.741   4.305   9.152  0.7298  0.1245  0.2971
 1179SOL    HW1 4958   8.830   4.341   9.150  0.3449  1.1049 -1.5318
 1179SOL    HW2 4959   8.733   4.266   9.239  2.5298  1.0645  0.9409
 1180SOL     OW 4960   7.128   0.622   0.150  0.2553 -0.1728 -0.6527
 1180SOL    HW1 4961   7.078   0.540   0.149  2.8422 -1.9421  1.4772
 1180SOL    HW2 4962   7.218   0.596   0.131  1.0185  2.3374 -0.8509
 1181SOL     OW 4963   0.154   6.741   2.953 -0.1855  0.0373 -0.4436
 1181SOL    HW1 4964   0.106   6.820   2.927  0.5942  0.0779 -1.7982
 1181SOL    HW2 4965   0.246   6.761   2.937  0.3999  0.0203  2.2907
 1182SOL     OW 4966   1.443   0.772   2.566 -0.6134 -0.0730 -0.2131
 1182SOL    HW1 4967   1.439   0.795   2.474 -0.6262 -0.7243 -0.3814
 1182SOL    HW2 4968   1.427   0.677   2.568 -2.8684  0.2507  0.6203
 1183SOL     OW 4969   9.055   3.470   1.733 -0.2591 -0.2841  0.5008
 1183SOL    HW1 4970   9.149   3.458   1.749 -0.1020  1.5725  1.1409
 1183SOL    HW2 4971   9.023   3.519   1.809 -1.8657 -1.2491  0.5034
 1184SOL     OW 4972   8.840   2.491   7.734  0.1815  0.2816 -0.6532
 1184SOL    HW1 4973   8.748   2.517   7.737  0.5287  1.6568 -1.0345
 1184SOL    HW2 4974   8.871   2.502   7.823  0.0316  0.0035 -0.5643
 1185SOL     OW 4975   4.404   2.720   5.009 -0.6064 -0.1713 -0.0307
 1185SOL    HW1 4976   4.357   2.647   5.050  0.9870  0.1642  2.6210
 1185SOL    HW2 4977   4.367   2.798   5.050 -0.5636  0.3698 -0.9899
 1186SOL     OW 4978   7.003   2.751   8.895 -0.1816 -0.1509  0.7807
 1186SOL    HW1 4979   7.032   2.808   8.823 -0.7019  0.2702  0.8978
 1186SOL    HW2 4980   7.022   2.663   8.864  0.5731  0.0799  0.5673
 1187SOL     OW 4981   1.424   6.090   7.773 -0.1228 -0.3374 -0.3451
 1187SOL    HW1 4982   1.396   6.062   7.686 -0.6545 -1.5999  0.2002
 1187SOL    HW2 4983   1.433   6.008   7.822 -0.7620  0.4041  1.0549
 1188SOL     OW 4984   1.337   4.563   1.507 -0.1090 -0.3083  0.3445
 1188SOL    HW1 4985   1.284   4.627   1.458  2.5701  1.7268 -0.1312
 1188SOL    HW2 4986   1.385   4.515   1.439  2.6344  1.6262  0.7388
 1189SOL     OW 4987   8.573   2.979   4.486  0.2739 -0.3395  0.0382
 1189SOL    HW1 4988   8.652   2.962   4.537 -0.3172  0.3890  1.2474
 1189SOL    HW2 4989   8.603   3.032   4.411  0.7100  1.6000  1.5041
 1190SOL     OW 4990   8.390   3.449   3.813  0.0258 -0.0210  0.2816
 1190SOL    HW1 4991   8.353   3.421   3.729  1.6293 -0.0420 -0.4469
 1190SOL    HW2 4992   8.413   3.368   3.858 -0.7818 -0.0076  0.7448
 1191SOL     OW 4993   4.737   1.662   8.484 -0.2835 -0.5042  0.0404
 1191SOL    HW1 4994   4.643   1.650   8.489 -0.3182 -0.5061 -0.5137
 1191SOL    HW2 4995   4.769   1.586   8.435  0.1767 -1.2063  1.3941
 1192SOL     OW 4996   2.195   1.697   0.629  0.5450 -0.3840  0.0437
 1192SOL    HW1 4997   2.270   1.697   0.688  0.9885  2.5428 -0.3600
 1192SOL    HW2 4998   2.223   1.645   0.554  1.9100 -0.0031  0.2514
 1193SOL     OW 4999   9.097   0.739   6.508 -0.3357 -0.0760  0.6004
 1193SOL    HW1 5000   9.118   0.660   6.557  0.2527 -0.8991 -0.8819
 1193SOL    HW2 5001   9.026   0.713   6.449  0.2761  0.2832 -0.3331
 1194SOL     OW 5002   6.569   6.301   8.465 -0.7627 -0.5954 -0.1775
 1194SOL    HW1 5003   6.582   6.283   8.558 -0.7668  1.0012  0.1634
 1194SOL    HW2 5004   6.591   6.394   8.455 -1.5071 -0.5409 -1.6222
 1195SOL     OW 5005   9.187   8.808   8.035 -0.1948 -0.1405  0.0994
 1195SOL    HW1 5006   9.119   8.874   8.047  0.3943  0.4594  0.1894
 1195SOL    HW2 5007   9.261   8.840   8.087  1.1093  0.6169 -2.0871
 1196SOL     OW 5008   3.402   0.958   1.538 -0.4471  0.0764 -0.1973
 1196SOL    HW1 5009   3.477   1.018   1.542 -0.1605 -0.2963  0.0236
 1196SOL    HW2 5010   3.440   0.873   1.516 -0.7435 -0.2172  0.4086
 1197SOL     OW 5011   3.156   7.632   3.323 -0.1494  0.5595 -0.8770
 1197SOL    HW1 5012   3.223   7.597   3.264  0.6404  1.6877 -0.6859
 1197SOL    HW2 5013   3.076   7.587   3.297  0.4671 -0.0120 -1.8619
 1198SOL     OW 5014   2.200   4.476   5.212 -0.7883  0.5321 -0.0285
 1198SOL    HW1 5015   2.274   4.479   5.274 -1.8524 -1.3162  1.4671
 1198SOL    HW2 5016   2.186   4.567   5.187  1.1993  1.0809  0.6006
 1199SOL     OW 5017   1.719   8.114   3.134 -0.2427 -0.5830 -0.2050
 1199SOL    HW1 5018   1.650   8.145   3.075 -0.7725  1.3099  1.3005
 1199SOL    HW2 5019   1.750   8.194   3.177  0.3853 -1.8429  1.7589
 1200SOL     OW 5020   1.529   3.193   2.163  0.4526 -0.3348 -0.2352
 1200SOL    HW1 5021   1.535   3.283   2.195  0.6284  0.1416 -1.5618
 1200SOL    HW2 5022   1.508   3.141   2.241  1.7401  0.6606  0.8158
 1201SOL     OW 5023   4.315   4.217   7.768  0.4621 -0.1912 -0.0844
 1201SOL    HW1 5024   4.315   4.210   7.672  1.0558 -0.7958 -0.0449
 1201SOL    HW2 5025   4.389   4.164   7.796  1.6038  1.6453  0.5857
 1202SOL     OW 5026   3.337   2.844   6.904 -0.0744 -0.0959 -0.6176
 1202SOL    HW1 5027   3.400   2.783   6.865 -1.1751 -1.5774 -0.2229
 1202SOL    HW2 5028   3.323   2.911   6.837  1.4462 -0.0701 -0.9327
 1203SOL     OW 5029   4.042   3.412   2.808 -0.0324  0.5805  0.5752
 1203SOL    HW1 5030   4.055   3.419   2.903 -0.4113  0.5722  0.6318
 1203SOL    HW2 5031   4.018   3.321   2.794 -0.8433  0.7791  0.5910
 1204SOL     OW 5032   8.126   7.199   5.608  0.0401 -0.3043  0.3952
 1204SOL    HW1 5033   8.210   7.200   5.654  0.4134 -0.8366 -0.2590
 1204SOL    HW2 5034   8.063   7.234   5.672  0.4264 -1.6030  1.5300
 1205SOL     OW 5035   0.440   1.618   5.109 -0.4523 -0.3612 -0.7685
 1205SOL    HW1 5036   0.463   1.622   5.202  1.5699  1.4064 -1.2489
 1205SOL    HW2 5037   0.412   1.528   5.094 -3.8998  0.0303  2.1345
 1206SOL     OW 5038   3.094   4.062   2.220 -0.1663 -0.0968  0.0262
 1206SOL    HW1 5039   3.038   4.040   2.295  0.6535  0.4219  0.8127
 1206SOL    HW2 5040   3.037   4.054   2.144 -0.8691 -1.2316  0.6445
 1207SOL     OW 5041   8.587   8.312   1.306  0.5397  0.5936  0.0229
 1207SOL    HW1 5042   8.673   8.281   1.277 -0.2388 -0.6713 -1.0479
 1207SOL    HW2 5043   8.581   8.401   1.272  0.1815 -0.3906 -2.7863
 1208SOL     OW 5044   1.874   1.511   1.369  0.3771 -0.1175  0.0928
 1208SOL    HW1 5045   1.821   1.451   1.422  1.9984 -0.9458  0.8338
 1208SOL    HW2 5046   1.962   1.474   1.372  0.9794  1.1187 -1.2696
 1209SOL     OW 5047   7.199   4.166   0.033  0.3576 -0.2845  0.4669
 1209SOL    HW1 5048   7.291   4.190   0.046  0.3068  0.4838 -0.4690
 1209SOL    HW2 5049   7.174   4.209  -0.049 -1.1121  0.3499  1.1925
 1210SOL     OW 5050   7.843   5.362   6.185 -0.2930  0.0965 -0.7228
 1210SOL    HW1 5051   7.861   5.281   6.136  2.0619  0.6186 -0.8181
 1210SOL    HW2 5052   7.913   5.422   6.160  0.6374  0.6555  2.6761
 1211SOL     OW 5053   1.067   4.287   0.406  0.1352  0.1637  0.9548
 1211SOL    HW1 5054   1.089   4.345   0.333 -0.0273  0.5108  1.1739
 1211SOL    HW2 5055   1.150   4.273   0.451  0.5762 -1.4710 -0.2795
 1212SOL     OW 5056   0.493   6.164   9.083 -0.0983  0.5798 -0.1731
 1212SOL    HW1 5057   0.406   6.136   9.054  0.0728  0.7700 -0.8880
 1212SOL    HW2 5058   0.530   6.088   9.127 -0.6904  0.5499  0.2692
 1213SOL     OW 5059   8.614   0.962   5.524 -0.9870 -0.0102 -0.1304
 1213SOL    HW1 5060   8.640   0.906   5.598 -0.4819 -0.5740 -0.7225
 1213SOL    HW2 5061   8.695   1.002   5.495 -0.6775 -1.8843 -2.0804
 1214SOL     OW 5062   1.011   6.324   6.302  0.2692  0.0768  0.3212
 1214SOL    HW1 5063   1.032   6.349   6.392  0.7335  0.1277  0.2000
 1214SOL    HW2 5064   0.926   6.364   6.285 -0.0914 -0.4047  0.9300
 1215SOL     OW 5065   7.827   5.311   0.583 -0.2233 -0.2302  0.2463
 1215SOL    HW1 5066   7.893   5.327   0.515 -0.4786 -0.8959 -0.1599
 1215SOL    HW2 5067   7.847   5.376   0.651 -1.1936  1.8216 -1.3159
 1216SOL     OW 5068   1.905   7.078   4.865 -0.7141 -0.8842 -0.3158
 1216SOL    HW1 5069   1.816   7.113   4.872 -0.1433  0.4878  0.3991
 1216SOL    HW2 5070   1.943   7.090   4.952  0.8615  0.5306 -1.1270
 1217SOL     OW 5071   1.180   5.091   9.160 -0.1289 -0.0104  0.2566
 1217SOL    HW1 5072   1.085   5.090   9.167 -0.2271  1.8364 -0.2419
 1217SOL    HW2 5073   1.201   5.016   9.104 -1.2792 -0.4024  0.3296
 1218SOL     OW 5074   0.213   2.143   8.391 -0.7326 -0.1020 -0.4215
 1218SOL    HW1 5075   0.193   2.214   8.452  0.4530  0.1570 -0.3142
 1218SOL    HW2 5076   0.195   2.063   8.442 -0.0605  0.1124  0.1706
 1219SOL     OW 5077   5.484   4.592   1.555  0.2564  0.8076  0.3378
 1219SOL    HW1 5078   5.543   4.530   1.599 -1.7528 -1.6899 -0.2535
 1219SOL    HW2 5079   5.431   4.628   1.626  1.5224  2.0497  0.7031
 1220SOL     OW 5080   5.635   1.850   7.899 -0.0394  0.2183  0.1237
 1220SOL    HW1 5081   5.669   1.938   7.882  0.0066  0.0356 -0.8088
 1220SOL    HW2 5082   5.554   1.846   7.849  0.5456 -0.6505 -0.8166
 1221SOL     OW 5083   0.815   1.346   1.642  0.0288  0.2932 -0.2299
 1221SOL    HW1 5084   0.811   1.250   1.652 -2.8653  0.4419  1.2188
 1221SOL    HW2 5085   0.787   1.361   1.551 -0.9846 -0.2221 -0.0208
 1222SOL     OW 5086   7.785   6.514   0.644 -0.2899 -0.0722  0.8273
 1222SOL    HW1 5087   7.795   6.469   0.559  0.7764 -2.0622  1.9123
 1222SOL    HW2 5088   7.849   6.471   0.700 -0.9975  1.1820  2.6717
 1223SOL     OW 5089   1.068   1.760   0.921 -0.4588  0.1372 -0.1763
 1223SOL    HW1 5090   1.055   1.844   0.877  0.6683  0.5916  0.3230
 1223SOL    HW2 5091   1.027   1.696   0.862 -1.2384  1.0106 -0.6154
 1224SOL     OW 5092   1.419   1.617   0.216 -0.7360  0.3441  0.6400
 1224SOL    HW1 5093   1.430   1.597   0.123  1.4215  0.2471  0.8713
 1224SOL    HW2 5094   1.390   1.535   0.255  0.6519 -0.2895  0.3906
 1225SOL     OW 5095   3.198   0.290   5.253  0.3674 -0.4303  0.1399
 1225SOL    HW1 5096   3.195   0.228   5.326 -0.0374  0.7573  1.1809
 1225SOL    HW2 5097   3.288   0.322   5.252  1.0643 -2.2626 -1.5225
 1226SOL     OW 5098   5.050   1.884   8.573 -0.0299 -0.3146  0.2850
 1226SOL    HW1 5099   5.065   1.884   8.479 -0.6777 -0.1289  0.1778
 1226SOL    HW2 5100   5.111   1.818   8.607  1.5471  0.9284 -0.0381
 1227SOL     OW 5101   3.033   2.863   0.079  0.2763  0.2694  0.4752
 1227SOL    HW1 5102   2.973   2.937   0.077  0.5583  0.4794 -0.5991
 1227SOL    HW2 5103   3.002   2.805   0.010  0.4406 -0.3266  0.8890
 1228SOL     OW 5104   0.064   0.960   2.893  0.4214 -0.2982 -0.7481
 1228SOL    HW1 5105   0.047   0.968   2.987  2.0956 -3.3641 -0.0582
 1228SOL    HW2 5106   0.155   0.988   2.883  1.1002 -2.3994 -0.9294
 1229SOL     OW 5107   4.280   6.854   9.201  0.2524  0.1856 -0.0065
 1229SOL    HW1 5108   4.356   6.904   9.171 -0.3415  0.9373 -0.2803
 1229SOL    HW2 5109   4.205   6.902   9.168 -0.4395  0.7576  2.2173
 1230SOL     OW 5110   2.291   4.804   3.394 -0.3415  0.3038 -0.2064
 1230SOL    HW1 5111   2.338   4.858   3.457  0.3793  1.2901 -1.5408
 1230SOL    HW2 5112   2.354   4.785   3.325 -1.4146  0.2481 -1.2228
 1231SOL     OW 5113   3.503   7.633   1.374  0.0746  0.0722  0.1925
 1231SOL    HW1 5114   3.463   7.546   1.366 -0.1278 -0.0873  2.2942
 1231SOL    HW2 5115   3.578   7.620   1.432  1.2792  0.9697 -1.0940
 1232SOL     OW 5116   2.005   9.273   3.833 -0.3321 -0.1463  0.3020
 1232SOL    HW1 5117   2.007   9.358   3.877  1.0512 -0.2161  0.4106
 1232SOL    HW2 5118   2.023   9.294   3.741  0.9703 -0.3814  0.4799
 1233SOL     OW 5119   4.911   2.589   7.938  0.2110 -0.1286  0.0093
 1233SOL    HW1 5120   4.922   2.670   7.887 -0.9841 -0.5820 -1.0196
 1233SOL    HW2 5121   4.982   2.533   7.908 -0.0968 -0.1520 -0.6896
 1234SOL     OW 5122   5.940   3.701   8.337  0.3083  0.0192 -0.0988
 1234SOL    HW1 5123   5.902   3.771   8.283 -0.1704 -0.2203 -0.0775
 1234SOL    HW2 5124   6.034   3.720   8.338  0.0816  1.1846  0.6479
 1235SOL     OW 5125   2.749   7.783   6.553  0.2075  0.0912  0.2772
 1235SOL    HW1 5126   2.678   7.846   6.563  2.0817  2.9799 -2.6629
 1235SOL    HW2 5127   2.747   7.758   6.461  1.8370 -1.2707  0.5415
 1236SOL     OW 5128   8.993   8.129   3.993  0.4840  0.4074  0.2735
 1236SOL    HW1 5129   8.912   8.084   4.015  1.0685 -0.5770  0.4771
 1236SOL    HW2 5130   8.990   8.139   3.898  1.4115 -2.2891 -0.1276
 1237SOL     OW 5131   3.068   2.716   6.183 -0.0898 -0.2878  0.3813
 1237SOL    HW1 5132   2.985   2.709   6.136  0.3185  0.3490 -0.4716
 1237SOL    HW2 5133   3.123   2.769   6.125  0.8250 -0.4923  1.0518
 1238SOL     OW 5134   0.197   1.743   9.197 -0.3305 -0.4772 -0.2061
 1238SOL    HW1 5135   0.209   1.795   9.277 -0.4967  0.8719 -1.0172
 1238SOL    HW2 5136   0.107   1.711   9.203 -1.0969  1.4265 -0.8251
 1239SOL     OW 5137   3.240   6.871   4.141 -0.0038  0.0736  0.1517
 1239SOL    HW1 5138   3.197   6.802   4.191 -0.9113  0.9998  0.6914
 1239SOL    HW2 5139   3.168   6.924   4.106  0.6693  0.9729  0.0803
 1240SOL     OW 5140   8.069   7.941   1.012 -0.1149  0.0667  0.0002
 1240SOL    HW1 5141   8.029   7.917   0.928 -0.4133  0.2087  0.1012
 1240SOL    HW2 5142   8.005   7.914   1.077  0.2425 -0.3052  0.2024
 1241SOL     OW 5143   2.588   1.382   8.873  0.0733  0.0111  0.1640
 1241SOL    HW1 5144   2.533   1.382   8.952  3.1563  2.2995  2.6132
 1241SOL    HW2 5145   2.601   1.290   8.853  0.0325 -0.7343  3.0780
 1242SOL     OW 5146   1.454   5.295   6.057 -0.7819 -0.3642  0.1840
 1242SOL    HW1 5147   1.541   5.278   6.020 -1.4129 -2.4362 -0.4786
 1242SOL    HW2 5148   1.419   5.366   6.005 -0.1016 -0.5880 -0.6091
 1243SOL     OW 5149   8.167   2.157   3.266  0.1176 -0.1608 -0.1825
 1243SOL    HW1 5150   8.110   2.187   3.195  0.3330  0.2191 -0.1930
 1243SOL    HW2 5151   8.121   2.181   3.346 -0.2620 -0.8441 -0.1883
 1244SOL     OW 5152   7.519   8.514   3.899 -0.4924 -0.3229  0.3826
 1244SOL    HW1 5153   7.513   8.604   3.931  0.1883 -0.2704  0.3756
 1244SOL    HW2 5154   7.587   8.474   3.953 -3.3187 -1.9726  3.0473
 1245SOL     OW 5155   6.583   2.302   3.750  0.5241 -0.3391  0.1490
 1245SOL    HW1 5156   6.626   2.299   3.664  0.4775 -0.1929  0.1207
 1245SOL    HW2 5157   6.493   2.274   3.733  0.3845  0.1462  0.0681
 1246SOL     OW 5158   1.248   6.378   2.834 -0.0988 -0.1506  0.1402
 1246SOL    HW1 5159   1.267   6.469   2.812 -0.3783 -0.4307 -1.4170
 1246SOL    HW2 5160   1.315   6.328   2.787 -0.4764 -0.7749  0.2555
 1247SOL     OW 5161   0.695   4.346   3.375  0.1744 -0.1638 -0.7055
 1247SOL    HW1 5162   0.652   4.306   3.450 -0.0432  0.8418 -0.2756
 1247SOL    HW2 5163   0.651   4.308   3.299 -0.6646 -0.0488 -0.2919
 1248SOL     OW 5164   7.890   0.191   8.092 -0.4975 -0.5067 -0.1300
 1248SOL    HW1 5165   7.823   0.223   8.152 -0.0294 -0.0760  0.1700
 1248SOL    HW2 5166   7.971   0.191   8.144 -0.3570 -1.5306 -0.3242
 1249SOL     OW 5167   0.024   2.863   4.209  0.5820  0.8010  0.0213
 1249SOL    HW1 5168   0.090   2.815   4.159  1.5438  1.3447  0.7298
 1249SOL    HW2 5169   0.012   2.945   4.161  0.5773  0.7933  0.0097
 1250SOL     OW 5170   0.532   8.336   2.242  0.0086 -0.2734  0.3691
 1250SOL    HW1 5171   0.545   8.369   2.331  1.2740 -0.8354  0.4163
 1250SOL    HW2 5172   0.598   8.268   2.232 -0.2447 -0.3525 -0.9397
 1251SOL     OW 5173   6.912   0.306   3.248 -0.4018 -0.3718  0.4370
 1251SOL    HW1 5174   6.943   0.236   3.191  0.4763  0.6358 -0.3529
 1251SOL    HW2 5175   6.851   0.356   3.195  0.0536  0.2903  0.5217
 1252SOL     OW 5176   2.464   0.567   2.324  0.3002 -0.2971 -0.2850
 1252SOL    HW1 5177   2.435   0.568   2.233  2.4327  1.5185 -1.0527
 1252SOL    HW2 5178   2.471   0.660   2.348  1.5622 -0.6984  1.0783
 1253SOL     OW 5179   9.013   0.188   5.918  0.1720 -0.1063 -0.2612
 1253SOL    HW1 5180   8.966   0.141   5.849 -0.2801  0.9411 -0.6983
 1253SOL    HW2 5181   8.945   0.209   5.982  0.2660  0.3884 -0.3222
 1254SOL     OW 5182   5.439   0.503   0.595 -0.3313 -0.0374  0.2597
 1254SOL    HW1 5183   5.376   0.454   0.649 -1.0634  0.0345 -0.5104
 1254SOL    HW2 5184   5.447   0.587   0.640  0.5022 -0.6323  1.2791
 1255SOL     OW 5185   6.372   4.392   6.042  0.3045 -0.7384  0.2776
 1255SOL    HW1 5186   6.294   4.388   6.097  0.2052 -0.4088  0.1620
 1255SOL    HW2 5187   6.338   4.414   5.955  0.4488 -1.3395  0.0602
 1256SOL     OW 5188   3.664   6.847   4.706  0.7218 -0.8499 -0.7005
 1256SOL    HW1 5189   3.650   6.886   4.793 -0.4576 -0.4171 -1.0613
 1256SOL    HW2 5190   3.733   6.782   4.720  1.4859  0.1225  0.2866
 1257SOL     OW 5191   6.963   1.603   5.014  0.3016  0.2605 -0.7211
 1257SOL    HW1 5192   6.881   1.584   4.969 -0.3093 -1.3517  0.9821
 1257SOL    HW2 5193   7.014   1.653   4.950 -0.3893 -2.1397 -3.3042
 1258SOL     OW 5194   0.477   8.419   4.395 -0.1107 -0.3746  0.1081
 1258SOL    HW1 5195   0.483   8.371   4.312 -1.9166  1.5732 -1.2626
 1258SOL    HW2 5196   0.520   8.362   4.458  0.1430 -2.5828 -1.8798
 1259SOL     OW 5197   7.511   5.985   5.344  0.2049 -0.2970 -0.3865
 1259SOL    HW1 5198   7.532   5.923   5.414  0.4883  1.2775  1.0175
 1259SOL    HW2 5199   7.597   6.008   5.307  0.1926 -0.0709 -0.2773
 1260SOL     OW 5200   1.264   4.114   0.055  0.1760  0.1848 -0.2042
 1260SOL    HW1 5201   1.182   4.077   0.087 -0.1318  1.4391  0.5332
 1260SOL    HW2 5202   1.260   4.102  -0.040 -1.9156  2.1055 -0.4644
 1261SOL     OW 5203   5.214   5.404   7.344 -0.0759  0.0221  0.4530
 1261SOL    HW1 5204   5.178   5.488   7.372  0.0387  0.7986 -1.5596
 1261SOL    HW2 5205   5.295   5.426   7.299  0.0163 -1.1743 -0.0035
 1262SOL     OW 5206   4.994   4.843   0.581  0.4799  0.0705 -0.3877
 1262SOL    HW1 5207   4.975   4.847   0.487 -0.0970  0.9783 -0.2402
 1262SOL    HW2 5208   4.970   4.754   0.606 -0.1462  0.0772 -0.9400
 1263SOL     OW 5209   5.325   6.795   0.588  0.4056  0.2288  0.3313
 1263SOL    HW1 5210   5.326   6.882   0.548  0.1697 -0.3440 -0.9839
 1263SOL    HW2 5211   5.346   6.735   0.516  0.7551 -0.7952  1.2530
 1264SOL     OW 5212   6.775   6.562   8.551 -0.0414  0.1247 -0.5600
 1264SOL    HW1 5213   6.813   6.650   8.546  0.4496 -0.1124 -1.1119
 1264SOL    HW2 5214   6.695   6.567   8.498 -0.6180  0.5328  0.3266
 1265SOL     OW 5215   6.503   6.136   5.575 -0.1811 -0.2622  0.9565
 1265SOL    HW1 5216   6.457   6.195   5.635 -1.4344  1.4100 -1.4570
 1265SOL    HW2 5217   6.567   6.193   5.531 -1.5322 -0.5221 -1.5619
 1266SOL     OW 5218   8.238   4.011   3.138 -0.7161 -0.1457 -0.0993
 1266SOL    HW1 5219   8.251   4.077   3.206 -1.1927  0.3280 -0.4512
 1266SOL    HW2 5220   8.304   3.944   3.156 -0.7606  0.0236  0.7594
 1267SOL     OW 5221   2.793   5.973   0.380  0.5903 -0.7354  0.2052
 1267SOL    HW1 5222   2.880   5.933   0.377  1.1017  0.3186  0.4307
 1267SOL    HW2 5223   2.733   5.900   0.393  1.5176 -1.3922  0.8881
 1268SOL     OW 5224   6.013   0.290   4.080 -0.2584 -0.0593 -0.3877
 1268SOL    HW1 5225   6.013   0.242   3.998  0.2658 -2.0983  0.7292
 1268SOL    HW2 5226   5.921   0.307   4.099 -0.6282 -2.2944  0.0554
 1269SOL     OW 5227   0.946   5.336   6.459 -0.1979 -0.1028  0.5148
 1269SOL    HW1 5228   0.951   5.278   6.383 -1.2188  0.2828  0.1321
 1269SOL    HW2 5229   1.030   5.381   6.460 -0.3615  0.2766 -0.7131
 1270SOL     OW 5230   0.001   2.333   1.316  0.1327  0.2593 -0.2188
 1270SOL    HW1 5231  -0.023   2.319   1.225 -0.8081  1.6292 -0.2199
 1270SOL    HW2 5232   0.095   2.352   1.314  0.1720  0.0216 -0.8659
 1271SOL     OW 5233   5.631   0.148   7.463  0.3861  0.0909  0.0078
 1271SOL    HW1 5234   5.577   0.131   7.385  0.5303  1.0613 -0.3181
 1271SOL    HW2 5235   5.647   0.061   7.500 -0.7829 -0.2789 -0.2983
 1272SOL     OW 5236   6.564   2.571   3.604 -0.3396  0.2431  0.2657
 1272SOL    HW1 5237   6.490   2.612   3.560 -1.2510 -0.7652  0.7984
 1272SOL    HW2 5238   6.550   2.590   3.697 -0.0958 -0.2044  0.3979
 1273SOL     OW 5239   6.677   6.398   4.679  0.3640  0.0333 -0.1517
 1273SOL    HW1 5240   6.754   6.343   4.692 -0.4641 -1.2104 -0.2784
 1273SOL    HW2 5241   6.616   6.370   4.748  0.1514  1.2497  0.1770
 1274SOL     OW 5242   1.710   2.400   0.077  0.1202  0.0882  0.3026
 1274SOL    HW1 5243   1.805   2.398   0.069  0.2012  0.2569  1.1280
 1274SOL    HW2 5244   1.683   2.309   0.062  0.4145  0.0294  0.1262
 1275SOL     OW 5245   3.103   7.144   5.034 -0.9592 -0.2725  0.0646
 1275SOL    HW1 5246   3.114   7.054   5.003  0.0668 -0.1212 -0.0510
 1275SOL    HW2 5247   3.190   7.184   5.023 -0.9400  0.2302  1.7420
 1276SOL     OW 5248   6.766   6.188   7.124  0.2104 -0.2676 -0.1459
 1276SOL    HW1 5249   6.851   6.154   7.150 -0.5619 -1.6242  0.6991
 1276SOL    HW2 5250   6.779   6.283   7.119  2.2331 -0.5461 -1.8354
 1277SOL     OW 5251   1.718   2.607   7.004 -0.5337 -0.0809 -0.2842
 1277SOL    HW1 5252   1.634   2.561   7.005 -0.1638 -0.9593 -2.6109
 1277SOL    HW2 5253   1.772   2.555   6.945  1.0328  1.5030 -0.3039
 1278SOL     OW 5254   8.507   6.752   2.175 -0.4548  0.0906  0.5860
 1278SOL    HW1 5255   8.577   6.701   2.134 -0.4657  1.2563 -0.9635
 1278SOL    HW2 5256   8.465   6.691   2.235  0.9273 -1.0679  0.4284
 1279SOL     OW 5257   5.598   7.263   7.199  0.2154 -0.3749  0.3031
 1279SOL    HW1 5258   5.594   7.356   7.221 -0.9964 -0.7844  2.0339
 1279SOL    HW2 5259   5.616   7.261   7.105  0.4671  1.5920  0.2729
 1280SOL     OW 5260   1.887   5.086   4.370 -0.1619 -0.0338 -0.5854
 1280SOL    HW1 5261   1.927   5.147   4.432  0.5844 -1.0366 -0.0552
 1280SOL    HW2 5262   1.934   5.003   4.383  0.1176 -0.2526 -2.5751
 1281SOL     OW 5263   3.526   7.302   1.872  0.3746  0.0485  0.1454
 1281SOL    HW1 5264   3.601   7.279   1.818  1.8156 -0.4342  2.2233
 1281SOL    HW2 5265   3.553   7.380   1.919  0.7738 -1.6478  2.9632
 1282SOL     OW 5266   2.311   0.050   2.090 -0.3420 -0.7112  0.2195
 1282SOL    HW1 5267   2.269   0.057   2.004 -0.9103 -1.6818  0.3997
 1282SOL    HW2 5268   2.396   0.011   2.073 -0.5134 -1.0381  0.1088
 1283SOL     OW 5269   3.281   5.349   4.114  0.4374 -0.0121 -0.1821
 1283SOL    HW1 5270   3.294   5.347   4.209  1.6597 -0.7805 -0.3484
 1283SOL    HW2 5271   3.281   5.442   4.091  2.4797  0.1421  0.2845
 1284SOL     OW 5272   8.816   3.426   8.283  0.0818  0.0772  0.1741
 1284SOL    HW1 5273   8.837   3.494   8.219  0.4016 -1.5693 -1.5758
 1284SOL    HW2 5274   8.812   3.345   8.231  1.5669 -1.5494  2.4322
 1285SOL     OW 5275   3.641   7.684   4.602 -0.0784 -0.7063  0.0433
 1285SOL    HW1 5276   3.593   7.764   4.580 -0.5252 -1.2743 -1.1326
 1285SOL    HW2 5277   3.682   7.657   4.520  0.3704 -1.4821  0.5077
 1286SOL     OW 5278   0.466   2.259   6.358  0.1096  0.2926 -0.1439
 1286SOL    HW1 5279   0.554   2.238   6.325  0.4409 -0.2684  1.0385
 1286SOL    HW2 5280   0.462   2.215   6.442 -1.4685 -0.0138 -0.3627
 1287SOL     OW 5281   4.467   0.946   4.387  0.1919  0.2652 -0.3244
 1287SOL    HW1 5282   4.415   1.014   4.428 -0.5833 -0.1257 -0.6446
 1287SOL    HW2 5283   4.551   0.948   4.433 -0.2232  0.6702  0.4234
 1288SOL     OW 5284   4.820   8.479   2.086 -0.7217  0.1102 -0.2902
 1288SOL    HW1 5285   4.837   8.571   2.067  1.8182 -0.3077 -0.2853
 1288SOL    HW2 5286   4.905   8.436   2.078 -1.0468 -1.5905  3.4690
 1289SOL     OW 5287   1.902   2.935   3.700 -0.3252 -0.1186 -0.3429
 1289SOL    HW1 5288   1.934   2.948   3.611 -1.1076  2.0748 -0.3717
 1289SOL    HW2 5289   1.898   2.840   3.711 -1.7364 -0.4923 -3.1983
 1290SOL     OW 5290   5.166   5.387   2.517  0.1360  0.1365 -0.2568
 1290SOL    HW1 5291   5.188   5.295   2.523  2.6634  0.7651  2.7563
 1290SOL    HW2 5292   5.083   5.395   2.564  1.4811 -0.2769  2.3578
 1291SOL     OW 5293   1.949   0.343   8.908 -0.0732  0.1168 -0.0252
 1291SOL    HW1 5294   1.924   0.251   8.909  0.0922  0.0744  0.3879
 1291SOL    HW2 5295   2.011   0.350   8.835 -0.4879  0.0144 -0.3911
 1292SOL     OW 5296   8.196   2.288   8.664  0.1997 -0.1748  0.0854
 1292SOL    HW1 5297   8.124   2.348   8.641  0.3634  0.4166  1.0471
 1292SOL    HW2 5298   8.205   2.298   8.758  1.6269 -0.1517 -0.0368
 1293SOL     OW 5299   5.415   0.113   1.286 -0.4241  0.0926 -0.2336
 1293SOL    HW1 5300   5.480   0.067   1.232 -2.0407 -1.0533 -1.2899
 1293SOL    HW2 5301   5.421   0.204   1.259 -0.9171 -0.3903 -2.1044
 1294SOL     OW 5302   6.322   6.896   4.946 -0.1363 -0.3187  0.4457
 1294SOL    HW1 5303   6.415   6.879   4.964  0.3351  0.7239 -0.7883
 1294SOL    HW2 5304   6.291   6.816   4.902  1.0518  0.4206 -1.9574
 1295SOL     OW 5305   7.401   0.660   7.888  0.1953 -0.5088 -0.1772
 1295SOL    HW1 5306   7.325   0.622   7.846 -2.4575  1.3420  2.4848
 1295SOL    HW2 5307   7.390   0.755   7.877  0.2975 -0.0181  2.8539
 1296SOL     OW 5308   7.490   3.266   0.762  0.3311 -0.0456  0.2070
 1296SOL    HW1 5309   7.581   3.265   0.790  0.3466 -1.2081  0.1455
 1296SOL    HW2 5310   7.493   3.248   0.668  0.2082  2.8701 -0.4633
 1297SOL     OW 5311   0.467   0.421   0.784 -0.1848 -0.0709 -0.3854
 1297SOL    HW1 5312   0.437   0.439   0.694  1.0423  1.2885 -0.5555
 1297SOL    HW2 5313   0.516   0.500   0.809 -1.9807  0.3571  2.1575
 1298SOL     OW 5314   2.240   6.147   4.985  0.1152 -0.0826 -0.6010
 1298SOL    HW1 5315   2.224   6.182   4.897  1.1642  0.7035 -0.5078
 1298SOL    HW2 5316   2.154   6.118   5.015 -0.0398 -1.7827 -2.4618
 1299SOL     OW 5317   5.100   3.928   8.433 -0.2416 -0.0305 -0.1092
 1299SOL    HW1 5318   5.134   4.014   8.409  1.1135 -0.6160 -0.4098
 1299SOL    HW2 5319   5.096   3.880   8.350 -1.7830 -0.0270 -0.0774
 1300SOL     OW 5320   6.645   1.705   8.009  0.0706 -0.5930 -0.0422
 1300SOL    HW1 5321   6.552   1.713   7.989 -0.6796 -1.8892  2.4811
 1300SOL    HW2 5322   6.665   1.613   7.990  0.9164 -0.2932 -0.6957
 1301SOL     OW 5323   2.356   4.047   5.848  0.0295 -1.6732 -0.1158
 1301SOL    HW1 5324   2.376   4.127   5.799 -0.1518 -1.1515  0.6444
 1301SOL    HW2 5325   2.410   4.053   5.927  0.0015 -2.2991 -0.0403
 1302SOL     OW 5326   8.928   5.706   8.388  0.0350 -0.1989  0.6123
 1302SOL    HW1 5327   8.849   5.721   8.441 -0.2945 -1.8911  0.6392
 1302SOL    HW2 5328   8.939   5.788   8.340 -2.4799 -0.3096 -0.3347
 1303SOL     OW 5329   7.183   3.861   1.257  0.1796  0.2557  0.0288
 1303SOL    HW1 5330   7.209   3.945   1.219  0.5222  0.1799  0.0940
 1303SOL    HW2 5331   7.209   3.796   1.191 -1.9761  0.3375 -0.9849
 1304SOL     OW 5332   8.295   2.327   2.869 -0.0623 -0.6608  0.0500
 1304SOL    HW1 5333   8.268   2.237   2.850 -0.1128 -0.7012  0.3040
 1304SOL    HW2 5334   8.353   2.351   2.797 -0.0816 -0.8838 -0.0403
 1305SOL     OW 5335   1.857   4.287   5.910 -0.0010  0.1390  0.1191
 1305SOL    HW1 5336   1.875   4.239   5.829  0.4728  0.5235 -0.0066
 1305SOL    HW2 5337   1.836   4.218   5.974  0.5384 -0.2321 -0.0900
 1306SOL     OW 5338   8.210   1.770   4.198 -0.7324  0.1323 -0.2267
 1306SOL    HW1 5339   8.132   1.751   4.252 -0.3741 -0.1670  0.1933
 1306SOL    HW2 5340   8.203   1.864   4.180 -0.4580  0.4140  1.0110
 1307SOL     OW 5341   1.805   3.191   8.709  0.0429  0.3163 -0.2638
 1307SOL    HW1 5342   1.790   3.223   8.620 -0.5971  1.2214  0.1597
 1307SOL    HW2 5343   1.820   3.269   8.761  2.0647 -0.2814  0.1587
 1308SOL     OW 5344   6.447   1.019   7.080  0.2138  0.1160 -0.2876
 1308SOL    HW1 5345   6.509   0.981   7.141  0.4003 -0.5466 -0.8821
 1308SOL    HW2 5346   6.418   0.946   7.025  0.2611  0.7377 -1.1723
 1309SOL     OW 5347   0.282   4.510   6.435  0.0013  0.1497  0.0992
 1309SOL    HW1 5348   0.372   4.512   6.404 -0.5079  0.9662 -1.4442
 1309SOL    HW2 5349   0.256   4.418   6.429 -0.0676  0.2527 -2.0348
 1310SOL     OW 5350   9.156   1.671   8.752  0.2790  0.0413  0.0845
 1310SOL    HW1 5351   9.147   1.582   8.719 -0.1339 -0.2828  1.0483
 1310SOL    HW2 5352   9.251   1.683   8.763  0.7596  1.1306 -3.7365
 1311SOL     OW 5353   0.302   7.018   0.814  0.5614 -0.3255 -0.2080
 1311SOL    HW1 5354   0.356   7.023   0.736 -0.7201  1.4794 -1.0539
 1311SOL    HW2 5355   0.333   7.089   0.870 -0.3400  0.1746 -0.3250
 1312SOL     OW 5356   7.828   5.545   6.613  0.5266  0.0219 -0.2745
 1312SOL    HW1 5357   7.906   5.575   6.566 -0.6985  2.8375 -0.7133
 1312SOL    HW2 5358   7.775   5.501   6.546  0.4932  0.6485 -0.6692
 1313SOL     OW 5359   6.101   2.016   7.348 -0.6676 -0.4670 -0.2554
 1313SOL    HW1 5360   6.099   2.041   7.256 -0.0158 -0.3751 -0.2498
 1313SOL    HW2 5361   6.123   1.923   7.346 -1.5269 -0.6862 -0.2159
 1314SOL     OW 5362   0.955   1.570   0.753  0.1984  0.1471 -0.6406
 1314SOL    HW1 5363   0.945   1.496   0.813 -0.4686 -0.0180 -0.9528
 1314SOL    HW2 5364   1.004   1.533   0.679 -0.5679 -0.1176 -1.0244
 1315SOL     OW 5365   2.061   8.580   2.390  0.6738 -0.3284  0.0832
 1315SOL    HW1 5366   2.082   8.536   2.472  1.1659 -1.4412 -0.6246
 1315SOL    HW2 5367   2.049   8.672   2.415 -0.4479 -0.8417  1.6011
 1316SOL     OW 5368   5.698   4.431   5.462  0.5912  0.0062 -0.2500
 1316SOL    HW1 5369   5.715   4.525   5.473  1.9702 -0.1394 -0.8950
 1316SOL    HW2 5370   5.783   4.389   5.478 -0.3957 -1.3416  1.9451
 1317SOL     OW 5371   7.016   4.865   0.660 -0.4073  0.1709 -0.0068
 1317SOL    HW1 5372   6.971   4.781   0.649  1.6605 -1.1249  1.0650
 1317SOL    HW2 5373   7.018   4.902   0.571  1.6501 -2.5290 -1.2009
 1318SOL     OW 5374   9.129   6.083   7.695  0.4179  0.5395 -0.0148
 1318SOL    HW1 5375   9.091   6.168   7.673 -1.3036  0.6308  2.8261
 1318SOL    HW2 5376   9.222   6.101   7.712 -0.0442  2.0054  1.1343
 1319SOL     OW 5377   0.440   6.631   3.631  0.2611 -0.0224 -0.2414
 1319SOL    HW1 5378   0.534   6.618   3.623  0.4454  0.8451  0.4172
 1319SOL    HW2 5379   0.404   6.542   3.642  1.1928 -0.2405  1.3711
 1320SOL     OW 5380   3.496   4.192   1.794 -0.3922  0.2138  0.1324
 1320SOL    HW1 5381   3.458   4.186   1.706 -1.0006 -0.3095  0.4179
 1320SOL    HW2 5382   3.577   4.142   1.790 -0.4337  0.1681 -0.1210
 1321SOL     OW 5383   8.597   4.877   0.152  0.1889  0.0007  0.4719
 1321SOL    HW1 5384   8.512   4.890   0.194  0.4645 -0.5687  1.2292
 1321SOL    HW2 5385   8.596   4.785   0.124 -0.0613  0.4146 -0.9558
 1322SOL     OW 5386   9.017   4.225   4.853 -0.4394 -0.2903 -0.0632
 1322SOL    HW1 5387   8.953   4.212   4.923 -2.2387  3.6073 -0.6942
 1322SOL    HW2 5388   9.101   4.226   4.898 -1.2514 -0.8861  1.5588
 1323SOL     OW 5389   1.607   4.527   1.130  0.2791 -0.2852  0.2875
 1323SOL    HW1 5390   1.544   4.599   1.128 -0.5197 -0.9786 -0.8153
 1323SOL    HW2 5391   1.593   4.484   1.214  0.4701  0.5819  0.7688
 1324SOL     OW 5392   1.032   0.750   7.554 -0.0314 -0.0485 -0.3406
 1324SOL    HW1 5393   0.947   0.715   7.582 -0.4167 -0.1298 -1.5160
 1324SOL    HW2 5394   1.095   0.711   7.614 -0.8661  0.3999  0.8704
 1325SOL     OW 5395   6.985   6.722   4.338  0.4098 -0.5434 -0.2365
 1325SOL    HW1 5396   6.971   6.778   4.414  0.9235  0.5149 -0.9024
 1325SOL    HW2 5397   6.998   6.782   4.265  2.0628 -1.5039 -0.7843
 1326SOL     OW 5398   7.884   6.703   8.215 -0.7536 -0.4441  0.1761
 1326SOL    HW1 5399   7.815   6.650   8.176 -0.0497 -1.7424  0.6193
 1326SOL    HW2 5400   7.941   6.726   8.142 -0.8124 -0.7245  0.0398
 1327SOL     OW 5401   5.844   5.022   7.549  0.0487 -0.1820  0.7616
 1327SOL    HW1 5402   5.882   4.986   7.469 -1.0370 -0.4617  0.3484
 1327SOL    HW2 5403   5.878   5.111   7.555  1.1033 -0.5749  0.6558
 1328SOL     OW 5404   3.691   4.962   7.841 -0.1731  0.1772  0.4125
 1328SOL    HW1 5405   3.677   5.053   7.868  0.6955  0.0110  1.4758
 1328SOL    HW2 5406   3.672   4.910   7.919  0.4588 -0.4665  0.1476
 1329SOL     OW 5407   4.373   0.726   9.247  0.3233 -0.0247 -0.1464
 1329SOL    HW1 5408   4.445   0.785   9.270  0.2318 -0.2467  0.7420
 1329SOL    HW2 5409   4.295   0.768   9.284  0.2081 -0.5064  0.1729
 1330SOL     OW 5410   6.504   6.132   1.743 -0.1797  0.9095 -0.2621
 1330SOL    HW1 5411   6.588   6.165   1.776 -0.1390  2.5063 -1.7970
 1330SOL    HW2 5412   6.527   6.060   1.685 -0.0083  0.3159  0.5246
 1331SOL     OW 5413   7.700   6.306   2.720 -0.2829  0.2416 -0.3547
 1331SOL    HW1 5414   7.780   6.281   2.767 -0.0007  0.1808 -0.8614
 1331SOL    HW2 5415   7.656   6.367   2.779  1.8214  3.0235 -1.4055
 1332SOL     OW 5416   3.923   8.746   6.954  0.0468 -0.0306  0.0790
 1332SOL    HW1 5417   4.003   8.739   6.902 -0.2788 -1.9263 -0.2407
 1332SOL    HW2 5418   3.867   8.676   6.921 -1.5664  0.9453  0.6269
 1333SOL     OW 5419   6.928   6.088   0.650 -0.5127  0.1544  0.4224
 1333SOL    HW1 5420   6.866   6.072   0.721  0.3886 -0.2172  1.1445
 1333SOL    HW2 5421   7.006   6.123   0.693  0.2451 -0.5799 -0.3081
 1334SOL     OW 5422   7.779   8.366   3.137  0.3312  0.3728 -0.2545
 1334SOL    HW1 5423   7.710   8.411   3.185  1.1071 -0.1183  1.4273
 1334SOL    HW2 5424   7.735   8.294   3.092 -0.4170  0.7545 -0.1376
 1335SOL     OW 5425   3.763   1.837   6.976 -0.5144  0.1621  0.0587
 1335SOL    HW1 5426   3.685   1.884   6.946  0.2536  1.3337 -0.1821
 1335SOL    HW2 5427   3.823   1.838   6.901  1.0662  2.3074  1.2342
 1336SOL     OW 5428   2.944   0.876   2.662  0.0411 -0.4324  0.0339
 1336SOL    HW1 5429   2.848   0.876   2.660 -0.0215 -2.1477  1.0131
 1336SOL    HW2 5430   2.971   0.826   2.585  0.2478  1.3692 -1.1261
 1337SOL     OW 5431   3.331   8.359   3.782 -0.5426 -0.7515 -0.0448
 1337SOL    HW1 5432   3.235   8.360   3.779 -0.5383  0.0591 -0.1873
 1337SOL    HW2 5433   3.357   8.325   3.697 -0.6862  2.6711 -1.6125
 1338SOL     OW 5434   7.328   0.839   9.174  0.1371  0.6325 -0.1353
 1338SOL    HW1 5435   7.330   0.745   9.158 -0.9603  0.4361  0.7297
 1338SOL    HW2 5436   7.307   0.878   9.089 -0.1027  0.0454 -0.3458
 1339SOL     OW 5437   8.379   2.162   6.885 -0.8677  0.4588  0.5181
 1339SOL    HW1 5438   8.433   2.103   6.938  1.1377  0.5033 -1.3124
 1339SOL    HW2 5439   8.368   2.115   6.802 -2.0592  1.2899  0.1791
 1340SOL     OW 5440   3.621   5.990   3.423  0.3656 -0.1119  0.3061
 1340SOL    HW1 5441   3.649   6.033   3.504  0.1113 -0.1905  0.4387
 1340SOL    HW2 5442   3.533   6.024   3.407  0.3992 -0.1278  0.0831
 1341SOL     OW 5443   3.682   8.813   8.787  0.0822  0.4055  0.2867
 1341SOL    HW1 5444   3.665   8.729   8.745 -0.5394 -0.1469  1.5835
 1341SOL    HW2 5445   3.776   8.815   8.802  0.2596  0.4674 -0.8187
 1342SOL     OW 5446   8.171   3.887   5.615  0.0210 -0.0743 -0.2369
 1342SOL    HW1 5447   8.134   3.975   5.615  0.1736 -0.0044  0.3285
 1342SOL    HW2 5448   8.265   3.899   5.604 -0.1750 -0.2997 -2.6086
 1343SOL     OW 5449   3.493   8.725   4.802 -0.4194  0.1560  0.1559
 1343SOL    HW1 5450   3.431   8.678   4.746 -1.5849 -0.6058  2.0117
 1343SOL    HW2 5451   3.439   8.766   4.869  0.8767  1.7074  0.3156
 1344SOL     OW 5452   7.455   5.033   4.699  0.1832 -0.3572 -0.2145
 1344SOL    HW1 5453   7.389   4.965   4.712  0.1401 -0.5536 -1.3225
 1344SOL    HW2 5454   7.416   5.090   4.632  0.8295 -0.0606 -0.3405
 1345SOL     OW 5455   5.153   0.384   0.268  0.4026 -0.0755  0.5284
 1345SOL    HW1 5456   5.142   0.397   0.362  0.2957 -1.3502  0.7066
 1345SOL    HW2 5457   5.065   0.392   0.232 -0.0839 -2.7022  0.9715
 1346SOL     OW 5458   3.249   2.751   1.886 -0.5879  0.0210  0.1308
 1346SOL    HW1 5459   3.187   2.679   1.893 -1.0555  0.5662  2.4118
 1346SOL    HW2 5460   3.209   2.812   1.824 -1.6959 -0.2606  0.5486
 1347SOL     OW 5461   5.897   0.607   6.821  0.8091  0.2765 -0.0986
 1347SOL    HW1 5462   5.883   0.653   6.904  0.7334 -2.3446  1.4401
 1347SOL    HW2 5463   5.823   0.547   6.815  1.3725 -0.2997 -1.5792
 1348SOL     OW 5464   2.493   2.516   8.661  0.4079  0.6972  0.0527
 1348SOL    HW1 5465   2.552   2.451   8.624 -2.2654 -1.3990 -0.8958
 1348SOL    HW2 5466   2.478   2.487   8.751  1.5377  1.8179  0.6334
 1349SOL     OW 5467   0.884   0.729   0.769  0.0660  0.5615 -0.4591
 1349SOL    HW1 5468   0.905   0.798   0.833  0.3518  0.3362 -0.3065
 1349SOL    HW2 5469   0.962   0.725   0.713  1.5896 -1.9902  1.6071
 1350SOL     OW 5470   3.241   2.206   5.111  0.5344 -0.0105 -0.2379
 1350SOL    HW1 5471   3.245   2.301   5.123 -2.1091  0.5288 -2.5841
 1350SOL    HW2 5472   3.148   2.185   5.121  1.1895 -2.5825  1.2061
 1351SOL     OW 5473   8.222   7.393   8.251 -0.0910  0.2857 -0.3061
 1351SOL    HW1 5474   8.248   7.307   8.285 -1.6132  0.1433  0.5863
 1351SOL    HW2 5475   8.178   7.436   8.325 -1.9452  0.6622 -1.5651
 1352SOL     OW 5476   4.167   6.278   4.741  0.6106 -0.5288  0.0372
 1352SOL    HW1 5477   4.247   6.314   4.779  1.6582 -3.0317  0.4075
 1352SOL    HW2 5478   4.188   6.265   4.648  0.6918 -1.2922  0.1567
 1353SOL     OW 5479   6.766   2.835   2.148 -0.0013 -0.1806  0.3297
 1353SOL    HW1 5480   6.814   2.757   2.175  1.0322 -0.0769 -1.0979
 1353SOL    HW2 5481   6.821   2.908   2.179 -1.7771  0.1293  3.1946
 1354SOL     OW 5482   1.472   5.245   3.879  0.2094 -0.1946  0.4317
 1354SOL    HW1 5483   1.436   5.314   3.824 -1.5121 -1.5204 -0.1756
 1354SOL    HW2 5484   1.549   5.214   3.831  0.8852  1.1182  0.6159
 1355SOL     OW 5485   8.755   3.684   1.244 -0.0149 -0.0256  0.0144
 1355SOL    HW1 5486   8.736   3.710   1.334 -1.3649  0.9973 -0.5330
 1355SOL    HW2 5487   8.670   3.660   1.207  0.6129 -1.1359 -0.7902
 1356SOL     OW 5488   6.573   4.146   1.759  0.6587  0.0090 -0.0146
 1356SOL    HW1 5489   6.543   4.115   1.844 -0.3605  2.1771  0.4696
 1356SOL    HW2 5490   6.494   4.149   1.705  1.4873 -2.7635 -1.6172
 1357SOL     OW 5491   7.418   6.051   1.857  0.1092 -0.0047  0.3055
 1357SOL    HW1 5492   7.388   6.028   1.769 -1.8043  0.2287  0.8646
 1357SOL    HW2 5493   7.413   5.969   1.906  0.1496  0.0936  0.4743
 1358SOL     OW 5494   4.913   2.074   3.639 -0.3189 -0.5549  0.2842
 1358SOL    HW1 5495   4.908   1.979   3.652 -0.9742 -0.8218 -1.6221
 1358SOL    HW2 5496   4.864   2.090   3.559  1.8275  1.0811 -0.8192
 1359SOL     OW 5497   5.447   7.730   4.307  0.0338 -0.3765  0.7901
 1359SOL    HW1 5498   5.454   7.637   4.328 -0.2047 -0.5952 -0.0512
 1359SOL    HW2 5499   5.537   7.757   4.288 -0.0978 -0.8871 -0.7153
 1360SOL     OW 5500   8.495   4.559   9.014 -0.1131 -0.1267  0.3616
 1360SOL    HW1 5501   8.516   4.551   9.107 -0.7786  1.6934  0.7228
 1360SOL    HW2 5502   8.405   4.527   9.008 -0.6868  1.3288  0.7059
 1361SOL     OW 5503   1.274   1.044   7.580  0.2795 -0.5440 -0.7417
 1361SOL    HW1 5504   1.248   1.128   7.543  1.4522 -1.0848 -2.9834
 1361SOL    HW2 5505   1.229   1.039   7.664 -0.7056  1.8048 -1.0716
 1362SOL     OW 5506   6.899   7.162   6.573 -0.8401  0.8400 -0.0519
 1362SOL    HW1 5507   6.951   7.141   6.496 -1.3196  2.1911 -0.7669
 1362SOL    HW2 5508   6.957   7.141   6.647  0.1549  0.8728 -0.8013
 1363SOL     OW 5509   3.268   0.150   8.620  0.0981 -0.2207  0.1255
 1363SOL    HW1 5510   3.254   0.204   8.543  0.2267  0.6063  0.6695
 1363SOL    HW2 5511   3.184   0.107   8.635 -0.7576  1.6351  1.0344
 1364SOL     OW 5512   1.029   9.087   0.813  0.7036  0.3829  0.5224
 1364SOL    HW1 5513   1.016   9.054   0.724  1.8510 -2.0624  1.1833
 1364SOL    HW2 5514   1.007   9.012   0.870 -1.3349  2.2737  2.3997
 1365SOL     OW 5515   7.366   9.196   7.108  0.7484 -0.6616 -0.2561
 1365SOL    HW1 5516   7.332   9.270   7.158 -0.2386 -1.5608  0.4351
 1365SOL    HW2 5517   7.288   9.146   7.083  1.3728 -1.2582 -1.0560
 1366SOL     OW 5518   0.863   3.806   4.907  0.3834 -0.3779  0.2374
 1366SOL    HW1 5519   0.797   3.862   4.867  2.0926 -0.4171 -2.9354
 1366SOL    HW2 5520   0.815   3.726   4.932 -0.9699  0.0452 -0.9158
 1367SOL     OW 5521   1.390   0.710   8.995  0.0405 -0.0699  0.1345
 1367SOL    HW1 5522   1.362   0.629   8.952  0.3670  0.1657 -0.5385
 1367SOL    HW2 5523   1.397   0.687   9.088  1.4756 -1.1948 -0.2129
 1368SOL     OW 5524   7.977   7.364   1.650 -0.4501  0.0149  0.2580
 1368SOL    HW1 5525   7.963   7.364   1.555 -0.0212  1.7743  0.1692
 1368SOL    HW2 5526   8.001   7.454   1.671  1.8977 -0.8466  1.6911
 1369SOL     OW 5527   1.738   5.965   8.478 -0.0891  0.5514  0.3189
 1369SOL    HW1 5528   1.800   5.963   8.404  0.0158 -1.0909  0.4219
 1369SOL    HW2 5529   1.712   6.057   8.484  0.9321  0.9574 -0.9054
 1370SOL     OW 5530   3.291   3.481   0.565  0.4955 -0.8215  0.0962
 1370SOL    HW1 5531   3.329   3.396   0.543  2.2328 -0.2609  0.7665
 1370SOL    HW2 5532   3.284   3.480   0.661  1.0415 -0.0261  0.1550
 1371SOL     OW 5533   6.464   0.175   2.828 -0.1407  0.2380 -0.3105
 1371SOL    HW1 5534   6.377   0.135   2.834 -0.7374  1.4598 -0.6038
 1371SOL    HW2 5535   6.455   0.243   2.762  1.0391  0.4026 -0.3181
 1372SOL     OW 5536   2.167   3.827   0.103 -0.0388 -0.3134 -0.3566
 1372SOL    HW1 5537   2.210   3.828   0.018  1.5561 -0.8274  0.3858
 1372SOL    HW2 5538   2.223   3.882   0.158 -1.6228  0.8768  0.1170
 1373SOL     OW 5539   5.401   5.169   7.923  0.3253 -0.7118 -0.3679
 1373SOL    HW1 5540   5.398   5.104   7.853 -0.2101 -0.5935 -0.4591
 1373SOL    HW2 5541   5.404   5.117   8.004 -0.7602 -0.8663 -0.4106
 1374SOL     OW 5542   9.226   0.099   7.117 -0.0625 -0.5170  0.0801
 1374SOL    HW1 5543   9.215   0.102   7.212 -0.5027  1.7314  0.0222
 1374SOL    HW2 5544   9.137   0.093   7.083 -0.3265  2.9512 -0.1776
 1375SOL     OW 5545   0.267   8.088   7.701 -0.2560  0.1845 -0.8008
 1375SOL    HW1 5546   0.254   8.003   7.741  1.1683 -0.0062 -0.6825
 1375SOL    HW2 5547   0.179   8.121   7.684 -0.8284 -1.0813 -0.3823
 1376SOL     OW 5548   7.591   0.183   3.590 -0.4106 -0.0446  0.1766
 1376SOL    HW1 5549   7.555   0.100   3.622 -3.3027  0.0283 -2.4981
 1376SOL    HW2 5550   7.537   0.250   3.632 -1.0179  0.2398 -1.0159
 1377SOL     OW 5551   8.698   6.872   7.270 -0.6650  0.0086 -0.6137
 1377SOL    HW1 5552   8.703   6.940   7.202 -1.2173 -0.3802 -1.0483
 1377SOL    HW2 5553   8.659   6.797   7.226 -1.9713  0.0694  0.3756
 1378SOL     OW 5554   8.163   0.823   4.156  0.3362  0.0355  0.0110
 1378SOL    HW1 5555   8.079   0.843   4.198  0.1524 -0.5585 -0.0691
 1378SOL    HW2 5556   8.225   0.820   4.228  0.1361 -0.3545  0.1676
 1379SOL     OW 5557   2.407   8.387   2.829 -0.3151  0.1810 -0.0051
 1379SOL    HW1 5558   2.411   8.395   2.733 -2.7109  0.0066 -0.1752
 1379SOL    HW2 5559   2.443   8.469   2.861  0.9937  0.0399 -1.0319
 1380SOL     OW 5560   3.494   9.214   0.400 -0.0717 -0.0262  0.2045
 1380SOL    HW1 5561   3.494   9.306   0.374 -0.1010 -0.3181 -0.8919
 1380SOL    HW2 5562   3.432   9.210   0.473 -0.4163  0.7509 -0.0319
 1381SOL     OW 5563   6.911   4.392   7.870 -0.5866 -0.2909 -1.5836
 1381SOL    HW1 5564   6.943   4.346   7.948 -4.0638 -0.3922  0.0095
 1381SOL    HW2 5565   6.828   4.349   7.850 -2.3632  3.0294 -2.0734
 1382SOL     OW 5566   8.726   3.063   7.262  0.0531  0.3020  0.3747
 1382SOL    HW1 5567   8.659   3.066   7.195  0.6915 -1.1120 -0.3596
 1382SOL    HW2 5568   8.782   3.139   7.244  0.0168  0.1299 -0.4728
 1383SOL     OW 5569   6.046   8.958   7.761 -0.2085  0.3918 -0.3302
 1383SOL    HW1 5570   6.061   9.038   7.710  0.1658  0.3328 -0.3219
 1383SOL    HW2 5571   6.112   8.961   7.830  1.6047 -1.1853 -1.8478
 1384SOL     OW 5572   2.162   3.079   5.974 -0.0135 -0.8523  0.0773
 1384SOL    HW1 5573   2.136   3.171   5.961  1.7950 -0.2286  0.5922
 1384SOL    HW2 5574   2.160   3.041   5.887  0.6729  0.1008 -0.3754
 1385SOL     OW 5575   5.318   0.431   4.738 -0.2502 -0.0550  0.7707
 1385SOL    HW1 5576   5.392   0.409   4.680  0.7702 -0.3543  2.1394
 1385SOL    HW2 5577   5.241   0.403   4.689  0.7276 -2.7187  0.5687
 1386SOL     OW 5578   8.891   4.271   7.327  0.0318 -0.4495 -0.4590
 1386SOL    HW1 5579   8.829   4.305   7.262  1.2474  2.1073 -0.4152
 1386SOL    HW2 5580   8.973   4.315   7.306  1.0690 -1.4332  1.3435
 1387SOL     OW 5581   2.478   4.793   3.192 -0.2578 -0.4549 -0.6150
 1387SOL    HW1 5582   2.411   4.778   3.125  0.1823 -0.5889 -1.0269
 1387SOL    HW2 5583   2.556   4.819   3.143 -0.2351  0.5204 -0.0884
 1388SOL     OW 5584   5.322   2.727   4.333  0.2217  0.0768 -0.7917
 1388SOL    HW1 5585   5.396   2.668   4.324  1.6536  1.6712 -0.0142
 1388SOL    HW2 5586   5.307   2.761   4.244  0.0012 -0.7178 -1.0621
 1389SOL     OW 5587   7.061   4.349   9.144  0.4145  0.2078  0.1413
 1389SOL    HW1 5588   7.002   4.282   9.108 -0.3301  0.5354  0.7258
 1389SOL    HW2 5589   7.054   4.422   9.083 -0.9103  0.7947  0.9575
 1390SOL     OW 5590   6.827   4.245   5.866 -0.2367 -0.2574  0.4129
 1390SOL    HW1 5591   6.769   4.180   5.905  2.0258 -2.7583 -0.1120
 1390SOL    HW2 5592   6.909   4.236   5.914  0.2070  2.2635  0.2977
 1391SOL     OW 5593   2.118   6.704   8.385  0.6459 -0.0065  0.1478
 1391SOL    HW1 5594   2.097   6.772   8.450  0.4678  0.8047 -0.7311
 1391SOL    HW2 5595   2.197   6.736   8.343  1.7541 -1.3708  1.0975
 1392SOL     OW 5596   4.312   4.038   1.750  0.5251  0.1159  0.4295
 1392SOL    HW1 5597   4.347   3.974   1.689 -0.6864 -1.0813  0.9316
 1392SOL    HW2 5598   4.218   4.040   1.731  0.0991 -0.3646  2.2775
 1393SOL     OW 5599   4.986   1.548   5.028 -0.4496 -0.2222 -0.1282
 1393SOL    HW1 5600   5.020   1.462   5.052  1.6913  0.5113 -0.3586
 1393SOL    HW2 5601   5.010   1.605   5.101 -0.1149  0.5641 -0.8369
 1394SOL     OW 5602   7.569   5.904   1.345  0.6317  0.3825 -0.1727
 1394SOL    HW1 5603   7.651   5.856   1.356  0.4973  0.3667  0.9148
 1394SOL    HW2 5604   7.596   5.990   1.312  1.0613  0.2841 -0.0873
 1395SOL     OW 5605   5.679   5.208   6.690  0.0915 -0.1383 -0.0934
 1395SOL    HW1 5606   5.719   5.125   6.715 -0.3398 -0.4323 -0.3789
 1395SOL    HW2 5607   5.632   5.236   6.769  1.6913  0.7417  0.6149
 1396SOL     OW 5608   6.633   2.440   9.051 -0.4478  0.3612 -0.0067
 1396SOL    HW1 5609   6.561   2.476   9.102 -2.0795  0.0403 -1.9840
 1396SOL    HW2 5610   6.594   2.413   8.968  1.9355  0.0954 -1.1425
 1397SOL     OW 5611   0.023   6.074   8.118 -0.4039 -0.1680  0.4641
 1397SOL    HW1 5612  -0.038   6.009   8.081 -0.5434  0.1258  0.1678
 1397SOL    HW2 5613   0.080   6.097   8.044 -1.1159  0.9306  0.2289
 1398SOL     OW 5614   7.942   6.935   6.788  0.3085 -0.6437  0.4008
 1398SOL    HW1 5615   7.904   6.879   6.721 -0.4516  0.2081  0.1048
 1398SOL    HW2 5616   7.880   7.007   6.798 -0.3262 -1.4176  2.9857
 1399SOL     OW 5617   5.470   7.879   7.913 -0.5366 -0.6283  0.0350
 1399SOL    HW1 5618   5.417   7.868   7.834  0.9523 -0.1030 -1.0797
 1399SOL    HW2 5619   5.414   7.845   7.984 -1.8151 -1.3361 -1.2520
 1400SOL     OW 5620   9.005   6.145   5.546 -0.5380 -0.1698 -0.2685
 1400SOL    HW1 5621   8.922   6.164   5.590 -1.0936 -0.0109 -1.3608
 1400SOL    HW2 5622   9.019   6.051   5.560 -0.9111 -0.2004 -0.1003
 1401SOL     OW 5623   2.769   3.921   4.868 -0.5320 -0.0537  0.3889
 1401SOL    HW1 5624   2.690   3.887   4.827  0.8157 -3.2297  0.1673
 1401SOL    HW2 5625   2.755   3.909   4.962  0.1487 -1.8674  0.2860
 1402SOL     OW 5626   4.577   1.478   3.368  0.0182  0.1719  0.0244
 1402SOL    HW1 5627   4.611   1.389   3.374  0.0946  0.1817 -0.2234
 1402SOL    HW2 5628   4.482   1.467   3.359  0.0241  0.1177  0.0258
 1403SOL     OW 5629   5.576   7.069   6.856 -0.3711 -0.0923 -0.0199
 1403SOL    HW1 5630   5.614   7.140   6.908  1.5523 -1.0947  0.0137
 1403SOL    HW2 5631   5.645   7.003   6.850 -1.0376 -0.6742 -2.6221
 1404SOL     OW 5632   9.271   2.426   7.378  0.2754 -0.3137  0.6517
 1404SOL    HW1 5633   9.215   2.501   7.360  0.1234 -0.7996 -1.0530
 1404SOL    HW2 5634   9.210   2.358   7.408 -0.0567 -0.7719 -0.9878
 1405SOL     OW 5635   1.746   4.552   6.240  0.3600 -0.4335 -0.0469
 1405SOL    HW1 5636   1.737   4.645   6.262 -1.5690 -0.5886 -0.0784
 1405SOL    HW2 5637   1.754   4.551   6.144 -1.5153 -0.3807 -0.2368
 1406SOL     OW 5638   5.536   4.383   8.567 -0.2705 -0.2627  0.1978
 1406SOL    HW1 5639   5.491   4.412   8.647 -0.6314  0.9199 -0.4018
 1406SOL    HW2 5640   5.472   4.328   8.522 -1.5191  1.9857 -1.0041
 1407SOL     OW 5641   4.868   7.821   5.012 -0.3285 -0.1894 -0.5249
 1407SOL    HW1 5642   4.863   7.912   4.982  0.4933  0.3258  0.7973
 1407SOL    HW2 5643   4.942   7.784   4.963  0.7718  0.5358  0.5305
 1408SOL     OW 5644   3.148   5.109   2.820 -0.0557  0.3805  0.4270
 1408SOL    HW1 5645   3.109   5.192   2.792  0.9580 -0.0597 -2.6971
 1408SOL    HW2 5646   3.206   5.084   2.748 -0.3030 -3.0694  1.2369
 1409SOL     OW 5647   0.137   0.128   1.487 -0.2000  0.3270  0.1954
 1409SOL    HW1 5648   0.052   0.092   1.462 -0.7268  1.2253  0.6315
 1409SOL    HW2 5649   0.165   0.180   1.412  0.7990 -1.3391 -0.6365
 1410SOL     OW 5650   5.923   8.806   6.493 -0.1937  0.5130 -0.0012
 1410SOL    HW1 5651   5.943   8.789   6.401  1.5181  4.0521 -0.4471
 1410SOL    HW2 5652   6.001   8.776   6.540 -0.4353  0.1179  0.1590
 1411SOL     OW 5653   3.189   0.342   0.168  0.1433 -0.6710 -0.3534
 1411SOL    HW1 5654   3.201   0.390   0.086 -1.3854 -0.6495 -0.6026
 1411SOL    HW2 5655   3.180   0.410   0.235 -1.3287 -0.5746 -0.6042
 1412SOL     OW 5656   9.219   6.005   1.596 -0.1193  0.0879  0.0349
 1412SOL    HW1 5657   9.202   5.967   1.510 -0.7299  2.0104 -0.7437
 1412SOL    HW2 5658   9.306   6.044   1.589  0.4875 -1.0565  0.8146
 1413SOL     OW 5659   2.516   5.990   9.259 -0.5057 -0.1243  0.3351
 1413SOL    HW1 5660   2.564   5.913   9.229  0.4134  0.8899 -0.9102
 1413SOL    HW2 5661   2.577   6.036   9.316 -0.1036  0.9328 -0.8929
 1414SOL     OW 5662   4.923   1.001   4.931 -0.0220  0.0728  0.0474
 1414SOL    HW1 5663   4.974   1.013   4.850  0.5309 -0.4618  0.3155
 1414SOL    HW2 5664   4.987   1.010   5.001 -0.1440 -1.3637  0.3659
 1415SOL     OW 5665   4.629   9.150   6.178 -0.6627  0.2673  0.4406
 1415SOL    HW1 5666   4.559   9.086   6.167 -2.1891  1.8055  0.8074
 1415SOL    HW2 5667   4.707   9.106   6.143 -1.7072 -1.6275  0.3399
 1416SOL     OW 5668   1.657   8.986   3.900 -0.7143 -0.3934  0.3731
 1416SOL    HW1 5669   1.689   8.925   3.968 -2.0641 -0.9992  0.4887
 1416SOL    HW2 5670   1.645   9.069   3.946 -0.3591 -0.4509  0.5736
 1417SOL     OW 5671   3.266   6.845   3.763  0.2871  0.0074 -0.7595
 1417SOL    HW1 5672   3.266   6.750   3.771  0.8864  0.0973  0.6000
 1417SOL    HW2 5673   3.342   6.864   3.707  0.0117 -0.3200 -1.2497
 1418SOL     OW 5674   6.325   3.460   9.043 -0.5712 -0.5117  0.0688
 1418SOL    HW1 5675   6.400   3.456   9.102 -2.3499  1.5041  2.6983
 1418SOL    HW2 5676   6.313   3.370   9.013  1.9053 -1.1581  0.7787
 1419SOL     OW 5677   8.014   5.862   2.082 -0.7346  0.3757  0.5589
 1419SOL    HW1 5678   7.988   5.770   2.095 -1.7824 -0.0825 -3.2712
 1419SOL    HW2 5679   7.945   5.913   2.123 -1.1086 -0.6102  1.1801
 1420SOL     OW 5680   1.904   6.554   7.520 -0.5451 -0.1282 -0.7280
 1420SOL    HW1 5681   1.912   6.643   7.556 -1.4591 -1.0225  1.8864
 1420SOL    HW2 5682   1.810   6.537   7.517 -0.3591 -1.3625 -0.2006
 1421SOL     OW 5683   6.673   5.816   6.551 -0.0452  0.4051  0.1513
 1421SOL    HW1 5684   6.693   5.774   6.635 -0.0128  0.5583  0.2190
 1421SOL    HW2 5685   6.705   5.754   6.486  0.6252  0.6352  0.2557
 1422SOL     OW 5686   4.254   5.252   8.239  0.2748  0.1973  0.4938
 1422SOL    HW1 5687   4.170   5.277   8.200  1.1330  0.9761 -0.9910
 1422SOL    HW2 5688   4.291   5.335   8.271 -0.3283 -0.4070  2.9099
 1423SOL     OW 5689   6.930   5.060   8.858 -0.1113 -0.4787 -0.2449
 1423SOL    HW1 5690   6.890   5.063   8.771  0.3902  0.5479 -0.4464
 1423SOL    HW2 5691   7.001   5.123   8.855  0.4936 -1.0874  0.6351
 1424SOL     OW 5692   3.594   5.151   0.754  0.1275  0.1840  0.6417
 1424SOL    HW1 5693   3.661   5.082   0.747  1.0975  1.0517  1.0700
 1424SOL    HW2 5694   3.579   5.179   0.663 -0.5023 -0.7876  0.4357
 1425SOL     OW 5695   0.261   1.134   7.843  0.0139  0.1158 -0.0896
 1425SOL    HW1 5696   0.199   1.172   7.781  0.3573 -0.0873 -0.5683
 1425SOL    HW2 5697   0.210   1.120   7.923 -0.6905 -0.4932 -0.6281
 1426SOL     OW 5698   4.858   4.403   0.743  0.9019  0.0343 -0.2480
 1426SOL    HW1 5699   4.766   4.405   0.768  1.1294  2.4343  0.5879
 1426SOL    HW2 5700   4.859   4.428   0.651  0.7512  0.1635 -0.2137
 1427SOL     OW 5701   0.062   8.268   2.947 -0.2171  0.1910 -0.5010
 1427SOL    HW1 5702  -0.027   8.233   2.935 -0.4746  0.8143 -0.4553
 1427SOL    HW2 5703   0.077   8.263   3.041  0.7309 -2.1300 -0.7303
 1428SOL     OW 5704   8.779   3.558   8.879 -0.4407  0.1890 -0.4433
 1428SOL    HW1 5705   8.756   3.629   8.818 -2.1027 -0.9254 -1.1577
 1428SOL    HW2 5706   8.710   3.558   8.944 -0.1185 -0.3974 -0.0927
 1429SOL     OW 5707   8.377   3.475   6.904 -0.0168 -0.1150  0.1494
 1429SOL    HW1 5708   8.434   3.545   6.873 -1.0666  0.4584 -0.5581
 1429SOL    HW2 5709   8.355   3.425   6.825 -0.6329 -0.2044  0.3708
 1430SOL     OW 5710   5.430   7.941   0.773  0.0983 -0.2284  0.0979
 1430SOL    HW1 5711   5.419   7.961   0.679 -2.2439 -2.6232 -0.2608
 1430SOL    HW2 5712   5.349   7.974   0.813  0.5097 -0.3718  1.0603
 1431SOL     OW 5713   5.335   5.305   8.939  0.3558  0.4740  0.1103
 1431SOL    HW1 5714   5.313   5.397   8.954  0.8996  0.6097  0.1302
 1431SOL    HW2 5715   5.308   5.287   8.849 -3.2257 -0.4279  1.2222
 1432SOL     OW 5716   6.548   0.389   5.617  0.3486  0.2227 -0.0748
 1432SOL    HW1 5717   6.505   0.308   5.645 -0.3035  0.2712 -0.9177
 1432SOL    HW2 5718   6.478   0.444   5.585  0.7503  1.2848  0.8185
 1433SOL     OW 5719   5.950   2.883   1.564 -0.5746 -0.1405 -0.1067
 1433SOL    HW1 5720   6.031   2.929   1.544 -0.7961  1.1485  1.7193
 1433SOL    HW2 5721   5.971   2.790   1.550  0.6682  0.2891 -1.2955
 1434SOL     OW 5722   5.301   3.969   8.917 -0.0295 -0.5048 -0.5256
 1434SOL    HW1 5723   5.291   3.874   8.914 -0.8530 -0.4076 -1.4051
 1434SOL    HW2 5724   5.262   4.000   8.835  0.9312  0.5362 -0.6148
 1435SOL     OW 5725   1.528   1.870   3.199 -0.2949 -0.3327  0.7129
 1435SOL    HW1 5726   1.603   1.820   3.231 -0.0107 -0.3579  0.0314
 1435SOL    HW2 5727   1.452   1.828   3.239 -0.1571 -2.0061 -0.6617
 1436SOL     OW 5728   6.600   7.794   0.993 -0.3104  0.1162 -0.0903
 1436SOL    HW1 5729   6.524   7.743   1.021 -1.6673  1.6680 -0.7830
 1436SOL    HW2 5730   6.588   7.803   0.898  0.6155  0.5984 -0.1679
 1437SOL     OW 5731   3.640   1.184   4.742  0.2093 -0.0043 -0.0916
 1437SOL    HW1 5732   3.653   1.275   4.769  1.7873  0.1724 -1.3325
 1437SOL    HW2 5733   3.545   1.171   4.747  0.1503  0.8125  2.8022
 1438SOL     OW 5734   1.802   8.460   6.708  0.4083  0.2265 -0.2335
 1438SOL    HW1 5735   1.809   8.369   6.737  1.8265  0.5925  0.6513
 1438SOL    HW2 5736   1.888   8.481   6.672  1.2234  2.1602  2.5136
 1439SOL     OW 5737   3.139   5.611   1.622  0.1270 -0.1652 -0.1587
 1439SOL    HW1 5738   3.095   5.550   1.681  0.4115 -0.6028 -0.3979
 1439SOL    HW2 5739   3.213   5.645   1.674 -0.5515  0.6665  0.2867
 1440SOL     OW 5740   5.578   3.818   5.489  0.4998 -0.3542 -0.2861
 1440SOL    HW1 5741   5.554   3.742   5.435 -0.2085 -1.1998  1.1459
 1440SOL    HW2 5742   5.495   3.864   5.503  0.8391  0.4018 -0.6877
 1441SOL     OW 5743   1.893   6.567   4.167 -0.4233 -0.1519 -0.8989
 1441SOL    HW1 5744   1.835   6.639   4.192 -1.9346 -2.2156  2.2605
 1441SOL    HW2 5745   1.844   6.518   4.101 -0.6749  0.1249 -0.9181
 1442SOL     OW 5746   7.408   8.939   3.608 -0.2464 -0.4804 -0.2751
 1442SOL    HW1 5747   7.420   9.034   3.602  0.3688 -0.5639 -0.4317
 1442SOL    HW2 5748   7.350   8.927   3.683 -0.5881  0.0350 -0.4466
 1443SOL     OW 5749   6.848   2.598   2.688  0.7629  0.4565 -0.1841
 1443SOL    HW1 5750   6.935   2.576   2.722  0.8308  0.2936 -0.4598
 1443SOL    HW2 5751   6.832   2.532   2.620  0.2240  0.1950  0.1944
 1444SOL     OW 5752   7.098   3.708   7.959  0.4847 -0.4821 -0.0226
 1444SOL    HW1 5753   7.105   3.748   8.046 -0.5298  0.3076 -0.2990
 1444SOL    HW2 5754   7.189   3.699   7.930  0.7523  2.2504 -0.2273
 1445SOL     OW 5755   8.939   1.706   9.035 -0.6299  0.2460 -0.8718
 1445SOL    HW1 5756   8.966   1.797   9.047  0.1088  0.3003 -2.5989
 1445SOL    HW2 5757   8.868   1.711   8.971 -1.7484 -0.2851  0.2847
 1446SOL     OW 5758   8.435   5.327   5.415  0.1836 -0.3796 -0.5482
 1446SOL    HW1 5759   8.497   5.272   5.462 -1.8274  1.2492  4.7796
 1446SOL    HW2 5760   8.479   5.411   5.404 -0.4343  0.3951  2.1334
 1447SOL     OW 5761   0.636   4.207   0.854 -0.0731  0.2494  0.1462
 1447SOL    HW1 5762   0.543   4.193   0.869 -0.2632  0.5993 -0.6248
 1447SOL    HW2 5763   0.643   4.214   0.758  0.6313  0.9913  0.2476
 1448SOL     OW 5764   4.032   2.232   8.846 -0.4843  0.9731  0.1753
 1448SOL    HW1 5765   3.949   2.191   8.870 -0.1346 -0.7355 -1.2881
 1448SOL    HW2 5766   4.077   2.246   8.929 -0.7814 -1.3861  0.8126
 1449SOL     OW 5767   8.521   6.409   5.949 -0.1492  0.0394 -0.1256
 1449SOL    HW1 5768   8.558   6.453   6.025  0.5982  1.6582 -1.3744
 1449SOL    HW2 5769   8.561   6.322   5.949 -0.8403 -0.3208  1.7997
 1450SOL     OW 5770   0.702   7.156   5.671 -0.3606 -0.0078 -0.0354
 1450SOL    HW1 5771   0.644   7.097   5.622  0.3313  0.3463 -1.3396
 1450SOL    HW2 5772   0.739   7.103   5.741 -0.3800 -0.8990 -0.6918
 1451SOL     OW 5773   2.444   4.105   1.568 -0.1656  0.0587  0.4428
 1451SOL    HW1 5774   2.422   4.074   1.656 -1.4613 -0.4069 -0.0145
 1451SOL    HW2 5775   2.390   4.051   1.510  2.8388 -1.7884 -0.8835
 1452SOL     OW 5776   2.748   7.573   2.604 -0.0403  0.1504 -0.0719
 1452SOL    HW1 5777   2.817   7.510   2.626  0.2203  0.0670 -1.0804
 1452SOL    HW2 5778   2.787   7.659   2.619 -0.1262  0.0933  0.5156
 1453SOL     OW 5779   5.819   0.247   1.449 -0.1838 -0.4266 -0.1083
 1453SOL    HW1 5780   5.894   0.303   1.427 -0.6068  0.5363  0.7981
 1453SOL    HW2 5781   5.842   0.209   1.534 -0.2150 -1.0780 -0.3858
 1454SOL     OW 5782   3.878   2.536   3.827 -0.0972 -0.3097  0.2128
 1454SOL    HW1 5783   3.935   2.520   3.752  0.4280  0.7632  0.3643
 1454SOL    HW2 5784   3.930   2.513   3.903 -0.7577 -1.7609  0.2677
 1455SOL     OW 5785   6.030   4.431   8.961  0.8539 -0.0239  0.3995
 1455SOL    HW1 5786   6.081   4.353   8.940  1.4253  0.4763 -0.1059
 1455SOL    HW2 5787   5.958   4.429   8.899  0.4626 -0.5243  0.8585
 1456SOL     OW 5788   4.248   6.416   4.017 -0.6443 -0.5865 -0.1254
 1456SOL    HW1 5789   4.226   6.326   4.042 -0.3480 -1.3418 -2.3665
 1456SOL    HW2 5790   4.182   6.470   4.060 -0.3983 -1.7683  1.8637
 1457SOL     OW 5791   7.524   1.917   3.442  0.0023 -0.0507  0.0983
 1457SOL    HW1 5792   7.502   2.006   3.413 -0.0941  0.0794  0.5468
 1457SOL    HW2 5793   7.609   1.899   3.403 -0.7594 -0.4508 -1.4333
 1458SOL     OW 5794   5.235   0.228   7.902 -0.4306 -0.4221 -0.0086
 1458SOL    HW1 5795   5.289   0.253   7.827  1.1184  0.6523  1.4075
 1458SOL    HW2 5796   5.237   0.133   7.903 -0.5758 -0.4598 -1.3815
 1459SOL     OW 5797   3.186   1.849   8.968  0.1433 -0.2385  0.3939
 1459SOL    HW1 5798   3.146   1.780   8.915  2.1736 -0.8314 -0.5018
 1459SOL    HW2 5799   3.198   1.810   9.054 -0.1281 -0.4538  0.3339
 1460SOL     OW 5800   6.084   0.813   4.811 -0.1510  0.4883 -0.2465
 1460SOL    HW1 5801   6.158   0.840   4.865 -0.4246 -0.1931  0.4882
 1460SOL    HW2 5802   6.018   0.881   4.825 -1.4100 -1.1990  2.7751
 1461SOL     OW 5803   6.786   6.879   6.335 -0.3517 -0.2902  0.5045
 1461SOL    HW1 5804   6.726   6.881   6.261 -0.0852 -0.4539  0.2830
 1461SOL    HW2 5805   6.848   6.809   6.315  0.2170  0.2026  0.4851
 1462SOL     OW 5806   1.344   3.949   5.336 -0.4720  0.2997 -0.7465
 1462SOL    HW1 5807   1.303   3.990   5.413 -0.4248  0.0293 -0.5751
 1462SOL    HW2 5808   1.328   3.855   5.348 -0.6505  0.2749 -1.1783
 1463SOL     OW 5809   5.349   5.047   1.793  0.3795  0.3954 -0.1401
 1463SOL    HW1 5810   5.442   5.070   1.794 -0.2235  3.1231  0.6083
 1463SOL    HW2 5811   5.328   5.028   1.884  0.4008 -1.4916 -0.4742
 1464SOL     OW 5812   7.914   8.705   3.684  0.2686  0.3915  0.5156
 1464SOL    HW1 5813   7.997   8.675   3.645 -0.0071  0.2400  0.0343
 1464SOL    HW2 5814   7.900   8.792   3.645 -0.9057 -0.4813 -1.1426
 1465SOL     OW 5815   2.732   6.978   1.111 -0.1557 -0.2640  0.1294
 1465SOL    HW1 5816   2.764   6.945   1.027  0.4353  1.8358 -0.5333
 1465SOL    HW2 5817   2.649   7.020   1.090  0.3674  0.9607  0.4025
 1466SOL     OW 5818   1.528   1.864   8.362 -0.3062 -0.1003 -0.6229
 1466SOL    HW1 5819   1.588   1.926   8.320  2.2797 -2.5997 -0.8946
 1466SOL    HW2 5820   1.576   1.829   8.436 -1.5204 -2.0117 -0.6596
 1467SOL     OW 5821   1.771   0.026   4.964 -0.2998 -1.1812 -0.0207
 1467SOL    HW1 5822   1.827   0.079   5.021 -0.6754 -0.0278 -0.6899
 1467SOL    HW2 5823   1.832  -0.018   4.904 -0.0148 -1.0476  0.1709
 1468SOL     OW 5824   6.051   7.015   0.797  0.2944  0.4195  0.2522
 1468SOL    HW1 5825   6.074   6.969   0.716 -3.4989  1.2150 -1.4789
 1468SOL    HW2 5826   6.067   7.107   0.777 -1.3773  0.6929  0.0527
 1469SOL     OW 5827   4.562   7.715   2.057 -0.1846 -0.1515 -0.4436
 1469SOL    HW1 5828   4.517   7.631   2.049  0.0097 -0.3957  0.8312
 1469SOL    HW2 5829   4.655   7.693   2.049 -0.1862  0.1337 -1.4150
 1470SOL     OW 5830   2.267   1.152   4.841 -0.0922 -0.5035 -0.0679
 1470SOL    HW1 5831   2.242   1.244   4.839 -0.6878 -0.6214  1.0310
 1470SOL    HW2 5832   2.185   1.104   4.848  0.2791 -0.9393  2.6761
 1471SOL     OW 5833   0.266   5.741   1.809  0.4231  0.1330  0.3315
 1471SOL    HW1 5834   0.318   5.715   1.885  0.1158 -1.0182  0.1682
 1471SOL    HW2 5835   0.310   5.701   1.734 -0.9652 -1.3774  0.2458
 1472SOL     OW 5836   1.441   8.065   4.341 -0.2373 -0.5141 -0.0801
 1472SOL    HW1 5837   1.450   8.160   4.327 -1.4992  0.4207  3.9403
 1472SOL    HW2 5838   1.347   8.053   4.356 -0.2318 -2.6378 -1.3946
 1473SOL     OW 5839   8.756   8.877   2.887 -0.5903  0.3258 -0.5441
 1473SOL    HW1 5840   8.754   8.854   2.980 -0.2347  0.0349 -0.6062
 1473SOL    HW2 5841   8.675   8.925   2.873 -0.5647  0.5209 -0.0452
 1474SOL     OW 5842   8.490   1.253   4.260 -0.2547  0.4960  0.2317
 1474SOL    HW1 5843   8.558   1.311   4.225  0.2895 -1.3658 -2.1440
 1474SOL    HW2 5844   8.421   1.311   4.290  1.2826  2.3907  0.3004
 1475SOL     OW 5845   7.030   2.265   3.549  0.1669 -0.2126 -0.5860
 1475SOL    HW1 5846   7.083   2.315   3.612  0.7649 -1.1118 -0.3593
 1475SOL    HW2 5847   7.093   2.211   3.502 -0.2870  0.4125 -1.9407
 1476SOL     OW 5848   3.658   7.994   7.880 -0.3333 -0.1965 -0.5867
 1476SOL    HW1 5849   3.576   8.021   7.840 -1.3784 -2.2965  0.0249
 1476SOL    HW2 5850   3.716   7.975   7.806 -1.2456 -1.1288 -1.0828
 1477SOL     OW 5851   2.269   6.470   3.694  0.2597 -0.2173  0.1275
 1477SOL    HW1 5852   2.298   6.379   3.700  0.1342 -0.3776 -1.3603
 1477SOL    HW2 5853   2.210   6.481   3.769  0.9767 -1.0826  0.8378
 1478SOL     OW 5854   8.537   5.906   9.143 -0.2959  0.3849  0.2362
 1478SOL    HW1 5855   8.627   5.931   9.163 -0.4384 -0.4192  2.0430
 1478SOL    HW2 5856   8.540   5.811   9.131 -1.0100  0.2497  1.0248
 1479SOL     OW 5857   8.075   2.153   7.491  0.2329  0.6496  0.4560
 1479SOL    HW1 5858   8.162   2.133   7.456  0.2913  0.8869  0.4646
 1479SOL    HW2 5859   8.014   2.109   7.432  0.4071 -0.5591  1.1564
 1480SOL     OW 5860   1.861   3.780   4.946 -0.6837  0.2404  0.4141
 1480SOL    HW1 5861   1.848   3.749   5.035 -1.9208  1.2040  0.5921
 1480SOL    HW2 5862   1.951   3.814   4.945 -0.9029  0.8791  1.5030
 1481SOL     OW 5863   5.138   1.815   8.950  0.0518 -0.0944  0.7151
 1481SOL    HW1 5864   5.209   1.870   8.919 -1.6182  2.6860  1.4525
 1481SOL    HW2 5865   5.085   1.873   9.004 -2.2541 -2.2881  0.9931
 1482SOL     OW 5866   3.061   2.350   6.506 -0.2480 -0.0647  0.2810
 1482SOL    HW1 5867   3.041   2.347   6.599 -2.7487 -1.7490 -0.2269
 1482SOL    HW2 5868   3.087   2.441   6.490  0.2959  0.2423  2.5937
 1483SOL     OW 5869   6.807   0.281   7.732 -0.2052  0.5861  0.1789
 1483SOL    HW1 5870   6.776   0.213   7.672 -2.1528  1.9928 -0.4884
 1483SOL    HW2 5871   6.755   0.270   7.811  2.3849 -1.2894  1.7972
 1484SOL     OW 5872   7.043   5.051   6.393  0.6492  0.1102 -0.0414
 1484SOL    HW1 5873   6.991   5.073   6.316 -0.0172 -0.1361  0.3322
 1484SOL    HW2 5874   7.127   5.094   6.377 -0.2606  2.1147  0.1796
 1485SOL     OW 5875   8.047   4.450   4.658 -0.3540  0.3576  0.3635
 1485SOL    HW1 5876   8.048   4.363   4.699 -1.1682  0.1071 -0.1343
 1485SOL    HW2 5877   8.086   4.436   4.572  2.0165  1.0178  1.2474
 1486SOL     OW 5878   0.346   2.913   7.194  0.0864  0.2717 -0.3891
 1486SOL    HW1 5879   0.417   2.877   7.141  0.2721 -1.2962  0.8353
 1486SOL    HW2 5880   0.327   2.998   7.155  1.0548 -0.2785 -2.1634
 1487SOL     OW 5881   1.871   1.613   1.932 -0.5598 -0.2069 -0.0073
 1487SOL    HW1 5882   1.882   1.706   1.915  1.3505 -0.5206 -0.7563
 1487SOL    HW2 5883   1.837   1.609   2.021  0.6547  1.1980  0.5699
 1488SOL     OW 5884   2.146   2.463   0.777 -0.2374  0.5735 -0.2809
 1488SOL    HW1 5885   2.113   2.550   0.757  1.4838  2.0758  2.7028
 1488SOL    HW2 5886   2.126   2.450   0.870  0.8434 -1.6180 -0.2807
 1489SOL     OW 5887   5.768   7.642   5.798 -0.2854  0.6900  0.2003
 1489SOL    HW1 5888   5.697   7.595   5.753 -1.5726  0.9366  1.8572
 1489SOL    HW2 5889   5.847   7.591   5.778 -0.9125  0.3594 -1.6319
 1490SOL     OW 5890   0.303   4.292   0.422  0.4414 -0.5560  0.1954
 1490SOL    HW1 5891   0.261   4.326   0.501 -0.7353 -2.5075  0.4527
 1490SOL    HW2 5892   0.243   4.226   0.389  1.3651 -0.4606 -1.8298
 1491SOL     OW 5893   9.090   6.511   8.432  0.1942  0.5766 -0.1235
 1491SOL    HW1 5894   9.097   6.563   8.512  1.2160  0.1030  0.1153
 1491SOL    HW2 5895   9.137   6.561   8.366  1.4899 -0.1723  0.1932
 1492SOL     OW 5896   1.758   7.009   5.653 -0.2558  0.4615  0.3313
 1492SOL    HW1 5897   1.692   7.073   5.626 -0.1474  0.1969 -0.5721
 1492SOL    HW2 5898   1.726   6.925   5.622  0.2146  0.2428  0.4179
 1493SOL     OW 5899   7.052   0.592   8.676 -0.0798  0.1574 -0.7229
 1493SOL    HW1 5900   7.104   0.615   8.598  0.1796 -1.8337 -1.1925
 1493SOL    HW2 5901   7.110   0.613   8.749  0.0919  1.0395 -1.0906
 1494SOL     OW 5902   3.205   2.249   0.772  0.2167 -0.3649 -0.5581
 1494SOL    HW1 5903   3.255   2.209   0.701  0.0181 -0.6750 -0.5217
 1494SOL    HW2 5904   3.197   2.181   0.838  0.4620 -0.0568 -0.2024
 1495SOL     OW 5905   7.602   3.611   9.160  0.5242 -0.2716 -0.1625
 1495SOL    HW1 5906   7.683   3.624   9.209  0.0537  0.7650  0.3815
 1495SOL    HW2 5907   7.583   3.696   9.121  0.8249 -1.0531 -2.0981
 1496SOL     OW 5908   1.374   6.588   8.539  0.4402  0.3867  0.7510
 1496SOL    HW1 5909   1.289   6.628   8.516 -0.1309 -1.3045 -0.2242
 1496SOL    HW2 5910   1.365   6.565   8.631  0.5786  1.9235  1.1879
 1497SOL     OW 5911   6.992   8.244   6.715 -0.4923  0.6292  0.3587
 1497SOL    HW1 5912   7.010   8.153   6.691 -0.7600  0.7494 -0.3328
 1497SOL    HW2 5913   6.920   8.239   6.778  0.8681  0.2448  1.9205
 1498SOL     OW 5914   2.635   4.282   2.093 -0.6396  0.6581  0.6249
 1498SOL    HW1 5915   2.570   4.250   2.030  0.0213 -0.4594  0.4710
 1498SOL    HW2 5916   2.584   4.305   2.171 -1.3602  1.1372  0.0203
 1499SOL     OW 5917   3.371   3.991   7.372  0.8453 -0.4894  0.8726
 1499SOL    HW1 5918   3.288   4.033   7.352  0.7638 -1.8021 -2.0953
 1499SOL    HW2 5919   3.435   4.062   7.374  0.3299  0.1037 -1.5022
 1500SOL     OW 5920   4.909   4.666   9.177  0.2932  0.8887  0.0576
 1500SOL    HW1 5921   4.903   4.733   9.110  0.8902 -1.0241 -2.0507
 1500SOL    HW2 5922   5.003   4.651   9.188  0.1729 -0.6377 -0.6960
 1501SOL     OW 5923   5.819   7.270   7.408  0.0959  0.1559 -0.0999
 1501SOL    HW1 5924   5.744   7.223   7.371 -0.4934  1.7327 -1.0414
 1501SOL    HW2 5925   5.802   7.362   7.386  1.1924  0.8277  1.6425
 1502SOL     OW 5926   0.029   6.285   1.919 -0.7584  0.2636 -0.4886
 1502SOL    HW1 5927   0.106   6.249   1.874 -0.7376  0.7272 -0.8239
 1502SOL    HW2 5928   0.057   6.296   2.009 -1.4378 -2.7045  0.1880
 1503SOL     OW 5929   7.784   3.972   1.394 -0.2816  0.0084  0.2120
 1503SOL    HW1 5930   7.867   4.019   1.394 -0.8663  1.1159  1.5010
 1503SOL    HW2 5931   7.719   4.035   1.363 -1.1694  0.3279  2.4924
 1504SOL     OW 5932   0.154   3.252   2.916 -0.2306 -0.0717  0.1874
 1504SOL    HW1 5933   0.107   3.198   2.980 -1.0782 -0.7882 -0.9788
 1504SOL    HW2 5934   0.120   3.223   2.831  0.4994  1.1820 -0.5712
 1505SOL     OW 5935   3.359   3.650   5.355 -0.6860  0.0488 -0.6371
 1505SOL    HW1 5936   3.291   3.716   5.341 -1.8342 -1.2233 -1.3953
 1505SOL    HW2 5937   3.394   3.634   5.267  0.1653  0.2543 -0.3350
 1506SOL     OW 5938   4.460   2.201   1.376 -0.0626 -0.3128  0.2329
 1506SOL    HW1 5939   4.540   2.226   1.331 -1.6104 -1.5796 -3.6105
 1506SOL    HW2 5940   4.404   2.278   1.372  0.2188 -0.0447  1.1741
 1507SOL     OW 5941   6.492   9.175   0.384  0.0291 -0.1621  0.1428
 1507SOL    HW1 5942   6.512   9.240   0.451  1.3409  0.3096 -0.6573
 1507SOL    HW2 5943   6.445   9.224   0.316  0.0468 -0.2951  0.0342
 1508SOL     OW 5944   3.937   6.957   6.778  0.0632 -0.2791  0.3507
 1508SOL    HW1 5945   4.027   6.960   6.810  0.8901  0.0274 -1.8153
 1508SOL    HW2 5946   3.921   7.045   6.744 -1.8933  0.3570  2.6646
 1509SOL     OW 5947   5.860   3.479   2.126  0.0134  0.2680 -0.0865
 1509SOL    HW1 5948   5.871   3.572   2.148  0.7898  0.1732 -0.0225
 1509SOL    HW2 5949   5.950   3.446   2.120 -0.2599 -0.4898 -0.0693
 1510SOL     OW 5950   1.233   2.843   3.288  0.5037  0.5951  0.3980
 1510SOL    HW1 5951   1.158   2.783   3.281  0.3708  0.7386  0.5718
 1510SOL    HW2 5952   1.297   2.796   3.341  1.0859 -0.0706 -0.8691
 1511SOL     OW 5953   6.403   8.006   3.659  0.4283  0.1391 -0.1026
 1511SOL    HW1 5954   6.429   7.926   3.704 -1.5493 -0.9446 -0.7801
 1511SOL    HW2 5955   6.443   8.076   3.711  1.8506 -1.2409  0.7582
 1512SOL     OW 5956   7.565   0.308   8.755 -0.0470 -0.1988 -0.5878
 1512SOL    HW1 5957   7.522   0.271   8.678 -0.3410  2.2722 -1.7186
 1512SOL    HW2 5958   7.566   0.403   8.739  0.1874  0.3920  2.3065
 1513SOL     OW 5959   7.911   7.831   6.071  0.2882  0.4502 -0.0462
 1513SOL    HW1 5960   7.968   7.827   6.148  2.2893 -1.3103 -1.4883
 1513SOL    HW2 5961   7.862   7.912   6.081  2.6823  1.8088  1.5840
 1514SOL     OW 5962   6.944   1.502   4.726  0.5070  0.4295 -0.2276
 1514SOL    HW1 5963   6.948   1.406   4.722 -0.4303  0.2895  1.5695
 1514SOL    HW2 5964   6.936   1.529   4.634 -0.2913 -1.2683 -0.7017
 1515SOL     OW 5965   6.081   8.574   5.518 -0.1568  0.2901 -0.4201
 1515SOL    HW1 5966   6.138   8.651   5.525  0.9164 -0.4174 -1.0200
 1515SOL    HW2 5967   6.123   8.519   5.451 -1.5929 -0.2394 -0.9218
 1516SOL     OW 5968   4.197   2.621   1.131  0.3948 -0.1465  0.1059
 1516SOL    HW1 5969   4.119   2.626   1.075 -0.2454  0.3315  1.0272
 1516SOL    HW2 5970   4.182   2.544   1.186  0.0017  0.6363  1.1154
 1517SOL     OW 5971   5.257   0.265   8.679  0.1887  0.2006 -0.2905
 1517SOL    HW1 5972   5.291   0.354   8.668 -1.2088  1.2497  2.8111
 1517SOL    HW2 5973   5.162   0.276   8.684 -0.2194 -1.8288 -2.1435
 1518SOL     OW 5974   2.403   6.827   0.840 -0.5022  0.4031  0.5823
 1518SOL    HW1 5975   2.362   6.881   0.907 -1.1693  0.0001  0.5129
 1518SOL    HW2 5976   2.416   6.885   0.765  1.1978  1.1309  1.3807
 1519SOL     OW 5977   8.487   4.898   6.415 -0.5660 -0.4476 -0.3904
 1519SOL    HW1 5978   8.506   4.976   6.467 -1.1720 -0.8452  0.4582
 1519SOL    HW2 5979   8.573   4.869   6.384 -0.0769 -0.6015  1.0076
 1520SOL     OW 5980   1.969   6.886   0.781 -0.6414  0.1268 -0.7304
 1520SOL    HW1 5981   2.020   6.827   0.726 -1.0959 -0.9222 -0.0476
 1520SOL    HW2 5982   1.904   6.924   0.721 -0.9270 -0.7525 -0.9899
 1521SOL     OW 5983   0.762   2.372   5.237 -0.2474  0.3119 -0.2891
 1521SOL    HW1 5984   0.827   2.401   5.302 -0.1760 -2.5554  1.1035
 1521SOL    HW2 5985   0.815   2.331   5.168 -0.2988 -4.3991  2.0502
 1522SOL     OW 5986   6.594   3.081   4.492 -0.2672  0.2763  0.2795
 1522SOL    HW1 5987   6.623   2.995   4.521 -0.6378  0.7980  2.3555
 1522SOL    HW2 5988   6.527   3.063   4.426  0.7646 -0.9705 -0.4722
 1523SOL     OW 5989   7.400   6.707   7.823 -0.3576 -0.3755  0.1514
 1523SOL    HW1 5990   7.311   6.673   7.814 -0.7086  0.3584  0.7214
 1523SOL    HW2 5991   7.388   6.799   7.848  0.5623 -0.0293 -0.6194
 1524SOL     OW 5992   9.057   8.086   5.381  0.8459  0.4807  0.0177
 1524SOL    HW1 5993   9.129   8.077   5.317  0.8110  1.6916 -0.2100
 1524SOL    HW2 5994   9.066   8.174   5.415  1.0568 -0.2421  1.9668
 1525SOL     OW 5995   2.696   6.412   6.213 -0.9390 -0.0317  0.4869
 1525SOL    HW1 5996   2.631   6.461   6.163 -0.2105 -1.1994 -1.7122
 1525SOL    HW2 5997   2.780   6.439   6.178 -0.3269 -0.2449  1.7125
 1526SOL     OW 5998   2.861   7.607   5.896  0.2045 -0.6805 -0.8003
 1526SOL    HW1 5999   2.875   7.667   5.970  0.0514 -2.7584  1.0184
 1526SOL    HW2 6000   2.877   7.661   5.819 -2.2740  2.3566  0.5907
 1527SOL     OW 6001   2.642   4.719   2.150 -0.7762 -0.4298  0.2098
 1527SOL    HW1 6002   2.707   4.789   2.156  1.4022 -2.4267  1.3073
 1527SOL    HW2 6003   2.628   4.691   2.241  1.4198 -3.9168 -0.3390
 1528SOL     OW 6004   0.623   1.534   5.353 -0.1541 -0.1435 -0.4229
 1528SOL    HW1 6005   0.700   1.495   5.313  1.2093 -0.5749  2.3621
 1528SOL    HW2 6006   0.566   1.460   5.374  0.0277 -0.1447  0.1006
 1529SOL     OW 6007   4.171   0.216   2.413 -0.2321  0.3381  0.0849
 1529SOL    HW1 6008   4.121   0.239   2.334 -1.1579 -0.9157  0.2820
 1529SOL    HW2 6009   4.173   0.297   2.464 -0.2420  0.9726 -0.8846
 1530SOL     OW 6010   4.082   9.062   2.766 -0.2531 -0.5198  0.2290
 1530SOL    HW1 6011   4.052   9.141   2.722 -1.4142 -0.0625  1.7378
 1530SOL    HW2 6012   4.163   9.088   2.809  0.8218 -0.9373 -1.4563
 1531SOL     OW 6013   3.913   2.330   1.155  0.0367  0.0457 -0.4646
 1531SOL    HW1 6014   3.911   2.278   1.074 -1.9019 -0.8917  0.1287
 1531SOL    HW2 6015   3.917   2.265   1.225  1.8271  0.8596  0.2362
 1532SOL     OW 6016   6.555   4.742   1.940 -0.1389  0.5353 -0.4200
 1532SOL    HW1 6017   6.621   4.769   2.004 -1.3326  1.8474  0.3096
 1532SOL    HW2 6018   6.573   4.797   1.863 -0.1858  0.6689 -0.3358
 1533SOL     OW 6019   0.120   7.718   4.679  0.4531  0.4561  0.8194
 1533SOL    HW1 6020   0.081   7.679   4.600 -0.2773  0.0639  1.3609
 1533SOL    HW2 6021   0.183   7.652   4.709 -0.4188 -0.1273  1.4475
 1534SOL     OW 6022   4.281   5.205   6.401  0.0716  0.3250  0.2582
 1534SOL    HW1 6023   4.312   5.223   6.312 -0.4120 -0.0063  0.0140
 1534SOL    HW2 6024   4.353   5.157   6.442  0.1244  0.0870 -0.1021
 1535SOL     OW 6025   1.397   6.356   7.891 -0.0329  0.0026  0.3497
 1535SOL    HW1 6026   1.328   6.323   7.948  2.7010 -0.8442  3.4601
 1535SOL    HW2 6027   1.430   6.279   7.845 -0.5522  0.2874 -0.5475
 1536SOL     OW 6028   3.797   8.128   6.652  0.2362 -0.1786 -0.2089
 1536SOL    HW1 6029   3.834   8.039   6.657  0.5847 -0.0167  0.1913
 1536SOL    HW2 6030   3.822   8.159   6.566  0.6950 -0.2227 -0.0950
 1537SOL     OW 6031   0.010   6.177   9.098  0.2776  0.4828 -0.4775
 1537SOL    HW1 6032  -0.044   6.188   9.177  1.0107  0.6788  0.0013
 1537SOL    HW2 6033  -0.033   6.107   9.050  1.0385 -1.1767  1.1497
 1538SOL     OW 6034   3.172   5.630   3.414 -0.3220  0.0693 -0.4548
 1538SOL    HW1 6035   3.157   5.624   3.320  1.4637  1.1676 -0.8610
 1538SOL    HW2 6036   3.248   5.574   3.430 -1.4142 -1.1951  0.6008
 1539SOL     OW 6037   7.773   3.530   5.790 -0.5133 -0.3770 -0.0078
 1539SOL    HW1 6038   7.765   3.435   5.790  0.4447 -0.4734  0.2148
 1539SOL    HW2 6039   7.775   3.554   5.697  1.7799 -0.8521 -0.1425
 1540SOL     OW 6040   2.901   5.858   8.471 -0.1284 -0.4978 -0.2676
 1540SOL    HW1 6041   2.862   5.826   8.389 -0.2692  2.0685 -1.3113
 1540SOL    HW2 6042   2.846   5.822   8.540 -0.0619 -2.6634 -1.2591
 1541SOL     OW 6043   0.818   8.559   2.687  0.1613  0.1066 -0.0753
 1541SOL    HW1 6044   0.790   8.497   2.754 -0.0830 -0.0155 -0.2916
 1541SOL    HW2 6045   0.838   8.639   2.736  4.4824 -1.2492  0.8061
 1542SOL     OW 6046   1.911   2.561   8.676  0.0377 -0.0707 -0.1658
 1542SOL    HW1 6047   1.940   2.473   8.700 -0.2788  0.2393  1.4979
 1542SOL    HW2 6048   1.863   2.549   8.594 -0.0739 -1.4593  0.0780
 1543SOL     OW 6049   6.157   5.809   7.443 -0.4088 -0.1451 -0.0402
 1543SOL    HW1 6050   6.085   5.815   7.505  0.7200 -2.5827  1.6739
 1543SOL    HW2 6051   6.155   5.718   7.413  1.0416  0.1357 -1.1100
 1544SOL     OW 6052   7.867   5.798   6.721 -0.0055 -0.0754 -0.4053
 1544SOL    HW1 6053   7.776   5.794   6.752 -0.0808 -1.6979 -0.7813
 1544SOL    HW2 6054   7.859   5.793   6.625  0.3944  1.9247 -0.5977
 1545SOL     OW 6055   8.669   1.583   6.986  0.3662  0.3812 -0.0068
 1545SOL    HW1 6056   8.624   1.499   6.980 -0.7969  1.0490 -1.1122
 1545SOL    HW2 6057   8.618   1.642   6.930  1.8280  1.5360 -0.1799
 1546SOL     OW 6058   8.484   4.229   2.830 -0.8874  0.0623  0.0904
 1546SOL    HW1 6059   8.452   4.302   2.777 -0.9866 -0.6379 -0.8336
 1546SOL    HW2 6060   8.573   4.214   2.798 -0.8450 -0.1857  0.3272
 1547SOL     OW 6061   3.158   4.789   1.520 -0.1408 -0.3239 -0.5352
 1547SOL    HW1 6062   3.170   4.702   1.481 -0.5426 -0.0974 -1.1797
 1547SOL    HW2 6063   3.129   4.772   1.609  0.8815 -0.8586 -0.2840
 1548SOL     OW 6064   3.809   6.941   7.194  0.0517 -0.1464 -0.2393
 1548SOL    HW1 6065   3.823   6.992   7.274  1.7729 -1.0009  0.0362
 1548SOL    HW2 6066   3.756   6.999   7.139  0.6916  1.3444  0.6355
 1549SOL     OW 6067   5.681   3.293   0.309 -0.0173  0.2298  0.7404
 1549SOL    HW1 6068   5.660   3.317   0.218 -0.0246 -2.5398 -0.0756
 1549SOL    HW2 6069   5.758   3.345   0.330  0.7508  0.0053 -1.3240
 1550SOL     OW 6070   4.096   5.989   4.650  0.1631  0.2859  0.8001
 1550SOL    HW1 6071   4.180   5.946   4.639  0.2767  0.6352  0.2390
 1550SOL    HW2 6072   4.117   6.077   4.682  0.1903  1.1128 -1.2691
 1551SOL     OW 6073   1.209   9.148   3.059 -0.3979 -0.0665  0.1426
 1551SOL    HW1 6074   1.280   9.210   3.042 -1.4800  0.8399 -1.3402
 1551SOL    HW2 6075   1.249   9.062   3.047  0.6037  0.4067 -0.0401
 1552SOL     OW 6076   7.085   0.095   0.660  0.3761 -0.4563  0.0752
 1552SOL    HW1 6077   7.160   0.147   0.689 -0.2771 -0.0399  1.0603
 1552SOL    HW2 6078   7.106   0.006   0.687  0.5697 -0.3616  0.2422
 1553SOL     OW 6079   8.404   7.767   1.331 -0.1542 -0.4212 -0.4483
 1553SOL    HW1 6080   8.382   7.682   1.292 -1.4450 -0.3952  0.1535
 1553SOL    HW2 6081   8.357   7.830   1.276  1.5096  0.0125 -1.4325
 1554SOL     OW 6082   0.969   9.243   3.716  0.2314  0.0746 -0.0074
 1554SOL    HW1 6083   0.957   9.165   3.771 -0.2657  0.0600 -0.1360
 1554SOL    HW2 6084   0.987   9.313   3.779  2.9109 -0.5174  0.0356
 1555SOL     OW 6085   1.833   3.267   8.141 -0.4273 -0.0195  0.1674
 1555SOL    HW1 6086   1.923   3.285   8.115 -0.2651  1.4841  1.6653
 1555SOL    HW2 6087   1.792   3.231   8.062  0.9566  1.0982 -1.1041
 1556SOL     OW 6088   2.337   8.900   1.541  0.2228  0.1515 -0.6172
 1556SOL    HW1 6089   2.315   8.888   1.449 -0.8222 -0.1326 -0.3504
 1556SOL    HW2 6090   2.432   8.913   1.542  0.8431 -3.2075 -1.4708
 1557SOL     OW 6091   0.958   7.206   6.889 -0.0665 -0.0506 -0.3083
 1557SOL    HW1 6092   1.045   7.241   6.869  1.1434 -2.0950  0.9474
 1557SOL    HW2 6093   0.975   7.134   6.951 -2.3950 -2.1150 -1.8540
 1558SOL     OW 6094   0.282   1.763   7.169  0.3204 -0.2765  0.0026
 1558SOL    HW1 6095   0.229   1.754   7.248  0.4390 -0.5320  0.0535
 1558SOL    HW2 6096   0.365   1.799   7.199  0.1768  0.1370 -0.0796
 1559SOL     OW 6097   4.398   0.418   3.030 -0.7069  0.5149 -0.0629
 1559SOL    HW1 6098   4.334   0.488   3.017 -1.0753  0.2765  0.4226
 1559SOL    HW2 6099   4.460   0.428   2.958 -0.5292  1.5858  0.2221
 1560SOL     OW 6100   6.954   4.534   3.606  0.0364 -0.0727  0.1008
 1560SOL    HW1 6101   6.978   4.615   3.561 -1.3554  1.5152  2.0355
 1560SOL    HW2 6102   7.026   4.474   3.587  0.6488  1.2574 -2.1967
 1561SOL     OW 6103   7.384   5.734   2.188  0.0595  0.3899  0.5829
 1561SOL    HW1 6104   7.308   5.697   2.143 -0.7058  0.5080  1.7388
 1561SOL    HW2 6105   7.439   5.768   2.117 -0.1526 -1.1775 -0.3887
 1562SOL     OW 6106   8.655   5.266   1.399  0.3098  0.6636  0.4285
 1562SOL    HW1 6107   8.751   5.259   1.393  0.1643  0.0883 -2.2838
 1562SOL    HW2 6108   8.628   5.300   1.314 -1.9841  0.0055  0.8422
 1563SOL     OW 6109   3.961   0.660   8.625 -0.4098  0.3336  0.5832
 1563SOL    HW1 6110   3.994   0.574   8.600  0.0315  0.5544  0.3874
 1563SOL    HW2 6111   3.928   0.698   8.543 -0.1571  0.5407  0.5755
 1564SOL     OW 6112   3.700   6.661   2.752  0.3746 -0.1649 -0.5973
 1564SOL    HW1 6113   3.609   6.641   2.772  0.0568 -0.8651 -2.4933
 1564SOL    HW2 6114   3.715   6.747   2.790 -0.4325 -0.9136  1.5279
 1565SOL     OW 6115   7.050   7.113   1.483 -0.0884 -0.2539 -0.1462
 1565SOL    HW1 6116   7.098   7.150   1.408  1.2562  0.1832  0.8901
 1565SOL    HW2 6117   7.065   7.175   1.554 -0.4039 -1.2206  0.7890
 1566SOL     OW 6118   2.210   2.487   4.987 -0.3695 -0.3050  0.1982
 1566SOL    HW1 6119   2.252   2.484   5.073 -0.5274 -1.0325  0.2619
 1566SOL    HW2 6120   2.165   2.571   4.985 -1.5344 -0.8515  1.4005
 1567SOL     OW 6121   3.325   6.513   8.353  0.2554 -0.1855 -0.0162
 1567SOL    HW1 6122   3.363   6.487   8.269  1.5636  0.1796  0.4382
 1567SOL    HW2 6123   3.342   6.439   8.411  1.0134  0.3029  0.4009
 1568SOL     OW 6124   1.766   4.955   7.344 -1.1381  0.1866  0.0115
 1568SOL    HW1 6125   1.825   5.030   7.334 -0.6657 -0.4278 -2.3087
 1568SOL    HW2 6126   1.822   4.879   7.327 -1.9091 -0.6476  1.0468
 1569SOL     OW 6127   5.110   7.965   3.948  0.1851 -0.1777 -0.4961
 1569SOL    HW1 6128   5.157   7.979   3.866  0.5370 -1.0198 -0.4434
 1569SOL    HW2 6129   5.076   7.876   3.943  2.1027 -1.0899  1.1773
 1570SOL     OW 6130   2.554   7.162   4.610  0.4615 -0.3865 -0.3227
 1570SOL    HW1 6131   2.507   7.229   4.659 -1.0159 -2.0518  0.6447
 1570SOL    HW2 6132   2.617   7.211   4.558 -1.8516  1.9200 -1.1634
 1571SOL     OW 6133   7.020   8.446   7.121  0.0258 -0.4660 -0.1077
 1571SOL    HW1 6134   7.052   8.454   7.211 -0.7960  4.2964  0.0301
 1571SOL    HW2 6135   7.097   8.421   7.070  1.3369  0.0120  1.5581
 1572SOL     OW 6136   8.287   6.646   5.289 -0.5404 -0.5715 -0.1428
 1572SOL    HW1 6137   8.243   6.563   5.269  0.2123 -1.4585  1.7159
 1572SOL    HW2 6138   8.286   6.652   5.384  0.4794  0.9967 -0.1900
 1573SOL     OW 6139   2.785   3.138   6.295  0.3099 -0.2949 -0.1089
 1573SOL    HW1 6140   2.703   3.186   6.307 -1.3881 -2.6881 -1.2619
 1573SOL    HW2 6141   2.835   3.191   6.233 -0.1455  1.3897  0.8977
 1574SOL     OW 6142   7.836   2.727   8.538  0.2320 -0.2373 -0.1084
 1574SOL    HW1 6143   7.836   2.673   8.617 -0.8530  0.5875  0.4733
 1574SOL    HW2 6144   7.811   2.666   8.468  1.0814 -0.9413  0.1893
 1575SOL     OW 6145   0.700   0.187   7.477 -0.5170  0.1572 -0.0834
 1575SOL    HW1 6146   0.755   0.262   7.453 -1.6357  1.0085 -0.0680
 1575SOL    HW2 6147   0.657   0.214   7.558 -0.4693 -0.7605  0.2545
 1576SOL     OW 6148   4.264   3.107   2.971 -0.4488 -0.0264  0.2917
 1576SOL    HW1 6149   4.332   3.069   3.026 -0.8161 -0.1383  0.6748
 1576SOL    HW2 6150   4.214   3.031   2.939  0.1800 -0.0132 -0.7629
 1577SOL     OW 6151   4.989   8.459   6.933 -0.2313 -0.0045 -0.3268
 1577SOL    HW1 6152   5.019   8.393   6.871  1.8937 -0.1480  0.7320
 1577SOL    HW2 6153   5.051   8.453   7.006 -0.3274  2.7190  0.1078
 1578SOL     OW 6154   4.501   4.441   3.269 -0.0478  0.2927 -0.4096
 1578SOL    HW1 6155   4.452   4.394   3.336  3.4514 -0.8279  1.6003
 1578SOL    HW2 6156   4.552   4.506   3.317  1.9192  0.0635 -2.0474
 1579SOL     OW 6157   2.203   3.274   7.512 -0.4979  0.2440  0.0678
 1579SOL    HW1 6158   2.255   3.200   7.542 -2.5805 -2.5173 -2.4945
 1579SOL    HW2 6159   2.230   3.347   7.567  1.7488 -2.3731  2.7389
 1580SOL     OW 6160   5.216   4.143   2.425  0.4223 -0.6650  0.1356
 1580SOL    HW1 6161   5.214   4.198   2.347  1.1118  0.2897  0.7798
 1580SOL    HW2 6162   5.155   4.184   2.485 -0.2062 -1.4727  0.0661
 1581SOL     OW 6163   2.020   4.718   8.825 -0.3810  0.4549 -0.0170
 1581SOL    HW1 6164   1.998   4.777   8.897 -1.1015  1.5105 -1.0620
 1581SOL    HW2 6165   1.938   4.672   8.806  0.5249 -2.3073  1.9198
 1582SOL     OW 6166   2.865   8.026   6.427 -0.2569  0.0360  0.2094
 1582SOL    HW1 6167   2.939   8.039   6.368 -1.6216  1.9388 -1.2279
 1582SOL    HW2 6168   2.904   8.015   6.514  1.7126  2.1205 -0.3118
 1583SOL     OW 6169   7.250   7.127   5.543 -0.1925  0.3568 -0.4137
 1583SOL    HW1 6170   7.186   7.127   5.471  1.3974 -0.3288 -1.8923
 1583SOL    HW2 6171   7.236   7.211   5.587 -2.4868 -0.0093 -0.3060
 1584SOL     OW 6172   7.568   0.498   4.671  0.2898 -0.0472 -0.2796
 1584SOL    HW1 6173   7.481   0.463   4.690  0.1361  0.0396 -0.8079
 1584SOL    HW2 6174   7.625   0.457   4.736  0.1192 -1.2847 -0.8725
 1585SOL     OW 6175   9.030   1.613   1.208 -0.4885  0.0518 -0.1555
 1585SOL    HW1 6176   9.052   1.659   1.127  3.1459 -4.1904 -1.9795
 1585SOL    HW2 6177   9.108   1.622   1.262 -0.2778 -2.4694  0.0606
 1586SOL     OW 6178   4.047   3.970   6.947 -0.2476 -0.4685  0.5467
 1586SOL    HW1 6179   4.087   3.885   6.931  0.4496 -0.0888  0.2421
 1586SOL    HW2 6180   3.973   3.974   6.886  0.2839 -0.4785 -0.1183
 1587SOL     OW 6181   6.473   8.817   5.299  0.4330 -0.4190  0.7482
 1587SOL    HW1 6182   6.478   8.827   5.204 -2.5913 -1.2562  0.3982
 1587SOL    HW2 6183   6.528   8.741   5.318  0.9206 -0.3552 -0.3381
 1588SOL     OW 6184   0.746   7.039   1.662 -0.1020  0.2077 -0.0340
 1588SOL    HW1 6185   0.751   7.118   1.607 -1.7303  1.2845  1.2635
 1588SOL    HW2 6186   0.727   6.969   1.600 -0.3460  1.1257 -1.0385
 1589SOL     OW 6187   4.421   5.954   2.671  0.7057  0.0360  0.0310
 1589SOL    HW1 6188   4.394   6.020   2.608 -0.8809 -0.2873  0.3377
 1589SOL    HW2 6189   4.405   5.870   2.628  2.2960 -0.1920 -0.1906
 1590SOL     OW 6190   4.225   3.039   4.397  0.1670 -0.0663 -0.6156
 1590SOL    HW1 6191   4.261   3.120   4.360  1.0922 -1.0588 -1.9755
 1590SOL    HW2 6192   4.300   2.997   4.439 -0.0344 -0.8111 -1.0010
 1591SOL     OW 6193   0.366   8.610   6.991 -0.3504  0.5443  0.0699
 1591SOL    HW1 6194   0.358   8.703   6.971 -1.9446  0.3516 -0.3842
 1591SOL    HW2 6195   0.317   8.566   6.920  1.7639 -0.7609 -0.6761
 1592SOL     OW 6196   9.037   3.620   3.376  0.0931 -0.3878  0.2813
 1592SOL    HW1 6197   9.129   3.619   3.350  0.5219  0.3346  1.6322
 1592SOL    HW2 6198   9.032   3.691   3.441 -1.4647 -0.2639  0.0664
 1593SOL     OW 6199   5.181   7.040   9.062 -0.5115 -0.2942 -0.7074
 1593SOL    HW1 6200   5.192   6.999   9.148  0.1173 -1.0221 -1.1137
 1593SOL    HW2 6201   5.124   6.980   9.014 -2.0194  0.8141 -0.3621
 1594SOL     OW 6202   5.321   1.397   0.168 -0.1896 -0.1458  0.4021
 1594SOL    HW1 6203   5.299   1.490   0.177  2.5045  0.4563  2.0198
 1594SOL    HW2 6204   5.397   1.396   0.110 -0.9504 -1.5216 -0.6314
 1595SOL     OW 6205   2.260   8.957   2.424  0.3281 -0.3051 -0.1762
 1595SOL    HW1 6206   2.329   8.894   2.444 -0.4603 -1.5055 -1.1116
 1595SOL    HW2 6207   2.183   8.925   2.472  0.0153  0.1586 -0.3522
 1596SOL     OW 6208   5.041   2.532   2.329 -0.0215  0.0010  0.5040
 1596SOL    HW1 6209   5.095   2.455   2.348  1.3067  0.6008 -0.7010
 1596SOL    HW2 6210   5.027   2.573   2.415  0.5535 -0.7421  0.9679
 1597SOL     OW 6211   3.691   7.014   6.190 -0.0623  0.0408  0.1042
 1597SOL    HW1 6212   3.600   6.989   6.175 -1.0229  3.1268  0.2854
 1597SOL    HW2 6213   3.715   7.066   6.113  0.5876  1.6296  1.3343
 1598SOL     OW 6214   9.223   1.303   4.234  0.9038  0.1171 -0.4435
 1598SOL    HW1 6215   9.147   1.263   4.192  0.7100 -0.5547  0.5201
 1598SOL    HW2 6216   9.233   1.388   4.190 -0.5210  0.3062 -0.4411
 1599SOL     OW 6217   5.942   5.700   8.237  0.3383  0.0009 -0.1924
 1599SOL    HW1 6218   5.862   5.651   8.257  0.1972 -0.5599 -1.9256
 1599SOL    HW2 6219   6.011   5.634   8.237  0.8632  0.4971  1.3883
 1600SOL     OW 6220   8.019   6.238   4.649 -0.1327  0.3489 -0.2131
 1600SOL    HW1 6221   8.021   6.154   4.603  0.2372  0.6103 -0.6803
 1600SOL    HW2 6222   8.110   6.252   4.676 -0.4945 -0.2419  1.4208
 1601SOL     OW 6223   1.014   8.754   8.982  0.3306 -0.2910  0.2832
 1601SOL    HW1 6224   0.965   8.716   8.909 -0.2848 -0.8819  0.9979
 1601SOL    HW2 6225   1.031   8.681   9.041  1.4424  0.0481  0.4077
 1602SOL     OW 6226   2.389   5.458   6.191  0.1995 -0.3397 -0.0256
 1602SOL    HW1 6227   2.430   5.532   6.236  1.2419  0.5714 -2.3303
 1602SOL    HW2 6228   2.434   5.381   6.225  0.7344  0.2772  0.6911
 1603SOL     OW 6229   8.107   6.450   5.297 -0.0921  0.1600  0.2183
 1603SOL    HW1 6230   8.095   6.446   5.202  1.5504  0.1299 -0.0187
 1603SOL    HW2 6231   8.041   6.389   5.332  1.4974 -2.5278 -1.1495
 1604SOL     OW 6232   7.320   5.643   8.942  0.1129  0.0111 -0.0409
 1604SOL    HW1 6233   7.233   5.681   8.961  0.0448 -0.4787  0.6899
 1604SOL    HW2 6234   7.303   5.550   8.932  0.3305  0.1154 -1.5035
 1605SOL     OW 6235   2.759   0.534   1.758  0.0012 -0.0851 -0.6458
 1605SOL    HW1 6236   2.781   0.606   1.818  0.8239 -0.7682 -0.1046
 1605SOL    HW2 6237   2.843   0.503   1.725 -0.2279 -1.6839  0.1819
 1606SOL     OW 6238   2.418   6.705   1.616 -0.5719 -0.4749  0.0061
 1606SOL    HW1 6239   2.359   6.658   1.557  0.3754 -2.2374  0.3962
 1606SOL    HW2 6240   2.505   6.693   1.579 -0.1930  0.1261  0.6699
 1607SOL     OW 6241   0.173   9.098   6.254  0.1672  0.1553 -0.0822
 1607SOL    HW1 6242   0.208   9.031   6.313  0.2686 -0.2208 -0.5672
 1607SOL    HW2 6243   0.086   9.118   6.290  0.4387  0.3157  0.5016
 1608SOL     OW 6244   7.276   4.590   4.465 -0.0626 -0.1319  0.7823
 1608SOL    HW1 6245   7.253   4.662   4.524  0.5815 -0.2966  1.2415
 1608SOL    HW2 6246   7.198   4.533   4.465 -0.2841  0.1673  1.0131
 1609SOL     OW 6247   4.357   0.238   1.943  0.0747  0.0502  0.1740
 1609SOL    HW1 6248   4.340   0.330   1.960 -1.9208 -0.1370 -0.5875
 1609SOL    HW2 6249   4.440   0.237   1.893 -1.3730  1.7361 -2.4988
 1610SOL     OW 6250   0.071   4.805   6.998 -0.8097  0.1814 -0.4595
 1610SOL    HW1 6251   0.083   4.759   7.081 -1.0219  1.4441  0.3011
 1610SOL    HW2 6252   0.002   4.757   6.953 -0.2285 -0.9103 -0.2139
 1611SOL     OW 6253   4.255   3.542   8.976 -0.3261  0.0914 -0.2330
 1611SOL    HW1 6254   4.305   3.585   8.907 -1.2485  1.3504 -0.1538
 1611SOL    HW2 6255   4.315   3.477   9.013  0.5084  0.0865 -1.5472
 1612SOL     OW 6256   2.225   8.526   1.147 -0.5216 -0.2822  0.6834
 1612SOL    HW1 6257   2.193   8.484   1.227  0.2181  1.3284  1.8937
 1612SOL    HW2 6258   2.316   8.549   1.167 -0.2487 -0.0623 -0.7237
 1613SOL     OW 6259   8.448   3.756   9.148 -0.3131  0.1157 -0.4429
 1613SOL    HW1 6260   8.483   3.676   9.109 -1.0613 -0.2765 -0.3302
 1613SOL    HW2 6261   8.360   3.732   9.179  0.2681  0.4059  1.5573
 1614SOL     OW 6262   8.927   0.725   1.854  0.3596 -0.1681  0.3284
 1614SOL    HW1 6263   8.843   0.763   1.882  0.1065  0.0444 -0.6742
 1614SOL    HW2 6264   8.904   0.637   1.824  0.3774  0.1190 -0.5552
 1615SOL     OW 6265   2.592   7.217   4.972 -0.6503  0.3482  0.2663
 1615SOL    HW1 6266   2.529   7.231   4.902 -0.7308  0.4281  0.3527
 1615SOL    HW2 6267   2.589   7.123   4.990  1.5777 -0.2431 -1.8998
 1616SOL     OW 6268   5.823   3.295   6.394 -0.0622  0.1272 -0.3407
 1616SOL    HW1 6269   5.859   3.295   6.306 -0.6600 -1.3869 -0.6045
 1616SOL    HW2 6270   5.750   3.233   6.391 -0.1886  0.1491  1.1853
 1617SOL     OW 6271   8.404   0.954   9.134 -0.5248 -0.1185 -0.5794
 1617SOL    HW1 6272   8.347   0.908   9.196 -0.9946 -0.4738 -1.2586
 1617SOL    HW2 6273   8.429   1.035   9.180  0.4604 -1.1030  0.6988
 1618SOL     OW 6274   6.567   2.379   8.768  0.3887 -0.2930  0.0163
 1618SOL    HW1 6275   6.571   2.314   8.698  0.6616 -0.7086  0.4140
 1618SOL    HW2 6276   6.495   2.349   8.824 -0.5647  0.6429 -0.6774
 1619SOL     OW 6277   1.926   5.583   4.119  0.2830  0.2936 -0.2311
 1619SOL    HW1 6278   1.942   5.665   4.073  2.1650  0.3030  0.3795
 1619SOL    HW2 6279   1.921   5.608   4.212  1.4269 -0.3190  0.0170
 1620SOL     OW 6280   7.836   3.515   8.884 -0.2705 -0.4365  0.1073
 1620SOL    HW1 6281   7.814   3.422   8.894 -2.0294 -0.0211  0.4098
 1620SOL    HW2 6282   7.756   3.555   8.852  1.5291  0.4019 -4.0218
 1621SOL     OW 6283   2.277   0.120   4.485 -0.1235 -0.2243  0.6373
 1621SOL    HW1 6284   2.336   0.061   4.532 -0.3055 -0.1811  0.9242
 1621SOL    HW2 6285   2.328   0.150   4.410 -0.1483 -1.0228  0.2932
 1622SOL     OW 6286   5.734   2.801   1.011  0.0240 -0.0608 -0.2971
 1622SOL    HW1 6287   5.789   2.831   1.083 -0.1029  1.7835 -0.9077
 1622SOL    HW2 6288   5.675   2.736   1.050  1.1707 -0.4570  0.8302
 1623SOL     OW 6289   2.458   5.132   2.673  0.1945  0.4771 -0.3413
 1623SOL    HW1 6290   2.426   5.050   2.711  1.5725  0.2956  0.5054
 1623SOL    HW2 6291   2.539   5.151   2.722  1.2863  0.9971 -2.2441
 1624SOL     OW 6292   1.741   1.934   7.845  0.8169 -0.4924  0.5403
 1624SOL    HW1 6293   1.772   1.968   7.929  0.2306 -2.0903  1.4464
 1624SOL    HW2 6294   1.647   1.923   7.857  0.3765  1.0693 -1.0185
 1625SOL     OW 6295   8.140   2.609   8.433  0.0378  0.4906 -0.1213
 1625SOL    HW1 6296   8.236   2.614   8.433  0.0158  2.6546 -2.2294
 1625SOL    HW2 6297   8.112   2.688   8.479 -0.6823  1.2190 -1.7405
 1626SOL     OW 6298   3.988   8.941   0.038  0.1189  0.0083 -0.0256
 1626SOL    HW1 6299   4.034   8.883  -0.023  0.2491 -0.7436  0.7616
 1626SOL    HW2 6300   3.985   9.025  -0.007  3.0408  0.3435  0.2207
 1627SOL     OW 6301   7.571   3.105   2.320 -0.2223 -0.0379 -0.1386
 1627SOL    HW1 6302   7.614   3.139   2.398  1.1135 -1.1935 -0.3198
 1627SOL    HW2 6303   7.479   3.095   2.345  0.0825  0.0942  1.1051
 1628SOL     OW 6304   0.892   2.044   8.060  0.1725 -0.7404  0.2263
 1628SOL    HW1 6305   0.811   1.995   8.044  0.1076 -1.0317  1.3594
 1628SOL    HW2 6306   0.904   2.097   7.981 -2.3442  1.0072  0.8709
 1629SOL     OW 6307   8.874   0.357   3.045  0.2218  0.2922  0.3393
 1629SOL    HW1 6308   8.821   0.375   3.123 -3.0127  0.3934 -1.7080
 1629SOL    HW2 6309   8.888   0.262   3.047 -1.3713  0.0238  0.2044
 1630SOL     OW 6310   7.240   0.648   5.082  0.8909  0.1990  0.0886
 1630SOL    HW1 6311   7.291   0.651   5.001 -0.4876 -1.3306 -0.9027
 1630SOL    HW2 6312   7.260   0.562   5.119  1.3367  0.8031  1.2695
 1631SOL     OW 6313   2.975   8.804   2.028 -0.1241 -0.1203 -0.2526
 1631SOL    HW1 6314   2.940   8.876   1.975  1.3922 -0.7483 -2.2107
 1631SOL    HW2 6315   2.916   8.731   2.009 -0.7298  0.1465  0.5118
 1632SOL     OW 6316   1.522   0.482   3.302 -0.6250  0.0236  0.3114
 1632SOL    HW1 6317   1.541   0.512   3.213  0.6005 -0.2433  0.4546
 1632SOL    HW2 6318   1.433   0.511   3.319 -0.2251  1.7420 -0.3133
 1633SOL     OW 6319   5.794   1.821   0.417  0.1013 -0.2014  0.5409
 1633SOL    HW1 6320   5.705   1.790   0.398  0.2328  0.5991 -1.6804
 1633SOL    HW2 6321   5.847   1.742   0.418 -0.5650 -0.6560  1.5693
 1634SOL     OW 6322   2.420   1.884   2.370  0.5943 -0.0485  0.0166
 1634SOL    HW1 6323   2.349   1.949   2.368  1.9375  1.4819  0.3374
 1634SOL    HW2 6324   2.377   1.802   2.344 -1.2038  0.8993 -0.2108
 1635SOL     OW 6325   2.316   0.620   8.591  0.1188 -0.8022  0.1134
 1635SOL    HW1 6326   2.293   0.659   8.506 -0.0685  0.4005  0.6910
 1635SOL    HW2 6327   2.327   0.527   8.573 -0.6626 -0.6806 -1.0894
 1636SOL     OW 6328   6.194   3.823   6.003 -0.3088  0.1746 -0.3682
 1636SOL    HW1 6329   6.235   3.809   6.088 -0.8971 -3.4829 -0.5074
 1636SOL    HW2 6330   6.101   3.835   6.023 -0.3173  0.2452 -0.4492
 1637SOL     OW 6331   3.604   3.870   4.115 -0.6720  0.4201 -0.4242
 1637SOL    HW1 6332   3.642   3.792   4.155 -0.7241  2.1077  3.2293
 1637SOL    HW2 6333   3.518   3.841   4.084  0.3350 -1.5186 -1.6475
 1638SOL     OW 6334   7.493   6.487   2.817  0.1482  0.3412  0.0006
 1638SOL    HW1 6335   7.468   6.400   2.786  0.3751 -0.1229  1.0621
 1638SOL    HW2 6336   7.516   6.473   2.909  0.1847  1.5265  0.1800
 1639SOL     OW 6337   9.128   9.111   3.717  0.4850  0.2148  0.4611
 1639SOL    HW1 6338   9.194   9.090   3.783  0.9144 -1.2480 -0.3929
 1639SOL    HW2 6339   9.155   9.062   3.639 -0.7497  0.8264 -0.3850
 1640SOL     OW 6340   2.249   5.887   4.032  0.1255 -0.5691 -0.9089
 1640SOL    HW1 6341   2.344   5.876   4.033  0.3948  1.3435  0.1254
 1640SOL    HW2 6342   2.215   5.806   3.993  2.0849 -1.8324 -0.1360
 1641SOL     OW 6343   5.575   3.224   1.538 -0.2326  0.2322 -0.3133
 1641SOL    HW1 6344   5.582   3.135   1.572 -0.4121  0.3470  0.0323
 1641SOL    HW2 6345   5.482   3.236   1.521 -0.3509  0.6988  0.6022
 1642SOL     OW 6346   3.950   1.491   3.188  0.3884  0.3186  0.5819
 1642SOL    HW1 6347   3.858   1.471   3.170  0.6885  0.3343 -1.1419
 1642SOL    HW2 6348   3.957   1.585   3.173  0.4109  0.6024  2.1490
 1643SOL     OW 6349   1.811   1.437   3.305  0.5576  0.1318 -0.3851
 1643SOL    HW1 6350   1.790   1.358   3.255  2.2033  0.4312 -1.5913
 1643SOL    HW2 6351   1.891   1.415   3.352 -0.1715  0.3615  1.0343
 1644SOL     OW 6352   4.001   4.637   5.435 -0.7897  0.0862  0.2911
 1644SOL    HW1 6353   3.974   4.570   5.498  1.4744 -0.1754  1.0601
 1644SOL    HW2 6354   3.962   4.609   5.352  0.7444 -2.6948  0.3937
 1645SOL     OW 6355   4.138   1.444   0.470 -0.0841  0.5514 -0.0059
 1645SOL    HW1 6356   4.212   1.451   0.410 -0.3568  1.2942 -0.2715
 1645SOL    HW2 6357   4.081   1.517   0.445  0.9677  2.5018  2.7691
 1646SOL     OW 6358   2.571   4.214   4.808  0.9026 -0.0880  0.3340
 1646SOL    HW1 6359   2.662   4.212   4.839  1.4380 -1.7963 -1.2188
 1646SOL    HW2 6360   2.577   4.201   4.714 -0.9293  0.7041  0.0620
 1647SOL     OW 6361   1.550   7.700   8.592 -0.2414 -0.6465  0.1187
 1647SOL    HW1 6362   1.544   7.717   8.498  5.4572  2.2769 -0.1249
 1647SOL    HW2 6363   1.620   7.636   8.601 -1.1401 -1.4129  2.3975
 1648SOL     OW 6364   6.003   6.585   5.132  0.0275 -0.2671  0.0010
 1648SOL    HW1 6365   6.016   6.676   5.158  1.1698 -0.1767 -0.7857
 1648SOL    HW2 6366   5.908   6.575   5.125 -0.1592  0.6031  0.9336
 1649SOL     OW 6367   1.330   5.301   1.174 -0.2409  0.4836  0.4106
 1649SOL    HW1 6368   1.283   5.316   1.256 -0.8079 -1.1873  0.4239
 1649SOL    HW2 6369   1.272   5.243   1.124  0.5963  0.5919 -0.7068
 1650SOL     OW 6370   6.157   1.858   4.278 -0.2217 -0.2753 -0.6278
 1650SOL    HW1 6371   6.246   1.824   4.267 -0.7080 -1.4212 -1.2271
 1650SOL    HW2 6372   6.154   1.935   4.222  0.1555 -0.7076 -1.2655
 1651SOL     OW 6373   1.066   1.497   7.639 -0.0344  0.3239 -0.2635
 1651SOL    HW1 6374   1.037   1.525   7.726 -0.2787 -0.3153 -0.1259
 1651SOL    HW2 6375   0.986   1.494   7.587 -0.1337 -0.7562 -0.0814
 1652SOL     OW 6376   0.587   3.741   4.261 -0.1467 -0.2267 -0.2781
 1652SOL    HW1 6377   0.495   3.765   4.261 -0.2157 -0.4026 -1.8612
 1652SOL    HW2 6378   0.600   3.699   4.346 -1.7494 -0.9955 -0.3632
 1653SOL     OW 6379   6.201   4.131   6.445  0.0644  0.0892  0.2510
 1653SOL    HW1 6380   6.174   4.041   6.464 -0.4866  0.2373  0.1795
 1653SOL    HW2 6381   6.286   4.139   6.488  0.1964 -0.5168  0.1231
 1654SOL     OW 6382   4.850   1.776   8.727  0.2410  0.1860  0.4759
 1654SOL    HW1 6383   4.934   1.819   8.706  0.8884 -1.3073 -0.1477
 1654SOL    HW2 6384   4.816   1.749   8.642  0.7344 -2.0602  0.9280
 1655SOL     OW 6385   8.813   2.279   8.721 -0.5479 -0.2345 -0.4869
 1655SOL    HW1 6386   8.774   2.365   8.705 -1.0672 -0.2616  0.5847
 1655SOL    HW2 6387   8.781   2.254   8.807  0.1272 -1.2199 -0.5147
 1656SOL     OW 6388   8.880   8.353   6.747  0.5382 -0.1878  0.4283
 1656SOL    HW1 6389   8.950   8.289   6.733  1.3993  0.7322  0.4316
 1656SOL    HW2 6390   8.922   8.438   6.732 -0.7098  0.3554 -0.0805
 1657SOL     OW 6391   7.552   3.258   3.525  0.0385  0.1061 -0.3605
 1657SOL    HW1 6392   7.515   3.273   3.439 -1.5995  0.1742  0.3322
 1657SOL    HW2 6393   7.485   3.209   3.573  0.7500  0.3956  0.9969
 1658SOL     OW 6394   2.034   1.004   0.556  0.1340 -0.5023  0.0582
 1658SOL    HW1 6395   2.005   0.928   0.506  2.1366 -1.0660 -0.3325
 1658SOL    HW2 6396   2.058   1.069   0.490  1.2053 -0.6333  0.2986
 1659SOL     OW 6397   0.932   4.520   2.035  0.3263  0.2252  0.2037
 1659SOL    HW1 6398   0.974   4.561   2.111 -0.0460  0.0139  0.5306
 1659SOL    HW2 6399   0.945   4.582   1.964  0.8978  0.3154  0.3769
 1660SOL     OW 6400   3.856   9.157   6.484 -0.3696 -0.0828  0.1391
 1660SOL    HW1 6401   3.811   9.176   6.402 -0.7328  0.3059  0.4252
 1660SOL    HW2 6402   3.838   9.232   6.540 -0.2775 -0.4246  0.6382
 1661SOL     OW 6403   3.495   6.393   4.070  0.4256 -0.0249 -0.0623
 1661SOL    HW1 6404   3.546   6.415   3.992  0.3026  1.8072  0.3329
 1661SOL    HW2 6405   3.498   6.472   4.124  1.0575 -1.4535  2.1254
 1662SOL     OW 6406   1.184   4.130   7.498 -0.2012 -0.0930  0.2731
 1662SOL    HW1 6407   1.182   4.125   7.594  0.1550 -0.6275  0.2538
 1662SOL    HW2 6408   1.136   4.053   7.468 -1.7183  0.9037  0.0135
 1663SOL     OW 6409   6.726   5.155   2.615 -0.0396  0.1802  0.1281
 1663SOL    HW1 6410   6.705   5.123   2.702 -1.4958 -0.0776 -0.2917
 1663SOL    HW2 6411   6.821   5.149   2.609  0.0956  0.3184  1.7322
 1664SOL     OW 6412   5.735   0.015   0.321  0.0942  0.0133  0.4258
 1664SOL    HW1 6413   5.651   0.003   0.277  0.4484  2.3520 -1.0446
 1664SOL    HW2 6414   5.712   0.054   0.406 -0.3766 -0.8261  0.6912
 1665SOL     OW 6415   2.487   6.967   7.228 -0.5731 -0.3246 -0.0987
 1665SOL    HW1 6416   2.512   6.990   7.317  0.1075 -0.1925 -0.3232
 1665SOL    HW2 6417   2.391   6.978   7.227 -0.6118 -0.5091  0.6600
 1666SOL     OW 6418   0.360   0.404   0.049  0.7003  0.0294 -0.2325
 1666SOL    HW1 6419   0.280   0.383   0.000  2.5208 -0.9668 -3.0471
 1666SOL    HW2 6420   0.353   0.497   0.069  0.0616  0.6563 -3.0034
 1667SOL     OW 6421   6.471   1.944   7.556 -0.2714 -0.2689  0.6616
 1667SOL    HW1 6422   6.470   1.966   7.649  0.1296  0.4803  0.5022
 1667SOL    HW2 6423   6.561   1.916   7.539 -0.6828 -1.7289  0.7759
 1668SOL     OW 6424   8.397   8.406   0.580  0.0290 -0.6377 -0.2299
 1668SOL    HW1 6425   8.319   8.391   0.526 -0.7003 -1.2958  0.9736
 1668SOL    HW2 6426   8.364   8.417   0.669  1.2620 -0.2063  0.1987
 1669SOL     OW 6427   3.582   7.150   5.992 -0.1455 -0.2428  0.4223
 1669SOL    HW1 6428   3.566   7.245   5.998 -1.4637 -0.4128 -0.0709
 1669SOL    HW2 6429   3.599   7.135   5.899 -1.1744 -0.6582  0.2921
 1670SOL     OW 6430   2.340   1.762   6.849 -0.0720 -0.7373  0.1305
 1670SOL    HW1 6431   2.256   1.795   6.817  0.3503  1.5243  1.1890
 1670SOL    HW2 6432   2.405   1.796   6.787  0.5976  2.5303  2.3734
 1671SOL     OW 6433   2.889   5.803   0.754  0.2016 -0.2225  0.2484
 1671SOL    HW1 6434   2.883   5.751   0.674 -1.5996 -1.5673  1.2141
 1671SOL    HW2 6435   2.921   5.742   0.820  0.2462  0.5059  0.9067
 1672SOL     OW 6436   3.661   1.286   3.963 -0.3579  0.1294  0.2294
 1672SOL    HW1 6437   3.659   1.271   4.057 -0.7677  1.2557  0.4186
 1672SOL    HW2 6438   3.735   1.234   3.931  0.3729  0.4890  1.3082
 1673SOL     OW 6439   7.158   6.473   0.332  0.2265  0.1674  0.1668
 1673SOL    HW1 6440   7.094   6.537   0.364  0.8596  1.2666 -0.7067
 1673SOL    HW2 6441   7.138   6.464   0.239  1.2657  0.4383 -0.0908
 1674SOL     OW 6442   3.948   1.510   3.826  0.0785 -0.0019 -0.2143
 1674SOL    HW1 6443   4.022   1.472   3.874  0.8761 -2.1183 -2.9009
 1674SOL    HW2 6444   3.938   1.455   3.749 -3.7506  0.7884 -0.4827
 1675SOL     OW 6445   1.210   8.372   0.942 -0.3272  0.3194  0.3015
 1675SOL    HW1 6446   1.303   8.354   0.928 -0.9262 -2.2088 -0.9168
 1675SOL    HW2 6447   1.177   8.396   0.856 -1.0583 -0.2104  0.4268
 1676SOL     OW 6448   3.465   5.416   2.869  1.2794 -0.1487 -0.1756
 1676SOL    HW1 6449   3.559   5.429   2.860  1.2629 -0.8342 -1.5060
 1676SOL    HW2 6450   3.436   5.490   2.922  2.5234  0.1871  0.0778
 1677SOL     OW 6451   0.095   7.101   5.999  0.0576 -0.7506  0.1575
 1677SOL    HW1 6452   0.035   7.175   6.004  0.0662 -0.7445  0.1669
 1677SOL    HW2 6453   0.139   7.110   5.914 -0.2068 -0.9509 -0.0043
 1678SOL     OW 6454   4.663   1.790   7.964 -0.1513 -0.7660  0.1132
 1678SOL    HW1 6455   4.697   1.712   7.920  1.9341 -0.6921  1.4326
 1678SOL    HW2 6456   4.601   1.757   8.028  0.1023 -1.2672  0.1009
 1679SOL     OW 6457   2.130   1.391   0.796  0.2898  0.6233 -0.2715
 1679SOL    HW1 6458   2.099   1.426   0.712  1.1262 -0.9156 -1.2891
 1679SOL    HW2 6459   2.085   1.306   0.803  0.0331  0.8459  0.9904
 1680SOL     OW 6460   4.221   8.693   1.466  0.5923  0.1278 -0.2020
 1680SOL    HW1 6461   4.194   8.668   1.378 -0.5666  1.9903 -0.4247
 1680SOL    HW2 6462   4.306   8.735   1.455 -0.1124  1.4969 -0.6506
 1681SOL     OW 6463   7.395   5.442   2.864  0.2467  1.0509  0.3441
 1681SOL    HW1 6464   7.335   5.386   2.914  1.0127 -2.3138 -2.1431
 1681SOL    HW2 6465   7.349   5.458   2.781  0.9404  2.4367  0.1887
 1682SOL     OW 6466   1.434   7.790   0.579  0.3973  0.1952 -0.0828
 1682SOL    HW1 6467   1.447   7.885   0.580 -0.7406  0.3757  0.6706
 1682SOL    HW2 6468   1.452   7.764   0.489  1.5205  0.9937 -0.1118
 1683SOL     OW 6469   3.003   1.536   1.496  0.3562  0.3336  0.4117
 1683SOL    HW1 6470   3.085   1.526   1.544  1.0686 -0.7892 -0.9675
 1683SOL    HW2 6471   2.992   1.631   1.488  1.6259  0.5047  0.4804
 1684SOL     OW 6472   4.353   1.773   0.714 -0.0684 -0.8313 -0.0927
 1684SOL    HW1 6473   4.260   1.761   0.694 -0.0336 -0.9011 -0.2140
 1684SOL    HW2 6474   4.365   1.868   0.716 -0.4419 -0.7901  1.3318
 1685SOL     OW 6475   1.564   1.535   1.891  0.4834  0.1673  0.6060
 1685SOL    HW1 6476   1.654   1.511   1.912  0.7670 -1.2821 -1.9653
 1685SOL    HW2 6477   1.571   1.588   1.812 -1.0208 -2.2173 -1.2330
 1686SOL     OW 6478   0.467   6.607   1.307 -0.6000  0.8827 -0.1724
 1686SOL    HW1 6479   0.453   6.532   1.250  0.1345  1.1708 -0.7544
 1686SOL    HW2 6480   0.546   6.585   1.357 -2.6419 -0.5499  2.7549
 1687SOL     OW 6481   7.954   2.992   0.417 -0.3595 -0.1061  0.3896
 1687SOL    HW1 6482   7.897   2.916   0.406  0.0152 -0.4095  0.5192
 1687SOL    HW2 6483   7.941   3.044   0.338  0.2638 -0.8971 -0.2447
 1688SOL     OW 6484   2.780   1.985   4.900  0.1177  0.5952 -0.0194
 1688SOL    HW1 6485   2.694   1.988   4.941 -0.0092  0.8328 -0.3002
 1688SOL    HW2 6486   2.804   1.892   4.903  0.3446  0.6770  1.0521
 1689SOL     OW 6487   3.870   2.939   1.396  0.7626 -0.4972 -0.0352
 1689SOL    HW1 6488   3.932   2.884   1.349 -1.2176 -0.8391 -2.4667
 1689SOL    HW2 6489   3.918   3.021   1.410  1.7830 -0.6951 -1.9071
 1690SOL     OW 6490   3.809   4.652   6.752  0.4523  0.2189  0.1949
 1690SOL    HW1 6491   3.774   4.563   6.742  4.3724 -1.2821 -2.7019
 1690SOL    HW2 6492   3.767   4.685   6.832 -2.0055 -3.7758  0.8493
 1691SOL     OW 6493   9.264   8.092   7.768 -0.4937 -0.0807  0.1330
 1691SOL    HW1 6494   9.281   8.103   7.861 -0.2588  0.1252  0.0660
 1691SOL    HW2 6495   9.199   8.160   7.747 -0.7153 -0.2715  0.1929
 1692SOL     OW 6496   2.220   8.249   8.495 -0.1488 -0.7520 -0.1975
 1692SOL    HW1 6497   2.240   8.315   8.561 -1.2834 -0.3914 -0.1917
 1692SOL    HW2 6498   2.176   8.298   8.425  0.2936 -1.2634 -0.8488
 1693SOL     OW 6499   2.525   2.181   1.339  0.3076  0.6970 -0.2581
 1693SOL    HW1 6500   2.458   2.159   1.274  1.1672  0.4892 -1.0922
 1693SOL    HW2 6501   2.481   2.167   1.424 -0.5841  0.2126 -0.7798
 1694SOL     OW 6502   6.360   8.021   5.797  0.0179  0.0881  0.0535
 1694SOL    HW1 6503   6.343   7.939   5.845 -0.1101 -0.3528 -0.7330
 1694SOL    HW2 6504   6.445   8.050   5.831 -0.4255  0.2028  1.1145
 1695SOL     OW 6505   2.221   4.462   2.388 -0.0182  0.0919  0.5587
 1695SOL    HW1 6506   2.200   4.459   2.481 -0.7966 -1.2121  0.3729
 1695SOL    HW2 6507   2.136   4.470   2.344  0.3096  0.3125 -0.0508
 1696SOL     OW 6508   1.037   3.356   1.605  0.1521  0.4456  0.4231
 1696SOL    HW1 6509   1.124   3.322   1.625  0.0006  1.2186  2.5963
 1696SOL    HW2 6510   0.987   3.279   1.577  1.2437 -0.1721  0.1069
 1697SOL     OW 6511   4.802   3.250   6.161  0.2137 -0.5371  0.5954
 1697SOL    HW1 6512   4.859   3.321   6.132 -1.6153  1.2247  1.0626
 1697SOL    HW2 6513   4.851   3.207   6.231  1.4632  0.0849  0.1334
 1698SOL     OW 6514   2.049   5.865   1.988 -0.2127  0.0726  0.1961
 1698SOL    HW1 6515   1.975   5.811   2.015  1.8276 -1.9834  2.1720
 1698SOL    HW2 6516   2.073   5.831   1.901 -1.5484  0.7876 -0.4779
 1699SOL     OW 6517   2.972   2.438   1.435  0.1898 -0.6851  0.2668
 1699SOL    HW1 6518   2.977   2.531   1.459  0.8135 -0.1684 -1.6853
 1699SOL    HW2 6519   2.879   2.421   1.424  0.0950 -0.1808  0.2622
 1700SOL     OW 6520   8.844   4.006   0.518 -0.1127 -0.3783 -0.0759
 1700SOL    HW1 6521   8.878   3.995   0.606  1.2364  1.4640 -0.3176
 1700SOL    HW2 6522   8.757   4.045   0.530  0.4643  0.7977  0.4600
 1701SOL     OW 6523   1.647   0.458   0.286  0.4891  0.7746  0.2819
 1701SOL    HW1 6524   1.594   0.488   0.360  0.5969  2.6705 -0.3618
 1701SOL    HW2 6525   1.660   0.536   0.232  1.0604 -0.3931 -1.3561
 1702SOL     OW 6526   2.182   7.596   3.189  0.6603 -0.1487 -0.5479
 1702SOL    HW1 6527   2.089   7.606   3.168  0.6192  0.3781 -0.1252
 1702SOL    HW2 6528   2.202   7.505   3.166 -0.1499 -0.4939  0.0677
 1703SOL     OW 6529   1.196   7.206   3.714 -0.1066 -0.6605  0.1645
 1703SOL    HW1 6530   1.163   7.116   3.718 -0.4612 -0.7209 -2.3920
 1703SOL    HW2 6531   1.277   7.200   3.664 -0.3872  0.4967 -0.4541
 1704SOL     OW 6532   6.401   2.483   6.112 -0.3567  0.1136 -0.0780
 1704SOL    HW1 6533   6.455   2.416   6.069  0.3600  0.9068 -0.4310
 1704SOL    HW2 6534   6.329   2.433   6.152 -0.9024 -0.6958 -1.9589
 1705SOL     OW 6535   2.868   3.765   1.117 -0.2480 -0.8361  0.1693
 1705SOL    HW1 6536   2.950   3.814   1.116  0.3481 -1.7695 -1.6952
 1705SOL    HW2 6537   2.804   3.824   1.077  0.0710 -0.9383 -0.5081
 1706SOL     OW 6538   9.247   6.720   5.116 -0.4122  0.0482  0.1550
 1706SOL    HW1 6539   9.337   6.690   5.128  0.2414  1.8980  0.1326
 1706SOL    HW2 6540   9.198   6.640   5.093  1.3421 -0.8660 -0.5800
 1707SOL     OW 6541   8.305   7.115   7.940 -0.2888  0.0993 -0.3326
 1707SOL    HW1 6542   8.310   7.163   7.857 -0.5996  1.5925  0.4809
 1707SOL    HW2 6543   8.339   7.028   7.919 -0.5958  0.3553 -2.0851
 1708SOL     OW 6544   7.690   4.786   8.494 -0.1056 -0.5244 -0.4967
 1708SOL    HW1 6545   7.601   4.809   8.521  0.1904  1.0357 -0.7403
 1708SOL    HW2 6546   7.710   4.706   8.542 -1.1133 -0.0936  0.6885
 1709SOL     OW 6547   8.942   3.907   0.780 -0.3026 -0.3365 -0.3891
 1709SOL    HW1 6548   8.988   3.855   0.846 -1.7023 -0.1073  0.8277
 1709SOL    HW2 6549   8.891   3.843   0.731 -2.2871 -0.1542  1.3267
 1710SOL     OW 6550   6.299   3.182   3.221  0.5061 -0.1809 -0.3666
 1710SOL    HW1 6551   6.243   3.157   3.294  1.1716 -1.6894 -0.3225
 1710SOL    HW2 6552   6.263   3.135   3.145  0.5973  0.3303 -0.7346
 1711SOL     OW 6553   2.107   6.030   8.223 -0.2220 -0.7131  0.1533
 1711SOL    HW1 6554   2.115   5.997   8.313  0.6843 -1.2930 -0.1290
 1711SOL    HW2 6555   2.182   5.993   8.177 -0.9808 -0.8829 -0.9964
 1712SOL     OW 6556   8.337   8.644   2.214  0.0974  0.3072 -0.4383
 1712SOL    HW1 6557   8.275   8.576   2.238 -0.0347  0.8706  0.8799
 1712SOL    HW2 6558   8.416   8.624   2.264  0.5092  0.4019 -1.0327
 1713SOL     OW 6559   8.191   6.713   3.598  0.3083 -0.5977  0.1536
 1713SOL    HW1 6560   8.204   6.662   3.678  0.1868 -0.2458  0.3995
 1713SOL    HW2 6561   8.168   6.800   3.629 -2.0998 -1.0131 -0.2345
 1714SOL     OW 6562   1.577   1.276   8.523  0.2188  0.4349 -0.1815
 1714SOL    HW1 6563   1.492   1.253   8.561  0.5532 -1.0297 -0.2538
 1714SOL    HW2 6564   1.560   1.356   8.474 -1.6899 -1.0031 -2.0902
 1715SOL     OW 6565   9.008   9.136   6.649 -0.3415  0.2229  0.0592
 1715SOL    HW1 6566   8.950   9.202   6.611  0.8751  1.3940  0.1946
 1715SOL    HW2 6567   8.996   9.144   6.743  0.2225  0.6528  0.0991
 1716SOL     OW 6568   6.963   1.160   5.311  0.1398  0.1561 -0.3533
 1716SOL    HW1 6569   6.879   1.115   5.301  0.9051 -1.5225  0.3192
 1716SOL    HW2 6570   7.016   1.127   5.239  0.6313  0.1661 -0.0023
 1717SOL     OW 6571   1.777   0.859   2.612  0.4228  0.1094  0.2110
 1717SOL    HW1 6572   1.796   0.774   2.573 -2.6523 -0.5597 -0.0612
 1717SOL    HW2 6573   1.770   0.919   2.537  1.7144  0.4417  0.3385
 1718SOL     OW 6574   6.527   7.298   2.851  0.6642 -0.1409  0.0268
 1718SOL    HW1 6575   6.592   7.349   2.802  0.7449 -0.8145 -0.5927
 1718SOL    HW2 6576   6.484   7.245   2.784 -2.1174  1.8849  0.0411
 1719SOL     OW 6577   7.153   7.943   6.619 -1.0575 -0.1483  0.0141
 1719SOL    HW1 6578   7.172   7.955   6.712  0.2997 -2.4141  0.1007
 1719SOL    HW2 6579   7.080   7.882   6.617 -1.3853  0.2502 -0.4222
 1720SOL     OW 6580   7.644   6.957   6.642 -0.3074  0.0014 -0.1330
 1720SOL    HW1 6581   7.694   7.033   6.610  0.3271 -0.5684 -0.5253
 1720SOL    HW2 6582   7.632   6.974   6.735  2.6839 -0.9242  0.5392
 1721SOL     OW 6583   4.712   6.525   6.232 -0.4581  0.2337 -0.0972
 1721SOL    HW1 6584   4.665   6.568   6.161 -1.4599  0.2328  0.5513
 1721SOL    HW2 6585   4.650   6.461   6.267  0.8600 -1.5222 -0.7921
 1722SOL     OW 6586   3.282   7.768   1.496 -0.2039  0.1688  0.0610
 1722SOL    HW1 6587   3.350   7.712   1.458  1.6582  0.1299  3.1332
 1722SOL    HW2 6588   3.242   7.714   1.564 -1.7175  1.0252 -0.1112
 1723SOL     OW 6589   8.739   7.595   3.612  0.8802 -0.3412  0.0768
 1723SOL    HW1 6590   8.765   7.568   3.524  2.0265 -3.2774  1.1957
 1723SOL    HW2 6591   8.669   7.659   3.598  1.1791 -0.5586 -2.9465
 1724SOL     OW 6592   6.700   5.563   7.879  0.0238 -0.0806  0.1042
 1724SOL    HW1 6593   6.699   5.498   7.950  0.6621 -0.8417 -0.5628
 1724SOL    HW2 6594   6.728   5.514   7.802  0.0291  0.8885 -0.5282
 1725SOL     OW 6595   8.219   3.656   8.570  0.2488 -0.6578 -0.2356
 1725SOL    HW1 6596   8.200   3.734   8.516  1.0210 -0.0815  0.3077
 1725SOL    HW2 6597   8.137   3.641   8.618  0.5175  0.6822  0.7020
 1726SOL     OW 6598   0.647   3.923   4.530 -0.1188  0.1462 -0.0622
 1726SOL    HW1 6599   0.554   3.901   4.524  0.1405 -0.7839 -0.7467
 1726SOL    HW2 6600   0.663   3.934   4.624 -1.2131  1.6924 -0.0155
 1727SOL     OW 6601   5.411   4.199   1.871  0.0794 -0.1877  0.5135
 1727SOL    HW1 6602   5.408   4.294   1.868 -3.2960 -0.1847  0.6256
 1727SOL    HW2 6603   5.414   4.177   1.964 -1.6777 -0.1519  0.5975
 1728SOL     OW 6604   0.207   3.096   8.045 -0.0651  0.4928 -0.1869
 1728SOL    HW1 6605   0.178   3.065   8.131 -2.0153 -2.0289 -1.5935
 1728SOL    HW2 6606   0.222   3.016   7.994  1.4091  1.8843 -2.1057
 1729SOL     OW 6607   8.459   0.594   8.712  0.1034 -0.0710 -0.3119
 1729SOL    HW1 6608   8.382   0.584   8.768 -0.2065  1.2934 -0.4752
 1729SOL    HW2 6609   8.491   0.504   8.700 -0.9324 -0.5698  0.4841
 1730SOL     OW 6610   4.812   2.027   4.137  0.3258  0.2881  0.1264
 1730SOL    HW1 6611   4.806   1.932   4.129  0.1858 -0.0000  2.7717
 1730SOL    HW2 6612   4.722   2.056   4.149  0.5127  0.5257  1.0585
 1731SOL     OW 6613   5.853   1.804   7.377  0.0310  0.6514  0.2955
 1731SOL    HW1 6614   5.769   1.773   7.343 -0.5810  1.6212  0.8828
 1731SOL    HW2 6615   5.916   1.786   7.307 -0.6825 -0.0029 -0.1822
 1732SOL     OW 6616   4.329   2.483   3.860  0.3974 -0.3271 -0.0608
 1732SOL    HW1 6617   4.341   2.485   3.765 -0.6273 -0.9955 -0.2221
 1732SOL    HW2 6618   4.356   2.395   3.885 -1.4877 -0.9504 -0.0739
 1733SOL     OW 6619   2.536   0.702   0.329  0.0172  1.1155  0.0977
 1733SOL    HW1 6620   2.486   0.685   0.409 -0.9073  2.0485 -0.2585
 1733SOL    HW2 6621   2.591   0.625   0.318 -1.3288  0.0541  0.5404
 1734SOL     OW 6622   8.298   3.046   0.345 -0.4908  0.0511 -0.1014
 1734SOL    HW1 6623   8.375   3.006   0.385  0.4979  0.2629 -1.7215
 1734SOL    HW2 6624   8.240   3.063   0.419  1.4637  0.9259  1.3256
 1735SOL     OW 6625   8.956   7.816   1.627 -0.1737  0.0555 -0.3822
 1735SOL    HW1 6626   8.966   7.882   1.558 -1.9005  1.7484  0.8891
 1735SOL    HW2 6627   9.046   7.797   1.654  0.3961  1.7074 -0.9738
 1736SOL     OW 6628   3.318   8.842   1.446  0.0062  0.4859 -0.0942
 1736SOL    HW1 6629   3.240   8.825   1.499 -0.0627  1.6722  0.2170
 1736SOL    HW2 6630   3.294   8.815   1.358 -1.1017  1.7047 -0.1941
 1737SOL     OW 6631   4.491   6.304   8.821  0.4343  0.6765 -0.5844
 1737SOL    HW1 6632   4.548   6.232   8.792  0.1440  0.4042 -0.4843
 1737SOL    HW2 6633   4.469   6.283   8.912  0.5176  1.0024 -0.4868
 1738SOL     OW 6634   0.094   4.469   6.170  0.4034  0.2623 -0.4106
 1738SOL    HW1 6635   0.101   4.531   6.242  0.6109  2.3499 -2.1469
 1738SOL    HW2 6636   0.184   4.456   6.141  0.3169 -0.5280 -0.3564
 1739SOL     OW 6637   6.325   8.460   3.624 -0.8353 -0.4483 -0.1131
 1739SOL    HW1 6638   6.328   8.496   3.535  1.2812  0.4097  0.2512
 1739SOL    HW2 6639   6.232   8.445   3.640 -1.2875 -0.6665 -2.4738
 1740SOL     OW 6640   7.731   1.670   7.722 -0.4848  0.1014 -0.4596
 1740SOL    HW1 6641   7.750   1.596   7.779  1.6228  1.0650  0.1995
 1740SOL    HW2 6642   7.682   1.632   7.649 -0.8259 -1.6399  0.6046
 1741SOL     OW 6643   1.356   8.675   5.682  0.4038 -0.0188  0.1278
 1741SOL    HW1 6644   1.348   8.603   5.619 -1.2240  0.0763  0.1821
 1741SOL    HW2 6645   1.427   8.648   5.739  0.5226 -1.0960 -0.4913
 1742SOL     OW 6646   2.066   3.072   3.247 -0.4270 -0.3078  0.1009
 1742SOL    HW1 6647   1.975   3.098   3.258  0.0616  0.4015  3.3807
 1742SOL    HW2 6648   2.063   2.998   3.186 -3.0076  0.4951 -0.8534
 1743SOL     OW 6649   6.693   6.417   3.014 -0.5117 -0.4028 -0.3411
 1743SOL    HW1 6650   6.602   6.448   3.015 -0.1655  0.6841 -0.6001
 1743SOL    HW2 6651   6.738   6.479   2.957  0.6570 -0.1168  0.8339
 1744SOL     OW 6652   3.068   1.926   0.948 -0.3453 -0.4906  0.3588
 1744SOL    HW1 6653   3.066   1.830   0.951 -0.2525 -0.5739 -1.4014
 1744SOL    HW2 6654   2.993   1.950   0.894  0.0238  0.4003  0.2328
 1745SOL     OW 6655   5.682   5.401   5.347  0.1918 -0.1259 -0.2840
 1745SOL    HW1 6656   5.622   5.405   5.273 -0.5999 -0.2671  0.3350
 1745SOL    HW2 6657   5.729   5.318   5.335 -1.5426 -1.2907  0.5565
 1746SOL     OW 6658   5.332   3.140   1.967 -0.0509 -0.3828 -0.9683
 1746SOL    HW1 6659   5.237   3.149   1.960 -0.5657 -3.7190 -0.2254
 1746SOL    HW2 6660   5.359   3.101   1.884  0.6041  0.1325 -1.0034
 1747SOL     OW 6661   5.833   6.147   2.328 -0.2134 -0.2474 -0.2494
 1747SOL    HW1 6662   5.740   6.156   2.346  0.0276  0.4925  0.7767
 1747SOL    HW2 6663   5.838   6.091   2.251 -1.5000 -0.2784 -0.3315
 1748SOL     OW 6664   6.030   4.318   6.816 -0.2995  0.1378  0.2683
 1748SOL    HW1 6665   6.006   4.289   6.728 -1.1480 -0.6414  0.7350
 1748SOL    HW2 6666   5.953   4.366   6.848  0.8030  2.3556 -0.2066
 1749SOL     OW 6667   2.460   6.237   2.464 -0.1536  0.4594 -0.0719
 1749SOL    HW1 6668   2.407   6.288   2.526  0.6094 -0.9939  1.9076
 1749SOL    HW2 6669   2.398   6.199   2.403 -0.8540  2.6739 -0.8098
 1750SOL     OW 6670   5.592   6.410   3.655 -0.0568 -0.7526 -0.5381
 1750SOL    HW1 6671   5.553   6.351   3.720 -0.1416  0.8396  0.9334
 1750SOL    HW2 6672   5.520   6.468   3.629  0.4971  0.0327 -0.3584
 1751SOL     OW 6673   5.613   1.993   8.622  0.1557 -0.1341 -0.7944
 1751SOL    HW1 6674   5.675   2.057   8.587 -1.1302 -0.0731 -3.1440
 1751SOL    HW2 6675   5.647   1.908   8.592 -0.1333 -0.2279 -0.8527
 1752SOL     OW 6676   6.458   5.451   0.884 -0.1469 -0.8426 -0.2103
 1752SOL    HW1 6677   6.538   5.502   0.871  0.0758 -1.7113 -2.6299
 1752SOL    HW2 6678   6.396   5.485   0.819 -1.0429 -1.6072  0.2047
 1753SOL     OW 6679   1.845   4.457   6.943 -0.2029  0.2546  0.4871
 1753SOL    HW1 6680   1.899   4.529   6.974 -0.2077 -0.1484  1.4529
 1753SOL    HW2 6681   1.756   4.481   6.965 -0.2172  0.0054  0.6980
 1754SOL     OW 6682   2.134   0.792   7.512 -0.4502 -0.4862 -0.1452
 1754SOL    HW1 6683   2.214   0.754   7.477  0.4985  0.4610  0.9002
 1754SOL    HW2 6684   2.073   0.792   7.438  1.5830  1.8460 -2.0042
 1755SOL     OW 6685   8.603   2.722   4.261 -0.2625  0.3466 -0.3845
 1755SOL    HW1 6686   8.676   2.677   4.303 -1.8333 -0.6453  1.4313
 1755SOL    HW2 6687   8.556   2.764   4.334 -1.3626  1.1795 -1.5323
 1756SOL     OW 6688   6.081   1.353   1.795 -0.0413  0.5456  0.1038
 1756SOL    HW1 6689   6.124   1.350   1.880 -1.8151  0.2248  1.0428
 1756SOL    HW2 6690   6.108   1.272   1.751 -1.2299 -0.6745  1.5004
 1757SOL     OW 6691   0.091   8.502   8.873 -0.2156  0.6772 -0.6471
 1757SOL    HW1 6692   0.040   8.580   8.851 -0.1935  1.0501  0.5417
 1757SOL    HW2 6693   0.155   8.533   8.938 -1.1068 -0.5737  0.9080
 1758SOL     OW 6694   2.180   0.184   0.978  0.1906 -0.4980  0.1535
 1758SOL    HW1 6695   2.175   0.159   0.885  0.9396  0.6521 -0.2199
 1758SOL    HW2 6696   2.089   0.189   1.006 -0.0163 -2.5909 -0.0148
 1759SOL     OW 6697   4.502   0.787   7.615 -0.3575  0.2775 -0.5286
 1759SOL    HW1 6698   4.469   0.728   7.547  0.5532 -0.1909 -0.5750
 1759SOL    HW2 6699   4.565   0.735   7.664  0.3025  1.1421 -0.4351
 1760SOL     OW 6700   1.811   2.314   3.374 -0.2303  0.0361 -0.5268
 1760SOL    HW1 6701   1.756   2.347   3.444 -0.9678 -0.8085 -0.6873
 1760SOL    HW2 6702   1.897   2.352   3.391 -0.1271 -0.9275  1.4266
 1761SOL     OW 6703   3.183   7.709   5.693 -0.1869  0.8234 -0.3611
 1761SOL    HW1 6704   3.265   7.715   5.645 -0.5928 -2.7513 -1.8079
 1761SOL    HW2 6705   3.208   7.705   5.785  1.2131  0.5183 -0.7422
 1762SOL     OW 6706   6.211   3.500   5.819  0.3161  0.2201 -0.1527
 1762SOL    HW1 6707   6.256   3.579   5.845 -0.5065  0.7101 -0.1663
 1762SOL    HW2 6708   6.118   3.521   5.829  0.0735 -0.5904 -0.5779
 1763SOL     OW 6709   3.562   7.208   2.284  0.5712 -0.4151 -0.1606
 1763SOL    HW1 6710   3.529   7.118   2.273  0.4262 -0.3830  0.0179
 1763SOL    HW2 6711   3.610   7.206   2.366  2.8591 -1.0116 -1.4145
 1764SOL     OW 6712   2.268   6.322   0.069 -0.1302  0.2737 -0.3188
 1764SOL    HW1 6713   2.277   6.330   0.164  0.8308 -2.0123 -0.1506
 1764SOL    HW2 6714   2.339   6.376   0.033  0.2443  0.2075  0.3128
 1765SOL     OW 6715   8.481   5.321   5.132 -0.5814 -0.2183  0.0642
 1765SOL    HW1 6716   8.467   5.327   5.226 -0.3043  1.4156  0.0292
 1765SOL    HW2 6717   8.436   5.241   5.106  0.0409 -1.1226  1.6981
 1766SOL     OW 6718   3.423   6.360   0.455  0.3026  0.5099  0.3590
 1766SOL    HW1 6719   3.484   6.291   0.430 -0.5863  0.1884 -1.0599
 1766SOL    HW2 6720   3.431   6.426   0.386 -0.0127  1.0717  0.8480
 1767SOL     OW 6721   1.650   2.066   8.667 -0.2252  0.2682 -0.1786
 1767SOL    HW1 6722   1.604   2.003   8.611 -2.8164  0.7057  1.3017
 1767SOL    HW2 6723   1.638   2.033   8.756  1.0763  1.2474  0.3966
 1768SOL     OW 6724   8.495   3.142   5.667 -0.0830 -0.6172  0.0312
 1768SOL    HW1 6725   8.572   3.128   5.721  1.3179 -1.3429 -2.0512
 1768SOL    HW2 6726   8.494   3.237   5.651  0.4450 -0.6218 -0.0313
 1769SOL     OW 6727   3.679   7.191   6.791  0.5958  0.3618 -0.0930
 1769SOL    HW1 6728   3.753   7.172   6.732 -1.2953 -1.3640 -2.0995
 1769SOL    HW2 6729   3.615   7.235   6.735 -0.5476  0.3718  1.1834
 1770SOL     OW 6730   5.632   3.465   4.230 -1.0832  0.5834 -0.3072
 1770SOL    HW1 6731   5.692   3.398   4.198 -0.0042  0.4196  1.8966
 1770SOL    HW2 6732   5.667   3.547   4.197 -0.6372  0.3412 -0.4358
 1771SOL     OW 6733   1.174   1.435   2.050 -0.0175 -0.2262 -0.5707
 1771SOL    HW1 6734   1.217   1.351   2.031 -0.7706 -0.8989  0.5769
 1771SOL    HW2 6735   1.224   1.472   2.122  1.0234  0.9075 -1.8172
 1772SOL     OW 6736   1.609   7.592   3.176  0.1578  0.2135  0.0690
 1772SOL    HW1 6737   1.514   7.593   3.170  0.0816  2.5705  0.7057
 1772SOL    HW2 6738   1.635   7.683   3.162  2.3107 -0.3367  0.1505
 1773SOL     OW 6739   8.412   8.713   8.210  0.2814 -0.5233  0.2725
 1773SOL    HW1 6740   8.451   8.796   8.184 -2.5643  0.8454  0.0078
 1773SOL    HW2 6741   8.391   8.669   8.128  2.3617 -1.9149  0.3982
 1774SOL     OW 6742   8.510   3.477   3.028 -0.0069  0.2822 -0.2911
 1774SOL    HW1 6743   8.466   3.520   3.101  1.5157  0.7078  0.4149
 1774SOL    HW2 6744   8.567   3.544   2.990 -0.8055  0.0909 -1.9326
 1775SOL     OW 6745   7.308   6.922   4.207 -0.4341  0.8488  0.4330
 1775SOL    HW1 6746   7.244   6.906   4.138 -0.3536  1.2513  0.2597
 1775SOL    HW2 6747   7.392   6.898   4.168 -0.0634  3.3330 -0.4809
 1776SOL     OW 6748   7.573   8.430   2.874 -0.3028 -0.1002 -0.1299
 1776SOL    HW1 6749   7.595   8.470   2.958 -0.3548 -1.8474  0.7708
 1776SOL    HW2 6750   7.644   8.369   2.856 -0.3956  0.0927 -1.2719
 1777SOL     OW 6751   2.321   6.534   7.537  0.2452 -0.0200 -0.3121
 1777SOL    HW1 6752   2.290   6.622   7.516 -1.8234 -0.2589  1.3460
 1777SOL    HW2 6753   2.399   6.548   7.591 -0.0731  0.7897 -0.0520
 1778SOL     OW 6754   3.623   8.924   0.506 -0.0796 -0.3816  0.1404
 1778SOL    HW1 6755   3.616   8.871   0.427 -0.2416 -0.3070  0.1055
 1778SOL    HW2 6756   3.591   9.010   0.480  0.0474 -0.3056  0.2358
 1779SOL     OW 6757   2.887   6.305   1.146 -0.4436 -0.1320 -0.7491
 1779SOL    HW1 6758   2.946   6.263   1.209 -1.5766 -0.0263  0.4424
 1779SOL    HW2 6759   2.827   6.234   1.120 -1.4616  0.3556  0.1618
 1780SOL     OW 6760   2.342   1.657   5.931  0.3018 -0.4372  0.5649
 1780SOL    HW1 6761   2.387   1.659   5.846 -1.0005  2.3596 -0.1581
 1780SOL    HW2 6762   2.408   1.688   5.993  0.3315  0.6197  0.0236
 1781SOL     OW 6763   6.349   2.537   4.186 -0.2976  0.7176 -0.1899
 1781SOL    HW1 6764   6.420   2.594   4.157  0.7489 -1.0115 -1.1510
 1781SOL    HW2 6765   6.307   2.507   4.106  0.3322 -1.2751  0.1790
 1782SOL     OW 6766   6.547   3.899   5.230 -0.1947  0.2459  0.1667
 1782SOL    HW1 6767   6.578   3.809   5.222  0.6220  0.2621  2.4961
 1782SOL    HW2 6768   6.626   3.952   5.224 -0.5987  0.7790 -0.5379
 1783SOL     OW 6769   0.941   1.086   5.126 -0.2425  0.2239 -0.2222
 1783SOL    HW1 6770   0.901   1.173   5.126  1.8722  1.3019 -2.1086
 1783SOL    HW2 6771   0.894   1.038   5.058 -0.6383  0.2771  0.0111
 1784SOL     OW 6772   5.731   8.450   5.741 -0.0978 -0.2241  0.1158
 1784SOL    HW1 6773   5.730   8.512   5.814 -0.3565 -0.3229  0.1992
 1784SOL    HW2 6774   5.778   8.494   5.671  1.2957 -0.6210  0.7736
 1785SOL     OW 6775   8.847   1.806   4.403  0.0625 -0.0533 -0.7820
 1785SOL    HW1 6776   8.921   1.751   4.378 -0.0147 -0.5081 -0.0259
 1785SOL    HW2 6777   8.885   1.873   4.461 -0.3120 -1.0708  0.6822
 1786SOL     OW 6778   0.289   3.729   4.278  0.0629  0.6996 -0.6247
 1786SOL    HW1 6779   0.248   3.754   4.195 -1.5992 -1.6625 -0.6032
 1786SOL    HW2 6780   0.260   3.639   4.293  1.0498  0.7488  2.0967
 1787SOL     OW 6781   7.583   5.088   0.656 -0.3750  0.4129 -0.1049
 1787SOL    HW1 6782   7.565   5.127   0.741  0.9270  0.1517  0.3109
 1787SOL    HW2 6783   7.659   5.135   0.623 -0.4781  0.0840 -0.8393
 1788SOL     OW 6784   3.476   5.305   7.285 -0.4193  0.3305  0.4407
 1788SOL    HW1 6785   3.527   5.225   7.276 -0.3276  0.2505  1.5482
 1788SOL    HW2 6786   3.512   5.364   7.219  0.4312 -0.0746  0.5359
 1789SOL     OW 6787   0.222   6.675   4.137  0.1311  0.2005  0.3130
 1789SOL    HW1 6788   0.248   6.767   4.126 -2.0615  0.6678 -2.0426
 1789SOL    HW2 6789   0.133   6.672   4.103  0.4401 -2.9867 -0.4730
 1790SOL     OW 6790   8.086   7.910   6.715 -0.5393  0.0620  0.1380
 1790SOL    HW1 6791   8.049   7.939   6.631  0.8393  1.1369 -0.1257
 1790SOL    HW2 6792   8.170   7.871   6.692 -0.6722 -0.7075  0.9195
 1791SOL     OW 6793   6.339   4.097   4.329 -0.5420 -0.8934 -0.1347
 1791SOL    HW1 6794   6.363   4.101   4.236 -1.0237 -0.0681 -0.2359
 1791SOL    HW2 6795   6.423   4.087   4.375  0.1071  1.9071 -0.4870
 1792SOL     OW 6796   7.727   7.674   3.833 -0.2414 -0.1910 -0.1051
 1792SOL    HW1 6797   7.745   7.696   3.924 -1.9699 -0.8882  0.4390
 1792SOL    HW2 6798   7.653   7.613   3.837 -0.0346 -0.6116 -1.9451
 1793SOL     OW 6799   3.539   3.839   0.777 -0.1710 -0.2221  0.0052
 1793SOL    HW1 6800   3.530   3.914   0.835 -1.7807  0.0912 -0.6033
 1793SOL    HW2 6801   3.452   3.800   0.775  0.1401 -0.8928 -1.3100
 1794SOL     OW 6802   4.460   1.298   1.862  0.1756 -0.0433 -0.1205
 1794SOL    HW1 6803   4.470   1.387   1.826  0.3944  0.2961  0.7674
 1794SOL    HW2 6804   4.461   1.241   1.785  1.6725  0.5799 -0.5966
 1795SOL     OW 6805   4.639   4.659   4.189 -0.4844  0.2254 -0.6271
 1795SOL    HW1 6806   4.622   4.693   4.101 -1.4011 -0.0539 -0.5641
 1795SOL    HW2 6807   4.696   4.583   4.174 -1.4868 -0.4563 -1.0762
 1796SOL     OW 6808   3.582   0.475   8.173  0.1035  0.6252  0.1165
 1796SOL    HW1 6809   3.539   0.523   8.102  1.7239  1.5461 -0.3226
 1796SOL    HW2 6810   3.513   0.460   8.237 -1.5962 -0.8687 -1.9081
 1797SOL     OW 6811   8.196   0.563   2.238 -0.3224 -0.1177  0.3066
 1797SOL    HW1 6812   8.272   0.569   2.179 -1.2068 -2.2273 -1.1952
 1797SOL    HW2 6813   8.132   0.622   2.201 -0.1294  0.1410  0.3837
 1798SOL     OW 6814   1.008   6.578   0.813 -0.4388 -0.5145 -0.1491
 1798SOL    HW1 6815   0.996   6.625   0.731  2.6325 -0.5991 -0.7836
 1798SOL    HW2 6816   1.052   6.640   0.871 -1.1693 -0.9420  0.8945
 1799SOL     OW 6817   2.316   4.206   6.336  0.4482  0.4259 -0.1561
 1799SOL    HW1 6818   2.402   4.218   6.298  1.0236 -1.5702  0.3509
 1799SOL    HW2 6819   2.257   4.257   6.281  2.1489  3.4136  0.6040
 1800SOL     OW 6820   1.693   7.804   8.295  0.0162  0.1060 -0.4920
 1800SOL    HW1 6821   1.762   7.822   8.232  1.4975 -1.3085  0.6320
 1800SOL    HW2 6822   1.691   7.708   8.303 -2.0355  0.1058 -0.4224
 1801SOL     OW 6823   5.417   6.771   4.789 -0.2932  0.2333  0.0500
 1801SOL    HW1 6824   5.346   6.722   4.829 -0.3313  0.5305  0.3538
 1801SOL    HW2 6825   5.487   6.772   4.854  0.3168 -0.7660 -0.5675
 1802SOL     OW 6826   0.179   4.184   5.626  0.3473 -0.0953  0.0515
 1802SOL    HW1 6827   0.143   4.100   5.651  2.8646 -0.7399  1.9495
 1802SOL    HW2 6828   0.227   4.167   5.544  0.8806 -0.5334  0.4520
 1803SOL     OW 6829   5.542   3.122   6.042  0.2879 -0.2200  0.1586
 1803SOL    HW1 6830   5.472   3.099   5.981  0.3348  1.1309 -0.4403
 1803SOL    HW2 6831   5.496   3.158   6.118  0.1596 -2.9988  1.5118
 1804SOL     OW 6832   8.154   0.376   3.021 -0.3254  0.9460 -0.4083
 1804SOL    HW1 6833   8.163   0.375   2.925  1.9294  0.7988 -0.2342
 1804SOL    HW2 6834   8.069   0.418   3.036 -0.4585  1.5262 -2.4447
 1805SOL     OW 6835   7.767   6.975   8.781  0.2183 -0.0067 -0.1479
 1805SOL    HW1 6836   7.694   6.993   8.840 -0.1469 -1.5998 -0.0596
 1805SOL    HW2 6837   7.841   6.959   8.839  0.3454  0.4171 -0.1945
 1806SOL     OW 6838   4.078   7.466   2.013 -0.0475  0.3837 -0.0546
 1806SOL    HW1 6839   4.158   7.503   2.051 -0.8694 -0.0996  2.3503
 1806SOL    HW2 6840   4.022   7.447   2.089 -1.7057 -1.0103 -1.5256
 1807SOL     OW 6841   1.014   9.189   6.622  0.2581  0.4031 -0.4651
 1807SOL    HW1 6842   1.030   9.159   6.711  0.4399  0.1113 -0.5973
 1807SOL    HW2 6843   0.919   9.179   6.609  0.4198 -0.8285 -0.7691
 1808SOL     OW 6844   8.462   3.133   2.158  0.1308  0.3682 -0.0437
 1808SOL    HW1 6845   8.490   3.118   2.067  1.6224 -1.1132  0.5947
 1808SOL    HW2 6846   8.526   3.195   2.193 -0.0321  0.4105  0.1808
 1809SOL     OW 6847   7.986   7.697   6.811 -0.4975  0.2907  0.3672
 1809SOL    HW1 6848   8.003   7.630   6.745 -1.9527 -0.6384  0.8986
 1809SOL    HW2 6849   8.016   7.779   6.770  0.3478 -0.5190 -0.6903
 1810SOL     OW 6850   4.443   5.938   2.370 -0.0588  0.0791  0.6747
 1810SOL    HW1 6851   4.535   5.960   2.361  0.0855 -1.3380 -3.1411
 1810SOL    HW2 6852   4.444   5.849   2.405 -0.0183  0.3167  1.2837
 1811SOL     OW 6853   8.950   7.488   4.029  0.0454 -0.3029  0.1633
 1811SOL    HW1 6854   8.928   7.403   4.067  0.6275 -0.0555  1.0787
 1811SOL    HW2 6855   8.937   7.476   3.935 -0.3747 -1.2514  0.3317
 1812SOL     OW 6856   4.617   2.004   2.533  0.1139  0.1779  0.2799
 1812SOL    HW1 6857   4.635   2.010   2.627  0.1636  1.9000  0.1897
 1812SOL    HW2 6858   4.695   1.960   2.497 -0.3331 -1.3807  1.1366
 1813SOL     OW 6859   0.655   1.862   2.159  0.6883  0.0706 -0.4316
 1813SOL    HW1 6860   0.673   1.938   2.215 -2.3427  1.6608 -1.4021
 1813SOL    HW2 6861   0.672   1.893   2.070  2.6172 -1.5155 -0.6799
 1814SOL     OW 6862   2.365   3.333   5.810 -0.6942 -0.0144 -0.2453
 1814SOL    HW1 6863   2.287   3.374   5.849 -1.6952 -2.1635  0.1447
 1814SOL    HW2 6864   2.425   3.406   5.794 -1.8059  1.4246  1.7287
 1815SOL     OW 6865   4.275   4.574   5.678  0.0725  0.1230 -0.2447
 1815SOL    HW1 6866   4.246   4.642   5.739 -2.5968 -0.3252 -0.8740
 1815SOL    HW2 6867   4.255   4.491   5.722  3.0823 -0.3661  0.4223
 1816SOL     OW 6868   7.455   0.299   4.366  0.5076 -0.1764 -0.3567
 1816SOL    HW1 6869   7.425   0.325   4.453  0.9514  0.2675 -0.3289
 1816SOL    HW2 6870   7.386   0.242   4.333  0.1683 -0.0664  0.1438
 1817SOL     OW 6871   7.022   8.894   4.467  0.1269 -0.1696 -0.1135
 1817SOL    HW1 6872   7.034   8.988   4.457 -1.0186  0.0305  0.2286
 1817SOL    HW2 6873   7.006   8.862   4.378 -0.7862  0.1740 -0.0833
 1818SOL     OW 6874   1.554   1.051   2.629  0.0463 -0.1337  0.2044
 1818SOL    HW1 6875   1.494   0.999   2.575  1.5330 -0.2256 -1.4437
 1818SOL    HW2 6876   1.605   0.986   2.677 -1.1410 -0.0554  1.6251
 1819SOL     OW 6877   5.255   2.872   1.064  0.2244  0.5833  0.0778
 1819SOL    HW1 6878   5.292   2.907   1.145  0.8341  2.0745 -0.7972
 1819SOL    HW2 6879   5.161   2.889   1.072  0.1904  0.1096  0.7556
 1820SOL     OW 6880   7.219   8.651   6.390 -0.2832 -0.2826  0.6911
 1820SOL    HW1 6881   7.263   8.591   6.329 -1.9037 -0.0992 -0.7341
 1820SOL    HW2 6882   7.224   8.736   6.346 -0.2176  0.1473  1.5167
 1821SOL     OW 6883   1.109   3.404   6.749  0.0248  0.1240  0.1057
 1821SOL    HW1 6884   1.115   3.487   6.703 -3.0046  0.7810  0.6417
 1821SOL    HW2 6885   1.089   3.428   6.840  0.3798 -1.1799  0.5619
 1822SOL     OW 6886   0.289   8.070   1.886 -0.1217  0.3340  0.1021
 1822SOL    HW1 6887   0.382   8.048   1.883 -0.3966 -1.1435  1.2519
 1822SOL    HW2 6888   0.245   7.995   1.844 -0.7909  1.1716 -0.7509
 1823SOL     OW 6889   0.474   8.336   6.215 -0.0645 -0.3730 -0.7156
 1823SOL    HW1 6890   0.380   8.340   6.199  0.2466  1.7300 -2.6683
 1823SOL    HW2 6891   0.512   8.316   6.129  1.3120 -0.1742 -0.1821
 1824SOL     OW 6892   5.612   0.342   3.292  0.1693 -0.2695  0.8250
 1824SOL    HW1 6893   5.571   0.265   3.330 -2.1049  0.5333  0.1963
 1824SOL    HW2 6894   5.665   0.308   3.220  0.3717 -1.3453  1.4651
 1825SOL     OW 6895   3.835   6.738   6.057 -0.1148  0.3352 -0.3361
 1825SOL    HW1 6896   3.904   6.776   6.111 -1.4160 -1.3260  2.8062
 1825SOL    HW2 6897   3.880   6.671   6.005  1.0940  1.4856 -0.8258
 1826SOL     OW 6898   3.927   7.543   0.337 -0.2289  0.0920  0.4601
 1826SOL    HW1 6899   4.003   7.600   0.352 -0.4720  0.2552  1.0861
 1826SOL    HW2 6900   3.946   7.465   0.389 -0.1233 -0.2036 -0.0143
 1827SOL     OW 6901   3.363   1.190   4.774 -0.2595  0.3588  0.2190
 1827SOL    HW1 6902   3.268   1.185   4.774 -0.3588  1.7899  0.2074
 1827SOL    HW2 6903   3.382   1.283   4.762  1.1552 -0.0718 -1.2916
 1828SOL     OW 6904   4.685   5.428   0.759  0.4460 -0.7379  0.0720
 1828SOL    HW1 6905   4.710   5.335   0.761 -0.2298 -0.9131  0.5042
 1828SOL    HW2 6906   4.702   5.459   0.848 -2.1168 -1.2064  0.8068
 1829SOL     OW 6907   4.850   6.960   5.818  0.1254 -0.1709  0.1255
 1829SOL    HW1 6908   4.937   6.999   5.828 -0.2189  1.7774 -3.1877
 1829SOL    HW2 6909   4.867   6.874   5.779  0.5924 -0.3759  0.7588
 1830SOL     OW 6910   0.277   8.857   2.908 -0.1867 -0.0734 -0.4142
 1830SOL    HW1 6911   0.304   8.847   2.999  0.5918 -1.6836 -0.7767
 1830SOL    HW2 6912   0.336   8.798   2.859 -1.3482 -0.1395 -1.8053
 1831SOL     OW 6913   1.747   6.752   5.798  0.2264 -0.0901 -0.0310
 1831SOL    HW1 6914   1.770   6.684   5.862  0.5297  0.8490  0.8781
 1831SOL    HW2 6915   1.743   6.833   5.849 -1.5517  0.3770 -0.8149
 1832SOL     OW 6916   7.207   4.000   3.657 -0.7583 -0.0102 -0.1206
 1832SOL    HW1 6917   7.184   3.907   3.665 -0.8302 -0.0381 -0.6199
 1832SOL    HW2 6918   7.166   4.041   3.734 -0.4110 -0.4460  0.3063
 1833SOL     OW 6919   8.242   0.019   3.298  0.1209  0.0899  0.3020
 1833SOL    HW1 6920   8.148   0.001   3.290 -0.1954  1.3487  0.9310
 1833SOL    HW2 6921   8.259   0.012   3.392  0.8717 -1.0598  0.0972
 1834SOL     OW 6922   8.449   9.184   3.164 -0.5890 -0.1071 -0.2209
 1834SOL    HW1 6923   8.517   9.241   3.199 -0.7353  0.0464 -0.1812
 1834SOL    HW2 6924   8.368   9.219   3.201 -0.6565 -0.5089  0.0262
 1835SOL     OW 6925   2.329   0.702   0.512  0.5346  0.0638 -0.3649
 1835SOL    HW1 6926   2.392   0.716   0.582  0.1068 -1.0836  0.2751
 1835SOL    HW2 6927   2.267   0.774   0.520  1.1143  0.5517 -0.2657
 1836SOL     OW 6928   6.616   7.910   4.351  0.2436  0.2934 -0.3161
 1836SOL    HW1 6929   6.574   7.910   4.264 -0.2214  1.3129 -0.0995
 1836SOL    HW2 6930   6.706   7.936   4.334  0.1071  0.6691 -0.4780
 1837SOL     OW 6931   2.616   8.116   3.529 -0.0798 -0.6279  0.0931
 1837SOL    HW1 6932   2.674   8.098   3.603  1.6526 -0.1251 -1.0557
 1837SOL    HW2 6933   2.628   8.041   3.471 -2.0270 -1.4040  0.6205
 1838SOL     OW 6934   0.588   3.839   3.784  0.1978  0.4338  0.3511
 1838SOL    HW1 6935   0.640   3.782   3.726 -0.3792 -1.9919  2.0520
 1838SOL    HW2 6936   0.633   3.837   3.868 -0.9478  0.8278  1.0067
 1839SOL     OW 6937   0.089   2.021   6.877 -0.2043 -0.4634 -0.7074
 1839SOL    HW1 6938   0.059   2.018   6.967  0.3363  0.4026 -0.4919
 1839SOL    HW2 6939   0.027   1.965   6.829 -0.0095 -1.6214  0.3267
 1840SOL     OW 6940   2.109   2.030   3.482 -0.0103  0.4544  0.0041
 1840SOL    HW1 6941   2.021   2.002   3.457  0.6211 -0.7373 -1.0836
 1840SOL    HW2 6942   2.096   2.093   3.552 -1.7385  0.6037 -0.3995
 1841SOL     OW 6943   7.627   3.122   1.801 -0.0479 -0.0634  0.0451
 1841SOL    HW1 6944   7.538   3.123   1.837 -1.1983  0.4112 -2.5252
 1841SOL    HW2 6945   7.639   3.033   1.768 -0.1189  0.2139 -0.7632
 1842SOL     OW 6946   4.335   0.862   1.764  0.1235  1.1282  0.3401
 1842SOL    HW1 6947   4.381   0.878   1.681 -2.1750 -0.0036 -1.2657
 1842SOL    HW2 6948   4.260   0.921   1.761 -0.1046  0.9294  1.5644
 1843SOL     OW 6949   8.405   2.643   0.157  0.5781 -0.5403  0.5818
 1843SOL    HW1 6950   8.380   2.733   0.137  0.9567  0.0315  2.4786
 1843SOL    HW2 6951   8.462   2.618   0.085  0.1498  0.5973 -0.1836
 1844SOL     OW 6952   4.623   3.338   4.018  0.5149 -0.2682 -0.0864
 1844SOL    HW1 6953   4.557   3.318   4.084  1.7520  0.4379  1.4391
 1844SOL    HW2 6954   4.646   3.254   3.980  1.4468 -1.0803  2.0854
 1845SOL     OW 6955   1.743   4.157   5.250 -0.2367  0.2729 -0.1174
 1845SOL    HW1 6956   1.835   4.152   5.278 -0.0161 -0.9021 -0.9749
 1845SOL    HW2 6957   1.747   4.162   5.155 -1.0214  2.5253 -0.0847
 1846SOL     OW 6958   3.857   3.646   0.428 -0.0320  0.3268  0.2474
 1846SOL    HW1 6959   3.817   3.675   0.510 -0.5873  1.4022 -0.3902
 1846SOL    HW2 6960   3.936   3.599   0.456 -0.6522 -0.0637  1.4278
 1847SOL     OW 6961   3.424   6.419   1.690  0.3902 -0.0731  0.1871
 1847SOL    HW1 6962   3.494   6.441   1.628  0.2656  0.1134  0.1118
 1847SOL    HW2 6963   3.468   6.370   1.759  0.5784 -0.0486  0.0857
 1848SOL     OW 6964   9.225   1.929   3.648  0.1134 -0.3705 -0.6930
 1848SOL    HW1 6965   9.195   1.867   3.582 -2.5093 -0.0461  0.0831
 1848SOL    HW2 6966   9.293   1.882   3.697 -2.2206 -3.0055  0.3127
 1849SOL     OW 6967   0.233   8.608   7.625  0.2480 -0.0381  0.0021
 1849SOL    HW1 6968   0.321   8.587   7.655  1.1035  2.3676 -0.6267
 1849SOL    HW2 6969   0.227   8.565   7.539  0.6232 -0.5609  0.2252
 1850SOL     OW 6970   4.139   5.213   3.418 -0.2926  0.6189 -0.1067
 1850SOL    HW1 6971   4.066   5.262   3.456  0.4436  0.3114  1.8291
 1850SOL    HW2 6972   4.133   5.126   3.457  0.1446  0.0663 -1.2264
 1851SOL     OW 6973   8.705   6.120   5.540  0.7038 -0.4132  0.1001
 1851SOL    HW1 6974   8.635   6.077   5.491 -0.6530 -0.2350  1.7784
 1851SOL    HW2 6975   8.750   6.048   5.585 -0.4998 -0.3224  1.5632
 1852SOL     OW 6976   1.293   8.404   3.180  0.4609  0.2069 -0.2705
 1852SOL    HW1 6977   1.217   8.376   3.128 -0.4480 -0.6546  1.4329
 1852SOL    HW2 6978   1.324   8.324   3.222  2.0558  0.6409 -0.5510
 1853SOL     OW 6979   0.873   7.578   0.244 -0.1260 -0.5335  0.0910
 1853SOL    HW1 6980   0.937   7.508   0.257 -0.6317 -1.0047  0.0981
 1853SOL    HW2 6981   0.892   7.612   0.157  0.2405 -0.5562  0.1592
 1854SOL     OW 6982   3.305   7.228   3.587 -0.1146 -0.3697  0.2432
 1854SOL    HW1 6983   3.346   7.194   3.666  2.0755 -0.1644 -0.7256
 1854SOL    HW2 6984   3.272   7.315   3.611 -0.5265 -0.7866  1.2101
 1855SOL     OW 6985   7.996   3.375   8.085  0.5817 -0.0328 -0.1103
 1855SOL    HW1 6986   8.038   3.313   8.145 -1.1854 -0.9120  0.2720
 1855SOL    HW2 6987   8.005   3.334   7.998 -1.6983 -1.5771  0.2833
 1856SOL     OW 6988   7.350   8.487   4.279 -0.1736 -0.0265  0.0227
 1856SOL    HW1 6989   7.276   8.545   4.262 -0.2148 -0.3673 -1.0597
 1856SOL    HW2 6990   7.329   8.406   4.232  0.3990 -0.5118  0.5822
 1857SOL     OW 6991   8.591   3.705   3.683  0.7282 -0.3958  0.0928
 1857SOL    HW1 6992   8.502   3.736   3.666  0.3593 -1.1690  0.5467
 1857SOL    HW2 6993   8.646   3.754   3.622 -0.0290 -0.0326 -0.3080
 1858SOL     OW 6994   7.915   3.248   9.175 -0.6003  0.2436 -0.3682
 1858SOL    HW1 6995   7.998   3.277   9.136  0.1064 -2.2556 -0.8911
 1858SOL    HW2 6996   7.905   3.158   9.146 -1.5420 -0.8204  2.8175
 1859SOL     OW 6997   4.138   1.005   4.797 -0.0430  0.4699  0.3454
 1859SOL    HW1 6998   4.138   1.099   4.816 -0.1655  0.3960  0.7189
 1859SOL    HW2 6999   4.215   0.971   4.844  1.5151  0.7708 -1.8148
 1860SOL     OW 7000   7.041   6.022   1.791 -0.3969  0.2297 -0.2401
 1860SOL    HW1 7001   6.983   5.972   1.848 -0.1737 -0.0013 -0.2127
 1860SOL    HW2 7002   7.005   6.011   1.703 -0.4193  0.1218 -0.2173
 1861SOL     OW 7003   1.466   8.180   2.525 -0.1296 -0.9148  0.0160
 1861SOL    HW1 7004   1.550   8.216   2.553 -0.4508 -0.4271  0.3514
 1861SOL    HW2 7005   1.402   8.249   2.543 -0.6635 -1.4304  0.1281
 1862SOL     OW 7006   7.300   7.373   4.320 -0.9496  0.3167 -0.2720
 1862SOL    HW1 7007   7.268   7.426   4.393 -0.4460  1.0091 -0.5474
 1862SOL    HW2 7008   7.293   7.283   4.351 -0.1657  0.6352  0.8723
 1863SOL     OW 7009   5.323   6.191   8.339  0.1200  0.0668 -0.1179
 1863SOL    HW1 7010   5.363   6.146   8.414  0.7590  0.0163 -0.4812
 1863SOL    HW2 7011   5.286   6.271   8.376 -1.7514 -1.1098  0.6983
 1864SOL     OW 7012   4.884   1.711   1.356  0.2823  0.1689 -0.4481
 1864SOL    HW1 7013   4.961   1.759   1.388 -0.1829  0.4609  0.2396
 1864SOL    HW2 7014   4.851   1.765   1.284 -0.5566  1.1826  0.6670
 1865SOL     OW 7015   4.836   3.996   2.674 -0.1123 -0.1044 -0.0101
 1865SOL    HW1 7016   4.922   3.968   2.643 -0.2266 -0.7520  0.2383
 1865SOL    HW2 7017   4.846   4.089   2.694  0.4880 -0.1434 -0.1319
 1866SOL     OW 7018   0.207   8.326   8.641 -0.0971  0.2058 -0.2644
 1866SOL    HW1 7019   0.185   8.413   8.673 -1.3442 -0.0696 -0.3256
 1866SOL    HW2 7020   0.136   8.270   8.673 -0.6730 -0.3228 -2.3383
 1867SOL     OW 7021   6.701   0.324   7.308 -0.2835 -0.1426 -0.3594
 1867SOL    HW1 7022   6.624   0.299   7.256 -0.4780 -1.9678  0.7533
 1867SOL    HW2 7023   6.672   0.400   7.359 -0.5352  0.7532 -1.7494
 1868SOL     OW 7024   8.358   8.602   7.220  0.2456  0.0772 -0.1340
 1868SOL    HW1 7025   8.383   8.558   7.139  0.6083  1.4674 -0.8000
 1868SOL    HW2 7026   8.295   8.668   7.193 -0.6754 -0.3409  0.9186
 1869SOL     OW 7027   4.668   8.253   2.129  0.0583 -0.1594 -0.0487
 1869SOL    HW1 7028   4.733   8.322   2.123  0.9446 -0.9817 -0.1574
 1869SOL    HW2 7029   4.654   8.241   2.224 -0.8688  0.8502 -0.0392
 1870SOL     OW 7030   7.588   5.098   5.382  0.7447 -0.1037 -0.4155
 1870SOL    HW1 7031   7.519   5.129   5.442  1.2248  0.2658 -0.0472
 1870SOL    HW2 7032   7.609   5.010   5.414 -1.1373 -1.1897 -1.9029
 1871SOL     OW 7033   5.872   3.770   8.013 -0.1549  0.0644 -0.0140
 1871SOL    HW1 7034   5.849   3.861   7.999  0.2403  0.1412 -0.1849
 1871SOL    HW2 7035   5.889   3.735   7.926 -0.7335 -0.2907  0.0139
 1872SOL     OW 7036   9.277   8.791   3.064  0.0013  0.4120 -0.0687
 1872SOL    HW1 7037   9.335   8.833   3.128 -0.4543 -0.2676  0.8232
 1872SOL    HW2 7038   9.322   8.710   3.040  0.1094  0.6030 -0.5263
 1873SOL     OW 7039   8.598   0.545   1.833  0.8956 -0.1809  0.4283
 1873SOL    HW1 7040   8.553   0.464   1.809 -0.8491  0.7188  0.5303
 1873SOL    HW2 7041   8.633   0.529   1.921 -1.0955 -0.2116  1.2622
 1874SOL     OW 7042   2.871   5.259   0.867  0.1191 -0.1025  0.5492
 1874SOL    HW1 7043   2.795   5.281   0.921 -0.3725  0.2774 -0.2721
 1874SOL    HW2 7044   2.946   5.294   0.914 -0.4662  1.8014  0.1349
 1875SOL     OW 7045   2.940   9.085   4.492 -0.1748 -0.3749 -0.1459
 1875SOL    HW1 7046   3.015   9.030   4.469 -0.1423 -0.4856  0.2205
 1875SOL    HW2 7047   2.960   9.116   4.580  0.4031  1.2411 -0.8091
 1876SOL     OW 7048   4.010   4.185   7.151 -0.2513 -0.0124  0.2009
 1876SOL    HW1 7049   4.096   4.219   7.177 -0.0414  1.2123 -1.9263
 1876SOL    HW2 7050   4.029   4.125   7.079 -1.3105  2.3782 -2.2203
 1877SOL     OW 7051   6.245   1.542   6.032  0.1898  0.7573  0.5185
 1877SOL    HW1 7052   6.330   1.510   6.063 -0.2783  0.1573  1.2269
 1877SOL    HW2 7053   6.218   1.476   5.968 -0.4665  0.0464  1.4864
 1878SOL     OW 7054   5.516   7.454   0.376  0.3416 -0.3672 -0.6341
 1878SOL    HW1 7055   5.448   7.496   0.323 -1.0994 -2.2438 -0.3736
 1878SOL    HW2 7056   5.539   7.375   0.327 -0.8231 -2.0090  1.2873
 1879SOL     OW 7057   0.685   6.353   5.372 -0.3524  0.6715  0.1157
 1879SOL    HW1 7058   0.667   6.446   5.359  0.3417  0.7573 -0.2718
 1879SOL    HW2 7059   0.651   6.334   5.460 -0.6269  1.2529  0.1406
 1880SOL     OW 7060   5.872   7.991   4.779  0.4140  0.5321 -0.0329
 1880SOL    HW1 7061   5.822   8.025   4.705  1.8183  1.9329 -0.3915
 1880SOL    HW2 7062   5.931   7.926   4.740 -0.4297 -0.4044  0.2335
 1881SOL     OW 7063   5.817   2.272   2.244 -0.6775  0.0208 -0.2175
 1881SOL    HW1 7064   5.724   2.285   2.263 -0.2284  1.1220  1.4424
 1881SOL    HW2 7065   5.846   2.207   2.308  0.3799  2.1516  1.6103
 1882SOL     OW 7066   8.370   9.088   4.586  0.2230 -0.2095 -0.1803
 1882SOL    HW1 7067   8.311   9.160   4.607  0.1743 -0.7995  1.9270
 1882SOL    HW2 7068   8.404   9.109   4.499 -1.5970  1.1202 -0.6242
 1883SOL     OW 7069   5.019   3.171   3.916 -0.1883 -0.5284  0.3853
 1883SOL    HW1 7070   5.106   3.137   3.938 -0.3610  0.0165  2.0259
 1883SOL    HW2 7071   5.026   3.198   3.824  1.5211 -0.0146  0.6441
 1884SOL     OW 7072   0.866   2.102   2.089 -0.2243 -0.6209 -0.2843
 1884SOL    HW1 7073   0.825   2.099   2.176  1.1373 -0.8496  0.3683
 1884SOL    HW2 7074   0.926   2.028   2.088 -0.0043 -0.4476 -1.3298
 1885SOL     OW 7075   2.323   5.232   8.588  0.1766  0.1562  0.0960
 1885SOL    HW1 7076   2.356   5.184   8.513  0.6434  0.1094  0.3274
 1885SOL    HW2 7077   2.354   5.321   8.576 -0.9012  0.4785 -0.4630
 1886SOL     OW 7078   5.258   1.141   6.049  0.3966  0.4250 -0.1482
 1886SOL    HW1 7079   5.316   1.210   6.017  1.1760 -0.7009 -1.2473
 1886SOL    HW2 7080   5.190   1.134   5.983  1.4436 -1.2084 -1.1156
 1887SOL     OW 7081   8.897   5.077   0.473 -0.5809  0.6627  0.3923
 1887SOL    HW1 7082   8.871   5.164   0.443 -3.7381  0.0238  0.8970
 1887SOL    HW2 7083   8.892   5.081   0.568  0.8286  0.3224  0.5006
 1888SOL     OW 7084   6.664   2.637   4.235  0.0075 -0.5036 -0.2239
 1888SOL    HW1 7085   6.694   2.701   4.300  0.5218 -1.0088  0.0475
 1888SOL    HW2 7086   6.622   2.689   4.167  1.8873  0.3011 -0.8422
 1889SOL     OW 7087   4.380   0.654   2.697  0.0003  0.1234 -0.6198
 1889SOL    HW1 7088   4.370   0.649   2.602  2.1213  0.6624 -0.9283
 1889SOL    HW2 7089   4.475   0.654   2.711 -0.2628 -0.2712  1.5289
 1890SOL     OW 7090   7.010   2.808   1.787 -0.0110  0.0014 -0.3345
 1890SOL    HW1 7091   6.957   2.858   1.724 -1.4868  0.1372  0.9432
 1890SOL    HW2 7092   7.079   2.769   1.734 -0.2310  1.4221 -1.7771
 1891SOL     OW 7093   8.583   1.629   0.191  0.0147 -0.2314 -0.0029
 1891SOL    HW1 7094   8.599   1.709   0.141 -0.1269 -0.8400 -1.0685
 1891SOL    HW2 7095   8.665   1.612   0.237  0.2417  0.2038 -0.2467
 1892SOL     OW 7096   1.845   3.988   1.060 -0.0043  0.0470  0.3470
 1892SOL    HW1 7097   1.758   3.949   1.064 -0.1607 -0.5334 -4.1001
 1892SOL    HW2 7098   1.905   3.914   1.060  0.2445  0.2435  0.0951
 1893SOL     OW 7099   1.449   7.000   4.680  0.5964 -0.1216 -0.5887
 1893SOL    HW1 7100   1.420   6.949   4.605  1.2945 -0.0398 -0.9266
 1893SOL    HW2 7101   1.414   6.954   4.756 -2.0568  1.0443 -1.0240
 1894SOL     OW 7102   3.542   0.294   8.638 -0.1918 -0.7835 -0.2425
 1894SOL    HW1 7103   3.531   0.218   8.695  1.0069 -0.6234  0.2255
 1894SOL    HW2 7104   3.530   0.369   8.695  0.4052 -0.6255 -0.3161
 1895SOL     OW 7105   0.938   9.204   2.035 -0.2900  0.8470 -0.5929
 1895SOL    HW1 7106   1.009   9.242   2.087  1.1699 -2.4879  0.1380
 1895SOL    HW2 7107   0.977   9.126   1.995 -3.1130 -0.1988 -1.5363
 1896SOL     OW 7108   2.632   5.059   0.837  0.1980  0.2788 -0.0075
 1896SOL    HW1 7109   2.700   5.062   0.905  1.7254 -0.8324 -1.4017
 1896SOL    HW2 7110   2.675   5.016   0.763 -2.3051 -1.2712 -0.6724
 1897SOL     OW 7111   1.005   2.738   5.718 -0.0700  0.4961 -0.0185
 1897SOL    HW1 7112   0.987   2.772   5.631 -0.5501 -1.8726 -0.9270
 1897SOL    HW2 7113   0.919   2.731   5.760  0.0851  0.9238  0.3823
 1898SOL     OW 7114   8.023   6.760   4.584  0.5409 -0.5023  0.1101
 1898SOL    HW1 7115   8.033   6.853   4.565 -0.4628  0.0486  2.0199
 1898SOL    HW2 7116   8.014   6.718   4.499 -3.2619  1.6895 -0.7514
 1899SOL     OW 7117   1.870   5.056   4.830 -0.2634  0.4242  0.2099
 1899SOL    HW1 7118   1.890   5.148   4.848  1.5799  0.2671 -0.7527
 1899SOL    HW2 7119   1.851   5.053   4.737 -1.2344 -0.0398  0.4126
 1900SOL     OW 7120   1.210   2.411   7.186  0.0371 -0.1825 -0.1320
 1900SOL    HW1 7121   1.204   2.350   7.260 -0.8468  0.1196  0.0617
 1900SOL    HW2 7122   1.172   2.493   7.220  2.0489  0.7760 -0.0851
 1901SOL     OW 7123   6.971   6.766   8.391  0.2453  0.1879 -0.4611
 1901SOL    HW1 7124   6.914   6.766   8.314  0.0029  3.1437 -0.3812
 1901SOL    HW2 7125   7.058   6.787   8.357  0.3171  0.5678 -0.0614
 1902SOL     OW 7126   5.733   0.071   3.926 -0.1192 -0.2277 -0.2919
 1902SOL    HW1 7127   5.703   0.002   3.867 -0.5209 -0.9892  0.7559
 1902SOL    HW2 7128   5.654   0.096   3.975  0.4555 -0.5906  0.8566
 1903SOL     OW 7129   7.386   5.149   4.050 -0.6286  0.1951  0.0395
 1903SOL    HW1 7130   7.386   5.080   3.984 -0.9741 -0.2933  0.5487
 1903SOL    HW2 7131   7.327   5.216   4.015 -0.6790  0.0156 -0.2210
 1904SOL     OW 7132   3.535   6.603   3.141 -0.1469 -0.0712  0.3525
 1904SOL    HW1 7133   3.458   6.547   3.150 -0.2302  0.2920  2.3682
 1904SOL    HW2 7134   3.505   6.691   3.165  0.7818  0.1408  0.8121
 1905SOL     OW 7135   4.345   1.673   1.993 -0.1724 -0.3704  0.0267
 1905SOL    HW1 7136   4.431   1.635   1.976 -0.4103 -1.3982  1.0515
 1905SOL    HW2 7137   4.360   1.739   2.060 -0.3539 -1.4856  1.2097
 1906SOL     OW 7138   4.623   3.074   2.953 -0.9379 -0.5037  0.1841
 1906SOL    HW1 7139   4.671   3.101   2.875 -0.6799 -0.2205  0.4385
 1906SOL    HW2 7140   4.619   2.979   2.947  1.4553 -0.7384  1.1797
 1907SOL     OW 7141   4.708   5.893   1.711 -0.4864 -0.0091  0.0433
 1907SOL    HW1 7142   4.698   5.943   1.631 -0.0482 -2.2892 -1.5362
 1907SOL    HW2 7143   4.620   5.860   1.730 -0.3455 -0.5787 -0.2822
 1908SOL     OW 7144   5.455   1.744   3.568 -0.2799  0.2510 -0.4813
 1908SOL    HW1 7145   5.519   1.758   3.637  0.0658 -0.3754 -0.6719
 1908SOL    HW2 7146   5.457   1.650   3.551 -1.8984  0.0832  0.1231
 1909SOL     OW 7147   5.061   8.176   8.833 -0.1517 -0.6987 -0.3143
 1909SOL    HW1 7148   4.974   8.140   8.848  0.0001 -0.4944  1.1247
 1909SOL    HW2 7149   5.120   8.118   8.881  0.3196  0.1901  0.1958
 1910SOL     OW 7150   0.597   2.702   1.954  0.0780 -0.7376 -0.2818
 1910SOL    HW1 7151   0.562   2.766   1.892 -1.1514  1.1449  2.1909
 1910SOL    HW2 7152   0.690   2.723   1.960  0.0571 -0.4492 -0.9202
 1911SOL     OW 7153   7.015   1.838   1.362  0.2366  0.1933 -0.1076
 1911SOL    HW1 7154   7.062   1.874   1.287 -0.5909  1.4206 -0.0588
 1911SOL    HW2 7155   7.054   1.880   1.439 -0.7916  1.1075 -0.0558
 1912SOL     OW 7156   9.168   3.826   1.556  0.1759  0.0955 -0.0423
 1912SOL    HW1 7157   9.120   3.744   1.572 -1.1491  0.8541  0.0267
 1912SOL    HW2 7158   9.198   3.819   1.465  0.9628 -0.9016  0.2882
 1913SOL     OW 7159   5.154   7.351   6.529 -0.2745 -0.4345 -0.2514
 1913SOL    HW1 7160   5.165   7.278   6.590 -0.2380  0.3414  0.7031
 1913SOL    HW2 7161   5.222   7.413   6.554 -0.3397 -0.0429 -1.0133
 1914SOL     OW 7162   1.515   5.806   8.462  0.3860 -0.0974 -0.3368
 1914SOL    HW1 7163   1.461   5.856   8.401 -0.9329 -0.9034  0.1195
 1914SOL    HW2 7164   1.596   5.856   8.468  0.0405  0.6952 -1.7182
 1915SOL     OW 7165   7.797   7.232   2.637  0.0654  0.0929 -0.0627
 1915SOL    HW1 7166   7.763   7.142   2.631 -0.0420 -0.2418  3.3248
 1915SOL    HW2 7167   7.719   7.286   2.653  0.2926  0.5807 -0.5705
 1916SOL     OW 7168   1.285   0.574   4.591  0.4918  0.0555  0.1628
 1916SOL    HW1 7169   1.294   0.665   4.564  1.6928 -0.1334 -0.1452
 1916SOL    HW2 7170   1.362   0.558   4.646  0.9319 -1.0967 -0.7473
 1917SOL     OW 7171   0.028   4.568   5.755 -0.4362  0.1357  0.5832
 1917SOL    HW1 7172   0.096   4.633   5.776  1.4005 -1.4004 -0.2626
 1917SOL    HW2 7173   0.070   4.511   5.690 -2.8037 -0.5131 -0.4602
 1918SOL     OW 7174   6.854   6.313   0.459  0.2002 -0.5463 -0.2703
 1918SOL    HW1 7175   6.908   6.258   0.516  0.4393 -0.4053 -0.3610
 1918SOL    HW2 7176   6.858   6.400   0.498 -0.8358 -0.7543  0.3334
 1919SOL     OW 7177   2.774   4.562   8.453 -0.7773 -0.3278 -0.1897
 1919SOL    HW1 7178   2.784   4.567   8.358  0.1677 -1.5024 -0.1800
 1919SOL    HW2 7179   2.760   4.469   8.470  1.2266 -0.4743  0.9743
 1920SOL     OW 7180   6.267   0.893   5.312 -0.4796 -0.0974 -0.0639
 1920SOL    HW1 7181   6.271   0.918   5.404 -0.2545  0.4497 -0.2189
 1920SOL    HW2 7182   6.313   0.963   5.266  0.0169 -0.7121 -0.5228
 1921SOL     OW 7183   0.921   4.020   1.470 -0.0397  0.4704  0.0976
 1921SOL    HW1 7184   0.876   4.097   1.504  0.1221  0.0922  1.2126
 1921SOL    HW2 7185   0.850   3.962   1.441 -0.3199 -0.1590  1.9246
 1922SOL     OW 7186   3.639   5.725   1.217  0.3787  0.4317  0.4198
 1922SOL    HW1 7187   3.595   5.762   1.294  0.5207  0.8420  0.3048
 1922SOL    HW2 7188   3.587   5.756   1.143 -0.5031 -0.9836  0.4048
 1923SOL     OW 7189   6.365   3.754   6.199 -0.2838  0.0318  0.6488
 1923SOL    HW1 7190   6.445   3.763   6.251  0.3026 -2.0486  0.1672
 1923SOL    HW2 7191   6.372   3.668   6.158 -2.4144  0.1338 -0.0386
 1924SOL     OW 7192   4.385   4.338   0.177 -0.5265 -0.0403 -0.2449
 1924SOL    HW1 7193   4.320   4.372   0.115 -1.5925  0.8994  1.2869
 1924SOL    HW2 7194   4.436   4.275   0.127 -2.9053 -1.1622 -1.4366
 1925SOL     OW 7195   0.018   0.077   6.521 -0.5288  0.3484  0.0739
 1925SOL    HW1 7196   0.095   0.133   6.515 -0.7716  0.5352 -1.6809
 1925SOL    HW2 7197   0.053  -0.011   6.536 -0.0182  0.5674  0.1555
 1926SOL     OW 7198   6.630   2.950   3.880 -0.3929  0.4065 -0.1164
 1926SOL    HW1 7199   6.631   2.997   3.796  0.6161  0.9056  0.1603
 1926SOL    HW2 7200   6.683   2.872   3.863 -0.9966  0.0131 -0.2118
 1927SOL     OW 7201   4.561   0.267   3.593 -0.2266  0.0778  0.3059
 1927SOL    HW1 7202   4.529   0.190   3.545  1.1555 -0.6438  0.4955
 1927SOL    HW2 7203   4.612   0.315   3.528  0.1542  0.0423  0.5796
 1928SOL     OW 7204   1.998   0.194   4.284  0.4606  0.1563 -0.2105
 1928SOL    HW1 7205   2.074   0.171   4.229  0.9431  0.4013  0.3483
 1928SOL    HW2 7206   1.956   0.266   4.237  1.4530  1.0543  0.2332
 1929SOL     OW 7207   7.451   0.934   1.884  0.3520  0.2198  0.5843
 1929SOL    HW1 7208   7.369   0.893   1.857  1.2409 -2.1390  1.1262
 1929SOL    HW2 7209   7.507   0.930   1.807  0.4772  0.3401  0.6678
 1930SOL     OW 7210   2.744   0.358   3.642 -0.1651  0.2166 -0.2102
 1930SOL    HW1 7211   2.752   0.311   3.725 -0.8765 -1.2965 -0.9608
 1930SOL    HW2 7212   2.834   0.363   3.610 -0.0488 -0.4777 -0.0211
 1931SOL     OW 7213   8.252   5.366   8.475 -0.2148 -0.4171  0.0100
 1931SOL    HW1 7214   8.321   5.341   8.414 -0.0679 -1.5567  0.6109
 1931SOL    HW2 7215   8.274   5.320   8.556 -1.4389 -0.4377  0.3442
 1932SOL     OW 7216   1.902   2.927   5.949  0.0050 -0.0705  0.0358
 1932SOL    HW1 7217   1.930   2.994   6.012 -1.0543 -0.5562  1.0675
 1932SOL    HW2 7218   1.955   2.944   5.871  0.0026  1.7567  0.3775
 1933SOL     OW 7219   7.298   8.407   8.215 -0.0764 -0.2452  0.1998
 1933SOL    HW1 7220   7.383   8.450   8.205 -0.9529  1.4039 -0.5228
 1933SOL    HW2 7221   7.283   8.407   8.309  0.8109 -0.7794  0.3591
 1934SOL     OW 7222   9.219   3.294   9.066  0.3581  0.2427  0.4160
 1934SOL    HW1 7223   9.203   3.385   9.090 -3.1979 -0.3948  1.1069
 1934SOL    HW2 7224   9.193   3.288   8.974 -0.9135 -0.3119  0.7867
 1935SOL     OW 7225   3.144   4.566   3.137 -0.2925 -0.3881 -0.1250
 1935SOL    HW1 7226   3.182   4.563   3.225 -1.2017 -0.4079  0.2765
 1935SOL    HW2 7227   3.185   4.642   3.096 -1.1620  0.6875  0.9308
 1936SOL     OW 7228   7.182   1.342   7.258  0.2573  0.0383 -0.0540
 1936SOL    HW1 7229   7.271   1.344   7.223 -0.0190  0.7207 -0.7318
 1936SOL    HW2 7230   7.148   1.257   7.232  0.4382  0.0936 -0.4707
 1937SOL     OW 7231   3.170   1.879   3.224 -0.1420  0.1247  0.8197
 1937SOL    HW1 7232   3.220   1.855   3.302 -0.0656 -2.8022 -0.0429
 1937SOL    HW2 7233   3.080   1.856   3.245 -0.2368  0.0356  0.3271
 1938SOL     OW 7234   0.432   5.887   1.469 -0.4327 -0.4649  0.9686
 1938SOL    HW1 7235   0.424   5.809   1.523 -1.3723 -0.0768  1.4204
 1938SOL    HW2 7236   0.450   5.958   1.530  2.4405 -0.5849  0.3764
 1939SOL     OW 7237   6.673   2.372   1.586 -0.3446 -0.1863 -0.0600
 1939SOL    HW1 7238   6.627   2.297   1.547  0.5350 -0.6809 -0.1719
 1939SOL    HW2 7239   6.709   2.420   1.511 -2.7830  1.6500 -0.1558
 1940SOL     OW 7240   6.559   5.029   0.109  0.3020  0.0376  1.3176
 1940SOL    HW1 7241   6.639   5.004   0.063 -1.2008 -0.9841 -0.8984
 1940SOL    HW2 7242   6.553   5.124   0.096  0.6187 -0.0375  0.5851
 1941SOL     OW 7243   6.257   5.432   7.614 -0.2905 -0.0931  0.2441
 1941SOL    HW1 7244   6.320   5.362   7.597  0.0671  0.0424  0.9856
 1941SOL    HW2 7245   6.180   5.409   7.562  0.9127  0.5586 -1.9673
 1942SOL     OW 7246   2.986   6.967   9.174 -0.1865 -0.0140 -0.0618
 1942SOL    HW1 7247   3.016   7.032   9.111 -0.1006  0.4521  0.4522
 1942SOL    HW2 7248   3.050   6.970   9.244 -1.6660  1.3810  1.3083
 1943SOL     OW 7249   4.749   4.375   1.903  0.6260 -0.9493  1.1143
 1943SOL    HW1 7250   4.830   4.324   1.904  0.7832 -0.8178 -0.7152
 1943SOL    HW2 7251   4.778   4.465   1.890  0.1805 -1.1038 -1.3599
 1944SOL     OW 7252   3.521   7.946   7.129 -0.2574 -0.5015 -0.1273
 1944SOL    HW1 7253   3.460   7.936   7.056  0.6362 -1.4152 -0.7653
 1944SOL    HW2 7254   3.593   7.887   7.109 -0.4089 -1.4773  1.9286
 1945SOL     OW 7255   5.829   7.031   3.667 -0.0277 -1.1855  0.2978
 1945SOL    HW1 7256   5.812   6.937   3.657  0.2029 -1.2656  0.6672
 1945SOL    HW2 7257   5.823   7.066   3.578 -1.8325 -1.2605  0.3604
 1946SOL     OW 7258   6.945   8.972   7.797  0.1294  0.3214 -0.1444
 1946SOL    HW1 7259   6.945   8.892   7.851 -0.5443 -0.9136 -1.8885
 1946SOL    HW2 7260   6.878   8.955   7.731 -0.0476  2.3801 -0.5336
 1947SOL     OW 7261   3.712   0.495   2.736 -0.1820 -0.0558 -0.2407
 1947SOL    HW1 7262   3.624   0.484   2.770  0.0583  0.0351  0.4231
 1947SOL    HW2 7263   3.704   0.558   2.665 -0.4852  0.7452  0.5024
 1948SOL     OW 7264   9.042   8.723   0.712 -0.6921 -0.4695  0.1467
 1948SOL    HW1 7265   9.121   8.675   0.684 -0.8326 -0.4188 -0.3444
 1948SOL    HW2 7266   8.990   8.731   0.632 -0.9225  0.0219  0.3446
 1949SOL     OW 7267   5.019   7.024   2.706  0.6784  0.5287  0.4308
 1949SOL    HW1 7268   5.082   7.052   2.772  0.9793  0.3772  0.2141
 1949SOL    HW2 7269   4.949   6.981   2.755  0.8259  0.5495  0.6599
 1950SOL     OW 7270   5.310   0.342   3.785  0.2376 -0.0225  0.0825
 1950SOL    HW1 7271   5.221   0.323   3.757  0.2741 -0.7493  0.4200
 1950SOL    HW2 7272   5.302   0.415   3.846 -0.1553 -0.2227  0.2731
 1951SOL     OW 7273   4.024   3.239   1.230  0.3392 -0.3090  0.0813
 1951SOL    HW1 7274   3.982   3.202   1.152  0.4452  0.5606 -0.4078
 1951SOL    HW2 7275   3.951   3.257   1.290  0.0730  0.5132 -0.4703
 1952SOL     OW 7276   4.653   8.213   4.250  0.2395 -0.2874 -0.0082
 1952SOL    HW1 7277   4.624   8.260   4.171  0.5350  0.7934  0.5056
 1952SOL    HW2 7278   4.703   8.138   4.216 -0.3595 -0.3230 -0.8528
 1953SOL     OW 7279   8.315   4.071   5.169 -0.1832 -0.4142 -0.2378
 1953SOL    HW1 7280   8.239   4.013   5.168  0.4447 -1.3557  1.8277
 1953SOL    HW2 7281   8.284   4.150   5.212  0.0782 -0.9682  1.0121
 1954SOL     OW 7282   6.374   4.945   3.906 -0.0075 -0.4552 -0.1047
 1954SOL    HW1 7283   6.465   4.924   3.926 -0.5045 -0.9482  1.7775
 1954SOL    HW2 7284   6.377   4.977   3.816  2.1179  0.1954  0.1345
 1955SOL     OW 7285   7.071   7.863   0.861 -0.1166  0.4426  0.2567
 1955SOL    HW1 7286   7.151   7.861   0.913  1.4707 -1.7167 -2.0509
 1955SOL    HW2 7287   7.015   7.797   0.901  0.9741 -0.9944 -0.4686
 1956SOL     OW 7288   2.364   0.156   2.323  0.5743 -0.6755 -0.0482
 1956SOL    HW1 7289   2.328   0.127   2.239 -1.7171  0.6701  0.3620
 1956SOL    HW2 7290   2.323   0.098   2.388 -1.7852  1.4351  0.5090
 1957SOL     OW 7291   8.168   4.643   5.914 -0.2315 -0.1910  0.4318
 1957SOL    HW1 7292   8.089   4.682   5.951  0.3802 -0.2410  1.8778
 1957SOL    HW2 7293   8.227   4.633   5.989  1.4754  0.6074 -0.7310
 1958SOL     OW 7294   2.242   1.820   6.307 -0.0221 -0.7868 -0.1252
 1958SOL    HW1 7295   2.249   1.908   6.343 -2.4006 -1.5082  2.4925
 1958SOL    HW2 7296   2.241   1.832   6.213 -0.4691  2.0003  0.1659
 1959SOL     OW 7297   2.541   8.592   3.908  0.2365 -0.4249 -0.1247
 1959SOL    HW1 7298   2.543   8.684   3.883 -1.8246 -0.0898  0.7818
 1959SOL    HW2 7299   2.504   8.546   3.833 -0.4990 -0.2409  0.1227
 1960SOL     OW 7300   6.441   3.717   8.919  0.6054 -0.0848 -0.0067
 1960SOL    HW1 7301   6.404   3.664   8.989  3.8902 -0.9599  1.2462
 1960SOL    HW2 7302   6.438   3.661   8.842 -2.5262  0.6841 -0.5863
 1961SOL     OW 7303   1.294   6.630   7.174  0.1355  0.4080 -0.2982
 1961SOL    HW1 7304   1.387   6.629   7.155  0.4710  2.3463  0.9878
 1961SOL    HW2 7305   1.258   6.695   7.112 -0.2835  0.0193 -0.4678
 1962SOL     OW 7306   4.828   7.208   3.011 -0.1935  0.2619  0.1258
 1962SOL    HW1 7307   4.849   7.118   2.987 -0.5030  0.4674 -1.0243
 1962SOL    HW2 7308   4.897   7.235   3.070  1.7468  0.3054 -2.0196
 1963SOL     OW 7309   8.913   3.989   5.140  0.3724  0.0039  0.5515
 1963SOL    HW1 7310   8.891   4.082   5.138  1.3513  0.2335 -0.3278
 1963SOL    HW2 7311   8.943   3.973   5.229  1.8522  0.9457  0.2574
 1964SOL     OW 7312   1.786   9.254   9.228  0.7430 -0.2488  0.0246
 1964SOL    HW1 7313   1.821   9.185   9.173  0.2466  0.3454 -1.0776
 1964SOL    HW2 7314   1.849   9.264   9.299  2.3296  0.1605 -1.3955
 1965SOL     OW 7315   0.793   3.672   0.148 -0.2734 -0.1785 -0.0673
 1965SOL    HW1 7316   0.712   3.659   0.197 -1.9641  0.8547 -2.4134
 1965SOL    HW2 7317   0.803   3.593   0.095 -0.0592 -0.0532 -0.2151
 1966SOL     OW 7318   5.961   7.247   5.206 -0.0343 -0.3569  0.4157
 1966SOL    HW1 7319   5.984   7.185   5.274 -1.8525 -1.3691  0.1934
 1966SOL    HW2 7320   5.888   7.206   5.160 -0.0497  1.1074 -0.9789
 1967SOL     OW 7321   5.683   8.557   8.623 -0.2540 -0.1177  0.5630
 1967SOL    HW1 7322   5.751   8.579   8.559 -0.6724  0.2649  0.2473
 1967SOL    HW2 7323   5.721   8.486   8.675  0.4060  0.1198  0.4156
 1968SOL     OW 7324   3.290   1.259   3.098  0.8162  0.3018 -0.0535
 1968SOL    HW1 7325   3.297   1.319   3.024 -1.5434  0.5466 -0.1505
 1968SOL    HW2 7326   3.196   1.242   3.106  1.3837 -4.8327 -1.1746
 1969SOL     OW 7327   1.207   7.985   8.332  0.2561 -0.6128  0.0348
 1969SOL    HW1 7328   1.130   8.027   8.369 -0.9531 -2.4036 -0.3147
 1969SOL    HW2 7329   1.274   7.994   8.399 -0.6100 -0.0958  0.8606
 1970SOL     OW 7330   3.780   7.531   4.781  0.0818  0.0511 -0.3030
 1970SOL    HW1 7331   3.787   7.455   4.723  1.9431 -0.4416  0.4872
 1970SOL    HW2 7332   3.743   7.600   4.726  0.5585 -0.7643 -1.6969
 1971SOL     OW 7333   3.925   1.758   2.304  0.4177 -0.2395 -0.0621
 1971SOL    HW1 7334   3.890   1.748   2.392  2.1774  0.3736  0.7436
 1971SOL    HW2 7335   3.988   1.687   2.295  0.7486  0.1114 -0.5666
 1972SOL     OW 7336   0.047   7.952   7.043 -0.3694  0.5893  0.4422
 1972SOL    HW1 7337   0.137   7.944   7.010 -0.9701  0.7372 -1.3161
 1972SOL    HW2 7338   0.043   7.890   7.115  0.5983 -0.8441 -0.6784
 1973SOL     OW 7339   1.462   5.171   2.891  0.2794 -0.1434 -0.0648
 1973SOL    HW1 7340   1.518   5.125   2.954  0.0967 -0.6978 -0.3044
 1973SOL    HW2 7341   1.522   5.200   2.822 -0.0438 -3.3103 -1.8678
 1974SOL     OW 7342   7.692   3.142   7.074  0.3081 -0.1182 -0.5733
 1974SOL    HW1 7343   7.718   3.109   6.988  0.1757 -1.3140 -0.1847
 1974SOL    HW2 7344   7.622   3.204   7.057 -0.7134 -1.4187 -1.2456
 1975SOL     OW 7345   2.972   1.558   1.902  0.0838  0.1578 -0.3464
 1975SOL    HW1 7346   2.893   1.517   1.866 -1.4370  2.4503  0.1903
 1975SOL    HW2 7347   2.976   1.644   1.861  1.5567  0.6316  0.6776
 1976SOL     OW 7348   6.825   8.075   0.074 -0.1706  0.6088  0.6029
 1976SOL    HW1 7349   6.809   8.112  -0.012  0.9344  0.1426  0.1788
 1976SOL    HW2 7350   6.911   8.035   0.068 -0.5351 -0.4083  1.5911
 1977SOL     OW 7351   4.128   4.091   3.115 -0.4497  0.0726  0.0707
 1977SOL    HW1 7352   4.061   4.033   3.152 -0.1220  0.1071  0.7324
 1977SOL    HW2 7353   4.100   4.179   3.141 -0.5306  0.1471 -0.2673
 1978SOL     OW 7354   5.403   8.941   7.266  0.1264  0.2982  0.2523
 1978SOL    HW1 7355   5.322   8.989   7.250  1.0671  2.7140  2.1456
 1978SOL    HW2 7356   5.472   9.001   7.239  1.3693 -1.9696 -1.9700
 1979SOL     OW 7357   6.554   4.582   3.610  0.0129  0.0113  0.3230
 1979SOL    HW1 7358   6.586   4.492   3.601 -0.2236 -0.0806  0.3917
 1979SOL    HW2 7359   6.477   4.574   3.666  0.4742  0.3646  1.0177
 1980SOL     OW 7360   2.713   0.478   0.346  0.4919  0.3017  0.0687
 1980SOL    HW1 7361   2.768   0.458   0.422 -0.4062 -1.0549  0.3884
 1980SOL    HW2 7362   2.690   0.393   0.309  0.3218  0.9174 -1.3255
 1981SOL     OW 7363   0.308   7.528   7.531 -0.6013 -0.1556  0.5769
 1981SOL    HW1 7364   0.374   7.585   7.571  0.4367 -1.2114  0.4402
 1981SOL    HW2 7365   0.228   7.544   7.581 -0.5559  1.9685  0.0513
 1982SOL     OW 7366   5.328   5.693   6.273 -0.2792  0.4533 -0.2764
 1982SOL    HW1 7367   5.382   5.686   6.194 -1.9359  0.8769 -1.5124
 1982SOL    HW2 7368   5.350   5.778   6.310 -1.1194  1.2937 -1.6083
 1983SOL     OW 7369   7.775   7.487   7.401  0.1501  0.1066 -0.4726
 1983SOL    HW1 7370   7.731   7.569   7.424  0.5198  0.0893  0.3097
 1983SOL    HW2 7371   7.709   7.439   7.350  0.4171  1.4771 -2.1918
 1984SOL     OW 7372   8.227   1.986   1.251 -0.4805 -0.2402  0.1625
 1984SOL    HW1 7373   8.245   1.956   1.340  0.4140  0.7723  0.3434
 1984SOL    HW2 7374   8.310   2.022   1.220 -0.5003 -1.4874 -1.4817
 1985SOL     OW 7375   2.643   1.897   4.059  0.6442  0.1325 -0.4665
 1985SOL    HW1 7376   2.600   1.865   4.139  1.3227 -1.4482 -0.6844
 1985SOL    HW2 7377   2.660   1.989   4.076 -0.1629  0.0720  0.7982
 1986SOL     OW 7378   1.752   5.018   0.226 -0.4790 -0.1456  0.6017
 1986SOL    HW1 7379   1.683   5.015   0.293  0.0927 -0.8803  1.1814
 1986SOL    HW2 7380   1.742   5.104   0.185 -2.4897 -0.6684 -0.1447
 1987SOL     OW 7381   6.215   1.394   7.410 -0.4701  0.3955  1.1504
 1987SOL    HW1 7382   6.202   1.339   7.488  0.2012 -0.8091  0.4472
 1987SOL    HW2 7383   6.180   1.480   7.435  0.0628  0.1441  2.9100
 1988SOL     OW 7384   9.089   8.660   7.160 -0.2425  0.2623  0.6841
 1988SOL    HW1 7385   9.091   8.575   7.204  1.0906  0.3707  0.8766
 1988SOL    HW2 7386   9.153   8.651   7.089 -0.5775  0.8920  0.2970
 1989SOL     OW 7387   4.887   3.161   8.628  0.5212  0.0949 -0.2630
 1989SOL    HW1 7388   4.795   3.152   8.605  0.3340  0.0389  0.4782
 1989SOL    HW2 7389   4.915   3.072   8.651 -0.5033  0.6929  4.0409
 1990SOL     OW 7390   2.248   8.295   5.921  0.5150  0.5349  0.2866
 1990SOL    HW1 7391   2.332   8.320   5.960  0.6039  0.2306  0.2911
 1990SOL    HW2 7392   2.251   8.199   5.915  0.4807  0.5721 -0.4109
 1991SOL     OW 7393   3.711   5.059   6.422  0.0900  0.8535 -0.2155
 1991SOL    HW1 7394   3.697   4.966   6.435  0.3382  0.7464 -0.6626
 1991SOL    HW2 7395   3.624   5.098   6.428  0.0826  0.7027  0.7791
 1992SOL     OW 7396   8.868   1.808   0.130  0.0088 -0.0662 -0.1755
 1992SOL    HW1 7397   8.904   1.720   0.119 -1.0111 -0.4390 -0.6718
 1992SOL    HW2 7398   8.882   1.828   0.222 -0.4807 -1.0881  0.1380
 1993SOL     OW 7399   8.859   3.630   2.818 -0.7815  1.1630 -0.7462
 1993SOL    HW1 7400   8.888   3.713   2.857 -0.5161  1.5784 -1.8011
 1993SOL    HW2 7401   8.768   3.622   2.846 -0.2740  0.8667  0.9082
 1994SOL     OW 7402   3.661   8.559   8.702 -0.0389 -0.1127  0.0477
 1994SOL    HW1 7403   3.752   8.579   8.682 -0.9194  2.2383 -2.1834
 1994SOL    HW2 7404   3.664   8.475   8.749  3.3541  0.8646  1.8827
 1995SOL     OW 7405   8.445   2.410   8.591 -0.1771  0.3196 -0.4199
 1995SOL    HW1 7406   8.408   2.368   8.669  0.2963  2.3877  0.9907
 1995SOL    HW2 7407   8.536   2.426   8.613 -0.1317  1.2791 -1.2491
 1996SOL     OW 7408   5.524   6.502   4.976  0.0212  0.4126  0.3359
 1996SOL    HW1 7409   5.531   6.441   4.903  0.0783 -0.2946  0.9110
 1996SOL    HW2 7410   5.593   6.566   4.961  0.1329  0.1836 -0.1453
 1997SOL     OW 7411   6.506   7.130   7.342  0.0962  0.4778 -0.1592
 1997SOL    HW1 7412   6.439   7.070   7.311 -0.2756 -0.2461  1.8855
 1997SOL    HW2 7413   6.458   7.206   7.373  0.3588  0.6509 -0.1745
 1998SOL     OW 7414   1.395   3.424   3.728 -0.2253 -0.4351 -0.4314
 1998SOL    HW1 7415   1.491   3.424   3.732 -0.2143 -0.1971 -0.6801
 1998SOL    HW2 7416   1.375   3.435   3.635 -0.4860 -2.9411 -0.7446
 1999SOL     OW 7417   1.976   5.578   3.098 -0.1008  0.4193  0.2840
 1999SOL    HW1 7418   1.926   5.520   3.041 -2.2175  1.3301  1.0956
 1999SOL    HW2 7419   1.995   5.654   3.042  0.4954  0.0263 -0.0585
 2000SOL     OW 7420   2.313   6.780   5.110 -0.4197 -0.4898 -0.2303
 2000SOL    HW1 7421   2.233   6.832   5.114  0.0657  0.2471  0.2429
 2000SOL    HW2 7422   2.302   6.714   5.179 -0.9730 -0.9215 -0.7276
 2001SOL     OW 7423   4.862   6.236   4.900  0.4871  0.7239  0.2754
 2001SOL    HW1 7424   4.865   6.322   4.943 -1.0314 -0.0590  2.0791
 2001SOL    HW2 7425   4.860   6.174   4.973 -0.5174 -0.7571 -0.9776
 2002SOL     OW 7426   6.607   6.532   8.072 -0.5788 -0.5665 -0.1422
 2002SOL    HW1 7427   6.583   6.570   7.987 -0.7846  1.2945  0.6975
 2002SOL    HW2 7428   6.651   6.450   8.049  2.5771  1.4686 -2.3207
 2003SOL     OW 7429   1.009   0.392   2.757 -0.0756  0.5496 -0.5452
 2003SOL    HW1 7430   0.970   0.368   2.673  0.5743  2.5229 -1.4762
 2003SOL    HW2 7431   1.047   0.479   2.741 -1.8025  1.9879  2.3365
 2004SOL     OW 7432   6.474   7.361   3.611  0.7532 -0.4392 -0.0200
 2004SOL    HW1 7433   6.433   7.357   3.698 -1.0902  0.2355 -0.7896
 2004SOL    HW2 7434   6.476   7.270   3.582 -2.2799 -0.3848 -0.7785
 2005SOL     OW 7435   7.255   2.357   9.057  0.5376  0.1226 -0.1478
 2005SOL    HW1 7436   7.238   2.265   9.079  0.0816  0.2801  0.1584
 2005SOL    HW2 7437   7.209   2.407   9.124 -0.2031  0.5917 -0.9773
 2006SOL     OW 7438   8.843   8.377   7.780  0.0529 -0.3253  0.2565
 2006SOL    HW1 7439   8.798   8.293   7.766  1.1416 -0.5643 -2.3760
 2006SOL    HW2 7440   8.851   8.384   7.875 -3.3176 -1.4093  0.7707
 2007SOL     OW 7441   3.097   8.730   7.730 -0.4665 -0.4645  0.3337
 2007SOL    HW1 7442   3.105   8.637   7.708 -1.3647 -1.1243  2.5789
 2007SOL    HW2 7443   3.071   8.731   7.822 -1.4339  1.9962  0.1094
 2008SOL     OW 7444   1.134   0.657   2.632  1.0832 -0.2173  0.4731
 2008SOL    HW1 7445   1.100   0.670   2.720  1.1312 -0.6990  0.5649
 2008SOL    HW2 7446   1.113   0.738   2.586  0.4055 -0.2545  0.7135
 2009SOL     OW 7447   7.675   1.184   6.053 -0.2712  0.4800  0.1579
 2009SOL    HW1 7448   7.593   1.231   6.068 -0.8249 -0.4862  0.2895
 2009SOL    HW2 7449   7.668   1.106   6.107  0.3902 -0.0111 -0.4424
 2010SOL     OW 7450   8.336   5.237   0.441  0.4554  0.1284 -0.3624
 2010SOL    HW1 7451   8.276   5.310   0.456 -0.0043  0.3706 -2.9237
 2010SOL    HW2 7452   8.291   5.161   0.479 -0.5332  0.6568 -0.4466
 2011SOL     OW 7453   8.274   7.396   2.186  0.3766  0.0197 -0.2673
 2011SOL    HW1 7454   8.186   7.392   2.150 -0.0067  0.0449  0.6620
 2011SOL    HW2 7455   8.305   7.484   2.163 -0.1818  0.3394  0.1781
 2012SOL     OW 7456   3.036   3.478   7.387 -0.5733 -0.2374 -0.6117
 2012SOL    HW1 7457   3.088   3.398   7.393 -0.1258  0.1515  2.0297
 2012SOL    HW2 7458   3.095   3.547   7.417 -1.3508  0.9151 -1.6301
 2013SOL     OW 7459   0.890   3.169   7.437 -0.1260 -0.3823 -0.2997
 2013SOL    HW1 7460   0.846   3.094   7.478 -1.1460 -0.0208 -0.6939
 2013SOL    HW2 7461   0.920   3.222   7.511 -1.6663  0.1057  0.0135
 2014SOL     OW 7462   5.156   0.798   1.280  0.2214 -0.1471 -0.1554
 2014SOL    HW1 7463   5.063   0.780   1.295  0.1612  0.7626  0.6641
 2014SOL    HW2 7464   5.188   0.832   1.364  1.4504 -1.0160 -0.2404
 2015SOL     OW 7465   2.213   6.431   2.977  0.9873  0.3057 -0.4851
 2015SOL    HW1 7466   2.249   6.370   2.911 -0.8511 -2.5370  0.9283
 2015SOL    HW2 7467   2.291   6.467   3.020  2.2508 -2.3472 -0.3299
 2016SOL     OW 7468   1.922   6.992   0.109  0.0874  0.2769  0.6617
 2016SOL    HW1 7469   2.006   6.947   0.122  0.5719  0.5321 -1.3334
 2016SOL    HW2 7470   1.899   6.975   0.018 -1.3309  1.4178  0.7714
 2017SOL     OW 7471   1.721   7.925   2.329 -0.1480 -0.6901 -0.4523
 2017SOL    HW1 7472   1.716   8.012   2.369 -0.6501 -0.4948 -0.9172
 2017SOL    HW2 7473   1.699   7.865   2.400 -2.6037 -0.2588 -0.7563
 2018SOL     OW 7474   0.738   6.375   4.801  0.1655 -0.2336  0.0943
 2018SOL    HW1 7475   0.745   6.416   4.887  1.2229  0.7059 -0.4135
 2018SOL    HW2 7476   0.691   6.439   4.748  1.3534  0.1101 -0.5619
 2019SOL     OW 7477   4.214   1.352   0.145  0.2958  0.1495 -0.3690
 2019SOL    HW1 7478   4.291   1.358   0.088  0.3939 -0.1390 -0.2713
 2019SOL    HW2 7479   4.141   1.383   0.092  0.2916 -0.6334 -0.8398
 2020SOL     OW 7480   4.844   5.372   7.039  0.1203  0.1610 -0.3271
 2020SOL    HW1 7481   4.846   5.304   6.972  0.7292 -0.4871  0.3309
 2020SOL    HW2 7482   4.864   5.326   7.120  1.3306  1.2632  0.0235
 2021SOL     OW 7483   5.666   2.649   5.073 -0.5108  0.0465  0.3581
 2021SOL    HW1 7484   5.726   2.639   5.146  0.8709  0.0220 -0.7392
 2021SOL    HW2 7485   5.694   2.729   5.029 -2.5062  1.0991  0.9059
 2022SOL     OW 7486   0.920   4.010   0.433 -0.2894 -0.0229  0.0095
 2022SOL    HW1 7487   0.942   4.103   0.432 -0.0848 -0.0634 -1.1330
 2022SOL    HW2 7488   0.903   3.989   0.341 -1.3544 -0.8761  0.3729
 2023SOL     OW 7489   2.607   4.042   8.416  0.2312  0.8739  0.0713
 2023SOL    HW1 7490   2.663   3.988   8.471 -2.2092 -0.3824  1.5157
 2023SOL    HW2 7491   2.542   4.078   8.476 -1.2229  1.2598 -1.6538
 2024SOL     OW 7492   7.153   5.094   4.873  0.3870  0.3878 -0.6503
 2024SOL    HW1 7493   7.199   5.177   4.862  0.1152  0.4729 -1.2130
 2024SOL    HW2 7494   7.082   5.097   4.808 -1.2389  0.8390  1.0412
 2025SOL     OW 7495   6.688   6.883   3.339  0.6765  0.1866 -0.5532
 2025SOL    HW1 7496   6.764   6.902   3.283  0.1761  1.6063 -0.7891
 2025SOL    HW2 7497   6.726   6.865   3.425  1.6421 -3.9085 -1.5678
 2026SOL     OW 7498   6.876   9.081   7.331  0.2406  1.0225 -0.2529
 2026SOL    HW1 7499   6.925   9.056   7.409 -1.1624 -0.2972  0.2441
 2026SOL    HW2 7500   6.848   9.171   7.348 -2.5917 -0.1587  2.1942
 2027SOL     OW 7501   5.979   8.214   0.519  0.4310  0.2674  0.0719
 2027SOL    HW1 7502   6.066   8.248   0.500  0.7372  0.5465  1.7682
 2027SOL    HW2 7503   5.918   8.276   0.479  0.9730 -0.4606 -1.9838
 2028SOL     OW 7504   8.122   6.348   4.230 -0.5321  0.5575 -0.0122
 2028SOL    HW1 7505   8.109   6.431   4.276 -2.0271 -0.0880  0.8022
 2028SOL    HW2 7506   8.063   6.287   4.275  0.0871 -0.7920 -0.9914
 2029SOL     OW 7507   0.066   6.375   4.295 -0.2905  0.2552 -0.5046
 2029SOL    HW1 7508  -0.020   6.344   4.324  0.3099 -0.9133  0.1220
 2029SOL    HW2 7509   0.080   6.457   4.342 -0.1118 -0.6961  1.2225
 2030SOL     OW 7510   2.715   6.836   1.741 -0.2182  0.0689 -0.4293
 2030SOL    HW1 7511   2.725   6.799   1.829 -0.8203  0.5682 -0.1381
 2030SOL    HW2 7512   2.696   6.761   1.685 -0.0109 -0.2335 -0.0987
 2031SOL     OW 7513   6.409   8.920   8.865  0.1720  0.5480 -0.1560
 2031SOL    HW1 7514   6.434   8.835   8.827 -0.7078 -0.0728  0.6061
 2031SOL    HW2 7515   6.324   8.940   8.825 -0.6713 -0.0163  1.2843
 2032SOL     OW 7516   1.082   4.376   5.951  0.5641 -0.3391  0.2427
 2032SOL    HW1 7517   1.124   4.445   5.899 -1.3670 -0.7368 -2.0172
 2032SOL    HW2 7518   0.999   4.415   5.980 -1.1233 -1.9198 -2.0707
 2033SOL     OW 7519   1.914   4.340   1.412 -0.1048  0.1111 -0.0379
 2033SOL    HW1 7520   1.993   4.320   1.461 -0.5924  0.1277  0.7787
 2033SOL    HW2 7521   1.848   4.279   1.446  0.0867 -1.5319 -2.3171
 2034SOL     OW 7522   5.732   3.015   5.542 -0.1308 -0.7344 -0.1055
 2034SOL    HW1 7523   5.710   2.960   5.617 -0.2512 -0.6152 -0.0528
 2034SOL    HW2 7524   5.717   2.958   5.466  0.2594 -0.9404 -0.0270
 2035SOL     OW 7525   0.279   5.346   5.898  1.0804  0.2520  0.3153
 2035SOL    HW1 7526   0.319   5.264   5.929  0.5835 -1.0832 -2.2624
 2035SOL    HW2 7527   0.185   5.333   5.912  0.7393 -0.8011 -2.3490
 2036SOL     OW 7528   4.224   3.707   0.434  0.1262 -0.0208 -0.4214
 2036SOL    HW1 7529   4.223   3.775   0.502 -0.8984  1.0794 -1.4996
 2036SOL    HW2 7530   4.162   3.641   0.465  2.8939 -1.7846  1.8356
 2037SOL     OW 7531   5.875   0.337   2.202  0.1553  0.1681  0.5737
 2037SOL    HW1 7532   5.826   0.344   2.284 -2.0055  1.7707 -0.7512
 2037SOL    HW2 7533   5.852   0.251   2.167  0.7758 -0.3574  1.4165
 2038SOL     OW 7534   4.584   6.963   0.494  0.2269 -0.1223 -0.1716
 2038SOL    HW1 7535   4.537   6.890   0.535 -0.3154 -0.7766 -1.8469
 2038SOL    HW2 7536   4.673   6.957   0.528 -0.4093 -0.0550  1.5755
 2039SOL     OW 7537   8.148   8.738   1.320 -0.1210 -0.4629 -0.2050
 2039SOL    HW1 7538   8.132   8.689   1.400 -2.0383 -1.1404 -0.9433
 2039SOL    HW2 7539   8.231   8.704   1.287 -0.0816 -1.2846  0.6883
 2040SOL     OW 7540   4.625   5.432   5.411 -0.4179  0.2262 -0.4258
 2040SOL    HW1 7541   4.634   5.526   5.425 -1.5749  0.0800  1.6974
 2040SOL    HW2 7542   4.712   5.396   5.429 -0.4781  0.7022  0.9236
 2041SOL     OW 7543   6.265   5.111   7.792  0.2003  0.6694 -0.1776
 2041SOL    HW1 7544   6.200   5.041   7.800  0.9389 -0.4859 -2.9977
 2041SOL    HW2 7545   6.329   5.093   7.860 -2.1410  1.6611  2.4876
 2042SOL     OW 7546   4.774   7.083   6.413  0.7111 -0.1985  0.0911
 2042SOL    HW1 7547   4.822   7.041   6.485 -1.4441  0.9958  2.3911
 2042SOL    HW2 7548   4.772   7.175   6.437 -1.1454  0.0474 -0.8505
 2043SOL     OW 7549   6.354   4.071   3.120 -0.5018 -0.3797  0.2268
 2043SOL    HW1 7550   6.360   4.037   3.031  1.2462 -0.3139  0.2780
 2043SOL    HW2 7551   6.261   4.092   3.132 -0.9207 -1.2730 -1.2298
 2044SOL     OW 7552   4.587   0.442   3.999  0.1349  0.0063 -0.8380
 2044SOL    HW1 7553   4.548   0.530   3.998 -0.1724 -0.1250 -0.5947
 2044SOL    HW2 7554   4.535   0.392   3.935 -1.9411 -0.9393  1.4564
 2045SOL     OW 7555   5.333   5.830   8.521 -0.4808 -0.2955  0.0711
 2045SOL    HW1 7556   5.261   5.780   8.559 -0.0942 -1.2898 -0.4799
 2045SOL    HW2 7557   5.347   5.792   8.435  1.3995 -0.8563  0.5669
 2046SOL     OW 7558   7.361   4.776   1.227 -0.2977 -0.3942 -0.0357
 2046SOL    HW1 7559   7.420   4.777   1.152  0.7608 -1.0710  0.7598
 2046SOL    HW2 7560   7.410   4.730   1.295 -2.1823 -2.1258  0.2715
 2047SOL     OW 7561   7.248   6.951   6.300 -0.3175 -0.3993  0.5647
 2047SOL    HW1 7562   7.167   6.978   6.343 -0.4158  0.6752 -0.2622
 2047SOL    HW2 7563   7.318   6.995   6.350 -0.3476 -0.1299  0.3706
 2048SOL     OW 7564   8.719   4.185   0.120 -0.4828  0.0230  0.0553
 2048SOL    HW1 7565   8.724   4.186   0.216  1.7563  0.3070  0.0042
 2048SOL    HW2 7566   8.771   4.109   0.095 -1.6560 -0.4751 -0.9450
 2049SOL     OW 7567   6.883   4.225   4.218  0.0607  0.6192 -0.1858
 2049SOL    HW1 7568   6.901   4.319   4.211 -0.1478  0.5950 -1.2035
 2049SOL    HW2 7569   6.893   4.205   4.311 -0.8834  1.8627  0.2153
 2050SOL     OW 7570   1.949   2.548   3.478  0.2074 -0.4854 -0.1712
 2050SOL    HW1 7571   1.952   2.644   3.478 -0.6570 -0.4399 -0.9808
 2050SOL    HW2 7572   2.026   2.521   3.528 -0.4331  0.6472  1.4799
 2051SOL     OW 7573   6.939   3.925   2.644 -0.4692  0.8001  0.7501
 2051SOL    HW1 7574   6.878   3.998   2.650 -0.4431  1.0259 -1.0785
 2051SOL    HW2 7575   7.025   3.967   2.633 -0.6363  0.5768 -1.9593
 2052SOL     OW 7576   6.933   8.888   4.214  0.3303 -0.1913  0.3881
 2052SOL    HW1 7577   6.906   8.813   4.161  0.1815  0.3860 -0.3684
 2052SOL    HW2 7578   6.851   8.932   4.238  0.4806  0.6272 -0.5267
 2053SOL     OW 7579   5.592   3.705   5.797 -0.0975 -1.0679 -0.3264
 2053SOL    HW1 7580   5.548   3.692   5.713 -0.4209 -2.4887  0.0241
 2053SOL    HW2 7581   5.523   3.735   5.856  0.1322 -0.0570 -0.5668
 2054SOL     OW 7582   8.761   8.921   4.854  0.0430 -0.0725  0.0909
 2054SOL    HW1 7583   8.795   8.834   4.835  0.0402 -0.0892  0.1611
 2054SOL    HW2 7584   8.678   8.926   4.806  0.8260  0.4883 -1.2306
 2055SOL     OW 7585   4.709   7.732   3.618 -0.6474 -0.6271 -0.0779
 2055SOL    HW1 7586   4.710   7.804   3.554  0.4775  0.6207  1.2910
 2055SOL    HW2 7587   4.696   7.654   3.564  0.3851  0.3534 -1.8617
 2056SOL     OW 7588   8.416   5.104   6.187  0.3581  0.5479 -0.1952
 2056SOL    HW1 7589   8.412   5.142   6.099  0.6087 -0.1694 -0.5263
 2056SOL    HW2 7590   8.508   5.106   6.211  0.1803  1.6758  0.4918
 2057SOL     OW 7591   2.081   2.465   7.550  0.4664 -0.3576 -0.0871
 2057SOL    HW1 7592   2.080   2.407   7.626 -0.0145  0.5096  0.5843
 2057SOL    HW2 7593   2.011   2.431   7.493  1.3834 -1.5265 -0.5705
 2058SOL     OW 7594   6.854   1.922   3.501  0.2277  0.7402  0.7666
 2058SOL    HW1 7595   6.943   1.892   3.517  0.9777  0.6020 -2.7469
 2058SOL    HW2 7596   6.801   1.842   3.504  0.1440  0.8211  2.8438
 2059SOL     OW 7597   3.656   5.865   7.578  0.0706 -0.0422 -0.1901
 2059SOL    HW1 7598   3.685   5.906   7.659 -0.5836 -0.6917  0.3778
 2059SOL    HW2 7599   3.606   5.934   7.533  0.0453  0.1720  0.1650
 2060SOL     OW 7600   1.181   3.955   4.310 -0.4641 -0.5930  0.0967
 2060SOL    HW1 7601   1.088   3.962   4.330 -0.3414 -0.5711  0.6637
 2060SOL    HW2 7602   1.184   3.909   4.226 -1.2339  4.0966 -2.8468
 2061SOL     OW 7603   1.780   6.938   6.351  0.4799  0.1661  0.7415
 2061SOL    HW1 7604   1.757   6.963   6.441 -0.0790  2.4511  0.0265
 2061SOL    HW2 7605   1.698   6.942   6.303  0.8760 -0.4655 -0.0151
 2062SOL     OW 7606   3.941   3.011   5.958  0.1941 -0.0926  0.0408
 2062SOL    HW1 7607   3.862   3.060   5.981 -0.0182 -0.8972  1.0951
 2062SOL    HW2 7608   4.001   3.077   5.924  0.1454  1.0447  1.9939
 2063SOL     OW 7609   8.301   1.466   3.379  0.0971 -0.0674  0.0544
 2063SOL    HW1 7610   8.375   1.522   3.401 -0.3791  1.0472 -1.0410
 2063SOL    HW2 7611   8.238   1.480   3.450  0.3354  0.1171  0.2307
 2064SOL     OW 7612   4.379   8.981   0.755  0.6510  0.6125 -0.3553
 2064SOL    HW1 7613   4.283   8.986   0.764  0.7216  2.7280 -0.2763
 2064SOL    HW2 7614   4.412   9.011   0.839  1.3917  0.8547 -0.7330
 2065SOL     OW 7615   5.293   6.864   5.788  0.1461 -0.2745  0.0370
 2065SOL    HW1 7616   5.349   6.935   5.819 -0.4897  0.7983 -1.1641
 2065SOL    HW2 7617   5.301   6.796   5.855  4.8840 -1.3394 -1.2338
 2066SOL     OW 7618   1.902   1.094   1.589 -0.0464  0.0781  0.1678
 2066SOL    HW1 7619   1.923   1.062   1.677 -2.0636  2.5838  1.7252
 2066SOL    HW2 7620   1.931   1.025   1.530  1.6025 -1.6208  2.7742
 2067SOL     OW 7621   2.085   0.175   7.047  0.3969  0.3872  0.5064
 2067SOL    HW1 7622   2.032   0.098   7.027  0.7140  0.5913 -1.2584
 2067SOL    HW2 7623   2.029   0.250   7.025  0.8608  0.6201  0.0859
 2068SOL     OW 7624   6.690   2.126   6.770  0.4310 -0.0547 -0.4370
 2068SOL    HW1 7625   6.634   2.193   6.809  0.5791  0.3694 -0.9335
 2068SOL    HW2 7626   6.739   2.173   6.702  1.6913 -0.3034  0.2552
 2069SOL     OW 7627   1.254   7.332   4.392 -0.2168  0.5447  0.4728
 2069SOL    HW1 7628   1.199   7.372   4.324  0.6322  1.3005  0.2058
 2069SOL    HW2 7629   1.327   7.394   4.403  0.1605 -0.0448  1.3826
 2070SOL     OW 7630   1.947   2.725   4.459  0.0634 -0.0384  0.5638
 2070SOL    HW1 7631   1.861   2.691   4.435  0.4795 -2.3954  2.0730
 2070SOL    HW2 7632   1.949   2.720   4.554  1.8729 -0.0466  0.5572
 2071SOL     OW 7633   4.779   7.671   0.148  0.5503 -0.8582  0.5615
 2071SOL    HW1 7634   4.747   7.709   0.066  1.3834 -1.1825  0.0706
 2071SOL    HW2 7635   4.798   7.580   0.126 -3.2768 -2.2573  2.1918
 2072SOL     OW 7636   0.436   2.551   7.262  0.3782  0.7236  0.0884
 2072SOL    HW1 7637   0.432   2.644   7.284  0.9711  0.6747  0.4110
 2072SOL    HW2 7638   0.416   2.548   7.169 -1.5515  0.9969  0.4493
 2073SOL     OW 7639   1.871   5.962   3.799 -0.0376 -0.4407 -0.0835
 2073SOL    HW1 7640   1.908   5.896   3.741  0.4292  0.7669 -1.2052
 2073SOL    HW2 7641   1.776   5.955   3.786 -0.1558 -2.1386  1.2527
 2074SOL     OW 7642   1.053   2.262   0.665  0.0759 -0.4661  0.3861
 2074SOL    HW1 7643   1.058   2.332   0.729 -2.6889 -1.9653  2.4351
 2074SOL    HW2 7644   1.065   2.306   0.581 -1.9274  2.5669  1.5122
 2075SOL     OW 7645   5.269   1.606   0.542  0.3397 -0.0782 -0.8468
 2075SOL    HW1 7646   5.220   1.524   0.538 -0.0951  0.1147  0.2030
 2075SOL    HW2 7647   5.202   1.674   0.550  0.7450  0.1308  1.3481
 2076SOL     OW 7648   2.106   4.193   1.564  0.0525 -0.0453 -0.1634
 2076SOL    HW1 7649   2.159   4.264   1.599 -2.8134  2.4974 -0.5137
 2076SOL    HW2 7650   2.075   4.146   1.641  1.9187 -0.9692  0.0773
 2077SOL     OW 7651   6.371   7.843   6.401 -0.0134  0.4153 -0.3052
 2077SOL    HW1 7652   6.437   7.809   6.461 -1.2954  0.0334  0.9540
 2077SOL    HW2 7653   6.370   7.937   6.418 -0.0535  0.3712 -0.0605
 2078SOL     OW 7654   5.599   6.515   1.937 -0.0461  0.1324 -0.1657
 2078SOL    HW1 7655   5.580   6.608   1.949  0.6228  0.4608 -1.4395
 2078SOL    HW2 7656   5.677   6.499   1.990 -1.4676 -0.2897  1.9145
 2079SOL     OW 7657   3.342   0.401   0.969  0.1032 -0.0889 -0.1174
 2079SOL    HW1 7658   3.292   0.426   0.892 -3.4118 -2.6404  1.0732
 2079SOL    HW2 7659   3.300   0.449   1.041  0.7757 -0.6746  0.6802
 2080SOL     OW 7660   5.822   3.454   4.969 -0.0144 -0.0738 -0.1861
 2080SOL    HW1 7661   5.781   3.392   5.029  2.2187 -1.8115 -0.3252
 2080SOL    HW2 7662   5.910   3.466   5.004  0.7486  0.3006 -2.1113
 2081SOL     OW 7663   5.102   4.920   1.675  0.5694 -0.6731  0.0208
 2081SOL    HW1 7664   5.140   4.994   1.723 -2.0616 -0.8259  2.6222
 2081SOL    HW2 7665   5.010   4.942   1.664  0.4459 -2.0361 -2.4282
 2082SOL     OW 7666   4.592   8.324   0.554 -0.6580  0.6237 -0.8109
 2082SOL    HW1 7667   4.599   8.411   0.594 -0.7023 -0.8387  2.7481
 2082SOL    HW2 7668   4.676   8.312   0.509  0.2195  1.7315  0.4524
 2083SOL     OW 7669   0.519   1.926   9.193  0.1893 -0.0905  0.0123
 2083SOL    HW1 7670   0.460   2.000   9.206 -0.4364 -0.6531  0.4814
 2083SOL    HW2 7671   0.552   1.906   9.280  0.6861 -0.1042 -0.1727
 2084SOL     OW 7672   1.445   1.508   6.429  0.0429  0.0352 -0.3325
 2084SOL    HW1 7673   1.508   1.457   6.481  0.6308 -1.6479 -2.5072
 2084SOL    HW2 7674   1.465   1.599   6.450  2.4781 -0.4796 -0.0937
 2085SOL     OW 7675   4.524   7.259   5.508  0.7216 -0.3187 -0.2616
 2085SOL    HW1 7676   4.442   7.215   5.529  0.4322  0.4945  0.3786
 2085SOL    HW2 7677   4.588   7.220   5.567  0.4052  0.3053  0.5105
 2086SOL     OW 7678   8.407   3.879   4.900  0.0489 -0.5303 -0.2144
 2086SOL    HW1 7679   8.401   3.825   4.979 -1.6393  0.6163  0.4895
 2086SOL    HW2 7680   8.499   3.905   4.896  0.4279 -1.6318  0.6499
 2087SOL     OW 7681   4.089   1.546   1.250  0.0900  0.8608 -0.0998
 2087SOL    HW1 7682   4.026   1.593   1.305  0.2194 -0.9303  1.7068
 2087SOL    HW2 7683   4.109   1.467   1.299  2.7653  0.7204 -1.2385
 2088SOL     OW 7684   4.234   5.489   2.031 -0.2541 -0.3176 -0.4969
 2088SOL    HW1 7685   4.280   5.411   2.063  1.1603 -0.2434 -2.1749
 2088SOL    HW2 7686   4.144   5.460   2.018  0.6264 -2.3433 -2.9577
 2089SOL     OW 7687   1.574   8.209   2.934 -0.0150 -0.2921 -0.0755
 2089SOL    HW1 7688   1.639   8.204   2.863  1.7081  1.5547  1.2407
 2089SOL    HW2 7689   1.502   8.153   2.905  1.3102 -0.8766 -2.5267
 2090SOL     OW 7690   4.025   7.737   8.938 -0.0177  0.2836  0.2158
 2090SOL    HW1 7691   4.082   7.687   8.995  0.4031  0.9469  0.3925
 2090SOL    HW2 7692   4.056   7.828   8.947 -0.3875  0.4915 -0.5321
 2091SOL     OW 7693   7.690   9.069   7.670 -0.4956 -0.5135  0.4076
 2091SOL    HW1 7694   7.669   8.980   7.698 -2.1015 -0.7162 -1.2580
 2091SOL    HW2 7695   7.622   9.124   7.709  0.4949  0.0335  1.4417
 2092SOL     OW 7696   2.936   7.094   5.259  0.1091 -0.4475 -0.1643
 2092SOL    HW1 7697   2.962   7.164   5.319  1.9857 -2.3465  1.3993
 2092SOL    HW2 7698   2.979   7.115   5.177  0.7872  0.1516  0.3263
 2093SOL     OW 7699   8.216   5.929   5.456  0.0181 -0.2658 -0.2655
 2093SOL    HW1 7700   8.230   5.843   5.417  1.5556  0.1926 -0.8248
 2093SOL    HW2 7701   8.277   5.933   5.530  0.2453  0.4702 -0.4765
 2094SOL     OW 7702   8.848   0.796   1.080  0.2025 -0.2151 -0.0959
 2094SOL    HW1 7703   8.784   0.818   1.148  1.5134  2.1021  0.4593
 2094SOL    HW2 7704   8.810   0.719   1.037 -3.0202  1.0343  0.1632
 2095SOL     OW 7705   7.533   7.750   1.633  0.1760 -0.2293 -0.0854
 2095SOL    HW1 7706   7.565   7.673   1.680  0.4506 -0.4310 -0.5901
 2095SOL    HW2 7707   7.559   7.735   1.542 -0.7361 -0.0605 -0.3860
 2096SOL     OW 7708   9.248   4.926   7.891  0.0916  0.1391  0.7962
 2096SOL    HW1 7709   9.152   4.926   7.896  0.0242  1.7582  0.0553
 2096SOL    HW2 7710   9.271   5.015   7.864  1.8087 -0.2548  0.8367
 2097SOL     OW 7711   8.281   0.589   6.935  0.5776  0.2415 -0.0217
 2097SOL    HW1 7712   8.189   0.600   6.959  0.9824 -0.2359  1.9555
 2097SOL    HW2 7713   8.280   0.523   6.866 -0.5280 -0.1857  0.3746
 2098SOL     OW 7714   5.184   8.837   2.700  0.2265 -0.0189  0.3766
 2098SOL    HW1 7715   5.267   8.850   2.746 -0.7349  1.5463  1.7536
 2098SOL    HW2 7716   5.177   8.913   2.642 -0.4325  0.0628  0.5621
 2099SOL     OW 7717   6.940   2.308   0.138  0.0699 -0.2173  0.1734
 2099SOL    HW1 7718   6.964   2.308   0.230 -0.3087  1.9617  0.3332
 2099SOL    HW2 7719   6.858   2.259   0.134  0.4672 -0.9410  0.8758
 2100SOL     OW 7720   0.560   6.985   6.810 -0.1793  0.2141 -0.4017
 2100SOL    HW1 7721   0.640   6.937   6.828 -0.7537 -0.0591  1.6225
 2100SOL    HW2 7722   0.522   6.941   6.733 -1.0867 -3.2013  1.8024
 2101SOL     OW 7723   7.466   7.742   5.582 -0.4826  0.0806 -0.2706
 2101SOL    HW1 7724   7.507   7.656   5.575 -0.6755 -0.3476  2.5255
 2101SOL    HW2 7725   7.539   7.803   5.594 -0.4088 -0.3596  2.1688
 2102SOL     OW 7726   7.563   4.400   5.476 -0.3378 -0.1636  0.0018
 2102SOL    HW1 7727   7.586   4.356   5.557 -2.2105 -1.2627 -0.0190
 2102SOL    HW2 7728   7.497   4.465   5.502  0.4768  0.8558 -0.3782
 2103SOL     OW 7729   0.548   0.390   7.020 -0.6321 -0.3056  0.0537
 2103SOL    HW1 7730   0.567   0.404   6.927 -1.0337 -0.2393 -0.0176
 2103SOL    HW2 7731   0.453   0.382   7.024 -0.5427 -1.2944  0.3263
 2104SOL     OW 7732   6.212   8.229   0.377  0.5815  0.4414  0.0492
 2104SOL    HW1 7733   6.164   8.207   0.297 -1.2960  1.1150  0.9171
 2104SOL    HW2 7734   6.225   8.323   0.371 -0.2893  0.6285  0.8726
 2105SOL     OW 7735   8.866   4.947   0.199  0.1183  0.3893 -0.2800
 2105SOL    HW1 7736   8.872   4.993   0.282 -1.2483 -0.0565  0.0949
 2105SOL    HW2 7737   8.776   4.913   0.197  0.3082 -0.0914 -1.6779
 2106SOL     OW 7738   8.597   6.508   6.179  0.9498  0.2761  0.3734
 2106SOL    HW1 7739   8.593   6.419   6.214 -1.7552  0.4204  0.6456
 2106SOL    HW2 7740   8.594   6.565   6.256  0.8707  0.6122  0.1261
 2107SOL     OW 7741   5.448   0.482   5.772  0.0226  0.4330 -0.3608
 2107SOL    HW1 7742   5.532   0.441   5.748 -0.2844 -0.2505 -0.3089
 2107SOL    HW2 7743   5.460   0.575   5.755 -0.4765 -0.0526 -4.2224
 2108SOL     OW 7744   0.632   8.572   5.487 -0.7197 -0.0561  0.0346
 2108SOL    HW1 7745   0.597   8.483   5.493 -2.7267  0.5336 -1.5244
 2108SOL    HW2 7746   0.616   8.598   5.396  0.6763  1.5825  0.2048
 2109SOL     OW 7747   6.760   7.185   4.424  0.2271  0.0971 -0.0368
 2109SOL    HW1 7748   6.720   7.098   4.415 -1.3390  0.4350  2.6366
 2109SOL    HW2 7749   6.843   7.167   4.468  0.9626 -0.1820 -1.4643
 2110SOL     OW 7750   3.551   1.527   1.792 -0.0438  0.7585 -0.0723
 2110SOL    HW1 7751   3.607   1.476   1.734  1.8776  0.5569  1.8254
 2110SOL    HW2 7752   3.602   1.535   1.873 -2.8542  0.3815  1.8717
 2111SOL     OW 7753   6.571   6.168   2.688 -0.6831  0.2258 -0.3120
 2111SOL    HW1 7754   6.610   6.094   2.734 -0.1163  0.3096 -0.6523
 2111SOL    HW2 7755   6.521   6.214   2.756  0.2504  0.4235  0.2658
 2112SOL     OW 7756   4.207   4.690   1.550  0.2861  0.6958 -0.2483
 2112SOL    HW1 7757   4.195   4.624   1.481  1.2972  1.7410 -1.4674
 2112SOL    HW2 7758   4.205   4.639   1.631  0.8289 -0.8264 -1.1382
 2113SOL     OW 7759   7.602   1.123   8.981 -0.2427  0.1958 -0.4782
 2113SOL    HW1 7760   7.600   1.215   9.009 -0.1253  0.3021 -0.8008
 2113SOL    HW2 7761   7.683   1.117   8.930 -1.2697  0.4476 -2.2277
 2114SOL     OW 7762   8.998   2.898   0.142 -0.5058  0.2705 -0.0081
 2114SOL    HW1 7763   9.013   2.805   0.157  2.1374  0.3546 -1.5111
 2114SOL    HW2 7764   8.946   2.901   0.061 -0.8216  0.1069  0.1868
 2115SOL     OW 7765   3.253   2.958   8.356  0.2707 -0.0814 -0.1694
 2115SOL    HW1 7766   3.211   3.021   8.414 -4.0021  1.0190 -3.8084
 2115SOL    HW2 7767   3.302   3.012   8.294  1.5288 -0.8697  0.1240
 2116SOL     OW 7768   0.985   8.937   1.550 -0.1073  0.0408  0.0944
 2116SOL    HW1 7769   1.026   8.991   1.482  0.1744  0.4453  0.5795
 2116SOL    HW2 7770   0.977   8.995   1.625  0.4328 -0.6624  0.7116
 2117SOL     OW 7771   0.767   4.748   1.641  0.2110  0.2111 -0.3676
 2117SOL    HW1 7772   0.748   4.835   1.605  0.4899  0.0455 -0.9296
 2117SOL    HW2 7773   0.784   4.694   1.564  2.7468  0.3068  0.0158
 2118SOL     OW 7774   5.314   1.765   4.425 -0.2952  0.0667 -0.2738
 2118SOL    HW1 7775   5.387   1.760   4.488 -1.3746  0.1724  1.0250
 2118SOL    HW2 7776   5.357   1.761   4.340  1.1944 -0.5087  0.4514
 2119SOL     OW 7777   6.203   0.228   3.821 -0.0640  0.3114 -0.4079
 2119SOL    HW1 7778   6.263   0.156   3.801 -0.9108 -0.5347  0.0107
 2119SOL    HW2 7779   6.117   0.194   3.800 -0.5178  1.0894  0.1279
 2120SOL     OW 7780   3.227   4.357   7.007 -0.6490  0.0061  0.3959
 2120SOL    HW1 7781   3.136   4.330   7.022 -1.1689  0.6163 -1.3994
 2120SOL    HW2 7782   3.249   4.322   6.921  0.7721  0.0457  0.7108
 2121SOL     OW 7783   0.145   0.908   4.295  0.6329  0.0106  0.5967
 2121SOL    HW1 7784   0.180   0.963   4.365  1.5609 -2.3189  2.0888
 2121SOL    HW2 7785   0.050   0.915   4.303  0.7109  2.0010  0.1761
 2122SOL     OW 7786   8.856   0.064   3.027  0.0843 -0.4065 -0.3027
 2122SOL    HW1 7787   8.784   0.046   3.088 -0.1311 -1.2142 -0.7759
 2122SOL    HW2 7788   8.828   0.024   2.945  0.1756  1.0414 -1.0701
 2123SOL     OW 7789   5.640   4.093   1.232 -0.9633 -0.1804 -0.1746
 2123SOL    HW1 7790   5.558   4.083   1.279 -1.3774  0.9734 -0.6161
 2123SOL    HW2 7791   5.617   4.144   1.154  0.3737  1.2968  0.3328
 2124SOL     OW 7792   3.468   1.889   8.011  0.1603  0.7417 -0.4487
 2124SOL    HW1 7793   3.555   1.927   7.998  0.4811  0.3860  0.5537
 2124SOL    HW2 7794   3.484   1.795   8.018 -0.3042  0.6737 -0.2592
 2125SOL     OW 7795   7.329   4.875   0.711  0.2119  0.2673  0.4455
 2125SOL    HW1 7796   7.236   4.886   0.691  0.3180  1.7120  0.6807
 2125SOL    HW2 7797   7.372   4.949   0.669  1.3853 -0.8130 -0.3491
 2126SOL     OW 7798   4.531   9.155   4.440  0.5339  0.0059  0.0349
 2126SOL    HW1 7799   4.544   9.152   4.346  1.4799 -1.3250  0.1887
 2126SOL    HW2 7800   4.530   9.249   4.461  3.0930  0.3240 -0.9325
 2127SOL     OW 7801   3.309   4.752   1.898  0.1448  0.6847 -0.0085
 2127SOL    HW1 7802   3.313   4.657   1.906  0.5451  0.7873  1.1405
 2127SOL    HW2 7803   3.396   4.778   1.870  1.4399  1.0271  3.7736
 2128SOL     OW 7804   1.133   0.210   4.652  0.2793 -0.3321 -0.1159
 2128SOL    HW1 7805   1.095   0.132   4.692  1.1553  0.1065  1.6390
 2128SOL    HW2 7806   1.083   0.283   4.689  1.9390  0.1668  1.2839
 2129SOL     OW 7807   5.110   0.035   4.910  0.7427  0.4895  0.6035
 2129SOL    HW1 7808   5.184   0.088   4.941  0.4545  1.8066 -0.8387
 2129SOL    HW2 7809   5.151  -0.039   4.865  1.1660  0.2372  1.3894
 2130SOL     OW 7810   4.671   0.683   2.750 -0.1406 -0.2596  0.1451
 2130SOL    HW1 7811   4.743   0.729   2.794  0.1011 -0.3851 -0.1139
 2130SOL    HW2 7812   4.713   0.609   2.707 -0.6517 -1.2172  1.2683
 2131SOL     OW 7813   0.383   9.204   2.954 -0.3822 -0.4681 -0.4197
 2131SOL    HW1 7814   0.292   9.198   2.982 -0.2915  0.0088 -0.0135
 2131SOL    HW2 7815   0.389   9.145   2.879 -0.8351 -1.1131  0.0374
 2132SOL     OW 7816   0.270   5.226   3.907  0.0203  0.2914 -0.2268
 2132SOL    HW1 7817   0.291   5.213   3.815 -2.3837 -0.1462 -0.7888
 2132SOL    HW2 7818   0.235   5.142   3.936 -1.0458  0.9710  0.5278
 2133SOL     OW 7819   8.754   6.542   7.056 -0.1310  0.1718 -0.0629
 2133SOL    HW1 7820   8.698   6.618   7.075  0.4392  0.6466 -0.2617
 2133SOL    HW2 7821   8.834   6.558   7.105  1.5762  1.6627 -3.0530
 2134SOL     OW 7822   3.435   5.664   3.007  0.6526 -0.2007 -0.2068
 2134SOL    HW1 7823   3.406   5.743   3.051  0.6422  0.2777 -1.0441
 2134SOL    HW2 7824   3.474   5.610   3.076 -0.5783 -0.0693  0.6149
 2135SOL     OW 7825   1.299   2.034   2.260  0.1384 -0.0391 -0.4088
 2135SOL    HW1 7826   1.247   2.102   2.217 -0.6026 -0.5449 -0.3275
 2135SOL    HW2 7827   1.284   2.049   2.354 -1.3121 -1.2792 -0.4145
 2136SOL     OW 7828   6.791   4.878   2.371  0.0831 -0.1072 -0.5541
 2136SOL    HW1 7829   6.816   4.880   2.463 -0.8925 -2.2198 -0.1893
 2136SOL    HW2 7830   6.711   4.931   2.367 -0.1723 -0.4512 -0.0828
 2137SOL     OW 7831   2.419   2.568   7.777  0.1966 -0.3976 -0.5413
 2137SOL    HW1 7832   2.352   2.626   7.741 -0.3430 -0.3953  0.4332
 2137SOL    HW2 7833   2.500   2.619   7.769 -0.2419  0.4434  0.1491
 2138SOL     OW 7834   5.396   8.827   5.484  0.3321 -0.4547 -0.4486
 2138SOL    HW1 7835   5.422   8.789   5.400 -0.2185  2.5284 -2.0760
 2138SOL    HW2 7836   5.477   8.861   5.521  0.2329  0.2078 -0.8414
 2139SOL     OW 7837   5.310   7.701   9.025  0.3988  0.5138  0.1635
 2139SOL    HW1 7838   5.377   7.725   8.961 -0.2840  2.5161  0.1082
 2139SOL    HW2 7839   5.227   7.716   8.979 -0.2438 -3.5138 -0.3709
 2140SOL     OW 7840   8.475   4.107   5.769  0.5462 -0.4356  0.5486
 2140SOL    HW1 7841   8.493   4.201   5.771  1.8227 -0.6573  0.2254
 2140SOL    HW2 7842   8.454   4.089   5.677 -0.3167 -0.3687  0.7253
 2141SOL     OW 7843   2.486   2.514   8.968  0.6097 -0.2987 -0.1924
 2141SOL    HW1 7844   2.481   2.515   9.064 -0.1124  1.3752 -0.2191
 2141SOL    HW2 7845   2.456   2.426   8.944 -0.8060 -0.2036  1.0543
 2142SOL     OW 7846   3.172   5.279   8.374 -0.2603 -0.3075 -0.2084
 2142SOL    HW1 7847   3.155   5.372   8.391 -0.5594 -0.4659  0.3894
 2142SOL    HW2 7848   3.267   5.274   8.363 -0.0155 -0.2048  1.6024
 2143SOL     OW 7849   9.150   8.525   8.104 -0.2197  0.2496  0.0464
 2143SOL    HW1 7850   9.136   8.617   8.081 -0.6169  0.4561  1.0663
 2143SOL    HW2 7851   9.235   8.504   8.066 -0.6301  0.6967 -1.1850
 2144SOL     OW 7852   5.644   5.169   2.870 -0.3536  0.2008  0.1936
 2144SOL    HW1 7853   5.638   5.079   2.837 -1.1097  0.5423 -0.6536
 2144SOL    HW2 7854   5.574   5.175   2.935 -1.7248  0.7671 -1.2697
 2145SOL     OW 7855   4.614   3.032   3.592  0.0374  0.4478  0.2085
 2145SOL    HW1 7856   4.661   3.027   3.509  1.5658 -0.1192  1.0666
 2145SOL    HW2 7857   4.657   2.967   3.648  0.7834  2.5897  2.2745
 2146SOL     OW 7858   5.877   5.510   5.547  0.2149 -0.0628  0.2258
 2146SOL    HW1 7859   5.801   5.493   5.490 -0.4155 -1.1511  1.3362
 2146SOL    HW2 7860   5.878   5.436   5.608  3.3656 -1.1758 -0.9752
 2147SOL     OW 7861   1.827   2.416   1.916  0.2189  0.1216 -0.6940
 2147SOL    HW1 7862   1.786   2.337   1.879  0.2902 -0.2188 -0.0510
 2147SOL    HW2 7863   1.773   2.488   1.884 -0.9185 -0.3269  0.1939
 2148SOL     OW 7864   2.119   2.026   3.199  0.6866  0.6230 -0.7521
 2148SOL    HW1 7865   2.169   2.046   3.278 -1.6136  0.2980  0.8876
 2148SOL    HW2 7866   2.100   2.112   3.161 -0.6539  1.0466  0.7339
 2149SOL     OW 7867   0.342   3.165   6.766 -0.6747 -0.2029  0.1517
 2149SOL    HW1 7868   0.351   3.110   6.688 -2.0332  0.6546 -0.6422
 2149SOL    HW2 7869   0.339   3.254   6.732 -1.5692  0.1688  1.1566
 2150SOL     OW 7870   6.610   1.099   2.962  0.3462  0.2845  0.3940
 2150SOL    HW1 7871   6.690   1.148   2.943  1.9524 -1.6177  1.8687
 2150SOL    HW2 7872   6.567   1.151   3.030  1.2546  0.4578  0.8624
 2151SOL     OW 7873   1.179   6.673   2.602 -0.1191 -0.0851 -0.1652
 2151SOL    HW1 7874   1.093   6.698   2.568  0.8748  0.6139 -2.3300
 2151SOL    HW2 7875   1.199   6.590   2.558  0.7676  0.3189 -0.5488
 2152SOL     OW 7876   6.781   2.308   6.572  0.4541 -0.2654  0.7583
 2152SOL    HW1 7877   6.750   2.392   6.606 -3.7024 -0.6548 -1.5131
 2152SOL    HW2 7878   6.752   2.306   6.481  2.0889 -3.4511  0.1457
 2153SOL     OW 7879   5.757   4.739   0.392  0.2807  0.8574 -0.1061
 2153SOL    HW1 7880   5.706   4.694   0.324 -0.7466 -1.8911  2.2412
 2153SOL    HW2 7881   5.842   4.696   0.391  0.5356  1.3598 -0.1722
 2154SOL     OW 7882   2.250   5.021   6.850  0.2987 -0.3519 -0.3724
 2154SOL    HW1 7883   2.298   4.943   6.822  2.2642  0.5182  0.4189
 2154SOL    HW2 7884   2.251   5.017   6.946  0.9930  0.9469 -0.3030
 2155SOL     OW 7885   4.259   3.164   0.120 -0.0547  0.2982 -0.1164
 2155SOL    HW1 7886   4.220   3.184   0.035  0.5453  1.5487 -0.1269
 2155SOL    HW2 7887   4.343   3.212   0.119  1.1215 -1.6557  0.2077
 2156SOL     OW 7888   9.033   7.416   6.237 -0.2448 -0.0480  0.3710
 2156SOL    HW1 7889   8.955   7.388   6.284  0.3083 -0.7337  0.8829
 2156SOL    HW2 7890   9.082   7.469   6.300  0.4197 -0.8382  0.5396
 2157SOL     OW 7891   0.814   1.874   2.954 -0.0365  0.5135 -0.1332
 2157SOL    HW1 7892   0.905   1.845   2.958 -0.4256 -0.6422  2.7116
 2157SOL    HW2 7893   0.815   1.962   2.990 -0.1010  0.2662  0.4854
 2158SOL     OW 7894   8.429   6.630   8.608 -0.8161  0.4939  0.1209
 2158SOL    HW1 7895   8.438   6.535   8.612 -0.7186  0.3688 -2.1470
 2158SOL    HW2 7896   8.518   6.663   8.613 -0.4901  0.2323 -2.5271
 2159SOL     OW 7897   0.840   6.273   0.726 -0.0916  0.4103 -0.3659
 2159SOL    HW1 7898   0.831   6.183   0.696 -2.4611  0.8430 -1.1677
 2159SOL    HW2 7899   0.878   6.319   0.651 -0.4134  0.3758 -0.5518
 2160SOL     OW 7900   8.280   5.751   2.587 -0.1129 -0.2328  0.4679
 2160SOL    HW1 7901   8.218   5.725   2.519  1.4782 -1.2627 -0.6629
 2160SOL    HW2 7902   8.312   5.668   2.623  0.0910  0.2870  1.5341
 2161SOL     OW 7903   7.696   7.370   2.119 -0.1893  0.2850  0.0551
 2161SOL    HW1 7904   7.746   7.327   2.188 -2.5166 -1.3381  0.8573
 2161SOL    HW2 7905   7.762   7.413   2.064  1.8316  0.3268  2.3807
 2162SOL     OW 7906   3.604   0.610   8.662  0.3213 -0.2667  0.1872
 2162SOL    HW1 7907   3.627   0.593   8.571  0.8484 -0.1108  0.2869
 2162SOL    HW2 7908   3.673   0.567   8.712  0.8212  0.8458  0.4814
 2163SOL     OW 7909   3.264   6.762   8.862  1.1747 -0.2412 -0.2784
 2163SOL    HW1 7910   3.286   6.853   8.842  0.9898 -0.0674  0.2871
 2163SOL    HW2 7911   3.240   6.763   8.955 -1.9691 -0.2890 -1.0059
 2164SOL     OW 7912   2.653   1.247   7.084  0.1592 -0.3850  0.4246
 2164SOL    HW1 7913   2.679   1.160   7.115 -1.2077 -0.9643  0.0145
 2164SOL    HW2 7914   2.724   1.305   7.112  1.9338 -1.8931 -0.7717
 2165SOL     OW 7915   8.876   1.384   1.950 -0.0053 -0.4349  0.4813
 2165SOL    HW1 7916   8.805   1.330   1.983  0.7074 -1.0508  1.0505
 2165SOL    HW2 7917   8.954   1.353   1.996  0.2977  1.6876  1.5237
 2166SOL     OW 7918   4.674   5.203   1.586 -0.5851  0.0045 -0.4305
 2166SOL    HW1 7919   4.642   5.286   1.549 -0.3580  0.4564  0.3742
 2166SOL    HW2 7920   4.628   5.194   1.669  1.6760  0.9207  1.0023
 2167SOL     OW 7921   6.759   8.532   4.642 -0.4411  0.1006  0.3312
 2167SOL    HW1 7922   6.843   8.489   4.624 -0.9236 -1.6557  1.9153
 2167SOL    HW2 7923   6.726   8.558   4.557  1.7615  0.9516 -0.3285
 2168SOL     OW 7924   5.990   9.121   6.920  0.2472  0.5432  0.1983
 2168SOL    HW1 7925   5.959   9.040   6.878 -0.1924  1.0396 -0.4702
 2168SOL    HW2 7926   6.042   9.091   6.994 -1.4167 -0.3631  1.0835
 2169SOL     OW 7927   9.043   2.973   4.704  0.2041 -0.1159 -0.2313
 2169SOL    HW1 7928   9.053   3.065   4.681 -1.1430  0.3642  0.9140
 2169SOL    HW2 7929   8.952   2.966   4.733  0.6799 -1.4890  1.0495
 2170SOL     OW 7930   4.033   7.187   2.414  0.4373  0.0707 -0.6003
 2170SOL    HW1 7931   4.052   7.139   2.333 -1.3337  1.7404 -2.1161
 2170SOL    HW2 7932   4.013   7.276   2.385  1.0766  1.0881  1.8453
 2171SOL     OW 7933   7.964   8.441   3.779 -0.0745 -0.9213 -0.6503
 2171SOL    HW1 7934   7.974   8.535   3.765  1.7856 -1.0527 -0.5800
 2171SOL    HW2 7935   8.021   8.401   3.712 -0.0041 -1.9459 -0.0072
 2172SOL     OW 7936   0.076   2.128   9.199  0.5642  0.0322  0.5381
 2172SOL    HW1 7937   0.013   2.068   9.239 -0.2020  0.7878  0.5164
 2172SOL    HW2 7938   0.058   2.212   9.241  0.2092  0.6946 -0.8759
 2173SOL     OW 7939   0.986   0.147   6.119  0.3751  0.3267 -0.1233
 2173SOL    HW1 7940   1.025   0.235   6.115  0.5749  0.2298 -0.3572
 2173SOL    HW2 7941   1.062   0.089   6.128  0.2413  0.1812  0.0460
 2174SOL     OW 7942   8.857   2.634   5.312 -0.1481 -0.5607  0.4551
 2174SOL    HW1 7943   8.950   2.612   5.320 -0.0098 -1.4582 -2.5218
 2174SOL    HW2 7944   8.856   2.722   5.275 -0.4421 -0.7060  0.1013
 2175SOL     OW 7945   3.476   7.969   2.708  0.3147  0.1038 -0.0005
 2175SOL    HW1 7946   3.524   7.982   2.626  0.1575 -1.4842 -0.3692
 2175SOL    HW2 7947   3.456   7.875   2.710  0.0540  0.1603  1.7155
 2176SOL     OW 7948   8.422   1.558   5.300  0.5354  0.0590  0.4508
 2176SOL    HW1 7949   8.368   1.513   5.236  0.0285 -1.4738  1.8905
 2176SOL    HW2 7950   8.361   1.619   5.343  0.1259 -1.0532  1.4855
 2177SOL     OW 7951   0.748   3.546   7.127 -0.0907 -0.4010 -0.1523
 2177SOL    HW1 7952   0.760   3.621   7.185 -3.5213  0.2712 -0.0859
 2177SOL    HW2 7953   0.743   3.470   7.186  0.9609 -0.3598 -0.0028
 2178SOL     OW 7954   4.039   4.992   6.561 -0.6516  0.4458  0.1281
 2178SOL    HW1 7955   4.078   4.986   6.474  2.9210 -0.1599  1.5852
 2178SOL    HW2 7956   3.968   4.927   6.560 -0.4637  0.1960 -2.1718
 2179SOL     OW 7957   5.171   2.630   4.609 -0.2127 -0.6923 -0.2832
 2179SOL    HW1 7958   5.204   2.661   4.525 -0.6121 -0.9752 -0.5417
 2179SOL    HW2 7959   5.076   2.640   4.604 -0.2806 -1.1801 -0.0599
 2180SOL     OW 7960   2.666   7.356   8.512 -0.1365  0.2303 -0.3204
 2180SOL    HW1 7961   2.701   7.372   8.425  0.4891  0.9057  0.0361
 2180SOL    HW2 7962   2.709   7.422   8.567 -1.1479  0.3665  0.3447
 2181SOL     OW 7963   3.808   1.115   1.736 -0.0942 -0.1341  0.3654
 2181SOL    HW1 7964   3.734   1.055   1.743  0.5697 -1.0464 -0.1679
 2181SOL    HW2 7965   3.848   1.114   1.823 -1.7011  1.7562  1.2131
 2182SOL     OW 7966   1.821   7.259   3.078 -0.2989 -0.7728 -0.0008
 2182SOL    HW1 7967   1.781   7.307   3.006 -0.4957 -1.6954 -0.5171
 2182SOL    HW2 7968   1.752   7.201   3.110 -0.2549 -0.2917  1.0258
 2183SOL     OW 7969   3.896   3.972   3.201  0.2276 -0.1050 -0.7313
 2183SOL    HW1 7970   3.859   4.026   3.271  1.3692 -0.1831 -0.0484
 2183SOL    HW2 7971   3.820   3.929   3.162 -0.5560  0.9110 -0.3714
 2184SOL     OW 7972   3.655   6.433   4.395  0.1707 -0.1520  0.0732
 2184SOL    HW1 7973   3.707   6.458   4.471  0.4970  0.8201 -0.4586
 2184SOL    HW2 7974   3.603   6.358   4.425  2.2249 -1.5053  0.4650
 2185SOL     OW 7975   8.491   8.024   7.167  0.3348 -0.6423 -0.9234
 2185SOL    HW1 7976   8.442   8.006   7.247  1.5296  0.9245  0.2400
 2185SOL    HW2 7977   8.541   7.944   7.151  0.4958 -0.7944  0.2389
 2186SOL     OW 7978   7.329   9.265   8.857 -1.1167 -0.1358 -0.4152
 2186SOL    HW1 7979   7.282   9.182   8.866 -1.4774  0.0950 -0.1071
 2186SOL    HW2 7980   7.404   9.257   8.916 -1.4163 -0.0652 -0.0164
 2187SOL     OW 7981   9.207   5.308   8.899 -0.8436 -0.3030  0.3496
 2187SOL    HW1 7982   9.211   5.324   8.805 -0.4792  1.8001  0.6764
 2187SOL    HW2 7983   9.263   5.376   8.937 -0.6701 -1.3597  2.0667
 2188SOL     OW 7984   5.981   6.387   3.415 -0.2795 -0.7655 -0.3064
 2188SOL    HW1 7985   5.925   6.313   3.391 -0.2180 -1.0589  0.4205
 2188SOL    HW2 7986   5.970   6.395   3.510 -0.1190  0.0227 -0.3470
 2189SOL     OW 7987   3.370   6.083   7.247 -0.3985  0.0278 -0.1668
 2189SOL    HW1 7988   3.292   6.078   7.192  0.8451  0.1616 -2.0643
 2189SOL    HW2 7989   3.368   6.170   7.285 -1.0049  0.1424 -0.4523
 2190SOL     OW 7990   4.072   2.575   0.119  0.7837 -0.4126  0.5241
 2190SOL    HW1 7991   4.033   2.533   0.042 -0.4765  1.6767 -0.0436
 2190SOL    HW2 7992   4.083   2.666   0.093  1.2876  0.1275  2.4940
 2191SOL     OW 7993   4.051   0.484   2.875  0.2399  0.1573 -0.1052
 2191SOL    HW1 7994   4.135   0.523   2.900  1.0322 -1.2396 -0.4272
 2191SOL    HW2 7995   4.011   0.548   2.817  1.5513  0.4360 -0.7421
 2192SOL     OW 7996   6.815   1.903   8.708  0.3833  0.3003 -0.0477
 2192SOL    HW1 7997   6.744   1.841   8.689 -0.4519  1.3116 -0.3126
 2192SOL    HW2 7998   6.868   1.903   8.629  1.8931 -1.9531  0.8406
 2193SOL     OW 7999   6.568   3.698   7.130  0.5931 -0.2146  0.1830
 2193SOL    HW1 8000   6.588   3.626   7.190  0.8394 -0.3137 -0.0156
 2193SOL    HW2 8001   6.559   3.775   7.187 -1.4091 -0.7038  0.5962
 2194SOL     OW 8002   8.853   6.316   9.061  0.1809  0.1547 -0.7245
 2194SOL    HW1 8003   8.912   6.370   9.008  0.7869  0.4916  0.2626
 2194SOL    HW2 8004   8.766   6.351   9.043  0.5431  1.3221 -0.2766
 2195SOL     OW 8005   4.243   6.151   6.602  0.3503  0.2822 -0.4267
 2195SOL    HW1 8006   4.271   6.092   6.531  1.2845  0.6363 -0.3687
 2195SOL    HW2 8007   4.209   6.228   6.556  0.1871  0.1724 -0.4924
 2196SOL     OW 8008   0.526   4.990   7.321 -0.0230  0.2728  0.0121
 2196SOL    HW1 8009   0.509   4.929   7.249 -0.1384 -0.6418  0.7999
 2196SOL    HW2 8010   0.467   4.962   7.391  1.1704  0.1617  1.0134
 2197SOL     OW 8011   5.868   4.509   4.124  0.3435  0.0464 -0.6000
 2197SOL    HW1 8012   5.952   4.528   4.081 -0.0541  1.0189 -0.9811
 2197SOL    HW2 8013   5.861   4.577   4.191  0.3276 -0.6473  0.1085
 2198SOL     OW 8014   8.182   8.829   8.024 -0.1676 -0.2085 -0.9142
 2198SOL    HW1 8015   8.200   8.915   7.984 -0.3521  0.6271  0.6935
 2198SOL    HW2 8016   8.128   8.850   8.100  1.9322 -1.4561  1.0352
 2199SOL     OW 8017   3.356   6.279   5.229  0.2281 -0.7478 -0.5346
 2199SOL    HW1 8018   3.439   6.251   5.267  0.7499 -0.6136 -1.5390
 2199SOL    HW2 8019   3.321   6.342   5.292  0.4921 -1.3989  0.2826
 2200SOL     OW 8020   3.350   7.516   2.481 -0.0613  0.4102  0.1483
 2200SOL    HW1 8021   3.315   7.427   2.485 -0.9015  0.7178 -0.0663
 2200SOL    HW2 8022   3.445   7.505   2.487  0.0129 -0.6777 -2.0439
 2201SOL     OW 8023   0.020   6.714   3.178  0.6672 -0.7024 -0.3328
 2201SOL    HW1 8024   0.097   6.671   3.216  0.1251 -1.4116 -0.0064
 2201SOL    HW2 8025   0.030   6.700   3.084 -0.1663 -2.7747 -0.1668
 2202SOL     OW 8026   5.376   1.102   8.224  0.3581 -0.3873 -0.5662
 2202SOL    HW1 8027   5.327   1.171   8.181 -0.6967 -0.6761  0.1133
 2202SOL    HW2 8028   5.461   1.140   8.243  0.8105 -0.2142 -2.7393
 2203SOL     OW 8029   5.615   0.046   8.362 -0.5058  0.8099 -0.1158
 2203SOL    HW1 8030   5.548  -0.020   8.350 -2.1319  2.5976 -1.5284
 2203SOL    HW2 8031   5.595   0.085   8.448 -3.5482  3.5663 -1.8578
 2204SOL     OW 8032   8.786   1.601   1.124  0.1777  0.1657  0.2475
 2204SOL    HW1 8033   8.874   1.604   1.161 -0.4086 -1.8666  1.9765
 2204SOL    HW2 8034   8.776   1.686   1.080  3.0261  0.3824 -0.1783
 2205SOL     OW 8035   0.696   4.021   1.924 -0.0411 -0.6404  0.4279
 2205SOL    HW1 8036   0.744   4.069   1.856 -0.2556 -0.6479  0.2673
 2205SOL    HW2 8037   0.609   4.061   1.923 -0.3998 -1.4072 -0.1082
 2206SOL     OW 8038   0.409   4.012   2.371 -0.0978  0.5485  0.1743
 2206SOL    HW1 8039   0.475   4.075   2.341 -0.5287  0.3604 -1.2529
 2206SOL    HW2 8040   0.361   3.989   2.292 -0.4197 -1.0301  0.7943
 2207SOL     OW 8041   8.981   2.264   4.183  0.1763  0.1213  0.2420
 2207SOL    HW1 8042   8.900   2.237   4.140  0.7372  0.4856 -1.0941
 2207SOL    HW2 8043   8.962   2.350   4.219 -0.4064 -0.3356  1.0443
 2208SOL     OW 8044   5.185   3.662   3.760 -0.0248 -0.0658  0.1077
 2208SOL    HW1 8045   5.134   3.726   3.711 -0.3016 -0.8226 -0.6187
 2208SOL    HW2 8046   5.148   3.663   3.848 -0.6501  0.0847 -0.1570
 2209SOL     OW 8047   5.878   8.062   6.297  0.5585 -0.4626  0.3658
 2209SOL    HW1 8048   5.895   7.968   6.304  1.9690 -0.2403  0.3027
 2209SOL    HW2 8049   5.817   8.070   6.224 -0.6643 -1.4181  1.2253
 2210SOL     OW 8050   2.964   2.937   7.553  0.6077  0.2215  0.0215
 2210SOL    HW1 8051   2.930   2.849   7.570 -1.2224  0.6641 -1.0797
 2210SOL    HW2 8052   3.026   2.952   7.624  1.8771 -2.3942 -0.4141
 2211SOL     OW 8053   0.408   8.446   2.865 -0.3802 -0.7931  0.4381
 2211SOL    HW1 8054   0.389   8.369   2.919 -1.5821 -1.6433 -1.1035
 2211SOL    HW2 8055   0.362   8.429   2.782  0.2119  1.1057 -0.3341
 2212SOL     OW 8056   0.007   0.164   8.461 -0.2166 -0.0148  0.5430
 2212SOL    HW1 8057  -0.071   0.109   8.462  0.4558 -1.0041  1.5448
 2212SOL    HW2 8058   0.055   0.139   8.539  0.1136  2.0588  1.0773
 2213SOL     OW 8059   4.409   8.902   4.554  0.1180  0.3873  0.4916
 2213SOL    HW1 8060   4.444   8.847   4.484 -2.2778  0.0045 -0.4954
 2213SOL    HW2 8061   4.444   8.989   4.537 -1.9392  0.7964 -2.4963
 2214SOL     OW 8062   2.902   0.851   5.544  0.0002 -0.6842 -0.6346
 2214SOL    HW1 8063   2.853   0.933   5.542  0.2393 -0.5359 -0.4218
 2214SOL    HW2 8064   2.919   0.834   5.637  2.6800  0.6677 -0.7682
 2215SOL     OW 8065   7.233   4.153   7.693 -0.0721 -0.8471  0.1680
 2215SOL    HW1 8066   7.155   4.192   7.653 -0.1278 -2.5371 -1.4539
 2215SOL    HW2 8067   7.200   4.109   7.771 -0.5067 -0.4337  0.2253
 2216SOL     OW 8068   6.721   8.719   3.784  0.0759 -0.3583  0.7885
 2216SOL    HW1 8069   6.722   8.708   3.689 -0.1464 -2.3089  0.9508
 2216SOL    HW2 8070   6.804   8.682   3.813  0.1795  0.3055  1.3424
 2217SOL     OW 8071   1.552   5.140   8.375  0.4339  0.0801 -0.6494
 2217SOL    HW1 8072   1.531   5.227   8.340 -0.4767 -0.9424 -2.8393
 2217SOL    HW2 8073   1.630   5.113   8.326 -0.8796 -1.4005 -2.0443
 2218SOL     OW 8074   8.690   0.893   2.256 -0.3982  0.2376  0.7238
 2218SOL    HW1 8075   8.771   0.942   2.242 -0.8225  0.8039  0.2604
 2218SOL    HW2 8076   8.650   0.934   2.333 -0.1175 -0.2303  1.1346
 2219SOL     OW 8077   3.765   6.120   7.194 -0.4549 -0.0668 -0.1495
 2219SOL    HW1 8078   3.832   6.186   7.211  1.9192 -2.3106 -0.1455
 2219SOL    HW2 8079   3.701   6.133   7.264  0.1300  1.9073  0.1009
 2220SOL     OW 8080   2.825   5.690   7.706  0.1585  0.2944 -0.0661
 2220SOL    HW1 8081   2.803   5.745   7.631  0.0763 -1.1462 -1.1366
 2220SOL    HW2 8082   2.792   5.603   7.683 -0.8345  0.0382  2.1129
 2221SOL     OW 8083   1.621   3.273   8.430 -0.7192  0.1641  0.1490
 2221SOL    HW1 8084   1.624   3.183   8.397 -0.4933  0.3681 -0.4058
 2221SOL    HW2 8085   1.554   3.316   8.377 -0.2162  0.5490 -0.1804
 2222SOL     OW 8086   4.831   4.974   1.708  0.4406  0.3867 -0.3432
 2222SOL    HW1 8087   4.797   5.025   1.634 -0.0153  0.7646  0.1225
 2222SOL    HW2 8088   4.779   4.893   1.707 -0.1027  0.7304  0.0400
 2223SOL     OW 8089   5.258   4.484   5.835 -0.2552  0.5083  0.2592
 2223SOL    HW1 8090   5.265   4.460   5.928 -0.1862 -2.3786 -0.4035
 2223SOL    HW2 8091   5.171   4.524   5.828 -0.0879  1.1825  1.6110
 2224SOL     OW 8092   6.713   1.706   7.619 -0.2495  0.0713 -0.4271
 2224SOL    HW1 8093   6.765   1.753   7.685 -2.0285  0.1969  0.9669
 2224SOL    HW2 8094   6.727   1.614   7.640 -1.2392  0.1142  0.5440
 2225SOL     OW 8095   6.469   2.553   8.277  0.2971  0.5034 -0.1638
 2225SOL    HW1 8096   6.444   2.483   8.337  0.2223 -1.7867 -2.6683
 2225SOL    HW2 8097   6.392   2.565   8.221  1.6849 -0.4732 -2.4255
 2226SOL     OW 8098   9.054   8.798   3.944 -0.8923 -0.3345 -0.2248
 2226SOL    HW1 8099   8.961   8.804   3.968 -0.6355  0.8196  0.5523
 2226SOL    HW2 8100   9.101   8.823   4.023  0.0276  1.2935 -1.2166
 2227SOL     OW 8101   2.969   7.956   7.723  0.2522 -0.0715  0.2732
 2227SOL    HW1 8102   2.923   8.039   7.711  1.9525  0.8935  0.1208
 2227SOL    HW2 8103   3.050   7.980   7.770  2.0336 -1.2065 -2.0310
 2228SOL     OW 8104   4.065   8.148   1.263  0.2554  0.0382  0.4602
 2228SOL    HW1 8105   4.083   8.166   1.355  1.9747  2.0161 -0.1954
 2228SOL    HW2 8106   3.980   8.104   1.263  0.1617  0.1029  2.9552
 2229SOL     OW 8107   7.646   5.108   1.145 -0.1421  0.6980 -0.0781
 2229SOL    HW1 8108   7.714   5.173   1.128  0.5859 -0.2371 -0.8331
 2229SOL    HW2 8109   7.642   5.056   1.064 -2.5344  1.4098 -0.4989
 2230SOL     OW 8110   8.133   0.303   4.559  0.0929 -0.1401 -0.3008
 2230SOL    HW1 8111   8.079   0.293   4.481 -0.2323  1.8192 -0.3891
 2230SOL    HW2 8112   8.221   0.322   4.525 -0.0310  0.6267 -0.2197
 2231SOL     OW 8113   7.637   1.113   4.297  0.0277  0.8816  0.0543
 2231SOL    HW1 8114   7.583   1.033   4.294  2.5826 -0.9381 -1.5031
 2231SOL    HW2 8115   7.646   1.140   4.206  0.8926  1.7249  0.3729
 2232SOL     OW 8116   3.055   0.767   8.014  0.0528  0.8008  0.0487
 2232SOL    HW1 8117   3.019   0.762   8.103  1.7274  1.3423  0.8222
 2232SOL    HW2 8118   3.120   0.697   8.011 -1.4407 -0.5697 -1.5148
 2233SOL     OW 8119   7.987   7.620   2.700  0.0757 -0.1834 -0.0121
 2233SOL    HW1 8120   8.057   7.554   2.699 -0.1945 -0.4714 -0.7591
 2233SOL    HW2 8121   8.014   7.683   2.634  0.9063  1.0933  1.4868
 2234SOL     OW 8122   7.124   8.892   4.821  0.0801  0.0506 -0.2235
 2234SOL    HW1 8123   7.117   8.899   4.726  2.4528 -1.0445 -0.5710
 2234SOL    HW2 8124   7.034   8.884   4.852 -0.6958 -3.1476 -2.7329
 2235SOL     OW 8125   6.287   9.210   8.607 -0.4308 -0.2225 -0.1631
 2235SOL    HW1 8126   6.307   9.254   8.689  1.0419  1.7580 -1.4916
 2235SOL    HW2 8127   6.247   9.127   8.633  0.0758  0.2968  2.5250
 2236SOL     OW 8128   3.053   9.156   2.497 -0.3494  0.0497  0.1341
 2236SOL    HW1 8129   3.064   9.130   2.588 -0.0803  1.6580  0.5897
 2236SOL    HW2 8130   3.142   9.155   2.461 -0.3478  0.2980  0.1349
 2237SOL     OW 8131   7.195   7.856   7.300 -0.2931 -0.3883  0.2590
 2237SOL    HW1 8132   7.271   7.826   7.249 -0.4784  1.2116 -1.0106
 2237SOL    HW2 8133   7.199   7.803   7.380  0.3314 -2.5886 -1.1214
 2238SOL     OW 8134   0.181   0.478   4.612  0.4478 -0.0366  0.7390
 2238SOL    HW1 8135   0.106   0.451   4.560  1.1331  0.1285 -0.3592
 2238SOL    HW2 8136   0.255   0.428   4.576  1.3013  1.5551  0.2224
 2239SOL     OW 8137   2.229   3.188   5.247  0.4997 -0.0961  0.4158
 2239SOL    HW1 8138   2.237   3.156   5.158  1.4311 -0.2624  0.5541
 2239SOL    HW2 8139   2.135   3.206   5.258  0.5208  1.0914 -0.9978
 2240SOL     OW 8140   1.472   5.734   9.243 -0.5904 -0.3487 -0.1980
 2240SOL    HW1 8141   1.510   5.780   9.318 -0.3770  0.2794 -0.6845
 2240SOL    HW2 8142   1.463   5.643   9.273  0.7640 -0.3936  0.1307
 2241SOL     OW 8143   1.215   7.632   6.512 -0.0774  0.2196  0.2055
 2241SOL    HW1 8144   1.281   7.611   6.446 -1.1432 -0.5416 -0.6386
 2241SOL    HW2 8145   1.135   7.590   6.481 -1.2551  2.0445  0.6289
 2242SOL     OW 8146   1.806   2.926   1.675  0.1110 -0.5108 -0.0518
 2242SOL    HW1 8147   1.743   2.996   1.658 -0.4710 -0.7770  0.9199
 2242SOL    HW2 8148   1.888   2.971   1.693 -0.4233 -0.0184  1.2938
 2243SOL     OW 8149   8.949   0.939   4.047  0.2935 -0.1564  0.0195
 2243SOL    HW1 8150   8.915   0.911   3.962 -0.1053  0.2461  0.0415
 2243SOL    HW2 8151   8.969   0.858   4.094 -0.0434 -0.3864 -0.2365
 2244SOL     OW 8152   8.507   2.663   0.862  0.4331 -0.6589 -0.4630
 2244SOL    HW1 8153   8.549   2.746   0.886 -1.6635 -0.1471  1.8921
 2244SOL    HW2 8154   8.578   2.611   0.825  2.7156  0.8191  1.4625
 2245SOL     OW 8155   2.472   4.460   5.352 -0.1941  0.2081  0.2276
 2245SOL    HW1 8156   2.555   4.421   5.382 -0.3781  0.8028  1.6104
 2245SOL    HW2 8157   2.472   4.548   5.391 -0.5068  1.0328 -1.5216
 2246SOL     OW 8158   1.558   8.515   5.758 -0.1877  0.6666  0.2474
 2246SOL    HW1 8159   1.605   8.559   5.686  0.0389  0.1732  0.0893
 2246SOL    HW2 8160   1.584   8.423   5.750  1.2380  0.8491  2.0193
 2247SOL     OW 8161   8.601   7.388   3.182  0.0406 -0.2136 -0.4198
 2247SOL    HW1 8162   8.507   7.381   3.164 -0.5495  1.6147  1.4846
 2247SOL    HW2 8163   8.617   7.482   3.186  1.9686 -0.4912 -0.6031
 2248SOL     OW 8164   2.052   1.078   2.993  0.0745 -0.0608 -0.5075
 2248SOL    HW1 8165   2.015   0.993   3.015 -0.6559  0.1587 -0.8860
 2248SOL    HW2 8166   2.094   1.065   2.908  1.5266 -0.4949  0.2354
 2249SOL     OW 8167   8.690   0.907   3.283 -0.0684 -0.0205  0.1367
 2249SOL    HW1 8168   8.668   0.822   3.322  0.5451 -0.5217 -0.5890
 2249SOL    HW2 8169   8.642   0.970   3.336 -0.3404 -0.7980  0.8443
 2250SOL     OW 8170   2.800   8.064   0.730 -0.0272  0.1927  0.0187
 2250SOL    HW1 8171   2.806   8.160   0.730  2.4155  0.1000  0.4120
 2250SOL    HW2 8172   2.713   8.046   0.764  0.0550  2.2880  1.5511
 2251SOL     OW 8173   7.757   4.766   6.700 -0.2817 -0.5464  0.0380
 2251SOL    HW1 8174   7.818   4.830   6.736 -1.1390 -0.4281  1.3411
 2251SOL    HW2 8175   7.733   4.801   6.614  2.2196 -1.1042 -0.9603
 2252SOL     OW 8176   0.730   0.244   1.269 -0.3665  0.5162  0.4964
 2252SOL    HW1 8177   0.644   0.282   1.253 -2.0427 -3.1217 -0.1959
 2252SOL    HW2 8178   0.735   0.237   1.364 -1.0349  0.3614  0.5274
 2253SOL     OW 8179   4.872   0.517   0.652  0.2574 -0.1151 -0.0447
 2253SOL    HW1 8180   4.871   0.612   0.662 -0.2165 -0.0631 -0.5325
 2253SOL    HW2 8181   4.845   0.483   0.737  1.0530  0.1610  0.3281
 2254SOL     OW 8182   1.221   7.429   2.688 -0.3396 -0.3402  0.0250
 2254SOL    HW1 8183   1.142   7.428   2.633 -0.7430 -0.0763  0.5978
 2254SOL    HW2 8184   1.192   7.398   2.773  0.5989 -2.2689 -0.2911
 2255SOL     OW 8185   9.265   8.409   3.474 -0.5009  0.5383  0.0307
 2255SOL    HW1 8186   9.235   8.417   3.384 -0.2624  1.5030  0.0171
 2255SOL    HW2 8187   9.185   8.394   3.525 -0.8176  1.4349 -0.1856
 2256SOL     OW 8188   3.910   4.608   3.448 -0.0287 -0.3185  0.2053
 2256SOL    HW1 8189   3.866   4.653   3.520 -0.0315 -0.1918  0.1261
 2256SOL    HW2 8190   4.001   4.638   3.453  0.4914 -2.0210  1.5190
 2257SOL     OW 8191   0.023   1.080   5.604  0.1427  0.3935  0.8881
 2257SOL    HW1 8192   0.116   1.092   5.621  0.0168  1.7940  0.7255
 2257SOL    HW2 8193  -0.012   1.169   5.599 -1.1920 -0.1099  0.8684
 2258SOL     OW 8194   3.993   2.661   5.510  0.3196 -0.3253  0.6187
 2258SOL    HW1 8195   3.939   2.685   5.434 -0.2688 -1.9570  0.4941
 2258SOL    HW2 8196   4.042   2.741   5.530 -1.9252  1.1543  0.5752
 2259SOL     OW 8197   5.368   2.635   8.310  0.0398 -0.1560 -0.0612
 2259SOL    HW1 8198   5.326   2.562   8.263  1.9186 -1.7913  0.6611
 2259SOL    HW2 8199   5.451   2.598   8.342 -0.4564  1.3037  3.2764
 2260SOL     OW 8200   2.862   8.785   0.411 -0.4314 -0.0592  0.0677
 2260SOL    HW1 8201   2.925   8.750   0.347 -0.2667  0.6376 -0.1712
 2260SOL    HW2 8202   2.845   8.874   0.380 -1.3438 -0.1540  0.2818
 2261SOL     OW 8203   7.437   7.224   9.189  0.1431  1.2124 -0.6979
 2261SOL    HW1 8204   7.494   7.191   9.120  1.5609  1.8741  0.1125
 2261SOL    HW2 8205   7.353   7.239   9.145  0.0707 -1.2970 -1.5764
 2262SOL     OW 8206   7.315   8.718   2.249  0.3744  0.8650 -0.5918
 2262SOL    HW1 8207   7.320   8.683   2.338 -1.9190 -0.9036 -1.0539
 2262SOL    HW2 8208   7.403   8.707   2.213  0.9392  0.1711  0.9500
 2263SOL     OW 8209   4.369   0.832   2.192 -0.1194 -0.4317  0.3550
 2263SOL    HW1 8210   4.379   0.923   2.164 -0.0498  0.6949  3.6019
 2263SOL    HW2 8211   4.302   0.835   2.260 -0.5607 -2.9511  0.1333
 2264SOL     OW 8212   1.321   1.196   0.488 -0.0279  0.2444 -0.1292
 2264SOL    HW1 8213   1.361   1.117   0.523 -0.5775  0.8418  1.9866
 2264SOL    HW2 8214   1.244   1.165   0.440  0.1228 -0.5474  0.1264
 2265SOL     OW 8215   5.489   7.795   8.460 -0.4878 -0.0306 -0.1660
 2265SOL    HW1 8216   5.505   7.702   8.442 -0.5933  0.0631 -0.7664
 2265SOL    HW2 8217   5.406   7.813   8.418  0.7402  0.9591 -2.3067
 2266SOL     OW 8218   2.036   8.061   4.079 -0.1402  0.3286  0.0992
 2266SOL    HW1 8219   2.009   8.058   3.987 -2.5642  0.5417  0.7354
 2266SOL    HW2 8220   1.974   8.122   4.120  0.0270 -0.7956  2.1334
 2267SOL     OW 8221   8.155   1.430   6.049  0.4135 -0.6342 -0.6388
 2267SOL    HW1 8222   8.189   1.385   5.972 -1.0775  1.4498 -2.7010
 2267SOL    HW2 8223   8.065   1.399   6.057  0.1500  0.1114 -0.5750
 2268SOL     OW 8224   4.932   8.098   1.702  0.0187  0.0088  0.1637
 2268SOL    HW1 8225   4.930   8.175   1.758 -0.8467 -0.0160  0.1773
 2268SOL    HW2 8226   5.012   8.109   1.649  1.3252 -0.3985  1.9597
 2269SOL     OW 8227   0.753   0.786   3.936  0.0871 -0.1526  0.4713
 2269SOL    HW1 8228   0.736   0.725   4.008 -3.3391  1.2474  1.0879
 2269SOL    HW2 8229   0.698   0.755   3.865  1.0534  0.2287 -0.4605
 2270SOL     OW 8230   4.853   1.541   4.273  0.0712 -0.4739 -0.2267
 2270SOL    HW1 8231   4.939   1.522   4.309  0.2712 -1.0947 -0.9972
 2270SOL    HW2 8232   4.822   1.457   4.239  0.5656  0.2991 -2.8487
 2271SOL     OW 8233   3.709   7.251   2.545  0.8089 -0.0471  0.4280
 2271SOL    HW1 8234   3.728   7.223   2.634  1.1534  0.2530  0.4483
 2271SOL    HW2 8235   3.773   7.319   2.526 -1.2399  2.2127  1.0961
 2272SOL     OW 8236   5.079   7.998   2.562  0.0823  0.1042  0.2994
 2272SOL    HW1 8237   5.163   8.028   2.594 -0.3896  2.8950 -0.8268
 2272SOL    HW2 8238   5.016   8.028   2.627 -0.0707 -2.7902  1.6362
 2273SOL     OW 8239   1.239   8.668   0.065  0.7427  0.0991 -0.4075
 2273SOL    HW1 8240   1.218   8.590   0.117  1.3207  1.1312  1.4715
 2273SOL    HW2 8241   1.328   8.691   0.092  0.1610  2.0704 -0.0385
 2274SOL     OW 8242   2.859   2.321   4.575 -0.0308 -0.1476 -0.4589
 2274SOL    HW1 8243   2.894   2.233   4.584  2.7701  0.8874 -0.1448
 2274SOL    HW2 8244   2.798   2.330   4.648  0.8004 -1.3550  0.4320
 2275SOL     OW 8245   1.087   6.077   3.655 -0.8964 -0.3532  0.0260
 2275SOL    HW1 8246   1.048   6.136   3.591 -1.6871 -0.4940  0.3704
 2275SOL    HW2 8247   1.035   5.997   3.649  0.9712 -1.5428 -1.3690
 2276SOL     OW 8248   3.501   8.843   0.706  0.2433  0.0211  0.4215
 2276SOL    HW1 8249   3.556   8.867   0.632  1.2070 -0.6046  0.9132
 2276SOL    HW2 8250   3.416   8.882   0.687  0.1371 -1.0416 -1.5592
 2277SOL     OW 8251   1.309   0.755   7.823  0.5683  0.0485 -0.0338
 2277SOL    HW1 8252   1.239   0.705   7.864  1.0907 -0.1514  0.6417
 2277SOL    HW2 8253   1.278   0.846   7.823 -0.1827 -0.1988 -0.8350
 2278SOL     OW 8254   8.006   2.967   2.215  0.5515  0.4899  0.1195
 2278SOL    HW1 8255   8.040   2.951   2.302  0.0482  2.2689  0.7011
 2278SOL    HW2 8256   8.064   2.918   2.156  0.4697 -1.3031  1.4710
 2279SOL     OW 8257   6.055   2.815   4.928 -0.6086 -0.1078  0.4273
 2279SOL    HW1 8258   6.150   2.810   4.938 -0.0650  2.2312 -2.3040
 2279SOL    HW2 8259   6.033   2.742   4.870 -0.3323 -0.1007  0.3114
 2280SOL     OW 8260   7.310   3.108   6.138  0.1138 -0.6742  0.7003
 2280SOL    HW1 8261   7.280   3.132   6.226  1.1211 -3.1489  1.8180
 2280SOL    HW2 8262   7.263   3.027   6.118  0.5866 -0.6376 -0.6624
 2281SOL     OW 8263   8.417   3.856   4.199  0.0412 -0.1952  0.2088
 2281SOL    HW1 8264   8.431   3.794   4.128 -0.4948 -0.0723 -0.0077
 2281SOL    HW2 8265   8.331   3.895   4.181 -1.4269 -2.1643  2.3720
 2282SOL     OW 8266   8.609   5.154   3.756  0.3456 -0.4200  0.0969
 2282SOL    HW1 8267   8.618   5.249   3.767  2.2816 -0.6870  1.2932
 2282SOL    HW2 8268   8.549   5.128   3.825 -1.0044  0.0205 -0.8674
 2283SOL     OW 8269   0.001   5.656   3.882  0.2193  0.5942  0.0204
 2283SOL    HW1 8270   0.073   5.628   3.938 -2.3061 -0.3856  3.0730
 2283SOL    HW2 8271   0.007   5.751   3.880  0.0362  0.7127  2.6201
 2284SOL     OW 8272   1.188   5.647   7.478  0.2900  0.6731 -0.2007
 2284SOL    HW1 8273   1.183   5.648   7.573  0.9708  1.0541 -0.1638
 2284SOL    HW2 8274   1.281   5.657   7.458  0.0433  1.7079 -0.9149
 2285SOL     OW 8275   2.790   7.914   0.477 -0.5458 -0.2964 -0.0935
 2285SOL    HW1 8276   2.834   7.947   0.556 -2.5114 -1.4109  1.5631
 2285SOL    HW2 8277   2.777   7.992   0.423 -1.2979  0.9725  1.7989
 2286SOL     OW 8278   6.839   7.412   8.121 -0.0941 -0.2248 -0.4166
 2286SOL    HW1 8279   6.745   7.396   8.111  0.2954 -1.1793 -4.1875
 2286SOL    HW2 8280   6.851   7.425   8.215 -3.7425 -1.5626  0.4277
 2287SOL     OW 8281   5.861   5.785   3.672  0.4804  0.9311  0.4961
 2287SOL    HW1 8282   5.920   5.827   3.735 -1.3517  2.0250  1.5898
 2287SOL    HW2 8283   5.859   5.845   3.598 -1.0766  2.1781  1.4849
 2288SOL     OW 8284   9.252   7.850   2.728  0.2252  0.2983  0.1353
 2288SOL    HW1 8285   9.187   7.870   2.795 -0.5096 -0.3664 -0.3553
 2288SOL    HW2 8286   9.207   7.789   2.668  1.1519  0.1712 -0.4581
 2289SOL     OW 8287   8.509   7.870   7.824  0.1074 -0.5482  0.0585
 2289SOL    HW1 8288   8.488   7.791   7.873 -0.7060 -1.2195 -1.3112
 2289SOL    HW2 8289   8.473   7.855   7.736  0.7461  0.9582 -0.5095
 2290SOL     OW 8290   0.117   0.045   3.340 -0.1717  0.0036  0.2336
 2290SOL    HW1 8291   0.023   0.033   3.333 -0.0266 -1.5680  0.6619
 2290SOL    HW2 8292   0.131   0.137   3.317 -1.9192  0.5743  1.2188
 2291SOL     OW 8293   3.380   7.932   7.447 -0.1767  0.0417  0.3024
 2291SOL    HW1 8294   3.386   7.841   7.478  0.9930  0.6353  1.9087
 2291SOL    HW2 8295   3.286   7.951   7.447 -0.5122 -1.3904 -0.8444
 2292SOL     OW 8296   5.759   0.342   2.440 -0.7466 -0.5972  0.1360
 2292SOL    HW1 8297   5.696   0.274   2.464 -0.5781  0.0580  2.7927
 2292SOL    HW2 8298   5.721   0.423   2.475  0.8900  0.0139  0.5930
 2293SOL     OW 8299   2.976   7.495   5.097  0.1452  0.0715  0.4040
 2293SOL    HW1 8300   3.008   7.499   5.007  1.3564  2.7029  0.8693
 2293SOL    HW2 8301   3.026   7.423   5.137 -0.5210 -1.2399 -0.9909
 2294SOL     OW 8302   1.838   8.241   2.306 -0.3332  0.2303 -0.3818
 2294SOL    HW1 8303   1.767   8.294   2.343  0.6034 -0.0427  1.9834
 2294SOL    HW2 8304   1.907   8.304   2.286  0.6387  0.0645  2.0884
 2295SOL     OW 8305   5.724   1.347   1.084 -0.0216  0.1949 -0.1186
 2295SOL    HW1 8306   5.689   1.391   1.161  1.0570 -0.8342  0.9940
 2295SOL    HW2 8307   5.696   1.256   1.094 -0.5583  0.1984 -1.3792
 2296SOL     OW 8308   1.542   4.472   5.844  0.2643 -0.1820  0.1355
 2296SOL    HW1 8309   1.539   4.566   5.865  0.5092 -0.2801  0.6127
 2296SOL    HW2 8310   1.562   4.470   5.751 -0.7635  0.2591 -0.1068
 2297SOL     OW 8311   6.519   3.489   1.209  0.3879 -0.3436  0.1876
 2297SOL    HW1 8312   6.514   3.571   1.257 -0.6366  0.2307 -0.8374
 2297SOL    HW2 8313   6.581   3.507   1.138 -0.6681 -0.0824 -0.6888
 2298SOL     OW 8314   0.386   8.966   2.089 -0.1959  0.0058  0.3461
 2298SOL    HW1 8315   0.406   9.049   2.046  0.1983 -1.3154 -2.1693
 2298SOL    HW2 8316   0.310   8.932   2.042 -0.3564 -1.0685  1.3316
 2299SOL     OW 8317   1.134   8.516   6.030  0.6970  0.2565 -0.0727
 2299SOL    HW1 8318   1.067   8.491   5.966  0.2718  2.1831 -0.4240
 2299SOL    HW2 8319   1.178   8.591   5.991 -0.3949  2.2991  2.3726
 2300SOL     OW 8320   7.249   4.053   1.681  0.4903 -0.2874  0.0319
 2300SOL    HW1 8321   7.162   4.087   1.702 -0.1953 -0.0439 -2.8324
 2300SOL    HW2 8322   7.307   4.095   1.745 -1.5363 -1.1714  2.6236
 2301SOL     OW 8323   7.458   1.849   6.654 -0.3818 -0.0643  0.4826
 2301SOL    HW1 8324   7.484   1.907   6.725  0.7394 -0.9698  0.8418
 2301SOL    HW2 8325   7.363   1.858   6.649 -0.6103 -0.6818  2.7284
 2302SOL     OW 8326   4.080   0.753   7.515 -0.1501 -0.3370 -0.0141
 2302SOL    HW1 8327   4.035   0.669   7.508  0.9684 -1.2931  2.7584
 2302SOL    HW2 8328   4.173   0.731   7.503 -0.0047  0.9473 -1.6564
 2303SOL     OW 8329   8.212   4.659   0.332  0.1962  0.8783  0.2290
 2303SOL    HW1 8330   8.210   4.652   0.237  3.3426 -1.7854  0.1976
 2303SOL    HW2 8331   8.126   4.627   0.361  0.2071 -0.9971 -1.6315
 2304SOL     OW 8332   9.023   7.875   3.753  0.4006  0.5109  0.2850
 2304SOL    HW1 8333   9.097   7.814   3.758  0.4588  0.3476 -1.7552
 2304SOL    HW2 8334   9.063   7.961   3.746  0.3170  0.8234  2.6846
 2305SOL     OW 8335   3.189   7.415   0.457  0.1703 -0.6628  0.1953
 2305SOL    HW1 8336   3.236   7.489   0.494 -1.0487 -0.4959  1.5182
 2305SOL    HW2 8337   3.197   7.426   0.362 -0.2719  1.3833  0.3411
 2306SOL     OW 8338   7.077   0.172   3.035  0.5943  0.0966 -0.4556
 2306SOL    HW1 8339   7.046   0.121   3.110 -0.9144  0.4992 -0.7561
 2306SOL    HW2 8340   7.074   0.110   2.962 -0.4261  0.3660 -0.6582
 2307SOL     OW 8341   7.827   4.985   4.404  0.5425 -0.0996 -0.1046
 2307SOL    HW1 8342   7.748   4.973   4.351  0.9910 -0.0395 -0.7948
 2307SOL    HW2 8343   7.794   5.005   4.492 -0.2078 -0.4655 -0.2935
 2308SOL     OW 8344   4.414   3.655   8.785  0.0486 -0.1965 -0.9426
 2308SOL    HW1 8345   4.500   3.636   8.746 -0.3547 -1.3885 -1.2827
 2308SOL    HW2 8346   4.397   3.746   8.761  1.8041  0.5042  0.2716
 2309SOL     OW 8347   4.786   1.615   2.765 -0.1347  0.3217  0.6153
 2309SOL    HW1 8348   4.813   1.706   2.752  0.3241  0.0979 -0.0751
 2309SOL    HW2 8349   4.802   1.574   2.680  0.3901 -0.5881  1.1491
 2310SOL     OW 8350   5.597   8.237   6.651 -0.2507 -0.2564  0.0860
 2310SOL    HW1 8351   5.557   8.278   6.728  1.5293 -0.1915  1.0196
 2310SOL    HW2 8352   5.529   8.244   6.583 -2.1269 -0.8915  1.7832
 2311SOL     OW 8353   7.757   6.960   8.216 -0.4814 -0.4920 -0.2287
 2311SOL    HW1 8354   7.828   6.905   8.248 -0.1253  0.3442  0.4627
 2311SOL    HW2 8355   7.735   7.016   8.291 -0.8571  0.2731 -0.8974
 2312SOL     OW 8356   5.112   7.932   4.560 -0.2300  0.0957 -0.2974
 2312SOL    HW1 8357   5.101   7.967   4.648  0.8186 -0.8802  0.2426
 2312SOL    HW2 8358   5.107   8.009   4.503 -3.0010  0.5425  0.3730
 2313SOL     OW 8359   8.217   5.412   0.926 -0.9351  0.3931  0.0322
 2313SOL    HW1 8360   8.196   5.399   1.019  2.4668 -0.4859  0.8095
 2313SOL    HW2 8361   8.284   5.481   0.926 -1.1169  0.6231 -1.8116
 2314SOL     OW 8362   7.912   5.232   8.927  0.5828  0.5145 -0.1706
 2314SOL    HW1 8363   7.863   5.269   8.854 -0.3940  0.2305  0.3287
 2314SOL    HW2 8364   7.846   5.213   8.994  1.0806 -1.7020 -0.2349
 2315SOL     OW 8365   7.841   7.926   7.102 -0.0525 -0.1118 -0.0140
 2315SOL    HW1 8366   7.889   7.973   7.033 -0.0026 -1.0149 -0.6218
 2315SOL    HW2 8367   7.766   7.887   7.057 -0.3084 -0.2817  0.5511
 2316SOL     OW 8368   0.605   0.421   8.566 -0.4343 -0.0792 -0.3266
 2316SOL    HW1 8369   0.664   0.432   8.491  1.3871  0.9126  1.1894
 2316SOL    HW2 8370   0.655   0.369   8.628 -2.1312 -1.3573  0.0365
 2317SOL     OW 8371   0.179   5.084   1.990 -0.2795 -0.6979 -0.0337
 2317SOL    HW1 8372   0.244   5.141   2.030 -2.1017  1.3993  0.1403
 2317SOL    HW2 8373   0.142   5.033   2.063 -0.3692 -0.2692  0.2192
 2318SOL     OW 8374   1.649   6.636   4.785  0.1887  0.3752  0.3054
 2318SOL    HW1 8375   1.727   6.598   4.747  0.5814  3.0560 -1.8833
 2318SOL    HW2 8376   1.681   6.702   4.847 -0.3089  1.0466 -0.1293
 2319SOL     OW 8377   2.364   5.768   6.820  0.1789 -0.4811 -0.1288
 2319SOL    HW1 8378   2.335   5.683   6.788  0.5792 -0.8072  0.3523
 2319SOL    HW2 8379   2.414   5.748   6.899 -1.9905  0.3921  1.5633
 2320SOL     OW 8380   3.126   5.756   0.274 -0.1803 -0.4968 -0.1400
 2320SOL    HW1 8381   3.181   5.788   0.346 -1.5344  2.3253 -0.1859
 2320SOL    HW2 8382   3.159   5.803   0.197  0.6110 -2.7294 -1.2231
 2321SOL     OW 8383   2.681   1.052   4.868  0.0721  0.5186 -0.0715
 2321SOL    HW1 8384   2.622   1.070   4.794 -1.6423 -2.8682  0.3050
 2321SOL    HW2 8385   2.623   1.022   4.938  2.1318 -2.5336  0.4828
 2322SOL     OW 8386   8.661   8.056   2.477 -0.2731  0.2832  0.1889
 2322SOL    HW1 8387   8.655   8.121   2.547 -0.2835  0.5337 -0.0453
 2322SOL    HW2 8388   8.713   7.985   2.515 -2.1020 -0.5989  1.2365
 2323SOL     OW 8389   1.700   1.352   9.061 -0.4950  0.0385  0.0978
 2323SOL    HW1 8390   1.617   1.348   9.014  0.5700  0.6661 -1.9628
 2323SOL    HW2 8391   1.758   1.294   9.013  0.3485 -0.2189  1.3688
 2324SOL     OW 8392   7.476   0.407   0.594 -0.5699 -0.0115 -0.1025
 2324SOL    HW1 8393   7.457   0.488   0.641 -1.1192 -0.3489  0.2663
 2324SOL    HW2 8394   7.438   0.421   0.507 -1.5929 -0.2556  0.2845
 2325SOL     OW 8395   4.229   3.623   5.276  0.0714  0.0847  0.1067
 2325SOL    HW1 8396   4.196   3.695   5.330 -1.7935 -0.2358 -0.5249
 2325SOL    HW2 8397   4.296   3.663   5.221 -0.7095  1.2975 -0.0137
 2326SOL     OW 8398   4.799   0.273   8.035 -0.3161 -0.9340  0.0362
 2326SOL    HW1 8399   4.862   0.236   8.097  1.0284 -1.7865 -1.7482
 2326SOL    HW2 8400   4.818   0.367   8.035  0.0624 -1.0084  0.4890
 2327SOL     OW 8401   8.410   2.106   3.342  0.0758 -0.6035 -0.0457
 2327SOL    HW1 8402   8.326   2.130   3.303 -0.1341  0.4400  0.9682
 2327SOL    HW2 8403   8.427   2.175   3.407  0.8314 -1.7651  1.0522
 2328SOL     OW 8404   0.880   6.603   7.063  0.6813  0.0466  0.7120
 2328SOL    HW1 8405   0.937   6.526   7.064  2.4865  1.2978  1.6233
 2328SOL    HW2 8406   0.895   6.644   7.148  0.0861  1.6214  0.0889
 2329SOL     OW 8407   2.976   9.064   1.440 -0.3029 -0.2329 -0.0603
 2329SOL    HW1 8408   2.908   9.023   1.386 -1.2896  1.5062 -0.1981
 2329SOL    HW2 8409   3.045   9.086   1.378 -0.8583  0.5504 -0.4212
 2330SOL     OW 8410   4.552   0.218   5.816  0.3304  0.4625 -0.5567
 2330SOL    HW1 8411   4.605   0.211   5.736  1.0685  1.1316 -0.1276
 2330SOL    HW2 8412   4.493   0.291   5.799  1.7647  1.8471  0.2244
 2331SOL     OW 8413   1.216   2.299   2.193  0.6778  0.2303  0.0077
 2331SOL    HW1 8414   1.194   2.346   2.112  1.9432  1.1582  0.1809
 2331SOL    HW2 8415   1.203   2.364   2.262 -2.1891 -1.0544  0.8368
 2332SOL     OW 8416   5.693   3.313   2.274 -0.2426  0.3258  0.2476
 2332SOL    HW1 8417   5.713   3.381   2.209  1.0810 -1.0126 -0.8234
 2332SOL    HW2 8418   5.638   3.251   2.227 -1.3040  0.5304  1.1687
 2333SOL     OW 8419   5.920   0.658   8.318 -0.6107 -0.1246 -0.2251
 2333SOL    HW1 8420   5.916   0.619   8.230  0.3762 -0.4684 -0.1265
 2333SOL    HW2 8421   5.863   0.735   8.312 -0.6419 -0.2038 -1.1363
 2334SOL     OW 8422   5.391   2.836   0.815  0.2211 -0.0449  0.3832
 2334SOL    HW1 8423   5.468   2.797   0.855  1.2374  0.7653 -0.7191
 2334SOL    HW2 8424   5.336   2.861   0.889  1.2832 -0.1031  1.2140
 2335SOL     OW 8425   8.892   5.973   6.845 -0.6735  0.2446 -0.0727
 2335SOL    HW1 8426   8.873   5.913   6.917 -2.5906 -1.5079 -1.8952
 2335SOL    HW2 8427   8.956   5.926   6.791  1.1918  1.7811  0.6749
 2336SOL     OW 8428   5.691   4.439   8.005  0.3355  0.4977 -0.1607
 2336SOL    HW1 8429   5.743   4.512   7.970 -1.0474  1.0904 -1.0192
 2336SOL    HW2 8430   5.685   4.376   7.934 -0.6084  0.6941 -0.2597
 2337SOL     OW 8431   6.246   0.670   2.397  0.2100  0.3177 -0.3560
 2337SOL    HW1 8432   6.234   0.589   2.447  2.3522 -0.2387 -0.6225
 2337SOL    HW2 8433   6.249   0.641   2.306 -1.6423  1.0739 -0.6924
 2338SOL     OW 8434   5.296   0.211   5.420  0.0779 -0.1310  0.6740
 2338SOL    HW1 8435   5.266   0.275   5.484 -1.0080 -0.1194  0.1725
 2338SOL    HW2 8436   5.307   0.261   5.340  0.7769 -0.2740  0.6778
 2339SOL     OW 8437   0.681   3.105   0.945 -0.3233 -0.3815 -0.1502
 2339SOL    HW1 8438   0.741   3.178   0.926 -1.7296  1.1347  0.9438
 2339SOL    HW2 8439   0.610   3.116   0.882 -0.0852 -1.4031 -0.6072
 2340SOL     OW 8440   4.560   1.191   2.566 -0.1510  0.2037 -0.1639
 2340SOL    HW1 8441   4.557   1.096   2.551 -4.6075  0.5456 -3.4477
 2340SOL    HW2 8442   4.629   1.221   2.507  1.5215 -0.9069  1.1282
 2341SOL     OW 8443   5.120   1.333   0.497  0.0281  0.2651  0.0632
 2341SOL    HW1 8444   5.072   1.327   0.414 -0.4172 -1.5759  0.3916
 2341SOL    HW2 8445   5.212   1.332   0.472 -0.0843 -1.4846 -0.4073
 2342SOL     OW 8446   2.404   4.461   3.486  0.1212 -0.0659  0.1466
 2342SOL    HW1 8447   2.449   4.467   3.401  0.9176  0.2437  0.5892
 2342SOL    HW2 8448   2.311   4.466   3.463  0.0910 -3.3758 -1.0801
 2343SOL     OW 8449   4.970   0.927   1.790  0.5395  0.1853 -0.5137
 2343SOL    HW1 8450   4.920   1.003   1.761  0.4666  0.8589  1.2663
 2343SOL    HW2 8451   4.930   0.901   1.873  2.7424  0.4158  0.7191
 2344SOL     OW 8452   3.009   4.324   3.471 -0.4252 -0.0519  0.0401
 2344SOL    HW1 8453   2.964   4.334   3.387 -1.1084  0.4069  0.4558
 2344SOL    HW2 8454   3.078   4.260   3.453  1.7601  2.5477 -1.8050
 2345SOL     OW 8455   8.112   6.900   1.246  0.5297  0.3270 -0.0816
 2345SOL    HW1 8456   8.153   6.961   1.184 -1.8384  1.8022 -0.3383
 2345SOL    HW2 8457   8.117   6.945   1.330  0.4569 -0.0008  0.0972
 2346SOL     OW 8458   3.395   0.217   0.679  0.3833  0.0006  0.1918
 2346SOL    HW1 8459   3.426   0.131   0.708  0.9126 -0.2370 -1.0391
 2346SOL    HW2 8460   3.355   0.202   0.594 -0.7376  0.7682  0.5513
 2347SOL     OW 8461   3.696   6.958   1.026 -0.1428  0.0311  0.1077
 2347SOL    HW1 8462   3.760   7.002   0.970 -2.1000 -0.7500 -2.9945
 2347SOL    HW2 8463   3.704   6.865   1.003 -2.3778 -0.0694 -0.4920
 2348SOL     OW 8464   5.960   0.048   0.934  0.3366  0.2473  0.4884
 2348SOL    HW1 8465   5.952   0.066   1.028 -0.1632 -0.3719  0.5698
 2348SOL    HW2 8466   5.906  -0.029   0.920  0.4490  0.3090 -0.3068
 2349SOL     OW 8467   8.723   0.283   9.240  0.2033  0.0055  0.0517
 2349SOL    HW1 8468   8.698   0.197   9.274 -0.5994  1.5782  3.9987
 2349SOL    HW2 8469   8.672   0.293   9.160 -0.4526 -2.7513  0.0140
 2350SOL     OW 8470   2.037   3.807   8.910 -0.1998  0.0469 -0.1189
 2350SOL    HW1 8471   1.951   3.770   8.928 -1.5445  3.0331  0.2343
 2350SOL    HW2 8472   2.023   3.867   8.837  2.0923 -0.9344 -1.4896
 2351SOL     OW 8473   6.295   7.300   2.307  0.9703 -0.0015  0.0429
 2351SOL    HW1 8474   6.358   7.239   2.345  1.9202  0.5358 -0.6441
 2351SOL    HW2 8475   6.313   7.383   2.350 -0.8350 -0.3185  1.5448
 2352SOL     OW 8476   4.302   5.770   6.760  0.4475  0.3830  0.2808
 2352SOL    HW1 8477   4.309   5.782   6.666  0.6152 -2.2125 -0.1153
 2352SOL    HW2 8478   4.391   5.779   6.793  0.2890  2.0036  0.3379
 2353SOL     OW 8479   7.005   6.861   4.586 -0.5177  0.0491  0.1168
 2353SOL    HW1 8480   6.992   6.954   4.605  0.9802  0.9048 -2.5129
 2353SOL    HW2 8481   7.098   6.846   4.603 -0.6832 -0.9139  0.2401
 2354SOL     OW 8482   8.614   6.672   1.476  0.2492  0.2904 -0.0067
 2354SOL    HW1 8483   8.623   6.639   1.566 -0.5851 -0.1552 -0.0817
 2354SOL    HW2 8484   8.618   6.767   1.485 -0.2543  0.2633  0.5582
 2355SOL     OW 8485   4.648   6.522   8.886 -0.3238  0.1724  0.7270
 2355SOL    HW1 8486   4.617   6.602   8.845 -0.7763 -0.3011  0.1264
 2355SOL    HW2 8487   4.598   6.452   8.844 -0.0684 -0.4128  1.3699
 2356SOL     OW 8488   4.612   3.989   5.722 -0.0913  0.1587  0.3054
 2356SOL    HW1 8489   4.569   3.942   5.651 -1.0286  0.6083  0.5544
 2356SOL    HW2 8490   4.693   3.940   5.738 -0.5419 -0.7610 -0.1306
 2357SOL     OW 8491   4.218   0.765   4.563  0.0827 -0.2044  0.0983
 2357SOL    HW1 8492   4.185   0.849   4.595  1.5387  0.0504  1.0645
 2357SOL    HW2 8493   4.152   0.701   4.588 -0.9426  0.6072 -0.4603
 2358SOL     OW 8494   7.097   1.666   7.974 -0.3056 -0.1467  0.0632
 2358SOL    HW1 8495   7.134   1.651   8.061 -1.3769  0.9498  0.7555
 2358SOL    HW2 8496   7.166   1.710   7.925 -0.5264  1.6294  1.2432
 2359SOL     OW 8497   2.692   3.158   0.459 -0.5144 -0.1421  0.0692
 2359SOL    HW1 8498   2.686   3.076   0.410 -1.3061  0.3399 -0.6682
 2359SOL    HW2 8499   2.619   3.154   0.521  0.8446 -1.0261  1.6922
 2360SOL     OW 8500   6.285   2.646   8.664 -0.1390  0.1984 -0.3288
 2360SOL    HW1 8501   6.365   2.693   8.637 -0.2840  1.3290  1.0813
 2360SOL    HW2 8502   6.287   2.648   8.760 -1.0975 -1.1251 -0.2539
 2361SOL     OW 8503   3.232   2.783   2.172 -0.0504  0.2988  0.4199
 2361SOL    HW1 8504   3.172   2.857   2.162 -1.4666 -0.9025 -0.5103
 2361SOL    HW2 8505   3.254   2.758   2.082 -0.0786 -0.7451  0.6844
 2362SOL     OW 8506   1.851   0.562   8.653 -0.2419 -0.0070 -0.4889
 2362SOL    HW1 8507   1.927   0.602   8.696 -0.3200 -0.8409  0.4755
 2362SOL    HW2 8508   1.782   0.564   8.719 -0.5506 -0.7759 -0.7712
 2363SOL     OW 8509   4.769   0.862   8.663 -0.3140  0.0991 -0.6453
 2363SOL    HW1 8510   4.743   0.911   8.741 -1.6360 -1.5558  0.0232
 2363SOL    HW2 8511   4.861   0.839   8.679  0.3764  2.3510 -1.0328
 2364SOL     OW 8512   3.284   3.519   6.759 -0.3290  0.4588  0.3458
 2364SOL    HW1 8513   3.250   3.517   6.849 -1.8628 -0.1898 -0.2150
 2364SOL    HW2 8514   3.323   3.606   6.751 -1.9910  1.3322  1.0246
 2365SOL     OW 8515   8.238   7.854   7.044 -0.0793 -0.5861 -0.8479
 2365SOL    HW1 8516   8.202   7.920   6.985 -0.1458  0.5948  0.4522
 2365SOL    HW2 8517   8.173   7.847   7.114  0.3911 -1.3326 -0.4793
 2366SOL     OW 8518   6.618   0.577   0.160  0.2462  0.0933 -0.4177
 2366SOL    HW1 8519   6.650   0.497   0.118 -1.8856 -0.7003 -0.6268
 2366SOL    HW2 8520   6.576   0.626   0.089 -0.1815  0.4613  0.0823
 2367SOL     OW 8521   2.340   2.390   4.254 -0.2703 -0.2220 -0.1699
 2367SOL    HW1 8522   2.406   2.377   4.322 -0.0791  0.3920 -0.2311
 2367SOL    HW2 8523   2.277   2.450   4.294 -1.0080 -1.1006  0.0263
 2368SOL     OW 8524   7.276   6.474   0.583  0.0929  0.1344 -0.2070
 2368SOL    HW1 8525   7.327   6.397   0.558 -0.9883 -1.3965  1.9912
 2368SOL    HW2 8526   7.232   6.500   0.502 -0.9325 -2.7326 -0.6898
 2369SOL     OW 8527   1.080   2.501   5.884 -0.1795  0.2979  0.4489
 2369SOL    HW1 8528   1.085   2.562   5.810 -0.3643 -0.3209 -0.0782
 2369SOL    HW2 8529   0.989   2.507   5.913 -0.8760 -1.5235 -1.1680
 2370SOL     OW 8530   7.875   8.678   6.814 -0.0837  0.3609  0.4835
 2370SOL    HW1 8531   7.950   8.645   6.863  1.2096  1.7261 -0.5023
 2370SOL    HW2 8532   7.856   8.609   6.750 -0.3577 -0.4357  1.3978
 2371SOL     OW 8533   2.523   3.366   4.214 -0.1059  0.2062  0.2772
 2371SOL    HW1 8534   2.542   3.315   4.136  0.8093  0.1835  0.5095
 2371SOL    HW2 8535   2.506   3.455   4.181  1.5914  0.5134  0.1382
 2372SOL     OW 8536   1.330   6.220   4.418 -0.4208 -0.5661 -0.1906
 2372SOL    HW1 8537   1.319   6.172   4.500  0.0401 -1.5123 -0.6703
 2372SOL    HW2 8538   1.245   6.211   4.374 -1.5493  2.0470  1.2253
 2373SOL     OW 8539   0.373   4.832   8.462  0.0656  0.4430  0.7743
 2373SOL    HW1 8540   0.400   4.801   8.375  1.3939  1.7917  0.6568
 2373SOL    HW2 8541   0.328   4.757   8.502  0.2328 -0.4918 -0.7290
 2374SOL     OW 8542   1.903   2.040   1.618  0.0435  0.4179  0.3014
 2374SOL    HW1 8543   1.860   1.982   1.556 -0.7030  0.9071  0.3525
 2374SOL    HW2 8544   1.976   2.077   1.569  0.3443 -0.3176  0.1756
 2375SOL     OW 8545   8.161   6.696   7.492  0.3346  0.5698  0.5837
 2375SOL    HW1 8546   8.081   6.647   7.476  0.4555  0.8975 -1.2019
 2375SOL    HW2 8547   8.227   6.630   7.513 -0.0534  0.1836  0.5855
 2376SOL     OW 8548   6.745   2.855   5.590  0.1852  0.1843 -0.2914
 2376SOL    HW1 8549   6.804   2.780   5.599 -1.1906 -0.8769  0.3843
 2376SOL    HW2 8550   6.745   2.896   5.677  0.1085  0.3287 -0.3588
 2377SOL     OW 8551   8.868   5.602   6.776  0.1868  0.2579  0.3192
 2377SOL    HW1 8552   8.933   5.661   6.738  1.1107 -0.5059  0.6581
 2377SOL    HW2 8553   8.893   5.595   6.868  0.9939 -1.7422  0.0099
 2378SOL     OW 8554   0.113   3.681   0.401  0.1687 -0.2851 -0.0473
 2378SOL    HW1 8555   0.076   3.611   0.454  1.5709 -1.3100 -0.3681
 2378SOL    HW2 8556   0.190   3.710   0.449  0.7603 -0.3854 -0.9137
 2379SOL     OW 8557   0.316   5.754   8.860  0.6251  0.2514 -0.0876
 2379SOL    HW1 8558   0.385   5.816   8.884  1.5700 -0.2253 -1.4510
 2379SOL    HW2 8559   0.346   5.670   8.895 -0.1542  0.3494  0.8644
 2380SOL     OW 8560   7.349   6.642   2.206 -0.6141  0.3946 -0.1357
 2380SOL    HW1 8561   7.403   6.687   2.142  0.1471 -2.3715 -1.5968
 2380SOL    HW2 8562   7.261   6.677   2.193  0.0812  2.1289 -0.4511
 2381SOL     OW 8563   2.864   0.173   3.829 -0.4397 -0.4700 -0.2738
 2381SOL    HW1 8564   2.938   0.149   3.773 -1.3908 -3.2715 -0.4838
 2381SOL    HW2 8565   2.893   0.153   3.918 -0.9260 -1.6767 -0.3660
 2382SOL     OW 8566   1.621   9.011   7.833  0.8336 -0.2540 -0.7341
 2382SOL    HW1 8567   1.666   8.983   7.753 -0.3103 -1.4570 -0.9851
 2382SOL    HW2 8568   1.685   9.065   7.879  2.4136 -1.5995 -1.2624
 2383SOL     OW 8569   4.560   2.993   7.344  0.0702  0.6420  0.8360
 2383SOL    HW1 8570   4.656   2.994   7.350  0.0429 -1.3696  2.9100
 2383SOL    HW2 8571   4.539   2.909   7.303 -0.8408  1.9025 -1.5046
 2384SOL     OW 8572   0.718   7.186   4.680 -0.0961 -0.2095  0.8727
 2384SOL    HW1 8573   0.642   7.188   4.738  0.7831  1.3785  2.0395
 2384SOL    HW2 8574   0.772   7.115   4.715  0.1158  0.3048  1.6220
 2385SOL     OW 8575   6.072   1.149   1.426 -0.1986 -0.1995 -0.1678
 2385SOL    HW1 8576   6.106   1.183   1.343 -0.2629  1.6941  0.5397
 2385SOL    HW2 8577   5.981   1.176   1.429  0.2537  1.3526  1.2769
 2386SOL     OW 8578   8.155   1.004   2.281  0.2422  0.0727  0.4862
 2386SOL    HW1 8579   8.105   1.086   2.284  0.1665  0.0075  1.8222
 2386SOL    HW2 8580   8.099   0.940   2.324  1.5340  0.0583  2.2621
 2387SOL     OW 8581   8.070   0.448   6.764  0.1355 -0.2104  0.1890
 2387SOL    HW1 8582   8.068   0.378   6.699 -0.6034 -0.6570  0.6664
 2387SOL    HW2 8583   8.049   0.527   6.715 -0.5875 -0.5643 -0.1038
 2388SOL     OW 8584   6.713   4.638   7.142 -0.4890 -0.3884  0.1696
 2388SOL    HW1 8585   6.656   4.572   7.103 -0.5885 -0.1480 -0.1015
 2388SOL    HW2 8586   6.679   4.651   7.230 -0.6117 -0.5298  0.1422
 2389SOL     OW 8587   6.154   7.488   6.397 -0.1314  0.1599  0.4959
 2389SOL    HW1 8588   6.096   7.549   6.441  0.8439  1.3717  0.1715
 2389SOL    HW2 8589   6.147   7.407   6.448 -0.9892  0.7217  1.3060
 2390SOL     OW 8590   6.446   1.131   6.279 -0.1434 -0.0894 -0.5191
 2390SOL    HW1 8591   6.496   1.182   6.216  0.5468 -1.6640 -1.3109
 2390SOL    HW2 8592   6.496   1.050   6.289 -2.9421 -2.1804 -2.0713
 2391SOL     OW 8593   7.161   9.110   1.530  0.4724  0.4947  0.3009
 2391SOL    HW1 8594   7.156   9.014   1.531  1.0791  0.4166 -1.1577
 2391SOL    HW2 8595   7.111   9.137   1.607 -0.0323 -0.9771  0.5364
 2392SOL     OW 8596   2.578   2.734   2.542 -0.5449  0.0379  0.2332
 2392SOL    HW1 8597   2.546   2.673   2.609 -1.7387  1.4175  0.9808
 2392SOL    HW2 8598   2.612   2.808   2.592  0.5129  0.1853 -0.6650
 2393SOL     OW 8599   0.813   5.340   0.731 -0.1606 -0.4293 -0.2141
 2393SOL    HW1 8600   0.798   5.399   0.657  1.1536  0.1263 -0.0546
 2393SOL    HW2 8601   0.736   5.282   0.731  0.3606 -1.2556 -2.7602
 2394SOL     OW 8602   6.262   3.534   6.386  0.0503  0.1258  0.2694
 2394SOL    HW1 8603   6.235   3.514   6.476 -2.1922  0.7916 -0.1865
 2394SOL    HW2 8604   6.257   3.629   6.380 -3.0292 -0.0206 -1.3778
 2395SOL     OW 8605   7.533   3.461   4.439  0.0976  0.2823  0.0256
 2395SOL    HW1 8606   7.609   3.507   4.477 -0.2020 -0.9366  2.3273
 2395SOL    HW2 8607   7.464   3.526   4.436  0.9202  1.1423 -1.1383
 2396SOL     OW 8608   2.532   1.798   8.518 -0.1848 -0.5356 -0.6370
 2396SOL    HW1 8609   2.622   1.828   8.527 -0.3073  0.1248 -1.4492
 2396SOL    HW2 8610   2.521   1.733   8.587  0.8561 -0.4928 -0.4159
 2397SOL     OW 8611   6.642   0.168   5.124 -0.3918 -0.3841  0.0965
 2397SOL    HW1 8612   6.658   0.227   5.198 -0.9628  0.1177 -0.1607
 2397SOL    HW2 8613   6.628   0.082   5.164 -1.0295 -0.0558  0.6101
 2398SOL     OW 8614   4.993   7.307   8.788  0.2844  0.2536 -0.2768
 2398SOL    HW1 8615   5.073   7.301   8.840  0.5051  0.0452 -0.6325
 2398SOL    HW2 8616   4.987   7.222   8.745 -0.5237  0.0004  0.3140
 2399SOL     OW 8617   1.401   1.329   0.280  0.0941 -0.1894  0.0283
 2399SOL    HW1 8618   1.408   1.260   0.213 -1.7297 -0.2563 -0.1593
 2399SOL    HW2 8619   1.370   1.284   0.358  1.6989 -0.0167  0.8028
 2400SOL     OW 8620   6.862   4.500   4.595 -0.1278  0.4111 -0.9155
 2400SOL    HW1 8621   6.837   4.412   4.620  0.7017  0.2551 -0.6295
 2400SOL    HW2 8622   6.792   4.556   4.630  0.5709  0.1252  1.0330
 2401SOL     OW 8623   5.753   6.339   7.949 -0.3982 -0.6387  0.1480
 2401SOL    HW1 8624   5.708   6.359   8.031 -1.3652  1.1704 -0.7639
 2401SOL    HW2 8625   5.844   6.324   7.974 -0.7492 -0.4646  1.5903
 2402SOL     OW 8626   1.171   4.888   5.135  0.3249  0.6980 -0.1499
 2402SOL    HW1 8627   1.244   4.892   5.198  2.0214  0.1221 -1.9607
 2402SOL    HW2 8628   1.171   4.975   5.094 -1.7245  1.5868  1.5342
 2403SOL     OW 8629   2.158   6.383   7.993 -0.0733 -0.0337  0.0783
 2403SOL    HW1 8630   2.145   6.448   7.923  0.7253  0.3911  0.3120
 2403SOL    HW2 8631   2.119   6.303   7.958  0.0553  0.2441 -0.7416
 2404SOL     OW 8632   6.414   2.118   4.405  0.2810 -0.2190  0.3012
 2404SOL    HW1 8633   6.452   2.205   4.401 -0.3573  0.1290  1.2736
 2404SOL    HW2 8634   6.442   2.075   4.325  1.7250  0.4111  0.4370
 2405SOL     OW 8635   6.104   7.776   2.910  0.1291  0.3641 -0.2811
 2405SOL    HW1 8636   6.070   7.745   2.994  1.2574 -0.1581 -0.0013
 2405SOL    HW2 8637   6.167   7.844   2.934 -0.8336  1.4979 -0.8060
 2406SOL     OW 8638   7.209   7.305   3.493 -0.1604  0.5937 -0.7210
 2406SOL    HW1 8639   7.139   7.355   3.452 -0.6543  0.2484 -0.3018
 2406SOL    HW2 8640   7.245   7.251   3.423 -0.1055  0.9911 -1.0050
 2407SOL     OW 8641   3.943   6.457   1.822  0.3616  0.3200 -0.0313
 2407SOL    HW1 8642   3.916   6.365   1.831  0.0198  0.4826  0.6630
 2407SOL    HW2 8643   4.023   6.462   1.874  1.9966 -0.2368 -2.3139
 2408SOL     OW 8644   3.340   2.336   1.085  0.0313 -0.6227 -0.0410
 2408SOL    HW1 8645   3.419   2.339   1.140  0.3180 -0.8467 -0.4353
 2408SOL    HW2 8646   3.323   2.242   1.074  0.7384 -0.6221 -1.4000
 2409SOL     OW 8647   2.306   2.912   8.444  0.2083 -0.2672  0.1077
 2409SOL    HW1 8648   2.306   2.955   8.358 -0.6001  0.1461  0.3091
 2409SOL    HW2 8649   2.252   2.969   8.499  1.2122 -0.2019  1.0651
 2410SOL     OW 8650   1.856   7.849   8.091  0.0363 -0.3194  0.0963
 2410SOL    HW1 8651   1.951   7.854   8.100  0.0570 -0.9992  0.3256
 2410SOL    HW2 8652   1.833   7.920   8.031  0.5601  0.5771  0.9262
 2411SOL     OW 8653   1.641   2.584   5.281 -0.4651  0.2079 -0.0710
 2411SOL    HW1 8654   1.569   2.551   5.335 -0.4647 -0.4576 -0.4678
 2411SOL    HW2 8655   1.719   2.540   5.315 -0.2141  1.0084  0.4303
 2412SOL     OW 8656   2.829   5.648   5.298  0.4801  0.2172  0.0235
 2412SOL    HW1 8657   2.776   5.614   5.226  1.7318 -0.3965 -0.6360
 2412SOL    HW2 8658   2.774   5.637   5.375  0.5524 -2.8141 -0.2433
 2413SOL     OW 8659   1.633   7.530   2.687  0.1940  0.1538 -0.0188
 2413SOL    HW1 8660   1.572   7.475   2.638  0.3788  1.4265 -1.7672
 2413SOL    HW2 8661   1.580   7.604   2.716  0.7632  1.0208 -1.1233
 2414SOL     OW 8662   0.206   1.354   0.024 -0.2895  0.4802  0.3572
 2414SOL    HW1 8663   0.200   1.264   0.057 -1.8850  0.9873  1.5847
 2414SOL    HW2 8664   0.135   1.361  -0.039 -0.6306  1.0680  0.7948
 2415SOL     OW 8665   7.007   7.228   6.076  0.3580  0.1705 -0.1611
 2415SOL    HW1 8666   6.995   7.311   6.030  0.6795  0.4844  0.3034
 2415SOL    HW2 8667   7.019   7.163   6.007  0.3938  0.5581 -0.5241
 2416SOL     OW 8668   5.622   0.724   5.443  0.3598 -0.2005  0.4617
 2416SOL    HW1 8669   5.640   0.808   5.486 -1.0565 -0.3698  1.4577
 2416SOL    HW2 8670   5.671   0.728   5.361 -0.6336  2.1252 -0.1017
 2417SOL     OW 8671   8.317   0.778   5.007 -0.3205  0.0610  1.2548
 2417SOL    HW1 8672   8.343   0.840   4.939  0.4596  0.4418  1.8834
 2417SOL    HW2 8673   8.337   0.692   4.970 -0.8356  0.2034  0.6226
 2418SOL     OW 8674   5.028   8.819   2.228 -0.0635  0.3859  0.5711
 2418SOL    HW1 8675   5.041   8.773   2.145 -0.3302 -0.3396  0.9263
 2418SOL    HW2 8676   5.074   8.766   2.293 -1.7094 -0.2758  1.2505
 2419SOL     OW 8677   4.908   3.394   5.312 -0.5682  0.3637  0.2673
 2419SOL    HW1 8678   4.892   3.408   5.405  0.4589 -0.8339  0.6644
 2419SOL    HW2 8679   4.854   3.318   5.289 -1.6189  1.2838 -0.3937
 2420SOL     OW 8680   6.960   3.046   2.203 -0.3482  0.3504 -0.0255
 2420SOL    HW1 8681   7.029   3.081   2.259 -0.4701 -0.2619  0.5162
 2420SOL    HW2 8682   6.905   3.122   2.183 -0.1955  0.6120  0.5276
 2421SOL     OW 8683   7.270   8.864   7.409 -0.3464  0.1603  0.3217
 2421SOL    HW1 8684   7.237   8.863   7.320  3.2384  0.6017 -1.1830
 2421SOL    HW2 8685   7.228   8.940   7.450 -0.8103  0.9234 -1.4963
 2422SOL     OW 8686   8.326   3.306   6.288  0.2258 -0.3513 -0.5990
 2422SOL    HW1 8687   8.390   3.334   6.222  1.7293 -2.1132 -0.0014
 2422SOL    HW2 8688   8.379   3.283   6.364 -1.3209 -0.0678  0.6022
 2423SOL     OW 8689   9.117   7.895   0.574  0.2061 -0.3359  0.1704
 2423SOL    HW1 8690   9.121   7.840   0.496  1.6181 -1.5771  1.0671
 2423SOL    HW2 8691   9.114   7.984   0.540  1.3426 -0.8243 -1.3131
 2424SOL     OW 8692   5.978   0.079   0.218 -0.1426 -0.5396 -0.4774
 2424SOL    HW1 8693   5.907   0.061   0.279  0.1517 -2.1380 -0.5791
 2424SOL    HW2 8694   6.054   0.035   0.256  0.4965  0.0651 -1.0248
 2425SOL     OW 8695   3.667   4.807   7.446  0.0866  0.0339 -0.0302
 2425SOL    HW1 8696   3.700   4.877   7.503  1.1897 -0.7083  0.2844
 2425SOL    HW2 8697   3.733   4.738   7.453  0.1735 -0.1601 -2.0708
 2426SOL     OW 8698   6.511   3.913   6.713 -0.8231 -0.7431 -0.1087
 2426SOL    HW1 8699   6.457   3.841   6.682 -0.5782 -1.3344  0.7936
 2426SOL    HW2 8700   6.477   3.934   6.800  0.9281 -1.7374  0.8825
 2427SOL     OW 8701   6.438   1.640   3.321 -0.4973  0.2212 -0.4695
 2427SOL    HW1 8702   6.352   1.682   3.316 -0.2739  0.5984 -1.2840
 2427SOL    HW2 8703   6.474   1.647   3.233  0.0784 -0.5733 -0.3175
 2428SOL     OW 8704   6.010   7.803   5.709  0.6506 -0.2813  0.2733
 2428SOL    HW1 8705   6.006   7.832   5.617  1.1351 -1.7399 -0.2307
 2428SOL    HW2 8706   6.035   7.882   5.757 -0.8799  0.8455 -0.6548
 2429SOL     OW 8707   3.556   5.135   3.354  1.0005 -0.4127  0.1513
 2429SOL    HW1 8708   3.513   5.207   3.307  0.5580 -0.1263  0.9804
 2429SOL    HW2 8709   3.507   5.057   3.329  1.9716 -0.5728 -1.3794
 2430SOL     OW 8710   1.797   2.632   3.251 -0.4996 -0.4877 -0.0722
 2430SOL    HW1 8711   1.814   2.572   3.324  0.1122 -0.0889  0.1182
 2430SOL    HW2 8712   1.737   2.697   3.287  0.8587  0.5003  0.5126
 2431SOL     OW 8713   1.529   8.485   2.983  0.2978  0.3685  0.4685
 2431SOL    HW1 8714   1.537   8.389   2.988  1.5249  0.3809 -0.6339
 2431SOL    HW2 8715   1.491   8.510   3.067 -1.4584 -1.2069  0.1946
 2432SOL     OW 8716   3.404   5.343   6.235 -0.4868  0.0529 -0.2615
 2432SOL    HW1 8717   3.487   5.382   6.207 -0.0402 -1.0151 -0.4614
 2432SOL    HW2 8718   3.429   5.268   6.288 -1.2982 -1.1931 -1.5785
 2433SOL     OW 8719   9.082   0.978   1.137 -0.2369 -0.0834 -0.4615
 2433SOL    HW1 8720   9.022   0.918   1.093 -0.0417 -0.3021 -0.4320
 2433SOL    HW2 8721   9.115   1.035   1.068 -0.0320 -0.3420 -0.5828
 2434SOL     OW 8722   6.655   5.168   4.633 -0.1983  0.6526 -0.3784
 2434SOL    HW1 8723   6.707   5.240   4.670 -0.7712  0.3433  1.0942
 2434SOL    HW2 8724   6.578   5.163   4.690 -0.5182 -0.6461 -0.9070
 2435SOL     OW 8725   3.738   2.982   4.011 -0.2893  0.4830 -0.2657
 2435SOL    HW1 8726   3.726   3.045   4.082  1.3959 -0.5307  0.9909
 2435SOL    HW2 8727   3.822   2.940   4.030 -0.2126 -0.4530 -2.3909
 2436SOL     OW 8728   8.991   2.786   0.958  0.2086 -0.2100  0.2289
 2436SOL    HW1 8729   9.003   2.796   1.052 -0.2255  0.4532  0.2193
 2436SOL    HW2 8730   9.000   2.692   0.942 -0.0486 -0.3638  0.9787
 2437SOL     OW 8731   1.952   1.586   5.782  0.2256  0.2087  0.4609
 2437SOL    HW1 8732   1.936   1.494   5.761  0.6113  0.0341  0.9161
 2437SOL    HW2 8733   2.015   1.584   5.854  0.4823  0.8355  0.2625
 2438SOL     OW 8734   1.962   6.603   1.362  0.2647  0.2011  0.6218
 2438SOL    HW1 8735   1.997   6.536   1.420  0.0766 -1.6030 -1.2351
 2438SOL    HW2 8736   2.011   6.592   1.281  2.4659  4.4169  1.0761
 2439SOL     OW 8737   9.091   8.260   8.530  0.2096  0.1712 -0.5080
 2439SOL    HW1 8738   9.141   8.239   8.451  0.8241  0.1766 -0.1290
 2439SOL    HW2 8739   9.003   8.281   8.498  0.9324  2.0406 -1.3796
 2440SOL     OW 8740   7.428   4.173   0.799  0.3164  0.3772 -0.6244
 2440SOL    HW1 8741   7.483   4.240   0.840 -3.3003  1.7312  2.6514
 2440SOL    HW2 8742   7.375   4.222   0.735  0.9268 -0.3414 -1.6999
 2441SOL     OW 8743   7.135   9.042   2.706  0.1138  0.6431  0.4151
 2441SOL    HW1 8744   7.178   8.960   2.731 -2.6923 -1.4950 -1.1664
 2441SOL    HW2 8745   7.153   9.050   2.612 -1.9005  0.2654 -0.0455
 2442SOL     OW 8746   4.164   0.582   2.313  0.6675  0.4415 -0.1735
 2442SOL    HW1 8747   4.136   0.670   2.338  1.4643  0.7681 -0.3964
 2442SOL    HW2 8748   4.142   0.527   2.388  2.0862  1.2176  0.8344
 2443SOL     OW 8749   6.992   1.304   2.426  0.1042  0.3160  0.3584
 2443SOL    HW1 8750   6.994   1.397   2.448  0.5155  0.2710  0.5107
 2443SOL    HW2 8751   7.083   1.276   2.431  0.2781  0.3701 -1.6805
 2444SOL     OW 8752   2.797   6.347   9.003 -0.3955 -0.1554 -0.6761
 2444SOL    HW1 8753   2.803   6.353   8.908  1.5410  1.4561 -0.5231
 2444SOL    HW2 8754   2.842   6.265   9.025  0.0922 -0.0065 -1.1004
 2445SOL     OW 8755   7.379   6.042   4.041  0.4162 -0.0111  0.1616
 2445SOL    HW1 8756   7.470   6.027   4.066  0.7169  0.3922 -0.6702
 2445SOL    HW2 8757   7.329   5.986   4.101  1.2602 -1.0115 -0.0339
 2446SOL     OW 8758   9.150   8.328   5.471  0.0988  0.6000 -0.0925
 2446SOL    HW1 8759   9.204   8.276   5.531 -0.1235 -1.0964 -1.2806
 2446SOL    HW2 8760   9.179   8.418   5.485  1.1394  0.0822  1.4156
 2447SOL     OW 8761   3.177   0.471   4.808 -0.3306  0.0317 -0.0788
 2447SOL    HW1 8762   3.183   0.486   4.714 -0.9880 -0.8869 -0.2802
 2447SOL    HW2 8763   3.268   0.468   4.838 -0.1079 -0.2229 -0.7743
 2448SOL     OW 8764   4.968   6.749   4.003  0.3125 -0.0018 -0.6528
 2448SOL    HW1 8765   4.893   6.732   4.061  0.7240  1.2723  0.2912
 2448SOL    HW2 8766   5.044   6.722   4.053  0.5780 -0.3657 -1.2346
 2449SOL     OW 8767   2.232   3.727   7.407 -0.3603 -0.2439  0.0752
 2449SOL    HW1 8768   2.307   3.667   7.407 -0.9018 -0.9400 -0.4583
 2449SOL    HW2 8769   2.270   3.813   7.423  0.8517 -0.2692 -2.2356
 2450SOL     OW 8770   0.696   4.931   5.672  0.4144  0.6540 -0.8763
 2450SOL    HW1 8771   0.651   5.001   5.624 -0.6252 -1.1138 -2.6475
 2450SOL    HW2 8772   0.626   4.872   5.699  1.4745 -1.4356 -2.4362
 2451SOL     OW 8773   8.945   4.608   6.526  0.3089 -0.3216  0.0900
 2451SOL    HW1 8774   9.001   4.563   6.589 -0.6223 -2.4511 -0.4882
 2451SOL    HW2 8775   8.921   4.690   6.569  2.5399 -0.0624  0.9769
 2452SOL     OW 8776   2.661   5.080   0.505 -0.2521  0.0740 -0.0857
 2452SOL    HW1 8777   2.724   5.024   0.459 -0.2615 -1.8625  2.0437
 2452SOL    HW2 8778   2.577   5.059   0.465  0.0674  0.5244 -1.0240
 2453SOL     OW 8779   3.389   1.748   5.302 -0.2564 -0.5526  0.7039
 2453SOL    HW1 8780   3.314   1.792   5.261 -0.9906 -1.8780  0.5693
 2453SOL    HW2 8781   3.394   1.664   5.257  0.6659 -0.9017  1.4393
 2454SOL     OW 8782   7.782   8.148   4.594  0.3959 -0.2660  0.2803
 2454SOL    HW1 8783   7.703   8.110   4.634  0.6397  1.3871  2.5215
 2454SOL    HW2 8784   7.771   8.132   4.500 -0.5689 -3.7640  0.8265
 2455SOL     OW 8785   2.489   5.410   3.859 -1.0727 -0.3609  0.0334
 2455SOL    HW1 8786   2.561   5.350   3.841 -1.0364 -0.0415 -0.9328
 2455SOL    HW2 8787   2.515   5.456   3.939  0.4040  0.6418 -0.9760
 2456SOL     OW 8788   8.841   5.816   7.050  0.2940 -0.1746  0.4312
 2456SOL    HW1 8789   8.887   5.738   7.080 -0.3731 -0.3490  1.0100
 2456SOL    HW2 8790   8.749   5.792   7.053  0.0216  0.9224  1.4766
 2457SOL     OW 8791   0.439   6.870   1.238  0.0649 -0.1158  0.1098
 2457SOL    HW1 8792   0.413   6.846   1.149 -0.4745 -0.4152  0.3431
 2457SOL    HW2 8793   0.483   6.792   1.272 -0.6409 -0.3666  0.4583
 2458SOL     OW 8794   9.015   5.613   2.065  0.2766 -0.1940  0.4126
 2458SOL    HW1 8795   8.963   5.533   2.076 -0.5436  0.3747  0.8041
 2458SOL    HW2 8796   9.013   5.654   2.152  0.6713  0.2566  0.2098
 2459SOL     OW 8797   4.105   3.236   7.838 -0.5032  0.5142  0.0421
 2459SOL    HW1 8798   4.110   3.215   7.931  1.7586 -2.3058 -0.5765
 2459SOL    HW2 8799   4.159   3.315   7.828  0.3473  0.0626  0.9351
 2460SOL     OW 8800   6.479   0.290   7.096 -0.6994 -0.1408 -0.5270
 2460SOL    HW1 8801   6.401   0.344   7.083 -1.0530 -0.5447 -0.1449
 2460SOL    HW2 8802   6.539   0.316   7.026 -0.6866  1.0419 -0.1078
 2461SOL     OW 8803   8.355   6.060   0.921 -0.2911  0.4117  0.5217
 2461SOL    HW1 8804   8.316   6.121   0.858 -1.3194 -0.7395  0.0192
 2461SOL    HW2 8805   8.293   6.058   0.994  0.3560  0.8873  1.1097
 2462SOL     OW 8806   6.375   8.918   0.114 -0.4240  0.3367  0.0695
 2462SOL    HW1 8807   6.349   8.826   0.119 -0.6206  0.4216  0.7267
 2462SOL    HW2 8808   6.423   8.925   0.032  0.1290 -0.4929  0.3097
 2463SOL     OW 8809   4.867   8.484   8.726  0.6770  0.0989  0.3048
 2463SOL    HW1 8810   4.907   8.464   8.641  0.0883  0.5050 -0.0840
 2463SOL    HW2 8811   4.937   8.526   8.776  1.0592 -0.2325  0.0570
 2464SOL     OW 8812   8.118   6.943   7.353 -0.1725 -0.3716 -0.2551
 2464SOL    HW1 8813   8.166   6.866   7.384 -1.1347 -1.3616 -1.1325
 2464SOL    HW2 8814   8.030   6.932   7.390 -0.3194  0.3019 -0.3944
 2465SOL     OW 8815   0.757   9.113   0.316  0.2622  0.9683  0.4460
 2465SOL    HW1 8816   0.702   9.071   0.250 -0.0115 -0.5878  1.6127
 2465SOL    HW2 8817   0.839   9.134   0.270  0.5710 -1.2283 -0.1013
 2466SOL     OW 8818   2.407   4.212   3.346  0.1332  0.9884 -0.6510
 2466SOL    HW1 8819   2.485   4.267   3.357  2.2576 -1.4606 -2.2190
 2466SOL    HW2 8820   2.357   4.225   3.427  1.5831  3.4763 -0.0367
 2467SOL     OW 8821   4.724   4.833   0.763 -0.7521  0.0903  0.2748
 2467SOL    HW1 8822   4.663   4.774   0.808 -0.1014 -1.6917 -1.0558
 2467SOL    HW2 8823   4.709   4.815   0.670 -0.3175  1.8515 -0.1637
 2468SOL     OW 8824   8.586   0.966   5.922  0.1201  0.1806 -0.9212
 2468SOL    HW1 8825   8.501   1.010   5.915  1.1331  2.0133 -2.6734
 2468SOL    HW2 8826   8.585   0.928   6.010 -1.9047  1.4398 -0.3134
 2469SOL     OW 8827   2.102   7.441   7.357 -0.2636 -0.5486  0.3274
 2469SOL    HW1 8828   2.187   7.427   7.400 -0.5141 -0.7477  0.7711
 2469SOL    HW2 8829   2.124   7.466   7.268  0.2489 -1.2440  0.2536
 2470SOL     OW 8830   8.746   3.084   5.007 -0.4621  0.3629 -0.4293
 2470SOL    HW1 8831   8.777   3.017   5.068  0.5077  2.0469  1.0165
 2470SOL    HW2 8832   8.717   3.156   5.063 -0.2793  1.6603 -1.9419
 2471SOL     OW 8833   3.956   8.259   3.203 -0.1426  0.2203 -0.4695
 2471SOL    HW1 8834   4.021   8.327   3.218 -0.5432  0.7857 -1.2129
 2471SOL    HW2 8835   3.886   8.277   3.266  1.1497 -1.4395  1.5806
 2472SOL     OW 8836   1.482   6.130   2.238  1.0341  0.0172 -0.5431
 2472SOL    HW1 8837   1.447   6.191   2.174  0.4403  1.9952  1.5468
 2472SOL    HW2 8838   1.415   6.063   2.247  0.3418  0.6823 -0.6884
 2473SOL     OW 8839   8.158   7.972   8.099  0.1649 -0.2777 -0.0292
 2473SOL    HW1 8840   8.101   7.897   8.111  0.2813 -0.6585 -1.6224
 2473SOL    HW2 8841   8.124   8.039   8.159 -2.6720 -0.0891 -1.6792
 2474SOL     OW 8842   1.154   8.281   4.102 -0.0751 -0.4850 -0.2994
 2474SOL    HW1 8843   1.133   8.219   4.172  0.7596  1.0699  1.4322
 2474SOL    HW2 8844   1.180   8.226   4.029  1.1004 -2.2060  1.3066
 2475SOL     OW 8845   7.681   4.253   6.633  0.4253  0.0196  0.0154
 2475SOL    HW1 8846   7.685   4.268   6.539  1.3890  0.3025  0.0936
 2475SOL    HW2 8847   7.759   4.296   6.668 -0.1206  0.2525  0.9903
 2476SOL     OW 8848   3.366   3.150   3.340 -0.3161  0.3364  0.1176
 2476SOL    HW1 8849   3.323   3.135   3.256  3.7316  1.7006 -2.5051
 2476SOL    HW2 8850   3.307   3.209   3.388 -2.9728 -0.8832 -1.4470
 2477SOL     OW 8851   7.696   8.227   9.013  0.0503  0.8978 -0.0850
 2477SOL    HW1 8852   7.603   8.247   8.999 -0.1901 -0.6759 -0.8866
 2477SOL    HW2 8853   7.741   8.311   8.999 -1.2821  1.8211  0.9042
 2478SOL     OW 8854   0.355   0.745   1.703 -0.4513  0.4091  0.9182
 2478SOL    HW1 8855   0.434   0.778   1.746 -0.5028  1.5829  0.1547
 2478SOL    HW2 8856   0.375   0.654   1.683  1.1167  0.9415 -0.1546
 2479SOL     OW 8857   6.834   1.166   2.778  0.3527  0.2086  0.2213
 2479SOL    HW1 8858   6.892   1.116   2.836  0.8160 -2.2297 -2.1533
 2479SOL    HW2 8859   6.893   1.225   2.731  0.2889  0.5915  0.6104
 2480SOL     OW 8860   2.910   6.815   4.003 -0.1616 -0.0124  0.3942
 2480SOL    HW1 8861   2.968   6.888   3.982  0.2305 -0.1133  1.0819
 2480SOL    HW2 8862   2.956   6.738   3.972 -0.8461  0.0587 -0.8832
 2481SOL     OW 8863   1.079   0.832   4.370 -0.1336 -0.4482 -0.4553
 2481SOL    HW1 8864   1.095   0.881   4.288  0.2957  0.3119  0.0691
 2481SOL    HW2 8865   1.155   0.852   4.425 -0.1560 -1.3924 -0.0667
 2482SOL     OW 8866   0.240   5.303   1.271 -0.1429 -0.3575 -0.2011
 2482SOL    HW1 8867   0.183   5.302   1.195  0.5901  0.1883 -0.7727
 2482SOL    HW2 8868   0.311   5.244   1.250 -0.4655 -1.0169  0.5001
 2483SOL     OW 8869   4.558   8.053   3.841  0.3206  0.5908 -0.1315
 2483SOL    HW1 8870   4.500   8.030   3.768  0.3031  2.3657 -0.7042
 2483SOL    HW2 8871   4.646   8.032   3.810  0.1385 -1.1090  0.3520
 2484SOL     OW 8872   7.718   0.947   8.690 -0.7301 -0.2276 -0.4854
 2484SOL    HW1 8873   7.784   0.888   8.725 -0.3116 -0.6078 -1.8497
 2484SOL    HW2 8874   7.739   1.033   8.728  0.9826 -0.2002 -1.3979
 2485SOL     OW 8875   0.907   6.797   4.625 -0.2569  0.2583  0.1713
 2485SOL    HW1 8876   0.970   6.737   4.585 -2.2701 -2.0032  0.1594
 2485SOL    HW2 8877   0.958   6.875   4.646  2.5706 -1.4959  0.3456
 2486SOL     OW 8878   7.033   7.104   9.134  0.4037  0.1260  0.3747
 2486SOL    HW1 8879   7.095   7.173   9.111  0.4548  0.3722  1.2335
 2486SOL    HW2 8880   7.089   7.031   9.163  0.3370 -0.1379 -0.1573
 2487SOL     OW 8881   5.501   0.916   0.835 -0.0138  0.2879  0.0852
 2487SOL    HW1 8882   5.480   0.884   0.747  1.9372  0.9392 -0.6855
 2487SOL    HW2 8883   5.417   0.916   0.881 -1.4109  1.4716 -2.2666
 2488SOL     OW 8884   0.992   6.341   3.886  0.2653 -0.7163  0.3031
 2488SOL    HW1 8885   0.930   6.315   3.818  0.3736  1.7699 -0.8499
 2488SOL    HW2 8886   0.953   6.419   3.926  0.9046 -1.2880  2.1403
 2489SOL     OW 8887   3.705   6.065   3.697 -0.1983  0.0160  0.5255
 2489SOL    HW1 8888   3.703   6.022   3.782  0.2592  0.1981  0.6340
 2489SOL    HW2 8889   3.787   6.115   3.698  0.7042 -1.3568 -0.6833
 2490SOL     OW 8890   8.374   0.869   4.371 -0.2084  0.7298 -0.0728
 2490SOL    HW1 8891   8.398   0.782   4.339  0.6248  1.2866 -1.0341
 2490SOL    HW2 8892   8.457   0.912   4.389 -0.6310  0.7980  1.9740
 2491SOL     OW 8893   4.665   5.487   4.375  0.0533 -0.3742 -0.2370
 2491SOL    HW1 8894   4.577   5.486   4.337 -0.0194  0.5982 -0.1265
 2491SOL    HW2 8895   4.723   5.501   4.301 -0.0299  0.7416 -0.1096
 2492SOL     OW 8896   7.566   6.810   4.645  0.7351 -0.2963 -0.1830
 2492SOL    HW1 8897   7.652   6.805   4.687  0.0961  1.0728  1.4157
 2492SOL    HW2 8898   7.566   6.894   4.600 -0.3904  0.5925  1.3961
 2493SOL     OW 8899   7.418   7.060   2.799  0.5136 -0.1974  0.2479
 2493SOL    HW1 8900   7.424   7.008   2.879 -0.9143  2.3971  2.2257
 2493SOL    HW2 8901   7.455   7.145   2.824 -1.9778  1.3861 -1.1093
 2494SOL     OW 8902   5.550   0.483   8.743 -0.4306 -0.0073 -0.1681
 2494SOL    HW1 8903   5.575   0.573   8.719  0.7951 -0.8206 -2.2383
 2494SOL    HW2 8904   5.455   0.486   8.753 -0.5186  1.3334 -1.1401
 2495SOL     OW 8905   5.015   7.418   0.870 -0.1219 -0.6988  0.1655
 2495SOL    HW1 8906   5.087   7.478   0.854 -1.0745  0.1786 -1.0353
 2495SOL    HW2 8907   4.986   7.392   0.783 -1.7315 -0.4192  0.5860
 2496SOL     OW 8908   3.615   2.736   0.004  0.2030  0.0353  0.0116
 2496SOL    HW1 8909   3.666   2.767  -0.070  0.5831 -2.6589 -0.9555
 2496SOL    HW2 8910   3.678   2.731   0.076 -0.1269  2.4733  0.5620
 2497SOL     OW 8911   1.862   2.876   3.077  0.2390 -0.4197  0.0129
 2497SOL    HW1 8912   1.909   2.876   2.994  3.3633 -0.0976  1.6389
 2497SOL    HW2 8913   1.856   2.783   3.101 -2.3677 -0.6843 -1.3520
 2498SOL     OW 8914   1.902   3.323   1.542 -0.5398  0.1331  0.1089
 2498SOL    HW1 8915   1.996   3.317   1.558 -0.2648  1.3701 -0.9607
 2498SOL    HW2 8916   1.871   3.386   1.607 -0.3920  0.8072 -0.4768
 2499SOL     OW 8917   7.211   1.520   0.261  0.2676  0.4859  0.2930
 2499SOL    HW1 8918   7.265   1.551   0.189 -2.1879  0.8229 -1.5361
 2499SOL    HW2 8919   7.175   1.437   0.230  0.5116 -0.2478  1.8769
 2500SOL     OW 8920   5.837   8.827   4.779  0.1403  0.1738  0.2416
 2500SOL    HW1 8921   5.883   8.828   4.862  0.1411  1.7769  0.2538
 2500SOL    HW2 8922   5.753   8.870   4.797  0.0443  0.3391 -0.5312
 2501SOL     OW 8923   3.431   8.183   3.604 -0.3508 -0.2444 -0.3822
 2501SOL    HW1 8924   3.445   8.099   3.559  0.9065 -0.4758  0.3808
 2501SOL    HW2 8925   3.512   8.197   3.653 -1.6325 -0.0123  1.8159
 2502SOL     OW 8926   5.122   2.984   7.259  0.5019  0.0162 -0.1314
 2502SOL    HW1 8927   5.120   2.888   7.257 -0.0932  0.0292 -1.0473
 2502SOL    HW2 8928   5.044   3.008   7.309  0.7440  0.0267  0.2455
 2503SOL     OW 8929   4.588   8.427   8.542  0.3922  0.2082  0.5218
 2503SOL    HW1 8930   4.534   8.446   8.465 -1.9343 -1.7516  1.5476
 2503SOL    HW2 8931   4.677   8.446   8.514 -0.3254 -0.7386 -2.7949
 2504SOL     OW 8932   8.620   7.276   1.335 -0.9101  0.0179 -0.0597
 2504SOL    HW1 8933   8.551   7.210   1.336 -0.4620 -0.4636  1.4043
 2504SOL    HW2 8934   8.701   7.226   1.328 -0.6072  0.4620  0.2001
 2505SOL     OW 8935   8.805   6.956   8.930  0.5961 -0.1909 -0.6102
 2505SOL    HW1 8936   8.900   6.959   8.917  0.7835  0.3774  0.6805
 2505SOL    HW2 8937   8.786   6.863   8.944  0.9301 -0.3345 -1.0817
 2506SOL     OW 8938   4.442   7.781   7.080  0.2868  0.6234  0.0941
 2506SOL    HW1 8939   4.452   7.852   7.016 -0.2983  0.0295 -0.6765
 2506SOL    HW2 8940   4.348   7.782   7.101  0.4753  0.8155  0.9605
 2507SOL     OW 8941   1.414   9.158   5.604 -0.2012 -0.0892  0.5303
 2507SOL    HW1 8942   1.451   9.238   5.643  0.5529  0.2076 -0.7311
 2507SOL    HW2 8943   1.430   9.168   5.510 -1.0565 -1.2445  0.2425
 2508SOL     OW 8944   7.284   3.572   5.601 -0.0512  0.4873 -0.7585
 2508SOL    HW1 8945   7.267   3.551   5.693 -1.5070 -2.1754 -1.5450
 2508SOL    HW2 8946   7.308   3.665   5.602  0.3407  0.4614  2.3215
 2509SOL     OW 8947   5.909   7.650   8.736 -0.4138 -0.0434  0.2117
 2509SOL    HW1 8948   5.884   7.739   8.714 -1.3996 -0.4348 -0.3086
 2509SOL    HW2 8949   6.002   7.656   8.759 -0.5022  1.1268  0.3017
 2510SOL     OW 8950   5.444   4.933   5.093  0.3259  0.1394 -0.1622
 2510SOL    HW1 8951   5.452   4.947   5.187  0.1311 -0.8095 -0.0014
 2510SOL    HW2 8952   5.424   4.840   5.083  0.7844  0.1266 -1.1622
 2511SOL     OW 8953   8.883   6.513   2.129 -0.1790 -1.0355  0.6697
 2511SOL    HW1 8954   8.825   6.445   2.096  0.5069 -2.5157  2.3080
 2511SOL    HW2 8955   8.937   6.538   2.054 -3.4669  1.1849 -1.2296
 2512SOL     OW 8956   7.177   6.669   4.879 -0.1690 -0.1190  0.2620
 2512SOL    HW1 8957   7.133   6.596   4.836 -0.4619 -1.0511  2.0330
 2512SOL    HW2 8958   7.106   6.723   4.914  0.0649  0.2677  0.1494
 2513SOL     OW 8959   8.846   4.604   7.860  0.5536 -0.5576  0.1691
 2513SOL    HW1 8960   8.879   4.570   7.777  0.2375 -1.6757  0.4769
 2513SOL    HW2 8961   8.765   4.555   7.875  0.2803  0.0775  0.8308
 2514SOL     OW 8962   8.638   1.623   5.130 -0.0234  0.2255  0.4969
 2514SOL    HW1 8963   8.650   1.535   5.096 -0.1550  0.3246  0.1932
 2514SOL    HW2 8964   8.567   1.615   5.194  1.4020 -0.3001  2.0602
 2515SOL     OW 8965   7.158   1.866   2.293 -0.2523  0.1667  0.3845
 2515SOL    HW1 8966   7.157   1.788   2.348  1.1512  0.2660  0.6027
 2515SOL    HW2 8967   7.085   1.855   2.233 -0.1233 -1.2812  0.4707
 2516SOL     OW 8968   4.626   0.271   1.863  0.1561 -0.7819  0.1210
 2516SOL    HW1 8969   4.617   0.288   1.957  0.9015  0.0764  0.0433
 2516SOL    HW2 8970   4.720   0.262   1.849  0.0992 -0.1604 -0.6777
 2517SOL     OW 8971   3.473   2.298   7.522  0.2588 -0.0885  0.3674
 2517SOL    HW1 8972   3.526   2.267   7.448 -0.0393 -0.7622  0.4302
 2517SOL    HW2 8973   3.537   2.327   7.587  0.5350 -0.2577  0.1725
 2518SOL     OW 8974   3.921   5.062   6.258 -0.6044 -0.0596  0.1850
 2518SOL    HW1 8975   3.831   5.074   6.287 -1.6065 -0.6688 -2.4202
 2518SOL    HW2 8976   3.951   5.150   6.233 -1.0480 -0.0767 -0.4219
 2519SOL     OW 8977   0.426   0.952   0.048 -0.1100 -0.0801 -0.0756
 2519SOL    HW1 8978   0.505   0.987   0.008 -0.5043  0.5668 -0.3062
 2519SOL    HW2 8979   0.430   0.982   0.139  0.0055 -0.2003 -0.0427
 2520SOL     OW 8980   8.121   8.963   3.477  0.3239  0.8896  0.2437
 2520SOL    HW1 8981   8.122   8.978   3.383  0.3578 -1.7603 -0.2437
 2520SOL    HW2 8982   8.195   8.904   3.493 -1.4357 -1.1455  1.4007
 2521SOL     OW 8983   6.987   1.956   4.703 -0.6670 -0.2705 -0.1811
 2521SOL    HW1 8984   7.001   1.875   4.751  0.7080  0.5548  0.9019
 2521SOL    HW2 8985   7.044   1.948   4.626 -1.8244 -1.0089 -1.0008
 2522SOL     OW 8986   7.989   7.262   3.742  0.6126 -0.2539 -0.0291
 2522SOL    HW1 8987   7.925   7.235   3.808  0.7454 -0.9359 -0.1686
 2522SOL    HW2 8988   8.027   7.180   3.711  0.0854  0.0052 -1.4398
 2523SOL     OW 8989   8.854   2.646   2.390  0.6776  0.2416 -0.0217
 2523SOL    HW1 8990   8.775   2.635   2.338  1.1190 -1.9459 -0.3303
 2523SOL    HW2 8991   8.926   2.626   2.330  1.2848 -0.5677  0.9358
 2524SOL     OW 8992   6.528   0.791   8.754  0.2086  0.0251 -0.5278
 2524SOL    HW1 8993   6.452   0.736   8.736  0.2844  0.1247 -1.1867
 2524SOL    HW2 8994   6.602   0.730   8.756  0.5240  0.2182 -2.7784
 2525SOL     OW 8995   5.480   5.059   8.890  0.4036  0.2632  0.3497
 2525SOL    HW1 8996   5.417   5.009   8.838  0.9131 -2.0252  1.7763
 2525SOL    HW2 8997   5.434   5.139   8.915 -0.9439 -0.0930 -0.9029
 2526SOL     OW 8998   2.877   5.032   6.557  0.3266 -0.0661 -0.5210
 2526SOL    HW1 8999   2.949   4.980   6.595 -0.7247 -1.3692 -0.2230
 2526SOL    HW2 9000   2.853   5.093   6.627 -1.0900 -1.9456  0.7742
 2527SOL     OW 9001   6.978   7.140   4.596  0.8729 -0.0424 -0.6253
 2527SOL    HW1 9002   7.060   7.136   4.645 -0.4223  1.3513  1.8544
 2527SOL    HW2 9003   6.927   7.209   4.639 -1.0286  0.2049 -3.0228
 2528SOL     OW 9004   3.530   7.480   3.811  0.5044 -0.2185  0.5004
 2528SOL    HW1 9005   3.521   7.558   3.865  1.1399 -0.1702  0.5514
 2528SOL    HW2 9006   3.486   7.411   3.860  1.5662 -0.3001  1.3712
 2529SOL     OW 9007   6.364   5.738   8.308 -0.2398 -0.0975 -0.4153
 2529SOL    HW1 9008   6.390   5.813   8.361  0.9284 -1.8303  1.6390
 2529SOL    HW2 9009   6.288   5.702   8.354  2.0630 -2.8818  1.5635
 2530SOL     OW 9010   6.254   5.897   6.324 -0.0670  0.2210  0.5474
 2530SOL    HW1 9011   6.179   5.897   6.265 -0.1509  0.3520  0.6540
 2530SOL    HW2 9012   6.327   5.928   6.271  0.0914 -0.6846  0.2138
 2531SOL     OW 9013   0.308   4.617   3.298 -0.0211  0.0777  0.5179
 2531SOL    HW1 9014   0.354   4.607   3.215 -1.2032 -1.6368  0.0106
 2531SOL    HW2 9015   0.372   4.592   3.364  0.6924  0.6941  0.0708
 2532SOL     OW 9016   1.784   6.035   5.463 -0.0967 -0.3831  0.2634
 2532SOL    HW1 9017   1.748   6.091   5.394  0.2994  0.8286  1.0092
 2532SOL    HW2 9018   1.875   6.019   5.437  0.1139  0.2429  0.5768
 2533SOL     OW 9019   0.951   0.379   8.479  0.3192  0.2941 -0.6313
 2533SOL    HW1 9020   1.033   0.368   8.430 -0.4992  0.8874 -2.2058
 2533SOL    HW2 9021   0.908   0.293   8.473  1.2208 -0.3036  1.0112
 2534SOL     OW 9022   8.645   0.957   3.017  0.2477  0.1910  0.4544
 2534SOL    HW1 9023   8.661   0.951   3.111  1.2524  1.2487  0.3624
 2534SOL    HW2 9024   8.655   0.867   2.985 -1.5995 -0.4600  1.5535
 2535SOL     OW 9025   4.622   1.366   1.402 -0.0443 -0.0768 -0.1400
 2535SOL    HW1 9026   4.553   1.419   1.441  0.2545 -0.4282  0.8974
 2535SOL    HW2 9027   4.582   1.281   1.386  0.6533 -0.9893  2.4590
 2536SOL     OW 9028   6.177   3.114   6.478 -0.0215 -0.0783  0.0012
 2536SOL    HW1 9029   6.268   3.128   6.451 -0.4979 -1.9398 -3.0447
 2536SOL    HW2 9030   6.176   3.026   6.516 -0.4673  0.1081  0.4246
 2537SOL     OW 9031   8.446   4.342   3.080 -0.2666  0.3344 -0.0072
 2537SOL    HW1 9032   8.448   4.293   2.997 -0.3861  1.0669 -0.4566
 2537SOL    HW2 9033   8.509   4.297   3.136  0.5905  0.4425 -0.8582
 2538SOL     OW 9034   2.912   4.909   3.833  0.6635 -0.3345  0.1275
 2538SOL    HW1 9035   2.865   4.895   3.750  2.6428 -1.0605 -0.9359
 2538SOL    HW2 9036   2.951   4.823   3.852  2.3456  0.4553  0.4208
 2539SOL     OW 9037   4.432   5.745   2.089  0.0372 -0.0980 -0.6511
 2539SOL    HW1 9038   4.354   5.709   2.131  0.7656 -0.2124  0.6711
 2539SOL    HW2 9039   4.410   5.836   2.071 -0.4771 -0.1894 -0.5141
 2540SOL     OW 9040   0.104   0.805   1.984  0.4478 -0.1347  0.5319
 2540SOL    HW1 9041   0.032   0.865   2.003  1.3185  0.6479  1.4751
 2540SOL    HW2 9042   0.099   0.792   1.890 -1.1720 -0.4284  0.6207
 2541SOL     OW 9043   4.011   3.638   7.454 -0.5279  0.4409 -0.0371
 2541SOL    HW1 9044   3.983   3.697   7.384 -1.3626  0.5750  0.3918
 2541SOL    HW2 9045   4.014   3.551   7.413  0.5506  0.7444 -0.6296
 2542SOL     OW 9046   5.608   6.068   4.062  0.3410 -0.1241 -0.0797
 2542SOL    HW1 9047   5.686   6.098   4.108  0.5912 -1.6663  0.5571
 2542SOL    HW2 9048   5.546   6.141   4.072  1.2626  0.6201  0.4705
 2543SOL     OW 9049   3.574   2.099   5.076 -0.4710  0.1596 -0.3225
 2543SOL    HW1 9050   3.499   2.039   5.066  0.0396 -0.3758 -1.0511
 2543SOL    HW2 9051   3.640   2.046   5.122 -0.4709  0.5777  0.1659
 2544SOL     OW 9052   7.377   2.133   4.564  0.4468  0.3043 -0.4748
 2544SOL    HW1 9053   7.415   2.217   4.538  2.7090 -0.3935  0.2923
 2544SOL    HW2 9054   7.427   2.069   4.513 -1.7999 -0.5843 -1.6687
 2545SOL     OW 9055   8.841   6.682   8.243  0.3442  0.8256  0.2624
 2545SOL    HW1 9056   8.921   6.652   8.200 -0.1006  1.5695 -1.1358
 2545SOL    HW2 9057   8.796   6.601   8.269  0.4535  0.3319 -1.0179
 2546SOL     OW 9058   1.607   1.091   6.201  0.5370 -0.0559  0.4330
 2546SOL    HW1 9059   1.561   1.170   6.173  0.9812  0.7627  1.8782
 2546SOL    HW2 9060   1.558   1.061   6.278  0.3967 -1.1897 -0.0759
 2547SOL     OW 9061   0.957   5.849   7.225 -0.0153  0.0920  0.1116
 2547SOL    HW1 9062   1.014   5.798   7.167 -0.4566  0.3910 -0.5930
 2547SOL    HW2 9063   1.017   5.898   7.281  0.4520 -1.9061  1.4903
 2548SOL     OW 9064   1.982   5.366   0.380  0.0736  0.4688 -0.4769
 2548SOL    HW1 9065   2.001   5.291   0.324 -0.1110  0.6065 -0.7236
 2548SOL    HW2 9066   1.918   5.417   0.331  1.5394  1.7488 -1.1570
 2549SOL     OW 9067   7.813   3.602   4.535 -0.2348  0.1983  0.4423
 2549SOL    HW1 9068   7.797   3.680   4.588  0.9888 -0.6945  2.2051
 2549SOL    HW2 9069   7.793   3.529   4.592 -0.0053 -0.8027 -0.7190
 2550SOL     OW 9070   2.507   4.379   2.341  0.3451  0.0406  0.1475
 2550SOL    HW1 9071   2.420   4.372   2.380  0.6202 -0.0905  0.7523
 2550SOL    HW2 9072   2.537   4.467   2.364 -0.3002  0.7249 -1.5078
 2551SOL     OW 9073   1.142   4.359   6.570 -0.3076 -0.6942  0.3870
 2551SOL    HW1 9074   1.149   4.447   6.533 -1.0827 -0.8385 -0.1222
 2551SOL    HW2 9075   1.231   4.324   6.565 -0.2868 -0.5223 -0.8879
 2552SOL     OW 9076   5.644   6.121   1.874 -0.2168  0.2966  0.0737
 2552SOL    HW1 9077   5.593   6.048   1.837  0.5723  0.8966 -2.3650
 2552SOL    HW2 9078   5.724   6.080   1.907  0.1546 -0.0108 -1.1415
 2553SOL     OW 9079   4.118   8.438   3.375  0.0463  0.1294  0.4076
 2553SOL    HW1 9080   4.179   8.509   3.393 -1.1644  1.4016 -0.2434
 2553SOL    HW2 9081   4.034   8.482   3.363 -0.7153 -1.4086 -0.1527
 2554SOL     OW 9082   3.286   1.585   4.338  0.3603  0.1020  0.1642
 2554SOL    HW1 9083   3.323   1.523   4.276 -2.1515 -0.1701 -1.1859
 2554SOL    HW2 9084   3.209   1.541   4.373  1.3781  0.4821  3.1522
 2555SOL     OW 9085   5.592   7.742   6.924  0.4390  0.4006  0.1214
 2555SOL    HW1 9086   5.595   7.830   6.887  0.4197  1.4101  2.3985
 2555SOL    HW2 9087   5.536   7.749   7.001 -0.6395 -1.9303 -0.3435
 2556SOL     OW 9088   4.504   0.179   5.199 -0.3149 -0.1405  0.1778
 2556SOL    HW1 9089   4.466   0.247   5.254 -0.8768  1.4133 -1.9962
 2556SOL    HW2 9090   4.432   0.118   5.183 -0.9746  0.9307 -1.0947
 2557SOL     OW 9091   9.036   3.732   3.053 -0.1146 -0.1522  0.0801
 2557SOL    HW1 9092   9.112   3.726   2.995  0.5450 -0.8759  0.9893
 2557SOL    HW2 9093   9.065   3.789   3.124 -2.1539  4.0134 -2.0953
 2558SOL     OW 9094   7.790   2.286   6.363  0.4466  0.1293 -0.2768
 2558SOL    HW1 9095   7.717   2.256   6.416 -0.6553  0.0312 -1.8043
 2558SOL    HW2 9096   7.824   2.208   6.321  0.5374  0.3788 -0.6718
 2559SOL     OW 9097   3.725   7.207   1.691  0.9475  0.2618 -0.6460
 2559SOL    HW1 9098   3.676   7.137   1.647 -1.2194  0.0565  1.8333
 2559SOL    HW2 9099   3.786   7.239   1.624  0.6392 -2.6126 -2.4945
 2560SOL     OW 9100   8.652   8.023   8.038 -0.7472 -0.1511 -0.0597
 2560SOL    HW1 9101   8.579   7.992   8.093 -1.4293  0.5809 -0.5232
 2560SOL    HW2 9102   8.650   7.966   7.961  0.9533 -1.9568  1.1379
 2561SOL     OW 9103   3.843   0.602   6.289 -0.0497  0.0743  0.6045
 2561SOL    HW1 9104   3.840   0.508   6.308  1.1044 -0.2199 -0.5511
 2561SOL    HW2 9105   3.771   0.639   6.341 -0.9491 -1.5313  0.5772
 2562SOL     OW 9106   3.119   5.547   0.719  0.1233  0.0780 -0.2432
 2562SOL    HW1 9107   3.033   5.540   0.759  0.6610  0.4644  1.0154
 2562SOL    HW2 9108   3.106   5.608   0.646 -0.2580  1.8564  1.2188
 2563SOL     OW 9109   6.607   0.487   7.742 -0.0758  0.1404 -1.0377
 2563SOL    HW1 9110   6.633   0.534   7.821 -1.0686  0.3805 -0.8315
 2563SOL    HW2 9111   6.677   0.425   7.726 -0.8533 -1.4694  1.3199
 2564SOL     OW 9112   6.526   4.940   0.921  0.3128 -0.0294  0.4887
 2564SOL    HW1 9113   6.486   5.025   0.905  1.6596  0.3784 -0.9317
 2564SOL    HW2 9114   6.608   4.959   0.966  1.1393 -0.4703 -0.7839
 2565SOL     OW 9115   8.160   0.295   5.309 -0.4232 -0.3141 -0.1401
 2565SOL    HW1 9116   8.148   0.342   5.226  0.7269  0.9802  0.3701
 2565SOL    HW2 9117   8.244   0.251   5.299  0.0519  0.4004  0.5542
 2566SOL     OW 9118   6.265   7.688   5.637 -0.1886 -0.0903  0.1973
 2566SOL    HW1 9119   6.343   7.734   5.670 -0.5279 -0.1841  1.1526
 2566SOL    HW2 9120   6.199   7.701   5.705 -0.2520 -2.1202  0.5708
 2567SOL     OW 9121   7.633   4.831   9.078 -0.7003  0.3288 -0.0387
 2567SOL    HW1 9122   7.543   4.838   9.108 -2.0370  1.2639 -3.7372
 2567SOL    HW2 9123   7.626   4.814   8.984  3.0159 -0.9384 -0.2741
 2568SOL     OW 9124   8.919   1.693   7.718  0.2300  0.4505  0.2328
 2568SOL    HW1 9125   8.929   1.624   7.783  1.1190 -0.7018 -1.0642
 2568SOL    HW2 9126   8.850   1.661   7.660 -0.3612  1.3363  0.4254
 2569SOL     OW 9127   5.660   5.899   4.679  0.1265  0.1286 -0.3785
 2569SOL    HW1 9128   5.642   5.843   4.755 -0.8561  0.2690 -0.4948
 2569SOL    HW2 9129   5.580   5.950   4.668  0.4787  0.5153 -1.1621
 2570SOL     OW 9130   6.534   7.708   2.752 -0.1445 -0.0124 -0.7136
 2570SOL    HW1 9131   6.567   7.640   2.693 -0.6389  0.4818 -1.5844
 2570SOL    HW2 9132   6.471   7.662   2.808  0.7755 -0.6150 -0.1421
 2571SOL     OW 9133   0.081   0.539   0.122 -0.0396 -0.2397 -0.1117
 2571SOL    HW1 9134   0.031   0.566   0.045 -2.4603 -1.0234  1.0782
 2571SOL    HW2 9135   0.069   0.611   0.185  1.0746 -0.0572 -0.0839
 2572SOL     OW 9136   5.874   4.905   5.015  0.2066  0.4614 -0.0644
 2572SOL    HW1 9137   5.802   4.968   5.011 -1.2644 -1.0881  0.5101
 2572SOL    HW2 9138   5.882   4.872   4.925  1.0591  1.5101 -0.3910
 2573SOL     OW 9139   0.321   1.677   7.869 -0.1536 -0.0371  0.0433
 2573SOL    HW1 9140   0.336   1.616   7.797 -0.7169  1.6397 -1.5755
 2573SOL    HW2 9141   0.241   1.647   7.910  0.2446 -1.0982  0.0713
 2574SOL     OW 9142   3.752   7.146   8.491  0.0133 -0.5933 -0.2545
 2574SOL    HW1 9143   3.766   7.168   8.399  2.0335 -1.5893 -0.2563
 2574SOL    HW2 9144   3.659   7.160   8.505 -0.2507  0.1233 -2.2999
 2575SOL     OW 9145   3.768   5.306   1.407  0.5444 -0.1439  0.8229
 2575SOL    HW1 9146   3.843   5.341   1.358  0.7870  1.3404  2.1706
 2575SOL    HW2 9147   3.692   5.351   1.371  0.2827 -1.4563 -0.3628
 2576SOL     OW 9148   5.929   9.249   5.638  0.1227  0.2078 -0.0947
 2576SOL    HW1 9149   5.989   9.216   5.704 -1.8641 -0.7587  1.3527
 2576SOL    HW2 9150   5.853   9.279   5.688 -1.1164  0.2263 -1.8975
 2577SOL     OW 9151   5.404   1.727   2.949  0.0728  0.2250 -0.1255
 2577SOL    HW1 9152   5.458   1.746   3.026 -0.7556 -2.0209  1.1248
 2577SOL    HW2 9153   5.458   1.750   2.874  2.0604 -0.2644  1.1031
 2578SOL     OW 9154   1.825   4.162   6.172  0.3563  0.0976 -0.1574
 2578SOL    HW1 9155   1.786   4.239   6.213 -1.4977 -0.6407 -0.4488
 2578SOL    HW2 9156   1.865   4.114   6.245 -1.0794 -0.1343  0.5217
 2579SOL     OW 9157   2.563   5.304   5.518  0.1883  0.1816 -0.9180
 2579SOL    HW1 9158   2.596   5.275   5.433 -1.3496 -1.2751 -1.0757
 2579SOL    HW2 9159   2.561   5.225   5.571  1.5535  1.1626  0.6590
 2580SOL     OW 9160   4.683   4.158   5.406 -0.3398 -0.0695  0.7252
 2580SOL    HW1 9161   4.675   4.151   5.311  1.3393  0.3368  0.5159
 2580SOL    HW2 9162   4.697   4.068   5.435  1.4609  0.0149  0.2803
 2581SOL     OW 9163   2.615   9.249   5.956  0.0834  0.0072  0.3965
 2581SOL    HW1 9164   2.689   9.255   6.016  1.9347  1.7224 -1.8183
 2581SOL    HW2 9165   2.579   9.338   5.954  1.9101  0.8815 -2.9273
 2582SOL     OW 9166   4.670   8.814   5.078  0.4704  0.3685 -0.5356
 2582SOL    HW1 9167   4.613   8.774   5.144  0.2868  0.0498 -0.8894
 2582SOL    HW2 9168   4.725   8.874   5.129  0.7041 -0.2730 -0.0067
 2583SOL     OW 9169   7.404   0.216   5.831  0.2926 -0.4849 -0.3449
 2583SOL    HW1 9170   7.395   0.304   5.869  1.8055 -0.1358 -0.7312
 2583SOL    HW2 9171   7.494   0.190   5.852  0.4643 -1.1705 -1.8423
 2584SOL     OW 9172   3.949   9.130   5.296 -0.0035  0.4094  0.4964
 2584SOL    HW1 9173   3.873   9.152   5.242 -0.8177 -0.2740  1.3322
 2584SOL    HW2 9174   3.917   9.063   5.357  1.4361 -0.3913  0.4287
 2585SOL     OW 9175   6.268   7.658   2.474 -0.0100 -0.4327  0.1765
 2585SOL    HW1 9176   6.248   7.590   2.538 -0.1607  0.4536  1.0873
 2585SOL    HW2 9177   6.198   7.722   2.484 -0.4034 -0.5766 -1.3415
 2586SOL     OW 9178   3.581   3.477   6.981  0.3915  0.2036 -0.5424
 2586SOL    HW1 9179   3.490   3.462   6.955  0.9234 -1.1626 -1.7833
 2586SOL    HW2 9180   3.629   3.405   6.942  1.7106 -0.4727  2.0903
 2587SOL     OW 9181   2.216   4.703   0.459  0.3154  0.2656  0.1871
 2587SOL    HW1 9182   2.291   4.743   0.415 -0.9254  0.9725 -1.3828
 2587SOL    HW2 9183   2.174   4.650   0.391 -0.4925 -0.2904  1.0888
 2588SOL     OW 9184   5.133   6.000   8.596  0.2128 -0.1244  0.2037
 2588SOL    HW1 9185   5.127   6.051   8.677  1.4344 -0.1283  0.3225
 2588SOL    HW2 9186   5.218   5.956   8.602  1.8865  2.3588 -2.4700
 2589SOL     OW 9187   7.634   4.059   7.394  0.1884 -0.1427  0.4859
 2589SOL    HW1 9188   7.592   4.118   7.330  1.4821  1.3486  0.9647
 2589SOL    HW2 9189   7.650   3.979   7.344 -2.7524 -0.6571  0.1452
 2590SOL     OW 9190   8.335   8.658   7.671  0.5432  0.4792  0.5858
 2590SOL    HW1 9191   8.309   8.567   7.663 -0.8204  0.9197 -0.3271
 2590SOL    HW2 9192   8.364   8.683   7.583 -1.6375  1.6231  0.1130
 2591SOL     OW 9193   5.735   2.209   6.832 -0.6337  0.0300 -0.1124
 2591SOL    HW1 9194   5.778   2.200   6.918  1.4236  1.4587 -0.9184
 2591SOL    HW2 9195   5.681   2.287   6.841 -0.3283  0.2478 -0.1338
 2592SOL     OW 9196   4.350   6.792   1.720  0.6393 -0.4987  0.1407
 2592SOL    HW1 9197   4.294   6.721   1.691  0.5501 -0.9503  1.3595
 2592SOL    HW2 9198   4.433   6.778   1.675  0.3632 -0.9006 -0.2433
 2593SOL     OW 9199   6.020   0.773   0.235  0.2790 -0.0254 -0.5270
 2593SOL    HW1 9200   5.951   0.740   0.293  0.9914 -0.1982  0.2232
 2593SOL    HW2 9201   6.047   0.697   0.183  0.8707 -0.2780  0.1488
 2594SOL     OW 9202   7.763   5.706   1.443 -0.6669 -0.2371  0.2535
 2594SOL    HW1 9203   7.762   5.633   1.505  1.0553 -0.1772  0.4092
 2594SOL    HW2 9204   7.812   5.775   1.488  0.4111 -0.1086 -1.0523
 2595SOL     OW 9205   9.004   4.833   2.912 -0.1040  0.5248 -0.1139
 2595SOL    HW1 9206   9.030   4.747   2.947  0.8395  0.7096 -0.3385
 2595SOL    HW2 9207   9.072   4.893   2.942 -1.0575  1.3256  0.5292
 2596SOL     OW 9208   4.717   3.023   3.351 -0.1902 -0.0550 -0.0235
 2596SOL    HW1 9209   4.771   2.968   3.295  0.1238  0.2496 -0.0283
 2596SOL    HW2 9210   4.639   3.043   3.300  0.5070  0.9894 -0.7289
 2597SOL     OW 9211   5.516   1.300   3.220 -0.5240  0.5036  0.0807
 2597SOL    HW1 9212   5.438   1.246   3.214 -0.5529  0.5974 -0.3818
 2597SOL    HW2 9213   5.588   1.237   3.225 -0.5203  0.4237 -0.9463
 2598SOL     OW 9214   6.718   1.597   0.239 -0.0560 -0.4128  0.1139
 2598SOL    HW1 9215   6.642   1.571   0.291  0.7506 -3.3819  0.0330
 2598SOL    HW2 9216   6.793   1.572   0.294  0.8137 -0.3762 -1.0373
 2599SOL     OW 9217   8.769   7.963   5.191 -0.5016  0.3517  0.8125
 2599SOL    HW1 9218   8.780   7.872   5.218  0.3778  0.5998  1.3385
 2599SOL    HW2 9219   8.798   8.014   5.266  0.7696  1.0674 -0.1247
 2600SOL     OW 9220   3.996   6.489   5.107 -0.2977 -0.1188 -0.0450
 2600SOL    HW1 9221   3.943   6.532   5.174 -1.2377  0.7673 -1.3020
 2600SOL    HW2 9222   3.939   6.485   5.030  0.7731 -1.0210 -0.8345
 2601SOL     OW 9223   5.064   4.696   7.591 -0.0294  0.2473  0.3932
 2601SOL    HW1 9224   5.106   4.777   7.561 -0.0730  0.2148  0.2437
 2601SOL    HW2 9225   4.983   4.692   7.542  0.3607 -0.3187 -0.2153
 2602SOL     OW 9226   0.184   2.827   5.601 -0.3466 -0.0706  0.1760
 2602SOL    HW1 9227   0.210   2.794   5.688 -0.3746  1.5564  0.8286
 2602SOL    HW2 9228   0.095   2.859   5.613  0.1948  1.5856 -0.0333
 2603SOL     OW 9229   7.926   7.797   2.940  0.2980  0.3092 -0.1950
 2603SOL    HW1 9230   7.960   7.886   2.938 -0.4136  0.5982  0.1219
 2603SOL    HW2 9231   7.982   7.748   2.880  2.3569  0.3565  1.5602
 2604SOL     OW 9232   6.019   4.579   0.599  0.1907  0.3514 -0.2792
 2604SOL    HW1 9233   6.035   4.495   0.643  3.1105  1.1320  0.3508
 2604SOL    HW2 9234   5.956   4.624   0.656  2.9378  0.8314  2.6275
 2605SOL     OW 9235   5.405   3.091   5.348  0.3094 -0.1526  0.1062
 2605SOL    HW1 9236   5.352   3.054   5.278  1.0875 -0.9431 -0.0906
 2605SOL    HW2 9237   5.487   3.042   5.344  0.9944  0.9205  0.5055
 2606SOL     OW 9238   1.065   8.800   6.956 -0.4811 -0.2067  0.6507
 2606SOL    HW1 9239   1.156   8.788   6.931 -0.7863 -0.4116 -0.3735
 2606SOL    HW2 9240   1.039   8.882   6.914 -0.4570  0.4551  1.8656
 2607SOL     OW 9241   1.009   0.389   1.384 -0.0813 -0.4857  0.0092
 2607SOL    HW1 9242   1.084   0.409   1.328  0.4230 -0.8648  0.5395
 2607SOL    HW2 9243   0.999   0.294   1.379 -1.1622 -0.3435 -0.8457
 2608SOL     OW 9244   4.835   9.027   5.231  0.4463 -0.2100 -0.1593
 2608SOL    HW1 9245   4.924   9.052   5.254  0.3387 -0.6965  0.8789
 2608SOL    HW2 9246   4.831   9.034   5.136  0.9920  1.7173 -0.0672
 2609SOL     OW 9247   3.659   1.407   8.527 -0.0140  0.4220 -0.2666
 2609SOL    HW1 9248   3.659   1.339   8.460  1.0030  1.8812 -1.8165
 2609SOL    HW2 9249   3.634   1.362   8.607 -0.3308 -1.5672 -1.4330
 2610SOL     OW 9250   4.505   0.123   4.073  0.8125 -0.0599 -0.3083
 2610SOL    HW1 9251   4.512   0.152   3.982 -2.1930  0.1081 -0.5792
 2610SOL    HW2 9252   4.463   0.195   4.119  2.1736 -0.1907  1.2370
 2611SOL     OW 9253   5.519   0.593   3.231 -0.0186 -0.1556  0.0684
 2611SOL    HW1 9254   5.486   0.574   3.143 -1.5784 -1.8137  0.9458
 2611SOL    HW2 9255   5.566   0.514   3.257  0.8500  0.5029  0.5714
 2612SOL     OW 9256   1.424   3.530   6.659  0.5794  0.0230 -0.3996
 2612SOL    HW1 9257   1.337   3.570   6.652  0.7678  0.4611 -0.3047
 2612SOL    HW2 9258   1.426   3.494   6.748  1.1891  1.7180  0.3138
 2613SOL     OW 9259   4.805   3.358   1.144  0.0358  0.0491  0.5201
 2613SOL    HW1 9260   4.890   3.315   1.140  0.7561  1.5119 -2.0192
 2613SOL    HW2 9261   4.791   3.374   1.237  1.1635 -2.7421  1.2629
 2614SOL     OW 9262   8.056   0.503   1.305 -0.1158 -0.3111 -0.3967
 2614SOL    HW1 9263   8.017   0.494   1.218  2.6564  0.3783 -1.8390
 2614SOL    HW2 9264   7.989   0.546   1.358 -3.4338 -4.3232 -0.9274
 2615SOL     OW 9265   2.111   5.567   4.646  0.0747  0.7760  0.2065
 2615SOL    HW1 9266   2.151   5.634   4.701  1.9057  1.5889 -1.9365
 2615SOL    HW2 9267   2.118   5.602   4.557 -0.6124 -1.4700 -0.8097
 2616SOL     OW 9268   7.370   5.112   0.484 -0.3806  0.3280 -0.1116
 2616SOL    HW1 9269   7.437   5.135   0.549  0.6005 -1.5335 -0.4123
 2616SOL    HW2 9270   7.408   5.139   0.400 -0.2231 -0.2714 -0.2342
 2617SOL     OW 9271   6.648   6.720   6.934  0.8058  0.0127 -0.1253
 2617SOL    HW1 9272   6.602   6.800   6.958  1.5461 -0.1896  2.1463
 2617SOL    HW2 9273   6.587   6.675   6.874 -0.3951  1.3820  0.0010
 2618SOL     OW 9274   3.748   6.204   4.913 -0.1741  0.3386  0.3063
 2618SOL    HW1 9275   3.665   6.160   4.894  0.4727 -1.0556  0.5868
 2618SOL    HW2 9276   3.731   6.296   4.893 -2.2267  0.3440  1.6674
 2619SOL     OW 9277   3.874   2.557   5.731  0.4523 -0.1787  0.2114
 2619SOL    HW1 9278   3.911   2.576   5.644 -0.2677  1.2147  0.1743
 2619SOL    HW2 9279   3.900   2.632   5.785  1.5327 -1.3933  1.4305
 2620SOL     OW 9280   9.136   6.315   7.259 -0.5954  0.5813 -0.4911
 2620SOL    HW1 9281   9.191   6.377   7.306 -0.1240 -0.7038  0.7245
 2620SOL    HW2 9282   9.180   6.231   7.270 -0.0295  0.3007 -3.9347
 2621SOL     OW 9283   3.992   5.586   8.352 -0.2504  0.0232  0.0360
 2621SOL    HW1 9284   3.973   5.507   8.302  0.6001 -1.3708  1.8129
 2621SOL    HW2 9285   4.064   5.628   8.306  0.1323 -0.9239 -0.2435
 2622SOL     OW 9286   0.309   5.405   5.393 -0.2705  0.2839 -0.0298
 2622SOL    HW1 9287   0.355   5.397   5.477 -0.7141 -0.3371  0.1616
 2622SOL    HW2 9288   0.339   5.330   5.341  0.3604  0.9277 -0.6087
 2623SOL     OW 9289   1.000   9.027   5.296 -0.1736  0.3983 -0.4572
 2623SOL    HW1 9290   0.905   9.034   5.308 -0.0617  0.3400  0.5138
 2623SOL    HW2 9291   1.027   8.959   5.358  0.7340  1.6086  0.5109
 2624SOL     OW 9292   5.284   6.292   7.072 -0.3636 -0.3281  0.0906
 2624SOL    HW1 9293   5.292   6.199   7.052 -1.2719 -1.0731  2.6635
 2624SOL    HW2 9294   5.196   6.316   7.043 -0.3837 -0.4605  0.0440
 2625SOL     OW 9295   5.133   4.764   1.019 -0.1755  0.0621  0.3476
 2625SOL    HW1 9296   5.089   4.849   1.009 -1.1521 -0.5131 -0.3190
 2625SOL    HW2 9297   5.208   4.769   0.960 -0.2785  0.4273  0.2423
 2626SOL     OW 9298   4.216   4.524   5.114 -0.0191  0.2017  0.2621
 2626SOL    HW1 9299   4.155   4.576   5.060 -2.0199 -0.9207  1.3222
 2626SOL    HW2 9300   4.291   4.581   5.127 -2.1272  2.9306  1.4397
 2627SOL     OW 9301   5.566   4.811   0.784  0.2542  0.0117 -0.0962
 2627SOL    HW1 9302   5.531   4.879   0.841 -0.4706 -1.2221  1.0038
 2627SOL    HW2 9303   5.643   4.778   0.830  0.9700  0.4960 -0.9251
 2628SOL     OW 9304   8.563   4.711   1.992  0.7416 -0.0984  0.0942
 2628SOL    HW1 9305   8.507   4.752   1.927 -0.7151 -1.5116  0.3797
 2628SOL    HW2 9306   8.616   4.782   2.028 -0.8437  1.2886 -0.2401
 2629SOL     OW 9307   3.820   0.366   8.656  1.1101 -0.0580 -0.0948
 2629SOL    HW1 9308   3.725   0.360   8.641  0.9266  0.9427  0.5312
 2629SOL    HW2 9309   3.854   0.281   8.631  0.0964 -0.2816 -0.7619
 2630SOL     OW 9310   7.817   8.015   8.443  0.3925 -0.5138  0.4053
 2630SOL    HW1 9311   7.799   7.968   8.524 -0.5534 -0.5874  0.1584
 2630SOL    HW2 9312   7.901   7.980   8.414 -0.6312 -2.6557 -0.1711
 2631SOL     OW 9313   6.221   4.294   7.439 -0.0031 -0.0163 -0.4104
 2631SOL    HW1 9314   6.286   4.255   7.499  1.4269  0.6331 -1.4664
 2631SOL    HW2 9315   6.199   4.223   7.379  0.0744 -0.1215 -0.3149
 2632SOL     OW 9316   8.945   9.154   4.778  0.5929 -0.2350  0.0230
 2632SOL    HW1 9317   8.920   9.061   4.778  0.5516 -0.2374  1.1465
 2632SOL    HW2 9318   8.998   9.164   4.857  0.2521  0.7917  0.1327
 2633SOL     OW 9319   0.002   3.597   4.436  0.2016  0.5323  0.3286
 2633SOL    HW1 9320   0.069   3.639   4.491  0.5076 -0.0355  0.4043
 2633SOL    HW2 9321  -0.078   3.647   4.453  0.7379  1.6236 -0.2464
 2634SOL     OW 9322   3.176   6.215   8.282 -0.5918  0.1383 -0.3452
 2634SOL    HW1 9323   3.189   6.216   8.187 -0.5049  0.0976 -0.3342
 2634SOL    HW2 9324   3.104   6.276   8.296 -0.9143 -0.2105 -0.4830
 2635SOL     OW 9325   5.891   6.124   3.279 -0.2196 -0.1941  0.1783
 2635SOL    HW1 9326   5.878   6.071   3.358  1.5553 -1.8019 -0.5437
 2635SOL    HW2 9327   5.803   6.131   3.241 -0.9395 -0.2259  1.7442
 2636SOL     OW 9328   1.381   5.968   5.462 -0.0076 -1.0891  0.4889
 2636SOL    HW1 9329   1.431   6.049   5.471  0.6769 -1.5728  1.0841
 2636SOL    HW2 9330   1.443   5.899   5.481 -0.7178 -1.7411  0.4864
 2637SOL     OW 9331   5.212   3.565   6.098 -0.4732 -0.0504 -0.5046
 2637SOL    HW1 9332   5.268   3.547   6.173 -1.2968  0.0230  0.1546
 2637SOL    HW2 9333   5.270   3.601   6.032  0.0747  1.1856  0.5970
 2638SOL     OW 9334   8.926   8.355   8.047 -0.2300 -0.0902  0.2777
 2638SOL    HW1 9335   8.930   8.271   8.093 -1.9082 -0.0321  0.5933
 2638SOL    HW2 9336   9.000   8.405   8.082  1.9782 -2.0610 -1.2828
 2639SOL     OW 9337   4.934   5.405   6.358 -0.3097 -0.4884  0.0913
 2639SOL    HW1 9338   4.901   5.322   6.323  0.6138 -0.3654 -1.1314
 2639SOL    HW2 9339   5.027   5.389   6.372 -0.5828 -0.4400  2.2859
 2640SOL     OW 9340   7.890   2.039   5.660  0.0866 -0.0971  0.5594
 2640SOL    HW1 9341   7.869   2.132   5.655  1.9553  0.5095  2.3242
 2640SOL    HW2 9342   7.809   1.997   5.687 -0.3288  1.3171  1.6089
 2641SOL     OW 9343   1.766   7.178   8.467  0.1098  0.0821 -0.2252
 2641SOL    HW1 9344   1.812   7.105   8.426 -1.1944 -0.1870 -1.2829
 2641SOL    HW2 9345   1.688   7.190   8.413 -1.4674  0.0047  1.9132
 2642SOL     OW 9346   0.009   0.135   6.228  0.9438 -0.0428  0.5138
 2642SOL    HW1 9347   0.049   0.171   6.149 -0.8496  0.8782 -0.0181
 2642SOL    HW2 9348   0.059   0.174   6.300  0.9386  1.1888 -0.1213
 2643SOL     OW 9349   2.362   0.660   9.224  0.2597  0.0201 -0.2619
 2643SOL    HW1 9350   2.433   0.714   9.260  0.8305  0.4235 -1.9020
 2643SOL    HW2 9351   2.343   0.699   9.139 -1.8622 -0.1755  0.0670
 2644SOL     OW 9352   8.238   9.167   8.219  0.5664 -0.1122  0.2363
 2644SOL    HW1 9353   8.145   9.151   8.230  0.1885  1.2333 -0.7550
 2644SOL    HW2 9354   8.280   9.116   8.288 -0.9449 -0.1682  1.1384
 2645SOL     OW 9355   6.912   7.061   1.825 -0.3111 -0.9133  0.3552
 2645SOL    HW1 9356   6.851   7.107   1.883 -0.5998  0.1170 -0.7090
 2645SOL    HW2 9357   6.949   7.130   1.769  1.1512 -1.6521  0.3621
 2646SOL     OW 9358   6.281   5.672   8.886 -0.1278 -0.2182  0.2393
 2646SOL    HW1 9359   6.217   5.605   8.909 -0.1907  0.0265  0.7680
 2646SOL    HW2 9360   6.240   5.755   8.910 -0.7432  0.1833 -1.9024
 2647SOL     OW 9361   4.030   3.177   2.433  0.1255 -0.0738  0.0519
 2647SOL    HW1 9362   4.099   3.111   2.422  1.1243  1.1319 -1.3816
 2647SOL    HW2 9363   4.002   3.167   2.523  1.1847 -1.5608  0.2628
 2648SOL     OW 9364   8.797   1.392   2.279  0.1237 -0.1730  0.2207
 2648SOL    HW1 9365   8.821   1.393   2.186 -2.6737  1.5547 -0.6176
 2648SOL    HW2 9366   8.861   1.450   2.320  0.2928  0.5483 -0.9944
 2649SOL     OW 9367   9.025   8.711   4.244  0.4809 -0.3392 -0.1192
 2649SOL    HW1 9368   9.082   8.637   4.224 -0.6605 -1.2884  0.0293
 2649SOL    HW2 9369   8.947   8.671   4.284  0.3831  1.0459  1.1586
 2650SOL     OW 9370   5.868   5.624   1.927 -0.1433  0.0422 -0.2612
 2650SOL    HW1 9371   5.783   5.588   1.951  0.2988 -0.6356  0.3610
 2650SOL    HW2 9372   5.900   5.564   1.859 -0.0541  0.1477 -0.3122
 2651SOL     OW 9373   6.096   6.325   0.548  0.1918 -0.4468  0.2303
 2651SOL    HW1 9374   6.063   6.396   0.603  0.8507 -0.9559  1.3036
 2651SOL    HW2 9375   6.047   6.248   0.577 -0.4324 -0.4764 -0.8456
 2652SOL     OW 9376   5.286   1.918   3.245  0.0967 -0.6920  0.1048
 2652SOL    HW1 9377   5.368   1.876   3.220 -0.2323 -1.3178  0.0309
 2652SOL    HW2 9378   5.223   1.845   3.249 -0.5931 -0.1379 -0.4688
 2653SOL     OW 9379   3.591   1.465   3.783  0.2982 -0.3899 -0.6141
 2653SOL    HW1 9380   3.525   1.403   3.752 -0.3016  0.4785 -1.1249
 2653SOL    HW2 9381   3.619   1.430   3.867 -1.3434 -0.4223 -0.0446
 2654SOL     OW 9382   0.482   7.800   2.414  0.4217 -0.0428  0.6892
 2654SOL    HW1 9383   0.408   7.810   2.474  0.0476  0.6665  0.1357
 2654SOL    HW2 9384   0.441   7.788   2.328  0.9490 -0.3905  0.4818
 2655SOL     OW 9385   4.460   5.354   2.847 -0.1036  0.3801 -0.0438
 2655SOL    HW1 9386   4.538   5.303   2.829 -1.2084 -1.9838  1.3334
 2655SOL    HW2 9387   4.489   5.445   2.847  1.9747 -0.1895 -2.6089
 2656SOL     OW 9388   2.058   0.566   9.084 -0.4308 -0.2414  0.0443
 2656SOL    HW1 9389   2.130   0.618   9.047 -2.3229  1.2951 -1.7422
 2656SOL    HW2 9390   2.064   0.482   9.039 -0.7450  0.4898 -1.4551
 2657SOL     OW 9391   7.344   7.042   1.289  0.4777  0.2917  0.3192
 2657SOL    HW1 9392   7.281   7.113   1.302 -0.4267 -0.7125  1.5918
 2657SOL    HW2 9393   7.351   7.035   1.193 -0.4930  1.1541  0.1599
 2658SOL     OW 9394   7.469   3.053   6.801 -0.0622 -0.2064  0.3668
 2658SOL    HW1 9395   7.483   2.994   6.875 -2.5713 -0.7839  0.4619
 2658SOL    HW2 9396   7.439   2.996   6.731 -1.1100  0.7732 -0.0002
 2659SOL     OW 9397   7.952   5.289   8.427 -0.2874  0.2372 -0.7472
 2659SOL    HW1 9398   8.040   5.324   8.417 -0.9662  1.5634 -2.6800
 2659SOL    HW2 9399   7.965   5.202   8.466  1.5163  2.1097  3.4826
 2660SOL     OW 9400   5.150   2.339   3.281 -0.0070  0.0239  0.1679
 2660SOL    HW1 9401   5.100   2.266   3.246 -1.0226  1.3123 -1.1770
 2660SOL    HW2 9402   5.230   2.299   3.315 -0.4707 -1.6870 -0.6474
 2661SOL     OW 9403   2.524   9.012   7.575  0.1583  0.2565 -0.4588
 2661SOL    HW1 9404   2.603   9.003   7.520  1.0041  0.3651  0.7009
 2661SOL    HW2 9405   2.470   8.936   7.552  1.1765 -0.5218 -0.3753
 2662SOL     OW 9406   2.982   5.446   4.643 -0.0310  0.1394 -0.9168
 2662SOL    HW1 9407   2.980   5.482   4.554 -1.0659 -1.3395 -1.5199
 2662SOL    HW2 9408   2.912   5.382   4.645  0.4336 -0.3707  0.7699
 2663SOL     OW 9409   7.580   8.757   2.933 -0.0466 -0.3913  0.0536
 2663SOL    HW1 9410   7.555   8.747   3.025 -3.5745  1.7378 -0.4707
 2663SOL    HW2 9411   7.597   8.851   2.924  0.5124 -0.6243 -1.3937
 2664SOL     OW 9412   5.673   6.028   0.841 -0.7910  0.2669 -0.7950
 2664SOL    HW1 9413   5.653   6.062   0.929  2.3383 -2.4158  1.1817
 2664SOL    HW2 9414   5.602   5.967   0.822 -0.7765 -0.2343  0.6195
 2665SOL     OW 9415   4.823   8.348   2.910  0.3982 -0.3892  0.1214
 2665SOL    HW1 9416   4.852   8.421   2.966  0.8072 -0.9311  0.6335
 2665SOL    HW2 9417   4.809   8.276   2.971  0.2227 -0.8101 -0.4115
 2666SOL     OW 9418   1.479   1.941   6.157 -0.4062  0.0551  0.1562
 2666SOL    HW1 9419   1.396   1.923   6.201  0.4004 -1.2984  1.2008
 2666SOL    HW2 9420   1.519   2.011   6.209 -0.4950  0.0811  0.1885
 2667SOL     OW 9421   2.739   3.814   4.436  0.3258  0.3766  0.3314
 2667SOL    HW1 9422   2.825   3.773   4.436  0.9034  1.3523 -2.5130
 2667SOL    HW2 9423   2.755   3.905   4.464 -0.2938 -0.1060  2.4889
 2668SOL     OW 9424   3.391   3.501   1.402  0.0652  0.0717 -0.5865
 2668SOL    HW1 9425   3.453   3.560   1.360  0.1556 -0.7110 -1.5736
 2668SOL    HW2 9426   3.335   3.470   1.331 -0.6321 -0.2489  0.0870
 2669SOL     OW 9427   4.648   6.310   2.482  0.3327  0.7578  0.0482
 2669SOL    HW1 9428   4.643   6.263   2.399  0.4321  0.8907 -0.0358
 2669SOL    HW2 9429   4.581   6.378   2.475  1.0602  1.4584 -0.3766
 2670SOL     OW 9430   8.684   0.906   0.172  0.1031  0.4546  0.6582
 2670SOL    HW1 9431   8.708   0.976   0.112  0.0094  1.1337  1.3967
 2670SOL    HW2 9432   8.623   0.947   0.233 -1.3392 -0.7103  0.0620
 2671SOL     OW 9433   4.022   6.032   4.318 -0.4443 -0.2827 -0.5515
 2671SOL    HW1 9434   4.034   6.038   4.413 -0.0510 -0.5632 -0.5801
 2671SOL    HW2 9435   3.990   5.942   4.304  1.5283 -0.9800 -0.8701
 2672SOL     OW 9436   1.245   2.347   6.640 -0.2497 -0.2161  0.5260
 2672SOL    HW1 9437   1.293   2.270   6.610 -1.2870 -0.4580 -0.6299
 2672SOL    HW2 9438   1.209   2.385   6.559 -0.9339  0.6632  1.2237
 2673SOL     OW 9439   3.589   2.987   6.956  0.2524  0.1134  0.0254
 2673SOL    HW1 9440   3.632   2.906   6.984  0.7083  0.0756 -0.7357
 2673SOL    HW2 9441   3.508   2.991   7.007  0.6984 -0.3140  0.7845
 2674SOL     OW 9442   5.471   1.906   1.903  0.2726  0.1724 -0.7608
 2674SOL    HW1 9443   5.541   1.841   1.912  0.0557 -0.2171 -1.7028
 2674SOL    HW2 9444   5.517   1.990   1.897  0.7028 -0.1095 -1.6934
 2675SOL     OW 9445   0.953   1.136   6.948 -0.0184 -0.0160  0.2630
 2675SOL    HW1 9446   0.903   1.055   6.959  2.0722 -1.2824  0.8620
 2675SOL    HW2 9447   1.043   1.113   6.972  0.8891  2.1756 -0.7552
 2676SOL     OW 9448   0.714   8.178   8.836  0.0153 -0.2922  0.1199
 2676SOL    HW1 9449   0.737   8.230   8.759 -0.4283  0.8611  0.7400
 2676SOL    HW2 9450   0.618   8.171   8.832 -0.0207 -0.1123  0.6379
 2677SOL     OW 9451   3.132   1.085   8.296 -0.3200 -0.1738 -0.0760
 2677SOL    HW1 9452   3.043   1.105   8.268  0.3404  1.1654 -1.3745
 2677SOL    HW2 9453   3.180   1.166   8.282  1.4774 -1.3249 -1.0486
 2678SOL     OW 9454   4.820   1.135   3.999 -0.0796 -0.2563 -0.7623
 2678SOL    HW1 9455   4.750   1.096   3.947 -0.3994 -0.6476 -0.0522
 2678SOL    HW2 9456   4.866   1.192   3.937 -1.3649  0.4493 -1.1118
 2679SOL     OW 9457   3.545   8.624   2.500 -0.1902 -0.0235  0.2860
 2679SOL    HW1 9458   3.635   8.652   2.516  0.2567 -1.5604  0.6036
 2679SOL    HW2 9459   3.541   8.535   2.533 -1.2286 -0.7754 -1.6790
 2680SOL     OW 9460   7.070   3.373   5.268  0.5540  0.3962  0.2616
 2680SOL    HW1 9461   7.077   3.431   5.192  1.5495  0.8325  0.6691
 2680SOL    HW2 9462   7.146   3.315   5.261 -0.4231 -0.8744 -0.1309
 2681SOL     OW 9463   1.623   2.423   3.585  0.8252 -0.5693 -0.0935
 2681SOL    HW1 9464   1.562   2.370   3.635  2.0702 -1.5327  0.4768
 2681SOL    HW2 9465   1.583   2.431   3.499  0.1072 -1.5402  0.1315
 2682SOL     OW 9466   3.071   7.139   8.985 -0.4388 -0.3769 -0.1261
 2682SOL    HW1 9467   3.161   7.132   8.955 -0.7062 -1.8189 -0.6661
 2682SOL    HW2 9468   3.027   7.190   8.917 -0.0857  0.1944  0.0621
 2683SOL     OW 9469   5.826   7.283   8.949 -0.4823  0.0101  0.1360
 2683SOL    HW1 9470   5.899   7.255   9.004 -0.2158  1.0457  0.3378
 2683SOL    HW2 9471   5.854   7.368   8.914 -0.4324 -0.8357 -1.9880
 2684SOL     OW 9472   3.736   4.576   8.146 -0.1108 -0.2245  0.3234
 2684SOL    HW1 9473   3.752   4.520   8.070  1.4755 -0.8874  1.1032
 2684SOL    HW2 9474   3.761   4.664   8.117 -0.4860 -0.2852 -0.2102
 2685SOL     OW 9475   4.042   5.884   5.668 -0.2330 -0.0086  0.2944
 2685SOL    HW1 9476   3.984   5.959   5.658  0.7937  0.8523  0.6412
 2685SOL    HW2 9477   3.990   5.820   5.719 -1.0798  0.4893  0.0678
 2686SOL     OW 9478   6.979   2.241   2.281 -0.0657 -0.1121 -0.2295
 2686SOL    HW1 9479   6.923   2.181   2.232 -0.9855  0.8845 -0.4285
 2686SOL    HW2 9480   6.938   2.248   2.367 -0.8188  1.3730 -0.6880
 2687SOL     OW 9481   9.036   8.852   2.990 -0.4980 -0.0973  0.2996
 2687SOL    HW1 9482   9.123   8.834   3.025 -0.0320  1.8353  0.2536
 2687SOL    HW2 9483   8.977   8.796   3.042  0.6862 -1.0062  0.7078
 2688SOL     OW 9484   1.971   5.850   4.894 -0.1963 -0.7036  0.2224
 2688SOL    HW1 9485   1.983   5.931   4.943 -1.9134  0.1080 -0.6209
 2688SOL    HW2 9486   1.900   5.869   4.833  1.8214 -1.6648 -2.6254
 2689SOL     OW 9487   4.748   5.047   6.009  0.5306  0.3792  0.2998
 2689SOL    HW1 9488   4.721   5.123   5.958  0.2286  1.9774  2.7264
 2689SOL    HW2 9489   4.757   5.079   6.098  1.2220 -2.2613  1.2700
 2690SOL     OW 9490   7.387   3.001   7.196 -0.0830  0.1525 -0.4345
 2690SOL    HW1 9491   7.339   2.952   7.263  1.7228 -0.2694  0.6350
 2690SOL    HW2 9492   7.344   3.087   7.193 -1.6140 -0.5798 -0.4016
 2691SOL     OW 9493   2.485   7.929   2.312 -0.6058 -0.1831 -1.0031
 2691SOL    HW1 9494   2.532   7.879   2.244  0.7775 -1.9413  1.1172
 2691SOL    HW2 9495   2.399   7.887   2.317 -1.6911  1.5273 -3.2425
 2692SOL     OW 9496   3.876   9.170   2.422  0.2862 -0.3022 -0.0742
 2692SOL    HW1 9497   3.931   9.107   2.375 -0.7511 -1.5787  0.3455
 2692SOL    HW2 9498   3.801   9.183   2.365  0.9889  1.4706 -0.6647
 2693SOL     OW 9499   4.587   7.277   2.667  0.8073 -0.0134 -0.2661
 2693SOL    HW1 9500   4.680   7.296   2.673  0.5997  0.9194  0.3651
 2693SOL    HW2 9501   4.568   7.227   2.746  0.8900 -0.7443 -0.7082
 2694SOL     OW 9502   2.238   7.046   4.068  0.3087 -0.5979 -0.1009
 2694SOL    HW1 9503   2.188   6.974   4.031 -0.1078 -0.0260 -0.6819
 2694SOL    HW2 9504   2.233   7.033   4.162  1.7208 -2.2998 -0.2260
 2695SOL     OW 9505   4.387   3.711   5.897  0.2668  0.1294 -0.4340
 2695SOL    HW1 9506   4.316   3.775   5.892 -1.8959 -1.8517  2.4180
 2695SOL    HW2 9507   4.431   3.729   5.980  0.5572 -1.1432 -0.2876
 2696SOL     OW 9508   7.640   4.863   7.542  0.1103  0.1888 -0.6572
 2696SOL    HW1 9509   7.703   4.854   7.613  1.4478 -0.7101 -1.9204
 2696SOL    HW2 9510   7.556   4.876   7.587  1.3376  3.1461  1.0946
 2697SOL     OW 9511   7.531   6.110   0.201  0.3842 -0.8595  0.1180
 2697SOL    HW1 9512   7.504   6.029   0.243 -1.5366 -1.1264 -1.4720
 2697SOL    HW2 9513   7.530   6.090   0.107  2.1496  0.3822 -0.2304
 2698SOL     OW 9514   2.506   6.556   0.448 -0.4366 -0.4040 -0.0147
 2698SOL    HW1 9515   2.599   6.548   0.427  0.3050 -0.0761  2.7658
 2698SOL    HW2 9516   2.464   6.485   0.399  1.0999 -0.0159 -2.0104
 2699SOL     OW 9517   4.277   3.017   2.387  0.6486 -0.3664  0.9005
 2699SOL    HW1 9518   4.252   2.930   2.355  1.0720 -0.6484  1.3362
 2699SOL    HW2 9519   4.312   3.062   2.310 -1.3291  0.1120  0.2008
 2700SOL     OW 9520   2.604   2.683   0.692  0.2634  0.3948  0.3252
 2700SOL    HW1 9521   2.644   2.605   0.729 -0.9151 -0.1796  0.4435
 2700SOL    HW2 9522   2.641   2.690   0.604 -0.5315 -1.0148 -0.1431
 2701SOL     OW 9523   3.969   6.434   8.755  0.1984  0.0987 -0.3158
 2701SOL    HW1 9524   4.046   6.472   8.796 -1.0923  1.6427  0.7924
 2701SOL    HW2 9525   3.937   6.370   8.818  0.3332 -0.2448 -0.5926
 2702SOL     OW 9526   2.248   1.347   2.769 -0.3800 -0.0920 -0.0212
 2702SOL    HW1 9527   2.196   1.271   2.744 -1.0666  0.0319  0.9279
 2702SOL    HW2 9528   2.264   1.335   2.863  1.2846 -0.0952 -0.2868
 2703SOL     OW 9529   3.590   8.174   5.227 -0.5629  0.3696  0.5767
 2703SOL    HW1 9530   3.620   8.117   5.298  1.0708 -0.7367 -0.9148
 2703SOL    HW2 9531   3.619   8.130   5.147  0.6998  3.2263 -0.6632
 2704SOL     OW 9532   3.708   7.542   5.180  0.3011 -0.3884  0.4300
 2704SOL    HW1 9533   3.695   7.469   5.120 -1.1187  0.3966 -0.2687
 2704SOL    HW2 9534   3.793   7.525   5.221 -0.3764 -2.8728  0.9564
 2705SOL     OW 9535   8.232   7.115   1.100  0.2899 -0.3314  0.2600
 2705SOL    HW1 9536   8.195   7.202   1.084  1.8094 -0.0057 -1.8600
 2705SOL    HW2 9537   8.323   7.122   1.072  1.0799 -2.0295  2.1432
 2706SOL     OW 9538   0.437   7.111   0.593  0.3847  0.1144 -0.2400
 2706SOL    HW1 9539   0.477   7.175   0.651 -0.9151  2.2658 -1.5958
 2706SOL    HW2 9540   0.401   7.162   0.521 -3.0627 -1.7870 -0.1173
 2707SOL     OW 9541   4.277   5.757   1.225 -0.0762 -0.1099 -0.9167
 2707SOL    HW1 9542   4.347   5.803   1.271 -0.7224 -0.5194  0.5324
 2707SOL    HW2 9543   4.321   5.714   1.152  1.1135 -0.0193 -0.2864
 2708SOL     OW 9544   4.818   1.450   3.551  0.7429 -0.1788  0.5584
 2708SOL    HW1 9545   4.773   1.523   3.508 -2.9231 -1.2851  2.1551
 2708SOL    HW2 9546   4.758   1.421   3.619  3.0825 -3.2209  1.5635
 2709SOL     OW 9547   5.209   8.006   9.195 -0.2360  0.0330 -0.1031
 2709SOL    HW1 9548   5.227   8.008   9.101  0.8060  0.1721  0.0869
 2709SOL    HW2 9549   5.187   8.096   9.218 -0.5605 -0.0143 -0.2218
 2710SOL     OW 9550   4.356   1.908   3.219  0.1225  0.0237  0.1917
 2710SOL    HW1 9551   4.421   1.854   3.264  1.3308  0.0159 -1.4865
 2710SOL    HW2 9552   4.309   1.848   3.162 -2.5718 -0.2974  2.5085
 2711SOL     OW 9553   3.973   1.214   2.236  0.2922 -0.4831 -0.3026
 2711SOL    HW1 9554   4.060   1.224   2.199  1.0842  0.5604  1.6955
 2711SOL    HW2 9555   3.973   1.270   2.314 -2.2840 -0.1394 -0.4451
 2712SOL     OW 9556   0.804   6.187   8.702  0.1431 -0.1599  0.2605
 2712SOL    HW1 9557   0.784   6.119   8.638 -0.8280 -1.2808  1.6700
 2712SOL    HW2 9558   0.847   6.140   8.774 -0.0188  0.8094  1.0157
 2713SOL     OW 9559   4.224   6.157   0.026 -0.2045 -0.0201 -0.8189
 2713SOL    HW1 9560   4.230   6.096   0.099  0.4726 -0.2802 -1.0884
 2713SOL    HW2 9561   4.312   6.160  -0.012 -0.7848 -0.7661 -2.3249
 2714SOL     OW 9562   4.658   7.622   9.082 -0.9349  0.2495  0.3660
 2714SOL    HW1 9563   4.668   7.583   8.995  1.9190  0.3518  0.5425
 2714SOL    HW2 9564   4.667   7.549   9.142 -1.1501  0.4237  0.6119
 2715SOL     OW 9565   7.292   1.714   8.190 -0.1900  0.2093 -0.3443
 2715SOL    HW1 9566   7.377   1.741   8.225 -0.2791  0.3592 -0.2425
 2715SOL    HW2 9567   7.240   1.693   8.268  0.3982 -1.8756 -0.4431
 2716SOL     OW 9568   6.696   4.497   2.448  0.6273  0.1976 -0.3575
 2716SOL    HW1 9569   6.700   4.536   2.536 -0.6860  0.1614 -0.2662
 2716SOL    HW2 9570   6.603   4.483   2.432  0.8430  0.2555 -1.7885
 2717SOL     OW 9571   4.226   0.485   5.238 -0.2738 -0.2164 -0.0873
 2717SOL    HW1 9572   4.209   0.392   5.223  1.2376 -0.2712 -1.7523
 2717SOL    HW2 9573   4.307   0.488   5.289 -0.2612  0.1943 -0.1229
 2718SOL     OW 9574   0.298   8.758   0.884  0.2955 -0.2900 -0.1629
 2718SOL    HW1 9575   0.221   8.768   0.941  1.7652  1.7666  1.6347
 2718SOL    HW2 9576   0.287   8.827   0.818  0.7335  0.1980  0.2730
 2719SOL     OW 9577   9.112   8.624   7.568  0.2323 -0.0907 -0.0478
 2719SOL    HW1 9578   9.025   8.604   7.602 -0.6795  0.8362 -1.7054
 2719SOL    HW2 9579   9.162   8.652   7.645 -0.7588 -1.1166  1.0085
 2720SOL     OW 9580   0.178   4.261   3.761 -0.2980  0.2007 -0.1027
 2720SOL    HW1 9581   0.223   4.304   3.688  0.2672 -1.8800 -1.0440
 2720SOL    HW2 9582   0.227   4.290   3.839  1.7093 -0.7015 -0.9437
 2721SOL     OW 9583   3.875   4.288   1.615 -0.3313  0.3175 -0.0718
 2721SOL    HW1 9584   3.875   4.353   1.685 -1.3719  0.0818  0.1560
 2721SOL    HW2 9585   3.783   4.279   1.590  0.0101  0.4250 -1.5001
 2722SOL     OW 9586   0.593   7.623   3.153 -0.2957 -0.1131 -0.1633
 2722SOL    HW1 9587   0.528   7.604   3.221  0.1649 -1.9538 -0.1971
 2722SOL    HW2 9588   0.673   7.642   3.202 -0.1641 -0.6529 -0.1610
 2723SOL     OW 9589   6.430   2.352   0.708  0.0537  0.1989 -0.5329
 2723SOL    HW1 9590   6.357   2.307   0.667 -1.3520 -0.1698  2.1375
 2723SOL    HW2 9591   6.400   2.442   0.720 -0.0756 -0.0044  0.7701
 2724SOL     OW 9592   6.706   3.297   5.050  0.5399  1.1989  0.1234
 2724SOL    HW1 9593   6.754   3.358   4.993  1.4422  1.5042  1.1669
 2724SOL    HW2 9594   6.729   3.325   5.139  0.6528 -0.4109  0.6318
 2725SOL     OW 9595   9.017   4.645   4.333  0.1334  0.1014 -0.2794
 2725SOL    HW1 9596   9.108   4.665   4.315 -0.2090  0.5919 -1.5621
 2725SOL    HW2 9597   8.968   4.719   4.297 -0.7315  0.3047  1.2166
 2726SOL     OW 9598   4.994   9.069   8.738 -0.2373  0.7420 -0.0775
 2726SOL    HW1 9599   4.951   9.144   8.697 -1.1704  0.4054  0.2654
 2726SOL    HW2 9600   4.979   8.996   8.677 -0.7412  0.4720  0.3621
 2727SOL     OW 9601   5.293   5.910   5.599  0.2429 -0.1841 -0.3268
 2727SOL    HW1 9602   5.257   5.998   5.597  0.4586 -0.1107 -1.8223
 2727SOL    HW2 9603   5.382   5.921   5.633  0.3813  0.2125 -0.8233
 2728SOL     OW 9604   0.583   0.661   8.795  0.1912  0.6445 -1.2194
 2728SOL    HW1 9605   0.664   0.650   8.745 -0.2430  0.0689 -1.8161
 2728SOL    HW2 9606   0.610   0.709   8.874  1.5561 -1.5936 -0.2223
 2729SOL     OW 9607   3.525   2.349   2.260 -0.0041 -0.0702  0.4924
 2729SOL    HW1 9608   3.534   2.424   2.319  1.2596  0.9687 -0.9400
 2729SOL    HW2 9609   3.578   2.280   2.300  1.4955  0.8768  0.2072
 2730SOL     OW 9610   3.556   8.427   5.319 -0.3974 -0.4981  0.0705
 2730SOL    HW1 9611   3.551   8.336   5.292 -0.1863  0.1482 -2.3879
 2730SOL    HW2 9612   3.584   8.474   5.240  0.5626  1.5591  1.5519
 2731SOL     OW 9613   1.852   4.045   3.692  0.6312 -0.3500 -0.0453
 2731SOL    HW1 9614   1.908   4.109   3.735  0.3072  0.9455 -1.4406
 2731SOL    HW2 9615   1.891   3.960   3.712  2.4925  0.4397 -0.1188
 2732SOL     OW 9616   5.952   6.396   7.459  0.1368 -0.1491 -0.0995
 2732SOL    HW1 9617   5.880   6.410   7.520  0.2641  0.3653 -0.0632
 2732SOL    HW2 9618   5.910   6.382   7.374 -0.0438 -0.9514  0.1149
 2733SOL     OW 9619   8.978   2.217   7.186  0.2264 -0.3317 -0.4209
 2733SOL    HW1 9620   8.891   2.190   7.157  0.1545  0.7437 -1.2306
 2733SOL    HW2 9621   9.001   2.153   7.254 -1.9619  0.4140  1.1168
 2734SOL     OW 9622   2.818   0.633   8.485  0.0774 -0.8207  0.0148
 2734SOL    HW1 9623   2.799   0.703   8.548  3.7042  0.0426  0.3620
 2734SOL    HW2 9624   2.863   0.567   8.537 -1.4998 -2.5706 -0.7371
 2735SOL     OW 9625   3.960   7.824   6.415 -0.0784  0.0234 -0.0156
 2735SOL    HW1 9626   3.951   7.832   6.509 -0.4388  1.1223 -0.1247
 2735SOL    HW2 9627   3.895   7.760   6.389 -1.2488  1.0507  0.2883
 2736SOL     OW 9628   9.244   8.939   2.518 -0.2460  0.2559 -0.1517
 2736SOL    HW1 9629   9.304   8.939   2.593  1.0374 -0.7239 -1.1210
 2736SOL    HW2 9630   9.242   8.848   2.490 -1.5286  0.4357 -0.6791
 2737SOL     OW 9631   6.961   3.915   1.014  0.5188  0.3313 -0.0564
 2737SOL    HW1 9632   6.941   3.984   1.078  1.5703  1.3900 -0.8234
 2737SOL    HW2 9633   7.042   3.944   0.972 -1.0061  0.6001 -3.0951
 2738SOL     OW 9634   8.449   3.720   2.168  0.4281 -0.0567 -0.3745
 2738SOL    HW1 9635   8.399   3.782   2.115  0.0811  0.1856  0.2182
 2738SOL    HW2 9636   8.414   3.731   2.257  0.3639 -1.1058 -0.2575
 2739SOL     OW 9637   2.121   8.060   4.336  0.0710  0.3512  0.4969
 2739SOL    HW1 9638   2.182   8.123   4.296 -0.6368  0.1410 -0.9971
 2739SOL    HW2 9639   2.078   8.018   4.261  1.2697 -2.7081  1.3737
 2740SOL     OW 9640   7.456   3.939   2.972  0.0241 -0.3537  0.1783
 2740SOL    HW1 9641   7.543   3.966   3.002 -0.1961 -2.0080  2.6187
 2740SOL    HW2 9642   7.419   3.890   3.046 -3.0629  0.3856 -0.7058
 2741SOL     OW 9643   4.170   6.400   6.509  0.2740 -0.3454  0.1155
 2741SOL    HW1 9644   4.136   6.410   6.420  0.4148 -2.5021 -0.2341
 2741SOL    HW2 9645   4.162   6.487   6.548 -1.3323  0.2612 -1.4564
 2742SOL     OW 9646   3.951   6.839   9.053 -0.0470 -0.1771  0.1724
 2742SOL    HW1 9647   3.903   6.819   8.972 -0.3897 -1.6396  0.7135
 2742SOL    HW2 9648   4.015   6.905   9.026 -1.7828  1.2413 -0.7528
 2743SOL     OW 9649   3.712   6.314   2.707  0.0583 -0.4737 -0.6343
 2743SOL    HW1 9650   3.750   6.332   2.793 -0.6213 -0.5673 -0.3038
 2743SOL    HW2 9651   3.739   6.225   2.686 -0.1369 -0.6087 -0.3169
 2744SOL     OW 9652   3.039   6.589   8.812 -0.5885 -0.0705  0.4682
 2744SOL    HW1 9653   3.110   6.652   8.822 -0.9717  0.2945  0.9293
 2744SOL    HW2 9654   3.007   6.573   8.901 -0.7705 -0.5979  0.3141
 2745SOL     OW 9655   1.143   7.748   7.109 -0.8830 -0.0693 -0.2584
 2745SOL    HW1 9656   1.192   7.776   7.186 -1.6518 -0.7534  0.5057
 2745SOL    HW2 9657   1.192   7.784   7.034  0.4779 -0.2948  0.4911
 2746SOL     OW 9658   5.896   6.589   1.078  0.0366  0.2015  0.0986
 2746SOL    HW1 9659   5.989   6.585   1.099  0.0336  0.1684  0.1043
 2746SOL    HW2 9660   5.892   6.643   0.998 -0.0221  0.9581  0.5953
 2747SOL     OW 9661   6.139   4.070   7.299  0.1705 -0.3512 -0.5143
 2747SOL    HW1 9662   6.180   4.003   7.244  0.6384  1.3940 -2.4278
 2747SOL    HW2 9663   6.052   4.035   7.319  0.7432 -1.9289 -0.6422
 2748SOL     OW 9664   0.722   4.354   2.036  1.0961 -0.6066 -0.2372
 2748SOL    HW1 9665   0.783   4.419   2.000 -0.5455  0.8422 -0.5738
 2748SOL    HW2 9666   0.649   4.353   1.973  0.5857 -1.9735  0.3459
 2749SOL     OW 9667   0.982   6.188   7.127 -0.2510 -0.2615 -0.2479
 2749SOL    HW1 9668   1.028   6.114   7.086  0.3848 -0.5173  0.8973
 2749SOL    HW2 9669   1.049   6.257   7.133 -0.3625 -0.2006  0.2826
 2750SOL     OW 9670   4.662   4.249   4.795 -0.0102  0.0433 -0.4105
 2750SOL    HW1 9671   4.686   4.196   4.872  0.9591  0.8005 -0.1586
 2750SOL    HW2 9672   4.583   4.295   4.822 -1.2529 -1.7547 -0.8784
 2751SOL     OW 9673   8.767   3.623   0.671 -0.0348  0.2627 -0.1867
 2751SOL    HW1 9674   8.830   3.655   0.607  2.7122 -0.9259  1.7497
 2751SOL    HW2 9675   8.743   3.536   0.641  0.5415  0.0694 -0.0962
 2752SOL     OW 9676   6.483   8.183   6.605 -0.1127 -0.8673 -1.0010
 2752SOL    HW1 9677   6.430   8.158   6.530 -1.3184 -1.4968  0.0205
 2752SOL    HW2 9678   6.477   8.278   6.610  1.6822 -0.5895 -2.8882
 2753SOL     OW 9679   4.970   3.350   0.065 -0.3265 -0.5486  0.4545
 2753SOL    HW1 9680   5.021   3.425   0.095  1.6999 -0.2420 -3.2033
 2753SOL    HW2 9681   4.892   3.387   0.024  0.4828 -0.3948 -1.0022
 2754SOL     OW 9682   7.080   6.777   7.349 -0.1172 -0.1786 -0.1735
 2754SOL    HW1 9683   7.002   6.783   7.295 -0.2310 -1.1173 -0.1316
 2754SOL    HW2 9684   7.150   6.813   7.294 -0.4184 -0.1746 -0.5559
 2755SOL     OW 9685   5.664   7.990   2.260 -0.1383 -0.2518 -0.3262
 2755SOL    HW1 9686   5.707   7.987   2.175 -0.9893 -3.1692 -0.7687
 2755SOL    HW2 9687   5.570   7.983   2.240 -0.7270  2.9817  0.7417
 2756SOL     OW 9688   5.942   5.873   2.526 -0.1256 -0.1010  0.3815
 2756SOL    HW1 9689   5.970   5.958   2.560  0.8631 -0.5457  0.7064
 2756SOL    HW2 9690   6.011   5.847   2.465 -0.3090 -0.7759  0.4506
 2757SOL     OW 9691   5.847   0.261   8.570 -0.3038  0.2392  0.0849
 2757SOL    HW1 9692   5.828   0.285   8.480 -2.1003 -1.0043  0.0660
 2757SOL    HW2 9693   5.899   0.181   8.563  0.0593  0.4738  0.1380
 2758SOL     OW 9694   1.095   1.899   2.979  0.1039  0.4360  0.2652
 2758SOL    HW1 9695   1.117   1.820   3.028  2.0411  1.9112  1.9258
 2758SOL    HW2 9696   1.173   1.954   2.984 -0.6202  1.8832 -2.1226
 2759SOL     OW 9697   8.849   5.609   3.855 -0.0898  0.0027 -0.0673
 2759SOL    HW1 9698   8.799   5.690   3.843  0.0623  0.0088 -0.7122
 2759SOL    HW2 9699   8.791   5.552   3.905 -0.8920 -0.1046 -1.0786
 2760SOL     OW 9700   8.095   0.292   0.114  0.5585  0.0560  0.2249
 2760SOL    HW1 9701   8.069   0.206   0.147 -2.1741  0.6284 -0.2048
 2760SOL    HW2 9702   8.112   0.344   0.193 -0.3989 -0.1681  0.5940
 2761SOL     OW 9703   2.990   8.037   0.242 -0.0855  0.8355 -0.2982
 2761SOL    HW1 9704   2.923   7.984   0.200 -0.7563  0.4560  1.1755
 2761SOL    HW2 9705   2.942   8.099   0.297  0.7439  1.4837 -0.2694
 2762SOL     OW 9706   9.255   4.233   1.013  0.1806 -0.0532  0.0026
 2762SOL    HW1 9707   9.184   4.169   1.004  1.4007 -1.5185  0.4822
 2762SOL    HW2 9708   9.213   4.309   1.052 -1.1271 -0.8984  0.3235
 2763SOL     OW 9709   7.260   1.418   2.028  0.3856  0.2770  0.3315
 2763SOL    HW1 9710   7.223   1.352   2.087 -0.0513 -0.4223 -0.6794
 2763SOL    HW2 9711   7.278   1.369   1.947  0.4895  1.3080 -0.2791
 2764SOL     OW 9712   7.290   4.778   5.311  0.6032  0.7790  0.0489
 2764SOL    HW1 9713   7.382   4.755   5.306  0.3561  0.0613 -1.8439
 2764SOL    HW2 9714   7.286   4.870   5.283  0.6433  0.5064 -0.8676
 2765SOL     OW 9715   6.292   7.096   0.502  0.4312  0.2663  0.3774
 2765SOL    HW1 9716   6.281   7.174   0.557 -0.1540 -0.1364  0.8503
 2765SOL    HW2 9717   6.233   7.031   0.542  0.1243 -0.0839 -0.6322
 2766SOL     OW 9718   5.554   2.363   5.257 -0.1019  0.1066  0.3031
 2766SOL    HW1 9719   5.497   2.338   5.330 -0.1219  0.1705  0.3098
 2766SOL    HW2 9720   5.635   2.391   5.300 -0.2286  0.4536  0.3195
 2767SOL     OW 9721   5.011   8.432   7.616  0.6177 -0.3365 -0.4337
 2767SOL    HW1 9722   5.072   8.361   7.592 -0.1010 -0.3784 -2.3593
 2767SOL    HW2 9723   5.055   8.512   7.586  0.2078 -0.2685 -0.8723
 2768SOL     OW 9724   4.115   1.540   8.079 -0.1275 -0.1491 -0.5914
 2768SOL    HW1 9725   4.106   1.482   8.004 -1.6599  0.1949 -0.7240
 2768SOL    HW2 9726   4.041   1.516   8.136  0.6925 -0.0308  0.5439
 2769SOL     OW 9727   5.041   4.895   4.503  0.6375 -0.0462  0.5548
 2769SOL    HW1 9728   5.056   4.801   4.505  2.3788  0.1602 -0.6676
 2769SOL    HW2 9729   4.970   4.907   4.440  0.7735 -0.4949  0.3146
 2770SOL     OW 9730   4.099   5.641   0.938  0.3318  0.0255 -0.1977
 2770SOL    HW1 9731   4.186   5.633   0.977 -0.5421 -0.5373  1.7579
 2770SOL    HW2 9732   4.094   5.570   0.875  1.1765 -0.1016 -0.1322
 2771SOL     OW 9733   3.570   4.073   4.302 -0.1540  0.0327 -0.4003
 2771SOL    HW1 9734   3.659   4.089   4.336  0.7584  1.3816 -3.1407
 2771SOL    HW2 9735   3.584   4.026   4.220 -2.0927 -0.8287 -0.2870
 2772SOL     OW 9736   7.888   2.983   5.642 -0.1329  0.2768 -0.1943
 2772SOL    HW1 9737   7.893   2.952   5.552  2.4773  0.6766 -0.2708
 2772SOL    HW2 9738   7.880   2.903   5.695  1.6674 -0.2290 -0.6375
 2773SOL     OW 9739   3.055   8.686   4.034  0.2221 -0.5035 -0.1705
 2773SOL    HW1 9740   2.966   8.691   4.069 -0.1897 -2.0566 -0.9431
 2773SOL    HW2 9741   3.049   8.625   3.961  2.0592 -1.1726  0.1834
 2774SOL     OW 9742   3.111   0.715   0.219  0.0383  0.1003  0.4658
 2774SOL    HW1 9743   3.038   0.776   0.218  0.1565  0.2450  0.6178
 2774SOL    HW2 9744   3.081   0.642   0.274 -0.8728 -0.9471 -1.3238
 2775SOL     OW 9745   2.714   5.237   0.192  0.0277 -0.0227  0.4953
 2775SOL    HW1 9746   2.662   5.308   0.229  1.2510  0.3288  1.6284
 2775SOL    HW2 9747   2.651   5.184   0.143 -1.4821  0.1281  2.1583
 2776SOL     OW 9748   7.648   7.862   2.818 -0.2135 -0.6620  0.0778
 2776SOL    HW1 9749   7.573   7.854   2.760 -1.5273  0.6344  1.4772
 2776SOL    HW2 9750   7.714   7.910   2.768 -1.0786 -0.1096 -0.5373
 2777SOL     OW 9751   5.446   5.313   3.416  0.2372 -0.1457  0.1404
 2777SOL    HW1 9752   5.476   5.254   3.485 -0.9031 -0.7337  0.1573
 2777SOL    HW2 9753   5.467   5.401   3.449  1.2219 -0.4886  0.4711
 2778SOL     OW 9754   5.400   5.641   9.259  0.1062  0.0753  0.2802
 2778SOL    HW1 9755   5.337   5.607   9.322  0.0890 -1.6679 -0.6165
 2778SOL    HW2 9756   5.454   5.565   9.236  1.8164  1.2782  0.1783
 2779SOL     OW 9757   5.785   0.467   8.899  0.3167  0.5388 -0.9759
 2779SOL    HW1 9758   5.701   0.441   8.860  0.7951 -1.1435 -0.9584
 2779SOL    HW2 9759   5.775   0.560   8.916 -1.0474  0.6732 -2.2506
 2780SOL     OW 9760   8.522   6.441   6.807  0.1628 -0.2088  0.0383
 2780SOL    HW1 9761   8.438   6.443   6.853 -0.4012 -0.4271 -0.9478
 2780SOL    HW2 9762   8.498   6.438   6.714  1.2656 -0.2649 -0.2556
 2781SOL     OW 9763   8.046   5.681   8.407 -0.1923 -0.3139  0.0110
 2781SOL    HW1 9764   7.988   5.668   8.331 -0.4331 -0.7535  0.2639
 2781SOL    HW2 9765   8.129   5.709   8.369 -0.6792  0.7246 -0.3281
 2782SOL     OW 9766   3.627   0.760   2.548 -0.0221  0.3058  0.0661
 2782SOL    HW1 9767   3.613   0.757   2.643  1.2074 -0.6730  0.2323
 2782SOL    HW2 9768   3.634   0.854   2.528 -3.6062  0.7909  0.3734
 2783SOL     OW 9769   4.876   3.823   0.130  0.4496  0.3122  0.0389
 2783SOL    HW1 9770   4.803   3.786   0.081 -0.3736  1.9106 -0.0230
 2783SOL    HW2 9771   4.836   3.861   0.208  1.2445  0.9327  0.1642
 2784SOL     OW 9772   6.172   2.749   8.900 -0.8192  0.3474 -0.6069
 2784SOL    HW1 9773   6.142   2.789   8.818 -1.1498 -1.3453 -1.3624
 2784SOL    HW2 9774   6.092   2.736   8.951 -1.0490 -1.3628 -1.3310
 2785SOL     OW 9775   7.438   3.784   2.085  0.0149 -0.3552 -0.3239
 2785SOL    HW1 9776   7.521   3.809   2.045  0.3949 -0.1723  0.5403
 2785SOL    HW2 9777   7.457   3.704   2.133 -0.2377 -0.1730  0.0914
 2786SOL     OW 9778   6.009   1.340   5.659 -0.6851 -1.0024  0.1367
 2786SOL    HW1 9779   5.951   1.321   5.585  0.2651  2.0891 -1.5747
 2786SOL    HW2 9780   5.954   1.387   5.722 -0.2642  1.7995 -1.4206
 2787SOL     OW 9781   8.063   5.089   1.493  0.9698  0.3334 -0.0659
 2787SOL    HW1 9782   8.111   5.172   1.491  1.9548 -0.2166 -1.2815
 2787SOL    HW2 9783   8.109   5.034   1.429 -0.6801 -0.5849 -0.5080
 2788SOL     OW 9784   2.402   8.555   6.747  0.1371  0.4691  0.6083
 2788SOL    HW1 9785   2.343   8.550   6.822  1.0776 -2.0768  1.2522
 2788SOL    HW2 9786   2.348   8.527   6.673 -0.0237  0.1985  0.8266
 2789SOL     OW 9787   8.648   8.124   9.078  0.1637  0.0526  0.7640
 2789SOL    HW1 9788   8.652   8.195   9.015 -0.2174 -0.6060 -0.0230
 2789SOL    HW2 9789   8.722   8.067   9.055 -0.8884 -1.0017 -0.1130
 2790SOL     OW 9790   1.440   1.030   5.105  0.1879 -0.1936 -0.1115
 2790SOL    HW1 9791   1.377   0.969   5.144 -1.9955  1.6222 -0.5275
 2790SOL    HW2 9792   1.442   1.005   5.013 -2.9674  1.9390 -0.9253
 2791SOL     OW 9793   7.178   5.570   0.024  0.6057  0.2157  0.2928
 2791SOL    HW1 9794   7.128   5.568  -0.058  0.8079  0.2976  0.1649
 2791SOL    HW2 9795   7.225   5.653   0.020 -0.4659  0.8855  1.1504
 2792SOL     OW 9796   2.794   0.947   3.820 -0.1009 -0.0497 -0.0222
 2792SOL    HW1 9797   2.723   0.941   3.757  0.1761  0.4458 -0.3898
 2792SOL    HW2 9798   2.843   0.865   3.810 -1.9047 -1.4645  1.8427
 2793SOL     OW 9799   0.097   4.193   0.771  0.6722  0.3920  0.3096
 2793SOL    HW1 9800   0.093   4.098   0.755  3.3508  0.1742  0.4933
 2793SOL    HW2 9801   0.060   4.204   0.859 -0.3432 -0.3635 -0.0058
 2794SOL     OW 9802   7.451   6.024   7.783 -0.4191 -0.2284  0.3100
 2794SOL    HW1 9803   7.434   6.118   7.798  1.6686  1.0655 -3.8837
 2794SOL    HW2 9804   7.408   6.006   7.700  1.3188 -2.3244 -0.1913
 2795SOL     OW 9805   3.791   2.938   2.526  0.1147  0.2959  0.1164
 2795SOL    HW1 9806   3.883   2.917   2.543 -0.7005 -2.4786  1.8380
 2795SOL    HW2 9807   3.764   2.874   2.460 -1.3252 -1.3444  2.1244
 2796SOL     OW 9808   4.343   2.138   3.033  0.2262  0.3764 -0.2104
 2796SOL    HW1 9809   4.312   2.085   2.960  0.7709  0.4916 -0.5325
 2796SOL    HW2 9810   4.370   2.074   3.099  0.1850  0.2664 -0.2998
 2797SOL     OW 9811   5.512   6.899   3.628  0.3207 -0.0188 -0.7739
 2797SOL    HW1 9812   5.602   6.867   3.635  0.0105 -0.6823  0.5699
 2797SOL    HW2 9813   5.473   6.844   3.560  0.8779  0.1429 -1.2281
 2798SOL     OW 9814   1.773   2.924   2.537 -0.2496 -0.4159  0.0249
 2798SOL    HW1 9815   1.832   2.865   2.489 -0.6606 -0.2648 -0.6688
 2798SOL    HW2 9816   1.828   3.000   2.558  0.0246 -0.6328  0.1041
 2799SOL     OW 9817   8.225   4.751   8.501 -0.0183  0.0908 -0.4583
 2799SOL    HW1 9818   8.131   4.739   8.487 -0.6511  1.3588  2.0635
 2799SOL    HW2 9819   8.249   4.687   8.568  0.7167  0.3001 -0.5010
 2800SOL     OW 9820   4.834   5.855   2.947  0.2267 -0.1187  0.0338
 2800SOL    HW1 9821   4.844   5.760   2.960  0.1232 -0.1382 -0.0353
 2800SOL    HW2 9822   4.921   5.890   2.969  0.3496 -0.2574 -0.2174
 2801SOL     OW 9823   9.273   1.621   6.919 -0.3170 -0.2013 -0.2655
 2801SOL    HW1 9824   9.217   1.644   6.845 -1.4230  0.1214  0.6421
 2801SOL    HW2 9825   9.362   1.642   6.890 -0.4222 -2.2460 -2.3432
 2802SOL     OW 9826   5.881   3.129   0.065  0.3135 -0.2519 -0.7074
 2802SOL    HW1 9827   5.894   3.159   0.155  0.6817 -1.4990 -0.3275
 2802SOL    HW2 9828   5.970   3.116   0.031  0.1631 -0.5380 -0.9916
 2803SOL     OW 9829   2.449   1.902   2.083 -0.4669  0.2427 -0.4428
 2803SOL    HW1 9830   2.502   1.886   2.161  0.0974  0.3890 -0.7816
 2803SOL    HW2 9831   2.508   1.879   2.010 -0.5457  1.2878 -0.8558
 2804SOL     OW 9832   0.242   4.411   6.933 -0.6011  0.2609  0.4990
 2804SOL    HW1 9833   0.153   4.412   6.899 -0.7021  0.2736  0.7623
 2804SOL    HW2 9834   0.297   4.395   6.856 -0.7895  0.8029  0.2433
 2805SOL     OW 9835   4.852   2.790   4.004  0.6442 -0.9674 -0.6396
 2805SOL    HW1 9836   4.941   2.768   4.031  1.1049  0.6024 -0.7838
 2805SOL    HW2 9837   4.801   2.711   4.022  1.6423 -1.2053  1.4346
 2806SOL     OW 9838   8.219   8.126   0.351 -0.1894 -0.4871  0.5346
 2806SOL    HW1 9839   8.253   8.136   0.262 -0.4018 -0.7348  0.4258
 2806SOL    HW2 9840   8.211   8.216   0.384  0.2969 -0.4111  0.4583
 2807SOL     OW 9841   6.983   4.229   1.122  0.2945 -0.0592  0.3399
 2807SOL    HW1 9842   7.040   4.302   1.096 -0.0435  0.2630  0.4969
 2807SOL    HW2 9843   6.937   4.262   1.199 -0.2104 -0.2684  0.1278
 2808SOL     OW 9844   3.427   8.700   9.206  0.2179 -1.1840 -0.4514
 2808SOL    HW1 9845   3.463   8.634   9.264  0.0149 -2.7008 -1.9771
 2808SOL    HW2 9846   3.452   8.672   9.118  0.1832  0.8130 -1.1598
 2809SOL     OW 9847   8.954   8.987   9.121  0.4215 -0.4360 -0.1671
 2809SOL    HW1 9848   8.910   8.967   9.038 -0.9857 -0.5793  0.5888
 2809SOL    HW2 9849   8.980   9.079   9.112  0.1222 -0.3972 -0.6979
 2810SOL     OW 9850   5.638   4.585   4.499 -0.5125  0.1662  0.8387
 2810SOL    HW1 9851   5.551   4.580   4.459 -0.1070  2.0720 -0.4365
 2810SOL    HW2 9852   5.640   4.513   4.562 -2.9625  0.0136  0.8260
 2811SOL     OW 9853   5.422   5.980   0.386  0.2009  0.3385 -0.1864
 2811SOL    HW1 9854   5.499   5.927   0.367  0.8283  0.8482  0.8386
 2811SOL    HW2 9855   5.383   5.940   0.464  0.3861  1.0648  0.2882
 2812SOL     OW 9856   3.498   4.617   7.614 -0.0242  0.0189 -0.9471
 2812SOL    HW1 9857   3.546   4.536   7.632 -2.1600 -1.3232 -0.9822
 2812SOL    HW2 9858   3.566   4.680   7.591  1.5765 -2.3141 -3.0820
 2813SOL     OW 9859   8.158   0.835   6.340  0.0773 -0.0537  0.1767
 2813SOL    HW1 9860   8.121   0.800   6.421  1.2122  0.7209  1.0557
 2813SOL    HW2 9861   8.187   0.758   6.291  1.8469 -0.4366  1.7332
 2814SOL     OW 9862   7.268   2.818   8.154  0.1733  0.0366 -0.5068
 2814SOL    HW1 9863   7.268   2.730   8.192  0.2465  0.5321  0.7044
 2814SOL    HW2 9864   7.182   2.854   8.176  0.1335  0.2623 -1.0195
 2815SOL     OW 9865   1.881   6.473   2.721  0.5563 -0.6751  0.2859
 2815SOL    HW1 9866   1.957   6.529   2.710 -0.1073  0.0345 -0.7864
 2815SOL    HW2 9867   1.828   6.487   2.643 -1.1325 -0.4527  1.4083
 2816SOL     OW 9868   4.788   1.931   1.186 -0.1440  0.6399  0.1064
 2816SOL    HW1 9869   4.857   1.964   1.129  0.2764  2.6039  1.6242
 2816SOL    HW2 9870   4.737   2.009   1.208  0.1216  0.1183  2.8927
 2817SOL     OW 9871   8.541   4.419   3.383  0.0361  0.8807  0.2697
 2817SOL    HW1 9872   8.593   4.356   3.333  0.1503  1.2570 -0.1014
 2817SOL    HW2 9873   8.569   4.407   3.474 -1.4987 -1.0743  0.5210
 2818SOL     OW 9874   5.963   3.191   5.562 -0.1079  0.2797  0.6888
 2818SOL    HW1 9875   5.962   3.235   5.647  0.7870 -0.8366  1.2997
 2818SOL    HW2 9876   5.876   3.152   5.553 -0.8482  1.9572  0.2245
 2819SOL     OW 9877   6.528   1.489   6.118  0.4212 -0.2749 -0.3049
 2819SOL    HW1 9878   6.552   1.473   6.210  0.9527  0.6071 -0.2812
 2819SOL    HW2 9879   6.569   1.418   6.070  2.2000  0.5871 -0.1305
 2820SOL     OW 9880   0.591   3.650   8.084  0.0764  0.5988 -0.4568
 2820SOL    HW1 9881   0.618   3.559   8.074  0.6782  0.3907  2.3274
 2820SOL    HW2 9882   0.496   3.648   8.076  0.2310  0.2435 -3.2121
 2821SOL     OW 9883   4.614   2.422   5.642  1.0500  0.3086  0.0526
 2821SOL    HW1 9884   4.678   2.427   5.572  0.1208 -0.5654 -0.8898
 2821SOL    HW2 9885   4.608   2.512   5.676  1.1801  0.8481 -1.2889
 2822SOL     OW 9886   2.536   1.457   3.985 -0.7562  0.1983 -0.3212
 2822SOL    HW1 9887   2.577   1.536   3.948 -1.6953  1.0877  0.4627
 2822SOL    HW2 9888   2.452   1.488   4.021  0.3288 -0.4323  3.1177
 2823SOL     OW 9889   3.020   2.431   5.783 -0.0190  0.2313  0.4156
 2823SOL    HW1 9890   2.990   2.470   5.866  0.7997  1.9376 -0.0404
 2823SOL    HW2 9891   3.115   2.428   5.792  0.1994  1.7322 -0.9666
 2824SOL     OW 9892   5.239   9.251   0.467  0.3960 -0.0449  0.0181
 2824SOL    HW1 9893   5.282   9.337   0.466  1.5054 -0.5884 -1.0268
 2824SOL    HW2 9894   5.207   9.239   0.377  1.6859 -1.4015 -0.3014
 2825SOL     OW 9895   8.203   8.781   7.095  0.0963  0.1679 -0.2403
 2825SOL    HW1 9896   8.117   8.810   7.127 -0.0630 -0.4060 -0.1328
 2825SOL    HW2 9897   8.184   8.702   7.045  0.6111 -0.2078  0.1474
 2826SOL     OW 9898   5.341   1.249   7.381  0.2739 -0.6165  0.2267
 2826SOL    HW1 9899   5.271   1.189   7.355  0.8503 -0.5627 -1.4993
 2826SOL    HW2 9900   5.406   1.244   7.312  0.5008  1.7409  0.1785
 2827SOL     OW 9901   0.186   8.292   6.636  0.1685 -0.0233 -0.3640
 2827SOL    HW1 9902   0.183   8.370   6.692 -3.5699 -0.0524 -0.3116
 2827SOL    HW2 9903   0.157   8.323   6.550 -1.5971 -1.3356 -0.2863
 2828SOL     OW 9904   3.271   7.384   6.467 -0.3639  0.3689  0.3059
 2828SOL    HW1 9905   3.210   7.365   6.396  1.0594 -1.8905 -0.4409
 2828SOL    HW2 9906   3.285   7.479   6.462 -1.4660  0.4910 -1.4519
 2829SOL     OW 9907   0.769   8.219   2.246  0.5483 -0.5138  0.5790
 2829SOL    HW1 9908   0.831   8.186   2.181  0.4840 -0.8326  0.6755
 2829SOL    HW2 9909   0.825   8.248   2.319  0.5393 -2.9443  1.6639
 2830SOL     OW 9910   2.112   7.640   3.785  0.2680  0.3272 -0.2627
 2830SOL    HW1 9911   2.090   7.583   3.712  1.8809  0.2582 -0.7291
 2830SOL    HW2 9912   2.108   7.583   3.862 -2.4200  0.6211 -0.0800
 2831SOL     OW 9913   8.572   7.471   0.825  0.0173  0.5931  0.3643
 2831SOL    HW1 9914   8.478   7.460   0.813  0.0174  1.1696 -0.2330
 2831SOL    HW2 9915   8.593   7.420   0.903 -0.5529 -0.6329 -0.2667
 2832SOL     OW 9916   2.272   6.053   0.070 -0.6476 -0.0869 -0.0114
 2832SOL    HW1 9917   2.358   6.019   0.045 -0.4456 -0.5222  1.2093
 2832SOL    HW2 9918   2.278   6.147   0.057  0.2062 -0.0503  0.5893
 2833SOL     OW 9919   3.293   2.127   2.266  0.3884 -0.2841  0.2525
 2833SOL    HW1 9920   3.378   2.162   2.237 -0.2729  0.8539 -0.3526
 2833SOL    HW2 9921   3.264   2.187   2.334 -0.3188 -0.1855 -0.1304
 2834SOL     OW 9922   5.257   4.096   0.717 -0.0272  0.0167 -0.4317
 2834SOL    HW1 9923   5.291   4.040   0.787 -0.7129  0.6918  0.4611
 2834SOL    HW2 9924   5.168   4.118   0.744 -0.5314 -0.2046 -1.8242
 2835SOL     OW 9925   0.963   4.450   6.738  0.5696 -0.7108 -0.1589
 2835SOL    HW1 9926   1.005   4.536   6.741  0.5722 -0.6692 -0.9537
 2835SOL    HW2 9927   1.024   4.396   6.688  0.7398 -1.2762  0.6556
 2836SOL     OW 9928   7.761   5.883   9.138  0.2776  0.0676  0.2844
 2836SOL    HW1 9929   7.800   5.829   9.069 -0.5481 -1.6467  1.0912
 2836SOL    HW2 9930   7.668   5.888   9.113  0.5025  1.9084 -0.2554
 2837SOL     OW 9931   0.554   1.656   3.602 -0.1499 -0.5952 -0.1608
 2837SOL    HW1 9932   0.466   1.643   3.567 -0.4837 -0.3100  0.5516
 2837SOL    HW2 9933   0.547   1.735   3.655  0.7148 -0.1689 -0.6697
 2838SOL     OW 9934   9.153   1.061   0.894  0.2098  0.0636 -0.2784
 2838SOL    HW1 9935   9.083   1.106   0.848  1.6595  3.3137  0.4265
 2838SOL    HW2 9936   9.233   1.085   0.848  1.2508 -0.1520  1.3069
 2839SOL     OW 9937   9.056   7.605   0.752 -0.3861  0.7193  0.2282
 2839SOL    HW1 9938   9.134   7.597   0.697  0.2974  1.7264  1.0104
 2839SOL    HW2 9939   8.997   7.661   0.702 -0.1822  0.8031  0.0791
 2840SOL     OW 9940   0.285   0.127   6.805  0.2700 -0.4046 -0.0748
 2840SOL    HW1 9941   0.376   0.101   6.791 -0.1132 -0.9907 -1.5626
 2840SOL    HW2 9942   0.265   0.187   6.733 -0.9392 -1.3775 -0.5815
 2841SOL     OW 9943   0.587   8.115   7.109 -0.1564  0.3115 -0.0829
 2841SOL    HW1 9944   0.529   8.111   7.185 -1.7801  1.7686 -1.1812
 2841SOL    HW2 9945   0.567   8.199   7.067  2.6206  0.8172 -0.6540
 2842SOL     OW 9946   1.946   2.949   2.816 -0.3547 -0.5104 -0.0638
 2842SOL    HW1 9947   1.893   2.884   2.769 -0.5699 -0.8029  0.5647
 2842SOL    HW2 9948   1.886   3.022   2.830  0.2410  0.3899 -1.8867
 2843SOL     OW 9949   2.092   3.884   0.636  0.4973  0.1855 -0.0025
 2843SOL    HW1 9950   2.051   3.937   0.705 -0.6593  0.4725 -0.8740
 2843SOL    HW2 9951   2.184   3.909   0.638 -0.0282  2.3400 -0.4734
 2844SOL     OW 9952   8.641   4.276   5.369 -0.3285  0.0487  0.3388
 2844SOL    HW1 9953   8.681   4.285   5.283 -1.7149  2.3067 -0.1520
 2844SOL    HW2 9954   8.698   4.325   5.428 -1.0172  1.1691  0.0956
 2845SOL     OW 9955   4.034   4.832   4.448  0.1319  0.7201  0.5690
 2845SOL    HW1 9956   4.098   4.789   4.504  2.7603  0.3789 -2.4269
 2845SOL    HW2 9957   3.993   4.760   4.400 -1.0514  1.1086  0.9607
 2846SOL     OW 9958   1.066   2.720   1.713 -0.7422  0.0253  0.6477
 2846SOL    HW1 9959   1.081   2.800   1.764 -0.5399 -0.3488  1.1772
 2846SOL    HW2 9960   1.101   2.740   1.626 -1.2816  0.7422  0.5817
 2847SOL     OW 9961   2.787   3.036   5.263  0.3027  0.7992  0.3358
 2847SOL    HW1 9962   2.721   3.097   5.230  0.1538 -0.4262 -1.8828
 2847SOL    HW2 9963   2.738   2.957   5.284  0.8511  0.4417  0.2969
 2848SOL     OW 9964   6.533   1.387   4.708 -0.1502  0.0220  0.0789
 2848SOL    HW1 9965   6.561   1.462   4.760  0.2858  0.1880 -0.3874
 2848SOL    HW2 9966   6.440   1.402   4.692 -0.4230 -0.3104  1.2713
 2849SOL     OW 9967   2.579   2.383   2.610 -0.5209  0.8296  0.6752
 2849SOL    HW1 9968   2.602   2.303   2.563 -0.5326  1.5372 -0.5632
 2849SOL    HW2 9969   2.519   2.430   2.552 -0.0995  1.9962  1.1371
 2850SOL     OW 9970   2.983   2.789   1.099  0.5424  0.2426  0.2466
 2850SOL    HW1 9971   3.024   2.720   1.153 -1.4958  1.8047  4.1574
 2850SOL    HW2 9972   2.910   2.745   1.056  0.6434 -0.5518  0.8584
 2851SOL     OW 9973   7.189   4.463   7.887  0.0864  0.3130 -0.1715
 2851SOL    HW1 9974   7.165   4.554   7.903  1.2773  0.3529  1.7732
 2851SOL    HW2 9975   7.106   4.416   7.881 -0.5184  1.3077  0.2844
 2852SOL     OW 9976   2.934   8.958   5.983 -0.8336 -0.6424 -0.7955
 2852SOL    HW1 9977   2.944   8.892   5.914 -0.4948  0.2965 -1.6538
 2852SOL    HW2 9978   2.968   8.915   6.061 -1.1640 -1.6972 -1.2142
 2853SOL     OW 9979   7.727   7.343   1.184  0.0941 -0.0437 -0.4591
 2853SOL    HW1 9980   7.796   7.280   1.166 -0.6413 -1.0243  0.0414
 2853SOL    HW2 9981   7.720   7.345   1.279  0.9080  1.7248 -0.3806
 2854SOL     OW 9982   8.797   1.579   0.339 -0.4527 -0.0851  0.2002
 2854SOL    HW1 9983   8.777   1.626   0.419  0.3769 -0.4540  0.6367
 2854SOL    HW2 9984   8.850   1.504   0.367 -0.7939 -0.6466 -0.6029
 2855SOL     OW 9985   2.318   7.836   5.296 -0.1134  0.0229 -0.1789
 2855SOL    HW1 9986   2.393   7.882   5.259 -0.1480 -0.8262 -1.3583
 2855SOL    HW2 9987   2.301   7.880   5.379  3.0024 -1.0781  1.1742
 2856SOL     OW 9988   6.970   1.092   1.335  0.0545  0.3985 -0.6451
 2856SOL    HW1 9989   6.916   1.144   1.394  0.6290  0.8765 -0.5262
 2856SOL    HW2 9990   6.913   1.069   1.263 -0.5607  0.1104 -0.0762
 2857SOL     OW 9991   1.656   5.698   1.201 -0.0951  0.1869 -0.6924
 2857SOL    HW1 9992   1.619   5.751   1.130 -2.4413  0.0129  0.3276
 2857SOL    HW2 9993   1.605   5.617   1.200  1.8450 -1.1146 -0.6701
 2858SOL     OW 9994   4.968   7.016   4.824 -0.0226 -0.2251 -0.5705
 2858SOL    HW1 9995   4.935   6.954   4.889 -0.2129 -0.0808 -0.5278
 2858SOL    HW2 9996   4.916   6.997   4.745 -0.9726  0.7143 -0.2016
 2859SOL     OW 9997   7.032   6.958   8.866  0.5462 -0.0578 -0.2118
 2859SOL    HW1 9998   7.125   6.944   8.886  1.4257  1.8780 -2.5420
 2859SOL    HW2 9999   6.996   6.997   8.946  2.0069  0.2474  0.3243
 2860SOL     OW10000   6.266   0.421   1.603 -0.2761 -0.2556 -0.2364
 2860SOL    HW110001   6.213   0.341   1.600 -0.1747 -0.3148 -2.4147
 2860SOL    HW210002   6.206   0.490   1.575 -0.0755  0.2512  0.5740
 2861SOL     OW10003   7.589   2.169   7.401  0.2263 -0.3742  0.1911
 2861SOL    HW110004   7.615   2.132   7.486 -0.0591 -0.4783  0.2377
 2861SOL    HW210005   7.585   2.093   7.343  0.2955 -0.3208  0.1181
 2862SOL     OW10006   8.826   8.682   1.131  0.1070  0.2401 -0.1512
 2862SOL    HW110007   8.898   8.673   1.068  0.4070 -0.6480  0.3122
 2862SOL    HW210008   8.857   8.747   1.194  0.4099  0.0203 -0.0750
 2863SOL     OW10009   5.473   0.144   4.036 -0.2633 -0.2535  0.6698
 2863SOL    HW110010   5.472   0.239   4.052 -0.0364 -0.0278 -0.5496
 2863SOL    HW210011   5.386   0.125   4.002  0.2887 -0.1207 -0.9019
 2864SOL     OW10012   4.721   4.521   3.503  0.3895 -0.6796 -0.2892
 2864SOL    HW110013   4.749   4.442   3.457  0.7925 -1.3188  1.0075
 2864SOL    HW210014   4.799   4.576   3.504  0.2859 -0.5213 -0.6443
 2865SOL     OW10015   0.722   4.656   7.636  0.0394  0.4903  0.3519
 2865SOL    HW110016   0.771   4.577   7.614 -1.4061 -0.2899 -0.2046
 2865SOL    HW210017   0.640   4.624   7.673 -0.1011  1.7539  1.1855
 2866SOL     OW10018   3.175   2.879   2.938  0.0437 -0.6251 -0.5122
 2866SOL    HW110019   3.202   2.808   2.996  2.2196  1.8513  1.8538
 2866SOL    HW210020   3.220   2.862   2.855  3.5670 -0.3261  1.1323
 2867SOL     OW10021   6.645   2.371   3.431 -0.1450 -0.6443  0.3291
 2867SOL    HW110022   6.711   2.323   3.481  0.5457  1.0202  1.1071
 2867SOL    HW210023   6.611   2.436   3.493 -0.3217  0.5089 -0.9344
 2868SOL     OW10024   2.370   5.573   2.421 -1.1127 -0.2260 -0.8585
 2868SOL    HW110025   2.370   5.518   2.342  0.1069 -2.6347  0.6769
 2868SOL    HW210026   2.361   5.510   2.493  0.6091  1.5917  1.0631
 2869SOL     OW10027   4.459   4.267   4.299 -0.1522 -0.5213 -0.0336
 2869SOL    HW110028   4.481   4.334   4.235  1.0815 -1.1905 -0.3549
 2869SOL    HW210029   4.532   4.204   4.293 -1.4783 -2.1186 -0.0842
 2870SOL     OW10030   6.657   5.923   0.471 -0.6820  0.3928 -0.2121
 2870SOL    HW110031   6.657   6.016   0.446 -1.6968 -0.0168 -1.9269
 2870SOL    HW210032   6.578   5.888   0.429 -0.1789 -1.2946  0.2066
 2871SOL     OW10033   0.674   1.744   1.491  0.0858  0.8632  0.5680
 2871SOL    HW110034   0.586   1.778   1.505 -0.7955 -0.9328 -0.3269
 2871SOL    HW210035   0.666   1.686   1.416  1.8332 -0.1242  1.0794
 2872SOL     OW10036   3.936   7.147   6.345  0.7537 -0.4377 -0.2131
 2872SOL    HW110037   3.930   7.172   6.437 -0.6772 -0.7946 -0.1827
 2872SOL    HW210038   3.889   7.064   6.339 -0.0770  0.0774 -1.4214
 2873SOL     OW10039   6.642   4.246   8.764 -0.1123 -0.4926 -0.3685
 2873SOL    HW110040   6.635   4.287   8.678  0.3189 -1.2112 -0.7496
 2873SOL    HW210041   6.552   4.220   8.786 -0.9670  3.0924  1.1354
 2874SOL     OW10042   6.669   1.275   2.132  0.0591 -0.7374 -0.1007
 2874SOL    HW110043   6.661   1.320   2.216 -0.4538 -0.0749 -0.4974
 2874SOL    HW210044   6.746   1.315   2.091  0.2434 -0.9836  0.0000
 2875SOL     OW10045   0.766   0.529   5.272 -0.1822  0.6400  0.0229
 2875SOL    HW110046   0.676   0.505   5.252  0.3126 -1.5395  0.1566
 2875SOL    HW210047   0.765   0.548   5.366 -0.4135  0.2092  0.1081
 2876SOL     OW10048   8.907   1.143   6.580 -0.0555  0.2380 -0.3998
 2876SOL    HW110049   8.912   1.114   6.489  3.2623 -1.5798  0.2064
 2876SOL    HW210050   8.942   1.070   6.631 -0.5167  1.7171  2.2480
 2877SOL     OW10051   1.325   0.044   8.717  0.4085  0.4342  0.0355
 2877SOL    HW110052   1.355   0.075   8.632  0.2863 -1.0136 -0.5663
 2877SOL    HW210053   1.403   0.007   8.758 -0.2679 -2.7928 -1.2857
 2878SOL     OW10054   6.191   0.096   3.342  0.5667 -0.4156  0.5893
 2878SOL    HW110055   6.168   0.169   3.399 -0.1388 -0.5952  0.5436
 2878SOL    HW210056   6.284   0.081   3.360  1.0563  1.2662 -0.2761
 2879SOL     OW10057   2.381   6.773   0.405  0.1344 -0.7206 -0.0179
 2879SOL    HW110058   2.434   6.696   0.426 -0.5423 -1.6856 -1.6415
 2879SOL    HW210059   2.298   6.737   0.374 -1.2178  0.7450  1.7165
 2880SOL     OW10060   1.143   3.174   4.299  0.5805 -0.6901 -0.2955
 2880SOL    HW110061   1.121   3.226   4.376  0.9472  0.6719 -1.0589
 2880SOL    HW210062   1.061   3.169   4.250  1.1572  2.0027 -1.7768
 2881SOL     OW10063   3.148   1.495   0.763 -0.3278  0.7662  0.7224
 2881SOL    HW110064   3.202   1.489   0.685 -0.3890  1.1413  0.6503
 2881SOL    HW210065   3.139   1.404   0.793 -2.6968  0.2293 -1.3242
 2882SOL     OW10066   1.549   0.619   0.715 -0.0900  0.0713  0.6276
 2882SOL    HW110067   1.542   0.665   0.799  2.1475 -1.3492  1.6971
 2882SOL    HW210068   1.643   0.603   0.705 -0.4737 -1.2125 -1.3670
 2883SOL     OW10069   7.294   3.603   4.422  0.2153  0.8094 -0.6783
 2883SOL    HW110070   7.324   3.694   4.422 -1.1421  1.2893 -0.1219
 2883SOL    HW210071   7.227   3.600   4.490  1.3940 -1.0359  0.4842
 2884SOL     OW10072   7.967   1.698   5.398  0.5762 -0.1996 -0.8124
 2884SOL    HW110073   7.970   1.640   5.322  0.5482  0.1612 -1.0914
 2884SOL    HW210074   7.875   1.697   5.425  0.6015 -0.3933 -0.7306
 2885SOL     OW10075   1.625   6.488   0.953 -0.7374  0.0400 -0.0303
 2885SOL    HW110076   1.689   6.554   0.924 -1.6877  0.3007 -1.6656
 2885SOL    HW210077   1.573   6.533   1.020 -0.2444  0.3564  0.1446
 2886SOL     OW10078   0.344   2.630   0.398  0.1820 -0.3996 -0.2628
 2886SOL    HW110079   0.349   2.725   0.388 -0.7708 -0.2153  0.8160
 2886SOL    HW210080   0.413   2.609   0.461 -0.6787 -0.1846  0.7837
 2887SOL     OW10081   4.091   5.007   0.597 -0.1172  0.3926  0.3448
 2887SOL    HW110082   4.022   4.949   0.565  0.0532 -0.3868  1.3469
 2887SOL    HW210083   4.157   5.008   0.527  0.2616 -1.2965  0.6551
 2888SOL     OW10084   1.818   4.716   5.032  0.0113 -0.0823  0.1089
 2888SOL    HW110085   1.822   4.624   5.060 -0.5521 -0.2797 -0.4331
 2888SOL    HW210086   1.735   4.723   4.984  0.4302  0.5094 -0.5449
 2889SOL     OW10087   0.345   0.886   3.558 -0.2908 -0.3867  0.1515
 2889SOL    HW110088   0.341   0.849   3.470 -1.1133  0.4649 -0.1837
 2889SOL    HW210089   0.436   0.911   3.570 -0.0126 -1.2241 -0.1537
 2890SOL     OW10090   8.576   8.383   2.497  1.0180 -0.5438 -0.3207
 2890SOL    HW110091   8.575   8.317   2.427  0.4067  0.5675 -1.3862
 2890SOL    HW210092   8.557   8.465   2.453  0.3272  0.1534  1.2088
 2891SOL     OW10093   3.959   5.739   3.612  0.3679 -0.3864  0.5463
 2891SOL    HW110094   3.877   5.699   3.642 -0.4136  0.2520 -0.6867
 2891SOL    HW210095   4.023   5.715   3.680 -1.1204  0.2854  2.2675
 2892SOL     OW10096   8.690   5.734   1.825 -0.3139  0.0637 -0.5251
 2892SOL    HW110097   8.784   5.737   1.847 -0.8470 -1.3553  2.5592
 2892SOL    HW210098   8.655   5.816   1.859 -0.5705 -0.6387  1.0270
 2893SOL     OW10099   5.465   5.790   8.827  0.2160 -0.2175  0.2090
 2893SOL    HW110100   5.480   5.723   8.761  0.7471 -0.8294  0.9355
 2893SOL    HW210101   5.542   5.786   8.884 -0.8370 -0.6561  1.6739
 2894SOL     OW10102   5.086   3.338   7.750  0.1850  0.3341  0.5669
 2894SOL    HW110103   5.143   3.277   7.796 -1.4750 -2.4591 -0.8299
 2894SOL    HW210104   5.015   3.356   7.811  0.5967  0.7758  0.9238
 2895SOL     OW10105   7.254   6.011   4.306 -0.1376 -0.3824 -0.0391
 2895SOL    HW110106   7.235   6.067   4.381  0.1473 -0.9643  0.4690
 2895SOL    HW210107   7.199   5.934   4.318 -1.1582  0.1307 -1.1728
 2896SOL     OW10108   5.124   1.288   5.113  0.2092 -0.3052  0.4048
 2896SOL    HW110109   5.118   1.197   5.144  0.6615 -0.6235 -0.3958
 2896SOL    HW210110   5.218   1.303   5.103  0.0796 -0.1825 -0.7027
 2897SOL     OW10111   6.595   0.094   4.277  0.7847  0.2190  0.1218
 2897SOL    HW110112   6.563   0.116   4.365  0.2805  0.6368 -0.1594
 2897SOL    HW210113   6.520   0.110   4.220  0.6501 -1.4903 -0.2117
 2898SOL     OW10114   5.929   4.603   6.076 -0.2450 -0.0905 -0.1187
 2898SOL    HW110115   5.963   4.555   6.001  0.7425  0.9507 -0.3515
 2898SOL    HW210116   5.857   4.548   6.109  0.0259 -1.0855 -1.1439
 2899SOL     OW10117   0.005   3.767   7.512  0.7105 -0.2625 -0.1310
 2899SOL    HW110118   0.086   3.793   7.556  0.7041 -1.5253  0.6876
 2899SOL    HW210119  -0.052   3.736   7.583 -0.3909  0.3174 -0.7292
 2900SOL     OW10120   1.213   8.173   3.568 -0.4202  0.2431 -0.5489
 2900SOL    HW110121   1.203   8.253   3.619 -2.5904 -0.2360 -0.1081
 2900SOL    HW210122   1.149   8.182   3.496  1.6757  0.3472 -2.5221
 2901SOL     OW10123   0.280   2.374   6.650 -0.0881 -0.1560  0.0378
 2901SOL    HW110124   0.369   2.410   6.647  0.3915 -1.2977 -0.2213
 2901SOL    HW210125   0.284   2.306   6.717 -0.1042 -1.8132 -1.5679
 2902SOL     OW10126   2.123   7.566   8.198  0.3078 -0.3354 -0.1336
 2902SOL    HW110127   2.160   7.648   8.166 -0.8078  0.6956  1.1312
 2902SOL    HW210128   2.141   7.566   8.292 -0.9974 -0.8282  0.1350
 2903SOL     OW10129   1.541   1.359   7.897  0.0691  0.4203  0.2850
 2903SOL    HW110130   1.480   1.405   7.839 -0.1958  0.6134  0.7126
 2903SOL    HW210131   1.531   1.267   7.872  0.3299  0.5479 -0.3172
 2904SOL     OW10132   9.021   8.568   6.651  0.4331  0.0053 -0.4056
 2904SOL    HW110133   8.968   8.640   6.685 -0.1104 -0.4306 -0.3028
 2904SOL    HW210134   9.050   8.598   6.565 -0.1896  0.1561 -0.5690
 2905SOL     OW10135   2.312   0.016   0.184  0.1150 -0.6800 -0.0797
 2905SOL    HW110136   2.251  -0.026   0.244  0.4084 -0.7835  0.1437
 2905SOL    HW210137   2.313   0.108   0.211  1.7915 -1.0848  1.3924
 2906SOL     OW10138   1.959   1.891   8.623  0.1916  0.0636 -0.2031
 2906SOL    HW110139   2.015   1.964   8.597  0.9047 -1.1374 -2.2787
 2906SOL    HW210140   1.979   1.821   8.560 -2.1246 -1.1389  0.2684
 2907SOL     OW10141   1.201   5.617   1.219 -0.2794 -0.3321  0.1570
 2907SOL    HW110142   1.234   5.670   1.292 -1.2219 -2.6822  2.4327
 2907SOL    HW210143   1.251   5.536   1.223 -0.2698 -0.5092 -1.9766
 2908SOL     OW10144   7.571   6.462   5.565 -0.8026 -0.1455  0.2877
 2908SOL    HW110145   7.533   6.402   5.629 -1.9403 -0.6841 -0.8685
 2908SOL    HW210146   7.510   6.536   5.562  0.7349  1.2998  1.9230
 2909SOL     OW10147   8.671   6.932   1.561  0.1784 -0.0455 -0.0732
 2909SOL    HW110148   8.636   7.013   1.524 -0.5027  0.1749  1.0256
 2909SOL    HW210149   8.760   6.926   1.526  0.3108  1.2894  0.0078
 2910SOL     OW10150   8.540   1.740   3.278  0.0330  0.5175 -0.2438
 2910SOL    HW110151   8.445   1.730   3.266 -0.2949 -1.6008  3.0651
 2910SOL    HW210152   8.549   1.806   3.346  0.8619 -0.2312  0.3915
 2911SOL     OW10153   5.947   8.962   2.759 -0.0670  0.3483  0.9553
 2911SOL    HW110154   5.925   9.007   2.677  0.2660 -1.0740  0.0432
 2911SOL    HW210155   5.864   8.954   2.805 -0.7574 -1.0800 -0.4377
 2912SOL     OW10156   4.688   4.775   5.954 -0.1518 -0.0643  0.7976
 2912SOL    HW110157   4.716   4.866   5.965  2.4637 -0.4235 -1.6348
 2912SOL    HW210158   4.666   4.768   5.862  3.3775 -2.6259 -0.0666
 2913SOL     OW10159   3.181   7.521   4.615  0.0423 -0.4354  0.0298
 2913SOL    HW110160   3.178   7.585   4.686  1.4457  1.1225 -1.2297
 2913SOL    HW210161   3.224   7.444   4.652  0.9352  0.4272  0.8078
 2914SOL     OW10162   7.774   3.830   0.937 -0.4783 -0.4926 -0.2032
 2914SOL    HW110163   7.827   3.806   1.012 -0.9224 -0.6073  0.0780
 2914SOL    HW210164   7.714   3.897   0.970 -1.3368 -1.2446 -0.1968
 2915SOL     OW10165   7.792   7.199   4.022 -0.4050 -0.5686 -0.3619
 2915SOL    HW110166   7.816   7.107   4.032  0.2496 -0.4973 -1.1346
 2915SOL    HW210167   7.845   7.245   4.088 -1.4374 -0.8275  0.6781
 2916SOL     OW10168   6.288   6.319   8.827  0.1684 -0.5923 -0.2515
 2916SOL    HW110169   6.244   6.366   8.756  0.5834 -0.8839 -0.7097
 2916SOL    HW210170   6.239   6.342   8.905 -1.2759 -1.4835 -0.8523
 2917SOL     OW10171   3.406   2.078   7.250  0.6635  0.1175  0.0201
 2917SOL    HW110172   3.404   2.131   7.170  0.6094 -1.0929 -0.7898
 2917SOL    HW210173   3.324   2.099   7.294  0.1747 -0.0542 -0.7940
 2918SOL     OW10174   2.898   3.087   2.237  0.0547 -0.6684 -0.2359
 2918SOL    HW110175   2.873   3.004   2.277  2.0627 -1.3584 -0.2712
 2918SOL    HW210176   2.937   3.138   2.308 -0.7995  0.1051 -0.3018
 2919SOL     OW10177   8.820   3.104   5.599 -0.3465  0.5017 -0.0070
 2919SOL    HW110178   8.829   3.014   5.631  0.7263  0.1749 -1.1248
 2919SOL    HW210179   8.826   3.158   5.678 -1.3494 -0.3958  0.7262
 2920SOL     OW10180   3.620   7.417   6.095  0.9308 -0.5879  0.3863
 2920SOL    HW110181   3.562   7.381   6.163  0.1313 -0.7194 -0.3570
 2920SOL    HW210182   3.616   7.511   6.108 -0.9910 -0.4635 -0.8704
 2921SOL     OW10183   1.088   5.270   5.566  0.2377  1.0536 -0.2548
 2921SOL    HW110184   1.038   5.312   5.635  1.1415  0.6620  0.6692
 2921SOL    HW210185   1.173   5.315   5.568  0.5174  0.5503 -0.6147
 2922SOL     OW10186   7.539   6.104   4.631  0.1041  0.0992 -0.0712
 2922SOL    HW110187   7.617   6.052   4.615  0.5582  0.0844  1.8834
 2922SOL    HW210188   7.545   6.176   4.569 -1.2411 -2.7103 -3.8454
 2923SOL     OW10189   7.381   3.813   5.651  0.0216 -0.5284  0.1286
 2923SOL    HW110190   7.385   3.844   5.741  1.2299 -0.1748 -0.0377
 2923SOL    HW210191   7.472   3.799   5.626 -0.2011  0.6227 -1.4620
 2924SOL     OW10192   4.447   9.219   7.677  0.0395  0.4303 -0.0225
 2924SOL    HW110193   4.423   9.303   7.638 -0.2111  0.7983  0.8890
 2924SOL    HW210194   4.365   9.170   7.680  0.0129  0.4880  0.2330
 2925SOL     OW10195   6.402   6.404   2.788 -0.3793  0.1925  0.2435
 2925SOL    HW110196   6.321   6.355   2.795 -0.9622  1.0844 -0.0822
 2925SOL    HW210197   6.419   6.436   2.876 -1.4856  1.6961 -0.0564
 2926SOL     OW10198   3.744   7.959   4.251 -0.3917 -0.0344  0.3296
 2926SOL    HW110199   3.672   8.015   4.224 -0.6202 -0.9106 -0.9843
 2926SOL    HW210200   3.711   7.870   4.240  0.6497 -0.4450  0.3399
 2927SOL     OW10201   5.457   6.042   4.812 -0.1921  0.0863 -0.1210
 2927SOL    HW110202   5.523   6.108   4.832 -1.6286  1.8313 -0.8266
 2927SOL    HW210203   5.375   6.091   4.803 -1.0359 -1.5583 -2.4127
 2928SOL     OW10204   4.144   2.559   7.254  0.2539  0.6634  0.1414
 2928SOL    HW110205   4.081   2.630   7.269  0.4531  0.6333  1.1836
 2928SOL    HW210206   4.188   2.548   7.337  0.9533  0.0021 -0.3044
 2929SOL     OW10207   8.126   7.599   3.679  0.1760 -0.0187 -0.4429
 2929SOL    HW110208   8.164   7.538   3.742 -0.1467  0.1449 -0.0838
 2929SOL    HW210209   8.070   7.545   3.624  1.8057 -0.4809 -1.7507
 2930SOL     OW10210   0.883   3.380   8.962 -0.1523 -0.3183  0.1157
 2930SOL    HW110211   0.935   3.383   9.041  1.6401  0.7141 -1.0371
 2930SOL    HW210212   0.829   3.459   8.965 -0.0614 -0.2635  0.2875
 2931SOL     OW10213   7.783   6.741   3.515 -0.6398  0.1940 -0.7844
 2931SOL    HW110214   7.702   6.697   3.488 -0.2828 -0.2033 -1.2268
 2931SOL    HW210215   7.831   6.674   3.564 -0.5045  0.3827 -0.6583
 2932SOL     OW10216   0.362   3.405   7.920  0.2844 -0.0617  0.0266
 2932SOL    HW110217   0.452   3.436   7.911  0.3280 -0.5499 -1.5170
 2932SOL    HW210218   0.341   3.367   7.834 -1.6568  0.7344  0.0988
 2933SOL     OW10219   1.068   1.327   7.266  0.1902  0.1861  0.0397
 2933SOL    HW110220   1.084   1.336   7.173 -0.6762  0.4987 -0.0860
 2933SOL    HW210221   1.060   1.416   7.299 -1.0528  0.0597  0.1252
 2934SOL     OW10222   4.504   2.653   2.407  0.3974  0.3484  0.0359
 2934SOL    HW110223   4.553   2.662   2.489  0.9677 -0.3527 -0.2103
 2934SOL    HW210224   4.455   2.571   2.417 -0.8551  1.1138  0.3316
 2935SOL     OW10225   6.209   8.810   5.483 -0.0921  0.0411 -0.1677
 2935SOL    HW110226   6.288   8.803   5.430  2.0931  2.3463  2.4774
 2935SOL    HW210227   6.167   8.890   5.451  0.5890  0.7718  0.7243
 2936SOL     OW10228   7.845   4.139   0.525 -0.2480  0.1802  0.8316
 2936SOL    HW110229   7.871   4.201   0.593 -2.9334  0.1139  2.0100
 2936SOL    HW210230   7.805   4.194   0.457 -0.6822 -0.0607  0.8923
 2937SOL     OW10231   5.465   7.479   6.260 -0.2942 -0.5129  0.2603
 2937SOL    HW110232   5.414   7.546   6.306  1.7275  0.1763  1.5961
 2937SOL    HW210233   5.431   7.482   6.170  0.1669  2.8265  0.0805
 2938SOL     OW10234   5.456   2.018   4.765 -0.5068  0.6887  0.2511
 2938SOL    HW110235   5.503   1.935   4.775 -0.1275  0.5108 -2.2532
 2938SOL    HW210236   5.370   1.992   4.733 -0.2273  1.2418 -1.0092
 2939SOL     OW10237   7.616   9.033   1.626 -0.0138 -0.9231 -0.1268
 2939SOL    HW110238   7.530   9.075   1.618  0.1936 -0.2397  0.9264
 2939SOL    HW210239   7.672   9.082   1.566 -0.1673 -0.7960 -0.1678
 2940SOL     OW10240   2.857   4.348   1.884  0.1069  0.2647 -0.5756
 2940SOL    HW110241   2.771   4.386   1.867  0.0781 -0.1381 -1.3665
 2940SOL    HW210242   2.843   4.290   1.960 -0.9882 -1.9227 -2.3249
 2941SOL     OW10243   6.547   6.514   7.160 -0.0326  0.4497 -0.1931
 2941SOL    HW110244   6.631   6.515   7.115  0.7595 -2.7064  0.9719
 2941SOL    HW210245   6.559   6.453   7.233 -3.6489 -1.1137 -0.6812
 2942SOL     OW10246   2.369   3.632   8.138  0.4487  0.1002 -0.2662
 2942SOL    HW110247   2.385   3.543   8.106 -0.9170 -0.3558  0.2466
 2942SOL    HW210248   2.385   3.689   8.063 -0.1662 -0.7171 -1.0265
 2943SOL     OW10249   8.870   1.699   4.973  0.1888  0.2352 -0.7828
 2943SOL    HW110250   8.784   1.670   5.004 -0.0089 -1.9314 -3.0160
 2943SOL    HW210251   8.931   1.670   5.040 -0.6178 -0.2735 -0.2478
 2944SOL     OW10252   6.362   5.474   2.731 -0.0830  0.7924 -0.1199
 2944SOL    HW110253   6.335   5.565   2.721  1.0353  1.0259 -1.4080
 2944SOL    HW210254   6.439   5.466   2.674 -0.6922 -1.1830 -0.7403
 2945SOL     OW10255   0.941   4.109   6.705  0.3540 -0.5831  0.2662
 2945SOL    HW110256   0.956   4.142   6.793 -3.6630  0.2252  0.8211
 2945SOL    HW210257   0.960   4.184   6.648 -0.0223 -0.1098  0.7470
 2946SOL     OW10258   6.719   5.118   0.710  0.0939  0.5069 -0.5289
 2946SOL    HW110259   6.763   5.116   0.625  2.7446 -0.7421  0.7927
 2946SOL    HW210260   6.694   5.027   0.727 -0.8116  0.8133 -0.1271
 2947SOL     OW10261   2.946   6.552   6.149  0.3558  0.1155  0.1633
 2947SOL    HW110262   3.019   6.535   6.090  1.1744 -0.3464  1.2683
 2947SOL    HW210263   2.987   6.560   6.235 -0.8071  0.7707  0.6731
 2948SOL     OW10264   0.500   2.558   3.000 -0.3511 -0.2068  0.2948
 2948SOL    HW110265   0.477   2.643   2.962  0.5662 -0.6230 -1.2601
 2948SOL    HW210266   0.443   2.550   3.076 -2.2894  0.6639 -0.9963
 2949SOL     OW10267   4.485   3.828   1.208 -0.3054  0.3256 -0.3555
 2949SOL    HW110268   4.428   3.884   1.261  1.5745 -0.6805  3.0122
 2949SOL    HW210269   4.526   3.769   1.271  0.8061 -2.2297 -3.2451
 2950SOL     OW10270   5.311   5.720   7.896  0.5495 -0.2370  0.2719
 2950SOL    HW110271   5.240   5.731   7.959  1.6393  0.6722  1.4061
 2950SOL    HW210272   5.385   5.687   7.948  1.5467  0.7669 -0.4391
 2951SOL     OW10273   9.062   3.238   4.603 -0.3250  0.3226  0.2767
 2951SOL    HW110274   9.157   3.228   4.603 -0.4153 -0.7201 -0.2780
 2951SOL    HW210275   9.041   3.272   4.690  0.4332 -0.7513  0.8991
 2952SOL     OW10276   6.226   7.650   9.062 -0.3843  0.2545  0.4483
 2952SOL    HW110277   6.215   7.743   9.080  0.5076  0.0620  2.1444
 2952SOL    HW210278   6.283   7.618   9.132 -1.7935 -1.8646  0.7291
 2953SOL     OW10279   7.217   5.914   5.237  0.0332  0.0777 -0.0242
 2953SOL    HW110280   7.300   5.955   5.264  0.1275  0.9348 -1.5017
 2953SOL    HW210281   7.241   5.858   5.163 -0.8486  1.3386 -1.3396
 2954SOL     OW10282   0.769   6.269   7.367  0.2314  0.4720 -0.0936
 2954SOL    HW110283   0.834   6.248   7.435 -0.6027 -0.1863  0.5247
 2954SOL    HW210284   0.698   6.312   7.414  0.3753  1.5726 -0.8321
 2955SOL     OW10285   4.613   9.074   5.406 -0.4178  0.3656  0.2612
 2955SOL    HW110286   4.616   8.990   5.452  0.8421  0.0158 -0.4084
 2955SOL    HW210287   4.699   9.081   5.365 -1.1795  1.1134 -1.2542
 2956SOL     OW10288   0.642   1.627   6.320 -0.4531 -0.6007  0.2520
 2956SOL    HW110289   0.685   1.607   6.403  1.1333  2.6625  0.3486
 2956SOL    HW210290   0.714   1.649   6.261 -1.7716  1.5092 -0.6527
 2957SOL     OW10291   8.577   5.275   0.604  0.5235 -0.1508  0.0893
 2957SOL    HW110292   8.518   5.305   0.534 -0.4830 -0.8034  0.6352
 2957SOL    HW210293   8.653   5.241   0.558 -0.0872 -0.4857 -0.6990
 2958SOL     OW10294   2.490   0.309   1.252 -0.4521  0.4434 -0.6725
 2958SOL    HW110295   2.466   0.309   1.159  0.8937 -1.0260 -1.0552
 2958SOL    HW210296   2.544   0.231   1.263 -0.9994  0.3074  1.4746
 2959SOL     OW10297   1.313   4.481   7.249  0.4284 -0.3214 -0.0442
 2959SOL    HW110298   1.279   4.570   7.238  1.7208  0.1625 -0.2520
 2959SOL    HW210299   1.400   4.493   7.289  0.9521 -1.4392 -0.8136
 2960SOL     OW10300   5.871   2.518   8.518  0.1197  0.0270  0.6353
 2960SOL    HW110301   5.878   2.609   8.549 -1.0541 -0.4802  2.5542
 2960SOL    HW210302   5.791   2.485   8.558 -0.8100 -1.1630 -1.9671
 2961SOL     OW10303   9.206   5.072   6.131 -0.1677 -0.3866  0.5250
 2961SOL    HW110304   9.208   5.097   6.224 -0.5864 -1.2349  0.7780
 2961SOL    HW210305   9.118   5.037   6.118  0.1837 -1.1201  0.0464
 2962SOL     OW10306   3.734   2.280   3.698  0.0553  0.1990 -0.0808
 2962SOL    HW110307   3.667   2.237   3.750 -1.2028  0.6271 -1.2871
 2962SOL    HW210308   3.799   2.310   3.762 -1.0060 -0.0237  1.1365
 2963SOL     OW10309   3.075   5.808   7.718 -0.6844  0.3462 -0.2151
 2963SOL    HW110310   3.117   5.722   7.727 -0.9549  0.1265 -0.9678
 2963SOL    HW210311   2.982   5.789   7.711 -0.6412  0.5610 -1.8593
 2964SOL     OW10312   4.451   6.088   7.267  0.5636 -0.0657 -0.5493
 2964SOL    HW110313   4.515   6.150   7.233 -0.3623  0.8615 -0.6609
 2964SOL    HW210314   4.452   6.102   7.362 -0.7984  1.3310 -0.6958
 2965SOL     OW10315   6.610   0.418   8.969  0.2345 -0.1883  0.8018
 2965SOL    HW110316   6.584   0.365   8.894  0.3729  0.4002  0.3273
 2965SOL    HW210317   6.544   0.486   8.975  1.1598  0.8136  0.1091
 2966SOL     OW10318   6.950   2.616   0.790  0.0013 -0.1814  0.3790
 2966SOL    HW110319   6.866   2.605   0.746  0.1046 -2.1350  0.5853
 2966SOL    HW210320   7.010   2.643   0.721 -0.5022 -0.1402 -0.0472
 2967SOL     OW10321   0.657   0.763   2.412  0.2514  0.0376 -0.1253
 2967SOL    HW110322   0.716   0.751   2.486  2.0053  1.1235 -1.2888
 2967SOL    HW210323   0.655   0.858   2.398 -1.0426 -0.0472 -0.7221
 2968SOL     OW10324   5.315   5.987   4.485  0.4582  0.0290 -0.4483
 2968SOL    HW110325   5.390   5.931   4.469  1.3837  1.4680 -1.3621
 2968SOL    HW210326   5.244   5.949   4.433  0.7565 -0.8657 -0.2194
 2969SOL     OW10327   5.494   2.121   7.674 -0.0798  0.4437  0.1734
 2969SOL    HW110328   5.472   2.176   7.750 -0.0828 -0.6425  0.9799
 2969SOL    HW210329   5.468   2.033   7.700  1.1010 -0.1521 -0.6031
 2970SOL     OW10330   7.276   0.352   3.556  0.3972 -0.1562  0.0686
 2970SOL    HW110331   7.184   0.377   3.547  0.5531  0.9172  1.1786
 2970SOL    HW210332   7.283   0.270   3.508 -1.1205 -0.2120 -0.1145
 2971SOL     OW10333   8.745   1.207   1.725  0.4103  0.5071  0.1883
 2971SOL    HW110334   8.655   1.223   1.754 -0.6959 -1.4828 -1.8645
 2971SOL    HW210335   8.796   1.199   1.806 -2.1142 -2.8219  1.6570
 2972SOL     OW10336   1.528   8.650   3.594  0.1909  0.0430 -0.0498
 2972SOL    HW110337   1.490   8.666   3.508  0.3247  0.9823  0.0583
 2972SOL    HW210338   1.483   8.712   3.652 -0.0790 -0.7449  0.6128
 2973SOL     OW10339   2.294   9.051   8.300  0.0867 -0.3522 -0.8672
 2973SOL    HW110340   2.249   8.992   8.361 -0.1072  0.8413  0.1926
 2973SOL    HW210341   2.237   9.054   8.223  0.7519 -2.5555 -1.5334
 2974SOL     OW10342   3.680   5.547   8.862  0.5336  0.3114  0.1669
 2974SOL    HW110343   3.733   5.573   8.786  1.4901  0.5466  0.9045
 2974SOL    HW210344   3.591   5.575   8.839  1.0254  1.5223 -0.3505
 2975SOL     OW10345   2.729   2.515   1.956  0.0712  0.5692 -0.6448
 2975SOL    HW110346   2.782   2.585   1.994 -0.2267  1.0653 -1.1280
 2975SOL    HW210347   2.773   2.434   1.983 -0.1795  0.8953  0.8308
 2976SOL     OW10348   3.695   0.941   0.334  0.2832 -0.4232 -0.1018
 2976SOL    HW110349   3.762   0.999   0.371 -0.3052  0.0607  0.2120
 2976SOL    HW210350   3.651   0.904   0.409 -1.5813  1.3272 -0.2544
 2977SOL     OW10351   3.590   6.375   1.228 -0.8442 -0.4407  0.0529
 2977SOL    HW110352   3.683   6.377   1.250 -0.8854 -0.0747  0.2025
 2977SOL    HW210353   3.575   6.287   1.193  0.1066  0.2743 -2.3618
 2978SOL     OW10354   8.131   3.680   3.852 -0.1899 -0.5710  0.2026
 2978SOL    HW110355   8.205   3.621   3.843  0.8214  0.7733 -0.6279
 2978SOL    HW210356   8.115   3.684   3.947  0.0663 -1.7364  0.3021
 2979SOL     OW10357   3.545   8.641   5.071 -0.0156 -0.6973 -0.2511
 2979SOL    HW110358   3.589   8.637   4.986 -0.3587  0.2768 -0.4889
 2979SOL    HW210359   3.454   8.660   5.050  0.0074  0.1246  0.3610
 2980SOL     OW10360   0.941   3.379   1.857  0.2199 -0.4853  0.5110
 2980SOL    HW110361   0.968   3.350   1.770 -0.2812  1.9992 -0.5783
 2980SOL    HW210362   1.017   3.429   1.890 -0.6081  1.0590  0.1861
 2981SOL     OW10363   6.341   2.847   4.531 -0.2137  0.1267  0.4801
 2981SOL    HW110364   6.304   2.908   4.467 -0.7141  0.6111  1.2176
 2981SOL    HW210365   6.294   2.866   4.612  0.2467 -0.6417  0.9367
 2982SOL     OW10366   7.951   8.898   7.135  0.2911 -0.6349  0.3640
 2982SOL    HW110367   7.907   8.813   7.132 -2.3137  0.6020  0.5663
 2982SOL    HW210368   7.891   8.957   7.090  2.9063  0.7938 -1.4829
 2983SOL     OW10369   2.355   7.465   3.456  0.6233 -0.0067 -0.0834
 2983SOL    HW110370   2.351   7.372   3.479  1.1223  0.0920  0.4378
 2983SOL    HW210371   2.281   7.478   3.397  1.1793 -0.9688 -1.0364
 2984SOL     OW10372   6.180   2.260   4.298  0.0097  0.5970  0.4800
 2984SOL    HW110373   6.268   2.288   4.322  0.4415  0.7552 -1.1567
 2984SOL    HW210374   6.122   2.330   4.328  0.5049  0.7877  0.9940
 2985SOL     OW10375   6.067   5.109   8.873  0.7418 -0.0678 -0.7146
 2985SOL    HW110376   6.066   5.016   8.849  2.4955 -0.6926  1.3831
 2985SOL    HW210377   6.060   5.155   8.789 -1.3362 -2.0277 -1.7357
 2986SOL     OW10378   5.252   5.197   6.998  0.2212  0.3739 -0.0678
 2986SOL    HW110379   5.314   5.270   6.994 -0.9594  1.4271  0.1587
 2986SOL    HW210380   5.306   5.120   7.014  1.3127  1.5461  2.5724
 2987SOL     OW10381   7.927   7.318   7.558 -0.3748  0.8587 -0.0731
 2987SOL    HW110382   7.861   7.366   7.507 -0.3252 -1.2713 -2.3765
 2987SOL    HW210383   7.995   7.296   7.494  0.8169 -0.0817  1.4391
 2988SOL     OW10384   0.040   5.956   6.411 -0.2506  0.4943 -0.3002
 2988SOL    HW110385   0.001   6.013   6.345  1.7217 -0.2697 -2.2118
 2988SOL    HW210386   0.054   5.873   6.366 -2.3694 -1.3881  2.2026
 2989SOL     OW10387   1.034   5.568   5.053 -0.1016 -0.1250  0.4750
 2989SOL    HW110388   1.032   5.619   5.134 -0.9671 -1.3112  1.2287
 2989SOL    HW210389   1.018   5.478   5.080 -2.3850 -0.3027 -1.1833
 2990SOL     OW10390   0.467   3.972   3.419 -0.3072  0.4345 -0.7475
 2990SOL    HW110391   0.373   3.978   3.434 -0.2147  0.9191 -0.3295
 2990SOL    HW210392   0.506   4.024   3.489  0.2937 -0.1514 -0.6362
 2991SOL     OW10393   3.527   5.104   5.620 -0.5426  0.4592  0.2292
 2991SOL    HW110394   3.537   5.170   5.551  1.0748 -1.0363 -1.0635
 2991SOL    HW210395   3.444   5.061   5.600 -0.3043  0.3312 -0.5377
 2992SOL     OW10396   5.614   6.149   3.121  0.1011 -0.2047  0.2257
 2992SOL    HW110397   5.623   6.217   3.188  2.1713  0.5683 -0.7590
 2992SOL    HW210398   5.542   6.179   3.066 -1.2863 -0.5936  1.7731
 2993SOL     OW10399   4.215   3.331   8.741  0.6225 -0.3265 -0.6801
 2993SOL    HW110400   4.123   3.349   8.762  0.9649  1.3106 -0.4815
 2993SOL    HW210401   4.261   3.412   8.760  2.1553 -1.1621 -0.6575
 2994SOL     OW10402   5.781   0.619   3.550  0.0680  0.0179 -0.4638
 2994SOL    HW110403   5.817   0.558   3.485  0.6254 -1.7892  1.4454
 2994SOL    HW210404   5.703   0.575   3.584  0.0944  0.6748  0.4908
 2995SOL     OW10405   4.844   0.198   4.664 -0.3921  0.1479  0.1254
 2995SOL    HW110406   4.800   0.254   4.729  0.4239  1.2582 -0.2578
 2995SOL    HW210407   4.820   0.236   4.580  2.1496  1.5007 -0.0862
 2996SOL     OW10408   0.792   0.209   7.007  0.6212 -0.5305  0.3896
 2996SOL    HW110409   0.717   0.267   7.009  1.0268  0.0094  0.1691
 2996SOL    HW210410   0.829   0.220   6.919  2.8940  1.7208  1.5120
 2997SOL     OW10411   4.258   8.739   7.871  0.5239  0.5356 -0.0859
 2997SOL    HW110412   4.336   8.788   7.846  0.1824  1.9220  1.4086
 2997SOL    HW210413   4.271   8.652   7.833  1.6492  1.4377 -1.9130
 2998SOL     OW10414   6.344   4.233   8.563 -0.0089  0.1097 -0.2195
 2998SOL    HW110415   6.352   4.173   8.637 -2.1878 -0.3308 -0.2932
 2998SOL    HW210416   6.317   4.178   8.489 -0.9407  1.0031 -0.5674
 2999SOL     OW10417   4.338   1.663   5.140  0.2947  0.4412 -0.1739
 2999SOL    HW110418   4.365   1.708   5.221  1.0044 -1.8501  0.9363
 2999SOL    HW210419   4.417   1.662   5.086  0.7217 -0.7510  0.4430
 3000SOL     OW10420   2.599   4.109   6.490  0.1707 -0.1031 -0.3653
 3000SOL    HW110421   2.602   4.111   6.394  0.0505 -2.0991 -0.4331
 3000SOL    HW210422   2.670   4.049   6.515 -1.9851 -2.4021  0.5905
 3001SOL     OW10423   2.506   5.890   6.622  0.3235  0.2244 -0.3840
 3001SOL    HW110424   2.438   5.853   6.678  0.4397  0.9646  0.2579
 3001SOL    HW210425   2.558   5.814   6.594  0.5908 -0.1056  0.9584
 3002SOL     OW10426   6.308   5.465   1.550  0.2114 -0.2373 -0.0764
 3002SOL    HW110427   6.293   5.451   1.457 -0.1877 -0.0020 -0.0515
 3002SOL    HW210428   6.387   5.415   1.570  0.1840 -0.4498 -0.4974
 3003SOL     OW10429   8.560   0.254   1.829  0.4903  0.4446 -0.2792
 3003SOL    HW110430   8.589   0.205   1.752 -1.6260  0.6939 -1.2907
 3003SOL    HW210431   8.598   0.206   1.903  1.9410 -0.2391 -1.4011
 3004SOL     OW10432   7.946   0.414   6.149 -0.3333  0.7076  0.2815
 3004SOL    HW110433   7.870   0.368   6.113 -0.7522  0.2432  1.6961
 3004SOL    HW210434   7.939   0.402   6.243 -0.6932  4.0670  0.8030
 3005SOL     OW10435   8.977   2.362   2.473  0.2185  0.6554  0.4700
 3005SOL    HW110436   8.997   2.404   2.389  1.4482  1.2206  1.0176
 3005SOL    HW210437   8.913   2.420   2.515 -1.0437 -0.0580 -0.3989
 3006SOL     OW10438   6.377   9.023   6.012 -0.2416 -0.6352 -0.0056
 3006SOL    HW110439   6.423   8.946   6.046  0.6896 -0.1513 -0.1365
 3006SOL    HW210440   6.438   9.095   6.025 -1.6584  0.3635  1.4552
 3007SOL     OW10441   5.231   3.642   1.993  0.2933 -0.0348  0.3947
 3007SOL    HW110442   5.234   3.563   1.939  0.3736 -0.9269  1.6790
 3007SOL    HW210443   5.147   3.682   1.972  0.6402  0.0434 -0.9356
 3008SOL     OW10444   1.098   7.248   5.986 -1.0112  0.6442 -0.4488
 3008SOL    HW110445   1.157   7.239   5.911  0.0357  0.8730  0.3233
 3008SOL    HW210446   1.101   7.163   6.029 -0.9478  0.7701 -0.2005
 3009SOL     OW10447   0.677   8.839   6.319 -0.4649  0.0589  0.4673
 3009SOL    HW110448   0.756   8.787   6.308  1.5605  2.9176  0.6333
 3009SOL    HW210449   0.655   8.870   6.232 -0.9033  0.0223  0.5580
 3010SOL     OW10450   7.223   5.745   3.609 -0.0378 -0.0498 -0.3193
 3010SOL    HW110451   7.254   5.658   3.634  1.8694  0.3253 -1.1907
 3010SOL    HW210452   7.286   5.805   3.648 -1.0974  0.9449 -0.0796
 3011SOL     OW10453   0.843   3.539   5.721  0.4725  0.2134  0.1139
 3011SOL    HW110454   0.936   3.546   5.699  1.0793 -1.1506  2.0252
 3011SOL    HW210455   0.836   3.581   5.807 -0.6527  0.1294  0.0713
 3012SOL     OW10456   1.768   2.506   8.422 -0.2023 -0.1843 -0.3558
 3012SOL    HW110457   1.772   2.411   8.433 -2.2927 -0.4488 -1.4094
 3012SOL    HW210458   1.686   2.531   8.465  2.0222  1.7657  3.2872
 3013SOL     OW10459   3.058   2.461   2.749 -0.2517 -0.1776  0.0467
 3013SOL    HW110460   2.997   2.424   2.685 -2.2069 -1.1184  2.2916
 3013SOL    HW210461   3.128   2.397   2.755 -0.0696 -0.1062 -1.0583
 3014SOL     OW10462   7.879   1.542   4.552  0.4705  0.1219 -0.4459
 3014SOL    HW110463   7.968   1.545   4.587  1.0918  0.5932 -1.9534
 3014SOL    HW210464   7.835   1.616   4.594  0.2603 -1.0975  1.5675
 3015SOL     OW10465   4.121   7.718   0.381 -0.0149  0.0281 -0.3148
 3015SOL    HW110466   4.055   7.777   0.418  0.8192  1.9767 -1.7749
 3015SOL    HW210467   4.201   7.739   0.428  0.5043  0.7916 -1.4978
 3016SOL     OW10468   0.361   1.332   5.061  0.1267  0.3948  0.4752
 3016SOL    HW110469   0.433   1.285   5.105 -2.0163 -1.7220  1.9939
 3016SOL    HW210470   0.339   1.277   4.986 -0.0511  0.8887  0.1682
 3017SOL     OW10471   0.078   1.824   1.870 -0.5589  0.1235 -0.0639
 3017SOL    HW110472   0.144   1.871   1.922 -0.2802 -0.8409  0.5016
 3017SOL    HW210473   0.115   1.821   1.782  0.5551 -1.0516  0.4005
 3018SOL     OW10474   2.496   6.635   4.100  0.0157 -0.1121  0.1724
 3018SOL    HW110475   2.489   6.728   4.117  0.8368 -0.0701  0.2853
 3018SOL    HW210476   2.589   6.615   4.106 -0.0705 -0.8067 -0.5288
 3019SOL     OW10477   2.593   1.014   1.778  0.3456  0.4529  0.3252
 3019SOL    HW110478   2.563   1.072   1.848  0.4477 -0.0399  0.7823
 3019SOL    HW210479   2.662   1.063   1.734 -0.9474  1.5231 -0.6052
 3020SOL     OW10480   3.494   7.804   6.652  0.1343 -0.0309 -0.8165
 3020SOL    HW110481   3.521   7.848   6.572 -0.2458  0.0345 -0.9062
 3020SOL    HW210482   3.571   7.753   6.678  0.8908  1.3724 -0.2151
 3021SOL     OW10483   5.417   5.074   6.109  0.5108  0.7528 -0.1267
 3021SOL    HW110484   5.505   5.109   6.094  0.1914  1.8628  0.4759
 3021SOL    HW210485   5.429   4.979   6.111  2.2422  0.9081  2.8997
 3022SOL     OW10486   8.315   4.562   3.395  0.6686  0.3085 -0.3037
 3022SOL    HW110487   8.364   4.625   3.448  0.6195  0.1159 -0.0277
 3022SOL    HW210488   8.376   4.489   3.381  0.0041 -0.6250  1.3117
 3023SOL     OW10489   4.980   1.274   3.819 -0.1923 -0.3218  0.0194
 3023SOL    HW110490   5.029   1.241   3.744  0.4791  0.8813 -0.0971
 3023SOL    HW210491   4.892   1.288   3.784 -0.3777 -1.5173 -0.0400
 3024SOL     OW10492   0.457   3.860   5.100 -0.1542 -0.2284  0.3425
 3024SOL    HW110493   0.423   3.809   5.027 -0.0367 -0.7653  0.6611
 3024SOL    HW210494   0.450   3.803   5.176  2.1903 -0.7069  0.2888
 3025SOL     OW10495   8.511   9.107   9.142 -0.4482  0.6618 -0.5940
 3025SOL    HW110496   8.473   9.026   9.108 -0.1289  0.7200 -1.1021
 3025SOL    HW210497   8.532   9.158   9.063  4.5393 -1.0476 -0.6595
 3026SOL     OW10498   3.781   4.284   3.814  0.0917  1.1987 -0.2258
 3026SOL    HW110499   3.834   4.256   3.739  0.5791  2.0305 -0.1985
 3026SOL    HW210500   3.813   4.230   3.886 -0.6702  0.0879 -0.6846
 3027SOL     OW10501   2.310   6.814   6.755 -0.4890  0.5387 -0.2163
 3027SOL    HW110502   2.250   6.801   6.682  0.5488 -0.2783 -0.9578
 3027SOL    HW210503   2.371   6.740   6.750 -0.1672  0.6712  1.2538
 3028SOL     OW10504   2.526   0.953   1.239  0.4424 -0.7209 -0.0949
 3028SOL    HW110505   2.431   0.953   1.233  0.2771 -3.3799  1.0421
 3028SOL    HW210506   2.548   1.026   1.297 -0.8805 -0.0260 -0.4534
 3029SOL     OW10507   3.091   2.473   8.983  0.4747 -0.5959  0.1924
 3029SOL    HW110508   3.029   2.464   9.055  1.9666 -1.8797  1.3792
 3029SOL    HW210509   3.052   2.422   8.911 -0.4122 -0.3640  0.5019
 3030SOL     OW10510   6.899   6.012   7.805 -0.4498  0.5385 -0.3966
 3030SOL    HW110511   6.831   5.950   7.781 -1.3831  1.2696  0.2672
 3030SOL    HW210512   6.935   5.978   7.887 -2.5816  2.0233  1.2680
 3031SOL     OW10513   9.133   6.404   8.969 -0.3345  0.3712  0.4242
 3031SOL    HW110514   9.216   6.435   8.933 -0.6994 -0.2809 -1.0253
 3031SOL    HW210515   9.132   6.439   9.058  1.4594  0.4353  0.4617
 3032SOL     OW10516   6.761   5.436   1.450  0.0882 -0.3251 -0.1234
 3032SOL    HW110517   6.804   5.451   1.366 -1.6851  0.2832 -0.9838
 3032SOL    HW210518   6.824   5.466   1.515  0.4587  1.9042 -1.3836
 3033SOL     OW10519   7.810   8.652   1.915 -0.2980 -0.3033  0.0311
 3033SOL    HW110520   7.883   8.670   1.974 -1.3001  2.0017  0.6901
 3033SOL    HW210521   7.801   8.731   1.862 -0.5449 -1.6448 -2.0657
 3034SOL     OW10522   7.027   9.100   6.506  0.1424  0.2446  0.6219
 3034SOL    HW110523   7.053   9.127   6.594 -0.3326  0.2780  0.7521
 3034SOL    HW210524   7.095   9.137   6.449 -0.4348  1.6671  0.8050
 3035SOL     OW10525   0.310   5.022   5.053 -0.1417 -0.1401 -0.5276
 3035SOL    HW110526   0.370   4.968   5.001  0.4144 -0.0473  0.0186
 3035SOL    HW210527   0.254   5.065   4.987  0.1956 -0.4524 -1.0231
 3036SOL     OW10528   2.099   2.594   1.299  0.2403 -0.1118 -0.0506
 3036SOL    HW110529   2.039   2.636   1.362 -0.6120 -0.7755 -0.3948
 3036SOL    HW210530   2.142   2.667   1.255 -0.5145  0.3936  0.0275
 3037SOL     OW10531   4.055   1.083   3.491  0.3813 -0.2518 -0.2561
 3037SOL    HW110532   4.142   1.052   3.467  0.5798  1.7913 -2.5470
 3037SOL    HW210533   4.019   1.120   3.411 -2.2523 -0.1863  0.8542
 3038SOL     OW10534   4.603   4.712   8.229 -1.1492 -0.7572 -0.3673
 3038SOL    HW110535   4.690   4.677   8.210 -0.7048  0.8513 -1.4366
 3038SOL    HW210536   4.570   4.742   8.145 -1.6993  0.9440  0.4083
 3039SOL     OW10537   2.504   8.356   5.985 -0.1978 -0.0834  0.1065
 3039SOL    HW110538   2.580   8.375   6.039 -0.3918  0.6701  0.1284
 3039SOL    HW210539   2.475   8.442   5.953  0.7119 -0.5777 -2.2919
 3040SOL     OW10540   1.541   2.957   7.242  0.0878 -0.7852 -0.0765
 3040SOL    HW110541   1.539   2.956   7.147 -0.3203  0.8283 -0.1172
 3040SOL    HW210542   1.558   2.866   7.267 -1.2803 -1.5246 -1.6368
 3041SOL     OW10543   7.719   5.387   4.756  0.1289 -0.2769 -0.2867
 3041SOL    HW110544   7.799   5.438   4.766 -0.2517  0.1390  0.9090
 3041SOL    HW210545   7.710   5.374   4.662  0.8247  0.9263 -0.5473
 3042SOL     OW10546   2.850   5.574   4.113 -0.2785 -0.1888 -0.3348
 3042SOL    HW110547   2.919   5.586   4.047  0.1999  0.6199  0.2884
 3042SOL    HW210548   2.864   5.485   4.147  1.7201  0.5939  1.1287
 3043SOL     OW10549   3.635   4.505   3.479 -0.0773 -0.6488  0.1386
 3043SOL    HW110550   3.700   4.574   3.495 -0.4089 -0.2706 -0.1438
 3043SOL    HW210551   3.567   4.547   3.427 -1.5915 -0.4647  2.1215
 3044SOL     OW10552   1.846   7.752   5.921 -0.1005  0.0590  0.2233
 3044SOL    HW110553   1.916   7.699   5.882 -0.2031  0.3271 -0.3441
 3044SOL    HW210554   1.775   7.691   5.937  0.0700 -0.1175  0.3110
 3045SOL     OW10555   9.249   0.611   7.279  0.1690  0.6540 -0.1820
 3045SOL    HW110556   9.289   0.656   7.354  1.0411 -0.8891  0.3295
 3045SOL    HW210557   9.232   0.522   7.311 -1.7543  0.6633 -1.0643
 3046SOL     OW10558   4.385   7.687   1.769 -0.1943 -0.2059 -0.4933
 3046SOL    HW110559   4.390   7.636   1.850 -2.0487  1.2387  0.6272
 3046SOL    HW210560   4.300   7.664   1.731 -0.2190  0.6052 -0.9591
 3047SOL     OW10561   2.047   8.981   1.439  0.1313  0.2636 -0.0316
 3047SOL    HW110562   2.015   8.993   1.528 -0.1509  0.7647 -0.1976
 3047SOL    HW210563   2.124   9.038   1.434 -0.4896  1.0767 -0.4423
 3048SOL     OW10564   2.258   6.953   4.812 -0.6371  0.6669 -0.3341
 3048SOL    HW110565   2.171   6.953   4.854 -0.0674 -0.2195  0.9194
 3048SOL    HW210566   2.281   6.860   4.806  0.0791  0.8815 -0.9766
 3049SOL     OW10567   0.070   4.919   4.709  0.8497 -0.5397 -0.3608
 3049SOL    HW110568   0.078   4.844   4.767  1.2663 -0.3252 -0.1382
 3049SOL    HW210569   0.102   4.993   4.760  1.0631 -0.3182 -0.8058
 3050SOL     OW10570   2.361   7.850   0.502 -0.2011  0.0747 -0.3478
 3050SOL    HW110571   2.289   7.891   0.550  0.0151  0.3549 -0.2596
 3050SOL    HW210572   2.362   7.896   0.418  0.2186  0.4445 -0.1449
 3051SOL     OW10573   6.499   2.800   3.230 -0.1767 -0.1247  0.1217
 3051SOL    HW110574   6.456   2.829   3.150  0.1129 -2.4505 -0.9534
 3051SOL    HW210575   6.591   2.820   3.216 -0.2438  0.3509  0.3190
 3052SOL     OW10576   8.593   2.692   2.233  0.0888 -0.2185  0.8724
 3052SOL    HW110577   8.634   2.683   2.147  1.3988  0.6486  1.3771
 3052SOL    HW210578   8.535   2.767   2.224 -0.3729 -0.6122  0.5332
 3053SOL     OW10579   7.240   7.708   6.402 -0.3812  0.0475 -0.1227
 3053SOL    HW110580   7.218   7.752   6.484  2.3460 -0.5607  1.0426
 3053SOL    HW210581   7.322   7.749   6.373 -0.6838 -0.5235 -1.9625
 3054SOL     OW10582   7.270   7.632   8.450  0.3102 -0.0038  0.2063
 3054SOL    HW110583   7.210   7.595   8.385  0.0134  1.5167 -0.4275
 3054SOL    HW210584   7.245   7.591   8.532 -0.1414 -1.0333 -0.4299
 3055SOL     OW10585   5.486   7.672   0.750 -0.2691 -0.4010  0.1454
 3055SOL    HW110586   5.475   7.767   0.756 -1.3143 -0.3480 -1.6821
 3055SOL    HW210587   5.430   7.637   0.819  0.0223  0.3010  0.7523
 3056SOL     OW10588   9.176   2.181   1.034 -0.1996 -0.8379 -0.4904
 3056SOL    HW110589   9.119   2.258   1.032 -0.6479 -1.0997  1.0670
 3056SOL    HW210590   9.183   2.154   0.942 -2.5731 -0.7799 -0.7498
 3057SOL     OW10591   9.118   7.404   7.352 -0.3300 -0.6230 -0.2811
 3057SOL    HW110592   9.044   7.416   7.293 -1.7314 -0.3847  1.4457
 3057SOL    HW210593   9.127   7.488   7.397  1.8327 -0.2360 -1.3259
 3058SOL     OW10594   7.845   8.270   3.403 -0.1926 -0.0609  0.2094
 3058SOL    HW110595   7.798   8.279   3.320  0.8209  0.3326 -0.3375
 3058SOL    HW210596   7.841   8.357   3.443  1.8632  0.6094 -0.8582
 3059SOL     OW10597   6.057   4.712   6.295  0.2168  0.2563 -0.2246
 3059SOL    HW110598   6.031   4.643   6.356 -1.7760  1.3644  0.2758
 3059SOL    HW210599   6.026   4.681   6.210  0.9096 -0.2451 -0.2995
 3060SOL     OW10600   8.533   5.646   5.185  0.3867 -0.0226 -0.1583
 3060SOL    HW110601   8.597   5.588   5.227 -1.1791 -0.3858  1.8399
 3060SOL    HW210602   8.562   5.650   5.094  1.1559 -3.1309 -0.1714
 3061SOL     OW10603   1.096   6.700   3.865 -0.2939 -0.0372 -0.3487
 3061SOL    HW110604   1.141   6.616   3.870 -0.2087 -0.1059 -1.8401
 3061SOL    HW210605   1.136   6.744   3.790 -0.4540  1.2783  0.3007
 3062SOL     OW10606   1.787   1.814   2.449 -0.2798 -0.2112 -0.1589
 3062SOL    HW110607   1.816   1.723   2.455 -0.5868 -0.3564 -0.7671
 3062SOL    HW210608   1.804   1.838   2.357  3.2495  1.5130  0.7584
 3063SOL     OW10609   0.127   6.047   2.373  0.1483  0.0743  0.1959
 3063SOL    HW110610   0.040   6.019   2.346 -0.5685  0.9087  1.4988
 3063SOL    HW210611   0.187   5.980   2.339 -0.8738  0.0194 -1.5910
 3064SOL     OW10612   9.212   0.730   3.894  0.2265  0.1415 -0.1462
 3064SOL    HW110613   9.247   0.673   3.963  0.4721  0.3038 -0.1370
 3064SOL    HW210614   9.288   0.778   3.861  0.2746 -0.5418 -1.1126
 3065SOL     OW10615   2.883   3.901   2.346  0.0611  0.0540 -0.4296
 3065SOL    HW110616   2.897   3.992   2.374  1.4225  0.1002 -1.1780
 3065SOL    HW210617   2.788   3.894   2.335 -0.2326  0.8840  1.2675
 3066SOL     OW10618   4.971   7.007   0.160 -0.4315  0.4038  0.8527
 3066SOL    HW110619   4.907   7.074   0.137  1.6540  1.4630 -2.6309
 3066SOL    HW210620   5.045   7.056   0.195 -0.0561 -0.4153  1.2444
 3067SOL     OW10621   8.354   7.394   7.416  0.9497 -0.4901 -0.0361
 3067SOL    HW110622   8.285   7.331   7.393  1.8129 -1.0534 -1.1796
 3067SOL    HW210623   8.436   7.348   7.396  1.7106 -0.0073  1.7107
 3068SOL     OW10624   3.310   4.882   0.363  1.0749 -0.0999 -0.0664
 3068SOL    HW110625   3.292   4.830   0.284  1.7552 -0.7416  0.1901
 3068SOL    HW210626   3.331   4.969   0.329 -1.8652  0.5627 -0.4072
 3069SOL     OW10627   6.380   6.757   5.974  0.0182  0.0619  0.1633
 3069SOL    HW110628   6.318   6.734   6.042  0.8104 -0.1436  0.8338
 3069SOL    HW210629   6.342   6.833   5.930 -0.1968  0.6021  1.2577
 3070SOL     OW10630   0.281   1.109   4.848  0.0526 -0.1541 -0.5654
 3070SOL    HW110631   0.254   1.021   4.873  0.6737 -0.0048  0.7035
 3070SOL    HW210632   0.309   1.100   4.757  1.0175 -1.4865 -0.1664
 3071SOL     OW10633   5.990   4.307   1.628 -0.0937  0.0370  0.1464
 3071SOL    HW110634   6.016   4.237   1.568 -1.9115 -1.1329  0.6650
 3071SOL    HW210635   6.004   4.270   1.715  0.8994  1.1026  0.4654
 3072SOL     OW10636   7.741   3.431   3.640  0.8151 -0.3014 -0.2910
 3072SOL    HW110637   7.760   3.412   3.731  0.4945 -1.6899 -0.4870
 3072SOL    HW210638   7.664   3.378   3.620  0.2215  0.8040 -1.0801
 3073SOL     OW10639   3.113   5.688   1.364 -0.1029  0.0827  0.1239
 3073SOL    HW110640   3.090   5.668   1.455  0.0573 -0.4364  0.0551
 3073SOL    HW210641   3.156   5.608   1.333 -2.3177 -0.7176 -1.1612
 3074SOL     OW10642   7.339   1.076   2.905 -0.2548  0.2110  0.2406
 3074SOL    HW110643   7.301   1.164   2.903 -1.1161 -0.1113  1.1054
 3074SOL    HW210644   7.373   1.066   2.994 -0.8002 -0.5678  0.3810
 3075SOL     OW10645   4.148   7.155   8.554  0.4360 -0.0179  0.6095
 3075SOL    HW110646   4.097   7.076   8.536  0.6319 -0.6433  2.5704
 3075SOL    HW210647   4.088   7.227   8.535 -0.3686 -0.6801  0.5704
 3076SOL     OW10648   8.422   1.528   0.393  0.0432 -0.5475  0.1230
 3076SOL    HW110649   8.473   1.542   0.314  0.3724  0.2661  0.4677
 3076SOL    HW210650   8.486   1.534   0.464 -0.0256 -2.4413  0.4170
 3077SOL     OW10651   6.762   8.900   7.584  0.2514  0.1507 -0.3033
 3077SOL    HW110652   6.716   8.821   7.612 -0.0520  0.7388  0.8795
 3077SOL    HW210653   6.831   8.868   7.526  1.0960 -1.1382  1.3408
 3078SOL     OW10654   1.604   8.189   1.461  0.5943  0.1901 -0.4547
 3078SOL    HW110655   1.537   8.139   1.414  1.9645 -1.4561 -0.7597
 3078SOL    HW210656   1.663   8.219   1.392  0.4402  1.2354 -0.1435
 3079SOL     OW10657   4.661   2.239   8.907 -0.0859 -0.2589 -0.2533
 3079SOL    HW110658   4.678   2.212   8.998  1.7942  0.0365 -0.4665
 3079SOL    HW210659   4.696   2.167   8.854 -1.0685 -0.3738 -0.7595
 3080SOL     OW10660   0.156   1.210   5.331 -0.6335  0.0903  0.5527
 3080SOL    HW110661   0.075   1.245   5.366 -0.1591  1.0704  0.6912
 3080SOL    HW210662   0.130   1.162   5.252 -1.5846 -1.3097  1.6732
 3081SOL     OW10663   4.069   7.182   3.241  0.9476  0.3037  0.0938
 3081SOL    HW110664   4.161   7.208   3.235  1.3768 -1.2376 -0.7254
 3081SOL    HW210665   4.069   7.109   3.304  0.4575 -0.3243 -0.6138
 3082SOL     OW10666   2.753   7.608   8.625  0.2660 -0.1655 -0.1699
 3082SOL    HW110667   2.746   7.621   8.720  0.6523  1.5820 -0.3430
 3082SOL    HW210668   2.695   7.674   8.587  2.4511  1.2976 -1.1844
 3083SOL     OW10669   8.472   8.524   3.438  0.4390  0.4860  0.1999
 3083SOL    HW110670   8.532   8.524   3.364  1.6849 -1.1485  1.1263
 3083SOL    HW210671   8.411   8.452   3.420 -1.2721  2.0971 -0.7075
 3084SOL     OW10672   5.835   2.960   1.818  0.8055  0.5128  0.1637
 3084SOL    HW110673   5.863   3.047   1.846 -0.2680  1.0680 -0.4314
 3084SOL    HW210674   5.866   2.954   1.727  1.1223  0.1565  0.2925
 3085SOL     OW10675   1.200   7.749   0.355  0.0622 -0.1252  0.1089
 3085SOL    HW110676   1.284   7.706   0.340 -0.3257 -1.2205  0.9605
 3085SOL    HW210677   1.180   7.792   0.272  0.3482 -1.7931 -0.8591
 3086SOL     OW10678   4.153   2.119   4.287 -0.0446  0.3373  0.2297
 3086SOL    HW110679   4.119   2.195   4.241 -0.6349 -0.0658 -0.0047
 3086SOL    HW210680   4.090   2.102   4.357  0.0859  0.0564  0.2809
 3087SOL     OW10681   7.694   8.757   8.571  0.7294 -0.3448 -0.4654
 3087SOL    HW110682   7.605   8.728   8.593  0.2081  1.8484  0.6473
 3087SOL    HW210683   7.725   8.803   8.649  1.9075  0.9542 -1.6310
 3088SOL     OW10684   4.795   1.172   8.619  0.2618 -0.5199  0.3607
 3088SOL    HW110685   4.720   1.228   8.636  0.7772  0.0293  0.8392
 3088SOL    HW210686   4.774   1.090   8.663  0.2392 -0.1408  1.0576
 3089SOL     OW10687   6.550   7.833   3.340  0.1822  0.4646  0.2872
 3089SOL    HW110688   6.458   7.859   3.343 -0.2275 -0.7045 -0.9487
 3089SOL    HW210689   6.551   7.747   3.384  0.2023 -0.6662 -1.7961
 3090SOL     OW10690   8.143   4.035   7.408  0.5825  0.1315 -0.0762
 3090SOL    HW110691   8.121   3.958   7.460  0.6940 -0.4114 -0.8075
 3090SOL    HW210692   8.231   4.059   7.437  0.1319  0.6465  0.9124
 3091SOL     OW10693   8.352   4.256   0.014  0.1872 -0.5500  0.6724
 3091SOL    HW110694   8.429   4.262  -0.042 -1.0775 -1.7931 -1.3322
 3091SOL    HW210695   8.323   4.165   0.006 -2.3367  0.2036  0.1101
 3092SOL     OW10696   5.428   1.514   2.172 -0.2399  0.6022  0.0906
 3092SOL    HW110697   5.461   1.600   2.146 -0.7594  0.8000  0.0633
 3092SOL    HW210698   5.403   1.525   2.264  1.6520 -0.1130  0.7167
 3093SOL     OW10699   4.219   1.534   2.733 -0.5973  0.0593 -0.0211
 3093SOL    HW110700   4.265   1.458   2.700  0.8240  0.9288 -0.1338
 3093SOL    HW210701   4.156   1.499   2.796  2.0069 -1.0505  2.1450
 3094SOL     OW10702   6.785   1.600   5.716 -0.3698  0.7455 -0.0840
 3094SOL    HW110703   6.830   1.618   5.634 -0.8188  0.4261 -0.4132
 3094SOL    HW210704   6.855   1.588   5.780  0.1515 -1.7743 -0.9934
 3095SOL     OW10705   3.971   6.675   7.850 -0.2092 -0.5512  0.4146
 3095SOL    HW110706   4.032   6.744   7.825 -0.8397  0.0237  0.4504
 3095SOL    HW210707   3.980   6.668   7.945  0.3935 -1.0359  0.3259
 3096SOL     OW10708   4.496   8.343   3.424  0.2457 -0.3058  0.2178
 3096SOL    HW110709   4.403   8.336   3.449 -0.1386  0.0748 -1.0456
 3096SOL    HW210710   4.523   8.429   3.455 -0.7878  1.0288 -2.2913
 3097SOL     OW10711   3.046   5.576   8.380  0.0018  0.1805 -0.3559
 3097SOL    HW110712   3.124   5.602   8.428 -0.2304  0.0323  0.1031
 3097SOL    HW210713   3.075   5.568   8.289  1.0226 -1.9840  0.1044
 3098SOL     OW10714   0.754   1.102   1.905  0.0199  0.3642 -0.0219
 3098SOL    HW110715   0.746   1.192   1.935 -0.5961  0.7706 -1.3019
 3098SOL    HW210716   0.844   1.095   1.873  0.1608  0.4278  0.3593
 3099SOL     OW10717   3.893   8.665   8.104  0.1845  0.3407 -0.0225
 3099SOL    HW110718   3.928   8.711   8.028  1.9129 -0.1763  0.4327
 3099SOL    HW210719   3.798   8.667   8.091  0.4080  0.8321 -1.8492
 3100SOL     OW10720   7.171   8.452   0.364 -0.2740  0.2185  0.1935
 3100SOL    HW110721   7.218   8.478   0.285 -1.3277  0.3095 -0.4250
 3100SOL    HW210722   7.140   8.535   0.401  1.4004  0.3037  1.4921
 3101SOL     OW10723   6.187   7.486   2.656  0.1172 -0.0935 -0.2228
 3101SOL    HW110724   6.110   7.489   2.713 -0.1279  2.0914 -0.5940
 3101SOL    HW210725   6.220   7.397   2.666 -1.1827 -0.4336  1.6369
 3102SOL     OW10726   7.242   5.614   3.902 -0.3689 -0.0977  0.1391
 3102SOL    HW110727   7.294   5.683   3.859 -1.4065  0.2192 -0.6675
 3102SOL    HW210728   7.279   5.532   3.870 -0.3297  0.1229 -0.3905
 3103SOL     OW10729   2.639   4.426   0.764  0.0478 -0.4737 -0.5704
 3103SOL    HW110730   2.690   4.504   0.787 -0.6141  0.0372 -0.8007
 3103SOL    HW210731   2.623   4.435   0.670 -3.7892  1.4701  0.0400
 3104SOL     OW10732   1.811   5.211   2.956  0.2637 -0.3685  0.1821
 3104SOL    HW110733   1.856   5.167   2.884 -0.7728  0.3677 -0.9523
 3104SOL    HW210734   1.756   5.143   2.995  1.2275 -0.9058  0.6614
 3105SOL     OW10735   3.462   8.784   7.610  0.0884  0.1626 -0.8013
 3105SOL    HW110736   3.425   8.824   7.688 -0.8515 -0.6510 -0.8083
 3105SOL    HW210737   3.401   8.806   7.540  1.4616  1.7903 -1.5631
 3106SOL     OW10738   5.207   6.812   3.628 -0.0944 -0.3421  0.0084
 3106SOL    HW110739   5.127   6.856   3.658 -0.5935 -1.3544  0.2084
 3106SOL    HW210740   5.260   6.802   3.707  0.0895  0.0319 -0.0654
 3107SOL     OW10741   5.840   7.788   3.369 -0.3608  0.2005 -0.0225
 3107SOL    HW110742   5.770   7.781   3.304 -0.7386  0.2282  0.3770
 3107SOL    HW210743   5.830   7.876   3.405  1.4871  1.1949 -1.7678
 3108SOL     OW10744   5.927   0.456   9.249 -0.4512  0.2843 -0.2684
 3108SOL    HW110745   5.931   0.402   9.170 -0.7158 -1.6890  1.0025
 3108SOL    HW210746   5.846   0.505   9.240 -0.4314  0.1648 -1.2632
 3109SOL     OW10747   8.383   4.120   8.512  0.3889  0.1895 -0.0927
 3109SOL    HW110748   8.306   4.170   8.538 -0.4103  0.0285 -2.0359
 3109SOL    HW210749   8.451   4.187   8.497 -0.1149  0.5474 -0.8109
 3110SOL     OW10750   8.755   5.607   4.168 -0.6830  0.3035  0.4386
 3110SOL    HW110751   8.828   5.668   4.163 -0.3673 -0.1030 -0.0267
 3110SOL    HW210752   8.686   5.648   4.115 -0.6933  0.5413  0.6302
 3111SOL     OW10753   7.148   6.691   6.732 -0.7247  0.2743  0.3389
 3111SOL    HW110754   7.241   6.713   6.730 -0.4693 -0.7605 -0.4681
 3111SOL    HW210755   7.104   6.770   6.702  0.0048  0.3388 -0.6101
 3112SOL     OW10756   7.227   3.262   2.872 -0.2097 -0.9781 -0.1463
 3112SOL    HW110757   7.158   3.327   2.887  1.8342  1.0836  0.9491
 3112SOL    HW210758   7.238   3.260   2.777  1.4224  2.3398 -0.1416
 3113SOL     OW10759   3.775   1.063   4.508 -0.0661 -0.9477  0.1707
 3113SOL    HW110760   3.735   1.088   4.591 -2.7812  0.0797 -1.3151
 3113SOL    HW210761   3.734   0.979   4.485  0.6009 -1.1901 -0.1807
 3114SOL     OW10762   4.961   6.494   3.828  0.5110  0.8309 -0.1177
 3114SOL    HW110763   4.951   6.544   3.909  2.2781 -0.9917  1.3429
 3114SOL    HW210764   4.872   6.485   3.795 -0.6139 -0.0328  2.7692
 3115SOL     OW10765   3.666   7.184   0.672  0.4752  0.2280 -0.4410
 3115SOL    HW110766   3.679   7.145   0.585 -2.3176 -1.9297 -0.0567
 3115SOL    HW210767   3.708   7.122   0.732  0.0816  0.2935 -0.0970
 3116SOL     OW10768   9.213   2.116   1.511  0.4174  0.1564  0.1625
 3116SOL    HW110769   9.235   2.197   1.465  1.3918  1.3946  2.5957
 3116SOL    HW210770   9.200   2.144   1.602 -3.1134 -1.8438  0.4467
 3117SOL     OW10771   1.240   2.883   4.793 -0.1550  0.0053 -0.9665
 3117SOL    HW110772   1.248   2.870   4.887 -0.2219 -0.1552 -0.9833
 3117SOL    HW210773   1.149   2.907   4.779 -0.5889 -1.6525 -1.1835
 3118SOL     OW10774   1.691   6.687   2.842 -0.3507 -0.0673  0.1863
 3118SOL    HW110775   1.752   6.731   2.783 -0.4855 -0.8935 -0.5959
 3118SOL    HW210776   1.724   6.598   2.850 -2.8708 -1.4345 -2.5353
 3119SOL     OW10777   2.073   6.379   1.493 -0.2732  0.0718 -0.3668
 3119SOL    HW110778   2.154   6.332   1.514 -0.9879  0.1458  3.2030
 3119SOL    HW210779   2.019   6.315   1.447  0.2457 -1.3768  0.9617
 3120SOL     OW10780   1.874   8.335   7.441 -0.0076  0.7785 -0.2101
 3120SOL    HW110781   1.859   8.422   7.405 -0.7656  0.6295 -0.2563
 3120SOL    HW210782   1.829   8.335   7.525 -3.0183 -0.6449 -1.6654
 3121SOL     OW10783   6.770   4.827   2.081 -0.4176 -0.5531  0.0791
 3121SOL    HW110784   6.798   4.860   2.167 -0.7535 -2.3274  0.9122
 3121SOL    HW210785   6.815   4.743   2.071  0.4108  0.0670 -1.9794
 3122SOL     OW10786   0.666   0.217   1.925 -0.1751  0.6203  0.1825
 3122SOL    HW110787   0.702   0.149   1.868 -1.2589  0.8018 -0.7536
 3122SOL    HW210788   0.694   0.299   1.885  1.1771  0.7765  1.3394
 3123SOL     OW10789   8.480   0.275   8.713 -0.1323 -0.2503 -0.4558
 3123SOL    HW110790   8.520   0.285   8.627  1.1636  3.4466  0.3903
 3123SOL    HW210791   8.401   0.329   8.710  0.4915  0.8006  0.9239
 3124SOL     OW10792   6.996   0.238   2.066 -0.5760  0.0929 -0.4415
 3124SOL    HW110793   7.074   0.213   2.016 -0.6646  1.8894 -1.5792
 3124SOL    HW210794   6.945   0.291   2.006 -2.6238 -0.8992  0.3519
 3125SOL     OW10795   5.307   3.161   8.837 -0.5020  0.2415 -0.0404
 3125SOL    HW110796   5.338   3.235   8.784  0.3072  0.2013  0.3508
 3125SOL    HW210797   5.312   3.192   8.927  0.9633 -0.6505  0.2172
 3126SOL     OW10798   8.256   5.120   5.656  0.8287 -0.6337 -0.4730
 3126SOL    HW110799   8.193   5.164   5.599  1.2207  0.0743 -0.3720
 3126SOL    HW210800   8.227   5.029   5.658 -0.4772 -0.2243 -0.0226
 3127SOL     OW10801   8.060   8.966   8.989 -0.1244  0.4100  0.2396
 3127SOL    HW110802   8.004   8.894   8.960 -2.1366  1.9742  0.0058
 3127SOL    HW210803   8.044   8.972   9.084  0.8573 -0.0786  0.4539
 3128SOL     OW10804   4.654   5.396   8.765  0.1273  0.0097 -0.4569
 3128SOL    HW110805   4.591   5.398   8.693 -0.4251  1.0599  0.0334
 3128SOL    HW210806   4.712   5.323   8.744 -1.8916 -1.6924 -0.3773
 3129SOL     OW10807   7.973   6.484   2.137  0.1519  0.1011  0.7245
 3129SOL    HW110808   7.934   6.416   2.192 -0.6316  0.0528  0.1283
 3129SOL    HW210809   7.955   6.566   2.183  2.3316 -0.1524  2.1767
 3130SOL     OW10810   0.200   5.381   0.863  0.0454 -0.3241  0.4873
 3130SOL    HW110811   0.182   5.356   0.773  1.3791 -1.8723  0.5887
 3130SOL    HW210812   0.242   5.467   0.856  1.0893 -0.8844 -0.4773
 3131SOL     OW10813   1.184   1.103   4.594 -0.1250 -0.0072 -0.5919
 3131SOL    HW110814   1.165   1.182   4.543  0.6667  0.3392 -0.3734
 3131SOL    HW210815   1.252   1.131   4.656 -3.8600  0.7918  3.6391
 3132SOL     OW10816   1.067   5.389   4.528  0.8936  0.3299 -0.2322
 3132SOL    HW110817   1.100   5.473   4.496  1.5989 -0.1169 -0.7053
 3132SOL    HW210818   0.976   5.385   4.496  2.0032 -0.7902 -3.6508
 3133SOL     OW10819   5.450   5.483   0.350 -0.5095 -0.3008 -0.2630
 3133SOL    HW110820   5.377   5.528   0.306 -1.2217 -1.0919  0.0736
 3133SOL    HW210821   5.437   5.391   0.329  0.5115 -0.4398 -0.3417
 3134SOL     OW10822   7.745   3.783   6.952  0.2501 -0.3392 -0.3035
 3134SOL    HW110823   7.767   3.772   6.859 -0.4440 -1.7058 -0.3386
 3134SOL    HW210824   7.686   3.710   6.971  0.2616  0.0088  1.1836
 3135SOL     OW10825   5.600   2.408   0.087  0.1544 -0.0297 -0.0784
 3135SOL    HW110826   5.648   2.477   0.133  1.0849 -0.1925 -0.7877
 3135SOL    HW210827   5.635   2.409  -0.001 -2.0017  0.6442 -1.0017
 3136SOL     OW10828   9.031   0.919   5.574 -0.1244  0.0512  0.7306
 3136SOL    HW110829   8.962   0.853   5.575  1.0564 -1.2910 -0.3940
 3136SOL    HW210830   9.024   0.963   5.658 -0.4092 -2.1618  1.9477
 3137SOL     OW10831   5.282   0.783   7.489 -0.0731  0.1561 -0.2802
 3137SOL    HW110832   5.340   0.725   7.539 -0.1683 -1.1023 -1.5711
 3137SOL    HW210833   5.282   0.746   7.401 -1.2376  1.3433 -0.8025
 3138SOL     OW10834   5.061   3.887   1.905  0.1723 -0.3868  0.6049
 3138SOL    HW110835   5.083   3.965   1.957  0.0993 -1.6578  2.6741
 3138SOL    HW210836   4.975   3.906   1.868 -0.1099  0.2901  1.5718
 3139SOL     OW10837   9.084   6.576   3.245 -0.1067 -0.1953  0.0755
 3139SOL    HW110838   9.158   6.635   3.238  1.5497 -2.0307  1.1203
 3139SOL    HW210839   9.028   6.615   3.312  0.3364  0.8057 -0.1330
 3140SOL     OW10840   5.599   2.156   1.899 -0.3835  0.6274 -0.0288
 3140SOL    HW110841   5.540   2.220   1.940  1.8828  1.6568  1.8627
 3140SOL    HW210842   5.687   2.192   1.912  0.7148  0.0074 -4.2016
 3141SOL     OW10843   6.856   2.070   7.033  0.0464  0.4843  0.0710
 3141SOL    HW110844   6.844   2.059   6.938 -1.7062 -0.0339  0.3150
 3141SOL    HW210845   6.892   1.986   7.062  0.3240  0.5463 -0.0921
 3142SOL     OW10846   7.653   0.457   7.689  0.2066 -0.0713 -0.2748
 3142SOL    HW110847   7.745   0.481   7.696  0.3081 -0.6627  0.4935
 3142SOL    HW210848   7.627   0.433   7.778 -0.2568 -1.4538 -0.7549
 3143SOL     OW10849   7.204   1.336   4.684  0.2958 -0.1340 -0.3856
 3143SOL    HW110850   7.216   1.424   4.648  1.4995  0.7508  1.9477
 3143SOL    HW210851   7.144   1.348   4.757 -0.5882 -1.5274 -0.8469
 3144SOL     OW10852   3.148   2.926   8.046 -0.1993  0.3488 -0.0257
 3144SOL    HW110853   3.220   2.943   8.105  1.1789 -0.2853 -1.4377
 3144SOL    HW210854   3.072   2.964   8.088  0.3205 -1.6520  3.0196
 3145SOL     OW10855   5.134   8.411   0.517  0.0034 -0.3394  0.3991
 3145SOL    HW110856   5.132   8.482   0.582 -0.7712  1.0478 -1.0734
 3145SOL    HW210857   5.220   8.419   0.476 -0.4104  0.3260 -0.3579
 3146SOL     OW10858   4.966   2.956   5.298 -0.4478  0.2697  0.2464
 3146SOL    HW110859   5.022   2.971   5.374 -0.9027  0.6980  0.4999
 3146SOL    HW210860   4.923   2.872   5.317  1.3299 -0.9464 -0.7114
 3147SOL     OW10861   1.403   2.334   1.093  0.6160 -0.2860  0.3598
 3147SOL    HW110862   1.399   2.239   1.089  1.0771 -0.3393  0.9579
 3147SOL    HW210863   1.476   2.357   1.036  0.4453 -0.2827  0.1419
 3148SOL     OW10864   6.121   8.026   8.740  0.1288 -0.1995  0.1570
 3148SOL    HW110865   6.189   8.090   8.760  0.1993  0.1691 -1.2154
 3148SOL    HW210866   6.144   7.950   8.794 -0.0337  0.9342  1.9134
 3149SOL     OW10867   3.050   1.715   0.635  0.0687 -0.2575  0.2763
 3149SOL    HW110868   3.087   1.675   0.714  0.1271 -0.4494  0.1509
 3149SOL    HW210869   2.956   1.723   0.655 -0.1142 -1.3522 -0.0669
 3150SOL     OW10870   4.944   5.072   6.782 -0.5567 -0.3594  0.0135
 3150SOL    HW110871   4.858   5.112   6.791  0.2112  0.9536  2.2891
 3150SOL    HW210872   4.962   5.032   6.867  0.6314 -1.6037 -0.7779
 3151SOL     OW10873   7.723   6.299   9.186  0.3065 -0.3232 -0.3746
 3151SOL    HW110874   7.638   6.262   9.211  0.1853  0.1588 -0.0578
 3151SOL    HW210875   7.787   6.241   9.225  0.1784  1.7595  3.3751
 3152SOL     OW10876   6.409   5.992   1.427  0.7620  0.0817  0.2888
 3152SOL    HW110877   6.482   6.039   1.386 -0.8064  1.8206 -0.6022
 3152SOL    HW210878   6.425   5.900   1.404  1.1030  0.7501 -2.4260
 3153SOL     OW10879   7.865   2.691   2.334  0.2985  0.6007  0.0495
 3153SOL    HW110880   7.866   2.786   2.321 -1.0214  0.4396 -1.4875
 3153SOL    HW210881   7.929   2.658   2.271  0.7299  0.4492  0.5582
 3154SOL     OW10882   6.700   5.345   5.706  0.0604  0.2061  0.1988
 3154SOL    HW110883   6.627   5.317   5.761  0.0034  1.6536  0.8868
 3154SOL    HW210884   6.756   5.397   5.764  1.1247 -0.0414 -0.5752
 3155SOL     OW10885   3.898   8.290   8.177  0.5584 -0.0762  0.3025
 3155SOL    HW110886   3.975   8.239   8.152  0.6346  0.4503 -0.5932
 3155SOL    HW210887   3.835   8.276   8.106  0.0978  0.0597  0.6757
 3156SOL     OW10888   4.646   5.164   7.175  0.1076 -0.7069  0.0622
 3156SOL    HW110889   4.605   5.207   7.100  0.1071  0.2077  0.5776
 3156SOL    HW210890   4.576   5.160   7.241  0.4461 -0.3929  0.4468
 3157SOL     OW10891   0.327   7.540   2.570 -0.4580  0.2232 -0.1574
 3157SOL    HW110892   0.314   7.452   2.534  0.4467  0.4057 -0.9794
 3157SOL    HW210893   0.410   7.534   2.617 -0.7245  0.4722  0.3491
 3158SOL     OW10894   7.500   1.596   2.468 -0.2165 -0.2373 -0.0707
 3158SOL    HW110895   7.581   1.577   2.421  0.4369  0.9086  0.5404
 3158SOL    HW210896   7.483   1.517   2.520  1.3411  0.0249  0.9170
 3159SOL     OW10897   0.010   4.820   2.675  0.3461  0.3157  0.0167
 3159SOL    HW110898   0.087   4.804   2.729 -1.0242 -1.9370  1.4490
 3159SOL    HW210899  -0.053   4.861   2.734 -0.4240 -0.2016 -0.4232
 3160SOL     OW10900   1.591   8.245   6.604  0.0933 -0.0300  0.7605
 3160SOL    HW110901   1.648   8.247   6.682  0.6230  0.3592  0.3707
 3160SOL    HW210902   1.633   8.182   6.546 -0.7090 -0.8851  1.0808
 3161SOL     OW10903   0.972   4.969   7.963 -0.6057 -0.0276  0.7043
 3161SOL    HW110904   0.882   4.978   7.931 -0.3022  1.8036  0.2762
 3161SOL    HW210905   1.027   4.994   7.889  0.1803  1.4031  1.7279
 3162SOL     OW10906   5.620   3.355   0.040 -0.1487  0.3149 -0.9854
 3162SOL    HW110907   5.695   3.370  -0.017 -0.2133 -0.8498 -1.4056
 3162SOL    HW210908   5.556   3.421   0.014  0.6842  1.2657 -0.6779
 3163SOL     OW10909   6.148   7.577   7.390  0.0982 -0.2252 -0.2284
 3163SOL    HW110910   6.197   7.534   7.320  1.7682 -1.9257  1.8405
 3163SOL    HW210911   6.189   7.663   7.399  1.8016 -1.0536  0.4524
 3164SOL     OW10912   1.294   7.577   0.694  0.2060  0.5166  0.8792
 3164SOL    HW110913   1.224   7.594   0.758 -0.3666  1.4931  0.0188
 3164SOL    HW210914   1.317   7.663   0.660  0.2427 -0.0216 -0.5050
 3165SOL     OW10915   7.903   4.944   0.538  0.6378 -0.2289  0.4421
 3165SOL    HW110916   7.881   4.987   0.621  1.2131  1.0678 -0.0322
 3165SOL    HW210917   7.819   4.923   0.498  0.3151  0.9298  0.4774
 3166SOL     OW10918   6.369   0.784   6.964  0.0195 -0.3034  0.1156
 3166SOL    HW110919   6.458   0.752   6.967  0.4836  0.9799  1.6511
 3166SOL    HW210920   6.317   0.718   7.009  0.6897  0.2441  1.7647
 3167SOL     OW10921   8.568   6.363   7.121 -0.5271  0.0220 -0.1168
 3167SOL    HW110922   8.502   6.430   7.139  0.0442  0.3207  0.9473
 3167SOL    HW210923   8.650   6.412   7.111  0.1185 -0.5549  1.8378
 3168SOL     OW10924   4.047   2.987   7.060 -0.2372  0.1726  0.1889
 3168SOL    HW110925   4.023   2.912   7.114  0.1532  0.2466  0.4760
 3168SOL    HW210926   4.106   3.039   7.116 -1.0188  1.0350  0.2393
 3169SOL     OW10927   2.669   0.026   2.997  0.8191 -0.3782  0.5716
 3169SOL    HW110928   2.591   0.075   2.970 -1.4203 -2.1129  3.3209
 3169SOL    HW210929   2.666  -0.053   2.943  0.5788 -0.5098  0.7759
 3170SOL     OW10930   7.474   1.854   2.284 -0.0323 -0.8838 -0.0844
 3170SOL    HW110931   7.490   1.796   2.359 -0.5109 -0.8578  0.0405
 3170SOL    HW210932   7.527   1.817   2.214 -0.8008 -1.8349 -0.1810
 3171SOL     OW10933   7.092   3.648   4.637 -0.0145 -0.4294  0.6271
 3171SOL    HW110934   6.999   3.630   4.624 -0.0824  0.1754  0.2299
 3171SOL    HW210935   7.097   3.743   4.651  0.4362 -0.5829  1.6605
 3172SOL     OW10936   5.656   6.725   1.681 -0.1018 -0.3284  0.1226
 3172SOL    HW110937   5.737   6.775   1.686 -1.4709  2.0622 -0.3973
 3172SOL    HW210938   5.599   6.766   1.746 -1.7724 -0.2312 -1.3544
 3173SOL     OW10939   6.828   1.456   3.301  0.2968 -0.4083 -0.0697
 3173SOL    HW110940   6.880   1.384   3.265  1.4661  0.4579 -0.1707
 3173SOL    HW210941   6.770   1.482   3.228  1.9141  0.6411 -1.0463
 3174SOL     OW10942   2.589   0.061   0.841  0.0980 -0.2735 -0.3794
 3174SOL    HW110943   2.505   0.028   0.873  1.1901 -3.3509 -0.3338
 3174SOL    HW210944   2.586   0.046   0.746  0.0959  0.9234 -0.5836
 3175SOL     OW10945   3.778   8.325   2.420  0.7042  0.3369  0.1642
 3175SOL    HW110946   3.799   8.407   2.465  0.1049  0.2963  0.5249
 3175SOL    HW210947   3.863   8.287   2.400  1.0411  1.6512 -1.1461
 3176SOL     OW10948   1.836   7.959   2.600 -0.1468 -0.0889  0.4876
 3176SOL    HW110949   1.840   7.867   2.626  0.4691 -0.3608 -0.5072
 3176SOL    HW210950   1.915   7.972   2.547 -0.2688  0.9926  0.5541
 3177SOL     OW10951   2.860   5.569   4.937  0.0540  0.0438 -0.0888
 3177SOL    HW110952   2.835   5.483   4.971 -1.1722  0.1596 -0.6309
 3177SOL    HW210953   2.955   5.573   4.947 -0.0607 -0.6551  1.6004
 3178SOL     OW10954   2.536   1.797   6.651  0.2711  0.4820 -0.1589
 3178SOL    HW110955   2.519   1.868   6.589 -2.0491 -0.7032 -0.9890
 3178SOL    HW210956   2.497   1.720   6.611  0.5146 -0.7646  1.8552
 3179SOL     OW10957   6.276   6.171   6.491 -0.3578  0.1998  0.6755
 3179SOL    HW110958   6.345   6.193   6.554  1.9391 -1.0799 -1.2071
 3179SOL    HW210959   6.310   6.201   6.407 -2.6682  0.5593 -0.2064
 3180SOL     OW10960   2.449   0.224   5.888 -0.4276 -0.2902 -0.2804
 3180SOL    HW110961   2.495   0.299   5.852  1.3169 -0.2098  1.8968
 3180SOL    HW210962   2.403   0.185   5.813  2.0583  0.4617 -2.3366
 3181SOL     OW10963   9.065   5.847   5.522  0.0021  0.0909 -0.1244
 3181SOL    HW110964   8.995   5.832   5.459  1.6795 -1.1254 -1.8244
 3181SOL    HW210965   9.128   5.776   5.505  1.0818  0.4230  2.1397
 3182SOL     OW10966   0.070   5.441   8.001  0.0615  0.5463 -0.5688
 3182SOL    HW110967  -0.015   5.436   7.959 -0.8582 -0.4874  1.2598
 3182SOL    HW210968   0.050   5.459   8.093  1.8352  0.6393 -0.1605
 3183SOL     OW10969   5.065   7.746   7.922  0.0181 -0.1760  0.8114
 3183SOL    HW110970   5.095   7.691   7.994  0.3455 -0.1223  0.7172
 3183SOL    HW210971   5.002   7.806   7.962 -0.8136 -1.0200  0.8023
 3184SOL     OW10972   3.225   1.968   1.643  0.3282 -0.1932 -0.1353
 3184SOL    HW110973   3.198   1.917   1.566  0.3285  0.9021 -0.8923
 3184SOL    HW210974   3.143   2.002   1.678  0.4786  1.0602 -0.9391
 3185SOL     OW10975   2.265   2.780   3.585  0.2082  0.1644 -0.4744
 3185SOL    HW110976   2.256   2.694   3.626 -0.6821 -0.2738 -1.5655
 3185SOL    HW210977   2.359   2.800   3.591  0.3205 -0.5746  0.3671
 3186SOL     OW10978   2.238   8.906   4.603 -0.0345  0.3790  0.7572
 3186SOL    HW110979   2.256   8.950   4.686 -1.0855  1.0220  0.6626
 3186SOL    HW210980   2.155   8.943   4.573 -1.1008 -1.8174  0.7716
 3187SOL     OW10981   3.108   1.335   1.274 -0.1325  0.7341 -0.2196
 3187SOL    HW110982   3.132   1.279   1.348  1.9998 -1.5993 -2.4794
 3187SOL    HW210983   3.066   1.411   1.314  2.6818  0.6004  3.5505
 3188SOL     OW10984   5.623   3.269   3.273 -0.2895  0.5458 -0.4218
 3188SOL    HW110985   5.594   3.289   3.184 -1.8091 -0.5304 -0.2002
 3188SOL    HW210986   5.547   3.288   3.328  0.7221  1.4890  0.7082
 3189SOL     OW10987   8.014   5.333   8.052  0.5911 -0.0920 -0.1645
 3189SOL    HW110988   8.108   5.315   8.059  0.6548 -0.3631 -1.3788
 3189SOL    HW210989   8.002   5.357   7.960 -0.5269 -0.0287 -0.0110
 3190SOL     OW10990   3.530   1.592   8.025 -0.0594 -0.7747 -0.3756
 3190SOL    HW110991   3.561   1.611   8.114  0.8896  2.3261 -1.2450
 3190SOL    HW210992   3.599   1.537   7.987  0.8323  0.0530  0.0074
 3191SOL     OW10993   3.368   7.698   5.151 -0.5446 -0.3649  0.2197
 3191SOL    HW110994   3.435   7.654   5.205  1.9371  4.8543  2.0304
 3191SOL    HW210995   3.403   7.695   5.062 -0.0360 -1.2687  0.4364
 3192SOL     OW10996   5.509   2.907   3.537 -0.1214 -0.1994 -0.3970
 3192SOL    HW110997   5.430   2.936   3.583  0.7574  1.6235  0.0464
 3192SOL    HW210998   5.574   2.895   3.606  0.3088 -0.6514 -0.8657
 3193SOL     OW10999   6.240   4.464   6.859  0.1913  0.2824 -0.2560
 3193SOL    HW111000   6.183   4.525   6.906  0.9327 -1.4195  3.1434
 3193SOL    HW211001   6.182   4.393   6.832  0.0246  0.5571 -0.6377
 3194SOL     OW11002   6.692   8.955   0.062 -0.9371 -0.3041  0.0352
 3194SOL    HW111003   6.768   9.004   0.031 -1.2818  0.5113  0.4399
 3194SOL    HW211004   6.697   8.960   0.158 -0.9174 -1.1634  0.0882
 3195SOL     OW11005   8.685   5.302   6.451  0.3267  0.1752  0.7497
 3195SOL    HW111006   8.721   5.384   6.486 -1.4145  0.5339  1.8349
 3195SOL    HW211007   8.626   5.271   6.520 -0.8294 -0.7603 -0.6110
 3196SOL     OW11008   5.108   3.091   8.262 -0.3098 -0.0278  0.2161
 3196SOL    HW111009   5.167   3.016   8.263 -1.0044 -0.5859  0.5870
 3196SOL    HW211010   5.097   3.113   8.170 -0.0374 -0.3285  0.1112
 3197SOL     OW11011   8.713   2.665   6.338 -0.1574  0.1879  0.2600
 3197SOL    HW111012   8.748   2.666   6.249 -0.0288 -2.0584  0.2213
 3197SOL    HW211013   8.766   2.599   6.384 -1.3720  0.0085  1.4858
 3198SOL     OW11014   1.871   6.445   5.117 -0.1585  0.1184 -0.5114
 3198SOL    HW111015   1.871   6.538   5.139 -0.2398 -0.1458  0.7038
 3198SOL    HW211016   1.891   6.442   5.024  1.5494  1.2718 -0.2243
 3199SOL     OW11017   7.171   2.890   6.070 -0.1531 -0.1129 -0.0137
 3199SOL    HW111018   7.170   2.870   5.977  0.7412 -0.1415 -0.0211
 3199SOL    HW211019   7.111   2.827   6.109 -2.4484  1.4343 -0.8484
 3200SOL     OW11020   0.785   3.183   8.814 -0.3015 -0.1233  0.1885
 3200SOL    HW111021   0.836   3.254   8.854  2.0843  0.1770 -2.9645
 3200SOL    HW211022   0.695   3.217   8.811 -0.2483  0.5826  3.2476
 3201SOL     OW11023   4.759   4.172   6.590  0.2202  0.1539 -0.1028
 3201SOL    HW111024   4.815   4.218   6.652  0.4076  0.1212 -0.2456
 3201SOL    HW211025   4.794   4.082   6.587  3.9433  1.3407 -4.4386
 3202SOL     OW11026   6.108   0.931   7.980 -0.1603 -0.2312 -0.3885
 3202SOL    HW111027   6.175   0.997   7.963 -0.4043 -0.2730 -1.6027
 3202SOL    HW211028   6.138   0.888   8.061  0.1820  1.1026  0.2303
 3203SOL     OW11029   0.118   4.578   4.035  0.1872 -0.1819 -0.2171
 3203SOL    HW111030   0.090   4.493   4.001 -0.8943 -0.7222  1.8578
 3203SOL    HW211031   0.036   4.626   4.050  0.7787  1.2578 -1.3346
 3204SOL     OW11032   9.250   1.414   8.633 -0.5765 -0.6746  0.0507
 3204SOL    HW111033   9.333   1.387   8.670  0.3092  0.0141 -1.3401
 3204SOL    HW211034   9.221   1.340   8.580  0.8673  0.2396 -2.1633
 3205SOL     OW11035   3.451   5.089   5.995 -0.1393 -0.0706 -0.5458
 3205SOL    HW111036   3.478   4.997   6.002 -0.3767 -0.1809 -1.0196
 3205SOL    HW211037   3.533   5.137   5.989 -0.0255 -0.3156 -1.0006
 3206SOL     OW11038   7.197   5.718   7.317 -0.2579 -0.0579 -0.1239
 3206SOL    HW111039   7.145   5.750   7.391 -1.6308 -0.8027 -0.7242
 3206SOL    HW211040   7.138   5.723   7.242  0.9377  0.1825 -1.0793
 3207SOL     OW11041   7.563   7.388   7.272  0.3116 -0.4422  0.3280
 3207SOL    HW111042   7.568   7.376   7.177 -0.4112  0.6607  0.1317
 3207SOL    HW211043   7.481   7.435   7.286  0.5867 -0.2763  1.4670
 3208SOL     OW11044   5.974   6.790   2.638 -0.4179  0.2445 -0.1083
 3208SOL    HW111045   5.908   6.820   2.701 -0.2896 -1.7903  1.1025
 3208SOL    HW211046   5.950   6.699   2.621  0.8372  0.1229 -1.3256
 3209SOL     OW11047   7.203   6.478   3.192 -0.9312 -0.6375 -0.1847
 3209SOL    HW111048   7.298   6.468   3.199 -0.5383  2.3922  0.4541
 3209SOL    HW211049   7.167   6.411   3.250  1.0273  0.4304  2.4864
 3210SOL     OW11050   0.880   2.643   8.743 -0.1106 -0.4646  0.6242
 3210SOL    HW111051   0.790   2.636   8.711  0.2889 -1.7592 -0.2612
 3210SOL    HW211052   0.922   2.704   8.682 -0.3833  0.2103  1.0897
 3211SOL     OW11053   2.500   8.159   6.884 -0.3359 -1.1565  0.3584
 3211SOL    HW111054   2.484   8.179   6.977 -1.8055 -2.2416  0.3889
 3211SOL    HW211055   2.487   8.064   6.879 -0.1399 -1.1228 -0.9501
 3212SOL     OW11056   4.252   7.724   1.328  0.5408 -0.6266  0.6096
 3212SOL    HW111057   4.190   7.792   1.354  1.3905  0.5759 -0.3869
 3212SOL    HW211058   4.338   7.760   1.353  1.2902  0.0175 -2.4722
 3213SOL     OW11059   5.819   4.944   7.119  0.5341 -0.2992  0.6406
 3213SOL    HW111060   5.753   5.010   7.097  1.7672  0.8869  0.3861
 3213SOL    HW211061   5.893   4.964   7.063  1.4109 -1.1259  1.4667
 3214SOL     OW11062   4.887   0.404   0.176  0.1652  0.7429 -0.0758
 3214SOL    HW111063   4.829   0.415   0.251 -0.8570 -0.0527 -0.7088
 3214SOL    HW211064   4.851   0.462   0.109 -0.1110 -0.0151 -0.5901
 3215SOL     OW11065   3.426   2.898   3.456 -0.4094  0.2015 -0.0625
 3215SOL    HW111066   3.383   2.957   3.394 -0.2875  0.2805 -0.0721
 3215SOL    HW211067   3.358   2.835   3.481 -0.3104 -0.1804 -0.7161
 3216SOL     OW11068   7.772   0.325   4.793  0.2798 -0.1332  0.3644
 3216SOL    HW111069   7.825   0.303   4.870  0.1196 -0.0983  0.4845
 3216SOL    HW211070   7.830   0.379   4.739 -0.5134  2.3002  1.7964
 3217SOL     OW11071   7.012   6.099   7.149 -0.4934  0.2245 -0.2950
 3217SOL    HW111072   7.082   6.109   7.213  3.0723 -1.6301 -3.4490
 3217SOL    HW211073   7.034   6.162   7.080 -0.1921 -2.2567 -2.6230
 3218SOL     OW11074   6.384   1.855   2.888 -0.0766 -0.4252 -0.0548
 3218SOL    HW111075   6.393   1.949   2.902 -0.5742 -0.3116 -0.4736
 3218SOL    HW211076   6.452   1.834   2.824 -1.5213  0.1097 -1.8525
 3219SOL     OW11077   6.594   1.918   3.683 -0.1552  0.2717  0.4285
 3219SOL    HW111078   6.595   1.826   3.659 -0.5794  0.1006  1.0620
 3219SOL    HW211079   6.681   1.934   3.721  0.4591  0.5001 -0.9870
 3220SOL     OW11080   4.526   4.405   5.357 -0.4560 -0.6977  0.5735
 3220SOL    HW111081   4.475   4.327   5.337 -0.6566 -0.6723  0.9954
 3220SOL    HW211082   4.463   4.469   5.389 -0.1169 -0.7939  1.4650
 3221SOL     OW11083   1.781   8.247   6.230  0.3157  0.4163  0.3292
 3221SOL    HW111084   1.726   8.204   6.295  0.1627  1.3649  0.8462
 3221SOL    HW211085   1.852   8.286   6.281  1.7357 -1.1405 -0.3668
 3222SOL     OW11086   0.636   4.705   4.294  0.2429  0.0178 -0.0203
 3222SOL    HW111087   0.720   4.725   4.253  0.6929 -0.5975  0.5944
 3222SOL    HW211088   0.610   4.622   4.255  1.0874 -1.0148  1.5295
 3223SOL     OW11089   6.777   5.450   7.606  0.0372  0.0431  0.0328
 3223SOL    HW111090   6.870   5.453   7.626  0.0282  1.0375 -0.0144
 3223SOL    HW211091   6.771   5.478   7.515 -0.1069 -2.4662 -0.7928
 3224SOL     OW11092   2.435   0.194   4.224  0.0070 -0.3967 -0.0222
 3224SOL    HW111093   2.382   0.163   4.151 -1.3161 -1.5992  1.3885
 3224SOL    HW211094   2.459   0.284   4.200 -3.3479  0.5061 -0.4129
 3225SOL     OW11095   7.141   2.963   1.969 -0.5643 -0.0652  0.5328
 3225SOL    HW111096   7.089   2.984   2.047 -2.3765 -0.8720 -0.4036
 3225SOL    HW211097   7.085   2.904   1.918  1.2847 -0.9623 -0.5506
 3226SOL     OW11098   3.586   1.794   5.473  0.4339 -0.0258  0.0782
 3226SOL    HW111099   3.553   1.730   5.536 -0.8549 -0.3440 -0.8739
 3226SOL    HW211100   3.514   1.806   5.411  1.1543  1.3336 -0.5392
 3227SOL     OW11101   8.401   9.163   4.350 -0.0627 -0.2248 -0.3135
 3227SOL    HW111102   8.381   9.222   4.278 -1.0209  1.3495  1.1580
 3227SOL    HW211103   8.494   9.176   4.368 -0.2218  0.7312 -0.1332
 3228SOL     OW11104   0.754   2.756   8.372  0.1810 -0.1597 -0.0381
 3228SOL    HW111105   0.837   2.779   8.412 -0.4914  1.6169  0.4489
 3228SOL    HW211106   0.716   2.691   8.430  0.3462  0.5334  0.8653
 3229SOL     OW11107   6.014   3.521   6.252  0.0472 -0.4017 -0.2790
 3229SOL    HW111108   6.101   3.507   6.290 -1.1491 -0.7770  2.5552
 3229SOL    HW211109   5.984   3.434   6.226  0.7776 -0.1716 -2.0440
 3230SOL     OW11110   1.334   8.454   1.472 -0.0683  0.2225  0.5802
 3230SOL    HW111111   1.379   8.433   1.553 -2.1748  2.3888  2.4430
 3230SOL    HW211112   1.242   8.435   1.490 -0.4069 -1.0526 -2.0108
 3231SOL     OW11113   1.726   8.894   1.823 -0.1455  0.1035  0.3227
 3231SOL    HW111114   1.723   8.811   1.776 -0.6065  0.4182 -0.2245
 3231SOL    HW211115   1.635   8.923   1.827  0.0005  0.5467  0.5738
 3232SOL     OW11116   5.644   6.438   1.349  0.3967 -0.4236 -0.2686
 3232SOL    HW111117   5.684   6.524   1.366 -1.4398  0.6853 -1.2083
 3232SOL    HW211118   5.678   6.413   1.264 -0.9448  0.5802 -1.1289
 3233SOL     OW11119   3.068   6.301   2.413  0.2224  0.5467  0.4610
 3233SOL    HW111120   3.113   6.276   2.494 -0.0973  0.0901  0.5024
 3233SOL    HW211121   3.138   6.313   2.349  0.3576 -1.4735  0.1650
 3234SOL     OW11122   3.289   8.654   6.868  0.0145 -0.3677  0.0397
 3234SOL    HW111123   3.216   8.666   6.929 -0.7150  1.0246 -1.0372
 3234SOL    HW211124   3.248   8.659   6.781  1.3774  0.4184 -0.5872
 3235SOL     OW11125   7.568   3.562   2.153  0.2773  0.5095 -0.1931
 3235SOL    HW111126   7.659   3.555   2.182  0.3953  0.6840 -0.5214
 3235SOL    HW211127   7.548   3.475   2.117  0.0614  0.2204  0.5970
 3236SOL     OW11128   3.083   5.694   7.188  0.7617  0.2558  0.7007
 3236SOL    HW111129   3.045   5.709   7.275  1.7101  0.0254  1.1710
 3236SOL    HW211130   3.166   5.741   7.190 -0.2254  2.2215 -0.9243
 3237SOL     OW11131   0.581   6.279   5.981 -0.2968  0.3177  0.5327
 3237SOL    HW111132   0.522   6.355   5.992 -0.1126  0.2817  1.9128
 3237SOL    HW211133   0.538   6.209   6.029  0.5296  0.0999  0.9610
 3238SOL     OW11134   1.269   2.767   6.366 -0.3631 -0.5043  0.2197
 3238SOL    HW111135   1.205   2.737   6.302  0.7742 -0.4150 -1.0030
 3238SOL    HW211136   1.263   2.863   6.364  0.4624 -0.4614 -0.6092
 3239SOL     OW11137   7.306   1.757   7.816  0.2398  0.7355  0.7656
 3239SOL    HW111138   7.391   1.792   7.843  0.5570 -0.8204  1.9511
 3239SOL    HW211139   7.264   1.829   7.770  0.8495  2.6746  3.0315
 3240SOL     OW11140   3.900   1.689   1.379  0.1418  0.6417 -0.0747
 3240SOL    HW111141   3.844   1.741   1.321 -3.7056 -0.3232  2.3656
 3240SOL    HW211142   3.918   1.747   1.453 -2.2304 -0.5817  1.5845
 3241SOL     OW11143   6.634   5.725   2.328 -0.0158  0.0878 -0.1418
 3241SOL    HW111144   6.595   5.638   2.316 -1.5955  0.6673  0.4567
 3241SOL    HW211145   6.581   5.765   2.398 -0.2745  2.0698 -1.3867
 3242SOL     OW11146   3.771   2.929   7.251 -0.3109 -0.8854 -0.2303
 3242SOL    HW111147   3.783   2.897   7.340 -1.5847  0.4836  0.4634
 3242SOL    HW211148   3.762   3.023   7.259 -0.1235 -0.6896 -1.8621
 3243SOL     OW11149   5.423   6.184   2.697 -0.1991 -0.2677  0.5089
 3243SOL    HW111150   5.356   6.242   2.662  0.5213 -0.1348 -0.7183
 3243SOL    HW211151   5.419   6.196   2.792 -0.7270  1.0357  0.3375
 3244SOL     OW11152   6.547   9.240   0.010 -0.6990  0.0125 -0.8312
 3244SOL    HW111153   6.539   9.162  -0.045  0.2037 -0.4395 -0.3394
 3244SOL    HW211154   6.641   9.258   0.011 -0.9104  1.1532 -0.9948
 3245SOL     OW11155   0.978   1.169   8.130 -0.3278  0.1557  0.0544
 3245SOL    HW111156   0.913   1.233   8.156 -0.1005  0.5887 -0.4146
 3245SOL    HW211157   1.038   1.163   8.204 -0.2357  0.6464  0.0248
 3246SOL     OW11158   6.548   7.724   6.019 -0.2876 -0.0376 -0.1938
 3246SOL    HW111159   6.634   7.747   5.982  0.0401 -0.2018  0.4487
 3246SOL    HW211160   6.569   7.676   6.099 -0.9818  0.6681  0.4302
 3247SOL     OW11161   3.560   3.328   8.477  0.3127 -0.0544 -0.0187
 3247SOL    HW111162   3.467   3.339   8.495  0.3426  1.9340 -0.7694
 3247SOL    HW211163   3.562   3.283   8.392 -0.0662  1.7977 -1.0767
 3248SOL     OW11164   0.718   5.206   5.897  0.1047  0.0322  0.0682
 3248SOL    HW111165   0.656   5.138   5.922  2.0655 -1.6030  0.7424
 3248SOL    HW211166   0.685   5.285   5.940 -2.2861 -0.4098 -0.8296
 3249SOL     OW11167   1.494   8.680   4.841  0.0589  0.0806 -0.0116
 3249SOL    HW111168   1.543   8.600   4.863  0.2768 -0.3829 -1.9802
 3249SOL    HW211169   1.561   8.741   4.810 -0.1299  1.0130  1.3327
 3250SOL     OW11170   8.866   3.697   7.808  0.2930 -0.2502 -0.4019
 3250SOL    HW111171   8.947   3.719   7.761 -0.7038 -0.0544 -2.1220
 3250SOL    HW211172   8.895   3.644   7.882  2.0911  0.7541 -0.3154
 3251SOL     OW11173   3.955   6.564   1.170  0.9092 -0.3536 -0.2342
 3251SOL    HW111174   4.023   6.551   1.236  1.5298  3.1914  0.0560
 3251SOL    HW211175   4.002   6.588   1.091  0.0901  1.0328 -0.3400
 3252SOL     OW11176   8.671   2.964   2.351  0.1537  0.8558 -0.0320
 3252SOL    HW111177   8.701   3.024   2.419 -0.7908  1.8609 -0.4658
 3252SOL    HW211178   8.575   2.964   2.359  0.0956  0.0404 -0.5718
 3253SOL     OW11179   2.506   3.206   3.647 -0.4143 -0.0057  0.2917
 3253SOL    HW111180   2.416   3.177   3.663 -0.7176  0.6807 -0.1074
 3253SOL    HW211181   2.497   3.281   3.588  0.3863  0.4030  0.6662
 3254SOL     OW11182   0.867   4.557   5.988  0.5996 -0.0756 -0.5430
 3254SOL    HW111183   0.827   4.644   5.992  2.9192  1.0059  1.7641
 3254SOL    HW211184   0.811   4.502   6.043  0.1906  0.4516 -0.4290
 3255SOL     OW11185   0.613   6.917   5.977 -0.0722 -0.0207 -1.0682
 3255SOL    HW111186   0.529   6.946   5.942 -0.7050 -1.8346 -1.1175
 3255SOL    HW211187   0.676   6.938   5.909 -0.5799  0.6651 -1.3427
 3256SOL     OW11188   5.991   7.448   1.154  0.3427 -0.1697  0.2322
 3256SOL    HW111189   5.926   7.499   1.105  1.9800  0.3491 -1.4977
 3256SOL    HW211190   6.051   7.513   1.190 -0.4858 -0.5913  2.5298
 3257SOL     OW11191   5.346   0.570   7.332  0.1937  0.2240 -0.2264
 3257SOL    HW111192   5.397   0.495   7.361 -0.0883  0.4496  0.9054
 3257SOL    HW211193   5.379   0.589   7.244  0.9064 -0.6445 -0.1602
 3258SOL     OW11194   7.406   8.114   1.407 -0.0040  0.1745 -0.8818
 3258SOL    HW111195   7.322   8.132   1.449  1.4914  1.0886  1.9109
 3258SOL    HW211196   7.427   8.194   1.359  0.8008  1.3069  1.2504
 3259SOL     OW11197   3.993   5.460   6.716  0.0008  0.2229  0.0486
 3259SOL    HW111198   3.942   5.398   6.663 -0.8170  1.0855 -0.1952
 3259SOL    HW211199   4.070   5.478   6.663  0.3012 -0.6666  0.1716
 3260SOL     OW11200   9.278   5.773   7.436 -0.0601 -0.3599 -0.6518
 3260SOL    HW111201   9.198   5.781   7.384  0.0351  1.3969 -0.6015
 3260SOL    HW211202   9.253   5.717   7.510 -0.8972 -0.8218 -1.2661
 3261SOL     OW11203   9.028   3.803   6.725  0.0274  0.1211  0.1447
 3261SOL    HW111204   9.030   3.812   6.820  1.1214 -2.2788  0.4305
 3261SOL    HW211205   9.109   3.756   6.704 -0.1483  0.6777 -1.9975
 3262SOL     OW11206   3.236   4.894   4.730  0.3909 -0.5406 -0.7160
 3262SOL    HW111207   3.174   4.872   4.660 -0.8195 -2.0845  0.7823
 3262SOL    HW211208   3.196   4.862   4.810  1.4152  1.8022  0.8586
 3263SOL     OW11209   0.888   8.783   4.363  0.3338 -0.1585  0.4936
 3263SOL    HW111210   0.906   8.694   4.394 -0.5645  0.6291  3.7300
 3263SOL    HW211211   0.973   8.819   4.340  0.8236 -1.5108  0.1335
 3264SOL     OW11212   7.149   6.750   8.160  0.1404 -0.0720  0.1441
 3264SOL    HW111213   7.085   6.810   8.122  1.0248 -0.4248 -2.0449
 3264SOL    HW211214   7.146   6.673   8.103  0.4884 -1.2693  1.6868
 3265SOL     OW11215   8.213   2.563   8.124  0.5723 -0.0970 -0.5781
 3265SOL    HW111216   8.247   2.597   8.207  1.2608 -1.5025 -0.2413
 3265SOL    HW211217   8.291   2.554   8.068  0.6396 -2.2503 -0.2095
 3266SOL     OW11218   5.005   3.651   0.491 -0.1337 -0.0084 -0.3425
 3266SOL    HW111219   4.945   3.645   0.566 -0.9154  0.9142 -0.8648
 3266SOL    HW211220   5.088   3.681   0.529 -0.2331 -0.5084  0.2880
 3267SOL     OW11221   3.204   4.616   5.373  0.0984  0.0255  0.5186
 3267SOL    HW111222   3.279   4.574   5.415  0.2310 -0.3687 -0.0882
 3267SOL    HW211223   3.145   4.639   5.445  0.3332 -0.5948  0.9167
 3268SOL     OW11224   3.308   3.399   7.004  0.0450  0.3989  0.3049
 3268SOL    HW111225   3.220   3.363   7.015  0.5348 -1.1941 -0.6430
 3268SOL    HW211226   3.309   3.477   7.059 -1.4188 -0.4948  1.6951
 3269SOL     OW11227   0.773   3.872   0.644  0.2149  0.2117 -0.1618
 3269SOL    HW111228   0.779   3.779   0.620  2.0710 -0.1092  1.3554
 3269SOL    HW211229   0.819   3.917   0.573  0.5251 -0.1658 -0.2082
 3270SOL     OW11230   1.166   4.016   2.301 -0.6346  0.1663 -0.5919
 3270SOL    HW111231   1.138   4.091   2.248  0.2394  0.8584 -0.1171
 3270SOL    HW211232   1.102   3.948   2.282 -0.9790  0.7615 -1.6712
 3271SOL     OW11233   6.291   7.715   5.922  0.8089 -0.4972 -0.1208
 3271SOL    HW111234   6.231   7.731   5.995 -0.6275 -1.6833 -0.9918
 3271SOL    HW211235   6.375   7.696   5.964 -0.1378 -1.8720  1.2754
 3272SOL     OW11236   1.892   1.265   3.803 -0.4274 -0.0878 -0.0998
 3272SOL    HW111237   1.961   1.203   3.828 -0.2898 -0.5452 -1.5225
 3272SOL    HW211238   1.939   1.341   3.769 -0.6188  0.2420  0.3599
 3273SOL     OW11239   3.732   4.740   3.601 -0.1965 -0.0608  0.2742
 3273SOL    HW111240   3.718   4.724   3.694 -0.1986  1.1862  0.5174
 3273SOL    HW211241   3.777   4.825   3.598 -0.3442  0.0008 -0.8618
 3274SOL     OW11242   0.249   2.277   2.021 -0.1700  0.5086 -0.3594
 3274SOL    HW111243   0.257   2.364   1.982 -2.2449  0.6432 -0.5608
 3274SOL    HW211244   0.271   2.291   2.114  1.0564  0.9136 -0.6938
 3275SOL     OW11245   2.077   3.763   6.326  0.4976 -0.1845  0.4213
 3275SOL    HW111246   2.127   3.840   6.298  1.2645  0.2267  2.6362
 3275SOL    HW211247   2.006   3.799   6.379  0.4964 -0.9402  0.9584
 3276SOL     OW11248   3.823   8.205   6.373  0.2060 -0.3816 -0.2567
 3276SOL    HW111249   3.864   8.139   6.317 -0.6039  0.3195 -1.7344
 3276SOL    HW211250   3.885   8.278   6.374  1.3299 -1.2755  1.7751
 3277SOL     OW11251   1.759   2.464   0.496 -0.2941 -0.1261 -0.1544
 3277SOL    HW111252   1.686   2.477   0.435  0.3531  0.7560 -0.7550
 3277SOL    HW211253   1.718   2.466   0.583 -1.3056 -1.8871 -0.5270
 3278SOL     OW11254   8.772   7.132   2.997 -0.7244  0.4118 -0.3168
 3278SOL    HW111255   8.787   7.195   2.927  0.6526  0.9642  0.4373
 3278SOL    HW211256   8.815   7.170   3.074 -0.2562 -1.1988  0.2700
 3279SOL     OW11257   6.548   3.353   0.574  0.4552 -0.1287 -0.4599
 3279SOL    HW111258   6.583   3.435   0.608 -0.7344  0.3084 -0.2663
 3279SOL    HW211259   6.562   3.290   0.644  1.2522 -0.0788 -0.5581
 3280SOL     OW11260   4.518   5.706   8.950 -0.0432 -0.0711  0.7053
 3280SOL    HW111261   4.612   5.694   8.939 -0.0910  0.4108 -0.4048
 3280SOL    HW211262   4.483   5.617   8.950  0.1645 -0.2362 -1.6827
 3281SOL     OW11263   4.575   1.003   2.955 -0.0689  0.0156 -0.0156
 3281SOL    HW111264   4.490   1.032   2.987  0.3902  2.0769 -0.5644
 3281SOL    HW211265   4.638   1.056   3.003  0.9213 -1.1888  0.0737
 3282SOL     OW11266   3.862   6.988   8.748 -0.3601 -0.3884  0.1260
 3282SOL    HW111267   3.825   7.027   8.668  2.6772 -0.6248 -1.5735
 3282SOL    HW211268   3.836   6.896   8.744 -0.7903 -0.2567 -0.2255
 3283SOL     OW11269   0.488   7.388   3.062 -0.5198 -0.3810  0.6213
 3283SOL    HW111270   0.557   7.454   3.054  1.3313 -2.3640 -1.1297
 3283SOL    HW211271   0.509   7.341   3.142 -0.3514 -0.4378  0.5438
 3284SOL     OW11272   1.198   2.362   4.755 -0.8862 -0.2409 -0.2923
 3284SOL    HW111273   1.286   2.329   4.773  0.5022  1.9262 -2.5189
 3284SOL    HW211274   1.211   2.431   4.690 -4.4105 -1.2261 -2.3449
 3285SOL     OW11275   1.910   3.493   5.543 -0.2922  0.4152 -0.0724
 3285SOL    HW111276   1.820   3.505   5.513 -0.1038  2.2889 -0.0271
 3285SOL    HW211277   1.906   3.505   5.638 -0.1005 -0.2894  0.0311
 3286SOL     OW11278   1.670   0.759   7.374  0.2376 -0.5715  0.1256
 3286SOL    HW111279   1.748   0.802   7.339 -0.3062  0.5063  0.1983
 3286SOL    HW211280   1.631   0.824   7.432 -0.3542 -1.3481  0.6089
 3287SOL     OW11281   7.010   3.158   5.598  0.2653  0.0214 -0.0063
 3287SOL    HW111282   7.010   3.104   5.677  0.0342 -1.2585 -0.8445
 3287SOL    HW211283   6.923   3.197   5.596  1.1925  2.4017  1.8539
 3288SOL     OW11284   6.822   4.992   0.003  0.0880 -0.0471  0.2554
 3288SOL    HW111285   6.851   4.950  -0.078  0.7573  1.1305 -0.1237
 3288SOL    HW211286   6.848   5.083  -0.006 -0.2061  0.1903  1.6243
 3289SOL     OW11287   5.317   6.804   6.205 -0.3642 -0.0942 -0.0121
 3289SOL    HW111288   5.362   6.879   6.243 -0.6095  0.1860 -0.2674
 3289SOL    HW211289   5.243   6.788   6.264 -1.3525  0.9912 -0.8957
 3290SOL     OW11290   3.548   2.754   8.626  0.0590  0.0970 -0.3440
 3290SOL    HW111291   3.525   2.845   8.643 -1.6239 -0.2518 -0.5040
 3290SOL    HW211292   3.471   2.718   8.582  0.3518 -1.6088  0.4526
 3291SOL     OW11293   7.399   8.578   7.367  0.5975  0.2215 -0.3657
 3291SOL    HW111294   7.447   8.496   7.378 -1.4800 -0.9079  0.6903
 3291SOL    HW211295   7.361   8.573   7.280  1.2888  0.5443 -0.6961
 3292SOL     OW11296   7.810   0.999   2.280  0.3283 -0.5051 -0.1148
 3292SOL    HW111297   7.761   0.986   2.361  1.7177 -0.0778  0.8287
 3292SOL    HW211298   7.849   1.086   2.289  1.1544 -0.7742 -0.8785
 3293SOL     OW11299   1.238   8.723   0.702  0.1218 -0.8406 -0.2190
 3293SOL    HW111300   1.203   8.810   0.686  1.8410 -0.4736 -2.4776
 3293SOL    HW211301   1.327   8.738   0.734  0.1183 -1.7573  0.2579
 3294SOL     OW11302   6.639   6.497   5.470 -0.1842 -0.0654  0.3170
 3294SOL    HW111303   6.575   6.567   5.483  0.0550  0.6205 -1.6982
 3294SOL    HW211304   6.724   6.541   5.472  0.2289 -0.8492  2.2001
 3295SOL     OW11305   7.285   4.035   3.404  0.3189  0.6372  0.6862
 3295SOL    HW111306   7.241   4.033   3.489  0.1229 -1.9436  0.6143
 3295SOL    HW211307   7.239   4.103   3.355 -0.9540  0.7510  1.9752
 3296SOL     OW11308   8.062   7.378   6.443 -0.2518 -0.1124 -0.4128
 3296SOL    HW111309   8.148   7.338   6.429 -0.0522  0.4528 -0.8334
 3296SOL    HW211310   7.999   7.309   6.421  0.0613 -1.2713  1.9545
 3297SOL     OW11311   0.704   1.053   0.754  0.0914  0.0415  0.8789
 3297SOL    HW111312   0.618   1.027   0.721  0.8522 -1.4381 -0.0043
 3297SOL    HW211313   0.756   1.070   0.676  0.9713 -0.3071  1.3830
 3298SOL     OW11314   8.062   5.484   8.858 -0.4313  0.4924  0.6082
 3298SOL    HW111315   7.973   5.451   8.844  0.4193 -2.6361  1.8229
 3298SOL    HW211316   8.089   5.516   8.772 -2.0059 -0.4823 -0.2966
 3299SOL     OW11317   8.322   8.278   4.342 -0.0341  0.3410 -0.3007
 3299SOL    HW111318   8.368   8.294   4.260 -0.0597  0.2877 -0.3249
 3299SOL    HW211319   8.282   8.192   4.332 -0.8382  0.7394 -0.5920
 3300SOL     OW11320   4.548   4.690   0.911 -0.0106 -0.0271 -0.1338
 3300SOL    HW111321   4.593   4.670   0.993  0.2789 -1.5839 -0.6291
 3300SOL    HW211322   4.459   4.713   0.937  0.4910  1.0702  0.7100
 3301SOL     OW11323   4.633   8.963   5.740 -0.4277  0.4295 -0.1742
 3301SOL    HW111324   4.583   8.904   5.683 -0.3854  0.1914  0.0372
 3301SOL    HW211325   4.696   8.907   5.784  0.7841  0.8840 -1.2622
 3302SOL     OW11326   6.919   8.770   6.358  0.1444  0.3011 -0.1105
 3302SOL    HW111327   7.000   8.800   6.316 -0.0535 -1.2672 -1.7083
 3302SOL    HW211328   6.946   8.745   6.446  1.5611 -0.8236 -0.8237
 3303SOL     OW11329   5.207   5.860   9.056  0.0523 -0.5237 -0.3635
 3303SOL    HW111330   5.289   5.854   9.007 -0.3936 -0.5468 -1.1125
 3303SOL    HW211331   5.143   5.814   9.002 -0.5128 -0.2999  0.1026
 3304SOL     OW11332   9.020   0.491   8.256 -0.0308  0.7632  0.3506
 3304SOL    HW111333   9.094   0.552   8.252  0.0036  0.6819 -2.6849
 3304SOL    HW211334   9.058   0.406   8.237 -0.5116  0.2210  1.7131
 3305SOL     OW11335   4.017   2.184   1.390  0.0232  0.1457 -0.3514
 3305SOL    HW111336   4.069   2.188   1.469 -0.5870  2.3976  0.0012
 3305SOL    HW211337   3.949   2.119   1.409 -0.4943  1.0973  1.2545
 3306SOL     OW11338   2.750   3.495   8.778  0.4933 -0.2714 -0.1793
 3306SOL    HW111339   2.761   3.401   8.793  0.3548 -0.2913 -0.2004
 3306SOL    HW211340   2.665   3.502   8.733  1.1734 -0.2842 -1.5328
 3307SOL     OW11341   5.121   9.167   0.219 -0.5238  0.1072 -0.1657
 3307SOL    HW111342   5.091   9.093   0.272 -2.7265  0.8969 -0.1744
 3307SOL    HW211343   5.180   9.129   0.154 -0.6806 -1.4459  0.5659
 3308SOL     OW11344   8.827   5.188   3.000  0.0335 -0.2711 -0.0203
 3308SOL    HW111345   8.792   5.236   3.075  1.4793  0.0056  0.5094
 3308SOL    HW211346   8.865   5.255   2.943  1.6381 -0.6712  0.4973
 3309SOL     OW11347   2.719   5.871   7.487 -0.0965 -0.3284 -0.0484
 3309SOL    HW111348   2.731   5.950   7.540  0.8441  0.3721 -1.2596
 3309SOL    HW211349   2.774   5.885   7.410 -0.3141 -1.9498 -0.5386
 3310SOL     OW11350   5.499   0.810   4.074 -0.3291  0.2981 -0.0753
 3310SOL    HW111351   5.532   0.826   3.986  0.2075  0.6709  0.1910
 3310SOL    HW211352   5.569   0.838   4.132 -1.0402  0.9599  0.4962
 3311SOL     OW11353   8.072   7.676   3.288  0.4276 -0.0600  0.5057
 3311SOL    HW111354   8.132   7.674   3.214  1.3868 -0.3057  1.2610
 3311SOL    HW211355   8.016   7.752   3.273  1.8095  0.9781  0.4356
 3312SOL     OW11356   8.356   7.352   4.396 -0.6124 -0.0962 -0.1527
 3312SOL    HW111357   8.271   7.387   4.423 -0.8364 -1.8965  1.6986
 3312SOL    HW211358   8.420   7.405   4.444 -0.6987  0.6361 -0.8177
 3313SOL     OW11359   2.273   4.864   7.862  0.0168  0.0712  0.4552
 3313SOL    HW111360   2.336   4.935   7.874 -0.5367  0.3273  2.1370
 3313SOL    HW211361   2.252   4.836   7.951 -1.8740 -0.3297 -0.0786
 3314SOL     OW11362   6.605   7.715   0.184 -0.4860 -0.7324 -0.1478
 3314SOL    HW111363   6.698   7.720   0.165 -0.4688 -0.8570 -0.0990
 3314SOL    HW211364   6.596   7.639   0.242 -0.9584 -2.3265 -2.2144
 3315SOL     OW11365   2.049   8.929   0.325  0.0652 -0.1523 -0.3217
 3315SOL    HW111366   1.968   8.901   0.282 -1.3835  3.2845 -0.1827
 3315SOL    HW211367   2.113   8.936   0.254 -0.5459 -0.3201 -0.9005
 3316SOL     OW11368   2.505   8.348   4.070 -0.5002  0.1786 -0.4865
 3316SOL    HW111369   2.504   8.442   4.049  0.7632 -0.2202 -2.5696
 3316SOL    HW211370   2.424   8.335   4.119 -0.1503  2.5549  0.9059
 3317SOL     OW11371   3.614   1.033   9.277 -0.1901  0.5981  0.2050
 3317SOL    HW111372   3.577   1.075   9.199  0.4234  1.2925  0.2865
 3317SOL    HW211373   3.671   0.964   9.241 -1.0146 -0.0404  0.0725
 3318SOL     OW11374   0.060   5.936   2.978  0.3048 -0.3470 -0.2904
 3318SOL    HW111375   0.147   5.919   2.943 -0.0589  0.4281 -1.6373
 3318SOL    HW211376   0.070   6.013   3.034  0.1625  0.9207 -1.9573
 3319SOL     OW11377   4.145   4.430   0.046 -0.0798 -0.2594  0.2552
 3319SOL    HW111378   4.096   4.382   0.113 -1.5008  2.6216  1.4797
 3319SOL    HW211379   4.077   4.478  -0.002  1.1703 -0.1214 -1.4424
 3320SOL     OW11380   4.917   4.184   7.091 -0.0047 -0.3292 -0.1750
 3320SOL    HW111381   5.004   4.172   7.128 -0.1366 -0.8976 -0.0393
 3320SOL    HW211382   4.895   4.100   7.052 -1.3856 -0.9383  1.7391
 3321SOL     OW11383   7.380   7.856   4.875 -0.4953 -0.2996  0.2707
 3321SOL    HW111384   7.408   7.854   4.966  0.4070 -2.8482  0.0088
 3321SOL    HW211385   7.358   7.765   4.854 -1.6491  0.3774 -1.7782
 3322SOL     OW11386   9.044   0.095   2.604 -0.8765 -0.3650 -0.2900
 3322SOL    HW111387   9.055   0.020   2.545  0.7795  0.3036 -0.8714
 3322SOL    HW211388   9.062   0.060   2.691  2.4975 -0.1853 -0.7938
 3323SOL     OW11389   6.137   7.450   5.016  0.4627  0.2498  0.5639
 3323SOL    HW111390   6.143   7.544   5.034 -0.6392  0.2540  0.9515
 3323SOL    HW211391   6.135   7.444   4.921  0.8555  0.5955  0.5312
 3324SOL     OW11392   3.805   0.837   3.662 -0.7992  0.2070 -0.4013
 3324SOL    HW111393   3.797   0.868   3.572  4.3407  0.3286 -1.0863
 3324SOL    HW211394   3.771   0.748   3.659 -0.0067 -0.0845 -2.6821
 3325SOL     OW11395   4.502   5.237   1.879  0.4920  0.2867  0.1994
 3325SOL    HW111396   4.429   5.214   1.936  0.5291  0.1142  0.1787
 3325SOL    HW211397   4.521   5.328   1.899 -0.5267  0.7086 -0.6746
 3326SOL     OW11398   3.556   6.094   1.164  0.1795  0.6020 -0.2140
 3326SOL    HW111399   3.644   6.068   1.137 -0.4163 -1.7759 -0.1131
 3326SOL    HW211400   3.531   6.031   1.231 -0.9328  2.3542  1.1272
 3327SOL     OW11401   8.380   7.506   6.547 -0.5742  0.1108 -0.2020
 3327SOL    HW111402   8.373   7.552   6.630 -0.1608 -0.4417  0.1430
 3327SOL    HW211403   8.325   7.429   6.557  1.0425 -1.0164  0.3026
 3328SOL     OW11404   6.515   5.840   5.647  0.0303 -0.2036  0.1694
 3328SOL    HW111405   6.486   5.800   5.729  1.2643 -1.4467  0.0448
 3328SOL    HW211406   6.503   5.934   5.660 -1.4764 -0.4900  1.0840
 3329SOL     OW11407   7.938   3.436   6.542  0.5616  0.0380  0.3702
 3329SOL    HW111408   7.955   3.500   6.611 -1.2162  0.4905  0.4437
 3329SOL    HW211409   7.969   3.478   6.462  0.0398  0.7042  0.5159
 3330SOL     OW11410   0.438   4.027   2.669  0.0845  0.0412  0.1708
 3330SOL    HW111411   0.504   4.094   2.655  0.3647 -0.2614  0.0053
 3330SOL    HW211412   0.398   4.015   2.583 -0.4617  0.5029  0.3560
 3331SOL     OW11413   4.772   8.917   3.847 -0.4214 -0.3283 -0.2453
 3331SOL    HW111414   4.756   8.932   3.940  0.7095 -1.0955  0.0798
 3331SOL    HW211415   4.692   8.949   3.804 -1.0339 -0.1468  0.9914
 3332SOL     OW11416   2.679   0.597   5.439  0.1322 -0.2939  0.2872
 3332SOL    HW111417   2.683   0.626   5.348 -0.2176  3.7136  1.3856
 3332SOL    HW211418   2.604   0.642   5.476  0.1223 -1.9974  2.5591
 3333SOL     OW11419   1.930   7.093   5.845  0.4068  0.5001 -0.4142
 3333SOL    HW111420   1.871   7.081   5.770  0.0895  0.0886 -0.1053
 3333SOL    HW211421   1.903   7.025   5.907  1.4949  0.0304 -0.4457
 3334SOL     OW11422   6.693   7.941   4.667 -0.8546  0.5803  0.2552
 3334SOL    HW111423   6.742   8.023   4.676 -0.3370  0.5734 -1.7891
 3334SOL    HW211424   6.608   7.968   4.632 -1.0552  0.3302  0.5523
 3335SOL     OW11425   4.493   7.474   8.659 -0.6842 -0.3200 -0.1330
 3335SOL    HW111426   4.508   7.550   8.604 -0.3543  0.6709  1.2711
 3335SOL    HW211427   4.400   7.479   8.683 -0.3896  0.3344  0.9247
 3336SOL     OW11428   7.554   5.582   6.004 -0.3697  0.0432  0.0129
 3336SOL    HW111429   7.579   5.493   5.979  0.9171  0.4636 -0.2494
 3336SOL    HW211430   7.513   5.619   5.926 -0.6079 -0.2136  0.0177
 3337SOL     OW11431   0.073   3.553   5.720  0.5435 -0.3200  0.3591
 3337SOL    HW111432  -0.006   3.588   5.680 -0.2633 -0.5725  1.6711
 3337SOL    HW211433   0.120   3.511   5.648 -1.3179 -1.5993 -0.1916
 3338SOL     OW11434   1.516   6.478   6.823 -0.0193 -0.5503  0.3846
 3338SOL    HW111435   1.588   6.418   6.802  0.0272 -0.7458  1.0717
 3338SOL    HW211436   1.500   6.525   6.741 -0.4954 -1.9489 -0.3651
 3339SOL     OW11437   0.037   8.898   5.685 -0.1848 -0.2372 -0.2048
 3339SOL    HW111438  -0.021   8.953   5.738 -0.6774 -1.6521  0.7698
 3339SOL    HW211439   0.012   8.919   5.594 -1.3773  0.0787  0.1780
 3340SOL     OW11440   5.209   7.078   4.973 -0.2469 -0.0942  0.1897
 3340SOL    HW111441   5.142   7.030   4.923 -1.1622  0.3303  0.9687
 3340SOL    HW211442   5.176   7.077   5.063  0.3085  0.9751  0.4163
 3341SOL     OW11443   1.993   2.452   0.033  0.2482  0.6826 -0.6121
 3341SOL    HW111444   2.064   2.498  -0.010  0.3288 -0.5269 -1.8426
 3341SOL    HW211445   2.036   2.381   0.081  0.0534  1.2997  0.4925
 3342SOL     OW11446   2.422   2.503   0.003  0.2353 -0.3195 -0.1505
 3342SOL    HW111447   2.365   2.511   0.079  1.2735  2.0815  0.4883
 3342SOL    HW211448   2.463   2.417   0.012 -1.3446 -1.0081  0.7460
 3343SOL     OW11449   0.787   2.967   4.949 -0.0539  0.4953 -0.1222
 3343SOL    HW111450   0.725   2.895   4.934  0.0556  0.1352  1.0609
 3343SOL    HW211451   0.766   3.000   5.036  1.0238  0.7603  0.0576
 3344SOL     OW11452   5.755   2.351   3.608 -1.0734  0.6365 -0.1831
 3344SOL    HW111453   5.788   2.440   3.601 -1.9017  0.9596 -0.1210
 3344SOL    HW211454   5.800   2.303   3.538  0.4900  0.7359  0.7138
 3345SOL     OW11455   3.592   1.732   4.980  0.4351  0.8165  0.3116
 3345SOL    HW111456   3.515   1.786   4.999 -0.6383 -0.5180 -0.0350
 3345SOL    HW211457   3.628   1.711   5.066 -1.0471 -0.5318  0.6556
 3346SOL     OW11458   8.934   1.846   5.367 -1.0994  0.1191 -0.3319
 3346SOL    HW111459   8.897   1.884   5.287 -2.0133  0.0818  0.0525
 3346SOL    HW211460   8.866   1.861   5.433 -0.5115 -0.1833  0.3469
 3347SOL     OW11461   6.185   9.033   0.865  0.5648  0.3635 -0.6809
 3347SOL    HW111462   6.207   9.094   0.936  0.6817  0.0004 -0.4072
 3347SOL    HW211463   6.258   9.041   0.804  0.2206  1.0573 -1.0198
 3348SOL     OW11464   7.531   7.648   6.957  0.0889  0.3518 -0.2511
 3348SOL    HW111465   7.608   7.695   6.924  0.7609  0.2663  1.1350
 3348SOL    HW211466   7.554   7.556   6.947 -0.6700  0.2913 -1.6854
 3349SOL     OW11467   0.282   4.243   5.869 -0.3941  0.5013  0.0880
 3349SOL    HW111468   0.344   4.315   5.881  0.2535 -0.2510  1.5275
 3349SOL    HW211469   0.262   4.244   5.775  1.3509  1.1372 -0.3207
 3350SOL     OW11470   1.122   7.271   1.493  0.3862  0.0341 -0.8852
 3350SOL    HW111471   1.196   7.330   1.482 -0.1487  0.7023 -0.9802
 3350SOL    HW211472   1.120   7.252   1.587 -0.4107  1.4918 -0.5700
 3351SOL     OW11473   8.719   7.102   3.545  0.0746  0.1077 -0.1538
 3351SOL    HW111474   8.731   7.107   3.450 -2.2522 -0.0328 -0.5056
 3351SOL    HW211475   8.707   7.008   3.562  0.7474  0.1025  0.3350
 3352SOL     OW11476   9.082   1.534   2.960 -0.7521 -0.3612  0.7419
 3352SOL    HW111477   8.996   1.566   2.930 -0.2036  0.4789  0.0219
 3352SOL    HW211478   9.121   1.608   3.006  1.6626  1.1924 -3.2261
 3353SOL     OW11479   0.366   5.450   2.002 -0.1195 -0.1736  0.0984
 3353SOL    HW111480   0.413   5.393   2.063  0.9188  0.9268  0.3560
 3353SOL    HW211481   0.338   5.524   2.055 -0.4608  0.1187 -0.4788
 3354SOL     OW11482   2.631   1.087   7.442 -0.2434 -0.2888 -0.3352
 3354SOL    HW111483   2.594   1.151   7.503 -0.1237  0.2606 -0.8270
 3354SOL    HW211484   2.560   1.026   7.424  0.0894 -1.2341  1.3634
 3355SOL     OW11485   0.868   5.445   9.144  0.2435  0.4674  0.3763
 3355SOL    HW111486   0.824   5.506   9.203 -1.0516  0.7603 -0.8277
 3355SOL    HW211487   0.924   5.502   9.090  0.4779  0.3546  0.5013
 3356SOL     OW11488   2.778   7.520   7.967 -0.7358 -0.3975  0.0697
 3356SOL    HW111489   2.784   7.588   7.900 -0.2103  0.0262  0.5407
 3356SOL    HW211490   2.869   7.498   7.986 -0.8803 -0.4786  0.6873
 3357SOL     OW11491   1.453   7.697   9.083 -0.1857  0.0268 -0.1864
 3357SOL    HW111492   1.447   7.601   9.082  0.4302 -0.0152 -0.6676
 3357SOL    HW211493   1.488   7.719   8.997  1.2437  0.5691  0.5074
 3358SOL     OW11494   2.836   4.352   6.746  0.4574  0.1207  0.4902
 3358SOL    HW111495   2.796   4.419   6.801 -0.7865  0.3648 -0.6506
 3358SOL    HW211496   2.826   4.386   6.657 -2.7130 -2.7253 -0.4245
 3359SOL     OW11497   0.323   1.014   6.551 -0.1450  0.1429 -0.8301
 3359SOL    HW111498   0.306   1.082   6.486  0.4191  0.0999 -1.0251
 3359SOL    HW211499   0.360   1.061   6.625 -2.3114  0.4389  0.1485
 3360SOL     OW11500   1.565   1.190   0.036 -0.2061  0.4827 -0.1945
 3360SOL    HW111501   1.640   1.131   0.045 -1.2931 -0.8513  0.7210
 3360SOL    HW211502   1.597   1.264  -0.015  1.7821  0.0707  0.3852
 3361SOL     OW11503   6.303   1.562   8.855 -0.2529  0.3121  0.1756
 3361SOL    HW111504   6.275   1.569   8.947 -2.5171  2.0105 -0.5456
 3361SOL    HW211505   6.298   1.652   8.822 -0.4203 -0.4017 -1.8672
 3362SOL     OW11506   6.751   8.580   6.216  0.1587  0.4464 -0.2061
 3362SOL    HW111507   6.753   8.640   6.141  1.6519 -0.3783 -0.8628
 3362SOL    HW211508   6.781   8.634   6.289 -0.8853  1.1370 -0.2505
 3363SOL     OW11509   7.759   1.909   0.032 -0.2591  0.9426  0.1415
 3363SOL    HW111510   7.799   1.859   0.104 -1.1064  0.6795  0.4369
 3363SOL    HW211511   7.680   1.946   0.069 -0.1976  1.6291 -0.3893
 3364SOL     OW11512   5.417   8.973   5.884  0.5803  0.2346 -0.0223
 3364SOL    HW111513   5.440   8.883   5.860 -1.4022 -0.1154 -0.7952
 3364SOL    HW211514   5.381   9.011   5.803 -1.4929  0.6878  1.0441
 3365SOL     OW11515   5.757   4.183   0.015  0.3692 -0.1102 -0.7489
 3365SOL    HW111516   5.763   4.186  -0.080  0.9613 -0.1650 -0.7168
 3365SOL    HW211517   5.673   4.224   0.035  0.8842  1.2337 -1.2231
 3366SOL     OW11518   1.659   7.872   3.229 -0.0909  0.0798 -0.1074
 3366SOL    HW111519   1.705   7.952   3.204 -0.7332  0.3403 -0.4770
 3366SOL    HW211520   1.566   7.894   3.219 -0.2606 -1.0066 -1.1205
 3367SOL     OW11521   6.402   8.721   4.883  0.7597 -0.3756  0.1584
 3367SOL    HW111522   6.317   8.749   4.916  1.1671  0.8951  0.2100
 3367SOL    HW211523   6.427   8.648   4.939  0.4760  0.3821  1.3159
 3368SOL     OW11524   3.218   5.408   5.769  0.1339  0.1781 -0.9181
 3368SOL    HW111525   3.297   5.452   5.735  0.8656  0.5596  1.1383
 3368SOL    HW211526   3.227   5.318   5.739  1.2273  0.2796 -0.9585
 3369SOL     OW11527   0.242   5.910   7.491  0.0061  0.1314  0.0354
 3369SOL    HW111528   0.155   5.872   7.501  0.5056 -0.7785  1.2045
 3369SOL    HW211529   0.297   5.837   7.462  0.6356  0.3680  0.6053
 3370SOL     OW11530   4.113   4.349   3.824  0.3383  0.2019  0.4177
 3370SOL    HW111531   4.084   4.286   3.758 -0.1040 -0.2884  1.0662
 3370SOL    HW211532   4.153   4.295   3.892 -1.0211  0.4851  1.4998
 3371SOL     OW11533   2.456   3.237   2.031 -0.2190  0.5022 -0.4401
 3371SOL    HW111534   2.460   3.301   2.103 -0.5087  0.8701 -0.7459
 3371SOL    HW211535   2.541   3.195   2.032 -0.3253  0.2896  0.3161
 3372SOL     OW11536   0.747   8.986   4.741 -0.4765  0.1317  0.1089
 3372SOL    HW111537   0.841   8.971   4.749 -0.2120  0.8875 -1.2580
 3372SOL    HW211538   0.718   8.924   4.674 -0.9564 -0.1171  0.5420
 3373SOL     OW11539   3.740   3.719   8.183  0.2940 -0.0624 -0.1647
 3373SOL    HW111540   3.763   3.641   8.233  0.1615 -0.4997 -0.7674
 3373SOL    HW211541   3.710   3.782   8.248  1.7729  0.0116  0.4832
 3374SOL     OW11542   9.273   9.254   7.911  0.3810  0.1692  0.1837
 3374SOL    HW111543   9.212   9.255   7.985  0.6808 -1.2997  0.4863
 3374SOL    HW211544   9.244   9.179   7.858  1.0436  0.3405 -0.4388
 3375SOL     OW11545   2.230   3.878   9.089 -0.4119 -0.2802  0.5046
 3375SOL    HW111546   2.239   3.972   9.072  0.5834 -0.5399 -0.5112
 3375SOL    HW211547   2.172   3.847   9.020  0.7156 -0.7070 -0.2846
 3376SOL     OW11548   0.144   8.526   1.957  0.6168  0.0901  0.2254
 3376SOL    HW111549   0.160   8.543   2.050  1.4115  1.6631 -0.1720
 3376SOL    HW211550   0.207   8.457   1.935  0.0808 -0.6559  0.9468
 3377SOL     OW11551   2.039   0.074   8.617  0.4461 -0.1459 -0.1643
 3377SOL    HW111552   1.975   0.075   8.688 -0.5970  0.6159 -1.0742
 3377SOL    HW211553   2.113   0.022   8.651 -0.0109  0.2195  1.4587
 3378SOL     OW11554   9.255   9.036   7.228  0.0094  0.0007 -0.0008
 3378SOL    HW111555   9.219   8.967   7.283  0.9888  0.8756  1.8219
 3378SOL    HW211556   9.236   9.117   7.275  1.4225  0.7293 -0.6139
 3379SOL     OW11557   7.875   7.332   7.830 -0.0337 -0.0744 -0.2723
 3379SOL    HW111558   7.954   7.316   7.881 -0.8081 -2.9206  0.1983
 3379SOL    HW211559   7.902   7.319   7.739  0.6408  1.9039 -0.3983
 3380SOL     OW11560   0.448   3.747   2.296  0.2086  0.4172  0.3547
 3380SOL    HW111561   0.527   3.799   2.282  0.3575  0.1113  0.0362
 3380SOL    HW211562   0.399   3.794   2.363 -0.9442  2.4623 -1.7601
 3381SOL     OW11563   5.193   5.185   7.550 -0.4018 -0.7035  0.4653
 3381SOL    HW111564   5.144   5.249   7.602 -2.5150 -1.4661 -0.5179
 3381SOL    HW211565   5.224   5.235   7.475  0.1110 -0.2870  0.9407
 3382SOL     OW11566   7.686   3.987   7.116 -0.0883  0.0414  0.0995
 3382SOL    HW111567   7.729   3.903   7.101  1.1713  0.7088 -0.1888
 3382SOL    HW211568   7.660   4.017   7.029 -1.3495 -0.4282  0.2824
 3383SOL     OW11569   7.419   2.983   0.931 -0.1924  0.2989 -0.2199
 3383SOL    HW111570   7.467   2.989   0.848 -1.5160  1.7766 -0.9125
 3383SOL    HW211571   7.473   3.031   0.993  1.1792 -1.4260  0.0239
 3384SOL     OW11572   8.189   5.269   5.333 -0.3088 -0.2726 -0.4946
 3384SOL    HW111573   8.142   5.255   5.416  0.2675 -2.8555 -0.5148
 3384SOL    HW211574   8.278   5.292   5.360 -0.4074  0.0264 -0.4179
 3385SOL     OW11575   5.260   0.787   0.453  0.0131 -1.1417 -0.2297
 3385SOL    HW111576   5.258   0.779   0.548  1.4471 -1.5646 -0.2087
 3385SOL    HW211577   5.304   0.870   0.436  0.5097 -1.4560 -0.5179
 3386SOL     OW11578   7.161   4.260   5.507  0.5048 -0.0684  0.1906
 3386SOL    HW111579   7.176   4.344   5.463 -0.7130  0.4065  0.6347
 3386SOL    HW211580   7.066   4.256   5.519  0.6010 -1.2494  0.7039
 3387SOL     OW11581   3.546   4.383   6.173 -0.4465  0.0004  0.2820
 3387SOL    HW111582   3.633   4.394   6.212 -0.1080  0.0153 -0.4567
 3387SOL    HW211583   3.562   4.331   6.094 -1.2325 -0.7321  0.5936
 3388SOL     OW11584   0.967   9.025   8.840 -0.4838 -0.9184  0.4191
 3388SOL    HW111585   0.964   9.088   8.912 -0.9776 -0.4048 -0.0378
 3388SOL    HW211586   1.014   8.950   8.875  1.3576  0.2423  0.5512
 3389SOL     OW11587   8.790   7.120   5.298  0.3450  0.5957  0.2737
 3389SOL    HW111588   8.740   7.103   5.378 -0.4894  0.3481 -0.2937
 3389SOL    HW211589   8.799   7.035   5.256  0.6128  0.7522  0.0089
 3390SOL     OW11590   2.549   5.743   4.950 -0.3474 -0.4400  0.5989
 3390SOL    HW111591   2.459   5.718   4.969 -0.3935 -0.0859  0.8605
 3390SOL    HW211592   2.558   5.831   4.987 -0.0422 -0.2726  0.1320
 3391SOL     OW11593   5.120   6.758   8.642 -0.1688  0.5038  0.0143
 3391SOL    HW111594   5.174   6.749   8.563 -1.1072  1.5452 -0.7911
 3391SOL    HW211595   5.030   6.764   8.608 -0.6136  0.6989  1.1916
 3392SOL     OW11596   4.860   8.666   0.540 -0.4448  0.1669  0.5867
 3392SOL    HW111597   4.907   8.699   0.464  0.4426 -0.7428  0.7060
 3392SOL    HW211598   4.768   8.682   0.522 -0.3360 -0.9590 -1.1562
 3393SOL     OW11599   1.969   5.076   6.885  0.1875  0.2093 -0.0519
 3393SOL    HW111600   1.914   5.014   6.838  0.2264  2.2011 -3.0175
 3393SOL    HW211601   2.058   5.042   6.876  0.0206 -0.2329 -0.0192
 3394SOL     OW11602   2.929   3.404   1.405 -0.0917 -0.7481 -0.3640
 3394SOL    HW111603   2.867   3.341   1.369  1.8010 -2.1169 -1.4221
 3394SOL    HW211604   3.014   3.360   1.399  1.1062  1.3339  0.3006
 3395SOL     OW11605   2.600   9.269   2.053  0.4386  0.4649 -0.2605
 3395SOL    HW111606   2.561   9.223   2.127  0.5425  0.8729  0.0512
 3395SOL    HW211607   2.687   9.229   2.043  0.4963  0.5364 -0.0449
 3396SOL     OW11608   5.936   5.623   8.932  0.3804 -0.1918 -0.2248
 3396SOL    HW111609   5.974   5.536   8.942 -0.3360 -0.7546 -1.9029
 3396SOL    HW211610   5.852   5.608   8.887  0.5851  1.3987 -1.2525
 3397SOL     OW11611   6.494   8.665   1.044  0.1180 -0.3597 -0.1319
 3397SOL    HW111612   6.474   8.667   1.137  2.1625 -0.1557  0.3578
 3397SOL    HW211613   6.452   8.585   1.012 -0.8091 -0.3114  0.8861
 3398SOL     OW11614   1.369   4.828   8.730  0.1096 -0.5062  0.3697
 3398SOL    HW111615   1.361   4.739   8.695 -1.0312 -0.3924  0.3259
 3398SOL    HW211616   1.363   4.885   8.653 -0.0361 -0.3534  0.4942
 3399SOL     OW11617   3.526   1.140   0.515 -0.0631 -0.1214 -0.2344
 3399SOL    HW111618   3.518   1.080   0.590 -1.4693 -0.1440 -0.3907
 3399SOL    HW211619   3.616   1.172   0.521  0.4158 -1.4949  0.4228
 3400SOL     OW11620   6.552   2.280   2.419  0.6418 -0.1835 -0.1850
 3400SOL    HW111621   6.500   2.200   2.431  1.8867 -1.5778 -3.2029
 3400SOL    HW211622   6.487   2.347   2.395 -0.2506 -0.6368  0.8679
 3401SOL     OW11623   4.090   5.875   7.039  0.0867 -0.4786 -0.1593
 3401SOL    HW111624   4.182   5.873   7.013 -0.0473  1.4974 -0.9176
 3401SOL    HW211625   4.042   5.864   6.957 -0.3333  0.9990 -0.1364
 3402SOL     OW11626   7.788   1.084   4.865 -0.0699 -0.3769  0.2272
 3402SOL    HW111627   7.833   1.031   4.799 -0.0538 -1.8280  1.3472
 3402SOL    HW211628   7.725   1.136   4.816  0.7085 -0.5935 -1.0380
 3403SOL     OW11629   1.149   4.143   5.147  0.0082  0.3824  0.1835
 3403SOL    HW111630   1.177   4.191   5.070 -0.5965 -0.7144 -0.7454
 3403SOL    HW211631   1.174   4.052   5.129 -0.1044  0.1081  1.3027
 3404SOL     OW11632   9.228   0.669   5.493 -0.3926  0.1396 -0.2382
 3404SOL    HW111633   9.151   0.615   5.506 -0.6235 -0.0944 -2.2896
 3404SOL    HW211634   9.302   0.610   5.511 -0.6684  0.0017  0.4602
 3405SOL     OW11635   7.479   0.781   0.646  0.0465 -0.3809  0.5452
 3405SOL    HW111636   7.447   0.855   0.698  0.3116 -0.7498  1.2494
 3405SOL    HW211637   7.471   0.705   0.704  0.3510 -0.8058  0.0477
 3406SOL     OW11638   6.902   1.199   8.965  0.2409  0.5245  0.2419
 3406SOL    HW111639   6.869   1.282   8.929 -0.8195  0.8244  1.7905
 3406SOL    HW211640   6.829   1.138   8.954  0.8470 -0.0899 -0.4445
 3407SOL     OW11641   5.810   2.860   5.008 -0.2640  0.0866 -0.1672
 3407SOL    HW111642   5.898   2.831   4.984 -0.3649  0.0965 -0.5461
 3407SOL    HW211643   5.810   2.954   4.989  0.0044  0.3228  0.8880
 3408SOL     OW11644   6.794   6.024   2.287  0.3166 -0.3499  0.6921
 3408SOL    HW111645   6.808   5.944   2.338 -0.3485 -0.3642  0.8616
 3408SOL    HW211646   6.728   5.999   2.222  0.7989 -0.1961  0.1338
 3409SOL     OW11647   0.562   0.596   1.443 -0.4892  0.1451 -0.0685
 3409SOL    HW111648   0.545   0.531   1.375  0.0372  1.8109 -1.8443
 3409SOL    HW211649   0.656   0.594   1.456 -0.5499  0.0771  0.4037
 3410SOL     OW11650   2.196   2.615   4.348  0.4507 -0.2366  0.3953
 3410SOL    HW111651   2.199   2.709   4.332 -0.5726 -0.3894 -0.7893
 3410SOL    HW211652   2.109   2.600   4.386  0.4297 -0.7763  0.1365
 3411SOL     OW11653   8.133   1.817   8.971  0.1027 -0.3260  0.3997
 3411SOL    HW111654   8.224   1.804   8.944 -0.1081  0.0305 -0.5446
 3411SOL    HW211655   8.129   1.783   9.060  1.5810  1.2239  1.1152
 3412SOL     OW11656   1.440   8.728   7.251  0.1439 -0.1705 -0.0627
 3412SOL    HW111657   1.408   8.799   7.306 -0.4427 -0.6892  0.2846
 3412SOL    HW211658   1.363   8.672   7.238  0.6103 -0.7636 -0.2904
 3413SOL     OW11659   8.962   4.472   1.998  0.2885 -0.3290  0.5531
 3413SOL    HW111660   8.914   4.515   2.069  1.9200  1.1906  0.8139
 3413SOL    HW211661   8.902   4.473   1.924  0.6938  4.1451 -0.0190
 3414SOL     OW11662   0.802   5.691   4.076 -0.5518  0.5052  0.3801
 3414SOL    HW111663   0.810   5.723   4.166  3.3869 -2.1813  1.2542
 3414SOL    HW211664   0.750   5.611   4.083  0.5558 -0.2289  0.5198
 3415SOL     OW11665   0.051   2.389   8.461 -0.2632 -0.2365  0.1438
 3415SOL    HW111666  -0.012   2.460   8.467  0.4692  0.5634 -1.1958
 3415SOL    HW211667   0.067   2.364   8.552  2.2891  3.9219  1.1430
 3416SOL     OW11668   7.108   5.963   3.323 -0.0343 -0.0917  0.1139
 3416SOL    HW111669   7.192   5.918   3.334 -0.4276 -1.1919 -1.0856
 3416SOL    HW211670   7.097   5.969   3.228 -0.1039  2.4300  0.2217
 3417SOL     OW11671   3.340   8.200   4.889  0.2429  0.0264 -0.1967
 3417SOL    HW111672   3.420   8.238   4.853  0.5592  0.5530  1.0102
 3417SOL    HW211673   3.361   8.107   4.901  1.1734  0.4056  1.3683
 3418SOL     OW11674   1.925   7.126   5.155 -0.1753 -0.2308  0.0067
 3418SOL    HW111675   1.851   7.183   5.135 -0.9452 -0.5450  1.7754
 3418SOL    HW211676   1.928   7.123   5.251  3.0571  0.9662  0.0683
 3419SOL     OW11677   6.973   0.445   2.324  0.3398  0.1187 -0.0501
 3419SOL    HW111678   6.880   0.467   2.318  0.3529  0.3716  0.5526
 3419SOL    HW211679   7.014   0.491   2.251  0.2531  1.4960  0.7459
 3420SOL     OW11680   9.003   2.142   6.573 -0.0057 -0.4471  0.7714
 3420SOL    HW111681   8.979   2.152   6.665  1.0631 -0.0134  1.0251
 3420SOL    HW211682   8.996   2.048   6.556 -1.8075 -0.3408  0.8203
 3421SOL     OW11683   4.801   8.325   0.900 -0.5215  0.3038  0.1193
 3421SOL    HW111684   4.810   8.320   0.805 -2.0442  1.2451 -0.1059
 3421SOL    HW211685   4.775   8.237   0.927 -1.5478  0.3938 -0.5376
 3422SOL     OW11686   1.705   4.373   9.239 -0.0898 -0.0625  0.1257
 3422SOL    HW111687   1.708   4.448   9.179  0.9719 -0.1871 -0.0047
 3422SOL    HW211688   1.755   4.402   9.315  0.6291 -0.7432 -0.0703
 3423SOL     OW11689   1.188   8.347   5.709 -0.7734 -0.0303  0.2404
 3423SOL    HW111690   1.154   8.342   5.619 -0.3440 -0.9583  0.1194
 3423SOL    HW211691   1.117   8.390   5.758 -1.3769 -0.3071 -0.3631
 3424SOL     OW11692   8.684   5.561   7.665  0.6677 -0.4398  0.4867
 3424SOL    HW111693   8.749   5.629   7.648  0.4410 -0.3368  0.0092
 3424SOL    HW211694   8.654   5.580   7.754  1.0933 -0.3268  0.6095
 3425SOL     OW11695   5.582   0.408   7.443 -0.1788  0.6718  0.2681
 3425SOL    HW111696   5.621   0.470   7.505 -3.2507 -0.0448  3.2003
 3425SOL    HW211697   5.630   0.326   7.457 -0.6378  0.6038  1.4869
 3426SOL     OW11698   0.086   8.026   6.037  0.4816  0.1344  0.0097
 3426SOL    HW111699   0.153   8.053   5.975  1.0252 -0.3434  0.3776
 3426SOL    HW211700   0.027   7.970   5.987  0.7535 -0.0136 -0.1459
 3427SOL     OW11701   2.665   5.092   8.690 -0.0979 -0.1411  0.3931
 3427SOL    HW111702   2.583   5.083   8.739 -0.2220  0.0516  0.2221
 3427SOL    HW211703   2.639   5.130   8.606  0.4101  2.0446  1.1543
 3428SOL     OW11704   7.405   8.707   6.983 -0.0419 -0.0948  0.1727
 3428SOL    HW111705   7.458   8.760   7.043  0.7481  1.0716 -1.4740
 3428SOL    HW211706   7.355   8.772   6.933  1.4657 -0.7847 -2.3980
 3429SOL     OW11707   1.588   5.056   2.059  0.5362 -0.1902 -0.3057
 3429SOL    HW111708   1.614   5.146   2.077 -0.6682  0.1501 -0.1709
 3429SOL    HW211709   1.657   5.022   2.002  2.4521 -0.0864  1.8257
 3430SOL     OW11710   4.983   3.211   2.809  0.9918 -0.1001  0.6123
 3430SOL    HW111711   5.009   3.303   2.815  1.7697 -0.2855  0.2907
 3430SOL    HW211712   5.060   3.167   2.773  0.8258 -0.9735  1.2880
 3431SOL     OW11713   9.133   2.946   1.274  0.4757  0.0117 -0.7174
 3431SOL    HW111714   9.185   3.022   1.302  0.1244  0.7211 -1.8963
 3431SOL    HW211715   9.197   2.878   1.256  0.7087 -0.4943  1.7758
 3432SOL     OW11716   9.072   6.721   8.043  0.8213 -0.8462 -0.2806
 3432SOL    HW111717   9.026   6.805   8.055  1.3402 -0.6631  0.4994
 3432SOL    HW211718   9.155   6.745   8.002  2.6367 -0.4392  3.1795
 3433SOL     OW11719   2.816   1.090   8.043  0.0601  0.0435  0.0628
 3433SOL    HW111720   2.819   1.159   8.109  0.3093  0.6898 -0.6012
 3433SOL    HW211721   2.908   1.072   8.023 -0.0145  0.8095 -1.0553
 3434SOL     OW11722   7.656   7.486   8.636  0.2449 -0.0579 -0.0111
 3434SOL    HW111723   7.695   7.402   8.660  0.6846  0.0625 -0.2845
 3434SOL    HW211724   7.697   7.549   8.696  0.0713 -0.0060  0.0541
 3435SOL     OW11725   4.146   8.702   9.210  0.0634 -0.3586  0.0009
 3435SOL    HW111726   4.153   8.611   9.178  1.1065 -0.2963  0.0302
 3435SOL    HW211727   4.141   8.694   9.305  1.2704 -0.3379  0.0731
 3436SOL     OW11728   8.648   6.368   2.262 -0.0047  0.0383  0.2579
 3436SOL    HW111729   8.668   6.274   2.269  0.9852  0.1118 -1.1959
 3436SOL    HW211730   8.685   6.406   2.342 -1.2574 -0.9008  1.3450
 3437SOL     OW11731   8.241   5.480   0.491 -0.5716  0.6403 -0.2176
 3437SOL    HW111732   8.241   5.495   0.586 -1.7459  1.5375 -0.3419
 3437SOL    HW211733   8.323   5.521   0.461 -1.0278  1.9055  0.1951
 3438SOL     OW11734   8.170   2.023   4.150  0.3512  0.5055  0.2254
 3438SOL    HW111735   8.157   2.115   4.176 -1.1611  0.1365  0.8770
 3438SOL    HW211736   8.095   2.003   4.094  0.7748 -0.2912 -0.0727
 3439SOL     OW11737   6.438   5.082   7.982  0.1298 -0.0055 -0.1750
 3439SOL    HW111738   6.427   4.992   8.013  0.5679  0.0777  0.2386
 3439SOL    HW211739   6.525   5.082   7.940 -0.4223 -0.1026 -1.3719
 3440SOL     OW11740   7.692   7.381   1.467 -0.3536  0.5850 -0.1969
 3440SOL    HW111741   7.683   7.294   1.506 -1.1541  0.9941  0.5540
 3440SOL    HW211742   7.699   7.440   1.542  2.2889  0.9998 -0.6679
 3441SOL     OW11743   4.262   6.399   5.177 -0.5761  0.1061 -0.7498
 3441SOL    HW111744   4.253   6.368   5.267  0.6423 -1.7281 -1.2082
 3441SOL    HW211745   4.172   6.405   5.145 -1.0192  0.6532  0.5207
 3442SOL     OW11746   1.298   3.690   7.434  0.3602  0.7781 -0.1836
 3442SOL    HW111747   1.306   3.704   7.529 -0.2926 -1.6773  0.3007
 3442SOL    HW211748   1.341   3.766   7.395 -1.9380  3.4097  2.0046
 3443SOL     OW11749   8.118   3.690   1.960 -0.3523  0.1712 -0.0500
 3443SOL    HW111750   8.030   3.697   1.925  0.2853 -0.4957 -1.9326
 3443SOL    HW211751   8.139   3.596   1.953  0.4975  0.3176  0.3499
 3444SOL     OW11752   7.462   5.141   4.942 -0.0792 -0.0381 -0.0656
 3444SOL    HW111753   7.552   5.171   4.957 -0.8257  3.0716 -1.0409
 3444SOL    HW211754   7.464   5.099   4.856  0.1049  2.0028 -1.1111
 3445SOL     OW11755   3.451   4.926   2.112  0.3888  0.1378 -0.6763
 3445SOL    HW111756   3.411   4.924   2.025  0.7920  0.3783 -0.8671
 3445SOL    HW211757   3.436   5.015   2.144 -1.8158 -0.5754  0.4754
 3446SOL     OW11758   1.788   0.598   3.432  0.0014 -0.1028  0.1633
 3446SOL    HW111759   1.712   0.549   3.398  0.5797 -0.5324 -0.5405
 3446SOL    HW211760   1.810   0.554   3.514  1.3908 -2.0103 -1.1305
 3447SOL     OW11761   6.495   3.292   3.658  0.0470 -0.0350 -0.2797
 3447SOL    HW111762   6.512   3.336   3.742 -1.4950 -2.0428  1.1922
 3447SOL    HW211763   6.404   3.313   3.638  0.4637  0.5886 -1.6057
 3448SOL     OW11764   2.021   2.903   4.244 -0.0665  0.0360  0.2536
 3448SOL    HW111765   2.046   2.849   4.319  0.4030 -1.2192 -0.7625
 3448SOL    HW211766   2.023   2.843   4.169  1.3306  1.6327 -1.0894
 3449SOL     OW11767   4.343   1.095   3.112  0.0810  0.7783 -0.3009
 3449SOL    HW111768   4.330   1.170   3.171  0.1576  0.9522 -0.5012
 3449SOL    HW211769   4.272   1.035   3.134 -1.3557  1.9006 -1.6760
 3450SOL     OW11770   7.970   3.077   2.962  0.5645 -0.3519  0.0533
 3450SOL    HW111771   8.041   3.092   2.899 -0.0279 -1.7255 -1.0079
 3450SOL    HW211772   7.957   3.162   3.004 -0.3093  1.2308 -3.0837
 3451SOL     OW11773   6.663   4.023   4.282  0.1325 -0.0974  0.2481
 3451SOL    HW111774   6.757   4.024   4.265 -0.0716  1.2348 -1.0008
 3451SOL    HW211775   6.643   4.109   4.318 -0.6341 -0.2965  0.3268
 3452SOL     OW11776   2.510   8.788   0.880  0.1570  0.3408  0.5703
 3452SOL    HW111777   2.441   8.723   0.869 -0.4898  0.8318  1.5932
 3452SOL    HW211778   2.475   8.867   0.838  0.0412  0.6206  1.1879
 3453SOL     OW11779   4.279   0.918   7.759  0.2421 -0.0483  0.0946
 3453SOL    HW111780   4.351   0.926   7.697  0.6055  0.4946  0.5820
 3453SOL    HW211781   4.258   0.824   7.759  1.6771 -0.3987  0.7582
 3454SOL     OW11782   6.722   8.629   7.388 -0.5686 -0.3652  0.4331
 3454SOL    HW111783   6.668   8.612   7.465  0.5184  0.6713  1.4764
 3454SOL    HW211784   6.736   8.543   7.349 -0.4417 -1.0385  1.8893
 3455SOL     OW11785   6.083   9.033   1.954  0.0007  0.0442 -0.0354
 3455SOL    HW111786   6.135   8.968   1.908  0.2046 -0.7748  1.3185
 3455SOL    HW211787   6.014   8.983   1.997 -1.9123  1.0742 -1.6882
 3456SOL     OW11788   1.365   8.786   6.822  0.0560 -0.0488 -0.4727
 3456SOL    HW111789   1.328   8.795   6.734  0.6900  1.2853 -0.6334
 3456SOL    HW211790   1.444   8.734   6.810  0.0675  0.0141 -0.6752
 3457SOL     OW11791   7.316   6.914   6.777 -1.2374 -0.2608 -0.0085
 3457SOL    HW111792   7.334   6.968   6.854 -0.8694 -0.5169  0.0886
 3457SOL    HW211793   7.248   6.961   6.730 -1.1502  0.1240  0.2464
 3458SOL     OW11794   8.278   3.547   7.167  0.4808 -0.0820 -0.1024
 3458SOL    HW111795   8.358   3.551   7.220 -0.6457  1.4058  1.6137
 3458SOL    HW211796   8.309   3.537   7.077  2.5244 -1.1834  0.6613
 3459SOL     OW11797   6.421   1.223   5.711 -0.1997 -0.4653  0.1777
 3459SOL    HW111798   6.407   1.212   5.617 -0.0943 -0.0566  0.1100
 3459SOL    HW211799   6.490   1.290   5.717  1.9750 -2.6039  0.4837
 3460SOL     OW11800   8.072   8.299   3.577 -0.0702 -0.2711  0.1304
 3460SOL    HW111801   8.011   8.236   3.537 -0.8876  0.0113  0.8923
 3460SOL    HW211802   8.156   8.282   3.534 -0.3656 -1.6189  0.0397
 3461SOL     OW11803   3.223   3.983   7.925 -0.5990 -0.2476 -0.7414
 3461SOL    HW111804   3.289   3.985   7.856 -0.5853 -2.9385 -0.8949
 3461SOL    HW211805   3.269   3.948   8.001 -1.1628  0.6186  0.0153
 3462SOL     OW11806   3.354   3.971   1.857 -0.2155 -0.0939  0.8396
 3462SOL    HW111807   3.393   4.056   1.879 -0.3838  0.1286  0.2877
 3462SOL    HW211808   3.414   3.933   1.793 -2.1714  1.4251 -2.1515
 3463SOL     OW11809   2.798   4.639   5.234  0.0499 -0.4244 -0.3076
 3463SOL    HW111810   2.737   4.656   5.305 -0.6241  0.7769 -1.1243
 3463SOL    HW211811   2.743   4.615   5.160  0.7159 -1.3525 -0.5147
 3464SOL     OW11812   6.736   9.181   5.696  0.0060 -0.7208 -0.1044
 3464SOL    HW111813   6.784   9.175   5.613 -0.1959  1.5471 -0.4315
 3464SOL    HW211814   6.721   9.089   5.721  1.4617 -1.4666 -1.7401
 3465SOL     OW11815   4.720   8.631   4.682 -0.6762 -0.2633  0.4077
 3465SOL    HW111816   4.757   8.565   4.740  1.8053 -0.2903 -1.0448
 3465SOL    HW211817   4.676   8.581   4.613 -0.0779 -0.3739  0.1002
 3466SOL     OW11818   4.401   2.244   5.673 -0.5263  0.1999 -0.5732
 3466SOL    HW111819   4.485   2.279   5.643 -0.1370 -2.0840 -2.4738
 3466SOL    HW211820   4.396   2.268   5.765  2.3930  0.1584 -0.3190
 3467SOL     OW11821   5.495   0.358   2.178 -0.3358  0.4110 -0.1449
 3467SOL    HW111822   5.515   0.381   2.269 -0.1973 -0.3424  0.0214
 3467SOL    HW211823   5.411   0.313   2.182 -0.4838  0.6599 -0.4307
 3468SOL     OW11824   9.143   5.366   8.221  0.3609  0.6659 -0.4454
 3468SOL    HW111825   9.205   5.412   8.277 -0.0959  1.5848 -0.6687
 3468SOL    HW211826   9.064   5.421   8.223  0.0870  0.3229 -1.3805
 3469SOL     OW11827   6.902   4.825   7.272 -0.0025  0.6529 -0.1362
 3469SOL    HW111828   6.833   4.777   7.227  1.1136 -0.1881 -1.0306
 3469SOL    HW211829   6.881   4.917   7.258 -0.5192  0.4074 -1.0894
 3470SOL     OW11830   9.270   7.384   3.092 -0.0096  0.6083 -0.0472
 3470SOL    HW111831   9.279   7.293   3.119  0.6001  0.8719  0.6702
 3470SOL    HW211832   9.181   7.390   3.058 -0.6267  0.1115  1.3906
 3471SOL     OW11833   1.055   1.527   2.911  0.0475 -0.3156 -0.1122
 3471SOL    HW111834   1.114   1.502   2.841  1.2394  0.0091  0.7444
 3471SOL    HW211835   1.089   1.611   2.943 -2.2205  1.0660 -1.0899
 3472SOL     OW11836   2.068   4.989   3.674 -0.2892  0.1257  0.0257
 3472SOL    HW111837   2.026   5.047   3.610 -1.0055  0.2766  0.6196
 3472SOL    HW211838   2.021   5.005   3.756 -0.4756 -1.2514  0.2204
 3473SOL     OW11839   0.090   8.615   9.235 -0.6273  0.2178 -0.2870
 3473SOL    HW111840   0.025   8.676   9.201 -1.6113 -1.1265 -0.9074
 3473SOL    HW211841   0.161   8.617   9.172 -1.9936 -1.5010 -1.9943
 3474SOL     OW11842   1.035   1.485   5.734  0.5554 -0.0201  0.1064
 3474SOL    HW111843   1.120   1.491   5.691 -0.4731  1.0245 -1.9991
 3474SOL    HW211844   0.980   1.548   5.686 -1.4301 -0.7309  1.3089
 3475SOL     OW11845   7.276   0.436   5.285 -0.4923 -0.1897 -0.6933
 3475SOL    HW111846   7.340   0.470   5.348 -0.9589  0.2507 -0.4490
 3475SOL    HW211847   7.281   0.341   5.295  0.7401 -0.2106 -1.2926
 3476SOL     OW11848   9.201   8.134   0.978  0.3954  0.0294 -0.0426
 3476SOL    HW111849   9.206   8.220   0.936  0.4580  0.2604  0.4254
 3476SOL    HW211850   9.232   8.072   0.911 -3.1231 -0.1227 -1.7415
 3477SOL     OW11851   5.453   3.164   1.046 -0.4433 -0.4636 -0.2267
 3477SOL    HW111852   5.423   3.106   1.116 -1.0434  0.8940  0.7073
 3477SOL    HW211853   5.548   3.163   1.053 -0.3726 -2.1591 -0.9609
 3478SOL     OW11854   6.954   4.487   1.481 -0.4905 -0.2525  0.1190
 3478SOL    HW111855   7.002   4.466   1.561  0.3368  0.7344 -0.0914
 3478SOL    HW211856   7.018   4.471   1.411 -0.4090  1.1871 -0.1596
 3479SOL     OW11857   6.804   2.359   7.010 -0.2985 -0.6576 -0.2797
 3479SOL    HW111858   6.819   2.265   7.000  0.2134 -0.7213  0.8736
 3479SOL    HW211859   6.885   2.400   6.979  0.0686 -0.6937  0.5917
 3480SOL     OW11860   2.257   3.293   6.155 -0.6690 -0.4227  0.3133
 3480SOL    HW111861   2.353   3.300   6.146 -0.7741  0.6997 -0.1273
 3480SOL    HW211862   2.227   3.384   6.155 -1.7599 -0.7761  0.2164
 3481SOL     OW11863   3.255   4.351   3.024 -0.2134  0.6844  0.2329
 3481SOL    HW111864   3.263   4.279   3.087 -0.6210  0.1457 -0.3297
 3481SOL    HW211865   3.214   4.422   3.074  0.3798  0.6066  0.8462
 3482SOL     OW11866   2.516   1.655   7.233  0.2667 -0.4175 -0.0388
 3482SOL    HW111867   2.514   1.635   7.327 -1.3029  1.5946  0.4384
 3482SOL    HW211868   2.605   1.684   7.216  0.2477  0.4181  1.1547
 3483SOL     OW11869   6.831   6.183   4.497  0.3123 -0.3272 -0.5642
 3483SOL    HW111870   6.876   6.250   4.446  0.1889  1.2352  1.2545
 3483SOL    HW211871   6.776   6.137   4.433 -1.9728  3.3129 -1.5145
 3484SOL     OW11872   6.794   1.492   6.525 -0.2467 -0.4885 -0.3111
 3484SOL    HW111873   6.801   1.535   6.611 -2.2660 -1.6591  0.5175
 3484SOL    HW211874   6.878   1.449   6.512 -0.0596 -0.6623  1.3147
 3485SOL     OW11875   1.853   1.992   4.353  0.1585 -0.0068 -0.2316
 3485SOL    HW111876   1.918   1.943   4.403 -0.3920 -0.9292 -0.3866
 3485SOL    HW211877   1.803   2.040   4.419  1.5174  1.4085 -0.1727
 3486SOL     OW11878   3.644   8.478   1.210  0.6490  0.1522 -0.0003
 3486SOL    HW111879   3.551   8.501   1.214  0.2346 -1.1311 -1.3455
 3486SOL    HW211880   3.681   8.516   1.289 -1.8318 -2.8483  2.8963
 3487SOL     OW11881   3.495   7.387   0.149  1.0569 -0.0715 -0.0167
 3487SOL    HW111882   3.556   7.450   0.109  0.8055 -0.3790 -0.9245
 3487SOL    HW211883   3.548   7.339   0.213  1.5984  0.1230 -0.3115
 3488SOL     OW11884   2.490   2.353   6.197 -0.2497 -0.6058 -0.4027
 3488SOL    HW111885   2.529   2.386   6.278 -0.8093  0.3203 -0.5072
 3488SOL    HW211886   2.546   2.279   6.173 -0.0054 -0.8219  0.7589
 3489SOL     OW11887   2.123   3.830   7.182 -0.0904  0.2237 -0.2289
 3489SOL    HW111888   2.207   3.868   7.155 -0.5182  0.0657 -1.9250
 3489SOL    HW211889   2.138   3.798   7.271  1.7451 -0.0948 -0.6102
 3490SOL     OW11890   5.849   4.867   1.916  0.7668  0.6732 -0.1628
 3490SOL    HW111891   5.896   4.938   1.960  1.1541  0.2947  0.0460
 3490SOL    HW211892   5.906   4.790   1.928  1.3575  0.7422 -2.1274
 3491SOL     OW11893   6.614   5.404   2.655  0.2628 -0.6244 -0.4078
 3491SOL    HW111894   6.647   5.317   2.635  0.3604 -0.4816 -0.8780
 3491SOL    HW211895   6.671   5.464   2.606 -1.7081 -0.4504 -2.6883
 3492SOL     OW11896   7.894   2.239   2.545 -0.4239  0.0275 -0.1073
 3492SOL    HW111897   7.830   2.182   2.503 -0.5418 -1.9564  2.5317
 3492SOL    HW211898   7.978   2.194   2.533 -0.1660  0.4452  0.0977
 3493SOL     OW11899   3.931   6.282   1.007  0.0264 -0.1437  0.4637
 3493SOL    HW111900   3.997   6.214   1.002  2.2993  1.9638 -0.4566
 3493SOL    HW211901   3.902   6.281   1.098  2.1114 -0.4807  1.1707
 3494SOL     OW11902   5.963   0.848   0.691  0.3656  0.6777 -0.4184
 3494SOL    HW111903   6.017   0.780   0.732 -1.0843 -0.7370 -0.7482
 3494SOL    HW211904   5.894   0.866   0.756  0.0371  0.9445 -0.8332
 3495SOL     OW11905   6.627   7.597   6.406 -0.8000 -0.3934 -0.0963
 3495SOL    HW111906   6.674   7.668   6.362 -1.1679  1.3047  2.0658
 3495SOL    HW211907   6.689   7.523   6.406  1.1131  1.1182  0.8297
 3496SOL     OW11908   8.278   0.125   6.271 -0.9986 -0.2545 -0.2347
 3496SOL    HW111909   8.260   0.076   6.191 -1.9874  0.2608 -0.3385
 3496SOL    HW211910   8.266   0.217   6.246 -1.1524 -0.0784  0.4691
 3497SOL     OW11911   5.382   7.619   7.468  0.1691 -0.4741 -0.0681
 3497SOL    HW111912   5.447   7.590   7.532  0.9053  2.8379  0.8712
 3497SOL    HW211913   5.301   7.576   7.494  0.7830 -0.3257  2.2363
 3498SOL     OW11914   2.910   4.639   5.997  0.0914 -0.0460  0.4311
 3498SOL    HW111915   2.909   4.558   5.946 -0.0312 -0.8556  1.6621
 3498SOL    HW211916   2.820   4.671   5.993  0.4264  0.8272 -1.2118
 3499SOL     OW11917   9.272   2.454   2.490 -0.0300  0.4312  0.2997
 3499SOL    HW111918   9.253   2.442   2.583 -1.5017  0.0278 -0.0289
 3499SOL    HW211919   9.191   2.489   2.454  0.5919  0.7775 -0.8068
 3500SOL     OW11920   2.562   8.340   7.945  0.2243 -0.9624  0.7783
 3500SOL    HW111921   2.641   8.310   7.990 -0.3056  0.1067  2.5011
 3500SOL    HW211922   2.595   8.377   7.863  2.0191  2.3793  2.7708
 3501SOL     OW11923   6.872   1.911   0.019 -0.1899  0.0291  0.7798
 3501SOL    HW111924   6.874   1.842  -0.048  0.1040 -0.2987  1.1205
 3501SOL    HW211925   6.814   1.978  -0.017 -0.2163 -0.2479  0.2982
 3502SOL     OW11926   5.731   2.005   5.131  0.3164 -0.1596  0.0930
 3502SOL    HW111927   5.766   1.976   5.047 -1.8386  1.8113 -1.6183
 3502SOL    HW211928   5.636   2.009   5.118 -0.1217 -0.0073  2.7188
 3503SOL     OW11929   0.939   0.207   9.117 -0.1994 -0.0322 -0.1296
 3503SOL    HW111930   0.904   0.191   9.204 -1.2607  0.5404 -0.4332
 3503SOL    HW211931   0.896   0.288   9.088 -0.1341 -0.3962 -1.3071
 3504SOL     OW11932   2.187   1.877   2.057  0.1762 -0.5154  0.2765
 3504SOL    HW111933   2.170   1.788   2.024 -2.2385  0.2018 -0.6807
 3504SOL    HW211934   2.281   1.890   2.043  0.1882 -2.1171 -1.7239
 3505SOL     OW11935   1.293   4.399   7.850 -0.5294  0.6461 -0.3188
 3505SOL    HW111936   1.231   4.471   7.866 -0.2753  1.4711 -2.6336
 3505SOL    HW211937   1.353   4.434   7.783  1.8359 -0.4887  1.1008
 3506SOL     OW11938   3.449   6.369   7.041 -0.5355 -0.3634  0.4973
 3506SOL    HW111939   3.383   6.342   6.976  0.2648 -1.9858  0.3033
 3506SOL    HW211940   3.524   6.312   7.024  0.1039 -0.0741  2.1360
 3507SOL     OW11941   1.744   0.968   5.171 -0.1791  0.5105  1.1267
 3507SOL    HW111942   1.775   1.058   5.162  0.3272  0.3840  1.5671
 3507SOL    HW211943   1.777   0.923   5.094 -3.4054  1.4938 -1.0013
 3508SOL     OW11944   6.389   7.549   4.664  0.1306 -0.0146  0.1621
 3508SOL    HW111945   6.416   7.544   4.756 -0.0694 -1.2055  0.1755
 3508SOL    HW211946   6.454   7.605   4.622 -0.5492  1.7171  1.2978
 3509SOL     OW11947   8.282   6.610   6.210  0.0521 -0.1626 -0.1002
 3509SOL    HW111948   8.376   6.611   6.223 -0.0603  0.0944  0.6913
 3509SOL    HW211949   8.266   6.674   6.140  0.6879 -1.8253 -1.8522
 3510SOL     OW11950   7.042   7.162   6.344 -0.2767  0.2580 -0.3834
 3510SOL    HW111951   7.117   7.220   6.357 -0.9401  1.1587 -0.4882
 3510SOL    HW211952   7.017   7.175   6.253 -0.0326 -0.7062 -0.6010
 3511SOL     OW11953   5.844   8.726   0.503 -0.1750  0.0104  0.2117
 3511SOL    HW111954   5.931   8.694   0.480 -1.0731 -0.9786 -2.2677
 3511SOL    HW211955   5.816   8.776   0.426 -1.5813  0.8036  1.1872
 3512SOL     OW11956   4.513   6.342   5.069 -0.4258  0.4818 -0.0795
 3512SOL    HW111957   4.430   6.358   5.115 -0.3689 -1.0409  0.6050
 3512SOL    HW211958   4.579   6.381   5.126 -0.5807  0.9205 -0.1921
 3513SOL     OW11959   3.827   7.643   0.700  0.2727 -0.1109  0.1332
 3513SOL    HW111960   3.818   7.651   0.795  2.0332 -0.3464  0.3477
 3513SOL    HW211961   3.749   7.593   0.673 -1.1569  1.4646  1.1836
 3514SOL     OW11962   8.037   1.534   0.598  0.0009  0.3084  0.5846
 3514SOL    HW111963   8.023   1.570   0.685 -1.3405  0.3712  0.3581
 3514SOL    HW211964   7.976   1.461   0.591 -0.9056  1.1366 -0.7697
 3515SOL     OW11965   3.507   0.773   1.164 -0.2667  0.5928 -0.3657
 3515SOL    HW111966   3.534   0.792   1.253  1.1524  0.0989 -0.6585
 3515SOL    HW211967   3.565   0.702   1.136 -1.4130 -0.0108 -1.3150
 3516SOL     OW11968   2.928   2.785   6.475 -0.0968 -0.0595 -0.4919
 3516SOL    HW111969   2.872   2.794   6.398 -1.6209 -2.7494  0.1987
 3516SOL    HW211970   2.889   2.715   6.526  1.7187  0.6115  2.0361
 3517SOL     OW11971   3.052   5.695   5.165 -0.2303 -0.1121 -0.4682
 3517SOL    HW111972   2.993   5.645   5.221  0.7749 -0.6766  0.1109
 3517SOL    HW211973   3.129   5.712   5.219 -0.8713  2.8573 -0.3317
 3518SOL     OW11974   2.228   4.524   6.736  0.3234 -0.5272 -0.4312
 3518SOL    HW111975   2.315   4.538   6.700  0.5878  0.5212  0.5477
 3518SOL    HW211976   2.221   4.588   6.807 -0.8382 -1.3169  0.2016
 3519SOL     OW11977   7.907   5.121   3.521  0.2705  0.4118 -0.2415
 3519SOL    HW111978   7.901   5.076   3.605  2.5539 -1.1019 -0.7954
 3519SOL    HW211979   7.881   5.054   3.457 -0.4452  1.2382 -0.8359
 3520SOL     OW11980   3.168   5.040   8.006 -0.0959  0.9932 -0.7877
 3520SOL    HW111981   3.115   5.060   7.929  0.4873  0.5337 -1.3205
 3520SOL    HW211982   3.253   5.081   7.988  0.0807  0.7812 -0.4455
 3521SOL     OW11983   3.986   8.049   7.779 -0.7195  0.6034  0.1966
 3521SOL    HW111984   4.078   8.036   7.754 -0.6147  2.4271 -0.5291
 3521SOL    HW211985   3.944   7.965   7.760  0.0434  0.8545 -3.2329
 3522SOL     OW11986   3.298   1.868   1.386  0.0267 -0.2242  0.6083
 3522SOL    HW111987   3.225   1.827   1.341 -0.3584  0.0837  0.9434
 3522SOL    HW211988   3.354   1.902   1.316 -0.5748  0.2728  0.3611
 3523SOL     OW11989   5.279   3.331   0.193 -0.6831 -0.5152 -0.3577
 3523SOL    HW111990   5.353   3.377   0.154  0.0125 -1.1985  0.1099
 3523SOL    HW211991   5.298   3.331   0.287 -0.6602 -1.7225 -0.3419
 3524SOL     OW11992   1.667   2.017   4.744  0.1986  0.1546  0.2865
 3524SOL    HW111993   1.716   2.067   4.808  1.6367 -0.5097 -0.2536
 3524SOL    HW211994   1.715   1.934   4.737 -0.3918 -0.0957 -1.0509
 3525SOL     OW11995   3.255   7.695   7.324  0.7414  0.1066 -0.0506
 3525SOL    HW111996   3.201   7.660   7.395 -0.8275 -1.0853 -1.7442
 3525SOL    HW211997   3.340   7.712   7.365  0.1147 -1.1666  1.9449
 3526SOL     OW11998   8.778   0.954   1.564  0.0582 -0.4979  0.5792
 3526SOL    HW111999   8.820   0.999   1.491 -0.8869  0.3429  0.5378
 3526SOL    HW212000   8.786   1.015   1.637  0.1451 -0.9269  0.9316
 3527SOL     OW12001   5.993   1.518   2.576 -0.3228  0.1503 -0.1559
 3527SOL    HW112002   5.956   1.433   2.601  0.2530 -0.3233 -0.8913
 3527SOL    HW212003   5.960   1.534   2.488  0.7835 -0.0364 -0.6237
 3528SOL     OW12004   8.681   3.158   0.890  0.5066 -0.3560 -0.0069
 3528SOL    HW112005   8.672   3.212   0.811  1.1728 -0.4300 -0.1421
 3528SOL    HW212006   8.689   3.069   0.857 -1.0959 -0.6241  0.2366
 3529SOL     OW12007   1.133   6.090   0.445  0.3084  0.5991 -0.4220
 3529SOL    HW112008   1.215   6.139   0.454  0.8735 -0.1969 -1.1159
 3529SOL    HW212009   1.114   6.092   0.351 -0.9930  1.5943 -0.1655
 3530SOL     OW12010   3.268   3.104   6.382  0.3218  0.4627 -0.6314
 3530SOL    HW112011   3.180   3.068   6.374  0.7964 -1.2562  0.9155
 3530SOL    HW212012   3.256   3.194   6.411 -0.9574 -0.2357  1.1542
 3531SOL     OW12013   8.661   8.922   1.881  0.5823 -0.3696 -0.1466
 3531SOL    HW112014   8.602   8.997   1.877  1.2009  0.1344  0.0619
 3531SOL    HW212015   8.608   8.852   1.920  0.1233  0.0716  0.0364
 3532SOL     OW12016   2.964   7.794   2.082  0.2512  0.2213 -0.2228
 3532SOL    HW112017   2.991   7.717   2.130 -0.5027  0.3984  0.5039
 3532SOL    HW212018   3.024   7.799   2.008  0.6714 -0.7228  0.0489
 3533SOL     OW12019   1.317   6.585   5.676 -0.0292  0.2423 -0.3862
 3533SOL    HW112020   1.230   6.574   5.638  0.3819  0.0859 -1.2984
 3533SOL    HW212021   1.370   6.622   5.605  0.2654  1.8740  0.6312
 3534SOL     OW12022   8.551   4.134   0.502 -0.0872 -0.3882 -0.0951
 3534SOL    HW112023   8.613   4.204   0.483 -0.4164  0.5721  2.0695
 3534SOL    HW212024   8.491   4.172   0.566 -1.8516 -1.8510 -0.8025
 3535SOL     OW12025   1.646   3.561   5.494  0.3893  0.5937 -0.0166
 3535SOL    HW112026   1.642   3.647   5.537  0.9424  1.1990 -1.1365
 3535SOL    HW212027   1.569   3.515   5.526  0.0410  1.5402  0.5489
 3536SOL     OW12028   0.922   4.975   9.214  0.3156  0.5704 -0.6632
 3536SOL    HW112029   0.923   5.028   9.134 -1.6642  1.4487 -0.1785
 3536SOL    HW212030   0.837   4.994   9.254 -0.1415 -2.3828 -0.0096
 3537SOL     OW12031   2.665   3.215   7.939 -0.2490  0.0433 -0.3125
 3537SOL    HW112032   2.701   3.163   7.867  1.6239  0.5222  0.2306
 3537SOL    HW212033   2.671   3.157   8.015 -0.6998  0.1200 -0.2144
 3538SOL     OW12034   2.092   8.728   0.778 -0.0475 -0.2183 -0.4679
 3538SOL    HW112035   2.095   8.695   0.688  1.1166 -0.3520 -0.3959
 3538SOL    HW212036   2.083   8.649   0.832  1.4993 -0.3504 -0.3630
 3539SOL     OW12037   5.289   5.642   6.873  0.0124  0.0897 -0.3093
 3539SOL    HW112038   5.350   5.709   6.843  0.5109  0.0896  0.6802
 3539SOL    HW212039   5.344   5.566   6.890 -0.3569 -0.1222 -0.0516
 3540SOL     OW12040   8.509   1.317   3.623  0.4353 -0.2965 -0.5565
 3540SOL    HW112041   8.414   1.315   3.636  0.6435 -1.0554  1.1965
 3540SOL    HW212042   8.530   1.409   3.612 -0.4449 -0.0664 -0.3900
 3541SOL     OW12043   1.261   2.922   1.876  0.0383  0.0081  0.8534
 3541SOL    HW112044   1.269   3.006   1.923 -0.9250 -0.2661  1.5513
 3541SOL    HW212045   1.217   2.865   1.939 -0.8660 -0.5118 -0.2361
 3542SOL     OW12046   0.342   7.852   3.532  0.1613  0.2752 -0.6127
 3542SOL    HW112047   0.252   7.852   3.564 -0.2398 -0.3189 -1.6970
 3542SOL    HW212048   0.391   7.899   3.600 -0.7348 -0.4777  0.6114
 3543SOL     OW12049   8.267   5.593   8.005  0.2725  0.2776  0.0778
 3543SOL    HW112050   8.257   5.512   7.956 -1.6948 -0.1432  1.0811
 3543SOL    HW212051   8.345   5.579   8.059  0.3129 -0.7085 -0.2164
 3544SOL     OW12052   0.672   1.226   4.758 -0.0655  0.2833  0.0427
 3544SOL    HW112053   0.641   1.256   4.672  2.7559  0.3406 -1.0676
 3544SOL    HW212054   0.751   1.278   4.774  0.2214 -0.6799  2.0763
 3545SOL     OW12055   4.815   6.512   2.956 -0.1127 -0.2400  0.8025
 3545SOL    HW112056   4.753   6.532   3.026 -1.8074 -1.0859 -0.3804
 3545SOL    HW212057   4.764   6.521   2.875  1.8767  1.1144 -0.4010
 3546SOL     OW12058   6.991   0.738   6.964 -0.7384  0.1895 -0.4975
 3546SOL    HW112059   6.970   0.723   6.871 -1.5752 -0.1230 -0.2702
 3546SOL    HW212060   6.943   0.817   6.987  1.0775  1.4486 -0.8322
 3547SOL     OW12061   1.973   7.487   1.696 -0.2478  0.4559  0.2652
 3547SOL    HW112062   2.017   7.420   1.644 -0.3942  1.0765 -0.6801
 3547SOL    HW212063   2.042   7.524   1.751 -0.4475 -1.5123  1.9778
 3548SOL     OW12064   0.126   0.827   8.217 -0.6533  0.2266  0.0565
 3548SOL    HW112065   0.206   0.790   8.179 -1.1814 -0.4560 -0.4284
 3548SOL    HW212066   0.058   0.764   8.194 -1.0284 -0.1847  2.0738
 3549SOL     OW12067   6.233   7.235   6.980  0.1437 -0.1340 -0.2338
 3549SOL    HW112068   6.241   7.160   6.922  2.0462  0.4037 -0.7326
 3549SOL    HW212069   6.272   7.206   7.062 -0.2431 -0.0842 -0.0324
 3550SOL     OW12070   8.212   3.177   1.216 -0.2152  0.2927  0.2312
 3550SOL    HW112071   8.143   3.124   1.257 -1.8190  0.8377 -1.5918
 3550SOL    HW212072   8.256   3.116   1.156  0.2796  0.1861  0.6931
 3551SOL     OW12073   7.502   0.646   7.169  0.0815 -0.9744 -0.6935
 3551SOL    HW112074   7.492   0.721   7.111  2.0281 -0.6340 -0.6530
 3551SOL    HW212075   7.425   0.592   7.152 -1.8471  1.4086 -0.0838
 3552SOL     OW12076   5.223   8.394   4.743  0.2861  0.0752  0.1462
 3552SOL    HW112077   5.247   8.328   4.808 -0.4492  0.4405  0.8041
 3552SOL    HW212078   5.306   8.419   4.703  0.6298 -0.9007  0.2161
 3553SOL     OW12079   5.780   3.684   0.825  0.2147  0.3323  0.5361
 3553SOL    HW112080   5.707   3.714   0.772  1.1534 -0.9355 -1.5871
 3553SOL    HW212081   5.810   3.604   0.782  0.9132 -0.9226  3.1139
 3554SOL     OW12082   8.734   4.033   5.450  0.1922  0.4074  0.2802
 3554SOL    HW112083   8.703   4.122   5.433  0.6517  0.4244 -0.5436
 3554SOL    HW212084   8.756   4.032   5.543  1.2205  1.4914  0.0728
 3555SOL     OW12085   1.286   8.580   2.244 -0.0252  0.2838  0.6036
 3555SOL    HW112086   1.260   8.662   2.202  1.2980  0.0439 -0.7672
 3555SOL    HW212087   1.363   8.551   2.195 -0.7302 -2.0296  0.7426
 3556SOL     OW12088   3.616   2.358   8.399 -0.1651  0.6042 -0.1950
 3556SOL    HW112089   3.612   2.297   8.326 -1.7763  1.1926 -0.6451
 3556SOL    HW212090   3.709   2.378   8.409  0.2216 -0.6442 -1.0933
 3557SOL     OW12091   8.450   2.740   5.921  0.4207  0.0643 -0.2318
 3557SOL    HW112092   8.530   2.721   5.872  2.4575  1.3186  2.3522
 3557SOL    HW212093   8.409   2.812   5.873  2.6678  1.6802  0.1099
 3558SOL     OW12094   4.198   4.331   6.536  0.0892 -0.4536 -0.4390
 3558SOL    HW112095   4.169   4.240   6.544 -1.4765  0.0506 -0.1017
 3558SOL    HW212096   4.258   4.343   6.610  0.3137 -1.1917 -0.4862
 3559SOL     OW12097   3.779   1.047   2.296 -0.1728 -0.1545  0.3634
 3559SOL    HW112098   3.836   1.118   2.266 -0.2079 -0.4196 -0.3375
 3559SOL    HW212099   3.837   0.972   2.304 -0.1253 -0.0472  1.1567
 3560SOL     OW12100   6.620   8.437   3.886 -0.2370 -0.1080 -0.4701
 3560SOL    HW112101   6.704   8.430   3.841 -0.5759  0.4402 -1.1875
 3560SOL    HW212102   6.617   8.527   3.917 -0.1292 -0.4002  0.4383
 3561SOL     OW12103   8.436   3.444   0.805  0.0024  0.5145  0.1385
 3561SOL    HW112104   8.370   3.512   0.800  0.0091  0.5774  0.8084
 3561SOL    HW212105   8.387   3.362   0.806  0.0566  0.3651 -2.8797
 3562SOL     OW12106   8.752   6.837   7.873 -0.4482  0.3926  0.2410
 3562SOL    HW112107   8.781   6.858   7.962 -0.9182 -0.1657  0.5295
 3562SOL    HW212108   8.786   6.749   7.856 -1.4766 -0.0339  0.3664
 3563SOL     OW12109   2.953   8.606   0.214  0.6917  0.1245  0.5350
 3563SOL    HW112110   2.931   8.610   0.121  1.2469 -2.5962  0.2013
 3563SOL    HW212111   3.042   8.641   0.220  0.6768  0.2516  0.0265
 3564SOL     OW12112   6.301   0.459   8.319  0.6390 -0.5378 -0.7066
 3564SOL    HW112113   6.343   0.386   8.365  0.7350 -0.4569 -0.6656
 3564SOL    HW212114   6.207   0.446   8.335  0.7328  0.2729  0.6972
 3565SOL     OW12115   5.325   4.032   9.188 -0.5281 -0.0238  0.1712
 3565SOL    HW112116   5.239   4.062   9.219  0.3714  1.5639  1.2690
 3565SOL    HW212117   5.309   4.007   9.097 -1.8113  2.0290 -0.2428
 3566SOL     OW12118   0.564   5.760   9.114 -0.0814 -0.2539 -0.4299
 3566SOL    HW112119   0.543   5.677   9.073 -2.2755  0.7631 -1.5027
 3566SOL    HW212120   0.659   5.770   9.101  0.3737 -2.8055  0.3025
 3567SOL     OW12121   4.985   8.715   1.705  0.7787  0.1397  0.1737
 3567SOL    HW112122   4.972   8.641   1.646  0.4496  1.1858 -1.1255
 3567SOL    HW212123   4.896   8.743   1.728  0.8951  0.3270  0.4002
 3568SOL     OW12124   6.092   4.570   3.890  0.5307  0.5165 -0.1491
 3568SOL    HW112125   6.091   4.513   3.814  0.5631 -1.0551  0.9680
 3568SOL    HW212126   6.063   4.655   3.858  0.6145 -0.0933 -1.9037
 3569SOL     OW12127   0.478   5.531   8.956  0.1362  0.1750  0.0884
 3569SOL    HW112128   0.488   5.478   9.035  2.8871  0.3310 -0.0348
 3569SOL    HW212129   0.540   5.492   8.894  0.6123  2.1369 -0.7586
 3570SOL     OW12130   9.046   7.305   3.318 -0.6786 -0.2335  0.2589
 3570SOL    HW112131   9.138   7.286   3.305 -0.4082  0.0384  1.5575
 3570SOL    HW212132   9.001   7.222   3.302 -0.3377 -0.1100 -1.4184
 3571SOL     OW12133   0.630   2.734   3.220 -0.0811  0.4315 -0.0396
 3571SOL    HW112134   0.584   2.659   3.181  0.6758  0.2845 -0.6832
 3571SOL    HW212135   0.607   2.730   3.313  0.6867 -1.1825  0.1308
 3572SOL     OW12136   2.542   1.626   8.720  0.0792 -0.4135  0.3909
 3572SOL    HW112137   2.523   1.685   8.792  0.1815 -0.0621  0.1353
 3572SOL    HW212138   2.537   1.539   8.758 -0.7686 -0.2770  0.6134
 3573SOL     OW12139   7.969   8.309   1.858  0.0694 -0.4385  0.3860
 3573SOL    HW112140   7.991   8.286   1.948 -1.8795  0.9023  1.2582
 3573SOL    HW212141   7.912   8.238   1.828 -0.6508 -0.0508  0.8143
 3574SOL     OW12142   3.258   5.559   7.933 -0.0173  0.5218  0.8525
 3574SOL    HW112143   3.251   5.481   7.877  0.4088  0.1965  1.2360
 3574SOL    HW212144   3.187   5.550   7.996 -0.0172  0.4776  0.8469
 3575SOL     OW12145   3.218   8.728   4.529 -0.1641 -0.1205  0.0943
 3575SOL    HW112146   3.167   8.672   4.471  0.8147  0.6043 -1.5146
 3575SOL    HW212147   3.183   8.709   4.616 -2.2784 -0.5940 -0.7873
 3576SOL     OW12148   5.673   6.095   2.719 -0.2067 -0.1752 -0.5988
 3576SOL    HW112149   5.710   6.177   2.686  0.7678 -0.6338 -0.6544
 3576SOL    HW212150   5.580   6.115   2.733  0.2344  1.2634  0.4545
 3577SOL     OW12151   7.392   2.572   2.003 -0.1458 -0.0128  0.0279
 3577SOL    HW112152   7.445   2.649   1.985  1.3324 -0.6143  1.5492
 3577SOL    HW212153   7.422   2.506   1.941 -0.7202  0.3115 -0.6105
 3578SOL     OW12154   1.703   6.086   6.499  0.2393  0.3830 -0.2058
 3578SOL    HW112155   1.612   6.097   6.473 -0.2126  1.2952  1.5671
 3578SOL    HW212156   1.753   6.139   6.437 -0.6802  1.6596  0.1079
 3579SOL     OW12157   7.862   8.965   2.081  0.5246  0.1879  0.5615
 3579SOL    HW112158   7.801   8.953   2.154  0.3233 -0.5781  0.2764
 3579SOL    HW212159   7.892   9.055   2.090 -0.4691  0.5093  0.8499
 3580SOL     OW12160   8.717   8.671   3.893 -0.1940 -0.2295  0.7392
 3580SOL    HW112161   8.697   8.758   3.928 -1.3383  0.2440 -0.9601
 3580SOL    HW212162   8.645   8.616   3.923 -0.1317 -0.2929  0.7722
 3581SOL     OW12163   8.975   4.145   4.357 -0.5529 -0.1679  0.3211
 3581SOL    HW112164   8.885   4.148   4.390  0.4277  0.9372  3.2144
 3581SOL    HW212165   9.029   4.135   4.436  1.8489 -2.0038 -1.4008
 3582SOL     OW12166   2.317   1.961   8.423 -0.0878  0.3654 -0.7215
 3582SOL    HW112167   2.329   1.913   8.341  2.6597  0.0563 -0.2475
 3582SOL    HW212168   2.390   1.932   8.478 -1.0335  1.6327  1.3253
 3583SOL     OW12169   3.882   5.888   8.834 -0.3371  0.2035  0.6187
 3583SOL    HW112170   3.862   5.836   8.756 -2.0765 -1.0166  1.8036
 3583SOL    HW212171   3.975   5.870   8.850  0.1584  0.7470 -1.3063
 3584SOL     OW12172   0.653   4.518   8.957  0.1653  0.7717 -0.1597
 3584SOL    HW112173   0.662   4.492   9.048  1.6199  1.7093 -0.0076
 3584SOL    HW212174   0.572   4.571   8.954 -1.6946 -1.8730 -0.0945
 3585SOL     OW12175   3.045   5.587   6.658 -0.6374  0.0420  0.0727
 3585SOL    HW112176   3.129   5.600   6.614 -1.0182 -0.4750 -0.8456
 3585SOL    HW212177   2.985   5.646   6.613 -0.4152  1.7832  1.9200
 3586SOL     OW12178   2.732   0.817   7.664  0.1089  0.3303 -0.0516
 3586SOL    HW112179   2.811   0.804   7.716  0.1089  0.4900 -0.0099
 3586SOL    HW212180   2.685   0.888   7.709 -1.1720 -1.2391  1.2409
 3587SOL     OW12181   1.621   0.390   5.549 -0.3177 -0.2083 -0.4247
 3587SOL    HW112182   1.707   0.382   5.508 -0.2428 -1.0779 -0.1180
 3587SOL    HW212183   1.567   0.325   5.504 -0.7541  0.1731 -0.4588
 3588SOL     OW12184   6.042   2.024   5.366 -0.3509 -0.1263 -0.3171
 3588SOL    HW112185   6.073   2.025   5.276 -1.0701  1.6679 -0.5885
 3588SOL    HW212186   5.970   2.088   5.368 -0.9446 -0.7824  1.3222
 3589SOL     OW12187   6.628   4.971   7.154 -0.2850 -0.0059  0.1989
 3589SOL    HW112188   6.586   4.944   7.236 -1.3314 -0.1318 -0.3599
 3589SOL    HW212189   6.704   5.023   7.181 -0.2651 -0.5655  1.2464
 3590SOL     OW12190   0.589   6.123   1.637  0.0078 -0.2165 -0.4249
 3590SOL    HW112191   0.672   6.102   1.680  1.4721  1.1812 -2.3843
 3590SOL    HW212192   0.611   6.192   1.575 -2.9562  1.3841  0.1042
 3591SOL     OW12193   9.197   8.487   0.706  0.3728 -0.0597 -0.2302
 3591SOL    HW112194   9.269   8.545   0.678 -0.9906  2.3978  0.9992
 3591SOL    HW212195   9.232   8.399   0.695  2.7707  0.9678 -1.7761
 3592SOL     OW12196   3.167   2.304   8.741 -0.6847 -0.0879  0.9697
 3592SOL    HW112197   3.200   2.394   8.730 -0.2194 -0.4914 -1.5022
 3592SOL    HW212198   3.245   2.252   8.760 -0.0462 -0.6724 -2.5800
 3593SOL     OW12199   8.030   0.140   0.804 -0.6803 -0.0273  0.1691
 3593SOL    HW112200   7.999   0.107   0.888  0.6008 -3.5334 -0.5819
 3593SOL    HW212201   8.080   0.068   0.767 -0.0078  1.8961 -3.0118
 3594SOL     OW12202   5.314   5.524   2.338 -0.4928 -0.5099  0.3206
 3594SOL    HW112203   5.336   5.604   2.385 -1.8128 -0.2057  0.4626
 3594SOL    HW212204   5.264   5.473   2.401  1.1110 -1.9009  0.5556
 3595SOL     OW12205   2.241   9.261   5.175 -0.0201  0.2793  0.0991
 3595SOL    HW112206   2.197   9.267   5.090 -1.2678 -0.9984  0.6112
 3595SOL    HW212207   2.293   9.342   5.181 -0.6580  0.8446 -1.4487
 3596SOL     OW12208   7.716   5.325   7.722  0.3556  0.4068 -0.4663
 3596SOL    HW112209   7.625   5.300   7.736 -0.4086  2.0801 -2.0427
 3596SOL    HW212210   7.713   5.417   7.697  2.6208  0.8636  0.6656
 3597SOL     OW12211   1.465   0.576   0.462  0.2409  0.2207 -0.0177
 3597SOL    HW112212   1.483   0.604   0.552 -0.7883 -0.9872  0.6079
 3597SOL    HW212213   1.401   0.505   0.472 -0.6303  0.7082 -1.7683
 3598SOL     OW12214   8.027   1.968   1.746  0.1009 -0.0594  0.1052
 3598SOL    HW112215   7.941   1.936   1.722  0.0060  1.3623 -1.6444
 3598SOL    HW212216   8.017   1.996   1.837 -0.5127 -2.3158  0.7956
 3599SOL     OW12217   6.551   0.374   3.163  0.1720  0.2423  0.2425
 3599SOL    HW112218   6.510   0.433   3.101 -0.7315 -0.1309  0.4676
 3599SOL    HW212219   6.595   0.309   3.109 -0.9233 -0.2992 -0.0305
 3600SOL     OW12220   5.640   8.873   6.156  0.2481  0.5481 -0.1668
 3600SOL    HW112221   5.669   8.903   6.070  3.7856 -0.5608  0.4740
 3600SOL    HW212222   5.671   8.941   6.216 -0.5193  0.4048  0.3971
 3601SOL     OW12223   4.304   0.317   4.161 -0.1834 -0.3742 -0.0834
 3601SOL    HW112224   4.235   0.265   4.119 -1.0025  0.7609 -0.1685
 3601SOL    HW212225   4.263   0.401   4.179  0.7013 -0.2370  1.3772
 3602SOL     OW12226   0.335   3.094   4.627  0.4432  0.2362 -0.3774
 3602SOL    HW112227   0.362   3.003   4.636 -0.1492  0.1781  1.2203
 3602SOL    HW212228   0.417   3.143   4.626  0.7458 -0.1900  0.9296
 3603SOL     OW12229   8.024   4.190   4.057 -0.2765 -0.4205 -0.1801
 3603SOL    HW112230   8.073   4.173   4.138 -1.0015  0.0087  0.3567
 3603SOL    HW212231   8.052   4.120   3.997 -0.7638 -1.5780  0.9031
 3604SOL     OW12232   4.287   0.140   5.873 -0.2135 -0.1610  0.0323
 3604SOL    HW112233   4.214   0.111   5.818 -0.1190  0.1667 -0.2742
 3604SOL    HW212234   4.363   0.140   5.815  0.2805 -1.6381  0.6498
 3605SOL     OW12235   5.878   0.062   7.687  0.2691 -0.0252 -0.6572
 3605SOL    HW112236   5.810  -0.001   7.665 -0.8355  1.1246 -0.6271
 3605SOL    HW212237   5.906   0.038   7.775 -1.5274  0.6793  0.1435
 3606SOL     OW12238   8.851   7.199   6.070  0.1782  0.0567  0.5661
 3606SOL    HW112239   8.905   7.219   6.147  1.0597  2.7104 -0.6111
 3606SOL    HW212240   8.862   7.275   6.013 -1.5962 -1.1691 -1.5692
 3607SOL     OW12241   8.378   5.971   5.663 -0.1877  0.0216 -0.1819
 3607SOL    HW112242   8.443   5.921   5.712 -0.8588 -0.5899  0.0947
 3607SOL    HW212243   8.331   6.021   5.730  0.1021  0.5903 -0.3979
 3608SOL     OW12244   6.451   9.020   5.508  0.4748  0.4596 -0.7874
 3608SOL    HW112245   6.454   8.972   5.426 -0.9456  0.3666 -0.8057
 3608SOL    HW212246   6.470   8.955   5.575 -0.8075 -0.0158 -0.8632
 3609SOL     OW12247   3.958   2.406   5.382  0.0820  0.0321 -0.2468
 3609SOL    HW112248   3.951   2.499   5.363  0.0549  0.1366  0.2465
 3609SOL    HW212249   4.000   2.402   5.468 -2.4255 -0.2970  1.0737
 3610SOL     OW12250   0.708   3.395   5.302  0.1239 -0.4546  0.3253
 3610SOL    HW112251   0.777   3.401   5.236 -1.1176  2.0332 -0.9067
 3610SOL    HW212252   0.667   3.310   5.287  2.1333 -1.4862  0.3334
 3611SOL     OW12253   4.881   5.963   0.024 -0.5007  0.0024  0.1271
 3611SOL    HW112254   4.937   6.030   0.061  0.6117 -0.6435 -0.3258
 3611SOL    HW212255   4.939   5.888   0.009 -1.2041 -0.2665 -1.5246
 3612SOL     OW12256   5.591   0.154   6.534 -0.4062  0.0059  0.4576
 3612SOL    HW112257   5.620   0.146   6.443  0.8431 -0.1117  0.8469
 3612SOL    HW212258   5.583   0.064   6.565 -0.8542  0.0450  0.4640
 3613SOL     OW12259   5.344   3.417   5.816 -0.0935 -0.2512  0.5641
 3613SOL    HW112260   5.413   3.450   5.873  1.2804 -1.6572 -0.2145
 3613SOL    HW212261   5.379   3.429   5.727  0.0718 -2.8125  0.2068
 3614SOL     OW12262   6.369   0.667   7.831  0.4363  0.4980 -0.8007
 3614SOL    HW112263   6.434   0.617   7.781  1.5325  1.9379 -0.8665
 3614SOL    HW212264   6.355   0.614   7.909 -1.0120 -1.6021 -2.3681
 3615SOL     OW12265   3.875   6.173   8.861 -0.1902 -0.0458  0.3272
 3615SOL    HW112266   3.865   6.078   8.861  0.9439 -0.1797  1.1595
 3615SOL    HW212267   3.960   6.189   8.902 -0.2640  1.3219  0.0045
 3616SOL     OW12268   8.493   6.945   7.862 -0.8357 -0.0418 -0.6017
 3616SOL    HW112269   8.573   6.898   7.841 -0.6783 -0.6587  1.1671
 3616SOL    HW212270   8.522   7.035   7.879 -0.3034 -0.4761  1.0191
 3617SOL     OW12271   8.903   6.743   5.299 -0.2393  0.2147  0.1942
 3617SOL    HW112272   8.894   6.720   5.206 -0.0698 -0.9544  0.4606
 3617SOL    HW212273   8.962   6.818   5.299 -0.3198  0.2932 -0.6474
 3618SOL     OW12274   6.352   2.293   8.906  0.0192 -0.7798  0.0206
 3618SOL    HW112275   6.295   2.369   8.893 -0.2127 -1.2833 -2.4732
 3618SOL    HW212276   6.353   2.279   9.001 -0.9554  1.5303  0.4387
 3619SOL     OW12277   2.052   1.597   5.164  0.0817 -0.3303  0.1058
 3619SOL    HW112278   2.031   1.551   5.245  1.0139 -1.0598 -0.0534
 3619SOL    HW212279   1.989   1.564   5.100  0.5563 -1.1828  0.0679
 3620SOL     OW12280   6.083   5.270   7.471 -0.2015 -0.0980 -0.5671
 3620SOL    HW112281   6.079   5.251   7.377 -0.8498  1.6449 -0.9238
 3620SOL    HW212282   6.017   5.338   7.485 -1.1238 -1.3343  1.4339
 3621SOL     OW12283   2.585   0.906   5.339 -0.5105  0.2373  0.0620
 3621SOL    HW112284   2.554   0.939   5.255 -0.7171  1.2385  0.5187
 3621SOL    HW212285   2.678   0.891   5.326 -0.8235 -1.1108 -0.7971
 3622SOL     OW12286   6.452   8.718   2.189  0.2197 -0.7532 -0.6230
 3622SOL    HW112287   6.359   8.722   2.209  0.3258 -1.0605 -0.0494
 3622SOL    HW212288   6.458   8.745   2.097 -0.4759 -1.1301 -0.7878
 3623SOL     OW12289   4.889   6.656   6.365 -0.1525 -0.0889 -0.6257
 3623SOL    HW112290   4.947   6.702   6.304  1.1937 -0.9110 -0.0151
 3623SOL    HW212291   4.826   6.611   6.309  0.6192 -0.2471 -1.3952
 3624SOL     OW12292   1.905   3.675   6.821  0.0541  0.0560  0.3037
 3624SOL    HW112293   1.946   3.600   6.866  0.6172  0.0814 -0.1524
 3624SOL    HW212294   1.940   3.752   6.867  1.6436  0.1317 -0.9693
 3625SOL     OW12295   7.741   6.986   5.817 -0.1615 -0.2390 -0.0822
 3625SOL    HW112296   7.702   7.072   5.830 -0.9032 -0.3642 -1.3312
 3625SOL    HW212297   7.670   6.933   5.780  1.1335 -0.5186 -2.2848
 3626SOL     OW12298   5.474   4.850   6.757  0.3294 -0.3036 -0.2681
 3626SOL    HW112299   5.484   4.755   6.743  3.0735 -0.2522  0.6475
 3626SOL    HW212300   5.550   4.888   6.713  0.0674  1.3388  0.6414
 3627SOL     OW12301   8.491   8.716   1.589  0.0454  0.0594 -0.0794
 3627SOL    HW112302   8.400   8.708   1.618  0.1567 -0.2025  0.2021
 3627SOL    HW212303   8.533   8.635   1.619  0.6276  0.6423  0.7088
 3628SOL     OW12304   0.762   3.934   5.454 -0.1735 -0.6271 -0.1307
 3628SOL    HW112305   0.811   3.997   5.401 -0.0105  0.3938  1.1643
 3628SOL    HW212306   0.811   3.930   5.536 -0.6850 -1.7957  0.1294
 3629SOL     OW12307   6.585   6.944   4.460  0.2337 -0.3151  0.0164
 3629SOL    HW112308   6.597   6.856   4.423  0.9270  0.2744 -1.2278
 3629SOL    HW212309   6.491   6.951   4.474  0.0327 -0.8667 -0.9221
 3630SOL     OW12310   3.173   2.363   0.054  0.2809  0.0049  0.2684
 3630SOL    HW112311   3.202   2.441   0.006 -0.9148  1.1803  1.3962
 3630SOL    HW212312   3.221   2.291   0.012  1.5298  1.3358 -0.7110
 3631SOL     OW12313   2.126   4.060   6.523 -0.2913  0.0409  0.3152
 3631SOL    HW112314   2.174   4.108   6.455 -0.3067 -0.2598  0.0897
 3631SOL    HW212315   2.034   4.077   6.504 -0.2943  2.1879  1.8697
 3632SOL     OW12316   1.173   0.350   8.311 -0.2233  0.5961 -0.0925
 3632SOL    HW112317   1.216   0.382   8.390 -0.4654 -1.1177  0.7772
 3632SOL    HW212318   1.198   0.412   8.243  1.6680  0.9673  0.8839
 3633SOL     OW12319   2.945   6.573   1.102  0.0615 -0.3237 -0.4517
 3633SOL    HW112320   2.967   6.578   1.195  0.0754 -0.7072 -0.4323
 3633SOL    HW212321   2.918   6.482   1.089 -2.2683  0.2837 -0.2942
 3634SOL     OW12322   2.029   1.696   8.207  0.0457  0.5927  0.1079
 3634SOL    HW112323   2.056   1.712   8.297  0.9245  0.6214 -0.1601
 3634SOL    HW212324   1.934   1.711   8.208  0.1487  1.2611  0.8747
 3635SOL     OW12325   8.742   5.985   7.850 -0.3856  0.6083  0.8157
 3635SOL    HW112326   8.686   5.966   7.925  0.2287  0.7193  1.3119
 3635SOL    HW212327   8.764   6.078   7.859  0.3742  0.4209  0.9766
 3636SOL     OW12328   7.538   2.114   3.741 -0.4951  0.3530 -0.3778
 3636SOL    HW112329   7.530   2.177   3.812  0.3283 -0.1145  0.1523
 3636SOL    HW212330   7.602   2.153   3.681  1.5507 -0.7698  0.9198
 3637SOL     OW12331   2.731   6.949   0.005 -0.4461  0.0571  0.5138
 3637SOL    HW112332   2.820   6.930  -0.025 -1.0093 -0.6860 -0.7982
 3637SOL    HW212333   2.717   6.889   0.078 -0.0941 -0.2836  0.3074
 3638SOL     OW12334   0.478   6.835   7.922 -0.0421  0.4138  0.0808
 3638SOL    HW112335   0.409   6.789   7.969  0.5187  0.6967  1.2050
 3638SOL    HW212336   0.434   6.871   7.845 -0.8569 -0.5014  0.1023
 3639SOL     OW12337   5.669   6.719   5.697 -0.1379  0.0074  0.1303
 3639SOL    HW112338   5.628   6.802   5.674  0.6086  0.7936  1.4737
 3639SOL    HW212339   5.666   6.716   5.793  2.5885 -0.0100  0.3140
 3640SOL     OW12340   4.179   7.498   8.387  0.1709  0.8867  0.3478
 3640SOL    HW112341   4.103   7.473   8.440 -0.6609  1.0126 -0.7530
 3640SOL    HW212342   4.175   7.593   8.383 -2.1924  0.8197 -3.2351
 3641SOL     OW12343   7.409   3.463   8.191 -0.3041  0.5346 -0.1250
 3641SOL    HW112344   7.422   3.373   8.221  0.4724  0.5693 -0.3557
 3641SOL    HW212345   7.389   3.512   8.270 -0.6596  0.1734  0.0122
 3642SOL     OW12346   8.505   1.887   3.497 -0.2953  0.2881 -0.6971
 3642SOL    HW112347   8.437   1.861   3.560 -0.9470  1.5167 -0.8633
 3642SOL    HW212348   8.465   1.958   3.447  1.5967  2.0017  0.0982
 3643SOL     OW12349   0.043   5.335   1.088  0.0019 -0.1959 -0.0513
 3643SOL    HW112350   0.099   5.347   1.011 -2.1275  1.5844 -1.4433
 3643SOL    HW212351  -0.005   5.253   1.071 -0.3728  0.1289 -0.5878
 3644SOL     OW12352   1.542   3.803   6.615 -0.2884 -0.1125  0.0551
 3644SOL    HW112353   1.554   3.753   6.696 -0.9526  0.4812  0.5406
 3644SOL    HW212354   1.479   3.751   6.565 -1.7183  0.6586  0.9723
 3645SOL     OW12355   4.945   8.426   1.763 -0.1575 -0.0145 -0.4515
 3645SOL    HW112356   4.860   8.384   1.774  0.4852 -0.9532  1.2417
 3645SOL    HW212357   4.961   8.423   1.668 -1.6537 -0.5035 -0.7088
 3646SOL     OW12358   7.861   1.031   2.888 -0.4231  0.3196  0.1414
 3646SOL    HW112359   7.822   1.066   2.807  0.9383 -1.7935 -1.5425
 3646SOL    HW212360   7.955   1.040   2.874 -0.1002 -1.9235  0.5784
 3647SOL     OW12361   2.492   4.211   0.836  0.2451 -0.2680 -0.0323
 3647SOL    HW112362   2.534   4.168   0.910  0.1900  0.1422  0.2460
 3647SOL    HW212363   2.556   4.276   0.806  0.1723 -0.2674 -0.1909
 3648SOL     OW12364   2.171   1.199   1.811  0.0749  0.2686  0.2501
 3648SOL    HW112365   2.137   1.110   1.811 -0.4820  0.4707 -0.2609
 3648SOL    HW212366   2.095   1.253   1.834  0.2991  0.6434  0.1174
 3649SOL     OW12367   0.296   0.682   2.873 -0.1004  0.5444  0.4520
 3649SOL    HW112368   0.250   0.616   2.822  1.5256 -1.1951  1.1179
 3649SOL    HW212369   0.350   0.728   2.809 -0.5237  0.5869  0.1216
 3650SOL     OW12370   8.712   2.479   3.637  0.5732  0.1676 -0.1253
 3650SOL    HW112371   8.654   2.544   3.677  0.3045  0.4780 -0.9891
 3650SOL    HW212372   8.728   2.415   3.706 -0.9539 -0.0184  0.0870
 3651SOL     OW12373   1.992   3.613   0.077 -0.3389 -0.6395 -0.2104
 3651SOL    HW112374   2.034   3.697   0.090 -1.5510  0.3083 -1.9874
 3651SOL    HW212375   2.038   3.573   0.004 -0.7938 -0.7993 -0.4147
 3652SOL     OW12376   4.720   5.896   6.130  0.2294  0.0554  0.1810
 3652SOL    HW112377   4.657   5.917   6.199 -0.9601 -0.8698 -0.5897
 3652SOL    HW212378   4.774   5.826   6.166 -0.2559 -0.2822  0.2527
 3653SOL     OW12379   3.262   5.237   5.343 -0.0894  0.0150 -0.1829
 3653SOL    HW112380   3.246   5.289   5.265 -0.2212  0.4247  0.1135
 3653SOL    HW212381   3.300   5.156   5.310  1.9244  1.0215 -0.5602
 3654SOL     OW12382   7.068   5.072   7.064 -0.1501  0.9179 -0.0148
 3654SOL    HW112383   7.055   5.021   6.985 -0.9645 -0.1177  0.7610
 3654SOL    HW212384   7.111   5.012   7.125 -0.8775  1.2114  0.8218
 3655SOL     OW12385   0.428   0.589   5.589  0.1368 -0.3036  0.2334
 3655SOL    HW112386   0.388   0.645   5.655  0.8978 -0.8438  1.1670
 3655SOL    HW212387   0.355   0.535   5.556  0.2993 -2.4898  3.1321
 3656SOL     OW12388   6.806   1.982   0.528  0.2682 -0.1369  0.0448
 3656SOL    HW112389   6.794   1.969   0.622  0.5863 -1.8291 -0.1234
 3656SOL    HW212390   6.898   2.007   0.519  0.2463 -0.0037  0.1723
 3657SOL     OW12391   0.288   1.837   0.585 -0.7683 -0.2516  0.5741
 3657SOL    HW112392   0.294   1.866   0.676 -0.2633  1.1018  0.1468
 3657SOL    HW212393   0.379   1.829   0.557 -0.8493  2.0426 -0.5763
 3658SOL     OW12394   0.264   9.029   7.205 -0.6285  0.4179  0.0893
 3658SOL    HW112395   0.323   9.075   7.144  0.1819  0.0106  0.5402
 3658SOL    HW212396   0.177   9.062   7.185 -0.9912 -2.1485 -3.7219
 3659SOL     OW12397   2.532   3.591   0.002 -0.4256 -0.0399  0.8016
 3659SOL    HW112398   2.566   3.543  -0.074  0.5257  0.8201  0.6600
 3659SOL    HW212399   2.583   3.560   0.076 -1.4678 -1.0011  1.1471
 3660SOL     OW12400   5.588   5.728   8.000  0.5551 -0.2261  0.1932
 3660SOL    HW112401   5.592   5.801   7.939  0.2705  0.3428  0.8413
 3660SOL    HW212402   5.661   5.672   7.976  1.1584  0.5930  0.0876
 3661SOL     OW12403   0.700   8.230   7.980 -0.1387 -0.3588  0.1472
 3661SOL    HW112404   0.795   8.222   7.983 -0.1084 -0.5193 -0.9004
 3661SOL    HW212405   0.677   8.271   8.064  0.9889  1.0327 -0.1771
 3662SOL     OW12406   8.010   7.095   5.928 -0.7262  0.1823 -0.0461
 3662SOL    HW112407   7.976   7.172   5.881 -2.8473 -0.8804 -0.3893
 3662SOL    HW212408   7.932   7.042   5.946  0.5558 -1.4203  1.0758
 3663SOL     OW12409   9.126   6.611   1.299 -0.6745  1.2285  0.7974
 3663SOL    HW112410   9.140   6.563   1.381 -1.0510 -0.1749  0.0524
 3663SOL    HW212411   9.155   6.700   1.319  1.2535  0.4222  1.8334
 3664SOL     OW12412   5.375   0.590   3.459  0.5294  0.7820  0.0250
 3664SOL    HW112413   5.338   0.503   3.442 -1.5108  1.4235  0.8307
 3664SOL    HW212414   5.416   0.615   3.376  2.6616 -1.5732  0.2357
 3665SOL     OW12415   8.399   0.104   2.874 -0.3284 -0.1488  0.0623
 3665SOL    HW112416   8.327   0.048   2.843 -1.6231  0.6003  1.5626
 3665SOL    HW212417   8.475   0.076   2.823 -1.2493 -2.3019 -0.2357
 3666SOL     OW12418   2.865   6.702   5.784 -0.2371  0.3698  0.1811
 3666SOL    HW112419   2.941   6.739   5.827  0.6507  1.0164 -1.7947
 3666SOL    HW212420   2.794   6.762   5.804 -0.0702  0.1629  1.4380
 3667SOL     OW12421   7.731   3.790   0.657 -0.0804  0.0162  0.2615
 3667SOL    HW112422   7.724   3.694   0.653  1.4999 -0.1613  0.8678
 3667SOL    HW212423   7.706   3.813   0.746  0.3640  0.0619  0.3794
 3668SOL     OW12424   0.148   6.546   1.378  0.0807  0.2994  0.6613
 3668SOL    HW112425   0.225   6.534   1.321 -1.2284  0.1000 -1.1418
 3668SOL    HW212426   0.097   6.614   1.335 -1.9522 -1.2692  0.4320
 3669SOL     OW12427   2.258   3.510   3.729 -0.0893 -0.0747  0.2101
 3669SOL    HW112428   2.253   3.415   3.731 -0.4786 -0.0747 -0.4600
 3669SOL    HW212429   2.332   3.532   3.785  0.5035 -0.8143 -0.2673
 3670SOL     OW12430   3.821   8.097   0.399  0.2532  0.7288 -0.2358
 3670SOL    HW112431   3.772   8.042   0.461 -3.3656  0.2832 -3.1061
 3670SOL    HW212432   3.838   8.178   0.446 -0.4590 -0.3301  1.9643
 3671SOL     OW12433   2.397   3.828   7.071  0.0827 -0.0902 -0.0643
 3671SOL    HW112434   2.400   3.919   7.101  0.3918 -0.5602  1.4386
 3671SOL    HW212435   2.368   3.834   6.980 -0.3195  1.4773  0.1285
 3672SOL     OW12436   7.324   1.252   8.053  0.5225  0.8357 -0.2562
 3672SOL    HW112437   7.339   1.343   8.028  3.2081  0.3678 -0.6162
 3672SOL    HW212438   7.336   1.250   8.148  1.9898  0.6546 -0.4177
 3673SOL     OW12439   1.212   4.284   4.901 -0.3375  0.3040  0.1238
 3673SOL    HW112440   1.125   4.321   4.887 -1.4635 -1.5705  1.6552
 3673SOL    HW212441   1.269   4.360   4.908 -2.2804  1.7174  1.7400
 3674SOL     OW12442   3.819   2.058   4.036  0.6820  0.1816  0.5584
 3674SOL    HW112443   3.779   1.971   4.045 -0.3821  0.3717 -1.7427
 3674SOL    HW212444   3.774   2.112   4.100 -0.9837 -0.2402 -0.1969
 3675SOL     OW12445   1.007   8.224   7.776  0.3087 -0.0986 -0.1796
 3675SOL    HW112446   1.093   8.182   7.777  1.8294  2.7607 -1.4796
 3675SOL    HW212447   0.973   8.207   7.688  0.6645  0.8431 -0.5057
 3676SOL     OW12448   4.479   6.091   4.552 -0.2308  0.6839 -0.2798
 3676SOL    HW112449   4.495   6.014   4.606 -1.0760  0.9049  0.3036
 3676SOL    HW212450   4.511   6.164   4.605 -1.6095  0.9616  0.2061
 3677SOL     OW12451   1.635   6.737   8.703  0.6083 -1.2121  0.0580
 3677SOL    HW112452   1.579   6.795   8.652 -1.4053 -1.1306  2.2039
 3677SOL    HW212453   1.701   6.706   8.641 -0.3572  0.5950 -1.9875
 3678SOL     OW12454   6.177   8.689   0.197 -0.3707  0.4431 -0.4182
 3678SOL    HW112455   6.129   8.767   0.225 -0.0182  0.6140 -0.2780
 3678SOL    HW212456   6.164   8.627   0.268 -1.0297  0.2091 -0.7368
 3679SOL     OW12457   0.842   5.270   5.240  0.4226 -0.4825 -0.3941
 3679SOL    HW112458   0.936   5.255   5.253  0.0169 -1.3442  2.2547
 3679SOL    HW212459   0.825   5.354   5.284 -0.3023 -1.1776  0.6894
 3680SOL     OW12460   6.431   1.714   6.217  0.0332 -0.2742 -0.7541
 3680SOL    HW112461   6.460   1.633   6.174  0.6140 -0.6479  0.2893
 3680SOL    HW212462   6.437   1.694   6.311 -2.0680  0.1861 -0.4679
 3681SOL     OW12463   7.219   0.298   6.157 -0.0393 -0.3068 -0.1108
 3681SOL    HW112464   7.131   0.329   6.180 -0.1750 -0.6982 -0.1019
 3681SOL    HW212465   7.248   0.249   6.233  0.8207  1.1123  0.5252
 3682SOL     OW12466   8.279   2.881   3.530 -0.2307  0.0973  0.2292
 3682SOL    HW112467   8.336   2.927   3.468  1.6585  0.3212  2.0503
 3682SOL    HW212468   8.339   2.835   3.589 -1.7981  1.7006  3.3101
 3683SOL     OW12469   3.109   7.834   4.488  0.1553  0.3086  0.0125
 3683SOL    HW112470   3.081   7.744   4.475 -0.3748  0.2642  1.2933
 3683SOL    HW212471   3.146   7.860   4.404 -1.4393 -0.4657 -0.9873
 3684SOL     OW12472   3.341   1.972   5.016 -0.2044  0.0715 -0.0087
 3684SOL    HW112473   3.319   2.056   5.056 -1.0505 -0.0878 -0.1235
 3684SOL    HW212474   3.257   1.935   4.989  0.0955 -1.1044  0.6037
 3685SOL     OW12475   4.879   6.603   8.274 -0.0604 -0.2264 -0.3472
 3685SOL    HW112476   4.855   6.546   8.347  2.0814  0.5240  1.0321
 3685SOL    HW212477   4.974   6.597   8.269 -0.0956  0.3253 -2.6315
 3686SOL     OW12478   8.274   6.800   7.932 -0.3723  0.2395  0.5116
 3686SOL    HW112479   8.366   6.821   7.916 -0.7283  2.9518  1.5458
 3686SOL    HW212480   8.228   6.830   7.854 -0.3791 -1.8122 -0.3423
 3687SOL     OW12481   6.355   6.826   8.959  0.4004 -0.5560 -0.1612
 3687SOL    HW112482   6.334   6.782   8.877  0.8582 -1.2453  0.0816
 3687SOL    HW212483   6.408   6.762   9.007  0.7439  0.1148  0.3623
 3688SOL     OW12484   9.153   5.192   4.685  0.1006  0.3360 -0.2700
 3688SOL    HW112485   9.153   5.203   4.590  0.1159 -0.3306 -0.3511
 3688SOL    HW212486   9.108   5.110   4.700 -0.6119  0.8247  0.3574
 3689SOL     OW12487   3.539   6.038   2.970 -0.1680  0.0492  0.3825
 3689SOL    HW112488   3.575   5.951   2.951  0.1138  0.3152 -0.3281
 3689SOL    HW212489   3.581   6.064   3.052  2.3532  0.9191 -1.0801
 3690SOL     OW12490   0.428   9.205   7.048  0.1783 -0.6081  0.3628
 3690SOL    HW112491   0.469   9.282   7.086 -2.8091  0.2401  2.2464
 3690SOL    HW212492   0.383   9.238   6.970 -0.2125 -0.6809  0.5580
 3691SOL     OW12493   3.591   6.435   6.315  0.3862 -0.2776  0.1046
 3691SOL    HW112494   3.591   6.447   6.410 -1.0302 -1.4098  0.2753
 3691SOL    HW212495   3.639   6.353   6.301 -0.1657 -0.5693 -0.0865
 3692SOL     OW12496   6.483   2.507   2.237 -0.2113 -0.2231 -0.1679
 3692SOL    HW112497   6.560   2.471   2.193 -0.4894 -2.1846  0.8584
 3692SOL    HW212498   6.485   2.600   2.216  1.2314 -0.5938 -1.9494
 3693SOL     OW12499   2.820   3.292   4.139 -0.0217  0.1094 -0.0745
 3693SOL    HW112500   2.859   3.301   4.226  1.2592 -2.2275 -0.3113
 3693SOL    HW212501   2.727   3.275   4.156  0.0432  0.5272  0.7739
 3694SOL     OW12502   3.453   8.959   0.005  0.3804  0.0145 -0.2734
 3694SOL    HW112503   3.439   8.877  -0.043 -2.4318  0.7672 -0.9226
 3694SOL    HW212504   3.459   8.932   0.097  1.0653 -1.0244 -0.5991
 3695SOL     OW12505   1.771   6.426   1.899  0.4165 -0.3694 -0.4269
 3695SOL    HW112506   1.834   6.443   1.829  0.3490  1.4074 -0.1171
 3695SOL    HW212507   1.775   6.332   1.913  2.6156 -0.3837 -0.7916
 3696SOL     OW12508   3.277   3.146   4.376  0.6712  0.3265 -0.0953
 3696SOL    HW112509   3.198   3.117   4.422 -0.8743 -0.2261 -2.8234
 3696SOL    HW212510   3.269   3.241   4.372  0.6483  0.3500  0.4741
 3697SOL     OW12511   7.865   8.640   2.294 -0.1591 -0.3846  0.1078
 3697SOL    HW112512   7.933   8.658   2.228 -2.1773 -0.2867 -2.0630
 3697SOL    HW212513   7.783   8.641   2.245 -2.0931  2.1770  3.0470
 3698SOL     OW12514   8.026   1.975   6.306  0.2800 -0.1908  0.1432
 3698SOL    HW112515   8.047   2.062   6.270  1.5693 -0.9691 -1.0544
 3698SOL    HW212516   8.060   1.978   6.396  2.3434 -0.1733 -0.5927
 3699SOL     OW12517   4.362   8.249   8.088 -0.0661  0.6109  0.0424
 3699SOL    HW112518   4.277   8.211   8.066  1.0982 -1.5368 -1.1250
 3699SOL    HW212519   4.386   8.299   8.010 -0.4352  1.6278  0.5611
 3700SOL     OW12520   6.966   7.865   4.913 -0.7904 -0.2645 -0.3863
 3700SOL    HW112521   7.056   7.855   4.881 -0.8123  0.9886 -0.9093
 3700SOL    HW212522   6.959   7.959   4.934 -0.8617 -0.9023  3.0708
 3701SOL     OW12523   1.640   3.280   2.629  0.2186 -0.2994 -0.0998
 3701SOL    HW112524   1.682   3.357   2.593  0.3153 -1.5388 -2.9199
 3701SOL    HW212525   1.707   3.211   2.625 -0.2892 -0.8958  0.9987
 3702SOL     OW12526   3.806   8.935   4.959 -0.1379 -0.7397  0.1381
 3702SOL    HW112527   3.797   8.909   5.050 -1.3557  1.2901  0.6694
 3702SOL    HW212528   3.750   9.012   4.950 -1.0467 -1.5827 -2.6443
 3703SOL     OW12529   0.617   4.354   3.865  0.3578  0.4304  0.2797
 3703SOL    HW112530   0.663   4.437   3.879 -0.5186  0.9457  0.1623
 3703SOL    HW212531   0.525   4.373   3.886 -0.0656 -0.1870 -0.9042
 3704SOL     OW12532   0.767   2.440   6.847  0.2625 -0.3429 -0.1283
 3704SOL    HW112533   0.733   2.355   6.819 -0.3933  0.0912 -0.6771
 3704SOL    HW212534   0.861   2.436   6.826  0.9907 -2.1633  2.8851
 3705SOL     OW12535   2.792   6.481   2.790 -0.1517 -0.5134  0.1927
 3705SOL    HW112536   2.738   6.436   2.854  0.8550 -2.1099 -0.0262
 3705SOL    HW212537   2.881   6.455   2.811  0.3316  0.2315 -0.8473
 3706SOL     OW12538   7.407   8.316   0.145 -0.0038  0.6691 -0.4585
 3706SOL    HW112539   7.475   8.320   0.079 -0.1491  1.8584 -0.5493
 3706SOL    HW212540   7.349   8.389   0.125 -1.7459 -0.7537 -0.8472
 3707SOL     OW12541   0.891   1.015   4.649  0.2031 -0.0931  0.5635
 3707SOL    HW112542   0.879   1.068   4.571  0.7600 -1.5255 -0.5474
 3707SOL    HW212543   0.986   1.007   4.659  0.1342 -1.3311  0.3633
 3708SOL     OW12544   7.870   2.050   7.357  0.0901  0.4970 -0.1286
 3708SOL    HW112545   7.811   1.975   7.367  0.8859 -0.0864  0.4067
 3708SOL    HW212546   7.814   2.122   7.329 -0.8995 -0.0007  0.5072
 3709SOL     OW12547   3.232   1.544   2.717 -0.2810  0.5424 -1.3128
 3709SOL    HW112548   3.264   1.496   2.641 -0.1526  2.9407 -2.8646
 3709SOL    HW212549   3.235   1.636   2.691  1.5854  1.6869  2.2556
 3710SOL     OW12550   6.312   6.136   0.267 -0.3525  0.1793 -0.1652
 3710SOL    HW112551   6.229   6.182   0.278 -0.4714 -0.0868  0.0689
 3710SOL    HW212552   6.324   6.088   0.350 -0.4985 -0.6382 -0.6097
 3711SOL     OW12553   4.508   4.299   8.740  0.3112 -0.1331 -0.0837
 3711SOL    HW112554   4.524   4.382   8.694 -0.5195  0.0600 -0.0437
 3711SOL    HW212555   4.478   4.240   8.672  1.6969 -0.6627 -0.2624
 3712SOL     OW12556   9.220   0.731   6.993 -0.4232  0.4306  0.5779
 3712SOL    HW112557   9.127   0.739   6.972 -0.2882  0.4045 -0.0475
 3712SOL    HW212558   9.222   0.691   7.080 -0.9905 -0.1429  0.3329
 3713SOL     OW12559   0.820   3.752   5.276  0.8469  0.1304  0.2948
 3713SOL    HW112560   0.771   3.818   5.326 -0.3485  1.2153 -2.1129
 3713SOL    HW212561   0.768   3.672   5.285 -1.3421  1.1833 -1.9339
 3714SOL     OW12562   1.399   0.809   8.444  0.4547  0.1070 -0.0682
 3714SOL    HW112563   1.468   0.875   8.438  0.5203  0.0828  0.4466
 3714SOL    HW212564   1.429   0.747   8.510  0.7308 -0.8530 -1.0704
 3715SOL     OW12565   3.898   6.193   1.268  0.2117 -0.2429  0.3048
 3715SOL    HW112566   3.889   6.221   1.359  2.2843 -1.4387  0.9507
 3715SOL    HW212567   3.878   6.100   1.268  3.9453 -1.1973  0.4033
 3716SOL     OW12568   8.684   8.770   7.560  0.0100  0.4472  0.4913
 3716SOL    HW112569   8.651   8.855   7.531  1.8111  1.1960  0.5055
 3716SOL    HW212570   8.631   8.706   7.512  0.2367  1.6122 -1.4078
 3717SOL     OW12571   3.591   0.308   4.981 -0.1921 -0.6405 -0.0924
 3717SOL    HW112572   3.670   0.361   4.974 -1.3369  1.0979 -0.5795
 3717SOL    HW212573   3.609   0.230   4.927  0.7775  0.2556 -1.1067
 3718SOL     OW12574   2.481   8.429   5.385  0.6706 -0.1020 -0.0285
 3718SOL    HW112575   2.513   8.517   5.363  1.7059 -0.2753  0.6976
 3718SOL    HW212576   2.509   8.375   5.311  0.0009  0.1765 -0.4939
 3719SOL     OW12577   9.174   6.348   3.358  0.0073 -0.6725  0.0250
 3719SOL    HW112578   9.140   6.424   3.309  1.3454 -0.3584 -0.4599
 3719SOL    HW212579   9.132   6.273   3.317 -0.1216 -0.2936 -0.5521
 3720SOL     OW12580   8.727   4.298   4.757 -0.1469 -0.3110  0.0328
 3720SOL    HW112581   8.723   4.282   4.663 -1.7571  0.4576 -0.0664
 3720SOL    HW212582   8.635   4.310   4.783  0.2752 -0.4186  1.6850
 3721SOL     OW12583   1.141   5.593   6.768 -0.0136 -0.6227  0.4684
 3721SOL    HW112584   1.230   5.574   6.797  0.0969  0.4863  0.8838
 3721SOL    HW212585   1.086   5.565   6.842  0.0874 -0.1299  0.7346
 3722SOL     OW12586   7.468   1.092   7.332  0.1695 -0.2878 -0.0762
 3722SOL    HW112587   7.553   1.051   7.346  0.5636  0.7649  0.7288
 3722SOL    HW212588   7.417   1.027   7.283  0.9268 -1.5241  0.7464
 3723SOL     OW12589   6.880   2.318   1.803 -0.4095 -0.2527 -0.4409
 3723SOL    HW112590   6.862   2.411   1.814 -0.0477 -0.1119 -0.9941
 3723SOL    HW212591   6.848   2.298   1.715  1.7030 -0.0962 -1.2961
 3724SOL     OW12592   8.043   6.876   6.286 -0.1307  0.3920 -0.3780
 3724SOL    HW112593   8.004   6.798   6.246 -0.1552 -0.1743  0.7129
 3724SOL    HW212594   8.106   6.908   6.221  1.4469 -1.7726 -0.0007
 3725SOL     OW12595   5.086   8.940   0.358  0.6525 -0.2008  0.0855
 3725SOL    HW112596   5.164   8.913   0.407  1.1147 -0.4558 -0.7795
 3725SOL    HW212597   5.053   8.859   0.319  0.4495  0.0465 -0.2561
 3726SOL     OW12598   8.408   6.474   2.598  0.0043 -0.0939  0.0185
 3726SOL    HW112599   8.367   6.424   2.668 -1.0083  0.0951 -0.4190
 3726SOL    HW212600   8.495   6.494   2.630 -0.1495 -0.7378  0.8679
 3727SOL     OW12601   3.040   3.231   8.716 -0.2303  0.1057  0.4801
 3727SOL    HW112602   2.955   3.213   8.755 -0.3725  1.5578  0.8961
 3727SOL    HW212603   3.020   3.270   8.631  0.0658 -1.4649 -0.3484
 3728SOL     OW12604   0.525   7.197   4.100 -0.2891  0.0155 -0.1176
 3728SOL    HW112605   0.562   7.145   4.171 -1.5582  0.5935  1.0234
 3728SOL    HW212606   0.598   7.248   4.066  0.3530 -0.2930  0.7745
 3729SOL     OW12607   1.171   5.284   3.992  0.0291 -0.5967  0.0330
 3729SOL    HW112608   1.138   5.214   3.936 -0.5495  0.4003 -0.9058
 3729SOL    HW212609   1.265   5.290   3.970 -0.1461 -0.3591 -0.6919
 3730SOL     OW12610   0.971   3.308   7.221  0.4846 -0.5422 -0.1380
 3730SOL    HW112611   0.928   3.274   7.299 -0.0454  0.9929  0.2865
 3730SOL    HW212612   1.042   3.246   7.203  0.0870 -1.3753  1.0582
 3731SOL     OW12613   4.738   3.077   0.025 -0.0675 -0.3346  0.4435
 3731SOL    HW112614   4.744   3.015  -0.047  2.1048 -1.0130  1.1376
 3731SOL    HW212615   4.815   3.133   0.015  0.1977 -0.3446  2.1265
 3732SOL     OW12616   8.037   3.890   1.106 -0.0442 -0.5186 -0.5911
 3732SOL    HW112617   8.077   3.807   1.133  3.9505  1.3863  0.1806
 3732SOL    HW212618   8.086   3.916   1.028  0.1946  1.9177  0.2698
 3733SOL     OW12619   8.932   3.688   8.269  0.0759  0.1473 -0.2412
 3733SOL    HW112620   9.025   3.701   8.285 -0.4515  0.7678  2.9870
 3733SOL    HW212621   8.897   3.776   8.258 -0.6267  0.3599  2.6778
 3734SOL     OW12622   7.426   8.130   1.896 -0.0443  0.0108 -0.5982
 3734SOL    HW112623   7.398   8.208   1.848  0.4192  0.2785 -0.4373
 3734SOL    HW212624   7.495   8.092   1.842 -0.2209 -0.2557 -0.6422
 3735SOL     OW12625   2.148   7.708   7.551 -0.1520  0.5931  0.1011
 3735SOL    HW112626   2.099   7.699   7.633  0.6652 -1.5121  0.4131
 3735SOL    HW212627   2.098   7.657   7.487  1.1531 -0.9355  0.2387
 3736SOL     OW12628   0.642   7.905   0.964 -0.3461  0.3298 -0.3587
 3736SOL    HW112629   0.608   7.870   0.881 -0.7435  1.2175 -0.5774
 3736SOL    HW212630   0.594   7.986   0.977 -0.4007  0.1198  0.8354
 3737SOL     OW12631   0.157   0.015   0.828  0.2417  0.8537 -0.2369
 3737SOL    HW112632   0.150   0.029   0.922 -1.1792  1.5826 -0.4336
 3737SOL    HW212633   0.243  -0.027   0.816  0.1367  0.1138  1.4362
 3738SOL     OW12634   4.402   3.313   5.450 -0.2665  0.9302  0.3512
 3738SOL    HW112635   4.383   3.228   5.490  1.2459  0.5680  0.3608
 3738SOL    HW212636   4.487   3.338   5.486 -1.1186  2.9414  1.1013
 3739SOL     OW12637   5.106   6.842   8.904  0.0252  0.0131 -0.3392
 3739SOL    HW112638   5.035   6.787   8.936  1.4905 -1.7025  0.1550
 3739SOL    HW212639   5.123   6.811   8.815 -0.5972  1.2123 -0.8914
 3740SOL     OW12640   5.494   6.909   5.525 -0.1762 -0.2551 -0.2431
 3740SOL    HW112641   5.433   6.838   5.502  0.1690 -0.4630 -0.5346
 3740SOL    HW212642   5.439   6.987   5.531 -0.6747 -0.6812  0.8173
 3741SOL     OW12643   8.788   2.452   4.452  1.1580 -0.1562 -0.2723
 3741SOL    HW112644   8.764   2.360   4.466  1.2031 -0.1654 -0.2560
 3741SOL    HW212645   8.722   2.501   4.501 -0.1590 -0.1019 -2.0228
 3742SOL     OW12646   0.400   1.077   4.170  0.5725  0.0900  0.1137
 3742SOL    HW112647   0.335   1.006   4.164 -0.2079  0.6275  1.6066
 3742SOL    HW212648   0.365   1.146   4.114  0.3690 -0.0066  0.1196
 3743SOL     OW12649   8.400   1.278   2.331  0.6692 -0.5163  0.7754
 3743SOL    HW112650   8.395   1.341   2.403  0.6212 -0.8714  1.0863
 3743SOL    HW212651   8.463   1.213   2.361  0.5116 -0.7622  0.5695
 3744SOL     OW12652   3.016   4.095   4.696  0.0202 -0.1946 -0.1472
 3744SOL    HW112653   3.035   4.002   4.681 -1.5785 -1.0213  2.2661
 3744SOL    HW212654   3.087   4.125   4.753 -0.8998 -0.7604  1.3554
 3745SOL     OW12655   2.733   6.593   6.533  0.7537  0.0540 -0.2742
 3745SOL    HW112656   2.707   6.502   6.523 -0.0606  0.3154 -0.6232
 3745SOL    HW212657   2.655   6.643   6.511  0.0839  0.7773  3.1110
 3746SOL     OW12658   1.955   0.144   7.795  0.1601  0.3674 -0.1949
 3746SOL    HW112659   1.976   0.143   7.888  0.7991  0.3825 -0.3296
 3746SOL    HW212660   2.009   0.216   7.760 -1.0717  1.2482 -0.3534
 3747SOL     OW12661   5.737   4.738   6.930 -0.5386 -0.1206  0.0889
 3747SOL    HW112662   5.727   4.782   7.014  0.7676  2.3762 -0.9508
 3747SOL    HW212663   5.691   4.794   6.868 -0.1194 -1.0438 -1.1030
 3748SOL     OW12664   5.578   8.926   4.826  0.2228  0.1045 -0.0179
 3748SOL    HW112665   5.497   8.876   4.823 -0.2728  0.9550 -1.5343
 3748SOL    HW212666   5.571   8.979   4.906  1.4558 -3.2403  2.5346
 3749SOL     OW12667   4.153   1.527   2.321  0.0254 -0.1758 -0.0564
 3749SOL    HW112668   4.126   1.502   2.232 -0.7281  0.3399  0.0196
 3749SOL    HW212669   4.248   1.514   2.322 -0.0873 -1.1567 -0.6207
 3750SOL     OW12670   3.375   2.826   5.565 -0.2012 -0.5365  0.5795
 3750SOL    HW112671   3.373   2.900   5.504 -0.0425  0.2627  1.5096
 3750SOL    HW212672   3.458   2.836   5.612 -0.9542 -0.2700  1.9296
 3751SOL     OW12673   8.547   3.816   8.184  0.0455  0.8580 -0.2261
 3751SOL    HW112674   8.512   3.738   8.142  0.4489  0.5404  0.0248
 3751SOL    HW212675   8.484   3.885   8.162 -0.2166  0.5056 -0.5975
 3752SOL     OW12676   2.903   2.105   2.626  0.4146 -0.1977 -0.0398
 3752SOL    HW112677   2.895   2.074   2.535 -0.7853 -1.5311  0.4788
 3752SOL    HW212678   2.894   2.200   2.620 -1.1326 -0.3733 -1.1941
 3753SOL     OW12679   5.473   6.272   3.857 -0.1751  0.1630 -0.3029
 3753SOL    HW112680   5.496   6.298   3.946 -1.1080 -1.0187  0.3070
 3753SOL    HW212681   5.386   6.309   3.842 -0.1532  0.0988 -0.6073
 3754SOL     OW12682   5.828   3.307   4.116  0.1523  0.2770  0.8332
 3754SOL    HW112683   5.923   3.309   4.126  0.1322  1.6930  0.8453
 3754SOL    HW212684   5.813   3.299   4.022  0.2575 -1.9101  0.9370
 3755SOL     OW12685   5.068   6.553   9.123 -0.5127  0.4766 -0.3955
 3755SOL    HW112686   5.060   6.459   9.107 -0.8887  0.2498  0.9961
 3755SOL    HW212687   5.000   6.593   9.069  0.3822  0.0723 -1.8773
 3756SOL     OW12688   3.549   1.862   2.066 -0.2611  0.2839  0.3155
 3756SOL    HW112689   3.582   1.787   2.016 -0.3579  0.6737 -0.3415
 3756SOL    HW212690   3.501   1.915   2.001  1.0294  1.6695  0.4412
 3757SOL     OW12691   6.202   5.994   6.769 -0.3323 -0.2159  0.4897
 3757SOL    HW112692   6.267   5.969   6.834  0.4892  0.1788 -0.1520
 3757SOL    HW212693   6.122   6.010   6.819  1.1908  4.0717  2.0641
 3758SOL     OW12694   9.204   1.334   5.541 -0.6527 -0.1919 -0.3053
 3758SOL    HW112695   9.270   1.397   5.515 -1.5522  0.6461 -0.6175
 3758SOL    HW212696   9.121   1.375   5.517 -1.4713  0.0384  2.5440
 3759SOL     OW12697   1.811   2.255   2.210  0.2350  0.3636  0.2035
 3759SOL    HW112698   1.829   2.293   2.124  2.8272 -2.2200 -0.5583
 3759SOL    HW212699   1.716   2.243   2.211 -0.0862  2.2451 -1.4480
 3760SOL     OW12700   5.895   5.487   2.404 -0.2247  0.9575  0.2825
 3760SOL    HW112701   5.848   5.465   2.484 -0.2662  2.7178  0.7801
 3760SOL    HW212702   5.944   5.408   2.382  0.2587  0.6174  2.3707
 3761SOL     OW12703   4.541   5.155   1.297 -0.6413  0.1088  0.9205
 3761SOL    HW112704   4.628   5.174   1.260 -1.0118  1.0748  0.5034
 3761SOL    HW212705   4.552   5.072   1.343 -0.0922 -1.0479 -1.1607
 3762SOL     OW12706   3.451   0.994   0.987 -0.6227  0.6119  0.4077
 3762SOL    HW112707   3.410   1.061   1.043 -1.0771  0.6561  0.0223
 3762SOL    HW212708   3.429   0.911   1.029  0.2705  0.7013  1.1108
 3763SOL     OW12709   6.058   1.597   5.531 -0.6208  0.0809  0.3036
 3763SOL    HW112710   6.136   1.586   5.478 -0.7850  1.1193 -0.1651
 3763SOL    HW212711   6.067   1.532   5.600  1.0237  0.6826  0.6937
 3764SOL     OW12712   0.078   3.422   8.022  0.5103  0.4556  0.0392
 3764SOL    HW112713   0.054   3.502   7.976  0.1270 -0.2629 -1.0783
 3764SOL    HW212714   0.137   3.377   7.961  2.0701  0.6389  1.3399
 3765SOL     OW12715   2.429   6.921   2.100  0.0822  0.9371  0.6586
 3765SOL    HW112716   2.355   6.900   2.043 -0.1148  1.3998  0.7377
 3765SOL    HW212717   2.391   6.976   2.169 -0.0204 -1.0100  2.2176
 3766SOL     OW12718   9.124   1.354   5.799  0.1989  0.3019 -0.1835
 3766SOL    HW112719   9.128   1.365   5.704  1.7391 -1.4477 -0.3819
 3766SOL    HW212720   9.034   1.374   5.821 -0.8788 -1.6296 -2.3784
 3767SOL     OW12721   3.930   7.002   5.754 -0.4850  0.3473  0.3541
 3767SOL    HW112722   3.958   7.040   5.671  0.1380  0.8421  0.7729
 3767SOL    HW212723   3.981   6.921   5.762 -0.1111  0.5924  0.5130
 3768SOL     OW12724   5.242   4.218   8.637 -0.0252 -0.5000  0.6081
 3768SOL    HW112725   5.267   4.130   8.666  1.6227 -0.5865 -0.9276
 3768SOL    HW212726   5.177   4.203   8.568  1.7310 -0.6670 -1.0878
 3769SOL     OW12727   8.902   6.079   4.930 -0.0055  0.1567 -0.0991
 3769SOL    HW112728   8.954   6.080   4.850 -2.0262  0.2472 -1.4829
 3769SOL    HW212729   8.889   5.986   4.949 -0.2134  0.1298 -0.3674
 3770SOL     OW12730   2.932   4.124   3.133 -1.1278 -0.1208  0.3832
 3770SOL    HW112731   2.993   4.050   3.134  1.4961  1.8564 -1.1185
 3770SOL    HW212732   2.856   4.093   3.182  1.1768 -2.6768  2.6981
 3771SOL     OW12733   7.850   4.500   2.853 -0.4527 -0.1426 -0.2709
 3771SOL    HW112734   7.784   4.545   2.907 -0.7258 -0.9177  0.0521
 3771SOL    HW212735   7.815   4.505   2.764  0.1654  1.4476 -0.4632
 3772SOL     OW12736   0.185   8.809   7.805 -0.0821 -0.2242 -0.3616
 3772SOL    HW112737   0.249   8.819   7.876 -0.8988  1.2258  0.2064
 3772SOL    HW212738   0.224   8.743   7.747  0.8161 -1.1184  1.1843
 3773SOL     OW12739   0.752   7.496   3.913 -0.3371  0.5333  0.2595
 3773SOL    HW112740   0.731   7.486   4.005 -1.2923 -1.2536 -0.1111
 3773SOL    HW212741   0.726   7.414   3.873 -0.7903  1.5846 -1.7608
 3774SOL     OW12742   3.370   7.671   6.090  0.4914  0.3308 -0.2421
 3774SOL    HW112743   3.344   7.691   6.180  2.0904 -1.0625  0.6027
 3774SOL    HW212744   3.461   7.700   6.085  0.4536  0.2957 -1.3941
 3775SOL     OW12745   7.805   0.503   8.229 -0.1662 -0.1353 -0.2104
 3775SOL    HW112746   7.797   0.526   8.136  0.9237  0.3036 -0.2094
 3775SOL    HW212747   7.770   0.579   8.275 -1.2535 -0.5918 -0.2519
 3776SOL     OW12748   8.758   7.218   0.340 -0.5652 -0.1883 -0.5723
 3776SOL    HW112749   8.814   7.282   0.385  0.1595  0.0591 -1.7833
 3776SOL    HW212750   8.669   7.246   0.362 -0.2695  1.2874 -1.0939
 3777SOL     OW12751   1.931   7.532   6.479 -0.6399  0.2490 -0.0467
 3777SOL    HW112752   1.984   7.458   6.449 -1.5393 -0.0012 -1.1246
 3777SOL    HW212753   1.866   7.492   6.537 -1.1984  0.1479 -0.7204
 3778SOL     OW12754   3.873   0.914   1.507  0.4035  0.8431 -0.5955
 3778SOL    HW112755   3.832   0.982   1.562 -3.6759  0.1635 -2.3939
 3778SOL    HW212756   3.906   0.850   1.570  0.1313  2.2371  1.0820
 3779SOL     OW12757   4.421   8.214   4.003 -0.0703  0.2892 -0.0131
 3779SOL    HW112758   4.468   8.147   3.953  0.3141  0.0232  0.6914
 3779SOL    HW212759   4.481   8.289   4.005  0.1032  0.1429  0.4190
 3780SOL     OW12760   9.137   7.930   2.200  0.5383  0.1824  0.1273
 3780SOL    HW112761   9.169   7.999   2.142  0.5378  1.4059  1.5376
 3780SOL    HW212762   9.166   7.956   2.287  1.5787 -2.2143  0.5972
 3781SOL     OW12763   0.179   4.168   3.429 -0.0397  0.6467 -0.0640
 3781SOL    HW112764   0.236   4.242   3.452  2.2011 -0.9471 -0.1643
 3781SOL    HW212765   0.149   4.134   3.513  1.0266  0.1581  0.1429
 3782SOL     OW12766   4.444   5.013   6.604  0.9560 -0.7220  0.9050
 3782SOL    HW112767   4.357   4.985   6.633  0.5875 -0.3793  0.1616
 3782SOL    HW212768   4.502   4.989   6.676  0.0076  0.5376  2.1378
 3783SOL     OW12769   0.577   3.149   7.209  0.0380 -0.1837  0.7525
 3783SOL    HW112770   0.628   3.068   7.213 -1.1487 -0.9615  0.7115
 3783SOL    HW212771   0.502   3.127   7.153 -0.2724  0.9613  0.6992
 3784SOL     OW12772   2.206   8.533   4.155 -0.6179  0.3480 -0.0051
 3784SOL    HW112773   2.294   8.549   4.188  0.2215  0.1759 -1.9992
 3784SOL    HW212774   2.197   8.592   4.080 -1.2629 -1.2988 -1.3058
 3785SOL     OW12775   8.914   6.934   5.724 -0.5167 -0.8375  0.3394
 3785SOL    HW112776   8.823   6.921   5.701 -1.0716  1.9627  0.6287
 3785SOL    HW212777   8.914   6.937   5.820 -0.3261  0.3150  0.3116
 3786SOL     OW12778   2.174   6.326   4.776  0.5220  0.3931 -0.5307
 3786SOL    HW112779   2.158   6.413   4.812  1.1182  0.6413 -0.8383
 3786SOL    HW212780   2.225   6.343   4.696 -1.7687 -0.0590 -2.2000
 3787SOL     OW12781   7.714   2.913   0.008 -0.1577 -0.0637 -0.0001
 3787SOL    HW112782   7.788   2.949  -0.039 -0.8850  2.6116  0.7396
 3787SOL    HW212783   7.663   2.867  -0.058  0.1246  1.4701 -1.3297
 3788SOL     OW12784   3.601   1.648   8.281 -0.1644  0.1709 -0.0465
 3788SOL    HW112785   3.546   1.584   8.326  2.2759  0.1336  3.2758
 3788SOL    HW212786   3.562   1.733   8.304 -1.5460  0.0665 -1.8007
 3789SOL     OW12787   8.571   8.171   1.521 -0.1254 -0.4298 -0.1552
 3789SOL    HW112788   8.652   8.124   1.500  1.5407  2.4406 -0.7233
 3789SOL    HW212789   8.564   8.238   1.453 -2.2217  0.3243  0.7224
 3790SOL     OW12790   6.392   7.580   0.440  0.0272 -0.4870  0.0373
 3790SOL    HW112791   6.335   7.612   0.371  1.0455  0.5942 -0.3277
 3790SOL    HW212792   6.332   7.559   0.512 -0.7463  2.9158  0.5859
 3791SOL     OW12793   1.375   6.141   4.702  0.3218  0.6223 -0.5577
 3791SOL    HW112794   1.459   6.186   4.715  0.1508  0.4312  1.3497
 3791SOL    HW212795   1.379   6.066   4.760 -1.2995  0.7646 -0.2394
 3792SOL     OW12796   1.615   3.985   4.041  0.4673  0.3595  0.6871
 3792SOL    HW112797   1.598   4.075   4.068  0.4667  0.9848 -1.2991
 3792SOL    HW212798   1.609   3.934   4.123 -2.4844  1.7074  1.4227
 3793SOL     OW12799   1.762   8.896   9.018 -0.0831  0.5157 -0.2274
 3793SOL    HW112800   1.680   8.899   9.069  1.0875  1.1078  1.7299
 3793SOL    HW212801   1.794   8.807   9.031 -1.1681 -0.2611 -2.3663
 3794SOL     OW12802   1.649   1.399   5.076  0.4990 -0.0348  0.1987
 3794SOL    HW112803   1.654   1.324   5.135  1.3335 -0.4587 -0.4010
 3794SOL    HW212804   1.616   1.363   4.994  0.2305  0.3855  0.1167
 3795SOL     OW12805   5.013   0.388   3.909  0.1193  0.3310  0.1190
 3795SOL    HW112806   4.946   0.375   3.842 -0.3330 -0.9869  0.8031
 3795SOL    HW212807   4.968   0.370   3.992  0.6510  1.9995  0.8076
 3796SOL     OW12808   7.088   4.133   7.200 -0.3569  0.0836 -0.3082
 3796SOL    HW112809   6.993   4.145   7.210 -0.1945  1.6300 -0.4248
 3796SOL    HW212810   7.126   4.183   7.273  0.4184  1.2024 -1.4245
 3797SOL     OW12811   3.800   0.808   8.801 -0.5112  0.6642 -0.6374
 3797SOL    HW112812   3.752   0.737   8.844 -2.2418 -0.2415 -3.7821
 3797SOL    HW212813   3.843   0.766   8.726  1.3282  2.3653 -0.6049
 3798SOL     OW12814   1.504   4.605   7.985 -0.1154 -0.0996 -0.3478
 3798SOL    HW112815   1.562   4.580   7.913 -0.6400 -1.1036 -0.4365
 3798SOL    HW212816   1.563   4.638   8.053  0.4662 -0.0880 -0.8540
 3799SOL     OW12817   6.141   8.985   9.212  0.3116  0.1908 -0.1246
 3799SOL    HW112818   6.093   9.062   9.242  0.2699 -0.0870  0.5462
 3799SOL    HW212819   6.230   8.997   9.245  0.9992  1.1949 -2.2265
 3800SOL     OW12820   4.918   2.970   0.507  0.1313 -0.0452  0.6217
 3800SOL    HW112821   4.862   3.002   0.437 -1.4970 -0.3697  1.7108
 3800SOL    HW212822   4.998   3.021   0.499 -1.9850  3.8857  1.7581
 3801SOL     OW12823   2.639   0.071   5.513  0.3718  0.0344 -0.0784
 3801SOL    HW112824   2.663   0.021   5.591 -1.5227 -0.6092  0.1284
 3801SOL    HW212825   2.632   0.006   5.443 -0.3799  0.2376 -0.2032
 3802SOL     OW12826   8.667   4.600   7.417  0.1106  0.0320  0.0625
 3802SOL    HW112827   8.619   4.517   7.409 -2.0625  0.8676  2.7551
 3802SOL    HW212828   8.603   4.667   7.392  0.8079  1.0633  0.9547
 3803SOL     OW12829   3.242   4.178   4.182 -0.0713  0.3473  0.4831
 3803SOL    HW112830   3.306   4.109   4.198 -0.5684  0.1930  2.0584
 3803SOL    HW212831   3.197   4.152   4.102  0.4305 -0.6359  0.5073
 3804SOL     OW12832   2.086   8.280   1.817 -0.2291 -0.4565  0.0060
 3804SOL    HW112833   2.074   8.201   1.869 -0.8534 -0.4970 -0.1968
 3804SOL    HW212834   2.137   8.338   1.874 -1.6666 -0.1563  1.0281
 3805SOL     OW12835   0.328   4.563   2.603  0.1260  0.1557 -0.2149
 3805SOL    HW112836   0.359   4.498   2.666  1.4915  1.0037  0.0279
 3805SOL    HW212837   0.404   4.581   2.548 -0.5959  0.6131 -1.0843
 3806SOL     OW12838   6.869   0.774   8.429  0.1698  0.2366 -0.2552
 3806SOL    HW112839   6.958   0.792   8.460  0.3041 -0.2434 -0.3544
 3806SOL    HW212840   6.819   0.852   8.454  0.7986  0.8864 -0.9626
 3807SOL     OW12841   2.478   2.879   7.898 -0.2493  0.6083 -0.0923
 3807SOL    HW112842   2.543   2.887   7.967 -0.2552 -0.8314  0.1019
 3807SOL    HW212843   2.413   2.818   7.933  0.1789 -0.8267 -1.6491
 3808SOL     OW12844   6.951   0.992   6.701 -0.3022  0.6253 -0.0288
 3808SOL    HW112845   6.959   0.897   6.699 -0.0181  0.6535 -1.5340
 3808SOL    HW212846   6.869   1.011   6.657  0.6104  1.1317 -1.6112
 3809SOL     OW12847   4.161   8.223   0.605  0.2791 -0.5443 -0.5260
 3809SOL    HW112848   4.089   8.266   0.651  0.0809 -1.0718 -0.3355
 3809SOL    HW212849   4.238   8.243   0.658  0.0219 -1.3093  0.1612
 3810SOL     OW12850   5.744   6.759   4.272 -0.5618 -0.0657  0.0881
 3810SOL    HW112851   5.714   6.669   4.267 -0.9217  0.0054  0.7687
 3810SOL    HW212852   5.839   6.752   4.281 -0.5856 -0.3733  0.1141
 3811SOL     OW12853   0.593   8.165   6.575 -0.0024  0.0016 -0.3039
 3811SOL    HW112854   0.596   8.259   6.560 -0.0256  0.2978  1.3958
 3811SOL    HW212855   0.613   8.154   6.668  0.4578 -1.7089 -0.5624
 3812SOL     OW12856   8.715   5.914   7.428 -0.1445  0.0605  0.1944
 3812SOL    HW112857   8.710   5.987   7.366 -0.6645 -0.8482 -0.8703
 3812SOL    HW212858   8.808   5.908   7.451  0.1897 -0.0480 -1.0905
 3813SOL     OW12859   6.935   5.578   3.640 -0.5631  0.0424 -0.2929
 3813SOL    HW112860   6.947   5.669   3.613  0.1348 -0.3721 -1.4388
 3813SOL    HW212861   6.960   5.526   3.564 -0.0602 -1.1401  0.6296
 3814SOL     OW12862   4.202   8.505   5.911 -0.4754  0.6900  0.1449
 3814SOL    HW112863   4.126   8.545   5.953 -0.0527  1.0329  0.5956
 3814SOL    HW212864   4.272   8.514   5.975 -0.1514  0.0031 -0.0975
 3815SOL     OW12865   1.214   0.958   7.319 -0.3379  0.7100 -0.4848
 3815SOL    HW112866   1.258   0.982   7.401 -0.5158  1.2725 -0.5465
 3815SOL    HW212867   1.202   0.864   7.325  1.8599  0.3448 -0.9538
 3816SOL     OW12868   5.031   8.276   5.068  0.2074 -0.4924  0.5450
 3816SOL    HW112869   5.117   8.261   5.029 -0.1705 -2.1998  0.2990
 3816SOL    HW212870   5.050   8.308   5.156  1.0788 -0.1318  0.2417
 3817SOL     OW12871   2.351   3.693   2.601 -0.1910 -0.1739  0.1678
 3817SOL    HW112872   2.325   3.775   2.643  2.3592  1.3287 -0.9682
 3817SOL    HW212873   2.301   3.625   2.647  0.0299  1.6670  3.3657
 3818SOL     OW12874   1.735   3.530   8.249  0.1570 -0.4198 -0.4934
 3818SOL    HW112875   1.693   3.572   8.174 -1.6444 -0.2806  0.5537
 3818SOL    HW212876   1.748   3.439   8.221 -1.0093 -0.5096 -0.8060
 3819SOL     OW12877   5.261   5.609   5.542  0.3276 -0.4583 -0.4162
 3819SOL    HW112878   5.265   5.596   5.637  2.9947  0.1436 -0.3909
 3819SOL    HW212879   5.215   5.692   5.532 -1.3756 -1.2715  0.2262
 3820SOL     OW12880   7.067   3.046   8.185  0.0414  0.2695  0.1777
 3820SOL    HW112881   7.018   3.084   8.112 -1.1239  0.9947  1.2742
 3820SOL    HW212882   7.148   3.097   8.189  0.2561  0.0163 -0.7807
 3821SOL     OW12883   4.906   4.714   3.402 -0.1609 -0.7411 -0.2083
 3821SOL    HW112884   5.001   4.705   3.396 -0.0495  0.2449 -0.1283
 3821SOL    HW212885   4.874   4.697   3.313  0.1601 -0.3691 -0.3975
 3822SOL     OW12886   4.047   8.095   0.872 -0.4404  0.0060  0.2046
 3822SOL    HW112887   4.067   8.002   0.860  0.8838  0.3938 -0.8049
 3822SOL    HW212888   3.957   8.104   0.840 -0.8523 -1.0363  0.9967
 3823SOL     OW12889   2.955   0.393   4.093 -0.8146  0.5021 -0.1917
 3823SOL    HW112890   2.924   0.303   4.084  0.8397  0.0044 -1.3571
 3823SOL    HW212891   2.914   0.424   4.174 -3.1321 -0.5475 -0.8669
 3824SOL     OW12892   3.090   2.988   1.752 -0.6101  0.3552 -0.1574
 3824SOL    HW112893   3.023   2.991   1.683  0.8409  0.0521 -1.6449
 3824SOL    HW212894   3.134   3.073   1.746  0.4017 -0.1790 -0.5547
 3825SOL     OW12895   2.322   8.024   7.641  0.3888  0.2588 -0.5527
 3825SOL    HW112896   2.297   7.996   7.729  1.3187 -1.4673 -0.7863
 3825SOL    HW212897   2.320   7.944   7.589  0.6248  1.1137 -1.9288
 3826SOL     OW12898   5.391   2.519   8.027 -0.4784  0.0422  0.1566
 3826SOL    HW112899   5.338   2.449   8.066 -1.7021  0.5953 -0.4416
 3826SOL    HW212900   5.351   2.533   7.941  1.8663 -0.8538 -1.1685
 3827SOL     OW12901   2.809   4.327   5.958  0.1835  0.3763 -0.1655
 3827SOL    HW112902   2.809   4.252   6.016 -0.2882 -0.6874 -1.4791
 3827SOL    HW212903   2.877   4.308   5.894  0.0061  1.0242 -0.5563
 3828SOL     OW12904   7.557   3.708   5.366  0.4883  0.1836 -0.2227
 3828SOL    HW112905   7.518   3.779   5.417  1.4169 -0.7282  1.8367
 3828SOL    HW212906   7.497   3.634   5.378  0.1397  0.2507 -1.4061
 3829SOL     OW12907   7.329   1.857   0.656  0.0141  0.1968  0.3337
 3829SOL    HW112908   7.399   1.833   0.595 -0.1684 -0.7831  0.5072
 3829SOL    HW212909   7.357   1.822   0.740  0.2963  1.6022  0.8618
 3830SOL     OW12910   2.041   4.738   8.555 -0.6158 -0.0044  0.1122
 3830SOL    HW112911   2.054   4.829   8.530 -1.4196 -0.5895 -2.8522
 3830SOL    HW212912   2.065   4.735   8.647  1.0564  2.8335 -0.1053
 3831SOL     OW12913   8.009   0.993   9.182  0.0833 -0.6865  0.5608
 3831SOL    HW112914   7.993   1.085   9.201  1.1960 -0.3905  0.1156
 3831SOL    HW212915   7.923   0.952   9.190 -0.4731  0.4330  0.5029
 3832SOL     OW12916   0.779   0.100   0.468  0.4414  0.5577  0.4704
 3832SOL    HW112917   0.869   0.123   0.443  0.9034  0.0130  1.5771
 3832SOL    HW212918   0.762   0.018   0.422  0.7585  0.3099  0.7948
 3833SOL     OW12919   0.913   1.389   2.129  0.3224  1.0325 -0.3404
 3833SOL    HW112920   0.933   1.349   2.213  0.3984  2.1840  0.2185
 3833SOL    HW212921   0.997   1.393   2.083  0.0107 -1.1381 -1.2101
 3834SOL     OW12922   2.712   1.782   1.010 -0.0981 -0.3781  0.3752
 3834SOL    HW112923   2.643   1.835   0.971 -0.1439  0.0800  1.0778
 3834SOL    HW212924   2.712   1.701   0.958 -1.1021 -0.3510  0.3198
 3835SOL     OW12925   0.035   2.188   3.430 -0.2938  0.2578  0.1261
 3835SOL    HW112926   0.084   2.107   3.446  0.3143  0.7930  1.1547
 3835SOL    HW212927  -0.017   2.200   3.510  0.7158  1.6112  0.6174
 3836SOL     OW12928   2.016   7.817   1.907  0.1195 -0.7053  0.3510
 3836SOL    HW112929   2.031   7.723   1.900  1.0774 -0.5984  0.7453
 3836SOL    HW212930   1.939   7.824   1.964 -0.8409 -1.2643 -0.8308
 3837SOL     OW12931   4.164   0.365   5.549  0.2064  0.1853 -0.8277
 3837SOL    HW112932   4.230   0.341   5.484 -0.2628  0.6269 -1.4900
 3837SOL    HW212933   4.213   0.405   5.620  0.7268 -0.2575 -0.9332
 3838SOL     OW12934   7.804   9.216   2.395 -0.1167  0.0242  0.1978
 3838SOL    HW112935   7.884   9.167   2.412  0.3458  0.8295  0.4436
 3838SOL    HW212936   7.830   9.282   2.330 -0.2341  1.1215  1.2298
 3839SOL     OW12937   4.690   5.709   2.174 -0.2819  0.1706 -0.4089
 3839SOL    HW112938   4.736   5.771   2.117 -1.6144 -0.8104 -2.6891
 3839SOL    HW212939   4.598   5.721   2.153 -0.6631 -1.6457  0.0346
 3840SOL     OW12940   4.163   6.006   3.147 -0.4641 -0.4236 -0.0249
 3840SOL    HW112941   4.253   5.983   3.168 -0.9687 -0.5046  2.3225
 3840SOL    HW212942   4.120   5.923   3.128 -0.7994 -0.7964  2.1861
 3841SOL     OW12943   8.137   4.994   8.050 -0.1466 -0.4977 -0.4218
 3841SOL    HW112944   8.168   4.977   7.962  1.3998 -3.9955  0.6409
 3841SOL    HW212945   8.069   4.928   8.065 -0.8438  0.4489  0.8092
 3842SOL     OW12946   7.129   9.091   4.058 -0.1367 -0.1209  0.0320
 3842SOL    HW112947   7.124   9.104   4.153  2.2881 -2.5962  0.6547
 3842SOL    HW212948   7.065   9.022   4.040  0.8269 -1.1304  0.3136
 3843SOL     OW12949   8.311   4.954   3.792 -0.3082 -0.5433  0.1803
 3843SOL    HW112950   8.383   4.937   3.853  0.0588 -0.7626 -0.3097
 3843SOL    HW212951   8.239   4.900   3.825 -0.3932  0.0114  0.9236
 3844SOL     OW12952   2.892   5.996   7.315  0.0009 -0.1403 -0.4877
 3844SOL    HW112953   2.856   6.084   7.304 -0.5889 -0.5514 -1.9982
 3844SOL    HW212954   2.915   5.968   7.227 -1.4363 -2.1752 -0.2814
 3845SOL     OW12955   8.331   4.714   7.799  0.6089  0.1306  0.5823
 3845SOL    HW112956   8.290   4.664   7.870  0.5266  1.2400  1.3393
 3845SOL    HW212957   8.348   4.649   7.731 -0.7363 -0.6936  0.9899
 3846SOL     OW12958   6.661   0.715   1.238 -0.6375  0.1852 -0.0286
 3846SOL    HW112959   6.609   0.754   1.308 -3.1709  0.0792 -1.6909
 3846SOL    HW212960   6.625   0.627   1.227 -0.0595  0.0662 -1.1849
 3847SOL     OW12961   4.519   6.046   6.895  0.5182 -0.8213 -0.2372
 3847SOL    HW112962   4.507   5.956   6.925 -0.5607 -0.8530 -0.7046
 3847SOL    HW212963   4.607   6.069   6.924 -0.3109 -0.9348  2.7115
 3848SOL     OW12964   3.084   3.519   2.481  0.3719  0.2287 -0.3819
 3848SOL    HW112965   3.130   3.467   2.415 -0.2931 -0.4806 -0.2951
 3848SOL    HW212966   3.152   3.548   2.541  0.8506  0.0904 -0.8529
 3849SOL     OW12967   1.416   8.228   7.802 -0.5211  0.3147  0.1478
 3849SOL    HW112968   1.356   8.161   7.769 -0.3626 -0.1229  0.7427
 3849SOL    HW212969   1.454   8.190   7.881  1.7835 -0.0657 -1.0913
 3850SOL     OW12970   5.740   2.243   1.151 -0.2577 -0.0946 -0.0807
 3850SOL    HW112971   5.801   2.169   1.161 -0.9520 -0.6384  0.2057
 3850SOL    HW212972   5.793   2.312   1.112  0.7404 -0.3081  0.8291
 3851SOL     OW12973   1.448   7.918   1.175 -0.2314  0.1884  0.3489
 3851SOL    HW112974   1.486   7.988   1.123 -0.6196  0.2561  0.1507
 3851SOL    HW212975   1.381   7.880   1.119 -0.2049 -0.1700  0.5536
 3852SOL     OW12976   1.492   8.434   5.115 -0.4235 -0.1181 -0.3145
 3852SOL    HW112977   1.560   8.423   5.049 -0.2643 -2.9891  0.2068
 3852SOL    HW212978   1.532   8.490   5.182  0.6241  0.0508 -1.0590
 3853SOL     OW12979   9.209   5.012   4.221 -0.0821  0.6289  0.2685
 3853SOL    HW112980   9.210   4.975   4.309  0.6971  0.1378  0.0631
 3853SOL    HW212981   9.295   4.991   4.185 -0.4012  0.7975 -0.6215
 3854SOL     OW12982   1.926   3.162   5.570  0.4339  0.1287  0.4839
 3854SOL    HW112983   1.912   3.084   5.515  0.1741  0.0546  0.6526
 3854SOL    HW212984   1.903   3.235   5.514  2.5238  0.2357 -0.3374
 3855SOL     OW12985   6.556   2.354   6.899  0.1881  0.4452 -0.1275
 3855SOL    HW112986   6.496   2.425   6.921 -0.0542  0.2162 -0.0471
 3855SOL    HW212987   6.642   2.385   6.928  0.3581  1.3780 -1.5097
 3856SOL     OW12988   6.455   2.738   2.608 -0.5170  0.6852 -0.0532
 3856SOL    HW112989   6.428   2.670   2.670  0.6278 -0.6628 -0.9838
 3856SOL    HW212990   6.386   2.737   2.541 -0.5591  0.5170 -0.0088
 3857SOL     OW12991   8.802   7.670   0.592  0.3810  0.0248  0.1216
 3857SOL    HW112992   8.734   7.666   0.525  0.8452  0.9242 -0.4196
 3857SOL    HW212993   8.754   7.676   0.674 -0.2305  1.7582 -0.3186
 3858SOL     OW12994   8.922   2.359   8.329 -0.4111  0.2177 -0.0515
 3858SOL    HW112995   8.983   2.412   8.278 -0.9606  0.7237 -0.1956
 3858SOL    HW212996   8.906   2.411   8.408 -0.7216  0.1230 -0.0520
 3859SOL     OW12997   2.315   4.530   0.683 -0.6493 -0.0477 -0.0814
 3859SOL    HW112998   2.245   4.577   0.637 -0.2322  0.2355 -0.4355
 3859SOL    HW212999   2.372   4.599   0.718 -0.4784 -0.2758  0.0968
 3860SOL     OW13000   6.713   3.643   5.231 -0.1014 -0.0607  0.0311
 3860SOL    HW113001   6.782   3.653   5.296  1.8521 -2.0339 -1.6038
 3860SOL    HW213002   6.679   3.554   5.246  0.8065 -0.7988 -1.9130
 3861SOL     OW13003   1.371   4.271   5.782  0.2717  0.0324  0.4076
 3861SOL    HW113004   1.418   4.343   5.822  2.1627 -1.2350  0.6197
 3861SOL    HW213005   1.408   4.265   5.693 -0.5116 -0.1120  0.0844
 3862SOL     OW13006   0.717   0.946   2.147  0.4588  0.4947  0.2130
 3862SOL    HW113007   0.644   0.968   2.205  0.1975  1.0573 -0.3188
 3862SOL    HW213008   0.704   1.001   2.070 -0.2404 -1.5590 -1.2155
 3863SOL     OW13009   3.454   5.395   4.745  0.0110 -0.4025  0.6712
 3863SOL    HW113010   3.405   5.316   4.723 -1.0973  0.1856  0.9589
 3863SOL    HW213011   3.539   5.383   4.701 -0.8682 -0.8365 -1.0054
 3864SOL     OW13012   2.982   3.718   3.357 -0.4844  0.5105 -0.2928
 3864SOL    HW113013   2.896   3.705   3.317  0.0337 -0.2734 -1.1957
 3864SOL    HW213014   3.032   3.763   3.289  0.9038 -2.2575 -1.2368
 3865SOL     OW13015   3.760   6.350   3.936  0.4371  0.4494  0.3527
 3865SOL    HW113016   3.841   6.385   3.900  0.2547  2.1393  1.4904
 3865SOL    HW213017   3.788   6.301   4.014  0.6707 -1.9592 -1.1265
 3866SOL     OW13018   5.162   9.232   6.264 -0.3885  0.3718 -0.1803
 3866SOL    HW113019   5.217   9.173   6.212 -0.0049  0.2799  0.3275
 3866SOL    HW213020   5.223   9.295   6.301 -0.5199 -0.1663  0.9862
 3867SOL     OW13021   6.623   8.992   3.799  0.2648 -0.0154 -0.6811
 3867SOL    HW113022   6.648   8.900   3.805 -3.3730 -1.1727 -0.4883
 3867SOL    HW213023   6.596   9.004   3.708 -0.4729  0.4470 -0.4181
 3868SOL     OW13024   6.659   0.720   7.909  0.1953 -0.9639 -0.0059
 3868SOL    HW113025   6.735   0.727   7.966  0.0758 -2.8250  0.4252
 3868SOL    HW213026   6.686   0.762   7.827  1.2100 -0.4630  0.5676
 3869SOL     OW13027   3.744   3.951   1.002 -0.2952  0.3894  0.3936
 3869SOL    HW113028   3.801   3.888   1.046 -1.2430 -0.3807  0.5452
 3869SOL    HW213029   3.705   4.002   1.072 -0.6051  0.2100  0.3515
 3870SOL     OW13030   3.815   2.853   1.020  0.6913 -0.1146  0.0032
 3870SOL    HW113031   3.907   2.831   1.038  0.6813 -1.5044 -1.4263
 3870SOL    HW213032   3.779   2.775   0.978 -1.2471  0.3053  0.7842
 3871SOL     OW13033   8.110   0.800   7.601  0.1372  0.2057 -0.5641
 3871SOL    HW113034   8.025   0.778   7.638  0.5014  0.9052  0.7558
 3871SOL    HW213035   8.171   0.795   7.675  0.8194  2.0743 -0.9350
 3872SOL     OW13036   0.360   2.143   9.216  0.3111 -0.3598 -0.2450
 3872SOL    HW113037   0.376   2.221   9.164  1.3814  0.6216  1.4730
 3872SOL    HW213038   0.270   2.119   9.196  0.2280  0.8166 -1.4182
 3873SOL     OW13039   3.584   1.220   0.184  0.1990 -0.1613 -0.3907
 3873SOL    HW113040   3.611   1.155   0.119 -0.8658 -1.1816  0.1485
 3873SOL    HW213041   3.577   1.170   0.266  0.5041  0.8819  0.2960
 3874SOL     OW13042   9.246   2.127   0.484 -0.0363  0.4105  0.0437
 3874SOL    HW113043   9.308   2.172   0.426 -0.8713 -1.6640 -2.6872
 3874SOL    HW213044   9.265   2.034   0.471 -1.9755 -0.1899  1.1681
 3875SOL     OW13045   6.430   0.301   7.708 -0.1815 -0.1317 -0.5066
 3875SOL    HW113046   6.445   0.232   7.773  0.7465  1.2444  0.7938
 3875SOL    HW213047   6.505   0.359   7.717 -0.1873  0.2662 -2.6328
 3876SOL     OW13048   4.966   4.186   5.505 -0.3501  0.3669 -0.4067
 3876SOL    HW113049   4.908   4.137   5.447 -1.0459 -0.1255  0.6901
 3876SOL    HW213050   4.932   4.276   5.502 -1.3751  0.0233  0.4616
 3877SOL     OW13051   8.292   8.984   7.398 -0.1298  0.7317  0.1721
 3877SOL    HW113052   8.341   8.956   7.320  0.8268  2.0130  0.2829
 3877SOL    HW213053   8.224   9.042   7.364 -2.5223 -2.0158 -0.1270
 3878SOL     OW13054   3.317   6.941   4.907 -0.3727 -0.1607  0.2523
 3878SOL    HW113055   3.237   6.900   4.876 -0.3977 -0.5072  0.7677
 3878SOL    HW213056   3.351   6.881   4.973 -0.8926  1.0691  1.6880
 3879SOL     OW13057   3.671   1.185   3.483  0.2822  0.3475  0.0201
 3879SOL    HW113058   3.693   1.092   3.482  1.0662  0.5203 -0.8890
 3879SOL    HW213059   3.626   1.200   3.400 -2.5288  0.2088  1.4179
 3880SOL     OW13060   1.474   2.646   1.762 -0.2581 -0.5778  0.0698
 3880SOL    HW113061   1.466   2.565   1.712 -0.7665 -0.1427 -0.5731
 3880SOL    HW213062   1.396   2.648   1.818 -1.7311  0.7657 -1.8906
 3881SOL     OW13063   7.435   0.101   2.282 -0.1639  1.0613  0.3603
 3881SOL    HW113064   7.369   0.169   2.277  0.0845  1.2463 -0.8876
 3881SOL    HW213065   7.511   0.137   2.235  1.2335  1.2792  2.6651
 3882SOL     OW13066   4.032   4.184   7.865  0.0259 -0.4672  0.4894
 3882SOL    HW113067   4.122   4.208   7.842  0.4568 -1.3191  1.2195
 3882SOL    HW213068   4.030   4.190   7.961 -0.3286 -1.6552  0.5676
 3883SOL     OW13069   8.345   2.660   7.706  0.4274 -0.1892 -0.0304
 3883SOL    HW113070   8.311   2.729   7.648 -0.1246  0.7655  1.3791
 3883SOL    HW213071   8.268   2.617   7.741  0.7407 -0.3580  0.4631
 3884SOL     OW13072   2.757   2.389   5.056  0.3615 -0.1492 -0.1426
 3884SOL    HW113073   2.847   2.408   5.029  0.7285 -0.8245  0.5656
 3884SOL    HW213074   2.763   2.372   5.150 -0.9678  2.5795  0.5394
 3885SOL     OW13075   7.555   5.139   0.289  0.1212 -0.7165  0.0134
 3885SOL    HW113076   7.535   5.132   0.196 -0.3492 -0.2431  0.0698
 3885SOL    HW213077   7.638   5.093   0.300  0.1914 -0.7541 -0.6429
 3886SOL     OW13078   2.663   8.770   7.741 -0.3060  0.0082  0.2434
 3886SOL    HW113079   2.757   8.754   7.750 -0.5594 -0.6348  2.3479
 3886SOL    HW213080   2.652   8.864   7.754  0.0162  0.0135  0.4750
 3887SOL     OW13081   8.051   8.185   3.953  0.1829 -0.1159 -0.2398
 3887SOL    HW113082   7.989   8.146   3.891  0.4436  0.0670 -0.6140
 3887SOL    HW213083   8.002   8.188   4.036  0.4115 -1.9836  0.0146
 3888SOL     OW13084   3.364   0.911   0.736  0.0015  0.5690  0.4004
 3888SOL    HW113085   3.440   0.888   0.682  0.0940  1.1544  0.2752
 3888SOL    HW213086   3.401   0.941   0.819 -0.0529  1.6403  0.0457
 3889SOL     OW13087   5.853   7.488   3.335 -0.5611 -0.5139 -0.2517
 3889SOL    HW113088   5.881   7.565   3.383 -0.4776  0.6573 -2.0726
 3889SOL    HW213089   5.931   7.432   3.332 -0.2892 -0.1597  0.1430
 3890SOL     OW13090   8.832   6.075   3.393 -0.1850 -0.2873  0.1972
 3890SOL    HW113091   8.896   6.098   3.461  0.3197 -3.5137  0.9732
 3890SOL    HW213092   8.765   6.025   3.440 -1.6588  0.3187 -1.1682
 3891SOL     OW13093   5.172   2.757   7.889  0.1191 -0.5521  0.4912
 3891SOL    HW113094   5.178   2.747   7.984 -0.8901  2.7550  1.0457
 3891SOL    HW213095   5.082   2.786   7.874  0.7412  0.6042 -1.2674
 3892SOL     OW13096   1.547   4.453   4.817  0.5733  0.5720 -0.2865
 3892SOL    HW113097   1.461   4.467   4.778 -0.0904 -0.6867  0.6277
 3892SOL    HW213098   1.563   4.359   4.808  0.2991  0.1631  2.5204
 3893SOL     OW13099   8.135   6.308   1.240 -0.3933  0.3631  0.0399
 3893SOL    HW113100   8.164   6.232   1.189  1.3807  0.1438  1.3196
 3893SOL    HW213101   8.079   6.271   1.308 -0.5150  0.3610 -0.0589
 3894SOL     OW13102   9.112   4.650   9.016  0.5907  0.7738  0.0900
 3894SOL    HW113103   9.168   4.647   9.093 -1.3456 -2.8351  1.5698
 3894SOL    HW213104   9.039   4.707   9.041  0.4452  0.3792  0.5570
 3895SOL     OW13105   7.116   4.372   6.570 -0.2609  0.1145 -0.0861
 3895SOL    HW113106   7.185   4.427   6.607  1.5077 -1.0247 -1.4861
 3895SOL    HW213107   7.141   4.283   6.594 -2.1069 -0.2425  0.6499
 3896SOL     OW13108   8.767   2.126   4.079  0.2084  0.1683 -0.1559
 3896SOL    HW113109   8.698   2.093   4.136 -0.7071 -0.8572 -1.7929
 3896SOL    HW213110   8.830   2.053   4.073  1.2924  0.9536  1.0114
 3897SOL     OW13111   1.461   0.806   1.132  0.7233  0.2267  0.3143
 3897SOL    HW113112   1.378   0.809   1.084  0.0428 -1.4286  1.2754
 3897SOL    HW213113   1.475   0.895   1.162 -1.3574  0.3325  1.1386
 3898SOL     OW13114   0.354   2.452   5.204  0.3356  0.0525 -0.3866
 3898SOL    HW113115   0.261   2.473   5.192  0.4783  1.1537  0.2270
 3898SOL    HW213116   0.396   2.538   5.217  1.3892 -0.4534 -0.3603
 3899SOL     OW13117   8.198   5.055   0.051 -0.1554 -0.4561 -0.2764
 3899SOL    HW113118   8.123   5.032   0.105  0.4875 -0.4060  0.6505
 3899SOL    HW213119   8.161   5.106  -0.021 -0.9461 -0.0492  0.4072
 3900SOL     OW13120   1.382   0.509   2.847 -0.4899  0.2548  0.3608
 3900SOL    HW113121   1.463   0.543   2.885 -0.6839  1.9475 -0.6592
 3900SOL    HW213122   1.330   0.586   2.827 -2.2997 -0.7877  0.8011
 3901SOL     OW13123   3.074   6.587   1.337  0.6676  0.9029 -0.5148
 3901SOL    HW113124   3.077   6.637   1.419  0.0805 -0.7278  0.5576
 3901SOL    HW213125   3.156   6.538   1.336  0.0205 -0.2309 -0.1013
 3902SOL     OW13126   6.147   6.366   4.869 -0.3141  0.2593  0.4702
 3902SOL    HW113127   6.156   6.324   4.783 -0.6813 -0.7212  0.8883
 3902SOL    HW213128   6.127   6.294   4.929 -0.5720  0.9899  1.2954
 3903SOL     OW13129   6.322   2.057   2.396 -0.2726  0.2517 -0.2994
 3903SOL    HW113130   6.339   1.963   2.392 -0.1238  0.3215 -1.4280
 3903SOL    HW213131   6.300   2.073   2.488 -2.0114 -1.1737 -0.4192
 3904SOL     OW13132   9.089   5.173   5.732  0.0060  0.2527 -0.6330
 3904SOL    HW113133   9.067   5.236   5.801 -1.0772 -0.9140  0.1369
 3904SOL    HW213134   9.014   5.175   5.673 -1.1073 -1.8414  0.5781
 3905SOL     OW13135   4.672   1.243   3.079  0.0719  0.1991 -0.2827
 3905SOL    HW113136   4.661   1.242   3.174  0.9582  0.7443 -0.1608
 3905SOL    HW213137   4.686   1.336   3.058 -2.0569  0.3779 -1.1938
 3906SOL     OW13138   3.069   8.395   3.708  0.2744 -0.2440  0.2563
 3906SOL    HW113139   2.987   8.354   3.736  0.0409 -0.1117 -0.2289
 3906SOL    HW213140   3.058   8.409   3.614  1.4357 -1.5745 -0.0970
 3907SOL     OW13141   7.095   7.922   4.549  0.0614  0.6041  0.0020
 3907SOL    HW113142   7.176   7.920   4.496  1.0820 -1.0302  1.5279
 3907SOL    HW213143   7.111   7.992   4.613  0.2341  0.3611  0.2283
 3908SOL     OW13144   1.901   9.083   4.859 -0.1679 -0.7745 -0.1306
 3908SOL    HW113145   1.958   9.024   4.908  1.2648  1.6321  1.3199
 3908SOL    HW213146   1.931   9.077   4.769  1.8652 -0.2244  0.4617
 3909SOL     OW13147   0.647   6.268   4.347 -0.0755  0.0244  0.3636
 3909SOL    HW113148   0.733   6.301   4.324  0.2257 -0.2965  1.0182
 3909SOL    HW213149   0.641   6.277   4.442 -1.3314  1.3778  0.2053
 3910SOL     OW13150   0.642   3.623   5.477  0.0576  0.1056 -0.1559
 3910SOL    HW113151   0.674   3.544   5.434 -0.9321  0.5208 -1.7353
 3910SOL    HW213152   0.690   3.626   5.560 -0.8260 -2.8517  0.5866
 3911SOL     OW13153   1.175   8.053   4.296  0.3999 -0.3219 -0.4570
 3911SOL    HW113154   1.151   8.030   4.207 -0.4004  0.3898 -0.4490
 3911SOL    HW213155   1.129   7.989   4.351  2.1352 -1.7421 -0.5762
 3912SOL     OW13156   5.639   7.901   8.967 -0.7317 -0.3144 -0.7243
 3912SOL    HW113157   5.668   7.811   8.953  0.1806  0.1970 -2.5214
 3912SOL    HW213158   5.599   7.901   9.053 -0.5063 -2.3786 -0.5773
 3913SOL     OW13159   4.662   7.877   8.377  0.0318  0.0582  0.3390
 3913SOL    HW113160   4.571   7.897   8.353 -0.6054  0.2365  2.6397
 3913SOL    HW213161   4.710   7.958   8.359 -0.0118 -0.3160 -1.7508
 3914SOL     OW13162   8.707   0.333   7.869 -0.1791 -0.6463  0.2452
 3914SOL    HW113163   8.691   0.308   7.960  0.0544 -0.5972  0.3010
 3914SOL    HW213164   8.789   0.383   7.872 -0.9034  0.5791  0.2171
 3915SOL     OW13165   3.980   0.279   0.064  0.2721  0.3515  0.4733
 3915SOL    HW113166   3.946   0.194   0.092 -1.7771  0.5679 -1.1566
 3915SOL    HW213167   3.911   0.316   0.010  1.9826  2.1476 -0.6104
 3916SOL     OW13168   5.482   3.787   2.003  0.0206  0.4747 -0.1812
 3916SOL    HW113169   5.471   3.816   1.912  1.7534  0.3131 -0.4801
 3916SOL    HW213170   5.423   3.711   2.011  0.5742 -0.1262 -1.4863
 3917SOL     OW13171   3.598   8.714   5.763 -0.4929 -0.3061 -0.1919
 3917SOL    HW113172   3.516   8.725   5.715  0.0120  0.2924 -0.9485
 3917SOL    HW213173   3.654   8.665   5.702 -0.1491 -0.3362  0.1488
 3918SOL     OW13174   2.939   8.976   6.936 -0.4371  0.0828  0.2712
 3918SOL    HW113175   2.966   9.068   6.935  1.4257 -0.4353 -0.4687
 3918SOL    HW213176   2.917   8.957   6.845  0.7905 -0.6345  0.1122
 3919SOL     OW13177   6.161   7.364   5.918  0.7964 -0.1312 -0.1461
 3919SOL    HW113178   6.074   7.388   5.885  0.7570 -0.0490  0.0170
 3919SOL    HW213179   6.170   7.412   6.000  0.7163 -0.6596  0.1790
 3920SOL     OW13180   5.693   5.700   3.172  0.4178  0.0608  0.3810
 3920SOL    HW113181   5.620   5.647   3.140 -1.6850  3.0178 -0.1142
 3920SOL    HW213182   5.666   5.728   3.259  1.0714  0.9753  0.3026
 3921SOL     OW13183   5.468   6.972   6.345 -0.4205  0.2416  0.0347
 3921SOL    HW113184   5.542   6.949   6.401  0.0086  0.7698 -0.3094
 3921SOL    HW213185   5.459   7.066   6.355 -0.1057  0.4055 -1.0653
 3922SOL     OW13186   6.956   0.805   3.868 -0.1160  0.2796 -0.1433
 3922SOL    HW113187   6.972   0.898   3.882 -0.2056  0.3433 -0.4737
 3922SOL    HW213188   6.869   0.789   3.906  0.7207 -0.0879  1.7506
 3923SOL     OW13189   7.018   6.451   5.102  0.0624  0.6159  0.7816
 3923SOL    HW113190   7.047   6.537   5.132  1.6637 -0.6009  3.0655
 3923SOL    HW213191   7.089   6.420   5.046 -0.6134  0.8249 -0.2230
 3924SOL     OW13192   8.278   0.173   2.553 -0.4176 -0.2381 -0.0394
 3924SOL    HW113193   8.372   0.178   2.573 -0.2772 -0.6080 -0.6062
 3924SOL    HW213194   8.236   0.196   2.636  0.1629 -1.0144  0.4880
 3925SOL     OW13195   9.106   5.373   0.133 -0.1870  0.0429  0.2254
 3925SOL    HW113196   9.050   5.424   0.074 -0.1734 -1.8049 -1.4837
 3925SOL    HW213197   9.098   5.283   0.102  1.5711 -0.6780  1.6921
 3926SOL     OW13198   2.511   4.666   8.488 -0.2309 -0.3936  0.3886
 3926SOL    HW113199   2.458   4.590   8.466 -2.4424  0.8311  1.1977
 3926SOL    HW213200   2.597   4.630   8.511 -0.5645 -2.4269 -1.2444
 3927SOL     OW13201   8.989   1.207   7.376  0.2536 -0.8354 -0.3561
 3927SOL    HW113202   8.986   1.152   7.455 -0.0046 -0.8298 -0.3609
 3927SOL    HW213203   9.079   1.201   7.346  0.5461 -0.2288  0.3738
 3928SOL     OW13204   6.932   3.647   7.549 -0.4751 -0.4406  0.3884
 3928SOL    HW113205   6.866   3.715   7.533 -2.5574 -2.2094  1.0795
 3928SOL    HW213206   6.990   3.652   7.473 -2.8329 -0.3917 -1.5166
 3929SOL     OW13207   7.411   0.574   0.821 -0.4852 -0.1605  0.3969
 3929SOL    HW113208   7.397   0.484   0.849  1.6563 -0.3222  1.1200
 3929SOL    HW213209   7.404   0.626   0.901 -1.2296  0.2739  0.0627
 3930SOL     OW13210   8.911   0.099   6.634  0.5353  0.1710 -0.8024
 3930SOL    HW113211   8.827   0.134   6.604  0.0608 -1.1920 -1.1352
 3930SOL    HW213212   8.958   0.176   6.667 -1.0684  0.8936 -0.0241
 3931SOL     OW13213   7.929   6.209   8.860 -0.0970  0.4715 -0.0084
 3931SOL    HW113214   7.980   6.194   8.940 -1.5306 -3.0336  0.4244
 3931SOL    HW213215   7.911   6.303   8.861  1.5404  0.8791  2.7645
 3932SOL     OW13216   3.490   1.460   4.154  0.1567  0.9250 -0.3595
 3932SOL    HW113217   3.426   1.439   4.086  1.8705 -1.0024 -1.4935
 3932SOL    HW213218   3.565   1.494   4.106  0.1231  2.9321  0.9200
 3933SOL     OW13219   7.962   0.520   3.813  0.0513  0.3770 -0.1129
 3933SOL    HW113220   8.012   0.481   3.741 -1.0288 -1.2191 -0.0556
 3933SOL    HW213221   8.015   0.594   3.842  1.9312 -0.6971 -0.6364
 3934SOL     OW13222   3.515   2.686   0.789  0.1556  0.0511 -0.3028
 3934SOL    HW113223   3.590   2.626   0.789 -0.5119 -0.9081 -2.9032
 3934SOL    HW213224   3.440   2.628   0.800 -0.4887  0.3407 -2.6430
 3935SOL     OW13225   2.630   2.184   7.441  0.1941 -0.2656 -0.0236
 3935SOL    HW113226   2.557   2.167   7.382  1.6018 -0.9550 -1.6783
 3935SOL    HW213227   2.602   2.148   7.525 -2.6815  2.5415  0.3720
 3936SOL     OW13228   0.847   5.292   4.067  0.5388 -0.2915 -0.5194
 3936SOL    HW113229   0.874   5.326   3.982  1.2345  2.2066  0.5885
 3936SOL    HW213230   0.920   5.313   4.126  0.5333 -2.8713  0.5472
 3937SOL     OW13231   3.369   0.196   4.638  0.2966 -0.0406  0.3446
 3937SOL    HW113232   3.435   0.256   4.604  2.9008 -2.3609  0.9237
 3937SOL    HW213233   3.377   0.204   4.733 -0.5045 -0.1382  0.4271
 3938SOL     OW13234   2.996   3.527   6.086 -0.2996 -0.2434 -0.3482
 3938SOL    HW113235   3.078   3.522   6.038 -0.4174  1.2771 -0.7809
 3938SOL    HW213236   3.003   3.461   6.154  0.2364 -1.8535 -1.8969
 3939SOL     OW13237   0.053   2.748   1.239  0.0884 -0.4757  0.2949
 3939SOL    HW113238   0.043   2.686   1.166 -0.0503 -0.9307  0.6969
 3939SOL    HW213239   0.146   2.767   1.241  0.0555 -0.2414 -0.1804
 3940SOL     OW13240   2.394   1.546   7.010  0.2680  0.0015 -0.2151
 3940SOL    HW113241   2.445   1.576   7.085  1.0694 -0.2935 -0.6287
 3940SOL    HW213242   2.369   1.627   6.965 -0.4419  0.1959  0.4948
 3941SOL     OW13243   0.043   3.844   0.197 -0.6006 -0.1009  0.1641
 3941SOL    HW113244   0.065   3.779   0.264 -2.0647 -1.6619 -0.7727
 3941SOL    HW213245   0.125   3.858   0.149 -0.2275 -1.2418  0.4345
 3942SOL     OW13246   7.586   8.006   4.714 -0.2115 -0.3527 -0.0455
 3942SOL    HW113247   7.512   7.998   4.774  0.5394  0.2200  0.9851
 3942SOL    HW213248   7.646   7.936   4.740  0.6586  0.6361  0.6921
 3943SOL     OW13249   0.051   1.869   5.835  0.1440 -0.2400  0.2334
 3943SOL    HW113250   0.024   1.790   5.882  1.1277 -0.6968  0.0579
 3943SOL    HW213251   0.134   1.894   5.876  0.4955 -0.0550 -0.5821
 3944SOL     OW13252   6.773   0.450   1.015  0.1383 -0.1043  0.2297
 3944SOL    HW113253   6.815   0.529   0.982  0.0379  0.4029  1.2645
 3944SOL    HW213254   6.840   0.410   1.072  1.4491 -2.5829 -2.7978
 3945SOL     OW13255   0.762   0.504   2.524  0.0343  0.3545 -0.2302
 3945SOL    HW113256   0.691   0.493   2.461  1.0332  1.6251 -1.6581
 3945SOL    HW213257   0.829   0.442   2.494  0.5501  1.0307 -0.5082
 3946SOL     OW13258   7.743   2.542   4.054 -0.0063 -0.0306  0.3531
 3946SOL    HW113259   7.653   2.573   4.066  0.0045 -0.3278  1.2956
 3946SOL    HW213260   7.797   2.621   4.059 -0.0964 -0.0223  1.3066
 3947SOL     OW13261   5.099   5.772   0.023 -0.3036 -0.5648  0.1478
 3947SOL    HW113262   5.125   5.790  -0.067  0.8393  0.4281  0.6541
 3947SOL    HW213263   5.174   5.799   0.076 -1.1814 -0.5666  1.4437
 3948SOL     OW13264   0.530   6.209   4.905  0.3060  0.0853 -0.3523
 3948SOL    HW113265   0.610   6.257   4.886  0.3846 -0.0414 -0.3475
 3948SOL    HW213266   0.526   6.205   5.001 -0.2413  0.9766 -0.3259
 3949SOL     OW13267   2.771   1.824   0.617  0.0097 -0.1941  0.2649
 3949SOL    HW113268   2.743   1.734   0.633 -0.6310  0.3653  2.7337
 3949SOL    HW213269   2.695   1.867   0.578  0.4903 -0.7885 -1.4273
 3950SOL     OW13270   2.535   0.450   5.728  0.0101 -0.3204  0.2099
 3950SOL    HW113271   2.475   0.516   5.764  0.5961  1.2713 -1.5063
 3950SOL    HW213272   2.615   0.499   5.711  0.4920 -1.5064 -1.0678
 3951SOL     OW13273   6.231   3.355   8.641  0.2489  0.0893 -0.1669
 3951SOL    HW113274   6.147   3.390   8.612 -0.9611 -2.0632  0.4929
 3951SOL    HW213275   6.247   3.281   8.583  2.1160  0.9014 -0.7660
 3952SOL     OW13276   0.264   2.049   7.187 -0.1467 -0.2341  0.9520
 3952SOL    HW113277   0.343   2.063   7.134 -0.5638 -0.3721  0.2843
 3952SOL    HW213278   0.239   1.959   7.168 -0.3336 -0.2689  1.3536
 3953SOL     OW13279   1.957   5.268   0.622 -0.5411 -0.3106  0.4588
 3953SOL    HW113280   1.985   5.270   0.530 -2.1945  1.1783 -0.0710
 3953SOL    HW213281   1.991   5.349   0.660  0.2044 -0.9593  1.1911
 3954SOL     OW13282   2.554   0.848   4.613  0.0165  0.0846 -0.4343
 3954SOL    HW113283   2.544   0.943   4.607  1.5090  0.3944  1.1349
 3954SOL    HW213284   2.648   0.833   4.600 -0.0045 -1.0461  0.5687
 3955SOL     OW13285   3.680   4.244   2.976 -0.1812 -0.2550 -0.1292
 3955SOL    HW113286   3.735   4.190   2.920 -1.2058 -1.6323  0.1628
 3955SOL    HW213287   3.618   4.286   2.917 -0.4882 -0.7609 -0.1692
 3956SOL     OW13288   3.667   5.499   9.149 -0.3114 -0.5731 -0.4892
 3956SOL    HW113289   3.649   5.579   9.199  2.5639  0.0075 -0.2248
 3956SOL    HW213290   3.675   5.529   9.059 -2.5472 -1.1642 -0.9429
 3957SOL     OW13291   0.520   4.797   3.932 -0.0021  0.3465 -0.1848
 3957SOL    HW113292   0.518   4.767   4.023  0.1950  1.1603  0.0919
 3957SOL    HW213293   0.552   4.887   3.936  0.5951  0.1945 -1.1147
 3958SOL     OW13294   2.827   5.976   2.128 -0.5808  0.2735 -0.4429
 3958SOL    HW113295   2.852   6.061   2.093 -2.5010  0.0327 -2.6218
 3958SOL    HW213296   2.732   5.982   2.141 -0.7932 -1.5522 -0.8107
 3959SOL     OW13297   3.660   4.532   0.249 -0.3946 -0.2352 -0.7003
 3959SOL    HW113298   3.606   4.560   0.175 -2.1204 -1.2812  0.0989
 3959SOL    HW213299   3.613   4.564   0.326  1.0377  0.2769 -0.0040
 3960SOL     OW13300   8.663   2.061   1.945 -0.1743  0.3300 -0.4203
 3960SOL    HW113301   8.620   2.135   1.986 -1.3581 -0.3171 -0.4649
 3960SOL    HW213302   8.623   1.984   1.984 -0.1622 -0.2976 -1.5816
 3961SOL     OW13303   7.204   0.292   8.016 -0.1834 -0.1127  0.5764
 3961SOL    HW113304   7.252   0.210   8.020 -2.8051 -1.7513  0.6503
 3961SOL    HW213305   7.183   0.312   8.108  0.9006  0.9851  0.6142
 3962SOL     OW13306   7.204   4.520   5.360 -0.2515 -0.2857 -0.0583
 3962SOL    HW113307   7.277   4.476   5.316 -2.1340 -1.9476 -1.7613
 3962SOL    HW213308   7.225   4.613   5.354  2.3946 -0.7398  0.8559
 3963SOL     OW13309   8.797   1.520   8.559  0.2130  0.1397  0.1670
 3963SOL    HW113310   8.858   1.446   8.550 -1.0218 -1.0304  1.0911
 3963SOL    HW213311   8.818   1.577   8.485  1.6683 -0.7777 -0.1744
 3964SOL     OW13312   2.075   1.389   3.429  0.0226 -0.3210  0.2329
 3964SOL    HW113313   2.088   1.479   3.457  2.2157 -0.5811  0.2642
 3964SOL    HW213314   2.149   1.341   3.467  1.5168 -1.2675 -3.3867
 3965SOL     OW13315   5.399   8.011   4.059 -0.1897  0.1540 -0.4277
 3965SOL    HW113316   5.449   7.932   4.080  2.3054  1.5673 -0.6259
 3965SOL    HW213317   5.381   8.003   3.966  1.6731  0.5776 -0.8773
 3966SOL     OW13318   8.639   0.780   2.014 -0.4441  0.0665  0.5873
 3966SOL    HW113319   8.650   0.687   2.034 -1.7639  0.4500  3.5675
 3966SOL    HW213320   8.654   0.824   2.097  0.0189  2.5534 -0.7258
 3967SOL     OW13321   3.310   7.100   1.565 -0.3400  0.0916  0.6950
 3967SOL    HW113322   3.321   7.072   1.474 -1.4510 -0.3686  0.6840
 3967SOL    HW213323   3.238   7.162   1.563 -0.2322  0.2410  1.2299
 3968SOL     OW13324   6.042   6.501   6.875  0.4883 -0.4644  0.0883
 3968SOL    HW113325   6.004   6.416   6.897  1.9015 -0.9491  0.7783
 3968SOL    HW213326   6.135   6.483   6.861  0.5751  0.7502 -1.1358
 3969SOL     OW13327   7.048   8.379   8.714  0.3586  1.2849 -0.3422
 3969SOL    HW113328   7.022   8.415   8.799  0.9884  0.8773  0.0266
 3969SOL    HW213329   6.982   8.312   8.695  0.7573  0.7046  0.2838
 3970SOL     OW13330   1.163   1.516   6.185  0.0657  0.2429  0.0398
 3970SOL    HW113331   1.202   1.530   6.099  1.5171 -0.8666  0.4734
 3970SOL    HW213332   1.098   1.447   6.172  1.1709 -0.8376  0.0198
 3971SOL     OW13333   1.473   7.682   0.312  0.6800 -0.8798  0.4751
 3971SOL    HW113334   1.471   7.590   0.283  1.6405 -0.2952 -1.6280
 3971SOL    HW213335   1.531   7.725   0.250 -2.6094  1.9380 -0.9628
 3972SOL     OW13336   6.214   7.798   6.179  0.2252  0.3064  0.1865
 3972SOL    HW113337   6.281   7.796   6.247  2.2590  0.6924 -1.6854
 3972SOL    HW213338   6.157   7.871   6.203  1.3786  0.9462  1.0387
 3973SOL     OW13339   4.133   2.376   1.877  0.7015 -0.0237  0.1963
 3973SOL    HW113340   4.103   2.463   1.849  1.7005  0.3205  0.1496
 3973SOL    HW213341   4.060   2.341   1.927 -0.6735 -0.1557 -1.7890
 3974SOL     OW13342   0.566   2.497   6.646 -0.3910 -0.5544 -0.0332
 3974SOL    HW113343   0.598   2.587   6.634  1.1621 -1.2277 -1.3251
 3974SOL    HW213344   0.631   2.443   6.602 -1.4945 -2.3021  0.4070
 3975SOL     OW13345   5.075   3.061   1.624 -0.2108  0.2124 -0.1966
 3975SOL    HW113346   5.088   2.967   1.630 -1.5502 -0.1367 -2.0345
 3975SOL    HW213347   5.052   3.088   1.713 -3.3812 -1.8119 -0.2551
 3976SOL     OW13348   6.589   2.127   0.783  0.0286 -0.1401 -0.2903
 3976SOL    HW113349   6.547   2.075   0.715 -0.8747 -1.6226  1.3000
 3976SOL    HW213350   6.561   2.217   0.766  1.8993 -0.0212 -3.3075
 3977SOL     OW13351   6.898   3.507   0.421 -0.3594 -0.1048 -0.2267
 3977SOL    HW113352   6.885   3.434   0.482  2.2156 -0.2842  0.2484
 3977SOL    HW213353   6.834   3.492   0.351 -1.9078 -1.1095  1.3235
 3978SOL     OW13354   8.579   2.038   2.323 -0.6725 -0.1659 -0.0748
 3978SOL    HW113355   8.502   2.052   2.267  0.3651 -2.1763 -2.1686
 3978SOL    HW213356   8.634   1.978   2.273  2.4774  1.4814  1.1688
 3979SOL     OW13357   6.971   2.121   4.149 -0.2642 -0.4135 -0.7107
 3979SOL    HW113358   6.911   2.061   4.195  1.8219 -0.3500  2.2949
 3979SOL    HW213359   6.915   2.164   4.084 -3.0981 -1.5669  0.7735
 3980SOL     OW13360   4.329   5.603   4.168 -0.4965 -0.1210  0.1549
 3980SOL    HW113361   4.382   5.626   4.091  0.2833  0.3447  0.8198
 3980SOL    HW213362   4.317   5.509   4.161 -1.6632  0.0815 -1.2996
 3981SOL     OW13363   6.517   7.443   8.458 -0.0513  0.4278  0.4894
 3981SOL    HW113364   6.422   7.430   8.452  0.0945 -0.7536  0.6612
 3981SOL    HW213365   6.546   7.376   8.519  0.8869  0.8774  0.5446
 3982SOL     OW13366   7.891   0.378   6.429 -0.3388 -0.6419 -0.1315
 3982SOL    HW113367   7.818   0.353   6.486 -0.6889 -0.5918 -0.5592
 3982SOL    HW213368   7.937   0.446   6.478 -0.8135 -0.3838 -0.0362
 3983SOL     OW13369   5.536   0.872   3.237  0.5381  0.3845 -0.1819
 3983SOL    HW113370   5.537   0.777   3.246  1.2317  0.4341  0.3745
 3983SOL    HW213371   5.552   0.888   3.144 -1.0141 -0.0580 -0.5513
 3984SOL     OW13372   4.897   6.679   8.974  0.5324  0.3285  0.4124
 3984SOL    HW113373   4.833   6.609   8.960  1.3211 -0.0473 -1.6193
 3984SOL    HW213374   4.870   6.719   9.057 -1.7594 -0.4105  0.1031
 3985SOL     OW13375   7.667   6.284   3.910  0.3390  0.4880 -0.1511
 3985SOL    HW113376   7.749   6.318   3.945 -0.1745  1.6414 -0.0087
 3985SOL    HW213377   7.632   6.229   3.980 -0.0590  1.7512  0.6756
 3986SOL     OW13378   9.102   4.326   3.811  0.1245  0.4926 -0.3510
 3986SOL    HW113379   9.198   4.321   3.813  0.0742 -0.7690  1.1676
 3986SOL    HW213380   9.080   4.383   3.885 -0.2957  0.7952 -0.7066
 3987SOL     OW13381   7.436   8.751   8.354 -0.1374  0.1146  0.6909
 3987SOL    HW113382   7.476   8.677   8.307  0.8717  0.5197  0.8939
 3987SOL    HW213383   7.393   8.802   8.286 -0.8623 -0.6645  0.5477
 3988SOL     OW13384   7.920   1.952   6.030 -0.4488 -0.3037  0.2780
 3988SOL    HW113385   7.986   1.915   5.972  0.0370 -0.4488  0.9118
 3988SOL    HW213386   7.970   2.001   6.096 -0.9749 -0.3113  0.6902
 3989SOL     OW13387   7.187   7.489   4.094  0.2995  0.1094 -0.1756
 3989SOL    HW113388   7.135   7.420   4.054  2.1465 -0.6485 -1.4314
 3989SOL    HW213389   7.224   7.449   4.173  0.8167 -0.1539 -0.5392
 3990SOL     OW13390   5.901   4.096   2.403  0.7171  0.0899 -0.1999
 3990SOL    HW113391   5.821   4.083   2.453 -0.5208  0.1527 -2.0674
 3990SOL    HW213392   5.956   4.152   2.459 -0.6946  0.3680  0.9564
 3991SOL     OW13393   4.226   0.303   1.386 -0.1209  0.3371  0.2323
 3991SOL    HW113394   4.159   0.350   1.336  1.1266  1.5159 -0.4040
 3991SOL    HW213395   4.180   0.270   1.463 -1.4735  0.9123 -0.3012
 3992SOL     OW13396   3.583   5.732   5.537  0.4690 -1.0521  0.3968
 3992SOL    HW113397   3.576   5.750   5.443 -0.1430 -0.9356  0.4649
 3992SOL    HW213398   3.596   5.819   5.577 -1.5006 -0.8281  0.6294
 3993SOL     OW13399   7.487   3.309   6.001  0.5054 -0.1089  0.2961
 3993SOL    HW113400   7.428   3.253   6.052  0.1488  0.3989  0.4506
 3993SOL    HW213401   7.508   3.381   6.060  0.8069  0.0176  0.0315
 3994SOL     OW13402   0.572   1.360   6.885  0.2405  0.1834 -0.0764
 3994SOL    HW113403   0.640   1.337   6.948  1.3936  0.1793 -1.2908
 3994SOL    HW213404   0.497   1.387   6.939  0.9297 -0.5574  1.2847
 3995SOL     OW13405   1.914   4.179   0.283  0.1275  0.1949  0.9162
 3995SOL    HW113406   2.008   4.198   0.292  0.2671 -0.6112  1.2834
 3995SOL    HW213407   1.912   4.090   0.248 -0.4876  0.9160 -1.0204
 3996SOL     OW13408   5.909   0.918   1.796 -0.3527 -0.3162 -0.7557
 3996SOL    HW113409   5.873   0.992   1.747  0.4538 -1.1515 -2.7500
 3996SOL    HW213410   5.892   0.938   1.887  0.7114  2.8313 -1.1248
 3997SOL     OW13411   2.467   3.995   4.942 -0.3775  0.3091 -0.2492
 3997SOL    HW113412   2.498   3.915   4.899  2.3243  1.0581  0.1572
 3997SOL    HW213413   2.487   4.065   4.879 -1.8912  0.8289 -0.2162
 3998SOL     OW13414   5.008   7.484   4.889  0.0969  0.3313  0.0239
 3998SOL    HW113415   4.974   7.529   4.812 -0.1408  0.2054  0.0533
 3998SOL    HW213416   4.944   7.415   4.906 -0.5191  1.1197  1.0598
 3999SOL     OW13417   5.956   1.929   2.170  0.4338 -0.0059  0.1640
 3999SOL    HW113418   5.997   1.845   2.187  0.1549 -0.1696  0.0396
 3999SOL    HW213419   5.876   1.928   2.223 -1.4115 -1.2691 -2.4250
 4000SOL     OW13420   6.546   8.933   5.019  0.2527 -0.3289  0.6159
 4000SOL    HW113421   6.633   8.933   4.978 -0.5190  2.1069 -1.2565
 4000SOL    HW213422   6.495   8.872   4.966 -0.1041  1.0100 -0.6325
 4001SOL     OW13423   2.351   2.072   2.728 -0.3465 -0.0048 -0.4629
 4001SOL    HW113424   2.443   2.047   2.721 -0.0250  0.8738  0.4028
 4001SOL    HW213425   2.303   1.989   2.724  0.4998 -0.4891 -0.6880
 4002SOL     OW13426   5.624   3.891   4.911 -0.0673  0.3931  0.6151
 4002SOL    HW113427   5.605   3.851   4.826 -0.3041 -1.5123  1.5157
 4002SOL    HW213428   5.599   3.983   4.900 -0.1469  0.1860 -1.3393
 4003SOL     OW13429   8.259   8.729   1.729 -0.0194  0.0606  0.7490
 4003SOL    HW113430   8.181   8.777   1.701  0.1486 -0.1364 -0.0752
 4003SOL    HW213431   8.232   8.637   1.730  0.2640 -0.0311  0.2374
 4004SOL     OW13432   9.236   7.775   7.947 -0.1637 -0.3181  0.3247
 4004SOL    HW113433   9.160   7.831   7.957  0.3737  0.0514  2.8866
 4004SOL    HW213434   9.311   7.834   7.955  0.4018 -1.2124  2.2867
 4005SOL     OW13435   5.780   6.531   0.437 -0.4970 -0.3350 -0.0546
 4005SOL    HW113436   5.875   6.540   0.437 -0.6167  1.1475 -0.0098
 4005SOL    HW213437   5.756   6.528   0.344 -0.5446  1.1641 -0.1038
 4006SOL     OW13438   0.307   7.684   8.325 -0.5573 -0.1067  0.2018
 4006SOL    HW113439   0.320   7.710   8.234  1.9104 -0.4747  0.3828
 4006SOL    HW213440   0.298   7.767   8.372 -0.6415  0.1348 -0.2345
 4007SOL     OW13441   3.586   4.841   5.682  1.0686 -0.2258 -0.3884
 4007SOL    HW113442   3.580   4.937   5.678 -0.4707 -0.3063 -0.5259
 4007SOL    HW213443   3.598   4.814   5.591  0.8420 -0.1940 -0.4285
 4008SOL     OW13444   4.197   5.094   2.307 -0.3632 -0.5007 -0.2820
 4008SOL    HW113445   4.214   5.125   2.395 -1.2242  1.4267 -0.7497
 4008SOL    HW213446   4.210   4.999   2.312  1.7235 -0.1933  1.3715
 4009SOL     OW13447   2.303   4.820   8.687 -0.7250  0.2243  0.1814
 4009SOL    HW113448   2.338   4.797   8.601  0.3253  0.1015  0.6276
 4009SOL    HW213449   2.289   4.736   8.731 -0.8484  0.2991  0.2849
 4010SOL     OW13450   3.155   4.145   7.357 -0.0564 -0.3926 -0.7359
 4010SOL    HW113451   3.089   4.155   7.425 -0.1004 -0.2847 -0.7943
 4010SOL    HW213452   3.129   4.207   7.289  1.1347  1.0311  0.0445
 4011SOL     OW13453   3.196   3.983   8.811  0.2517 -0.1908 -0.2740
 4011SOL    HW113454   3.177   3.933   8.891 -1.9478  0.9175 -0.0418
 4011SOL    HW213455   3.261   3.930   8.765 -0.1378 -2.0077  1.1558
 4012SOL     OW13456   8.640   2.110   0.202 -0.7984  0.0886 -0.1766
 4012SOL    HW113457   8.639   2.056   0.281  0.1826  0.6586  0.2402
 4012SOL    HW213458   8.645   2.200   0.234  2.7127  0.2556 -0.8365
 4013SOL     OW13459   1.838   1.243   6.535 -0.5754 -0.2424  0.1783
 4013SOL    HW113460   1.923   1.278   6.510 -1.3524  1.3728 -0.3707
 4013SOL    HW213461   1.787   1.320   6.559 -2.3011 -1.0217 -0.8021
 4014SOL     OW13462   1.176   2.865   0.800  0.1769  0.0733  0.1868
 4014SOL    HW113463   1.113   2.826   0.739 -0.4444  0.3145  0.6649
 4014SOL    HW213464   1.171   2.959   0.784 -1.0359  0.2820  1.5572
 4015SOL     OW13465   9.113   2.858   2.288  0.2932  0.1489 -0.3180
 4015SOL    HW113466   9.198   2.885   2.252  0.9488 -0.9279  0.3368
 4015SOL    HW213467   9.135   2.820   2.373 -0.9852  0.8200  0.3307
 4016SOL     OW13468   2.341   3.797   7.906  0.0976 -0.0756 -0.1742
 4016SOL    HW113469   2.284   3.727   7.877  0.2727 -0.8238  1.1785
 4016SOL    HW213470   2.285   3.874   7.911 -1.0973 -1.0048  2.0722
 4017SOL     OW13471   1.413   7.321   5.909  0.1352 -0.1878  0.3261
 4017SOL    HW113472   1.362   7.401   5.901  0.9348  0.2528 -0.7033
 4017SOL    HW213473   1.365   7.256   5.857  0.1524 -0.0283  0.1125
 4018SOL     OW13474   0.940   6.273   5.392  0.3329  0.0631 -0.2142
 4018SOL    HW113475   0.849   6.302   5.384  0.1188 -0.3801  0.4924
 4018SOL    HW213476   0.938   6.205   5.459  1.6099  1.9943  1.9556
 4019SOL     OW13477   5.748   4.177   4.753  0.0029 -0.1932 -0.2967
 4019SOL    HW113478   5.821   4.232   4.783  0.0279  0.3995 -1.3706
 4019SOL    HW213479   5.782   4.133   4.675  0.4298 -2.8210  1.2736
 4020SOL     OW13480   2.258   0.448   1.626 -0.3768 -0.5011 -0.4399
 4020SOL    HW113481   2.269   0.489   1.541  1.5619  0.7213  0.3419
 4020SOL    HW213482   2.302   0.364   1.618  0.3257 -0.1365 -0.4912
 4021SOL     OW13483   3.958   1.909   7.488  0.1960 -0.2075  0.3949
 4021SOL    HW113484   3.866   1.904   7.463  0.2010 -0.7736  0.4849
 4021SOL    HW213485   4.006   1.890   7.407  0.2180 -1.1663  0.6175
 4022SOL     OW13486   5.037   4.852   7.841 -0.2729 -0.6235  0.0334
 4022SOL    HW113487   5.126   4.888   7.839 -1.2709  2.1499 -1.8612
 4022SOL    HW213488   5.029   4.803   7.760 -0.5322 -0.6645  0.0828
 4023SOL     OW13489   6.462   5.731   1.301 -0.2730 -0.0750  0.1129
 4023SOL    HW113490   6.520   5.754   1.229 -0.6737  0.1762 -0.1324
 4023SOL    HW213491   6.472   5.636   1.310 -0.2171 -0.1052 -0.2666
 4024SOL     OW13492   3.466   2.106   6.620 -0.0150 -0.6951  0.2838
 4024SOL    HW113493   3.384   2.060   6.641 -0.5209  0.4067  0.8361
 4024SOL    HW213494   3.453   2.194   6.655  0.5228  0.1883 -1.5779
 4025SOL     OW13495   0.795   6.819   1.029  0.2959 -0.1547  0.0475
 4025SOL    HW113496   0.855   6.816   0.955  0.7984 -2.0162  0.4879
 4025SOL    HW213497   0.848   6.796   1.105 -0.6076 -0.0718  0.7232
 4026SOL     OW13498   2.251   0.948   7.114  0.3967  0.8399 -0.2247
 4026SOL    HW113499   2.228   0.996   7.193 -0.2382  0.6302 -0.2750
 4026SOL    HW213500   2.220   1.003   7.042  1.4956  1.3105 -0.3609
 4027SOL     OW13501   1.540   6.047   9.245  0.6336 -0.0534  0.4829
 4027SOL    HW113502   1.631   6.026   9.267  0.8429 -0.0271 -0.3005
 4027SOL    HW213503   1.531   6.019   9.153 -0.1658 -0.1116  0.5724
 4028SOL     OW13504   2.050   2.654   3.112  0.1945  0.5503 -0.1614
 4028SOL    HW113505   2.015   2.600   3.041  0.2453  1.0987 -0.6079
 4028SOL    HW213506   1.995   2.633   3.187  0.1904 -0.0993 -0.3361
 4029SOL     OW13507   0.030   0.201   2.245  0.2563 -0.4107 -0.0850
 4029SOL    HW113508  -0.041   0.176   2.186  0.5215 -1.1054 -0.1220
 4029SOL    HW213509   0.065   0.118   2.276  0.5866 -0.0622  0.4944
 4030SOL     OW13510   3.345   6.290   7.414  0.3958  0.1762 -0.3647
 4030SOL    HW113511   3.339   6.381   7.444  0.0847 -0.6533  2.3324
 4030SOL    HW213512   3.305   6.239   7.484  0.7058 -2.0794 -1.7400
 4031SOL     OW13513   0.127   7.414   9.041  0.4964  0.3701  0.4392
 4031SOL    HW113514   0.126   7.392   8.947  0.3276  2.0045  0.0205
 4031SOL    HW213515   0.139   7.330   9.085  0.7177 -0.4258 -1.0522
 4032SOL     OW13516   8.197   3.945   1.429 -0.2014 -0.2991 -0.0653
 4032SOL    HW113517   8.137   3.996   1.374  1.0170  0.0210 -1.1480
 4032SOL    HW213518   8.269   3.923   1.370 -0.2428 -2.4742  0.6427
 4033SOL     OW13519   7.530   8.005   2.104  0.5504  0.0990  0.0790
 4033SOL    HW113520   7.485   7.921   2.094 -0.9222  0.9400 -0.8526
 4033SOL    HW213521   7.497   8.058   2.031  1.7841  1.3474  0.3842
 4034SOL     OW13522   7.827   8.683   5.420 -0.1464  0.6979 -0.1278
 4034SOL    HW113523   7.748   8.697   5.472  0.0775  0.0813  0.4043
 4034SOL    HW213524   7.833   8.588   5.410  0.5581  0.7288 -0.0950
 4035SOL     OW13525   0.126   5.499   8.935 -0.3603 -0.1200 -0.2083
 4035SOL    HW113526   0.094   5.577   8.891 -0.0622 -0.9514 -2.0050
 4035SOL    HW213527   0.179   5.531   9.008  0.1447  1.3615 -1.1874
 4036SOL     OW13528   5.761   5.818   4.431 -0.4820 -0.1608  0.2047
 4036SOL    HW113529   5.741   5.841   4.521  0.2188  1.3400 -0.0009
 4036SOL    HW213530   5.796   5.729   4.436 -1.6619 -0.6020  1.2344
 4037SOL     OW13531   2.253   5.830   7.850 -0.1946  0.2003  0.0098
 4037SOL    HW113532   2.280   5.738   7.856  0.9662  0.4160 -1.3544
 4037SOL    HW213533   2.223   5.841   7.759 -0.2119  1.1887  0.1190
 4038SOL     OW13534   3.270   0.938   4.019 -0.1799 -0.4396 -0.5634
 4038SOL    HW113535   3.292   1.031   4.025  0.3534 -0.6083  0.2737
 4038SOL    HW213536   3.314   0.908   3.940  0.6125 -0.2289 -0.2104
 4039SOL     OW13537   8.518   8.787   4.452  0.0712  0.1343  0.1223
 4039SOL    HW113538   8.499   8.756   4.540 -0.5140  1.4277  0.4699
 4039SOL    HW213539   8.591   8.848   4.463  0.8742 -0.6914 -0.4808
 4040SOL     OW13540   0.397   5.369   5.652 -0.0648  0.2272 -0.3941
 4040SOL    HW113541   0.320   5.321   5.622 -0.7201 -0.0630  1.5651
 4040SOL    HW213542   0.380   5.385   5.745  1.7032  1.2330 -0.1977
 4041SOL     OW13543   2.035   2.759   1.529 -0.2343  0.3194 -0.5311
 4041SOL    HW113544   2.105   2.698   1.553  1.6582  2.6946  0.3794
 4041SOL    HW213545   2.052   2.838   1.581 -2.4461  1.7283 -1.7608
 4042SOL     OW13546   7.258   3.606   7.554  0.0869  0.4352  0.0092
 4042SOL    HW113547   7.228   3.577   7.640  1.5093  0.1187  0.4268
 4042SOL    HW213548   7.351   3.628   7.567 -0.1780  2.3901 -0.9664
 4043SOL     OW13549   4.029   8.222   2.676 -0.0444  0.6547  0.1978
 4043SOL    HW113550   3.972   8.208   2.752  1.9082 -0.2783  1.5843
 4043SOL    HW213551   4.108   8.262   2.713  2.3602 -2.8603 -0.6714
 4044SOL     OW13552   0.999   7.820   8.226 -0.4703 -0.2435  0.0980
 4044SOL    HW113553   0.992   7.868   8.309 -0.6320 -1.7750  1.0094
 4044SOL    HW213554   1.091   7.796   8.220 -1.0023 -3.1744  1.6998
 4045SOL     OW13555   5.333   7.231   3.527 -0.2325 -0.4753 -0.4885
 4045SOL    HW113556   5.340   7.205   3.618 -0.9422  0.1506 -0.2524
 4045SOL    HW213557   5.418   7.270   3.506 -0.3468  0.1135  0.1381
 4046SOL     OW13558   6.375   4.560   3.828 -0.2772  0.4108 -0.0934
 4046SOL    HW113559   6.462   4.582   3.860  0.1076 -0.1809 -0.7001
 4046SOL    HW213560   6.337   4.505   3.897 -0.4870  1.3201  0.5324
 4047SOL     OW13561   6.805   7.762   5.931  0.1077  0.1820 -0.1720
 4047SOL    HW113562   6.787   7.846   5.973  0.4893 -0.1010  0.5718
 4047SOL    HW213563   6.893   7.772   5.894  0.3149 -0.0166  0.2591
 4048SOL     OW13564   4.618   5.144   4.951 -0.0048  0.2002  0.1701
 4048SOL    HW113565   4.653   5.055   4.952  0.6882  0.4531 -0.4027
 4048SOL    HW213566   4.621   5.173   5.042  0.3915 -0.1272  0.2628
 4049SOL     OW13567   1.849   8.651   9.002 -0.4389  0.3233  0.1416
 4049SOL    HW113568   1.880   8.586   8.939  1.0299  2.2669 -1.2550
 4049SOL    HW213569   1.914   8.649   9.073  0.2178  0.9666 -0.4211
 4050SOL     OW13570   1.351   0.529   4.208 -0.1652  0.5702 -0.9145
 4050SOL    HW113571   1.361   0.621   4.235 -1.0158 -0.0718  2.0054
 4050SOL    HW213572   1.261   0.507   4.234  1.0648 -1.9586  1.6565
 4051SOL     OW13573   5.750   7.932   4.024  0.5398  0.5390 -0.4140
 4051SOL    HW113574   5.672   7.886   4.054  1.6169 -0.3769  1.1296
 4051SOL    HW213575   5.735   8.023   4.048  1.4258 -0.1570  3.3855
 4052SOL     OW13576   2.512   8.212   3.032  0.5949  0.2597 -0.0058
 4052SOL    HW113577   2.562   8.145   2.984 -3.5377 -2.1758 -1.4216
 4052SOL    HW213578   2.485   8.274   2.964  1.0962  1.2087  0.6421
 4053SOL     OW13579   6.569   6.599   2.302  0.6476 -0.3385  0.2041
 4053SOL    HW113580   6.507   6.551   2.358 -0.2398  0.5806  0.0420
 4053SOL    HW213581   6.566   6.553   2.218 -0.0865 -0.1142  0.0955
 4054SOL     OW13582   7.388   8.533   6.193 -0.1072  0.3911  0.1624
 4054SOL    HW113583   7.330   8.466   6.158  0.7738 -0.9299  1.1171
 4054SOL    HW213584   7.399   8.595   6.121 -0.0226 -1.1107 -1.1962
 4055SOL     OW13585   7.759   5.670   6.207  0.6112 -0.1010 -0.3438
 4055SOL    HW113586   7.684   5.617   6.182 -0.0325  1.6465 -2.4794
 4055SOL    HW213587   7.835   5.619   6.179  0.0778 -0.6107 -0.8899
 4056SOL     OW13588   7.692   2.612   5.724  0.0021  0.4222 -0.0135
 4056SOL    HW113589   7.599   2.601   5.745  0.2442  0.3599  1.1071
 4056SOL    HW213590   7.693   2.664   5.644 -0.9876  2.0302  0.9633
 4057SOL     OW13591   8.679   3.935   9.217  0.5603  0.0432  0.3177
 4057SOL    HW113592   8.625   4.014   9.219  0.8121  0.2047  1.2332
 4057SOL    HW213593   8.617   3.863   9.217  0.3307  0.2314 -0.4579
 4058SOL     OW13594   1.678   7.426   2.933 -0.4611  0.1603 -0.5446
 4058SOL    HW113595   1.657   7.472   3.014 -2.1855 -1.5605  0.0709
 4058SOL    HW213596   1.658   7.488   2.864 -1.1541  0.8806  0.2862
 4059SOL     OW13597   0.927   8.160   5.446  0.1788  0.0657  0.0220
 4059SOL    HW113598   1.006   8.213   5.446  0.1019  0.1876  0.7588
 4059SOL    HW213599   0.957   8.072   5.467  0.1974 -0.0204 -0.3548
 4060SOL     OW13600   3.403   4.396   4.554  0.3301  0.4760  0.3347
 4060SOL    HW113601   3.424   4.465   4.618  2.0460 -0.2078  0.5713
 4060SOL    HW213602   3.378   4.444   4.475 -2.2702  1.3505  1.5706
 4061SOL     OW13603   8.596   3.057   1.887 -0.1399  0.0830 -0.3003
 4061SOL    HW113604   8.673   3.114   1.884  1.3228 -1.8314 -2.1443
 4061SOL    HW213605   8.624   2.976   1.844 -2.5412 -1.5316  0.9369
 4062SOL     OW13606   5.722   6.719   8.739 -0.7024 -0.2063 -0.0391
 4062SOL    HW113607   5.762   6.639   8.775 -1.5898  0.1606  1.9074
 4062SOL    HW213608   5.640   6.689   8.701 -0.7875 -0.3092  0.2191
 4063SOL     OW13609   4.590   7.489   8.242 -0.1147 -0.3683 -0.4862
 4063SOL    HW113610   4.547   7.460   8.161  0.0196 -0.7106 -0.4373
 4063SOL    HW213611   4.682   7.501   8.217 -0.3328  0.9636 -0.7464
 4064SOL     OW13612   0.773   1.232   5.957 -0.2195  0.1955  0.0031
 4064SOL    HW113613   0.842   1.166   5.959 -2.0780 -1.8522  2.4750
 4064SOL    HW213614   0.693   1.183   5.936 -1.6091  1.7123  1.4861
 4065SOL     OW13615   0.378   2.976   2.090  0.2854 -0.0431 -0.0649
 4065SOL    HW113616   0.418   2.981   2.176  1.9441  2.2147 -0.8562
 4065SOL    HW213617   0.284   2.971   2.107  0.5458  0.8563  1.8669
 4066SOL     OW13618   9.090   7.585   2.813  0.3041 -0.5290  0.4372
 4066SOL    HW113619   9.026   7.600   2.743  0.1329  0.5404  0.7976
 4066SOL    HW213620   9.172   7.569   2.767  0.1382 -0.0963 -0.0246
 4067SOL     OW13621   3.168   3.484   8.833 -0.1092  0.5659  0.0702
 4067SOL    HW113622   3.210   3.448   8.911  0.4786  2.0490  0.4705
 4067SOL    HW213623   3.121   3.409   8.794  0.4715 -0.4388  1.2350
 4068SOL     OW13624   7.693   5.101   6.758  0.3309  0.3776 -0.5556
 4068SOL    HW113625   7.600   5.085   6.741 -1.0176  5.1745  0.8031
 4068SOL    HW213626   7.724   5.145   6.679  1.2086 -0.3182 -0.6087
 4069SOL     OW13627   4.393   3.661   0.796 -0.5072  0.2135  0.3895
 4069SOL    HW113628   4.422   3.571   0.808 -0.7762 -0.1006 -1.1121
 4069SOL    HW213629   4.300   3.660   0.819 -0.4831  0.1277  0.4823
 4070SOL     OW13630   3.917   5.060   2.458 -0.0040  0.1157 -0.0306
 4070SOL    HW113631   3.936   5.016   2.540 -0.8070  1.7368  1.0903
 4070SOL    HW213632   3.965   5.011   2.392  0.9775 -0.9925  1.4565
 4071SOL     OW13633   7.205   9.222   6.124 -0.0771  0.1523 -0.2233
 4071SOL    HW113634   7.278   9.181   6.078 -0.5444 -1.1272  0.1373
 4071SOL    HW213635   7.245   9.262   6.202  0.3141 -0.0680 -0.3080
 4072SOL     OW13636   5.910   2.012   2.987 -0.4305  0.1779  0.1618
 4072SOL    HW113637   6.003   1.992   2.991 -0.6939 -0.9775  1.5813
 4072SOL    HW213638   5.885   1.990   2.897  0.5628  0.0428 -0.0963
 4073SOL     OW13639   0.867   1.656   6.172 -0.1099 -0.4001 -0.2991
 4073SOL    HW113640   0.905   1.603   6.102  0.9074  0.5002 -0.4505
 4073SOL    HW213641   0.936   1.661   6.238 -1.0120 -1.1361  0.7260
 4074SOL     OW13642   1.552   4.113   8.627  0.1544 -0.0416 -0.2578
 4074SOL    HW113643   1.581   4.087   8.715 -1.2792 -0.7199  0.0304
 4074SOL    HW213644   1.475   4.168   8.642 -0.1590 -0.2386 -1.0944
 4075SOL     OW13645   1.946   0.825   3.795  0.5704  0.1533  0.3663
 4075SOL    HW113646   1.864   0.867   3.821  0.5127 -0.4553  1.2028
 4075SOL    HW213647   2.008   0.898   3.784  0.6440  0.4596  2.4169
 4076SOL     OW13648   0.370   7.916   1.472  0.1410  0.4457 -0.1856
 4076SOL    HW113649   0.373   7.994   1.416 -0.7308 -0.8017 -2.0626
 4076SOL    HW213650   0.277   7.902   1.489  0.3876  0.7486  1.5578
 4077SOL     OW13651   1.681   1.736   4.981 -0.0597  0.4305  0.1804
 4077SOL    HW113652   1.594   1.768   5.008 -0.3461  0.7828 -1.0856
 4077SOL    HW213653   1.663   1.658   4.929  0.3635  0.5492 -0.1530
 4078SOL     OW13654   8.391   7.772   0.611 -0.5143  0.4598  0.0295
 4078SOL    HW113655   8.426   7.795   0.697 -1.3866  0.2408  0.4576
 4078SOL    HW213656   8.334   7.845   0.588  0.3612  0.9198 -0.7641
 4079SOL     OW13657   7.494   2.909   1.457 -0.4719 -0.0887  0.1874
 4079SOL    HW113658   7.562   2.879   1.518 -0.0109  2.1760  0.8967
 4079SOL    HW213659   7.476   2.999   1.484 -0.6567  0.8428 -2.6907
 4080SOL     OW13660   0.385   7.262   7.665  0.4247  0.2888  0.4414
 4080SOL    HW113661   0.428   7.343   7.634 -0.2242  0.1620 -0.8645
 4080SOL    HW213662   0.308   7.253   7.609  1.1579 -1.9118 -0.3067
 4081SOL     OW13663   8.679   7.347   8.033  0.8575  0.2418 -0.4093
 4081SOL    HW113664   8.588   7.330   8.057  0.8599 -2.1905 -1.8541
 4081SOL    HW213665   8.687   7.443   8.039 -1.3636  0.4114  1.1063
 4082SOL     OW13666   7.369   2.402   7.432 -0.1857  0.0812  0.2375
 4082SOL    HW113667   7.447   2.353   7.406  0.3160  0.9391  0.0654
 4082SOL    HW213668   7.310   2.336   7.468  0.2138 -0.7347 -0.5523
 4083SOL     OW13669   6.701   7.195   1.155  0.1029 -0.4056 -0.2151
 4083SOL    HW113670   6.748   7.175   1.073  0.2161 -1.0833  0.0056
 4083SOL    HW213671   6.613   7.219   1.126 -0.0546 -1.2858 -0.5097
 4084SOL     OW13672   1.182   8.599   4.121  0.2059 -0.6942 -0.0365
 4084SOL    HW113673   1.163   8.509   4.096 -0.2432 -0.6222  0.0299
 4084SOL    HW213674   1.277   8.602   4.131  0.3737 -0.7881 -1.4669
 4085SOL     OW13675   1.253   8.374   6.380 -0.4573  0.6545  0.6543
 4085SOL    HW113676   1.319   8.333   6.325  1.4852  0.8473  2.7038
 4085SOL    HW213677   1.232   8.456   6.335 -1.3353 -0.5972 -1.3642
 4086SOL     OW13678   8.605   7.127   8.513  0.6937 -0.3678  0.0890
 4086SOL    HW113679   8.643   7.059   8.568  1.8591 -2.0179 -2.5338
 4086SOL    HW213680   8.679   7.184   8.490 -0.1616  1.5713  1.8018
 4087SOL     OW13681   0.264   5.795   5.888 -0.6679 -0.4269  0.3893
 4087SOL    HW113682   0.318   5.789   5.809 -1.2623  0.1596 -0.0713
 4087SOL    HW213683   0.297   5.724   5.944  0.4659 -0.1898  0.0606
 4088SOL     OW13684   7.775   6.567   9.268 -0.5532 -0.1727 -0.0967
 4088SOL    HW113685   7.682   6.578   9.287 -0.6139 -0.3033 -0.3136
 4088SOL    HW213686   7.781   6.480   9.228 -0.1291 -0.7918  1.2825
 4089SOL     OW13687   3.200   7.477   5.961 -0.1509  0.2324  0.6481
 4089SOL    HW113688   3.113   7.504   5.990 -0.3113  3.9026 -2.4467
 4089SOL    HW213689   3.259   7.544   5.995  1.2379 -1.1465  1.0832
 4090SOL     OW13690   5.908   4.212   1.210  0.2756  0.7143 -0.3966
 4090SOL    HW113691   5.953   4.152   1.151 -1.2220  1.5473 -2.5101
 4090SOL    HW213692   5.820   4.175   1.219 -0.3679  2.0436 -0.9625
 4091SOL     OW13693   5.391   3.883   3.499 -0.4777 -0.0505 -0.0619
 4091SOL    HW113694   5.370   3.964   3.452 -1.2838 -0.4161 -0.3566
 4091SOL    HW213695   5.425   3.913   3.584 -0.0883  0.6017 -0.4425
 4092SOL     OW13696   4.964   3.898   0.985  0.0106  0.3582  0.4891
 4092SOL    HW113697   4.956   3.983   0.940  0.1326  0.5895  0.8980
 4092SOL    HW213698   4.875   3.879   1.015 -0.5114 -0.7713 -1.5572
 4093SOL     OW13699   1.123   8.222   1.326 -0.4127  0.0944  0.2378
 4093SOL    HW113700   1.079   8.149   1.370  1.1908 -0.7324  0.5636
 4093SOL    HW213701   1.163   8.272   1.397 -0.2197  0.4070 -0.0909
 4094SOL     OW13702   6.921   7.698   1.517  0.2814  0.0682 -0.0055
 4094SOL    HW113703   6.845   7.745   1.553 -0.1349 -0.7956  0.2730
 4094SOL    HW213704   6.885   7.615   1.485  1.3272 -0.9998  1.4643
 4095SOL     OW13705   5.895   1.551   5.806  0.2565  0.2317 -0.1387
 4095SOL    HW113706   5.890   1.572   5.899  1.4944  0.3356 -0.0697
 4095SOL    HW213707   5.970   1.601   5.774 -0.1234  0.1639 -1.1882
 4096SOL     OW13708   1.803   0.233   0.298 -0.1620 -0.3318  0.0128
 4096SOL    HW113709   1.759   0.317   0.316 -0.1240 -0.1579 -0.6697
 4096SOL    HW213710   1.733   0.168   0.303 -0.1007 -0.3302  1.0442
 4097SOL     OW13711   3.936   0.836   4.671 -0.8615 -0.6204 -0.1670
 4097SOL    HW113712   3.990   0.879   4.738 -1.4125 -1.8498  1.1073
 4097SOL    HW213713   3.901   0.909   4.619 -2.6205  0.6603  2.5629
 4098SOL     OW13714   2.834   3.038   5.881 -0.0473  0.2061  0.8579
 4098SOL    HW113715   2.800   3.123   5.854 -0.8703  0.1314  1.6280
 4098SOL    HW213716   2.756   2.984   5.895  0.4302 -1.6697 -2.5083
 4099SOL     OW13717   1.732   3.908   8.836  0.0882 -0.1083  0.1059
 4099SOL    HW113718   1.649   3.954   8.831  0.6959  0.9214 -0.9428
 4099SOL    HW213719   1.709   3.818   8.858 -1.3386  0.0184 -0.7903
 4100SOL     OW13720   2.474   8.835   0.160 -0.1874  0.1996  0.1367
 4100SOL    HW113721   2.409   8.822   0.229  0.9205  0.3232  1.2317
 4100SOL    HW213722   2.534   8.900   0.196 -0.6499  1.7559 -1.7297
 4101SOL     OW13723   6.941   9.219   7.907  0.8182  0.1300  0.2386
 4101SOL    HW113724   6.918   9.130   7.882 -1.7943  0.1607  2.2020
 4101SOL    HW213725   6.991   9.209   7.988  0.0417  0.4582  0.7632
 4102SOL     OW13726   4.467   1.022   9.204 -0.5260  0.1307 -0.1976
 4102SOL    HW113727   4.506   0.993   9.287 -0.2515  0.2455 -0.2865
 4102SOL    HW213728   4.375   1.035   9.225 -0.2635  1.2107  0.3785
 4103SOL     OW13729   8.390   8.747   1.196  0.3736  0.1783  0.8945
 4103SOL    HW113730   8.466   8.775   1.247  0.6969  0.4019  0.2967
 4103SOL    HW213731   8.397   8.795   1.114 -0.3965  0.1724  0.8152
 4104SOL     OW13732   6.681   7.637   8.308 -0.2612 -0.2059 -0.2514
 4104SOL    HW113733   6.747   7.630   8.376  0.2361  0.9006 -0.5939
 4104SOL    HW213734   6.609   7.581   8.338  0.5401 -0.8877  0.4557
 4105SOL     OW13735   3.061   4.912   3.003  0.1159 -0.4033 -0.2446
 4105SOL    HW113736   3.054   4.843   2.937 -2.0068  1.1431 -1.7680
 4105SOL    HW213737   3.097   4.987   2.955  0.2859  0.2246  0.8368
 4106SOL     OW13738   2.966   5.053   6.971  0.0342 -0.2439 -0.3875
 4106SOL    HW113739   2.970   5.132   7.024 -1.2125 -0.1032 -0.4876
 4106SOL    HW213740   2.997   4.983   7.029 -3.0264 -0.4323  1.2367
 4107SOL     OW13741   3.959   8.395   6.108  0.0600 -0.0594  0.3329
 4107SOL    HW113742   3.970   8.417   6.200  0.2689 -1.0045  0.5426
 4107SOL    HW213743   3.898   8.461   6.075 -1.7393 -0.9569  1.6739
 4108SOL     OW13744   3.264   1.870   0.572  0.5647  0.1413 -0.8913
 4108SOL    HW113745   3.263   1.834   0.483 -1.1201 -0.6819 -0.5789
 4108SOL    HW213746   3.190   1.827   0.616  1.0066  0.9731  0.7357
 4109SOL     OW13747   2.189   6.493   2.152  0.1095 -0.2154 -0.1725
 4109SOL    HW113748   2.098   6.474   2.175 -0.0812  0.4995 -0.3223
 4109SOL    HW213749   2.192   6.485   2.056 -0.4343  2.3145 -0.4642
 4110SOL     OW13750   0.081   3.536   0.686  0.0989  0.1714  0.1837
 4110SOL    HW113751   0.027   3.497   0.755  0.8890 -0.5602  0.4200
 4110SOL    HW213752   0.155   3.575   0.733  0.4457  0.0070 -0.2124
 4111SOL     OW13753   8.783   8.090   5.464  0.0955 -0.4858 -0.3619
 4111SOL    HW113754   8.868   8.079   5.421  1.2738  0.5618  1.5415
 4111SOL    HW213755   8.758   8.001   5.490 -0.8829 -1.2134 -3.4436
 4112SOL     OW13756   3.918   4.439   5.627 -0.6976  0.1072  0.2767
 4112SOL    HW113757   3.917   4.428   5.722 -1.2115 -1.0145  0.1567
 4112SOL    HW213758   3.985   4.377   5.597 -2.2716 -1.3993 -0.2703
 4113SOL     OW13759   2.205   4.200   1.078  0.4583  0.4306 -0.4486
 4113SOL    HW113760   2.246   4.284   1.062 -1.2368  2.3317  3.6244
 4113SOL    HW213761   2.262   4.157   1.143  0.0391 -0.4509 -0.6430
 4114SOL     OW13762   3.865   8.617   1.340  0.6141 -0.1766 -0.3299
 4114SOL    HW113763   3.885   8.535   1.385  1.1536  0.4763  0.6472
 4114SOL    HW213764   3.844   8.679   1.410  1.3424  0.8283 -0.9590
 4115SOL     OW13765   0.499   7.319   1.195 -0.8815 -0.4422  0.5249
 4115SOL    HW113766   0.523   7.390   1.254  0.6060 -1.8954  1.7601
 4115SOL    HW213767   0.440   7.264   1.246 -1.8153 -0.2665 -0.3298
 4116SOL     OW13768   6.512   8.416   4.719  0.2822  0.9606  0.2442
 4116SOL    HW113769   6.575   8.477   4.680  1.1114 -1.2273 -2.1398
 4116SOL    HW213770   6.550   8.393   4.803  2.0351  0.7123 -0.5665
 4117SOL     OW13771   5.929   6.660   5.513 -0.5663 -0.3729  0.1312
 4117SOL    HW113772   5.991   6.729   5.538 -2.4247  1.9477 -1.2262
 4117SOL    HW213773   5.844   6.693   5.542 -1.3767 -2.8133  0.7124
 4118SOL     OW13774   5.374   1.037   3.687 -0.0889  0.3690 -0.6027
 4118SOL    HW113775   5.361   0.944   3.671 -0.9301  0.4128 -0.2118
 4118SOL    HW213776   5.302   1.062   3.745  0.8855  0.9743  0.3748
 4119SOL     OW13777   2.181   8.627   9.056 -0.5631  0.5943  0.1703
 4119SOL    HW113778   2.191   8.542   9.013 -1.2009  0.1967  0.7965
 4119SOL    HW213779   2.160   8.687   8.985  1.0101  0.4700 -0.4472
 4120SOL     OW13780   8.705   0.518   4.733 -0.2759  0.3408  0.2728
 4120SOL    HW113781   8.684   0.467   4.654  0.2187 -1.7315  1.4150
 4120SOL    HW213782   8.773   0.467   4.777  1.2679  2.7417  0.8001
 4121SOL     OW13783   1.732   1.720   3.294 -0.4803  0.2235 -0.9969
 4121SOL    HW113784   1.800   1.773   3.334  0.0517  0.9379 -2.7478
 4121SOL    HW213785   1.768   1.631   3.293  0.8592  0.7270 -2.6665
 4122SOL     OW13786   2.423   7.396   0.250  0.4107 -0.1067 -0.2494
 4122SOL    HW113787   2.446   7.410   0.342  0.7281 -0.9087 -0.1925
 4122SOL    HW213788   2.493   7.339   0.217 -0.0753 -0.3927 -0.7965
 4123SOL     OW13789   1.970   6.882   3.115  0.0389 -0.3936 -0.3378
 4123SOL    HW113790   1.927   6.893   3.030 -1.4275  0.2812  0.4563
 4123SOL    HW213791   2.005   6.793   3.113 -0.7645 -0.6981 -1.3072
 4124SOL     OW13792   1.960   5.353   1.418 -0.1276 -0.0664 -0.1238
 4124SOL    HW113793   1.895   5.307   1.365 -1.3814  1.4474  0.0208
 4124SOL    HW213794   1.953   5.445   1.391  1.1186  0.3181  0.7457
 4125SOL     OW13795   5.980   0.709   4.380 -0.0173 -0.3945  0.1951
 4125SOL    HW113796   5.980   0.673   4.291 -1.1266  0.1476 -0.0358
 4125SOL    HW213797   6.068   0.744   4.391  0.0710 -0.2840 -0.7658
 4126SOL     OW13798   5.982   4.846   3.411  0.5353  0.0619 -0.0859
 4126SOL    HW113799   5.978   4.925   3.465  1.4373 -1.2761  2.1057
 4126SOL    HW213800   6.044   4.866   3.342  0.4006  1.4119  0.1637
 4127SOL     OW13801   5.863   3.962   6.456  0.0089  0.6376 -0.1502
 4127SOL    HW113802   5.790   3.940   6.398  0.5805  0.2671 -0.7470
 4127SOL    HW213803   5.922   3.886   6.450 -0.2862  0.2232  1.5403
 4128SOL     OW13804   2.414   3.992   0.658  0.0615  0.7253  0.7199
 4128SOL    HW113805   2.461   4.058   0.710 -1.6608  2.6589 -0.0259
 4128SOL    HW213806   2.483   3.934   0.625  1.5333  1.4136  2.4041
 4129SOL     OW13807   6.402   5.211   4.464 -0.3735 -0.1921  0.0141
 4129SOL    HW113808   6.368   5.181   4.548 -2.4670 -1.2235 -1.1101
 4129SOL    HW213809   6.387   5.305   4.464  1.8538  0.2493  1.6785
 4130SOL     OW13810   5.827   6.772   0.879 -0.0575  0.0289  0.0840
 4130SOL    HW113811   5.884   6.845   0.903  0.4499 -0.3593  0.0782
 4130SOL    HW213812   5.747   6.814   0.846  0.2176  0.5799  0.1007
 4131SOL     OW13813   2.360   4.963   0.758  0.4647  0.0143  0.1568
 4131SOL    HW113814   2.351   4.983   0.665 -0.5809  2.4172  0.6937
 4131SOL    HW213815   2.447   4.996   0.781  0.7546 -0.6495  0.0527
 4132SOL     OW13816   6.781   2.557   1.358  0.5676 -0.3281 -0.3410
 4132SOL    HW113817   6.839   2.547   1.433  0.8888  1.5965 -0.2864
 4132SOL    HW213818   6.812   2.493   1.295  1.6446 -0.5249  0.3660
 4133SOL     OW13819   6.648   1.696   3.536 -0.2932 -0.0076  0.2826
 4133SOL    HW113820   6.696   1.613   3.538  2.1695  1.2917 -0.6641
 4133SOL    HW213821   6.611   1.700   3.448 -0.5504 -0.1551  0.3822
 4134SOL     OW13822   0.511   2.593   5.747  0.1083  0.0076 -0.3842
 4134SOL    HW113823   0.512   2.608   5.841  1.9623  0.8231 -0.4886
 4134SOL    HW213824   0.451   2.519   5.734 -2.6893  1.8586  1.0776
 4135SOL     OW13825   3.767   8.186   3.993 -0.0677  0.3365  0.3313
 4135SOL    HW113826   3.832   8.119   3.972 -1.2419 -0.3811 -1.2845
 4135SOL    HW213827   3.716   8.147   4.064  0.7959  0.5919  1.1023
 4136SOL     OW13828   7.376   3.746   6.352 -0.2515 -0.1147  0.0100
 4136SOL    HW113829   7.331   3.720   6.432 -2.0786 -0.7389 -1.1744
 4136SOL    HW213830   7.340   3.831   6.330  0.0845 -0.0431 -0.2822
 4137SOL     OW13831   8.988   1.885   5.995 -0.1435 -0.2650  0.6415
 4137SOL    HW113832   8.963   1.808   6.045  0.0545  0.7340  2.3562
 4137SOL    HW213833   9.080   1.900   6.017  0.4372 -0.7089 -1.2988
 4138SOL     OW13834   8.044   3.875   0.799 -0.2730 -0.0892  0.1572
 4138SOL    HW113835   7.951   3.852   0.806 -0.2736 -0.3113 -0.4765
 4138SOL    HW213836   8.045   3.950   0.740 -0.2089  1.1775  1.6953
 4139SOL     OW13837   9.277   7.197   7.190  0.0818  0.2171  0.2810
 4139SOL    HW113838   9.324   7.215   7.108  1.6936  0.8716  1.3026
 4139SOL    HW213839   9.217   7.270   7.201  1.5134  1.3560  0.8129
 4140SOL     OW13840   5.091   6.150   0.117  0.2353 -0.4643  0.0544
 4140SOL    HW113841   5.165   6.136   0.176  0.6753 -2.0619 -0.8014
 4140SOL    HW213842   5.129   6.147   0.029 -0.7241 -0.4279 -0.3760
 4141SOL     OW13843   8.493   6.974   6.127  0.4115 -0.5717  0.3872
 4141SOL    HW113844   8.519   7.060   6.094  0.9536 -0.8602  0.0471
 4141SOL    HW213845   8.450   6.932   6.052  0.9927 -0.9494  0.2575
 4142SOL     OW13846   3.868   1.908   0.272  0.0916 -0.4189 -0.2509
 4142SOL    HW113847   3.847   1.990   0.227  0.6500 -0.4754 -0.6355
 4142SOL    HW213848   3.791   1.889   0.326  0.3434  0.8587  0.5955
 4143SOL     OW13849   3.654   4.034   5.815  0.0005  0.5490 -0.4626
 4143SOL    HW113850   3.670   3.959   5.757 -0.4758  0.9123 -1.0859
 4143SOL    HW213851   3.644   3.995   5.902 -0.4150 -0.1361 -0.8046
 4144SOL     OW13852   7.454   6.165   9.206  0.1953  0.1967  0.3124
 4144SOL    HW113853   7.375   6.211   9.233 -0.2133 -0.7041  0.6918
 4144SOL    HW213854   7.445   6.153   9.111  0.4463  1.1463  0.1621
 4145SOL     OW13855   2.420   1.174   1.908  0.0041  0.3132 -0.2685
 4145SOL    HW113856   2.330   1.175   1.875 -0.3778  2.3417  0.6626
 4145SOL    HW213857   2.442   1.266   1.918  1.0667 -0.1552  2.4964
 4146SOL     OW13858   0.283   4.336   2.193 -0.1552 -0.1861  0.1466
 4146SOL    HW113859   0.356   4.275   2.191 -0.6475 -0.7669 -0.5155
 4146SOL    HW213860   0.220   4.295   2.253 -0.9973 -0.9600 -1.2030
 4147SOL     OW13861   0.572   2.877   5.730  0.1166 -0.5140 -0.2829
 4147SOL    HW113862   0.612   2.795   5.699 -0.7294 -2.2962  2.8348
 4147SOL    HW213863   0.478   2.859   5.727 -0.0328 -0.6280  2.4921
 4148SOL     OW13864   1.184   8.531   8.165  0.4420 -0.3824  0.1773
 4148SOL    HW113865   1.125   8.504   8.095 -1.6030 -0.1711  1.7319
 4148SOL    HW213866   1.222   8.449   8.198  1.5578 -0.4665 -1.2296
 4149SOL     OW13867   8.319   2.633   1.737  0.6899 -0.0958  0.2258
 4149SOL    HW113868   8.371   2.714   1.732  2.4177 -1.1664 -0.0689
 4149SOL    HW213869   8.375   2.572   1.786 -1.4785 -0.4890  2.3953
 4150SOL     OW13870   2.020   5.990   0.045  0.3156  0.0837 -0.6185
 4150SOL    HW113871   2.108   6.025   0.033  0.1540  0.5511 -0.4384
 4150SOL    HW213872   1.978   6.050   0.105  0.0031 -0.3705 -0.3797
 4151SOL     OW13873   0.152   2.811   3.757 -0.0671 -0.0797 -0.4764
 4151SOL    HW113874   0.180   2.895   3.793  0.0276  0.5098 -1.8486
 4151SOL    HW213875   0.209   2.797   3.682  0.3411 -1.7043  0.1052
 4152SOL     OW13876   2.543   2.747   6.507 -0.3632 -0.6566 -0.7152
 4152SOL    HW113877   2.607   2.814   6.534 -0.4161 -0.1056 -1.9329
 4152SOL    HW213878   2.492   2.731   6.586  0.3749 -0.0796 -0.0982
 4153SOL     OW13879   8.847   7.293   2.078  0.5599  0.4193 -0.4667
 4153SOL    HW113880   8.812   7.209   2.048 -0.2040  0.2190  0.9136
 4153SOL    HW213881   8.873   7.337   1.997 -0.6440 -0.4231 -1.3674
 4154SOL     OW13882   6.717   8.190   6.773 -0.0695  0.1093  0.1848
 4154SOL    HW113883   6.625   8.184   6.745  0.3721  1.4234 -1.8092
 4154SOL    HW213884   6.713   8.223   6.863 -1.5867  2.5773 -0.6647
 4155SOL     OW13885   1.712   2.949   9.051  0.6091 -0.1929  0.2548
 4155SOL    HW113886   1.706   2.867   9.003 -1.3969 -0.5228  0.9770
 4155SOL    HW213887   1.624   2.964   9.084  1.6940  0.4120  3.1660
 4156SOL     OW13888   5.349   2.139   4.967 -0.5163  0.1188 -0.2170
 4156SOL    HW113889   5.407   2.212   4.989 -1.2414  0.9968 -1.1557
 4156SOL    HW213890   5.395   2.092   4.898 -0.0278 -0.3651  0.4191
 4157SOL     OW13891   9.075   0.787   9.275 -0.2719 -0.0245 -0.1954
 4157SOL    HW113892   9.090   0.860   9.213 -0.4054 -0.4450 -0.7319
 4157SOL    HW213893   8.988   0.755   9.252  0.1357 -0.9067 -0.5418
 4158SOL     OW13894   8.221   4.142   7.707  0.4886 -0.8330 -0.4139
 4158SOL    HW113895   8.250   4.054   7.732  0.0972 -0.7918  0.1912
 4158SOL    HW213896   8.177   4.176   7.784 -2.6370 -1.5270 -1.7143
 4159SOL     OW13897   5.898   2.432   7.782  0.1985  0.2692  0.8063
 4159SOL    HW113898   5.898   2.511   7.837  1.1030  0.6049  0.3308
 4159SOL    HW213899   5.805   2.417   7.763  0.0056  1.1384  1.0135
 4160SOL     OW13900   8.092   6.407   6.619  0.1396  0.7604 -0.2030
 4160SOL    HW113901   7.998   6.395   6.606  0.5157  0.5781 -3.6723
 4160SOL    HW213902   8.123   6.320   6.647 -0.5619  0.5717  0.0322
 4161SOL     OW13903   7.161   8.224   1.582 -0.1442 -0.0277  0.7926
 4161SOL    HW113904   7.135   8.316   1.578 -1.9939 -0.5189  0.9202
 4161SOL    HW213905   7.128   8.193   1.666  1.9356 -0.4171  1.5296
 4162SOL     OW13906   7.346   2.138   0.773  0.7484  0.0248 -0.3394
 4162SOL    HW113907   7.354   2.068   0.708  2.3252 -1.6356  1.5228
 4162SOL    HW213908   7.435   2.172   0.783 -0.0294  2.6743 -1.4897
 4163SOL     OW13909   0.869   5.762   1.430  0.5263  0.1573 -0.2751
 4163SOL    HW113910   0.819   5.834   1.390  3.1049  1.9310 -0.5138
 4163SOL    HW213911   0.887   5.702   1.358  0.1262  0.3070 -0.5047
 4164SOL     OW13912   5.488   5.816   1.337 -0.6127  0.0617  0.0243
 4164SOL    HW113913   5.576   5.803   1.301 -1.2370  0.2637 -1.7122
 4164SOL    HW213914   5.484   5.909   1.360 -0.1792 -0.0821  0.6876
 4165SOL     OW13915   7.175   6.390   0.843  0.0415 -0.1740 -0.0889
 4165SOL    HW113916   7.202   6.407   0.752 -0.2876 -0.6966 -0.2886
 4165SOL    HW213917   7.249   6.343   0.881  0.3756  0.4528  0.0590
 4166SOL     OW13918   5.589   2.982   4.605  0.0137 -0.1639 -0.5587
 4166SOL    HW113919   5.540   2.914   4.650  1.2530 -0.9041 -0.2668
 4166SOL    HW213920   5.651   2.934   4.549  1.8408  0.6462  0.6643
 4167SOL     OW13921   1.653   1.780   0.207  0.1029  0.3873 -0.3990
 4167SOL    HW113922   1.621   1.816   0.125  1.4748  0.8601 -0.7593
 4167SOL    HW213923   1.584   1.720   0.236 -1.6958  2.3914 -0.3743
 4168SOL     OW13924   5.809   2.611   6.923 -0.9250  0.6081 -0.5034
 4168SOL    HW113925   5.873   2.557   6.878 -0.4672 -0.8940  1.7783
 4168SOL    HW213926   5.726   2.564   6.913 -0.8554  0.3618  0.0513
 4169SOL     OW13927   8.634   5.347   5.991  0.6439  0.4433 -0.5731
 4169SOL    HW113928   8.612   5.360   5.899  2.1167 -1.5988 -1.2836
 4169SOL    HW213929   8.727   5.370   5.997  1.6052 -2.9339 -0.5166
 4170SOL     OW13930   6.659   5.249   9.219 -0.0112  0.0405 -0.3359
 4170SOL    HW113931   6.690   5.333   9.254  1.5819 -0.1588 -1.1530
 4170SOL    HW213932   6.571   5.267   9.186 -0.4690  0.8910  1.2678
 4171SOL     OW13933   4.508   6.152   7.563 -0.1067 -0.0609 -0.4294
 4171SOL    HW113934   4.506   6.188   7.652  2.8056 -1.6311  0.4097
 4171SOL    HW213935   4.600   6.130   7.548 -0.7774 -1.5106 -3.1812
 4172SOL     OW13936   7.981   6.921   5.561  0.0583  0.8320  0.4360
 4172SOL    HW113937   8.027   6.895   5.481 -0.2273  2.0385 -0.1347
 4172SOL    HW213938   8.027   6.998   5.592 -0.1333  0.6571  1.1804
 4173SOL     OW13939   3.886   3.068   8.528 -0.5382 -0.0787  0.5143
 4173SOL    HW113940   3.909   2.988   8.574 -0.0716 -2.1431 -2.9457
 4173SOL    HW213941   3.792   3.060   8.510 -0.2231 -0.6408 -1.0662
 4174SOL     OW13942   9.033   3.848   1.911  0.1734  0.1520  0.4174
 4174SOL    HW113943   8.988   3.844   1.827  1.6141 -0.3526 -0.3627
 4174SOL    HW213944   9.023   3.760   1.947 -1.5190  0.6927  1.4106
 4175SOL     OW13945   1.640   8.450   4.861 -0.0155  0.3955 -0.4169
 4175SOL    HW113946   1.646   8.443   4.766 -2.1853 -0.5837 -0.5595
 4175SOL    HW213947   1.677   8.368   4.894 -0.4546  0.1614 -0.5012
 4176SOL     OW13948   5.517   9.111   0.684  0.4564 -0.5476  0.4868
 4176SOL    HW113949   5.579   9.148   0.622 -1.5754 -0.1083 -1.4419
 4176SOL    HW213950   5.479   9.187   0.729  1.5662 -0.8364  1.9696
 4177SOL     OW13951   1.317   3.299   8.305 -0.3369 -0.1681 -0.2409
 4177SOL    HW113952   1.310   3.386   8.265  2.8967  1.0015  1.3838
 4177SOL    HW213953   1.341   3.242   8.232 -0.8432  0.6254 -1.0539
 4178SOL     OW13954   8.593   1.030   4.409  0.0251 -0.2727  0.4778
 4178SOL    HW113955   8.570   1.093   4.340  0.5075 -1.1118 -0.4807
 4178SOL    HW213956   8.633   1.083   4.478 -0.4084  0.5812  0.0903
 4179SOL     OW13957   1.662   7.551   5.975 -0.3823  0.0380  0.4791
 4179SOL    HW113958   1.569   7.561   5.953 -0.4143  1.7743  1.2755
 4179SOL    HW213959   1.665   7.561   6.070  0.7651  1.4393  0.3298
 4180SOL     OW13960   5.248   6.482   4.135 -0.2647  0.2346  0.0879
 4180SOL    HW113961   5.239   6.577   4.123 -0.9067  0.2471  0.6134
 4180SOL    HW213962   5.160   6.452   4.159  0.1899 -0.2922  1.2151
 4181SOL     OW13963   6.867   0.232   3.703  0.0645  0.1671 -0.3096
 4181SOL    HW113964   6.930   0.304   3.691 -0.9937  1.1007 -0.4166
 4181SOL    HW213965   6.832   0.216   3.616 -2.5464  2.2306  0.2211
 4182SOL     OW13966   1.800   5.966   6.884 -0.1232 -0.6986  0.1536
 4182SOL    HW113967   1.790   6.038   6.947 -2.4391 -1.7362  1.0601
 4182SOL    HW213968   1.833   5.893   6.936  1.0896 -0.6794 -0.5415
 4183SOL     OW13969   5.872   3.992   1.015  0.4915  0.4983  0.0480
 4183SOL    HW113970   5.900   3.945   0.936  1.4075  0.8650  0.1444
 4183SOL    HW213971   5.838   3.923   1.072 -3.3745  0.5202 -1.8889
 4184SOL     OW13972   7.939   4.444   8.145 -0.4571  0.3431  0.4116
 4184SOL    HW113973   7.856   4.445   8.193 -0.5662 -1.9605  0.3986
 4184SOL    HW213974   7.952   4.534   8.116 -2.4031  0.9687  1.3467
 4185SOL     OW13975   3.105   0.913   4.976  0.1208 -0.1744  0.0186
 4185SOL    HW113976   3.153   0.892   5.056 -0.6367 -1.4824  0.1633
 4185SOL    HW213977   3.079   0.828   4.940  0.8273  0.3503 -1.8775
 4186SOL     OW13978   6.821   1.818   8.216 -0.2076 -0.2609 -0.0684
 4186SOL    HW113979   6.874   1.889   8.180 -0.2079 -0.4469 -0.4400
 4186SOL    HW213980   6.763   1.792   8.144 -1.5338  0.6270  0.6306
 4187SOL     OW13981   6.402   0.181   5.682  0.4421  0.1529 -0.3067
 4187SOL    HW113982   6.364   0.095   5.699 -0.1377  1.0807  4.5545
 4187SOL    HW213983   6.329   0.234   5.650  0.3762 -0.6771 -1.5877
 4188SOL     OW13984   1.035   2.314   7.945 -0.2557  0.0178 -0.3250
 4188SOL    HW113985   0.985   2.353   8.016  0.7502 -0.0574  0.4386
 4188SOL    HW213986   1.062   2.389   7.891 -1.3036  0.0458 -0.8507
 4189SOL     OW13987   0.960   6.188   7.583  0.2081 -0.7866 -0.2547
 4189SOL    HW113988   1.054   6.187   7.568  0.1913  1.4302 -0.8544
 4189SOL    HW213989   0.943   6.272   7.627 -1.5143 -1.0478 -0.3368
 4190SOL     OW13990   0.708   5.730   4.684 -0.0916 -0.3783  0.0955
 4190SOL    HW113991   0.700   5.744   4.778 -4.1105  0.1198 -0.1396
 4190SOL    HW213992   0.720   5.818   4.648  1.6765 -0.5898  0.0699
 4191SOL     OW13993   2.366   3.650   0.514 -0.0345  0.2692  0.0325
 4191SOL    HW113994   2.276   3.674   0.534  0.4313  2.6847 -0.5005
 4191SOL    HW213995   2.362   3.607   0.429 -0.8336 -1.0909  0.7255
 4192SOL     OW13996   8.140   6.696   6.833 -0.6615  0.2349  0.3706
 4192SOL    HW113997   8.138   6.734   6.921  0.2888 -0.0532  0.5243
 4192SOL    HW213998   8.063   6.733   6.789 -0.9149  0.6966  1.1895
 4193SOL     OW13999   1.436   8.981   2.959 -0.2964  0.2705  0.1065
 4193SOL    HW114000   1.410   8.988   2.867 -1.2011  0.9451  0.3884
 4193SOL    HW214001   1.486   9.061   2.976  1.0562 -0.5019 -0.1411
 4194SOL     OW14002   6.927   5.758   7.467 -0.3244  0.1185 -0.2445
 4194SOL    HW114003   6.852   5.817   7.470 -0.2439  0.2289 -0.3978
 4194SOL    HW214004   6.896   5.683   7.417 -0.6182 -0.2429  0.4649
 4195SOL     OW14005   1.919   3.673   8.059 -0.4830 -0.4578 -0.2206
 4195SOL    HW114006   1.888   3.652   8.147 -1.0956 -2.2226 -0.8132
 4195SOL    HW214007   1.877   3.608   8.002  0.2548  0.3478 -1.7618
 4196SOL     OW14008   1.478   2.514   2.449 -0.2020 -0.1239  0.1908
 4196SOL    HW114009   1.478   2.561   2.366 -0.4985  0.5965  0.5899
 4196SOL    HW214010   1.387   2.515   2.478 -0.0511 -0.0913  0.6792
 4197SOL     OW14011   1.889   0.630   2.475  0.1135 -0.1621  0.1606
 4197SOL    HW114012   1.939   0.614   2.394 -0.8586  0.2285 -0.5273
 4197SOL    HW214013   1.839   0.550   2.488 -0.2476  0.0390  0.0019
 4198SOL     OW14014   1.657   7.497   7.384 -0.2446  0.0174 -0.3424
 4198SOL    HW114015   1.736   7.517   7.434 -0.1645 -1.1896  0.0494
 4198SOL    HW214016   1.681   7.421   7.331 -0.6691  0.6052 -1.3935
 4199SOL     OW14017   8.047   3.902   1.671  0.0342 -0.6376 -0.1002
 4199SOL    HW114018   8.072   3.929   1.583 -1.2341 -0.5051 -0.4442
 4199SOL    HW214019   8.054   3.807   1.670 -0.5459 -0.6784 -0.5339
 4200SOL     OW14020   2.578   4.923   6.592 -0.6286  0.3008  0.5472
 4200SOL    HW114021   2.641   4.936   6.663 -0.0472 -0.9814  0.2936
 4200SOL    HW214022   2.531   5.006   6.586  1.1933  1.3809  0.5783
 4201SOL     OW14023   6.313   3.598   3.041 -0.1529 -0.1502 -0.2668
 4201SOL    HW114024   6.281   3.523   3.091  0.9283 -1.3355 -1.2670
 4201SOL    HW214025   6.308   3.671   3.102 -0.6706 -1.1591  0.9517
 4202SOL     OW14026   7.149   2.579   0.977 -0.0158  0.3540  0.6657
 4202SOL    HW114027   7.151   2.493   1.019 -0.4969  0.6476  1.3086
 4202SOL    HW214028   7.069   2.579   0.925  1.1669 -0.4553 -1.2769
 4203SOL     OW14029   0.493   8.507   5.727  0.7898  0.2110  0.1390
 4203SOL    HW114030   0.505   8.425   5.681 -2.0199 -0.3776  0.2452
 4203SOL    HW214031   0.470   8.570   5.659  2.3960  0.8150  0.1218
 4204SOL     OW14032   5.580   7.307   4.293 -0.3230  0.0286  0.1839
 4204SOL    HW114033   5.630   7.368   4.346 -0.7059 -0.3579  1.0127
 4204SOL    HW214034   5.530   7.362   4.233  0.0133  0.4798  0.3146
 4205SOL     OW14035   0.992   3.876   7.806 -0.3834  0.6587  0.9149
 4205SOL    HW114036   1.016   3.948   7.864  0.0825  0.7458  0.6209
 4205SOL    HW214037   0.917   3.909   7.757  0.0211  1.0727  0.5553
 4206SOL     OW14038   9.217   2.451   5.848 -0.5802  0.2245 -0.1984
 4206SOL    HW114039   9.235   2.359   5.869 -0.0288 -0.1696 -2.2119
 4206SOL    HW214040   9.257   2.499   5.920 -1.4037 -1.1048  1.2171
 4207SOL     OW14041   8.270   9.126   2.749 -0.4233  0.5507  0.4006
 4207SOL    HW114042   8.278   9.039   2.789 -0.0106  0.5351  0.2930
 4207SOL    HW214043   8.286   9.111   2.656 -0.1540  0.7684  0.4105
 4208SOL     OW14044   7.982   0.105   3.835 -0.1081  0.2353 -0.1067
 4208SOL    HW114045   7.924   0.182   3.836 -1.9294 -1.0479  1.6600
 4208SOL    HW214046   7.952   0.052   3.909  0.2467 -2.7880 -1.9744
 4209SOL     OW14047   1.724   0.425   9.035  0.0578  0.1924 -0.0057
 4209SOL    HW114048   1.671   0.354   9.000 -0.9238  1.5268 -1.3662
 4209SOL    HW214049   1.813   0.405   9.005 -0.4472  0.2674 -1.6397
 4210SOL     OW14050   1.489   0.723   6.809 -0.1550 -0.1973  0.0562
 4210SOL    HW114051   1.468   0.679   6.726  0.0634 -0.7825  0.3079
 4210SOL    HW214052   1.431   0.799   6.811  1.3263  1.0923 -1.6769
 4211SOL     OW14053   8.997   1.552   0.078 -0.4809  0.2809 -0.2879
 4211SOL    HW114054   8.995   1.487   0.148 -0.5636  1.0695  0.4500
 4211SOL    HW214055   8.930   1.522   0.016  1.2752 -1.7991 -1.3218
 4212SOL     OW14056   4.911   0.109   8.958 -0.1969 -0.2057 -0.1010
 4212SOL    HW114057   4.944   0.172   8.894 -1.0603  0.7485  0.3660
 4212SOL    HW214058   4.931   0.148   9.043 -1.9418  0.1194  0.1992
 4213SOL     OW14059   2.735   6.300   3.039  0.5379 -0.0157 -0.1907
 4213SOL    HW114060   2.713   6.228   2.980  1.3394 -0.5420  0.1217
 4213SOL    HW214061   2.655   6.316   3.088  0.1832 -0.3104 -0.6637
 4214SOL     OW14062   0.891   1.399   3.059  0.5557 -0.4067  0.5650
 4214SOL    HW114063   0.942   1.460   3.005 -2.7712  1.7952 -0.4384
 4214SOL    HW214064   0.905   1.429   3.149 -1.6091  2.6542  0.0602
 4215SOL     OW14065   6.445   8.243   3.780  0.0438  0.6991  0.1043
 4215SOL    HW114066   6.507   8.310   3.810  0.6900  0.7500 -1.2907
 4215SOL    HW214067   6.386   8.289   3.721 -0.8223  0.4629  0.7624
 4216SOL     OW14068   4.852   8.774   1.450 -1.0309 -0.8659 -0.1710
 4216SOL    HW114069   4.921   8.837   1.473 -1.1010 -0.8338 -0.0471
 4216SOL    HW214070   4.873   8.746   1.361 -1.3610 -0.1778 -0.4775
 4217SOL     OW14071   7.543   6.779   7.539  0.4518 -0.4063 -0.5427
 4217SOL    HW114072   7.462   6.816   7.504 -0.6059 -2.3786 -0.2881
 4217SOL    HW214073   7.535   6.791   7.634  1.3618  1.0757 -0.6177
 4218SOL     OW14074   6.143   8.823   0.537  0.7888 -0.5926  0.4186
 4218SOL    HW114075   6.146   8.729   0.518 -1.0813 -1.0095  1.8245
 4218SOL    HW214076   6.148   8.828   0.632  1.5915  0.8118  0.3238
 4219SOL     OW14077   1.647   0.283   8.191 -0.1511 -0.4818  0.4508
 4219SOL    HW114078   1.702   0.239   8.256  0.1538 -0.3019  0.3202
 4219SOL    HW214079   1.697   0.360   8.166 -1.5364  1.0348  2.1017
 4220SOL     OW14080   4.361   6.546   7.479 -0.2161  0.4408 -0.3549
 4220SOL    HW114081   4.414   6.472   7.449  0.1925  0.5876 -0.0074
 4220SOL    HW214082   4.421   6.620   7.477 -0.2712  0.5195  0.4903
 4221SOL     OW14083   5.682   5.897   8.975  0.0178 -0.1716 -0.2941
 4221SOL    HW114084   5.773   5.924   8.989  0.2816  0.7618 -3.1123
 4221SOL    HW214085   5.631   5.977   8.989  0.1724  0.4697 -2.8117
 4222SOL     OW14086   1.480   2.463   3.027  0.0048 -0.9856  0.7746
 4222SOL    HW114087   1.406   2.437   3.083 -0.4791  0.8456  1.0725
 4222SOL    HW214088   1.470   2.410   2.948 -2.2920 -0.0803  0.3625
 4223SOL     OW14089   0.734   2.062   3.306  0.6579  0.1602 -0.4767
 4223SOL    HW114090   0.699   1.974   3.293 -0.3399  0.6819 -1.4908
 4223SOL    HW214091   0.782   2.081   3.225 -1.1593  1.4362 -1.3347
 4224SOL     OW14092   5.350   7.419   8.280 -0.3886 -0.3238  0.1523
 4224SOL    HW114093   5.310   7.450   8.361 -0.3164 -0.9890  0.4450
 4224SOL    HW214094   5.310   7.333   8.264 -1.2113  0.2590 -1.1039
 4225SOL     OW14095   6.037   4.267   7.677  0.1051  0.1432 -0.7093
 4225SOL    HW114096   6.067   4.270   7.586  1.8782  0.5763 -0.1623
 4225SOL    HW214097   6.073   4.185   7.711  0.9075  0.7744  0.0284
 4226SOL     OW14098   5.066   8.423   5.736  0.0612 -0.1944 -0.0723
 4226SOL    HW114099   5.149   8.460   5.766 -0.8922  0.0073  2.5821
 4226SOL    HW214100   5.000   8.463   5.793 -1.7822 -0.9607 -1.5742
 4227SOL     OW14101   6.130   2.413   5.379 -0.2187 -0.2324  0.1108
 4227SOL    HW114102   6.205   2.370   5.339 -1.4285 -0.3256 -2.1702
 4227SOL    HW214103   6.156   2.426   5.471  2.0816 -1.3229 -0.3311
 4228SOL     OW14104   3.100   0.529   2.659  0.2626  0.4387 -0.0355
 4228SOL    HW114105   3.095   0.434   2.670 -1.0377  0.3005 -1.4202
 4228SOL    HW214106   3.050   0.564   2.733 -3.5725 -0.2233 -2.0670
 4229SOL     OW14107   6.080   0.656   3.141 -0.0868 -0.3837 -0.0339
 4229SOL    HW114108   6.153   0.597   3.162  0.2624 -0.4927 -1.4353
 4229SOL    HW214109   6.114   0.711   3.070 -1.8370 -1.4781 -1.8166
 4230SOL     OW14110   3.513   5.393   8.636 -0.4214 -0.0802 -0.4434
 4230SOL    HW114111   3.504   5.299   8.644 -1.6691  0.1372  1.3475
 4230SOL    HW214112   3.565   5.419   8.712 -2.0191  0.8720  0.3889
 4231SOL     OW14113   8.463   2.452   0.596 -0.2423  0.3222  0.0921
 4231SOL    HW114114   8.370   2.443   0.574 -0.3420 -1.6584  1.0894
 4231SOL    HW214115   8.480   2.381   0.658  2.3424 -0.3732 -1.2748
 4232SOL     OW14116   3.122   6.966   7.952 -0.4565  0.1847  0.3539
 4232SOL    HW114117   3.217   6.955   7.951 -0.6531 -1.9043  0.4260
 4232SOL    HW214118   3.108   7.049   7.907  1.4844  1.6663  2.2469
 4233SOL     OW14119   6.583   5.884   2.538  0.0907 -0.2444 -0.2885
 4233SOL    HW114120   6.666   5.928   2.522  0.6590 -1.4875 -0.8547
 4233SOL    HW214121   6.602   5.822   2.608 -0.4859 -0.2070 -0.0943
 4234SOL     OW14122   9.033   7.487   5.818  0.3577 -0.2578 -0.5075
 4234SOL    HW114123   8.954   7.469   5.869  0.5168  2.5617  0.9529
 4234SOL    HW214124   9.033   7.421   5.749 -2.4643 -1.2774  0.3346
 4235SOL     OW14125   3.614   7.322   0.946  0.0169 -0.0112 -0.6258
 4235SOL    HW114126   3.667   7.400   0.962  0.2284  0.0066 -1.3685
 4235SOL    HW214127   3.629   7.301   0.854 -2.2700  0.7683 -1.2490
 4236SOL     OW14128   8.612   1.114   8.745 -0.3056 -0.8923  0.5071
 4236SOL    HW114129   8.575   1.133   8.659 -1.8610 -0.5365  1.2271
 4236SOL    HW214130   8.633   1.021   8.741 -0.5439 -0.9251 -0.1936
 4237SOL     OW14131   4.621   6.192   1.601 -0.0653  0.2529 -0.0618
 4237SOL    HW114132   4.617   6.160   1.510 -0.8944 -0.2494  0.1412
 4237SOL    HW214133   4.685   6.263   1.598  1.2699 -0.9052 -0.6966
 4238SOL     OW14134   1.564   4.256   2.238  0.1005  0.3249 -0.5375
 4238SOL    HW114135   1.606   4.284   2.320 -2.0948 -1.0646  1.1935
 4238SOL    HW214136   1.496   4.321   2.223 -0.7561 -0.4455 -0.1267
 4239SOL     OW14137   0.389   2.231   8.656 -0.1208  0.2254  0.2808
 4239SOL    HW114138   0.441   2.246   8.577 -1.3030 -3.4644 -1.3958
 4239SOL    HW214139   0.451   2.246   8.728  1.9998  0.2935 -1.4563
 4240SOL     OW14140   3.271   8.157   1.638  0.1737  0.1790 -0.2569
 4240SOL    HW114141   3.308   8.199   1.716 -1.3342 -0.9085  1.0869
 4240SOL    HW214142   3.345   8.109   1.600  0.2736 -2.0624  2.4369
 4241SOL     OW14143   1.113   2.390   8.605  0.0242 -0.3952 -0.3465
 4241SOL    HW114144   1.028   2.347   8.607  0.3129 -0.9635 -0.0026
 4241SOL    HW214145   1.164   2.348   8.675  0.5321  0.0530 -0.4313
 4242SOL     OW14146   1.626   4.337   8.928 -0.0847 -0.5038 -0.6250
 4242SOL    HW114147   1.712   4.298   8.946  0.1206 -0.3820 -1.3033
 4242SOL    HW214148   1.568   4.262   8.914 -0.0185 -0.5820 -0.4786
 4243SOL     OW14149   1.077   6.776   2.289 -0.8586  0.2268 -0.0711
 4243SOL    HW114150   1.055   6.837   2.219 -0.8045  0.9261  0.5085
 4243SOL    HW214151   1.118   6.831   2.357 -1.2026 -0.3804  0.6427
 4244SOL     OW14152   5.659   3.111   8.784 -0.3687 -0.1193 -0.2069
 4244SOL    HW114153   5.711   3.062   8.720  0.5787 -0.1389  0.5724
 4244SOL    HW214154   5.601   3.165   8.730  0.2532 -0.2954 -1.0840
 4245SOL     OW14155   0.495   1.111   6.068  0.6451  0.0633 -0.7986
 4245SOL    HW114156   0.460   1.173   6.004 -0.8476 -1.2061 -1.2944
 4245SOL    HW214157   0.556   1.162   6.121  0.3406  1.6507 -1.9143
 4246SOL     OW14158   5.787   7.637   9.001 -0.2793 -0.2428 -0.4801
 4246SOL    HW114159   5.817   7.560   9.050 -0.5265  0.6739  1.1658
 4246SOL    HW214160   5.840   7.636   8.921  1.0021 -1.1175  0.3316
 4247SOL     OW14161   1.147   9.249   5.258  0.0374 -0.3020  0.3152
 4247SOL    HW114162   1.109   9.163   5.276  0.8138 -1.0064 -1.1997
 4247SOL    HW214163   1.079   9.296   5.210  0.0149 -0.4662  0.1879
 4248SOL     OW14164   2.015   6.541   6.242 -0.4534 -0.1774  0.2858
 4248SOL    HW114165   2.063   6.483   6.301 -2.3908  0.4783  2.7160
 4248SOL    HW214166   1.950   6.484   6.201  0.5674 -0.5353 -0.8891
 4249SOL     OW14167   6.250   7.026   7.201 -0.4250 -0.1170 -0.4056
 4249SOL    HW114168   6.247   6.960   7.132 -0.9574  0.4882 -0.9618
 4249SOL    HW214169   6.172   7.008   7.254 -0.0481 -0.5437  0.0162
 4250SOL     OW14170   6.345   1.809   6.991 -0.1875 -0.8156 -0.4189
 4250SOL    HW114171   6.350   1.824   7.086  0.2436 -0.6847 -0.4561
 4250SOL    HW214172   6.432   1.776   6.968  0.5469  1.4451 -1.1502
 4251SOL     OW14173   6.717   0.583   4.404 -0.3303  0.0458 -0.6797
 4251SOL    HW114174   6.700   0.540   4.321  0.7055 -3.1225  0.6084
 4251SOL    HW214175   6.812   0.593   4.407 -0.4242  0.9908 -0.2353
 4252SOL     OW14176   1.036   4.628   3.101  0.2913  0.6614 -0.3856
 4252SOL    HW114177   1.056   4.722   3.106 -0.1030  0.8673 -2.0691
 4252SOL    HW214178   0.949   4.624   3.061  1.3962 -0.4405 -2.8917
 4253SOL     OW14179   8.166   4.407   1.592 -0.6177  0.2413 -0.0978
 4253SOL    HW114180   8.203   4.468   1.656 -0.9161  2.4961 -1.9302
 4253SOL    HW214181   8.234   4.340   1.581 -1.5277 -1.7203  4.2609
 4254SOL     OW14182   5.045   5.423   5.717 -0.1470 -0.6015 -0.5523
 4254SOL    HW114183   5.029   5.489   5.650  1.2219 -2.2601 -2.6497
 4254SOL    HW214184   4.960   5.412   5.760 -0.6194  1.8197 -0.7012
 4255SOL     OW14185   0.045   8.587   2.833 -0.0780 -0.2312 -0.2451
 4255SOL    HW114186   0.138   8.596   2.855 -0.3023  1.1569  0.2724
 4255SOL    HW214187   0.025   8.495   2.848  1.2000 -0.5414 -0.3249
 4256SOL     OW14188   7.621   0.038   3.325  0.8285 -0.1715  0.0669
 4256SOL    HW114189   7.670  -0.044   3.318  1.3822  0.1091  0.5421
 4256SOL    HW214190   7.661   0.083   3.400  0.9557  0.8175 -0.5803
 4257SOL     OW14191   0.656   8.210   5.012 -0.4547 -0.4775 -0.0018
 4257SOL    HW114192   0.660   8.280   4.947 -0.8631  1.9041  2.3491
 4257SOL    HW214193   0.732   8.226   5.069 -1.2900 -1.1491  1.3477
 4258SOL     OW14194   4.341   7.804   2.313 -0.3886 -0.4743 -0.6550
 4258SOL    HW114195   4.394   7.855   2.252 -0.3066 -0.5314 -0.6317
 4258SOL    HW214196   4.405   7.760   2.370 -0.4723 -0.1685 -0.3230
 4259SOL     OW14197   0.397   3.948   6.191  0.2487 -0.2671 -0.5143
 4259SOL    HW114198   0.389   3.858   6.159 -1.8022 -0.7004  0.9825
 4259SOL    HW214199   0.425   3.939   6.282  1.1976  0.6935 -0.6922
 4260SOL     OW14200   0.508   9.013   6.052  0.2920 -0.3057  0.3253
 4260SOL    HW114201   0.467   9.088   6.095  0.0477 -0.1057 -0.2427
 4260SOL    HW214202   0.453   8.938   6.077 -0.9793  0.0836 -1.1220
 4261SOL     OW14203   7.054   8.405   2.082  0.0669  0.0215  0.6697
 4261SOL    HW114204   7.137   8.396   2.129  0.0490  0.5293  0.8088
 4261SOL    HW214205   7.057   8.339   2.013  1.5785  1.5025 -0.7669
 4262SOL     OW14206   2.852   4.604   1.932  0.3972  0.1128  0.1464
 4262SOL    HW114207   2.790   4.606   2.005 -0.4660  1.5578 -0.5946
 4262SOL    HW214208   2.895   4.519   1.940  0.0676  0.0765  2.1214
 4263SOL     OW14209   3.987   3.148   2.718 -0.2663 -0.5162  0.2159
 4263SOL    HW114210   4.012   3.059   2.742  0.5199 -0.0486  1.1967
 4263SOL    HW214211   3.899   3.159   2.755  0.7468  0.0361  2.6160
 4264SOL     OW14212   3.140   2.225   6.025 -0.1121 -0.3487 -0.0518
 4264SOL    HW114213   3.193   2.235   6.104 -1.8879  1.2597  1.0225
 4264SOL    HW214214   3.074   2.295   6.031 -2.0642 -1.9332 -1.4987
 4265SOL     OW14215   3.320   6.705   0.458  0.1539 -0.7083 -0.3159
 4265SOL    HW114216   3.266   6.738   0.529 -0.4412 -1.3467 -0.4570
 4265SOL    HW214217   3.400   6.674   0.501  0.4671  0.3485 -0.1210
 4266SOL     OW14218   5.576   7.088   3.271  0.5841  0.3234  0.0873
 4266SOL    HW114219   5.634   7.030   3.222  1.3123  1.3187 -0.2704
 4266SOL    HW214220   5.633   7.130   3.336  0.1904  1.0165 -0.0004
 4267SOL     OW14221   5.974   1.819   0.027  0.2015  0.6232  0.0619
 4267SOL    HW114222   5.897   1.788  -0.020  0.3106  0.0943  0.2259
 4267SOL    HW214223   6.019   1.739   0.055  1.6662  0.8460 -1.4232
 4268SOL     OW14224   8.145   0.600   4.025  0.2440 -0.1470 -0.1601
 4268SOL    HW114225   8.067   0.545   4.039  0.4914 -0.5474 -0.3524
 4268SOL    HW214226   8.127   0.679   4.076 -0.0575 -0.4607  0.2294
 4269SOL     OW14227   2.498   6.950   5.013 -0.3230 -0.7423 -0.1818
 4269SOL    HW114228   2.422   6.908   5.053  0.3873  0.2719  2.3954
 4269SOL    HW214229   2.565   6.950   5.082  0.7510  1.7583 -1.1217
 4270SOL     OW14230   6.709   0.606   8.766 -0.3548 -0.4557 -0.3251
 4270SOL    HW114231   6.694   0.579   8.675  0.3902 -3.0019  0.2091
 4270SOL    HW214232   6.726   0.524   8.812  1.5511  0.9595  1.6757
 4271SOL     OW14233   2.355   0.859   0.198  0.1584  0.3010  0.2168
 4271SOL    HW114234   2.418   0.810   0.252  1.0531  0.6306 -0.4968
 4271SOL    HW214235   2.272   0.814   0.212  0.9536 -1.4669 -0.4335
 4272SOL     OW14236   2.386   3.706   4.187  0.3667 -0.1836  0.4171
 4272SOL    HW114237   2.381   3.790   4.232 -0.6586 -0.3157  0.5782
 4272SOL    HW214238   2.469   3.669   4.215 -0.6165 -0.6535  2.9815
 4273SOL     OW14239   5.098   1.300   1.623 -0.2679 -0.4065 -0.6816
 4273SOL    HW114240   5.087   1.358   1.698 -0.1562 -0.8025 -0.3585
 4273SOL    HW214241   5.012   1.301   1.579  0.4222  2.0024 -2.1461
 4274SOL     OW14242   0.802   5.631   0.058  0.3067 -0.2709  0.3117
 4274SOL    HW114243   0.876   5.587   0.100  1.4288  0.9142 -0.3291
 4274SOL    HW214244   0.796   5.716   0.102  0.4152  0.3021 -0.7411
 4275SOL     OW14245   4.089   6.421   3.532  0.1522 -0.0236 -0.9545
 4275SOL    HW114246   4.047   6.440   3.448  0.0718 -1.2133 -1.2054
 4275SOL    HW214247   4.178   6.396   3.510  0.7846  1.6858 -0.4875
 4276SOL     OW14248   0.154   1.322   2.779 -0.3662 -0.1006  0.1140
 4276SOL    HW114249   0.229   1.268   2.802  1.4364  1.4847 -1.5956
 4276SOL    HW214250   0.142   1.307   2.685 -0.4779  1.5732 -0.1817
 4277SOL     OW14251   8.546   6.393   5.043  0.0308 -0.5309  0.0271
 4277SOL    HW114252   8.607   6.321   5.059 -0.4751 -1.6162 -2.5467
 4277SOL    HW214253   8.460   6.351   5.033 -0.6369  0.6561  0.4890
 4278SOL     OW14254   5.350   4.722   7.406  0.0289  0.7399  0.1801
 4278SOL    HW114255   5.327   4.731   7.499  0.8638  1.4496  0.3298
 4278SOL    HW214256   5.444   4.741   7.403  0.5074 -1.5024 -0.4938
 4279SOL     OW14257   8.817   7.711   4.444  0.5645 -0.4803 -0.6262
 4279SOL    HW114258   8.836   7.701   4.538 -2.4273  1.2701  0.2726
 4279SOL    HW214259   8.797   7.803   4.433  2.6458 -0.2286 -3.4808
 4280SOL     OW14260   9.009   3.187   7.160 -0.8675  0.3522  0.8639
 4280SOL    HW114261   8.976   3.205   7.247 -1.2162  0.4372  0.7147
 4280SOL    HW214262   9.086   3.132   7.174 -1.8201 -0.9357  1.1514
 4281SOL     OW14263   5.140   0.724   8.446 -0.1248 -0.2620  0.1301
 4281SOL    HW114264   5.187   0.643   8.469 -0.6430 -1.7530 -3.4064
 4281SOL    HW214265   5.208   0.783   8.415 -0.0628 -0.6443 -0.4873
 4282SOL     OW14266   3.156   8.101   7.314 -0.5919  0.0994 -0.4995
 4282SOL    HW114267   3.075   8.148   7.292 -0.0483  0.9952 -0.6482
 4282SOL    HW214268   3.226   8.160   7.286  0.1265  0.1814  1.3795
 4283SOL     OW14269   5.539   7.691   1.974  0.2063 -0.0472 -0.0011
 4283SOL    HW114270   5.458   7.644   1.998  0.4186  0.9284  3.0025
 4283SOL    HW214271   5.512   7.748   1.902 -1.7294  0.0321  0.7122
 4284SOL     OW14272   4.109   4.866   5.580  0.3249  0.1921  0.0222
 4284SOL    HW114273   4.081   4.784   5.538  0.3889  0.6837 -1.0091
 4284SOL    HW214274   4.196   4.846   5.614  1.3073  0.4328 -2.1599
 4285SOL     OW14275   3.923   2.288   0.392 -0.0876 -0.1441  0.4196
 4285SOL    HW114276   3.897   2.376   0.416  2.1721  0.9482 -0.7957
 4285SOL    HW214277   4.015   2.283   0.419 -0.5879 -2.7697  2.0275
 4286SOL     OW14278   9.024   6.632   0.177  0.3863 -0.2861  0.1843
 4286SOL    HW114279   8.929   6.629   0.162  0.2857 -1.2211  0.8788
 4286SOL    HW214280   9.061   6.570   0.115  0.3161 -1.4806  1.2866
 4287SOL     OW14281   9.085   7.913   8.509  0.0002  0.3141 -0.0426
 4287SOL    HW114282   9.007   7.948   8.551 -0.2552  0.5944 -0.7303
 4287SOL    HW214283   9.077   7.939   8.417 -0.3035 -1.7099 -0.6500
 4288SOL     OW14284   3.018   6.712   9.087 -0.3675  0.0276  0.2695
 4288SOL    HW114285   2.984   6.796   9.116 -1.7365 -0.2148 -0.5689
 4288SOL    HW214286   3.060   6.675   9.165  0.4701  1.5670  0.5858
 4289SOL     OW14287   4.423   4.912   4.037 -0.4594  0.2291  0.0404
 4289SOL    HW114288   4.342   4.862   4.042 -0.0254 -0.7374 -2.0197
 4289SOL    HW214289   4.487   4.853   3.999 -0.1574  2.5047 -3.4702
 4290SOL     OW14290   3.390   8.580   0.364 -0.0201 -0.1902  0.0243
 4290SOL    HW114291   3.347   8.502   0.398 -0.3120 -0.3100 -0.5903
 4290SOL    HW214292   3.387   8.643   0.436  0.4089 -0.8118  0.5956
 4291SOL     OW14293   4.643   8.844   8.101  0.1737 -0.2373 -0.0148
 4291SOL    HW114294   4.595   8.919   8.138  2.7329  1.6033 -0.2056
 4291SOL    HW214295   4.578   8.799   8.047 -1.8879  0.8897  1.3845
 4292SOL     OW14296   3.363   6.495   0.827 -0.5333 -0.9832 -0.1631
 4292SOL    HW114297   3.428   6.429   0.853 -0.1176 -0.5542 -0.1103
 4292SOL    HW214298   3.311   6.510   0.906  0.7640  0.3600  0.4645
 4293SOL     OW14299   5.334   5.796   3.015  0.1164  0.1538 -0.3079
 4293SOL    HW114300   5.337   5.794   2.920  0.6255 -1.5339 -0.2922
 4293SOL    HW214301   5.258   5.850   3.036 -2.2913 -2.4350 -1.7393
 4294SOL     OW14302   5.808   0.228   8.289 -0.8879 -0.0438 -0.0485
 4294SOL    HW114303   5.795   0.262   8.200 -0.1290 -1.7229 -0.8625
 4294SOL    HW214304   5.734   0.170   8.304  0.1879 -1.6471 -0.6061
 4295SOL     OW14305   7.659   4.058   5.460  0.4183  0.1790  0.0203
 4295SOL    HW114306   7.588   4.087   5.403  0.9921  1.1870 -0.2215
 4295SOL    HW214307   7.666   4.127   5.526  0.9415 -0.0820  0.2415
 4296SOL     OW14308   7.496   4.476   0.565  0.3099 -0.3167 -0.7563
 4296SOL    HW114309   7.568   4.425   0.601  0.8965  0.6841 -0.4529
 4296SOL    HW214310   7.419   4.445   0.611  0.7477 -0.5083 -0.1339
 4297SOL     OW14311   0.857   6.216   1.713  0.4656 -0.2902  0.0924
 4297SOL    HW114312   0.895   6.130   1.694 -1.0963 -1.1516  0.6609
 4297SOL    HW214313   0.870   6.266   1.632  1.3411 -1.0688 -0.2693
 4298SOL     OW14314   1.613   0.142   2.704  0.1268  0.5409  0.2053
 4298SOL    HW114315   1.667   0.195   2.763 -0.0342  2.4879 -1.3082
 4298SOL    HW214316   1.644   0.052   2.718  2.0709  1.2987  1.1514
 4299SOL     OW14317   4.323   8.903   6.977 -0.3465  0.0800 -0.5143
 4299SOL    HW114318   4.403   8.869   7.018 -0.5646  1.0900  0.8211
 4299SOL    HW214319   4.355   8.957   6.904  0.1354 -0.4325 -0.6880
 4300SOL     OW14320   3.398   3.020   7.321 -0.3115  0.0327  0.0154
 4300SOL    HW114321   3.371   3.067   7.242  1.5745  0.6929 -0.3168
 4300SOL    HW214322   3.415   3.089   7.385 -0.5229 -0.4058  0.5492
 4301SOL     OW14323   2.088   6.190   0.923 -0.3314  0.2181 -0.1335
 4301SOL    HW114324   2.098   6.131   0.848  0.2123  1.5567 -1.1617
 4301SOL    HW214325   2.158   6.165   0.983  0.8006  0.7421 -1.2076
 4302SOL     OW14326   0.033   6.690   6.409 -0.3291  0.0738  0.5188
 4302SOL    HW114327   0.047   6.697   6.315  0.9467  0.0469  0.6841
 4302SOL    HW214328   0.055   6.777   6.443 -0.7861  0.0846  0.7887
 4303SOL     OW14329   5.183   8.267   9.228  0.6636 -0.2252 -0.6030
 4303SOL    HW114330   5.197   8.353   9.267  0.0195  0.0350 -0.9519
 4303SOL    HW214331   5.104   8.234   9.271  1.5173 -1.1251  0.3559
 4304SOL     OW14332   7.558   9.029   8.329  0.6869  0.3851  0.2442
 4304SOL    HW114333   7.522   9.038   8.240 -0.6937 -1.6234  0.5146
 4304SOL    HW214334   7.619   8.956   8.323  1.9588  1.3727  0.6222
 4305SOL     OW14335   0.392   0.551   6.786 -0.0701 -0.5533  0.0181
 4305SOL    HW114336   0.315   0.523   6.835  0.8754 -1.0128  1.2995
 4305SOL    HW214337   0.380   0.514   6.699 -0.9360 -1.2558  0.4233
 4306SOL     OW14338   7.916   5.615   8.156  0.0693 -0.0828 -0.6639
 4306SOL    HW114339   7.924   5.678   8.085 -0.7995 -0.5849 -1.2216
 4306SOL    HW214340   7.936   5.530   8.116 -2.0668 -0.6025 -0.7544
 4307SOL     OW14341   6.412   5.831   7.689 -0.2002 -0.1596  0.3032
 4307SOL    HW114342   6.491   5.855   7.737  0.2197  0.1895 -0.5343
 4307SOL    HW214343   6.340   5.868   7.741  0.2444  0.2831  0.6106
 4308SOL     OW14344   2.696   8.184   8.342 -0.1862  0.1022  0.2075
 4308SOL    HW114345   2.737   8.137   8.414  0.3914  0.3509  0.0517
 4308SOL    HW214346   2.602   8.182   8.361 -0.0401  0.1409  0.9523
 4309SOL     OW14347   2.176   2.830   5.571  0.0776  0.1898 -0.1081
 4309SOL    HW114348   2.122   2.786   5.505 -0.0887  1.9077 -1.2026
 4309SOL    HW214349   2.251   2.864   5.521  0.8986 -0.0320  0.9421
 4310SOL     OW14350   2.004   5.393   8.140 -0.1860  0.2257  0.4698
 4310SOL    HW114351   1.990   5.457   8.209  1.5169  0.2489  0.8516
 4310SOL    HW214352   1.958   5.314   8.169 -0.9224  0.7613  0.7791
 4311SOL     OW14353   8.697   8.322   4.006  0.1261 -0.3742  0.0706
 4311SOL    HW114354   8.674   8.233   3.981  0.1050 -0.6356  1.0082
 4311SOL    HW214355   8.616   8.372   3.998 -0.2858 -0.8283  1.2682
 4312SOL     OW14356   3.091   8.429   8.183  0.3392  0.4614 -0.1499
 4312SOL    HW114357   3.029   8.404   8.251  1.8147 -0.1111  1.0444
 4312SOL    HW214358   3.176   8.430   8.227  1.2070  1.1126 -1.7487
 4313SOL     OW14359   5.568   6.666   4.032  0.2876 -0.3845 -0.1658
 4313SOL    HW114360   5.545   6.646   4.123  0.4601  2.5271  0.6204
 4313SOL    HW214361   5.485   6.690   3.991  0.5385  0.8855  0.0163
 4314SOL     OW14362   3.250   3.392   2.845  0.2145  0.0221 -0.1948
 4314SOL    HW114363   3.156   3.410   2.842  0.5753  2.9772  1.7084
 4314SOL    HW214364   3.287   3.443   2.773  0.3551 -1.5888 -1.2984
 4315SOL     OW14365   4.302   6.935   6.400  0.4756 -0.1562 -0.2497
 4315SOL    HW114366   4.280   6.918   6.491  2.2527  0.8851  0.4442
 4315SOL    HW214367   4.362   7.010   6.404 -0.1676  0.5392 -2.3598
 4316SOL     OW14368   5.420   1.334   8.810 -0.4834 -0.1356 -1.1264
 4316SOL    HW114369   5.433   1.262   8.749 -1.2926  1.0275 -2.7624
 4316SOL    HW214370   5.450   1.300   8.894  0.6427 -1.8180 -2.1397
 4317SOL     OW14371   2.883   8.428   3.206 -0.1080  0.2315  0.0171
 4317SOL    HW114372   2.917   8.338   3.208  0.1403  0.3262  0.1712
 4317SOL    HW214373   2.892   8.458   3.297  0.0419  0.4971 -0.0849
 4318SOL     OW14374   4.562   6.625   2.805 -0.1624 -0.1075  0.6911
 4318SOL    HW114375   4.583   6.644   2.714  1.1187  0.0250  0.9943
 4318SOL    HW214376   4.584   6.706   2.852 -0.6222 -0.2418  1.1444
 4319SOL     OW14377   4.780   6.122   1.876 -0.9372 -0.3711  0.3085
 4319SOL    HW114378   4.728   6.060   1.825 -0.2732  0.2169 -1.1319
 4319SOL    HW214379   4.868   6.115   1.840 -0.9511  1.7813 -0.2647
 4320SOL     OW14380   3.852   5.123   3.765 -0.6788  0.5775  0.2124
 4320SOL    HW114381   3.847   5.217   3.745 -1.1684  0.0605 -2.5561
 4320SOL    HW214382   3.775   5.085   3.722 -0.1691 -1.1801  0.7565
 4321SOL     OW14383   5.850   4.379   0.249 -0.4450  0.1015  0.2173
 4321SOL    HW114384   5.896   4.322   0.188  1.1895 -0.2918  1.7333
 4321SOL    HW214385   5.776   4.414   0.199  0.2419 -0.9879 -1.6363
 4322SOL     OW14386   2.094   3.238   6.932  0.2493 -0.2785 -0.0039
 4322SOL    HW114387   2.061   3.158   6.893 -1.7129 -0.3414  1.6172
 4322SOL    HW214388   2.121   3.213   7.020 -1.9799  1.0698  1.1462
 4323SOL     OW14389   1.459   5.571   2.032  0.0664  0.1717  0.2285
 4323SOL    HW114390   1.417   5.602   1.951  1.4385 -1.5376 -1.2267
 4323SOL    HW214391   1.478   5.651   2.081 -2.4614  1.1712 -0.2169
 4324SOL     OW14392   7.416   4.363   3.443  0.3487  0.2580 -0.2109
 4324SOL    HW114393   7.462   4.319   3.372 -0.2615 -0.2667 -0.2871
 4324SOL    HW214394   7.485   4.404   3.494  0.7090  2.7178 -2.4277
 4325SOL     OW14395   8.305   6.845   8.363  0.4723 -0.4254 -0.3787
 4325SOL    HW114396   8.389   6.811   8.334  0.3750 -0.3318 -0.7884
 4325SOL    HW214397   8.317   6.865   8.455  1.4967  1.3774 -0.8533
 4326SOL     OW14398   4.945   4.031   5.275 -0.1644  0.4766  0.1125
 4326SOL    HW114399   4.871   4.024   5.216 -1.2477 -2.4663  1.6039
 4326SOL    HW214400   5.008   3.968   5.242  0.5981  1.1137  0.3163
 4327SOL     OW14401   6.252   1.266   4.218  0.0630 -0.5763  0.3434
 4327SOL    HW114402   6.347   1.261   4.223  0.0495 -1.5466 -0.0176
 4327SOL    HW214403   6.233   1.281   4.126 -0.1402 -1.1575  0.2810
 4328SOL     OW14404   6.046   8.128   0.151 -0.4145  0.0793 -0.4329
 4328SOL    HW114405   5.958   8.162   0.170 -0.9652 -1.1698 -0.6376
 4328SOL    HW214406   6.030   8.045   0.105  0.8667 -0.9344  0.8791
 4329SOL     OW14407   8.468   2.888   3.242  0.0356 -0.2273 -0.1182
 4329SOL    HW114408   8.404   2.830   3.199 -1.2404  0.6956  0.4668
 4329SOL    HW214409   8.529   2.828   3.285 -0.9387 -1.1457  0.0371
 4330SOL     OW14410   1.035   2.341   9.151 -0.2932 -0.1715 -0.2189
 4330SOL    HW114411   1.053   2.422   9.103  1.4612 -0.0937  0.4720
 4330SOL    HW214412   0.985   2.369   9.228  0.2951  0.2619  0.0105
 4331SOL     OW14413   4.107   4.107   6.710  0.4491 -0.1583 -0.0882
 4331SOL    HW114414   4.015   4.121   6.685  0.3026 -0.0049  0.5375
 4331SOL    HW214415   4.103   4.072   6.799  1.0837  1.9353  0.8220
 4332SOL     OW14416   8.305   6.930   5.605 -0.1860 -0.2643 -0.6308
 4332SOL    HW114417   8.269   6.850   5.565 -1.4723  0.1710 -0.3909
 4332SOL    HW214418   8.324   6.987   5.530 -0.6977 -0.2214 -0.7337
 4333SOL     OW14419   5.615   8.778   3.415 -0.6631  0.3857  0.0797
 4333SOL    HW114420   5.645   8.689   3.396 -1.0088  0.2854 -0.0132
 4333SOL    HW214421   5.662   8.804   3.494 -0.8250 -0.0123  0.3069
 4334SOL     OW14422   9.253   7.171   1.753 -0.3947 -0.1427 -0.4852
 4334SOL    HW114423   9.251   7.190   1.847  1.2338 -0.1499 -0.4116
 4334SOL    HW214424   9.261   7.075   1.749  0.9807 -0.0569 -0.5462
 4335SOL     OW14425   0.900   1.174   1.030  0.1986 -0.1907 -0.6647
 4335SOL    HW114426   0.914   1.152   1.123  0.7417  0.8581 -0.4905
 4335SOL    HW214427   0.810   1.207   1.026  0.3706  0.3080 -0.4090
 4336SOL     OW14428   1.102   2.420   6.423  0.3549 -0.4060 -0.1140
 4336SOL    HW114429   1.067   2.505   6.399 -0.1831  0.1364  2.3598
 4336SOL    HW214430   1.061   2.359   6.362 -2.1816  0.6597  0.4256
 4337SOL     OW14431   7.995   0.394   0.714 -0.3255 -0.5616 -0.4354
 4337SOL    HW114432   8.012   0.317   0.768  1.9426  0.3919  0.3632
 4337SOL    HW214433   8.014   0.468   0.772 -2.5589  0.6584 -1.1353
 4338SOL     OW14434   9.047   8.529   6.166  0.5082  0.3608  0.3428
 4338SOL    HW114435   8.952   8.517   6.177  0.0648  2.4609 -0.5257
 4338SOL    HW214436   9.078   8.446   6.131 -1.4592  0.3348 -1.6271
 4339SOL     OW14437   5.446   0.413   4.110 -0.5086 -0.1827  0.5235
 4339SOL    HW114438   5.393   0.448   4.182 -0.7361 -0.3432  0.4345
 4339SOL    HW214439   5.411   0.457   4.032  0.1707  0.4902  0.5838
 4340SOL     OW14440   6.754   8.347   9.138  0.0925  0.3701  0.1830
 4340SOL    HW114441   6.691   8.331   9.209  2.1289  0.3729  2.1157
 4340SOL    HW214442   6.829   8.387   9.182  1.0627  1.2990 -2.1813
 4341SOL     OW14443   5.049   0.949   4.485  0.2959  0.4864 -0.0002
 4341SOL    HW114444   5.066   1.009   4.413 -0.2198  0.4971 -0.1161
 4341SOL    HW214445   5.134   0.909   4.504  0.6391  1.2298  0.0648
 4342SOL     OW14446   6.242   7.866   3.884  0.5266  0.0927 -0.0433
 4342SOL    HW114447   6.167   7.831   3.836  0.2985  1.1847 -0.5126
 4342SOL    HW214448   6.315   7.809   3.861 -0.1037 -0.8262  0.2143
 4343SOL     OW14449   2.646   8.617   7.410  0.1907  0.2692 -0.0193
 4343SOL    HW114450   2.661   8.552   7.341  0.2196  0.9153 -0.6388
 4343SOL    HW214451   2.733   8.638   7.443  0.0720 -1.3431  1.4832
 4344SOL     OW14452   3.522   6.469   5.984  0.3029 -0.1509  0.0641
 4344SOL    HW114453   3.615   6.444   5.980  0.1983 -0.4502 -0.6293
 4344SOL    HW214454   3.523   6.559   6.016  0.9216  0.3020 -1.1552
 4345SOL     OW14455   6.368   2.954   2.300 -0.2164  0.3092  0.6329
 4345SOL    HW114456   6.331   2.904   2.373  0.3538 -2.1182 -0.6015
 4345SOL    HW214457   6.295   2.967   2.241 -0.4472  1.3198  1.1268
 4346SOL     OW14458   0.978   2.630   2.142 -0.0122  0.1506  0.5474
 4346SOL    HW114459   0.943   2.543   2.122  1.0774  0.0349 -1.0025
 4346SOL    HW214460   0.912   2.669   2.199 -1.8945 -0.6471 -0.9712
 4347SOL     OW14461   8.385   1.204   2.827 -0.2792 -0.0850  0.2928
 4347SOL    HW114462   8.394   1.110   2.843 -0.8822 -0.5431 -1.8063
 4347SOL    HW214463   8.467   1.241   2.859  0.9885 -1.6482 -0.9925
 4348SOL     OW14464   3.981   4.670   3.012  0.0152 -0.2011 -0.1428
 4348SOL    HW114465   4.010   4.586   2.978 -0.9222 -0.0881 -1.2663
 4348SOL    HW214466   3.938   4.648   3.095 -2.2304 -1.1846 -1.4585
 4349SOL     OW14467   2.496   1.275   1.097  0.0545 -0.2914 -0.1784
 4349SOL    HW114468   2.447   1.324   1.031 -0.5925 -1.0415 -0.2673
 4349SOL    HW214469   2.443   1.196   1.113  0.5662 -0.4696  0.7029
 4350SOL     OW14470   7.116   2.130   0.950  0.1258  0.7962  0.4119
 4350SOL    HW114471   7.075   2.203   0.996  0.6383  2.2063 -1.2516
 4350SOL    HW214472   7.202   2.163   0.923  0.8725 -0.8525  0.6550
 4351SOL     OW14473   5.409   0.370   0.105  0.1119  0.2893  0.2860
 4351SOL    HW114474   5.337   0.418   0.146 -0.1305  1.0675 -1.0100
 4351SOL    HW214475   5.485   0.393   0.158 -0.0820  1.7576 -0.0155
 4352SOL     OW14476   8.985   4.613   1.543  0.4741  0.7013 -0.4386
 4352SOL    HW114477   8.971   4.700   1.582  1.1032  0.7506 -0.3004
 4352SOL    HW214478   8.991   4.630   1.449  1.1995  0.9049 -0.3678
 4353SOL     OW14479   2.017   2.501   5.797 -0.0582 -0.6658 -0.3647
 4353SOL    HW114480   1.970   2.544   5.725  0.4729 -1.0482 -0.9515
 4353SOL    HW214481   2.106   2.537   5.791 -0.3294  0.2942  0.9307
 4354SOL     OW14482   0.818   4.435   0.629 -0.3095 -0.4184  0.1135
 4354SOL    HW114483   0.781   4.425   0.542 -0.5332  0.5626  0.0740
 4354SOL    HW214484   0.750   4.481   0.678  0.9618  1.8135 -0.0755
 4355SOL     OW14485   5.821   2.232   1.554  0.6095 -0.1550 -0.6939
 4355SOL    HW114486   5.857   2.147   1.527  1.6016  0.0776 -0.1706
 4355SOL    HW214487   5.742   2.242   1.502  0.9460 -1.0096 -1.4053
 4356SOL     OW14488   3.807   0.298   8.041 -0.6732  0.3277  0.3001
 4356SOL    HW114489   3.887   0.320   8.089 -1.6421  0.6099  1.8443
 4356SOL    HW214490   3.737   0.305   8.106 -2.5266  3.7453 -1.7762
 4357SOL     OW14491   0.220   5.231   8.534 -0.4854 -0.4076  0.2689
 4357SOL    HW114492   0.157   5.162   8.513 -0.8956 -0.3689  1.3184
 4357SOL    HW214493   0.291   5.219   8.471 -0.5177 -1.8284  0.4831
 4358SOL     OW14494   6.237   6.676   3.258 -0.2889 -0.0152 -0.1898
 4358SOL    HW114495   6.239   6.759   3.306 -1.9833  1.0413 -1.7853
 4358SOL    HW214496   6.302   6.621   3.302  0.3069  1.8600  1.4362
 4359SOL     OW14497   1.404   4.290   5.339 -0.0477 -0.6579  0.1227
 4359SOL    HW114498   1.420   4.295   5.245 -0.3270 -0.0430  0.0976
 4359SOL    HW214499   1.347   4.214   5.350 -1.5070  0.2882 -0.4414
 4360SOL     OW14500   4.983   7.744   2.697 -0.0527  0.3994 -0.9179
 4360SOL    HW114501   5.025   7.797   2.629  0.2870  1.9584  0.4425
 4360SOL    HW214502   5.012   7.783   2.780  0.1812 -1.8997  0.1903
 4361SOL     OW14503   8.654   2.604   5.758 -0.1359 -0.2513 -0.4717
 4361SOL    HW114504   8.670   2.551   5.680  0.3161 -2.5602  1.0570
 4361SOL    HW214505   8.719   2.572   5.821 -0.3276  1.6896  0.7820
 4362SOL     OW14506   8.726   0.071   3.776 -0.1731  0.3048  0.0501
 4362SOL    HW114507   8.710   0.068   3.871 -2.0899 -1.3819 -0.2717
 4362SOL    HW214508   8.733  -0.021   3.750  0.6161  0.7494 -1.4301
 4363SOL     OW14509   8.381   9.265   7.717 -0.2631  0.0387 -0.3809
 4363SOL    HW114510   8.351   9.298   7.802 -0.5380 -0.9716 -0.0645
 4363SOL    HW214511   8.304   9.219   7.681  0.2822 -0.8095 -0.4962
 4364SOL     OW14512   2.021   6.267   4.187 -0.1467  0.8847  0.4624
 4364SOL    HW114513   2.017   6.247   4.094 -0.7027 -0.3531  0.7353
 4364SOL    HW214514   2.114   6.266   4.208 -0.0779  0.1457  0.1307
 4365SOL     OW14515   7.664   3.795   5.625 -0.7070  0.0316  0.5554
 4365SOL    HW114516   7.653   3.872   5.569  0.2647  0.4226  0.8653
 4365SOL    HW214517   7.750   3.808   5.666 -0.7417 -0.9866  0.9823
 4366SOL     OW14518   5.551   2.617   9.126  0.7493 -0.1739 -0.2258
 4366SOL    HW114519   5.615   2.658   9.069  1.8449 -0.9638  0.3924
 4366SOL    HW214520   5.599   2.546   9.168 -1.0133 -1.9683 -1.1062
 4367SOL     OW14521   0.450   4.503   7.587  0.1187  0.1990 -0.1946
 4367SOL    HW114522   0.408   4.577   7.630  0.5472 -0.3364  1.2197
 4367SOL    HW214523   0.468   4.442   7.658  0.3479 -0.9869 -1.2411
 4368SOL     OW14524   4.487   0.709   8.569  0.2457 -0.0354  0.1460
 4368SOL    HW114525   4.563   0.740   8.520 -0.2620  2.5625  0.8786
 4368SOL    HW214526   4.425   0.680   8.501  0.5907  0.9913 -0.6291
 4369SOL     OW14527   4.645   0.211   7.640  0.0656 -0.0730  0.6080
 4369SOL    HW114528   4.678   0.286   7.591 -1.4716  0.2950  0.0912
 4369SOL    HW214529   4.550   0.220   7.637 -0.1355 -1.7565  0.9890
 4370SOL     OW14530   3.222   8.004   5.921 -0.7803  0.5386 -0.0185
 4370SOL    HW114531   3.312   7.976   5.905 -1.3338 -0.7491 -0.9999
 4370SOL    HW214532   3.217   8.091   5.880  0.4712  1.4443  1.5868
 4371SOL     OW14533   1.864   0.639   6.222  0.1768 -0.2421  0.4172
 4371SOL    HW114534   1.888   0.613   6.311 -0.9351 -1.7062  0.3277
 4371SOL    HW214535   1.891   0.566   6.167  0.0648  0.2716 -0.3330
 4372SOL     OW14536   0.321   3.458   6.666 -1.0051  0.2530 -0.1844
 4372SOL    HW114537   0.258   3.495   6.727 -1.5165 -1.8917  0.6854
 4372SOL    HW214538   0.269   3.399   6.611 -0.1994  0.5638 -1.3246
 4373SOL     OW14539   6.241   3.529   4.733 -0.8056  0.3022  0.0768
 4373SOL    HW114540   6.198   3.606   4.769  1.3686  1.2366  0.8510
 4373SOL    HW214541   6.216   3.529   4.640 -2.0330  1.0365  0.3812
 4374SOL     OW14542   7.534   7.858   6.199 -0.3127  0.1540  0.0272
 4374SOL    HW114543   7.452   7.891   6.162 -0.8775 -1.0733  0.1436
 4374SOL    HW214544   7.554   7.920   6.270 -1.9447 -0.3202  0.9812
 4375SOL     OW14545   2.804   6.270   7.325  0.0904  0.2826  0.4563
 4375SOL    HW114546   2.863   6.305   7.391 -0.8568  0.3291  1.2891
 4375SOL    HW214547   2.813   6.329   7.250 -1.0660  2.0223  1.6323
 4376SOL     OW14548   7.442   4.140   1.837  0.2754 -0.3933  0.1587
 4376SOL    HW114549   7.508   4.144   1.905 -1.7975 -0.9971  2.3533
 4376SOL    HW214550   7.418   4.231   1.820 -1.4781 -0.2843  2.7336
 4377SOL     OW14551   7.110   7.415   8.358 -0.2652 -0.7382  0.0244
 4377SOL    HW114552   7.195   7.373   8.373 -1.9577 -4.1458  1.0247
 4377SOL    HW214553   7.080   7.379   8.275 -0.1747  1.6985 -1.1769
 4378SOL     OW14554   0.218   4.000   7.250  0.0128 -0.2057  0.0872
 4378SOL    HW114555   0.246   4.067   7.188 -0.2874  0.0758  0.2533
 4378SOL    HW214556   0.235   3.917   7.205  1.2907 -0.0543  0.2585
 4379SOL     OW14557   2.012   7.810   0.611 -0.0043 -0.4388 -0.9413
 4379SOL    HW114558   1.931   7.782   0.654  1.2996 -0.9197  1.4091
 4379SOL    HW214559   2.043   7.732   0.565  0.1400 -0.8658 -0.1369
 4380SOL     OW14560   1.336   3.497   3.362 -0.0072 -0.0933 -0.0491
 4380SOL    HW114561   1.416   3.448   3.342  1.8331  1.1252  3.4210
 4380SOL    HW214562   1.311   3.539   3.280  3.4141  0.1299 -1.1092
 4381SOL     OW14563   2.662   7.178   2.243 -0.7058  0.0250 -0.5120
 4381SOL    HW114564   2.614   7.237   2.300 -0.0544 -0.6265  0.7508
 4381SOL    HW214565   2.668   7.096   2.292 -0.5055 -0.6972 -1.7056
 4382SOL     OW14566   0.975   7.204   5.536 -0.1253 -0.1756 -0.6740
 4382SOL    HW114567   0.926   7.270   5.585  0.2842 -0.9467  0.8247
 4382SOL    HW214568   0.930   7.200   5.451 -1.8613  0.0664  0.1731
 4383SOL     OW14569   0.846   6.235   5.883 -0.1370  0.3389 -0.1490
 4383SOL    HW114570   0.756   6.243   5.914  0.1354  0.0572  0.7335
 4383SOL    HW214571   0.894   6.302   5.932  0.5233 -0.9106  0.9701
 4384SOL     OW14572   3.596   4.930   3.921 -0.0669 -0.5688  0.2310
 4384SOL    HW114573   3.556   5.003   3.875  1.4445 -0.3901 -0.8667
 4384SOL    HW214574   3.589   4.954   4.014  0.8666  1.2460 -0.1206
 4385SOL     OW14575   7.045   6.898   7.011 -0.1967  0.7785  0.1321
 4385SOL    HW114576   7.039   6.908   6.916  0.6966 -0.6915 -0.1043
 4385SOL    HW214577   6.955   6.879   7.039 -0.1956 -0.5569 -0.6741
 4386SOL     OW14578   7.554   5.772   5.526 -0.0682 -0.7299  0.1555
 4386SOL    HW114579   7.619   5.819   5.578  1.0667 -2.1217  0.0617
 4386SOL    HW214580   7.596   5.688   5.506 -1.2556 -1.0138 -1.3148
 4387SOL     OW14581   8.007   3.377   3.526 -0.0707 -0.2731  0.2242
 4387SOL    HW114582   7.928   3.327   3.506  0.5815 -1.9680  1.7033
 4387SOL    HW214583   8.076   3.335   3.475  0.2990 -0.2096  0.6673
 4388SOL     OW14584   3.032   3.359   6.305  0.2265  0.4851  0.3258
 4388SOL    HW114585   2.965   3.368   6.373  1.0572 -1.0487  1.4252
 4388SOL    HW214586   3.110   3.400   6.342  0.1776  1.3816 -0.5366
 4389SOL     OW14587   1.148   7.144   5.718 -0.4121 -0.0888  0.7675
 4389SOL    HW114588   1.226   7.128   5.665 -0.3847 -0.8395  1.0191
 4389SOL    HW214589   1.082   7.174   5.656 -0.4689 -1.2363  0.2533
 4390SOL     OW14590   7.606   6.350   8.956 -0.3821 -0.0202  0.1925
 4390SOL    HW114591   7.645   6.296   9.025 -1.0337  0.5956  1.0819
 4390SOL    HW214592   7.676   6.410   8.930  0.1728 -0.9206 -0.4045
 4391SOL     OW14593   0.110   6.808   1.275  0.5140 -0.3445 -0.5243
 4391SOL    HW114594   0.204   6.819   1.286  0.2322  0.1639  1.7590
 4391SOL    HW214595   0.078   6.896   1.252  0.3750 -0.0542  0.7163
 4392SOL     OW14596   1.767   3.580   0.455 -0.0262 -0.5153  0.1149
 4392SOL    HW114597   1.727   3.589   0.541 -2.2605 -0.4360 -0.8806
 4392SOL    HW214598   1.811   3.663   0.440  0.1670 -0.4339  1.0508
 4393SOL     OW14599   3.805   8.040   9.053 -1.4986  0.1597  0.1673
 4393SOL    HW114600   3.807   8.081   9.139 -3.3141  0.0225  0.3202
 4393SOL    HW214601   3.806   7.946   9.070  0.6202  0.0795 -0.1051
 4394SOL     OW14602   6.452   7.288   0.008  0.4134 -0.2228  0.1156
 4394SOL    HW114603   6.504   7.363   0.036  1.0152 -1.0246  1.2828
 4394SOL    HW214604   6.365   7.304   0.044  1.3960 -1.6948  3.6814
 4395SOL     OW14605   4.732   3.524   3.194 -0.1195  0.3856 -0.7880
 4395SOL    HW114606   4.776   3.460   3.138  2.9810  1.9435 -0.3171
 4395SOL    HW214607   4.760   3.500   3.283  0.9599  2.2304 -0.5953
 4396SOL     OW14608   6.815   8.987   8.903  0.4835 -0.1837 -0.4731
 4396SOL    HW114609   6.894   9.032   8.873  0.6271 -0.1466 -0.0567
 4396SOL    HW214610   6.774   9.049   8.963  0.6282 -0.5604  0.0244
 4397SOL     OW14611   7.891   5.114   2.593  0.3147 -0.1147  0.2586
 4397SOL    HW114612   7.923   5.045   2.534 -0.5832 -0.4587  0.1683
 4397SOL    HW214613   7.798   5.097   2.602  0.1591  0.8478  0.5740
 4398SOL     OW14614   5.297   3.356   3.796  0.0911 -0.1577 -0.2639
 4398SOL    HW114615   5.303   3.425   3.861  0.4357 -0.4100 -0.0243
 4398SOL    HW214616   5.231   3.387   3.734  1.3692  1.1236 -1.0569
 4399SOL     OW14617   1.883   6.257   0.621 -0.3838 -0.2365  0.1921
 4399SOL    HW114618   1.882   6.349   0.596  0.9116 -0.1140  0.4945
 4399SOL    HW214619   1.845   6.255   0.708 -1.5157 -0.1686 -0.2786
 4400SOL     OW14620   8.651   6.185   5.925  0.0126 -0.2399 -0.3060
 4400SOL    HW114621   8.577   6.128   5.949 -0.0408  0.1940  0.6031
 4400SOL    HW214622   8.720   6.161   5.986 -0.2716  1.1974  0.6279
 4401SOL     OW14623   2.697   0.052   4.268  0.7846  0.8414 -0.4046
 4401SOL    HW114624   2.613   0.097   4.268 -0.8598 -1.9505 -0.1798
 4401SOL    HW214625   2.746   0.092   4.340 -0.2961  2.6158 -0.6114
 4402SOL     OW14626   6.349   4.388   1.827  0.1997  0.1191 -0.0598
 4402SOL    HW114627   6.328   4.451   1.758 -0.2526  1.9458  1.6702
 4402SOL    HW214628   6.322   4.304   1.791 -0.3610  1.0495 -1.9571
 4403SOL     OW14629   2.134   2.844   2.360 -0.9119 -0.4553 -0.6250
 4403SOL    HW114630   2.212   2.791   2.378 -1.6414 -1.4551 -0.3141
 4403SOL    HW214631   2.129   2.904   2.434 -0.7730 -0.7984 -0.3288
 4404SOL     OW14632   6.644   4.815   1.689  0.4950 -0.2148 -0.0067
 4404SOL    HW114633   6.649   4.756   1.613  1.0075  0.8762 -0.8411
 4404SOL    HW214634   6.735   4.836   1.709  0.2863  1.3946 -0.6214
 4405SOL     OW14635   8.643   6.084   1.702  0.3548 -0.8765  0.3669
 4405SOL    HW114636   8.655   6.128   1.786  0.7826 -0.8578  0.3025
 4405SOL    HW214637   8.690   6.139   1.639 -2.6236  0.8571 -0.4821
 4406SOL     OW14638   8.519   4.432   0.977  0.3748  0.5810 -0.4060
 4406SOL    HW114639   8.485   4.462   0.892  0.4168  0.3240 -0.5142
 4406SOL    HW214640   8.491   4.341   0.983  2.1858 -0.0630 -1.1111
 4407SOL     OW14641   0.548   1.377   0.491  0.0155  0.8088 -0.4267
 4407SOL    HW114642   0.492   1.317   0.539  1.4848 -0.0047  0.3293
 4407SOL    HW214643   0.559   1.336   0.405  0.0709  0.5846 -0.3126
 4408SOL     OW14644   9.262   6.765   9.026 -0.5573 -0.1940  0.3956
 4408SOL    HW114645   9.338   6.822   9.037 -0.0505 -1.1261  2.0701
 4408SOL    HW214646   9.296   6.686   8.986 -0.7829 -0.3391  0.4866
 4409SOL     OW14647   8.115   1.871   1.024 -0.3774 -0.1258  0.2751
 4409SOL    HW114648   8.178   1.800   1.009 -0.9590 -0.5228 -0.3586
 4409SOL    HW214649   8.150   1.918   1.099  1.6855  0.8231 -1.1892
 4410SOL     OW14650   3.739   3.847   6.994  0.4498  0.0289 -0.0220
 4410SOL    HW114651   3.653   3.847   6.951 -0.9695 -1.6322  2.6079
 4410SOL    HW214652   3.793   3.789   6.939 -0.9986 -1.2599 -0.1398
 4411SOL     OW14653   2.159   0.855   1.058 -0.3643  0.3293 -0.1091
 4411SOL    HW114654   2.200   0.769   1.059  1.8531  1.3264  0.1607
 4411SOL    HW214655   2.067   0.837   1.039  0.6193 -1.8552 -3.7397
 4412SOL     OW14656   4.835   2.954   5.682  0.1357  0.0660  0.0590
 4412SOL    HW114657   4.889   3.000   5.747  1.8097 -1.9054  0.1799
 4412SOL    HW214658   4.894   2.942   5.607 -1.0811  0.3570 -0.9728
 4413SOL     OW14659   4.621   8.403   5.574  0.1297 -0.3370  0.1447
 4413SOL    HW114660   4.620   8.343   5.648  1.6331 -0.6619 -0.0785
 4413SOL    HW214661   4.713   8.412   5.550 -0.1324  1.4114 -0.3693
 4414SOL     OW14662   5.810   4.636   5.772  0.1970  0.1046 -0.2465
 4414SOL    HW114663   5.720   4.632   5.739 -0.2971 -1.3686  1.1431
 4414SOL    HW214664   5.828   4.729   5.780  0.1751  0.6038 -4.0025
 4415SOL     OW14665   7.585   4.792   2.633  0.1518 -0.2709  1.0912
 4415SOL    HW114666   7.629   4.726   2.579 -1.9051  0.1679 -1.2559
 4415SOL    HW214667   7.620   4.875   2.602  0.3160 -0.0773  1.7748
 4416SOL     OW14668   5.297   1.554   7.086  0.1414  1.1382  0.5798
 4416SOL    HW114669   5.290   1.458   7.092 -4.6905  1.2793  1.5196
 4416SOL    HW214670   5.311   1.582   7.176 -1.5216  1.3213  0.8102
 4417SOL     OW14671   4.461   3.637   4.919 -0.2312  0.0390  0.0013
 4417SOL    HW114672   4.477   3.721   4.878 -1.3912 -0.1569 -0.9195
 4417SOL    HW214673   4.429   3.658   5.007  0.4351  0.5237  0.1274
 4418SOL     OW14674   3.621   0.861   0.607 -0.3016  0.0459 -0.0058
 4418SOL    HW114675   3.702   0.911   0.609 -0.5312  0.4369 -0.4244
 4418SOL    HW214676   3.645   0.774   0.641 -0.2400  0.8866  2.3068
 4419SOL     OW14677   4.227   6.845   8.640 -0.3616  0.0687  0.3224
 4419SOL    HW114678   4.297   6.823   8.701 -1.7502 -0.2039  1.8960
 4419SOL    HW214679   4.271   6.894   8.570  1.2635  0.6251  1.6531
 4420SOL     OW14680   3.631   6.818   4.434  0.3099  0.2028 -0.1183
 4420SOL    HW114681   3.561   6.754   4.444 -0.5093  0.6662 -2.3029
 4420SOL    HW214682   3.640   6.858   4.520 -0.6421 -1.3323  0.7397
 4421SOL     OW14683   5.697   7.941   6.117  0.4207  0.4733 -0.4060
 4421SOL    HW114684   5.633   7.972   6.181  0.0407 -0.0844 -0.5005
 4421SOL    HW214685   5.672   7.850   6.102 -0.7651  1.1164 -2.8503
 4422SOL     OW14686   5.242   7.316   3.270  0.2724  0.1294 -0.6092
 4422SOL    HW114687   5.270   7.284   3.356  1.2005  0.2036 -0.8688
 4422SOL    HW214688   5.288   7.399   3.260 -0.6965  0.6596 -0.7179
 4423SOL     OW14689   6.445   2.944   2.992  0.2820  0.2413  0.2165
 4423SOL    HW114690   6.536   2.926   2.967  1.3929  1.9861  2.5431
 4423SOL    HW214691   6.422   3.023   2.943 -0.3100 -0.6510 -0.9820
 4424SOL     OW14692   8.107   2.288   4.218 -0.3838 -0.1368  0.3323
 4424SOL    HW114693   8.166   2.335   4.159 -1.3642  0.9489  0.1736
 4424SOL    HW214694   8.080   2.355   4.282 -1.9569 -0.4276 -0.0087
 4425SOL     OW14695   8.234   5.628   0.728 -0.3053 -0.1499 -0.1214
 4425SOL    HW114696   8.253   5.656   0.818 -1.0194 -0.3982  0.1109
 4425SOL    HW214697   8.245   5.707   0.675 -0.6374  0.1756  0.2934
 4426SOL     OW14698   7.120   0.883   1.403  0.3350 -0.5070  1.0186
 4426SOL    HW114699   7.086   0.831   1.331  1.0567  0.2466  0.1045
 4426SOL    HW214700   7.068   0.963   1.403  1.3095  0.1535  0.3397
 4427SOL     OW14701   3.396   6.429   8.093 -0.0680  0.1200  0.1394
 4427SOL    HW114702   3.479   6.405   8.052  0.4364 -0.0364  1.1953
 4427SOL    HW214703   3.336   6.360   8.068  0.0673  0.3221 -0.7751
 4428SOL     OW14704   3.815   1.369   3.632  0.6681 -0.7008  0.0321
 4428SOL    HW114705   3.779   1.287   3.597  2.8730 -1.4888 -0.5553
 4428SOL    HW214706   3.743   1.408   3.681 -0.8814 -2.2675 -0.8979
 4429SOL     OW14707   4.002   8.827   7.899 -0.0377 -0.3000  0.1687
 4429SOL    HW114708   4.088   8.794   7.871 -0.9311 -1.9511 -0.7230
 4429SOL    HW214709   4.018   8.920   7.917  1.8489 -0.4756 -0.3394
 4430SOL     OW14710   5.394   7.889   0.154 -0.2530 -0.3835  0.3713
 4430SOL    HW114711   5.371   7.898   0.246 -0.1831 -0.5594  0.4063
 4430SOL    HW214712   5.346   7.959   0.110 -0.8322 -0.7282  0.4475
 4431SOL     OW14713   2.324   5.883   8.113 -0.0527  0.5313  0.0954
 4431SOL    HW114714   2.319   5.892   8.018  1.1353 -1.0314 -0.1531
 4431SOL    HW214715   2.413   5.909   8.135 -0.1529  0.3604  0.7211
 4432SOL     OW14716   3.981   3.529   4.601  0.1792  0.2783 -0.2133
 4432SOL    HW114717   3.939   3.462   4.547  1.0001 -0.7487  0.3889
 4432SOL    HW214718   3.947   3.513   4.690 -1.2064  1.9870 -0.3956
 4433SOL     OW14719   1.524   1.385   1.301  0.3104 -0.8520  0.5306
 4433SOL    HW114720   1.598   1.394   1.361 -0.4619  2.8453  1.1725
 4433SOL    HW214721   1.451   1.424   1.348 -1.7720 -3.0178 -0.6839
 4434SOL     OW14722   8.127   3.574   8.183 -0.0900  0.1589 -0.2616
 4434SOL    HW114723   8.166   3.537   8.262  0.0828 -0.5887 -0.6846
 4434SOL    HW214724   8.071   3.504   8.149 -0.9640  0.8418 -0.2488
 4435SOL     OW14725   2.124   1.895   5.931  0.1989 -1.1179 -0.4277
 4435SOL    HW114726   2.131   1.804   5.905  0.4154 -0.7623 -1.6969
 4435SOL    HW214727   2.190   1.941   5.877 -1.4096  0.0889 -1.4640
 4436SOL     OW14728   7.996   7.764   9.229 -0.4371  0.1359 -0.2677
 4436SOL    HW114729   7.996   7.857   9.205 -1.0665  0.4262  0.8170
 4436SOL    HW214730   8.085   7.747   9.258 -0.3983  0.4761 -0.1835
 4437SOL     OW14731   0.057   7.587   7.623  0.0175 -0.4834  0.6232
 4437SOL    HW114732  -0.022   7.577   7.675 -0.7529 -0.4577 -0.4935
 4437SOL    HW214733   0.056   7.678   7.594  0.4248 -0.4971  0.5475
 4438SOL     OW14734   7.566   2.421   5.185 -0.1772  0.1293 -0.0253
 4438SOL    HW114735   7.546   2.514   5.196 -0.1892  0.0253  0.9052
 4438SOL    HW214736   7.510   2.393   5.113 -3.5601 -0.1614  2.4537
 4439SOL     OW14737   1.326   3.878   2.127 -0.1871 -0.1010  0.0413
 4439SOL    HW114738   1.290   3.930   2.199  0.0124 -1.2610  1.0139
 4439SOL    HW214739   1.421   3.887   2.136 -0.1740  0.2567 -0.4629
 4440SOL     OW14740   9.076   4.686   6.302  0.2004 -0.4367  0.5688
 4440SOL    HW114741   9.143   4.725   6.360  0.1889 -1.2779  1.1594
 4440SOL    HW214742   9.011   4.649   6.362 -1.6639  1.7372  0.0236
 4441SOL     OW14743   4.983   3.837   2.280 -0.6144 -0.6634  0.5781
 4441SOL    HW114744   4.951   3.927   2.293 -1.7000 -1.1997  1.9769
 4441SOL    HW214745   5.076   3.847   2.262 -1.2035  0.8996 -2.1009
 4442SOL     OW14746   2.154   9.047   0.112 -0.2847 -0.2895  0.5339
 4442SOL    HW114747   2.084   9.113   0.116 -0.6023 -0.6577  1.4829
 4442SOL    HW214748   2.206   9.072   0.036 -1.5635 -0.1145 -0.3177
 4443SOL     OW14749   2.420   2.709   2.836  0.2088 -0.0800  1.1820
 4443SOL    HW114750   2.495   2.733   2.890  0.0865  0.8909  0.9406
 4443SOL    HW214751   2.355   2.778   2.853 -0.2247 -0.3286  0.5843
 4444SOL     OW14752   5.119   7.438   5.793 -0.8657  0.1527  0.3887
 4444SOL    HW114753   5.147   7.485   5.714 -1.4772 -1.3777 -0.8023
 4444SOL    HW214754   5.039   7.482   5.820 -0.9941  0.3094 -0.2256
 4445SOL     OW14755   3.987   5.266   4.561  0.0108  0.1639  0.0824
 4445SOL    HW114756   4.068   5.295   4.603 -2.1010  2.6205  2.9306
 4445SOL    HW214757   3.977   5.323   4.485  1.4744 -1.0087 -1.0476
 4446SOL     OW14758   5.440   8.313   2.486 -0.1959  0.0515 -0.1395
 4446SOL    HW114759   5.436   8.404   2.456  0.4336  0.3235  0.5512
 4446SOL    HW214760   5.523   8.280   2.452 -0.1084 -0.0500  0.1647
 4447SOL     OW14761   1.585   3.999   3.777 -0.6695 -0.0712 -0.4233
 4447SOL    HW114762   1.673   4.029   3.752  0.3986 -2.1500  0.5573
 4447SOL    HW214763   1.592   3.978   3.870 -2.6797  1.1778  0.0547
 4448SOL     OW14764   5.004   0.895   4.085 -0.7516  0.0242  0.2507
 4448SOL    HW114765   4.947   0.970   4.069 -0.8192 -0.3750 -1.6445
 4448SOL    HW214766   4.973   0.828   4.023  0.9341 -0.6548  0.0832
 4449SOL     OW14767   7.435   6.150   5.975 -0.0803  0.2721 -0.3128
 4449SOL    HW114768   7.350   6.141   6.018  0.0523 -1.2209 -0.3004
 4449SOL    HW214769   7.473   6.062   5.979  1.4399  0.8884 -0.3858
 4450SOL     OW14770   3.526   3.148   0.735 -0.1624 -0.1447 -0.8274
 4450SOL    HW114771   3.524   3.203   0.657 -1.5219 -1.1825 -1.5601
 4450SOL    HW214772   3.526   3.059   0.702  0.8511 -0.6249  0.3579
 4451SOL     OW14773   0.223   5.419   2.532 -0.0805  0.3804  0.3345
 4451SOL    HW114774   0.156   5.395   2.468  0.4303  1.0337 -0.4638
 4451SOL    HW214775   0.241   5.338   2.580 -2.3828  0.4608  1.4834
 4452SOL     OW14776   3.658   9.206   2.266  0.0515  0.6053 -0.2489
 4452SOL    HW114777   3.617   9.243   2.187 -0.8617 -0.2927 -0.2173
 4452SOL    HW214778   3.589   9.209   2.332  0.1485 -0.5348 -0.0715
 4453SOL     OW14779   0.645   3.061   0.108 -0.2867 -0.3426  0.5584
 4453SOL    HW114780   0.598   3.052   0.025 -0.2350  1.1155  0.3456
 4453SOL    HW214781   0.705   2.985   0.110  0.8226  0.4000 -1.4964
 4454SOL     OW14782   3.463   7.977   0.232 -0.2215 -0.7764  0.0188
 4454SOL    HW114783   3.527   7.921   0.188  1.3747  0.3562  0.7756
 4454SOL    HW214784   3.455   7.940   0.320  0.3773 -0.1996  0.3265
 4455SOL     OW14785   1.548   8.650   0.960 -0.4571 -0.4271 -0.3779
 4455SOL    HW114786   1.512   8.563   0.946 -2.0107  0.2937 -1.1003
 4455SOL    HW214787   1.599   8.643   1.040  1.2886 -2.5249 -1.5587
 4456SOL     OW14788   1.638   8.198   7.314  0.3036  0.8418 -0.0006
 4456SOL    HW114789   1.561   8.253   7.327  0.1699  0.6701 -0.0704
 4456SOL    HW214790   1.712   8.255   7.336  0.2452  1.4592 -1.3037
 4457SOL     OW14791   0.144   1.034   2.523 -0.5500  0.2506  0.1392
 4457SOL    HW114792   0.181   0.984   2.450 -3.6198 -3.2839  0.7023
 4457SOL    HW214793   0.135   1.123   2.488  2.2919 -0.1545 -2.0749
 4458SOL     OW14794   8.136   2.491   3.099  0.0824  0.0213 -0.1983
 4458SOL    HW114795   8.090   2.448   3.171  1.9703 -1.5212  0.1862
 4458SOL    HW214796   8.173   2.418   3.047 -0.2735  1.1105 -2.0869
 4459SOL     OW14797   1.637   1.390   3.028  0.3676 -0.1166 -0.0240
 4459SOL    HW114798   1.633   1.336   2.949  0.8751 -1.2983  0.7383
 4459SOL    HW214799   1.723   1.432   3.025  0.1199  0.3812 -0.4246
 4460SOL     OW14800   0.205   1.744   7.478 -0.3518  0.1784  0.2487
 4460SOL    HW114801   0.165   1.787   7.554 -0.8499  2.3019 -1.1168
 4460SOL    HW214802   0.132   1.728   7.418  0.1440 -0.7036 -0.1424
 4461SOL     OW14803   8.257   0.516   8.399  0.1468  0.6616 -0.0800
 4461SOL    HW114804   8.263   0.529   8.494  3.1410  0.4112 -0.1332
 4461SOL    HW214805   8.168   0.486   8.384  0.2547 -1.6516  2.9709
 4462SOL     OW14806   6.050   1.766   7.191  0.0684 -0.0428  0.2459
 4462SOL    HW114807   6.105   1.738   7.264  0.6901  0.3675 -0.0564
 4462SOL    HW214808   6.030   1.685   7.144 -0.4007 -0.3214  0.9014
 4463SOL     OW14809   4.871   6.487   8.496 -0.0207 -0.1532 -0.3427
 4463SOL    HW114810   4.875   6.495   8.591 -0.0520 -0.3751 -0.3200
 4463SOL    HW214811   4.831   6.401   8.482 -0.2801 -0.0002 -0.5550
 4464SOL     OW14812   6.189   2.917   2.791  0.0085 -0.4056 -0.6631
 4464SOL    HW114813   6.274   2.895   2.753 -0.4589  1.1087 -2.7810
 4464SOL    HW214814   6.134   2.840   2.777  0.6213 -0.8655 -0.5562
 4465SOL     OW14815   6.318   1.455   5.179  0.1103  0.2809  0.9078
 4465SOL    HW114816   6.305   1.393   5.107  2.5462  0.3460  0.3335
 4465SOL    HW214817   6.259   1.425   5.248 -2.9379  0.6889 -1.3166
 4466SOL     OW14818   1.745   5.736   6.283 -0.4949 -0.2566  0.0282
 4466SOL    HW114819   1.744   5.677   6.358 -1.8755 -1.0591 -0.5864
 4466SOL    HW214820   1.719   5.681   6.209  0.6491  0.5606 -1.0235
 4467SOL     OW14821   1.733   5.463   2.893 -0.6961  0.3846  0.1362
 4467SOL    HW114822   1.671   5.444   2.823  0.9848 -1.1152 -1.0356
 4467SOL    HW214823   1.765   5.378   2.922  2.0710  1.0995 -0.5274
 4468SOL     OW14824   7.722   1.726   4.083  0.1785 -0.1631  0.2614
 4468SOL    HW114825   7.756   1.787   4.017 -2.1119  0.3439 -0.5526
 4468SOL    HW214826   7.643   1.690   4.044 -0.9531 -0.2846  2.4934
 4469SOL     OW14827   8.447   1.103   7.112  0.5402 -0.6830 -0.1260
 4469SOL    HW114828   8.396   1.037   7.065  3.0582 -2.1830 -0.9968
 4469SOL    HW214829   8.487   1.054   7.184  1.9149  0.0297 -0.3774
 4470SOL     OW14830   3.529   6.842   8.479  0.4586  0.2268  0.0156
 4470SOL    HW114831   3.525   6.756   8.436  1.3630  0.0927  0.1709
 4470SOL    HW214832   3.623   6.864   8.479  0.3842  0.6081  1.1486
 4471SOL     OW14833   4.645   8.678   6.020  0.0799  0.4904  0.3218
 4471SOL    HW114834   4.699   8.752   6.049  2.5849  0.2345 -3.1150
 4471SOL    HW214835   4.697   8.600   6.041 -0.2642  0.0245 -0.5150
 4472SOL     OW14836   5.248   2.597   3.522  0.0502 -0.0116 -0.1846
 4472SOL    HW114837   5.209   2.558   3.600  1.5305  1.6798  1.4827
 4472SOL    HW214838   5.331   2.550   3.510  0.1631  0.2160 -0.3031
 4473SOL     OW14839   8.810   7.311   8.295  0.2358 -0.4760 -0.3207
 4473SOL    HW114840   8.744   7.322   8.227 -0.7603 -3.5187 -0.0080
 4473SOL    HW214841   8.774   7.356   8.372  0.2693  0.9666 -1.1245
 4474SOL     OW14842   7.500   3.953   0.207  0.1865  0.5352 -0.0908
 4474SOL    HW114843   7.423   4.005   0.229 -0.0196  0.0649  0.3209
 4474SOL    HW214844   7.529   3.987   0.122  0.8177  2.1914  0.7349
 4475SOL     OW14845   8.785   7.419   1.772  0.4484 -0.4147  0.0466
 4475SOL    HW114846   8.740   7.424   1.688  1.6729 -2.2312 -0.7629
 4475SOL    HW214847   8.878   7.421   1.750  0.7854 -0.5704  1.3822
 4476SOL     OW14848   3.604   8.543   6.654  0.2719 -0.5811 -0.0548
 4476SOL    HW114849   3.570   8.505   6.735 -0.1356 -0.7646 -0.3063
 4476SOL    HW214850   3.639   8.628   6.680 -2.0434  0.4707 -0.0511
 4477SOL     OW14851   7.079   8.763   0.894 -0.5680 -0.2911  0.0807
 4477SOL    HW114852   7.019   8.833   0.921  1.2016  1.3671 -0.0004
 4477SOL    HW214853   7.051   8.686   0.944 -0.8685  1.2150  2.4158
 4478SOL     OW14854   8.777   8.870   8.606  0.3192 -0.1673 -0.0559
 4478SOL    HW114855   8.692   8.849   8.569  0.0307  0.9899 -0.0813
 4478SOL    HW214856   8.807   8.788   8.646 -1.3643 -0.2869  1.0562
 4479SOL     OW14857   3.584   7.295   4.064  0.3170  0.4021  0.2509
 4479SOL    HW114858   3.598   7.310   4.158  2.8062  2.7408 -0.3401
 4479SOL    HW214859   3.655   7.343   4.022 -0.7992 -0.4461 -2.8797
 4480SOL     OW14860   9.202   5.056   1.261 -0.0427 -0.1062  0.0672
 4480SOL    HW114861   9.126   5.097   1.221  0.3232 -0.1013 -0.6474
 4480SOL    HW214862   9.253   5.022   1.187  0.3294 -0.6740  0.5672
 4481SOL     OW14863   9.083   3.169   8.803  0.1841  0.2522 -0.6308
 4481SOL    HW114864   9.035   3.251   8.791  0.6015  0.7944  1.0912
 4481SOL    HW214865   9.110   3.144   8.715  0.4423  2.2058 -1.1600
 4482SOL     OW14866   9.006   0.118   6.931  0.0846 -0.4415  0.3930
 4482SOL    HW114867   8.923   0.152   6.898 -0.3098 -0.8422  0.9405
 4482SOL    HW214868   8.996   0.023   6.928  0.7502 -0.5025 -0.0841
 4483SOL     OW14869   8.660   0.451   1.158 -0.5708  0.5543  0.0736
 4483SOL    HW114870   8.754   0.437   1.165 -0.1516  2.4499 -1.1869
 4483SOL    HW214871   8.645   0.470   1.065 -2.2268  0.1519  0.2218
 4484SOL     OW14872   6.924   7.252   7.919 -0.1906  0.0270  0.1017
 4484SOL    HW114873   6.957   7.310   7.850 -2.8707 -0.2984 -1.6362
 4484SOL    HW214874   6.887   7.312   7.984  0.5897  0.3059  0.3001
 4485SOL     OW14875   1.690   5.438   4.158  0.0523 -0.6010 -0.1508
 4485SOL    HW114876   1.768   5.485   4.128  0.8011 -0.5670  1.7007
 4485SOL    HW214877   1.621   5.504   4.161  0.5059 -0.1342  0.1942
 4486SOL     OW14878   0.529   8.876   1.031  0.5014 -0.1599  0.6460
 4486SOL    HW114879   0.523   8.842   1.120  1.0694 -0.7396  0.4697
 4486SOL    HW214880   0.468   8.823   0.980 -0.5241  0.7855  0.8569
 4487SOL     OW14881   8.232   0.984   1.506  0.2516 -0.2446  0.3175
 4487SOL    HW114882   8.252   0.897   1.542  3.0836  0.0490 -0.2908
 4487SOL    HW214883   8.261   1.045   1.573 -1.1902  0.2768  0.4933
 4488SOL     OW14884   0.661   6.107   4.079 -0.4529 -0.6140  0.1393
 4488SOL    HW114885   0.600   6.098   4.153  0.0889  0.7463  0.7882
 4488SOL    HW214886   0.746   6.086   4.117 -0.3048 -0.9482 -0.3773
 4489SOL     OW14887   2.862   7.919   3.402 -0.1014  0.7789  0.1072
 4489SOL    HW114888   2.914   7.890   3.327  1.5084  0.6751  1.2035
 4489SOL    HW214889   2.773   7.890   3.382  0.8018 -1.9874 -0.4064
 4490SOL     OW14890   9.277   3.455   8.298  0.3529 -0.3665 -0.4456
 4490SOL    HW114891   9.215   3.395   8.256  0.8102  0.1571 -1.9263
 4490SOL    HW214892   9.363   3.424   8.270  0.5631  1.8383 -2.5473
 4491SOL     OW14893   5.874   6.278   2.563  0.0181  0.1081  0.1618
 4491SOL    HW114894   5.876   6.250   2.472  1.8909  0.3120  0.0973
 4491SOL    HW214895   5.935   6.220   2.608  1.3554  1.8404  0.6855
 4492SOL     OW14896   9.270   3.805   2.347 -0.0006 -0.1831 -0.1592
 4492SOL    HW114897   9.199   3.866   2.326 -0.3961 -0.3242  0.7251
 4492SOL    HW214898   9.226   3.719   2.351  0.2448 -0.2886  0.2587
 4493SOL     OW14899   6.680   5.070   7.847 -0.2080  0.2275 -0.3070
 4493SOL    HW114900   6.715   4.984   7.873 -0.3011  0.0655 -0.7099
 4493SOL    HW214901   6.666   5.062   7.753 -1.8594  0.0901 -0.0834
 4494SOL     OW14902   8.298   3.034   4.188  0.5580  0.0584 -0.2283
 4494SOL    HW114903   8.311   3.026   4.283 -2.0116 -0.0224  0.1915
 4494SOL    HW214904   8.342   3.116   4.166  0.2513  0.6694  1.2627
 4495SOL     OW14905   3.179   2.249   3.541 -0.4474  0.7023  0.1245
 4495SOL    HW114906   3.198   2.161   3.573  0.2946  1.2668  1.2982
 4495SOL    HW214907   3.085   2.247   3.520  0.0596 -1.1127 -2.4286
 4496SOL     OW14908   7.148   5.955   4.752 -0.4541 -0.0381  0.2836
 4496SOL    HW114909   7.161   5.988   4.663 -1.0180  0.7211  0.4708
 4496SOL    HW214910   7.198   6.015   4.807 -1.8898  0.8504  0.6750
 4497SOL     OW14911   6.464   5.279   4.109  0.6207  1.0815 -0.1298
 4497SOL    HW114912   6.460   5.369   4.075  0.4167  1.0266 -0.2521
 4497SOL    HW214913   6.436   5.225   4.036  1.0053  0.8956 -0.1401
 4498SOL     OW14914   2.176   6.247   0.552  0.1120 -0.0903 -0.1799
 4498SOL    HW114915   2.083   6.230   0.567  0.5891 -0.3860  3.3349
 4498SOL    HW214916   2.191   6.335   0.587  1.0218  0.2724 -1.4242
 4499SOL     OW14917   8.250   5.090   1.742 -0.2659 -0.2997  0.2138
 4499SOL    HW114918   8.223   5.100   1.651  1.5838 -2.2638 -0.6508
 4499SOL    HW214919   8.281   5.177   1.767 -0.1437  0.1171 -1.2773
 4500SOL     OW14920   2.436   3.655   3.905  0.2511  0.1303  0.0652
 4500SOL    HW114921   2.461   3.687   3.992 -0.0764 -0.4742  0.3920
 4500SOL    HW214922   2.453   3.729   3.846 -1.5483  1.3360  0.9484
 4501SOL     OW14923   4.068   1.500   8.439  0.2039 -0.2420 -0.4326
 4501SOL    HW114924   3.996   1.526   8.382  1.0065 -0.6293 -1.6626
 4501SOL    HW214925   4.127   1.450   8.382 -0.1744 -2.8624  1.2858
 4502SOL     OW14926   6.649   5.897   7.829 -0.2059  0.2359 -0.2794
 4502SOL    HW114927   6.632   5.920   7.920  1.4290 -0.2636  0.1744
 4502SOL    HW214928   6.671   5.804   7.831  0.7772  0.4303 -1.0426
 4503SOL     OW14929   4.973   0.002   2.509 -0.0943 -0.3027  0.4617
 4503SOL    HW114930   4.898   0.054   2.537 -0.0093 -0.0357  0.1897
 4503SOL    HW214931   4.937  -0.061   2.447  0.0892  0.5524 -0.5298
 4504SOL     OW14932   6.284   4.699   4.505  0.3716 -0.4259 -0.6868
 4504SOL    HW114933   6.341   4.720   4.432 -0.1911 -0.0782 -1.0253
 4504SOL    HW214934   6.330   4.733   4.582  0.5296  0.0227 -0.9775
 4505SOL     OW14935   0.248   6.040   4.612  0.1366 -0.0010  0.0545
 4505SOL    HW114936   0.333   6.054   4.569  0.2358  0.7000  0.4707
 4505SOL    HW214937   0.253   5.951   4.646  0.8795  0.1951  0.4718
 4506SOL     OW14938   1.526   3.323   7.626  0.3108 -0.1625  0.1534
 4506SOL    HW114939   1.490   3.280   7.548 -0.7251 -1.0357  1.0709
 4506SOL    HW214940   1.619   3.334   7.607 -0.1613  0.8634 -1.7327
 4507SOL     OW14941   1.138   9.116   8.614 -0.1537 -0.0225 -0.0932
 4507SOL    HW114942   1.072   9.104   8.683  1.1852 -0.3000  1.1910
 4507SOL    HW214943   1.213   9.155   8.659  0.6150  0.1728 -1.4944
 4508SOL     OW14944   0.399   5.070   9.274 -0.0456 -0.1323  0.4120
 4508SOL    HW114945   0.371   4.984   9.305 -1.9730  0.4250  0.3505
 4508SOL    HW214946   0.347   5.086   9.196  3.0519 -0.5012 -1.9289
 4509SOL     OW14947   2.759   5.523   0.586  0.0230  0.3859 -0.3387
 4509SOL    HW114948   2.789   5.433   0.595 -0.8885 -0.2176 -2.6332
 4509SOL    HW214949   2.663   5.517   0.581 -0.0762  1.5092 -0.0954
 4510SOL     OW14950   8.491   7.307   0.421 -0.2418  0.1356  0.5351
 4510SOL    HW114951   8.411   7.358   0.408  0.9634  1.9627 -0.1174
 4510SOL    HW214952   8.486   7.277   0.512 -1.8022 -0.0491  0.4022
 4511SOL     OW14953   1.639   0.574   4.024  0.3186  0.0893  0.0300
 4511SOL    HW114954   1.663   0.498   3.971  1.2059 -0.5881  1.3341
 4511SOL    HW214955   1.552   0.598   3.993  0.2021 -1.1785 -0.7307
 4512SOL     OW14956   4.739   0.654   7.702  0.0678 -0.3131  0.0514
 4512SOL    HW114957   4.716   0.576   7.650  0.8605 -1.1210  0.8889
 4512SOL    HW214958   4.826   0.679   7.670  0.6774 -0.9775  1.1609
 4513SOL     OW14959   5.852   8.295   6.776 -0.0988 -0.5288  0.4191
 4513SOL    HW114960   5.795   8.348   6.831 -0.0051  0.9630 -0.8467
 4513SOL    HW214961   5.806   8.289   6.692  0.7858 -0.7957 -0.0636
 4514SOL     OW14962   4.076   1.714   7.638 -0.2930 -0.7563  0.3532
 4514SOL    HW114963   4.065   1.624   7.607  1.0739 -0.2887 -1.6736
 4514SOL    HW214964   4.001   1.761   7.603  0.2549 -0.6288 -0.6852
 4515SOL     OW14965   4.052   0.179   5.722 -0.0414 -0.6469  0.0137
 4515SOL    HW114966   4.096   0.239   5.662 -2.5332  0.5202 -0.7729
 4515SOL    HW214967   3.967   0.162   5.682 -1.8158  0.1547  3.1146
 4516SOL     OW14968   4.213   3.820   8.200  0.7379 -0.1884 -0.0641
 4516SOL    HW114969   4.150   3.891   8.211  1.0944 -0.1209  1.8099
 4516SOL    HW214970   4.188   3.779   8.116  1.0300  2.5762 -1.6046
 4517SOL     OW14971   6.120   3.077   3.012 -0.2270  0.3243 -0.5040
 4517SOL    HW114972   6.130   3.027   2.931 -2.8253 -2.3275  0.6138
 4517SOL    HW214973   6.045   3.134   2.995 -0.3950  0.2012 -0.1877
 4518SOL     OW14974   6.981   0.996   8.571 -0.3850  0.0275  0.2639
 4518SOL    HW114975   6.943   0.943   8.640 -2.2766  0.2332 -0.5548
 4518SOL    HW214976   7.018   1.072   8.615 -2.7349  0.8200  0.9850
 4519SOL     OW14977   0.604   1.124   8.169 -0.0520  0.2260  0.0519
 4519SOL    HW114978   0.524   1.159   8.209  0.0189  0.0543  0.3445
 4519SOL    HW214979   0.595   1.147   8.076 -0.2767  0.5136  0.1397
 4520SOL     OW14980   4.435   0.909   8.938 -0.0935 -0.4769  0.2138
 4520SOL    HW114981   4.444   0.910   9.033 -0.8009 -0.6522  0.2876
 4520SOL    HW214982   4.409   0.819   8.918  0.6307 -0.6011 -0.2056
 4521SOL     OW14983   7.100   6.150   9.008 -0.1296 -0.1990 -0.1391
 4521SOL    HW114984   7.183   6.107   8.986  0.8127  0.3018  2.1245
 4521SOL    HW214985   7.126   6.227   9.059 -1.9765  0.1070  0.3956
 4522SOL     OW14986   5.532   4.585   6.702  0.1795  0.8476 -0.5092
 4522SOL    HW114987   5.470   4.513   6.691  0.9519  0.3598 -1.9636
 4522SOL    HW214988   5.603   4.547   6.755 -0.0683  0.9613 -0.0948
 4523SOL     OW14989   0.879   1.462   1.002  0.1541  0.0076 -0.1577
 4523SOL    HW114990   0.794   1.417   0.999 -0.4209  1.0877 -0.3898
 4523SOL    HW214991   0.936   1.402   1.051 -0.8856 -0.4751  0.4919
 4524SOL     OW14992   4.527   1.252   2.115  0.4179 -0.3098  0.5087
 4524SOL    HW114993   4.554   1.160   2.117  1.2512 -0.0826  0.2847
 4524SOL    HW214994   4.492   1.264   2.026 -3.6510 -1.4447  1.7514
 4525SOL     OW14995   0.829   8.362   6.091  0.4737  0.4396 -0.5319
 4525SOL    HW114996   0.905   8.343   6.036  0.2326 -2.0988 -0.1052
 4525SOL    HW214997   0.757   8.377   6.030  0.4148 -1.4459 -0.9786
 4526SOL     OW14998   6.658   0.119   7.582  0.5613 -0.3039  0.5332
 4526SOL    HW114999   6.578   0.164   7.557  0.7556 -0.9653 -1.4573
 4526SOL    HW215000   6.629   0.040   7.626  0.0886 -0.7090 -0.4815
 4527SOL     OW15001   1.490   2.329   1.372 -0.0594 -1.0090  0.1763
 4527SOL    HW115002   1.407   2.310   1.414 -0.1931 -0.7193  0.0472
 4527SOL    HW215003   1.470   2.331   1.278  0.4822 -2.9504 -0.0313
 4528SOL     OW15004   7.551   9.257   4.451 -0.1233  0.3247 -0.2109
 4528SOL    HW115005   7.584   9.321   4.514  2.1869 -0.7370 -0.2456
 4528SOL    HW215006   7.614   9.259   4.379 -2.5063  1.2844 -2.4551
 4529SOL     OW15007   4.896   6.684   7.882  0.0485 -0.0347  0.2872
 4529SOL    HW115008   4.984   6.656   7.905 -0.1341 -0.7172  0.1562
 4529SOL    HW215009   4.866   6.735   7.958  1.4529  2.2959 -0.6266
 4530SOL     OW15010   5.202   8.543   7.934  0.5928 -0.4652  0.2987
 4530SOL    HW115011   5.278   8.581   7.889  0.4947 -0.0202  0.5072
 4530SOL    HW215012   5.220   8.449   7.935  0.2806 -0.5815 -1.2800
 4531SOL     OW15013   1.506   2.610   4.734 -0.0666  0.3081  0.1328
 4531SOL    HW115014   1.489   2.704   4.726  0.7749  0.5736  1.1979
 4531SOL    HW215015   1.438   2.569   4.681 -1.0150  1.4745  0.3950
 4532SOL     OW15016   5.639   5.671   5.151 -0.2566 -0.0536 -0.1675
 4532SOL    HW115017   5.597   5.684   5.236  0.8014  1.3967  0.1931
 4532SOL    HW215018   5.601   5.591   5.116 -1.1339 -0.3603  1.4205
 4533SOL     OW15019   0.261   4.396   9.029  0.0618 -0.3697  0.6393
 4533SOL    HW115020   0.326   4.327   9.045  0.3585 -1.2128 -3.1801
 4533SOL    HW215021   0.186   4.350   8.993 -0.0585  1.1672 -1.2165
 4534SOL     OW15022   9.174   8.087   7.250 -0.4266 -0.1366  0.2590
 4534SOL    HW115023   9.116   8.159   7.224 -1.7434 -0.2441  2.6390
 4534SOL    HW215024   9.203   8.049   7.167  0.1195  2.9274 -1.1128
 4535SOL     OW15025   8.100   3.889   3.529  1.0280 -0.4868 -0.0434
 4535SOL    HW115026   8.171   3.951   3.512  1.5610 -1.1926 -0.4617
 4535SOL    HW215027   8.085   3.847   3.445 -1.5959  1.3478 -0.6301
 4536SOL     OW15028   3.236   2.707   8.933 -1.0077  0.2735 -0.0449
 4536SOL    HW115029   3.189   2.637   8.977 -0.9175  0.6495  0.6606
 4536SOL    HW215030   3.167   2.763   8.896 -1.0892  0.1155 -0.1306
 4537SOL     OW15031   8.400   7.941   9.068 -0.7343 -0.4742 -0.0886
 4537SOL    HW115032   8.421   8.034   9.082 -1.1411 -0.6264  1.6629
 4537SOL    HW215033   8.446   7.919   8.986  0.6032  0.8795  0.2474
 4538SOL     OW15034   0.993   7.238   5.074 -0.6954 -0.1804  0.3250
 4538SOL    HW115035   0.976   7.285   4.993  0.1550 -2.1549 -1.0794
 4538SOL    HW215036   1.078   7.271   5.104 -0.5949 -0.0848 -0.0695
 4539SOL     OW15037   8.835   3.272   9.130  0.1893 -0.2864  0.0298
 4539SOL    HW115038   8.823   3.188   9.174 -0.8352 -0.2171 -0.1088
 4539SOL    HW215039   8.823   3.253   9.037  2.5858 -0.4816 -0.3258
 4540SOL     OW15040   1.586   8.624   6.762  0.2118 -0.4845  0.0576
 4540SOL    HW115041   1.663   8.567   6.767  0.3705 -0.3433 -0.6379
 4540SOL    HW215042   1.542   8.596   6.682 -0.6748 -0.8254  0.6503
 4541SOL     OW15043   2.230   5.152   4.298  0.0235 -0.1372  0.0029
 4541SOL    HW115044   2.230   5.061   4.266 -0.5804 -0.9681  2.1566
 4541SOL    HW215045   2.150   5.190   4.262 -0.4196 -0.8948  0.1670
 4542SOL     OW15046   0.883   2.756   6.371  0.1389  0.1620  0.0540
 4542SOL    HW115047   0.920   2.773   6.457  1.9513 -2.4568 -0.0637
 4542SOL    HW215048   0.959   2.732   6.317 -1.3961 -3.8305 -0.6822
 4543SOL     OW15049   6.057   4.376   8.095  0.2748 -0.1591  0.0425
 4543SOL    HW115050   6.095   4.433   8.162  0.5982 -0.9347  0.5260
 4543SOL    HW215051   6.019   4.303   8.144 -0.7455 -0.0242 -0.5238
 4544SOL     OW15052   0.398   4.758   5.162  0.5967  0.0236  0.1860
 4544SOL    HW115053   0.352   4.716   5.235  2.1858  0.0104  1.2338
 4544SOL    HW215054   0.471   4.804   5.204  1.2466  0.4495 -1.3619
 4545SOL     OW15055   4.694   4.951   0.496 -0.3698 -0.0670 -0.3806
 4545SOL    HW115056   4.683   4.888   0.424 -3.1613 -1.1986  0.8754
 4545SOL    HW215057   4.635   5.023   0.473 -1.0669 -0.3077  0.5863
 4546SOL     OW15058   9.196   4.383   8.015 -0.2506 -0.2346 -0.0713
 4546SOL    HW115059   9.225   4.437   7.942  0.4108 -0.5709 -0.0638
 4546SOL    HW215060   9.201   4.441   8.091 -1.8357  0.3953 -0.4214
 4547SOL     OW15061   3.327   8.539   4.701 -0.0037  0.2071 -0.1806
 4547SOL    HW115062   3.243   8.531   4.747  1.2699  0.7408  2.4731
 4547SOL    HW215063   3.306   8.527   4.609 -3.1997  1.6952  0.2275
 4548SOL     OW15064   4.410   5.875   3.256  0.3018 -0.0696  0.3029
 4548SOL    HW115065   4.499   5.867   3.289  0.4305  1.8429  0.5564
 4548SOL    HW215066   4.360   5.911   3.329 -0.8795 -1.7650  0.3895
 4549SOL     OW15067   4.212   9.084   5.146  0.5872  0.8195  0.0248
 4549SOL    HW115068   4.156   9.120   5.215  0.7083  3.2122 -1.0406
 4549SOL    HW215069   4.208   8.989   5.161 -2.7105  0.9188  0.7924
 4550SOL     OW15070   1.120   6.668   8.465 -0.4951 -0.1280 -0.4683
 4550SOL    HW115071   1.067   6.723   8.522 -0.6527 -1.2889  0.5256
 4550SOL    HW215072   1.061   6.598   8.437  0.1551 -0.7315 -0.3606
 4551SOL     OW15073   3.261   4.042   0.808  0.2053 -0.6044 -0.2770
 4551SOL    HW115074   3.220   4.127   0.791  1.5289  0.1624  0.2634
 4551SOL    HW215075   3.188   3.987   0.837 -0.8649  0.0152 -1.6277
 4552SOL     OW15076   0.140   2.806   5.129 -0.3408 -0.2604  0.0478
 4552SOL    HW115077   0.219   2.795   5.182 -0.2102  2.2462  0.4573
 4552SOL    HW215078   0.069   2.774   5.185  0.2737 -2.3236 -0.2389
 4553SOL     OW15079   5.082   6.680   1.305  0.1119  0.1997  0.2863
 4553SOL    HW115080   4.992   6.692   1.275 -0.4078 -0.9762  1.2982
 4553SOL    HW215081   5.081   6.710   1.396  0.5514 -0.4864  0.5267
 4554SOL     OW15082   8.804   8.566   0.835  0.3635 -0.2742 -0.3468
 4554SOL    HW115083   8.764   8.650   0.855 -0.6444 -1.2495  2.0271
 4554SOL    HW215084   8.792   8.555   0.740  1.5721  2.7115 -0.9636
 4555SOL     OW15085   5.474   0.071   4.351  0.1379 -0.2244  0.2449
 4555SOL    HW115086   5.481   0.034   4.264  2.0408  0.1343  0.2125
 4555SOL    HW215087   5.391   0.120   4.350  0.3755  0.2045 -1.5225
 4556SOL     OW15088   1.255   2.854   0.361  0.2541 -0.0338 -0.0937
 4556SOL    HW115089   1.252   2.943   0.324 -0.8465 -0.5046 -1.2023
 4556SOL    HW215090   1.323   2.859   0.428 -1.6961  2.4660  1.9911
 4557SOL     OW15091   6.325   2.529   1.976 -0.1548  0.4144 -0.5722
 4557SOL    HW115092   6.404   2.571   2.010 -1.1013 -0.4433  3.1106
 4557SOL    HW215093   6.356   2.448   1.935  1.0078  1.0335 -0.9647
 4558SOL     OW15094   0.862   8.387   7.191 -0.2190  0.2665 -0.2900
 4558SOL    HW115095   0.767   8.389   7.183 -0.2410  0.8335  0.0913
 4558SOL    HW215096   0.891   8.469   7.150  0.1209 -0.0046 -0.5963
 4559SOL     OW15097   7.406   6.800   1.453 -0.6497  0.1620 -0.0872
 4559SOL    HW115098   7.372   6.864   1.391 -0.0432  2.2189  1.5591
 4559SOL    HW215099   7.334   6.787   1.516 -1.2472 -1.8631 -1.0984
 4560SOL     OW15100   2.125   3.620   7.859 -0.1387  0.4368  0.4212
 4560SOL    HW115101   2.079   3.665   7.788  1.4704  2.2013  0.4108
 4560SOL    HW215102   2.055   3.584   7.914 -1.4345 -0.3468 -1.6160
 4561SOL     OW15103   6.797   6.471   6.041  0.2028  0.0387  0.1297
 4561SOL    HW115104   6.760   6.518   5.966  0.4860 -1.1423 -0.7834
 4561SOL    HW215105   6.835   6.392   6.003  1.4778  0.0253  1.3715
 4562SOL     OW15106   0.946   3.833   4.100 -0.2983 -0.4648  0.1782
 4562SOL    HW115107   0.936   3.851   4.193  0.5648  0.2109  0.1523
 4562SOL    HW215108   0.971   3.740   4.096 -0.2186 -0.4623  0.6259
 4563SOL     OW15109   8.531   9.028   2.923  0.6064  0.0458 -0.1870
 4563SOL    HW115110   8.503   9.088   2.992  3.5977  0.2504  1.0258
 4563SOL    HW215111   8.541   9.084   2.846  2.4499  1.0323  0.6854
 4564SOL     OW15112   5.103   4.267   6.421 -0.6604 -0.4158 -0.9844
 4564SOL    HW115113   5.087   4.343   6.476 -0.8590 -0.4658 -0.9705
 4564SOL    HW215114   5.055   4.196   6.464  1.4033 -1.1213  0.3165
 4565SOL     OW15115   2.110   6.937   8.751 -0.2685 -0.1574 -0.4534
 4565SOL    HW115116   2.087   7.023   8.786 -2.1910 -1.0898  0.6782
 4565SOL    HW215117   2.206   6.935   8.755 -0.2779  0.8391  2.2180
 4566SOL     OW15118   8.719   5.885   0.200  0.2861 -0.4656  0.6757
 4566SOL    HW115119   8.634   5.841   0.195  1.3604 -2.5790 -0.1668
 4566SOL    HW215120   8.721   5.923   0.288 -1.2535 -0.9239  0.9434
 4567SOL     OW15121   6.785   2.716   3.625  0.3592 -0.0102  0.3305
 4567SOL    HW115122   6.777   2.802   3.584 -1.4008  0.8859  2.3410
 4567SOL    HW215123   6.704   2.670   3.600 -0.1047  0.0561  1.6307
 4568SOL     OW15124   2.456   8.507   3.675 -0.0941 -0.6542 -0.5230
 4568SOL    HW115125   2.379   8.537   3.627 -0.1554  0.4967  0.2507
 4568SOL    HW215126   2.522   8.490   3.607 -0.1919  0.8906 -1.0591
 4569SOL     OW15127   5.905   0.729   7.177 -0.2702  0.5715 -0.4523
 4569SOL    HW115128   5.906   0.824   7.165  0.4918  0.3998 -2.0055
 4569SOL    HW215129   5.968   0.713   7.248 -0.9921  1.2660  0.3677
 4570SOL     OW15130   4.575   4.018   9.053  0.0914 -1.0073  0.2915
 4570SOL    HW115131   4.576   4.106   9.016 -0.1514  0.0658  2.6939
 4570SOL    HW215132   4.667   3.995   9.063  0.1528 -1.0117 -0.2117
 4571SOL     OW15133   4.296   6.941   4.302 -0.3501  0.3528 -0.4498
 4571SOL    HW115134   4.205   6.927   4.275 -0.0538 -0.3564 -1.1240
 4571SOL    HW215135   4.306   6.893   4.383 -0.5657  0.3971 -0.3975
 4572SOL     OW15136   0.562   0.661   1.984  0.3488 -0.1257  0.0946
 4572SOL    HW115137   0.487   0.658   2.043  1.0218 -0.5100  0.9544
 4572SOL    HW215138   0.549   0.742   1.933 -0.9611 -0.5151 -0.2312
 4573SOL     OW15139   4.641   1.913   0.528 -0.0183  0.0303  0.0604
 4573SOL    HW115140   4.675   1.863   0.602  0.1551 -0.1754 -0.1593
 4573SOL    HW215141   4.558   1.949   0.560  0.4988  0.7049  0.6670
 4574SOL     OW15142   4.944   6.324   3.269  0.1971 -0.0874 -0.4164
 4574SOL    HW115143   4.981   6.397   3.320  2.3796 -0.7222 -1.0269
 4574SOL    HW215144   4.968   6.246   3.318 -2.0355 -0.4851  0.1705
 4575SOL     OW15145   0.709   1.829   7.029 -0.3612  0.4103  0.2801
 4575SOL    HW115146   0.764   1.905   7.012 -0.9474  0.5984 -0.9107
 4575SOL    HW215147   0.771   1.758   7.045  0.2587  0.6511 -0.8993
 4576SOL     OW15148   5.985   8.539   4.680  0.5964  0.4961  0.4946
 4576SOL    HW115149   6.015   8.626   4.706  1.4266  0.6028 -0.7475
 4576SOL    HW215150   6.025   8.524   4.595  0.3360 -1.0480  0.6118
 4577SOL     OW15151   4.410   4.631   2.461  0.1151  0.1042 -0.1693
 4577SOL    HW115152   4.456   4.582   2.393 -0.8059 -1.4479  0.2652
 4577SOL    HW215153   4.478   4.654   2.524  0.5944 -0.5586 -0.4285
 4578SOL     OW15154   2.695   3.594   0.253  0.2003 -0.8120  0.3044
 4578SOL    HW115155   2.632   3.563   0.318 -1.8219  0.5920 -0.8719
 4578SOL    HW215156   2.693   3.689   0.261  1.1047 -0.6811 -0.7488
 4579SOL     OW15157   2.432   9.061   2.778  0.6313  0.5236  0.3519
 4579SOL    HW115158   2.494   9.004   2.732  1.4289  2.6106 -1.3707
 4579SOL    HW215159   2.374   9.001   2.824  0.8990 -1.7281 -1.9786
 4580SOL     OW15160   7.941   5.786   5.333  0.0101 -0.2104  0.0510
 4580SOL    HW115161   7.922   5.693   5.345 -0.2622 -0.2755 -0.8329
 4580SOL    HW215162   7.873   5.831   5.384  0.7091 -0.4930  1.2551
 4581SOL     OW15163   1.620   1.633   9.107 -0.1269 -0.2282  0.7639
 4581SOL    HW115164   1.666   1.549   9.109 -1.0654 -0.7851 -0.1568
 4581SOL    HW215165   1.530   1.611   9.133 -0.5906  0.3332 -0.3080
 4582SOL     OW15166   8.263   2.444   9.238 -0.1046 -0.1924  0.4815
 4582SOL    HW115167   8.320   2.457   9.163  0.7010  0.9593  1.2566
 4582SOL    HW215168   8.322   2.424   9.310 -0.9106 -1.8794  0.7143
 4583SOL     OW15169   8.275   1.540   7.925 -0.1398 -0.4800 -0.0762
 4583SOL    HW115170   8.233   1.567   7.843  1.3036  1.4977 -0.2738
 4583SOL    HW215171   8.330   1.615   7.948  2.6401 -2.5412  0.5355
 4584SOL     OW15172   6.857   8.902   0.977  0.3619 -0.5713  0.2564
 4584SOL    HW115173   6.811   8.822   1.004 -2.8656  1.0737  0.1752
 4584SOL    HW215174   6.871   8.950   1.058  2.0033 -1.0299  0.2675
 4585SOL     OW15175   3.899   7.323   3.018  0.5141 -0.5475  0.2044
 4585SOL    HW115176   3.915   7.412   3.051 -0.4671 -0.7406  1.2194
 4585SOL    HW215177   3.876   7.272   3.095  0.9218 -1.6691 -0.3922
 4586SOL     OW15178   2.653   7.492   0.780  0.1177  0.0905  0.2253
 4586SOL    HW115179   2.568   7.515   0.744 -0.1534  0.2682  0.9512
 4586SOL    HW215180   2.705   7.572   0.771  0.9207 -0.6215 -2.1587
 4587SOL     OW15181   3.688   8.938   7.549 -0.4613 -0.1892  0.3856
 4587SOL    HW115182   3.617   8.874   7.545 -0.9928  0.3049  1.4780
 4587SOL    HW215183   3.644   9.023   7.545  0.3529  0.2710 -3.8856
 4588SOL     OW15184   2.383   8.511   7.186 -0.1162 -0.4679  0.4854
 4588SOL    HW115185   2.372   8.602   7.160 -0.8070 -0.5225  0.5744
 4588SOL    HW215186   2.305   8.490   7.237 -0.7421 -1.5611 -0.8449
 4589SOL     OW15187   1.739   4.298   3.210  0.3001 -0.4955 -0.2635
 4589SOL    HW115188   1.819   4.283   3.161  0.7005 -2.4010  0.8631
 4589SOL    HW215189   1.768   4.310   3.301 -0.5671  0.8215 -0.1234
 4590SOL     OW15190   8.747   4.433   1.195 -0.3091 -0.4393  0.2634
 4590SOL    HW115191   8.708   4.513   1.231 -1.1468 -0.7133 -0.0322
 4590SOL    HW215192   8.692   4.410   1.121 -0.1410 -1.3659  0.4173
 4591SOL     OW15193   3.330   6.953   4.633  0.0008  0.1651 -0.2453
 4591SOL    HW115194   3.240   6.986   4.621 -0.1072 -0.0040  0.1021
 4591SOL    HW215195   3.350   6.971   4.724  0.2903  0.1224 -0.3009
 4592SOL     OW15196   3.759   8.153   0.799  0.0203  0.0514 -0.1497
 4592SOL    HW115197   3.749   8.212   0.873  1.7554 -0.6968  0.7341
 4592SOL    HW215198   3.722   8.070   0.829  0.7162 -0.2501 -0.1049
 4593SOL     OW15199   5.418   2.176   4.433  0.4923 -0.3212  0.1777
 4593SOL    HW115200   5.343   2.124   4.462 -0.0284 -0.2937 -1.0552
 4593SOL    HW215201   5.416   2.253   4.490 -0.9660  0.1136 -0.4078
 4594SOL     OW15202   7.856   6.968   8.487  0.0165  0.6085 -0.5182
 4594SOL    HW115203   7.780   6.949   8.543 -0.7587  0.7046 -1.5091
 4594SOL    HW215204   7.927   6.987   8.549 -0.5237 -0.3671  0.4405
 4595SOL     OW15205   0.338   2.665   8.907  0.3320 -0.3619  0.1833
 4595SOL    HW115206   0.255   2.617   8.898  0.4862 -0.6178  0.0981
 4595SOL    HW215207   0.331   2.738   8.846  0.0476 -0.2104  0.3943
 4596SOL     OW15208   6.197   3.168   2.644 -0.1619  0.4823 -0.6550
 4596SOL    HW115209   6.218   3.097   2.704 -1.5623  0.6265  0.0540
 4596SOL    HW215210   6.262   3.236   2.664 -0.6024  0.5391  0.7511
 4597SOL     OW15211   1.274   1.798   0.375 -0.0629  0.5712  0.0121
 4597SOL    HW115212   1.295   1.739   0.303  0.6079  0.4061  0.3332
 4597SOL    HW215213   1.339   1.777   0.443 -0.3807  1.0557  0.4743
 4598SOL     OW15214   6.709   3.650   5.609  0.2297  0.6028  0.3663
 4598SOL    HW115215   6.800   3.631   5.633  0.6729  1.3710 -0.6475
 4598SOL    HW215216   6.710   3.742   5.582 -0.8641  0.6291  0.3855
 4599SOL     OW15217   4.229   8.988   1.145 -0.4058 -0.6504  0.6192
 4599SOL    HW115218   4.280   8.913   1.114  1.0623  0.5757 -0.0575
 4599SOL    HW215219   4.146   8.981   1.097 -0.3266 -1.8521  0.6034
 4600SOL     OW15220   6.134   0.248   9.236  0.0665  0.1252  0.4948
 4600SOL    HW115221   6.193   0.244   9.311  0.1223 -0.6287  0.4231
 4600SOL    HW215222   6.087   0.164   9.238  0.2970 -0.0391 -0.4867
 4601SOL     OW15223   7.449   0.644   4.901 -0.3817  0.4736 -0.5613
 4601SOL    HW115224   7.512   0.715   4.904  0.8623 -0.5884  2.2159
 4601SOL    HW215225   7.498   0.566   4.927 -2.4296 -0.7266  0.0179
 4602SOL     OW15226   2.674   7.200   5.483 -0.5125 -0.3606  0.4896
 4602SOL    HW115227   2.641   7.237   5.401  1.3041  0.3314  0.0199
 4602SOL    HW215228   2.675   7.274   5.544  3.8430  0.8120 -0.6630
 4603SOL     OW15229   0.452   0.050   1.141  0.2195  0.0731  0.8386
 4603SOL    HW115230   0.517  -0.019   1.158 -0.4569 -1.5023 -2.0904
 4603SOL    HW215231   0.491   0.102   1.070  0.1863  2.0240  2.1930
 4604SOL     OW15232   6.311   5.265   8.604 -0.2019 -0.3769  0.4284
 4604SOL    HW115233   6.344   5.349   8.636  0.9191 -0.3323 -0.7618
 4604SOL    HW215234   6.358   5.199   8.654  0.2074 -0.2947  0.1593
 4605SOL     OW15235   0.186   7.380   5.892  0.7321 -0.2852 -0.5642
 4605SOL    HW115236   0.111   7.377   5.952  2.9175  1.1913  2.4896
 4605SOL    HW215237   0.164   7.318   5.823 -2.9480 -0.4707  0.5654
 4606SOL     OW15238   0.558   7.671   4.544 -0.5310 -0.2699  0.1205
 4606SOL    HW115239   0.557   7.709   4.632 -0.8366  0.7027 -0.2880
 4606SOL    HW215240   0.642   7.698   4.507 -0.2556 -0.9620  0.2260
 4607SOL     OW15241   1.889   1.251   7.990  0.1010 -0.0249  0.2080
 4607SOL    HW115242   1.863   1.209   7.908  1.1346 -0.3231  0.0162
 4607SOL    HW215243   1.965   1.305   7.966  1.3186 -1.2383  1.2276
 4608SOL     OW15244   1.029   6.418   8.900  0.9299  0.0126  0.3697
 4608SOL    HW115245   1.017   6.326   8.926  3.9150 -0.3494  0.7442
 4608SOL    HW215246   1.047   6.464   8.981 -0.4676  0.9824  0.1709
 4609SOL     OW15247   5.731   2.364   8.098  0.3207 -0.4299 -0.1191
 4609SOL    HW115248   5.812   2.357   8.149  1.4323 -1.6812 -1.9397
 4609SOL    HW215249   5.732   2.454   8.065  0.0537  0.1015  1.2709
 4610SOL     OW15250   2.781   3.932   6.625 -0.3492  0.0163  0.3670
 4610SOL    HW115251   2.740   3.998   6.681 -1.6382 -0.2314 -0.2429
 4610SOL    HW215252   2.710   3.870   6.606  0.3067 -0.4031 -0.7809
 4611SOL     OW15253   6.473   2.113   4.141 -0.5700  0.2829 -0.2570
 4611SOL    HW115254   6.509   2.065   4.066 -2.0418 -1.5943  0.1662
 4611SOL    HW215255   6.432   2.190   4.102  2.7965  1.9499 -0.8511
 4612SOL     OW15256   0.003   8.896   4.131 -0.9487 -0.3696  0.0970
 4612SOL    HW115257   0.082   8.848   4.105  0.4988  2.4811 -1.1988
 4612SOL    HW215258   0.036   8.975   4.174 -3.1331  0.3567  0.5421
 4613SOL     OW15259   3.188   7.382   8.159 -0.2448 -0.2428  0.3478
 4613SOL    HW115260   3.262   7.439   8.137 -1.5704  2.5667  2.6057
 4613SOL    HW215261   3.117   7.413   8.102 -0.1833 -1.9528 -0.7522
 4614SOL     OW15262   7.760   8.170   5.665  0.2830 -0.1767  0.0012
 4614SOL    HW115263   7.691   8.235   5.679  0.2002 -0.2832  0.0888
 4614SOL    HW215264   7.824   8.188   5.733 -0.7739 -1.5881  1.4702
 4615SOL     OW15265   1.684   1.930   4.171  0.4133  0.4044  0.1787
 4615SOL    HW115266   1.747   1.919   4.242 -0.5665  0.1736  1.0316
 4615SOL    HW215267   1.598   1.923   4.213 -0.1962 -0.5845 -1.1373
 4616SOL     OW15268   3.773   5.387   0.499 -0.4758 -0.1980 -0.3967
 4616SOL    HW115269   3.866   5.408   0.506 -0.6344  0.2838  0.4819
 4616SOL    HW215270   3.765   5.297   0.531 -0.5330  0.3657  1.2714
 4617SOL     OW15271   3.644   0.898   1.766  0.0933  0.1530 -0.0958
 4617SOL    HW115272   3.602   0.825   1.721 -1.8846  1.1711 -0.0006
 4617SOL    HW215273   3.678   0.859   1.847  0.4517 -0.9507 -0.7506
 4618SOL     OW15274   8.178   1.552   3.645 -0.4919  0.1419 -0.1681
 4618SOL    HW115275   8.097   1.587   3.610 -0.4780  0.0111 -0.3323
 4618SOL    HW215276   8.152   1.501   3.721 -0.6076 -0.2495 -0.4691
 4619SOL     OW15277   5.102   5.287   6.734  0.2494 -0.2720 -0.3954
 4619SOL    HW115278   5.064   5.203   6.706 -0.0607  0.4847 -2.3787
 4619SOL    HW215279   5.144   5.267   6.818  0.7521 -2.5802 -1.1158
 4620SOL     OW15280   5.180   2.903   2.371  0.4491  0.1593 -0.3671
 4620SOL    HW115281   5.085   2.894   2.362  0.4401  1.3353 -1.7996
 4620SOL    HW215282   5.215   2.872   2.288  1.2982  0.3050 -0.0768
 4621SOL     OW15283   0.042   5.569   5.821  0.5211  0.0495  0.0952
 4621SOL    HW115284   0.094   5.609   5.751  1.0172 -1.0143 -0.1589
 4621SOL    HW215285   0.106   5.549   5.889  0.2927 -0.4132  0.1736
 4622SOL     OW15286   2.163   8.254   3.082  0.3591 -0.2448  0.6165
 4622SOL    HW115287   2.218   8.326   3.113  0.1048  0.0543  0.3696
 4622SOL    HW215288   2.195   8.177   3.130  1.4241 -0.1996 -0.0006
 4623SOL     OW15289   0.929   1.026   2.272  0.1004 -0.1486 -0.4279
 4623SOL    HW115290   0.862   0.982   2.220 -0.8176 -0.1803  0.7501
 4623SOL    HW215291   0.886   1.104   2.307  0.8319  0.1053 -0.0649
 4624SOL     OW15292   8.341   1.260   8.444 -0.0484 -0.0837 -0.1795
 4624SOL    HW115293   8.385   1.342   8.421 -0.7285  0.8302  1.5983
 4624SOL    HW215294   8.412   1.201   8.470  0.2784  1.1228  1.9151
 4625SOL     OW15295   1.890   5.592   1.290 -0.0408  0.1454 -0.5712
 4625SOL    HW115296   1.813   5.619   1.241  0.6299 -0.6848 -2.1748
 4625SOL    HW215297   1.952   5.562   1.223  0.6418 -1.7656  0.8114
 4626SOL     OW15298   5.459   6.647   4.349  0.0545 -0.3461  0.1615
 4626SOL    HW115299   5.371   6.629   4.382  0.5208 -0.8563  1.1640
 4626SOL    HW215300   5.488   6.724   4.398 -0.4584  0.8966 -1.3852
 4627SOL     OW15301   7.446   1.304   7.136 -0.2259  0.3057  0.4111
 4627SOL    HW115302   7.538   1.330   7.140  0.6167 -2.1359 -1.1820
 4627SOL    HW215303   7.442   1.221   7.183 -1.9633  1.0318  1.6763
 4628SOL     OW15304   4.595   8.783   0.802 -0.1757  0.2083  0.5321
 4628SOL    HW115305   4.626   8.724   0.870 -0.4987 -1.7081 -0.9165
 4628SOL    HW215306   4.523   8.832   0.843 -0.3848 -0.9130  1.5434
 4629SOL     OW15307   1.544   9.070   3.247 -0.3373  0.1262  0.6429
 4629SOL    HW115308   1.477   9.027   3.301 -0.8262  1.2510  0.9742
 4629SOL    HW215309   1.535   9.163   3.268  0.4212  0.4393 -0.3361
 4630SOL     OW15310   8.300   3.018   0.987 -0.3740 -0.3193 -0.1298
 4630SOL    HW115311   8.368   3.028   0.921  1.0501 -2.1316  0.9594
 4630SOL    HW215312   8.222   2.993   0.938  0.7162 -1.8968 -1.1309
 4631SOL     OW15313   8.662   6.200   6.897  0.2600 -0.2358  0.6916
 4631SOL    HW115314   8.613   6.282   6.903  1.3752  0.4224  1.0320
 4631SOL    HW215315   8.609   6.136   6.944 -0.4641  0.3659  0.6986
 4632SOL     OW15316   8.080   4.034   4.988 -0.2311 -0.3198 -0.6357
 4632SOL    HW115317   8.118   3.946   4.992  0.3045 -0.0550  1.7733
 4632SOL    HW215318   8.154   4.090   4.965  0.3335 -0.1290  1.4107
 4633SOL     OW15319   2.788   3.383   5.375  0.4879  0.1732 -0.1569
 4633SOL    HW115320   2.876   3.382   5.338  0.4504  0.3624 -0.2504
 4633SOL    HW215321   2.783   3.302   5.426  1.2614  0.9075  1.1241
 4634SOL     OW15322   4.540   8.014   4.742  0.2305 -0.0824 -0.4507
 4634SOL    HW115323   4.612   8.045   4.687  2.0205  0.0400  1.7984
 4634SOL    HW215324   4.525   7.924   4.713  2.4473 -0.6847  0.0589
 4635SOL     OW15325   5.624   8.089   5.230 -0.4686  0.4066 -0.0275
 4635SOL    HW115326   5.682   8.018   5.258  0.1594  0.9473  0.0800
 4635SOL    HW215327   5.593   8.061   5.144 -0.3470 -0.0697  0.0773
 4636SOL     OW15328   1.339   0.374   7.181  0.8127  0.3188  0.2024
 4636SOL    HW115329   1.361   0.361   7.088  0.3129 -1.3618  0.2841
 4636SOL    HW215330   1.275   0.306   7.200  1.3776  0.2233  1.9544
 4637SOL     OW15331   6.737   7.538   5.835 -0.2740 -0.2153 -0.0716
 4637SOL    HW115332   6.645   7.533   5.811  0.0376  1.6307 -1.8099
 4637SOL    HW215333   6.746   7.621   5.882  0.4356 -0.6348  0.5774
 4638SOL     OW15334   0.325   0.942   2.332 -0.6687 -0.5069 -0.5234
 4638SOL    HW115335   0.363   1.021   2.293  0.5348 -0.7090  0.1827
 4638SOL    HW215336   0.279   0.899   2.260  1.4682 -0.8743 -1.7616
 4639SOL     OW15337   5.248   6.025   6.740 -0.2456 -0.3402 -0.0749
 4639SOL    HW115338   5.322   5.971   6.712 -1.2109 -1.6139 -0.2172
 4639SOL    HW215339   5.191   6.031   6.664 -1.6007 -1.6298  0.7947
 4640SOL     OW15340   5.984   3.412   8.511  0.1004 -0.3365 -0.0108
 4640SOL    HW115341   5.920   3.371   8.453  0.3846  0.3725 -0.8372
 4640SOL    HW215342   5.967   3.506   8.503  1.3104 -0.1318 -0.3249
 4641SOL     OW15343   2.051   5.376   2.037  0.5049 -0.5476 -0.1655
 4641SOL    HW115344   2.004   5.331   1.966 -0.2509 -0.4079  0.2319
 4641SOL    HW215345   2.085   5.456   1.996 -0.3158 -0.2407 -0.2746
 4642SOL     OW15346   7.158   8.503   2.861  0.6656  0.1989 -0.7173
 4642SOL    HW115347   7.073   8.503   2.817  0.5791 -2.2172 -0.7102
 4642SOL    HW215348   7.142   8.459   2.945  2.0994 -1.3871 -1.2165
 4643SOL     OW15349   8.529   0.114   6.705 -0.4445  0.3171  0.5757
 4643SOL    HW115350   8.582   0.055   6.652  1.3815  1.3550  1.1490
 4643SOL    HW215351   8.493   0.177   6.642 -1.3332 -0.5964  0.1377
 4644SOL     OW15352   0.816   2.361   8.642 -0.0100  0.4201  0.1106
 4644SOL    HW115353   0.846   2.452   8.640  0.2638  0.3273 -0.1965
 4644SOL    HW215354   0.798   2.344   8.735 -0.3170  0.8659  0.1350
 4645SOL     OW15355   0.050   4.599   6.597  0.2670 -0.0457  0.3973
 4645SOL    HW115356   0.059   4.530   6.663  2.3755  1.5778  1.9379
 4645SOL    HW215357   0.123   4.583   6.536  1.0832  1.0384  1.0455
 4646SOL     OW15358   5.958   3.347   8.829 -0.6890 -0.0954  0.2403
 4646SOL    HW115359   5.953   3.254   8.852  2.0514 -0.3159  0.2719
 4646SOL    HW215360   5.964   3.347   8.734 -1.7109  0.1587  0.1613
 4647SOL     OW15361   7.542   0.419   3.739 -0.3225 -0.1720  0.0090
 4647SOL    HW115362   7.447   0.430   3.749  0.0264  1.7863  1.7530
 4647SOL    HW215363   7.578   0.506   3.756  1.8439 -0.9868 -0.1718
 4648SOL     OW15364   0.455   8.518   2.045  0.1772  0.0075 -0.3550
 4648SOL    HW115365   0.460   8.471   2.128  1.2613  0.4642 -0.1336
 4648SOL    HW215366   0.404   8.461   1.988 -0.2659 -0.4874  0.5042
 4649SOL     OW15367   7.569   7.283   7.617  0.1471 -0.3337 -0.0493
 4649SOL    HW115368   7.591   7.261   7.708  2.8817  1.6361 -0.1254
 4649SOL    HW215369   7.588   7.204   7.568  0.4449 -0.8435  0.8600
 4650SOL     OW15370   5.941   2.670   9.028  0.8521 -0.5376  0.0538
 4650SOL    HW115371   5.856   2.661   8.984  1.6178  0.6644 -1.8428
 4650SOL    HW215372   5.926   2.733   9.099  0.2669  0.2175 -0.7158
 4651SOL     OW15373   8.127   5.844   0.141  0.1712  0.1300  0.2693
 4651SOL    HW115374   8.036   5.820   0.123 -0.7469  4.2321 -1.8562
 4651SOL    HW215375   8.124   5.891   0.224  0.3223  0.3788  0.1355
 4652SOL     OW15376   2.545   5.406   6.735 -0.3236 -0.8149  0.0590
 4652SOL    HW115377   2.610   5.476   6.742  0.5659 -1.3751 -1.8043
 4652SOL    HW215378   2.464   5.445   6.766  0.8439 -0.0739  2.4143
 4653SOL     OW15379   1.810   7.892   0.047 -0.1394 -0.3021  0.1337
 4653SOL    HW115380   1.899   7.928   0.038 -0.8246  0.9240 -2.9417
 4653SOL    HW215381   1.761   7.960   0.092 -0.5537  1.1812 -2.3885
 4654SOL     OW15382   6.880   7.723   7.629 -0.2394 -0.0003  0.2295
 4654SOL    HW115383   6.817   7.653   7.610  0.0943 -0.0765 -0.6263
 4654SOL    HW215384   6.941   7.683   7.692 -1.8560  0.5327  2.2319
 4655SOL     OW15385   8.562   2.049   3.072  0.1891 -0.4096  0.0151
 4655SOL    HW115386   8.559   2.053   3.168  0.0131 -0.7954  0.0312
 4655SOL    HW215387   8.655   2.053   3.050  0.3280 -1.5964  0.2826
 4656SOL     OW15388   6.824   4.204   7.078 -0.7866  0.1001 -0.8244
 4656SOL    HW115389   6.854   4.121   7.040  2.1612  0.2567  0.8398
 4656SOL    HW215390   6.818   4.264   7.004  0.0970 -0.8199 -1.6729
 4657SOL     OW15391   8.442   4.059   5.498 -0.0161  1.0623  0.0781
 4657SOL    HW115392   8.439   4.132   5.436  1.0058  0.6656 -0.4664
 4657SOL    HW215393   8.505   3.998   5.459 -0.3017  0.2322  0.8943
 4658SOL     OW15394   3.664   1.545   2.861 -0.1828 -0.0865 -0.3789
 4658SOL    HW115395   3.635   1.537   2.951 -3.4760 -0.9562 -1.3742
 4658SOL    HW215396   3.675   1.639   2.846  0.5253  0.0488  0.9256
 4659SOL     OW15397   1.939   7.724   9.007 -0.1279 -0.2375 -0.0706
 4659SOL    HW115398   1.918   7.643   8.960  1.2446 -0.8771  0.3633
 4659SOL    HW215399   2.034   7.731   9.002 -0.2912  2.0866 -1.2519
 4660SOL     OW15400   7.256   8.121   0.903 -0.8618 -0.5994  0.0382
 4660SOL    HW115401   7.182   8.071   0.869 -0.1194 -1.8623  0.1966
 4660SOL    HW215402   7.324   8.055   0.918 -0.1944  0.3247  1.2478
 4661SOL     OW15403   0.249   5.127   5.573 -0.1422  0.3144  0.5331
 4661SOL    HW115404   0.219   5.042   5.538 -0.6545 -0.5659  2.9365
 4661SOL    HW215405   0.168   5.176   5.587  0.1859  1.5077 -1.4066
 4662SOL     OW15406   0.043   4.785   8.353 -0.1611 -0.2630  0.2933
 4662SOL    HW115407  -0.033   4.761   8.301  0.6652  3.0203 -2.7659
 4662SOL    HW215408   0.117   4.749   8.305  0.5084  1.2120  0.1775
 4663SOL     OW15409   4.500   6.671   8.082 -0.2861  0.5529  0.1958
 4663SOL    HW115410   4.517   6.581   8.054  0.7749  1.0528 -0.8329
 4663SOL    HW215411   4.586   6.713   8.082 -0.5208  1.1557  2.2417
 4664SOL     OW15412   3.448   2.162   3.173 -0.4047  0.0168 -0.5275
 4664SOL    HW115413   3.507   2.101   3.217  0.5720  0.4562 -1.1673
 4664SOL    HW215414   3.470   2.247   3.211 -1.6230  0.0202  0.2241
 4665SOL     OW15415   2.344   1.470   0.918  0.4412 -0.1958  0.3018
 4665SOL    HW115416   2.388   1.540   0.870  2.4390 -1.1865  0.5950
 4665SOL    HW215417   2.256   1.467   0.880  0.8738  1.2604 -0.9429
 4666SOL     OW15418   3.941   7.729   2.354 -0.5265  0.2418  0.7123
 4666SOL    HW115419   3.897   7.811   2.376 -0.4764  0.7851 -1.0615
 4666SOL    HW215420   3.941   7.727   2.258  1.5633 -0.7081  0.6864
 4667SOL     OW15421   7.832   3.290   0.351  0.5146 -0.6671 -0.2890
 4667SOL    HW115422   7.787   3.217   0.309  0.3855  0.2246 -1.7759
 4667SOL    HW215423   7.853   3.258   0.439 -0.8333 -1.9548 -0.3953
 4668SOL     OW15424   6.821   6.880   2.048 -0.3517  0.0040  0.9416
 4668SOL    HW115425   6.839   6.971   2.028  1.5099 -0.7451 -1.2092
 4668SOL    HW215426   6.756   6.853   1.982 -0.7647 -0.2835  1.4573
 4669SOL     OW15427   3.288   4.966   6.770  0.8526  0.1814 -0.3375
 4669SOL    HW115428   3.281   4.964   6.865  0.8660 -0.6489 -0.3505
 4669SOL    HW215429   3.307   5.058   6.749 -0.7725  0.7093  0.3477
 4670SOL     OW15430   1.316   6.463   8.800 -0.1495  0.0737 -0.1326
 4670SOL    HW115431   1.333   6.369   8.791  0.7556  0.3043 -1.0287
 4670SOL    HW215432   1.224   6.467   8.826  0.0671 -1.0848  0.9430
 4671SOL     OW15433   7.210   4.965   8.659  0.1143  0.0939  0.0087
 4671SOL    HW115434   7.221   5.059   8.672 -0.7702  0.2631 -0.3739
 4671SOL    HW215435   7.203   4.929   8.748 -0.3689  0.5099  0.1472
 4672SOL     OW15436   5.682   6.022   3.728 -0.0967 -0.2700  0.2717
 4672SOL    HW115437   5.600   6.037   3.682  1.1010  0.9228 -1.5803
 4672SOL    HW215438   5.666   6.054   3.817 -1.9398 -1.0910  0.2849
 4673SOL     OW15439   4.884   5.573   2.910  0.3579 -0.3309  0.0979
 4673SOL    HW115440   4.951   5.607   2.849  0.2925 -0.8852 -0.2860
 4673SOL    HW215441   4.934   5.544   2.986  0.5017 -0.2581  0.0337
 4674SOL     OW15442   0.160   4.955   5.287  0.1456  0.0771 -0.5018
 4674SOL    HW115443   0.090   4.904   5.245 -0.1922  0.6929 -0.6956
 4674SOL    HW215444   0.203   5.001   5.215 -1.0031  1.8333 -0.1263
 4675SOL     OW15445   8.163   4.128   6.114  0.1005  0.3372 -0.0034
 4675SOL    HW115446   8.185   4.037   6.134  0.4073  0.9990  3.2582
 4675SOL    HW215447   8.236   4.160   6.062 -0.8793 -1.6994 -2.8280
 4676SOL     OW15448   4.779   1.024   4.309 -0.3579  0.0254 -0.1523
 4676SOL    HW115449   4.865   1.065   4.312 -0.2555 -0.1028 -0.9064
 4676SOL    HW215450   4.778   0.964   4.383  0.8242 -1.1451 -1.0262
 4677SOL     OW15451   2.727   2.261   3.258 -0.2688  0.0253  0.1313
 4677SOL    HW115452   2.707   2.307   3.339  1.7984  0.8490  0.2154
 4677SOL    HW215453   2.761   2.328   3.200  2.1914 -1.2075  0.0280
 4678SOL     OW15454   4.776   9.275   6.373  0.2060  0.1612 -0.0839
 4678SOL    HW115455   4.717   9.233   6.310  2.5446 -0.6482 -1.8942
 4678SOL    HW215456   4.760   9.230   6.455  0.2234 -1.9956 -1.1950
 4679SOL     OW15457   6.848   6.787   1.373 -0.1217 -0.1789  0.4607
 4679SOL    HW115458   6.898   6.792   1.454  0.8908 -0.4578 -0.1201
 4679SOL    HW215459   6.818   6.876   1.357  0.2308  0.0015  0.8027
 4680SOL     OW15460   4.029   3.056   3.688 -0.0380  0.1227  0.6086
 4680SOL    HW115461   4.095   3.079   3.753 -0.6727 -0.6439  1.5514
 4680SOL    HW215462   4.054   2.970   3.656 -0.3849 -0.0228  0.7204
 4681SOL     OW15463   9.078   1.274   2.127 -0.7076 -0.1071  0.1534
 4681SOL    HW115464   9.093   1.214   2.200  2.6529 -0.6771 -0.8217
 4681SOL    HW215465   9.164   1.313   2.110 -0.9026 -1.0950 -4.3808
 4682SOL     OW15466   4.948   6.218   4.650  0.3791 -0.5772 -0.0103
 4682SOL    HW115467   4.886   6.146   4.635  1.8754 -2.0454  0.5426
 4682SOL    HW215468   4.957   6.222   4.746 -0.2113  0.8714  0.0219
 4683SOL     OW15469   2.004   2.583   6.245 -0.3029  0.1788  0.1635
 4683SOL    HW115470   1.948   2.588   6.167  0.4795 -1.9351 -0.5994
 4683SOL    HW215471   1.942   2.571   6.317 -0.9441 -1.7388 -0.6231
 4684SOL     OW15472   7.751   0.656   5.141 -0.1678  0.0728  0.6092
 4684SOL    HW115473   7.765   0.611   5.224  0.1957  0.2479  0.6395
 4684SOL    HW215474   7.821   0.721   5.135 -0.2219  0.0998  0.1937
 4685SOL     OW15475   1.025   7.721   3.572  0.1628 -0.4496 -0.2291
 4685SOL    HW115476   1.047   7.643   3.623 -1.2691 -0.7544 -0.0581
 4685SOL    HW215477   1.107   7.743   3.527  0.9636 -1.2249  0.7878
 4686SOL     OW15478   7.829   2.511   6.172 -0.3979  0.3867  0.2773
 4686SOL    HW115479   7.747   2.488   6.129  1.1809 -1.2668 -2.1209
 4686SOL    HW215480   7.896   2.501   6.104  2.4210 -2.8594  3.1224
 4687SOL     OW15481   8.024   4.019   0.233  0.0038 -0.2582 -0.5003
 4687SOL    HW115482   8.000   4.038   0.142 -0.9767  0.4400 -0.1060
 4687SOL    HW215483   8.083   4.091   0.258 -1.0834  0.5060 -0.0591
 4688SOL     OW15484   3.238   0.541   8.048  0.1053 -0.8215  0.5437
 4688SOL    HW115485   3.324   0.560   8.009  1.4397 -1.5401  2.8855
 4688SOL    HW215486   3.180   0.527   7.974  1.8511  0.3555 -1.1467
 4689SOL     OW15487   1.988   7.340   8.507 -0.2388  0.7319  0.0577
 4689SOL    HW115488   1.915   7.278   8.511 -0.2282  0.6975 -0.2440
 4689SOL    HW215489   2.060   7.289   8.470  0.4395  0.2967  1.8998
 4690SOL     OW15490   7.629   6.037   2.683 -0.4732 -0.8234 -0.4378
 4690SOL    HW115491   7.552   6.010   2.733 -0.6925  0.7391  0.1241
 4690SOL    HW215492   7.637   6.131   2.699  2.3448 -1.1260  0.6109
 4691SOL     OW15493   5.567   1.714   5.987  0.1420  0.0919 -0.1351
 4691SOL    HW115494   5.612   1.718   5.903 -0.5866 -0.4211 -0.5597
 4691SOL    HW215495   5.481   1.676   5.967  0.9203 -2.6444  1.2097
 4692SOL     OW15496   7.124   6.591   7.882  0.2933  0.3829  0.3641
 4692SOL    HW115497   7.113   6.588   7.787  0.5451  0.6166  0.3234
 4692SOL    HW215498   7.083   6.673   7.908 -2.5022 -1.0748  0.8644
 4693SOL     OW15499   5.565   6.294   7.157 -0.2737  0.1144  0.2677
 4693SOL    HW115500   5.482   6.285   7.110  0.2663 -1.2643 -0.4824
 4693SOL    HW215501   5.615   6.358   7.106  0.5844 -1.8680 -1.5662
 4694SOL     OW15502   6.036   3.943   7.566  0.0319  0.1725  0.4963
 4694SOL    HW115503   6.037   3.976   7.656  0.7278  0.9451  0.2167
 4694SOL    HW215504   6.128   3.933   7.542 -0.1272  0.5116 -0.3096
 4695SOL     OW15505   8.149   8.131   6.487  0.1403  0.1871 -1.0338
 4695SOL    HW115506   8.218   8.189   6.454 -0.6818  1.0335 -1.2975
 4695SOL    HW215507   8.131   8.163   6.575  1.0526 -0.9286 -0.4049
 4696SOL     OW15508   9.001   1.584   2.300  0.2394  0.0305  0.4898
 4696SOL    HW115509   9.071   1.564   2.238  1.0364  1.1973  0.9729
 4696SOL    HW215510   9.020   1.673   2.330 -2.1022  0.8388 -0.2149
 4697SOL     OW15511   7.137   5.518   5.849 -0.1286  0.0495  0.6080
 4697SOL    HW115512   7.142   5.438   5.797 -0.7238  0.3124  0.1426
 4697SOL    HW215513   7.181   5.584   5.796 -0.1736  0.1725  0.7219
 4698SOL     OW15514   1.269   2.923   4.409 -0.4849  0.4587  0.0171
 4698SOL    HW115515   1.344   2.905   4.353 -1.0523 -1.1266 -0.2643
 4698SOL    HW215516   1.242   3.012   4.386  1.1958  1.0096  0.0266
 4699SOL     OW15517   4.716   6.746   0.133 -0.2746  0.4477 -0.2232
 4699SOL    HW115518   4.709   6.687   0.208 -2.1420 -0.2613 -0.9098
 4699SOL    HW215519   4.654   6.817   0.152 -0.4226  0.4994 -0.8839
 4700SOL     OW15520   3.302   7.467   8.699 -0.2444 -0.0218  0.0333
 4700SOL    HW115521   3.225   7.428   8.740 -0.3831 -0.6028 -0.7516
 4700SOL    HW215522   3.268   7.542   8.650 -0.3818 -0.4786 -0.5929
 4701SOL     OW15523   4.400   5.232   0.029  0.1200  0.2588  0.0974
 4701SOL    HW115524   4.376   5.208  -0.060  1.6018 -3.6426  0.5329
 4701SOL    HW215525   4.316   5.243   0.074 -0.6430  1.5356 -1.5306
 4702SOL     OW15526   4.569   7.917   0.317 -0.2677  0.0670  0.1291
 4702SOL    HW115527   4.555   7.848   0.382 -0.2409  0.9150  1.0716
 4702SOL    HW215528   4.497   7.979   0.334  0.1967  0.6823 -0.1209
 4703SOL     OW15529   0.225   8.347   6.134  0.4711  0.0140 -0.1904
 4703SOL    HW115530   0.257   8.417   6.078  0.1638  0.1747 -0.1639
 4703SOL    HW215531   0.148   8.313   6.089  0.9071 -0.6457 -0.4578
 4704SOL     OW15532   7.520   2.738   0.594  0.5884 -0.0850  0.3890
 4704SOL    HW115533   7.574   2.660   0.590 -0.4817 -0.8109 -0.8961
 4704SOL    HW215534   7.435   2.707   0.624 -0.4631  0.1442 -2.0986
 4705SOL     OW15535   2.592   5.914   1.826  0.3489 -0.1482 -0.3340
 4705SOL    HW115536   2.625   6.003   1.810  1.8739 -0.6513 -0.1060
 4705SOL    HW215537   2.503   5.928   1.858  0.6663  1.3231  0.0012
 4706SOL     OW15538   7.145   5.421   2.196  0.1227 -0.6969  0.2350
 4706SOL    HW115539   7.159   5.494   2.137 -0.1872 -0.3410  0.5939
 4706SOL    HW215540   7.227   5.371   2.193  0.7964  0.3290  0.8981
 4707SOL     OW15541   2.873   4.508   5.626 -0.0232  0.4607  0.4783
 4707SOL    HW115542   2.930   4.446   5.671  0.0556 -0.8383 -1.3302
 4707SOL    HW215543   2.805   4.528   5.690  1.0610  0.1270  1.8018
 4708SOL     OW15544   8.040   5.553   5.533  0.1507 -0.9223 -0.0560
 4708SOL    HW115545   8.132   5.544   5.555  0.0105 -2.8064 -0.1236
 4708SOL    HW215546   7.994   5.514   5.607 -0.5235 -1.7528 -0.8989
 4709SOL     OW15547   8.321   3.753   1.819 -0.3977  0.0283 -0.2590
 4709SOL    HW115548   8.338   3.834   1.868 -0.3687 -1.3236  2.1252
 4709SOL    HW215549   8.240   3.720   1.856  0.8267 -2.2375  0.5755
 4710SOL     OW15550   0.545   8.510   1.118  0.3483 -0.1515  0.3485
 4710SOL    HW115551   0.622   8.553   1.083  0.2566 -1.1085 -1.1142
 4710SOL    HW215552   0.570   8.482   1.206  1.3239  0.4049  0.2552
 4711SOL     OW15553   2.635   0.088   0.276  1.0330  0.4660 -0.3062
 4711SOL    HW115554   2.729   0.098   0.257  0.6506  0.2383 -2.6646
 4711SOL    HW215555   2.593   0.092   0.190 -0.8774 -2.1892  0.3813
 4712SOL     OW15556   6.894   8.386   4.115  0.1825 -0.4478  0.5312
 4712SOL    HW115557   6.964   8.371   4.051  1.3071  0.5807  1.4624
 4712SOL    HW215558   6.823   8.329   4.087  0.3563  0.4899 -2.0314
 4713SOL     OW15559   2.236   3.242   3.727 -0.1226  0.3837  0.0698
 4713SOL    HW115560   2.173   3.257   3.657  0.8485 -0.6875 -1.0673
 4713SOL    HW215561   2.192   3.180   3.786 -0.4282  0.2359 -0.3081
 4714SOL     OW15562   6.838   1.579   3.779  0.0059 -0.3268 -0.8156
 4714SOL    HW115563   6.781   1.534   3.717 -0.2215  0.1221 -0.9333
 4714SOL    HW215564   6.884   1.644   3.727  2.8979 -2.6064 -1.3756
 4715SOL     OW15565   3.168   4.598   0.727 -0.0710  0.6364 -0.0130
 4715SOL    HW115566   3.168   4.685   0.686 -1.0309  0.9714  0.6547
 4715SOL    HW215567   3.127   4.541   0.662 -1.1898  1.0772  0.2857
 4716SOL     OW15568   6.020   4.372   2.988 -0.0473 -0.2343 -0.1190
 4716SOL    HW115569   5.984   4.436   2.926  0.5401  2.3777  2.0330
 4716SOL    HW215570   5.964   4.379   3.065  0.8997 -1.2698  0.7003
 4717SOL     OW15571   4.830   2.598   4.776  0.0371 -0.6993 -0.1522
 4717SOL    HW115572   4.808   2.685   4.811 -0.1412 -0.7784 -0.0674
 4717SOL    HW215573   4.748   2.549   4.781 -0.0890 -0.5920 -1.0389
 4718SOL     OW15574   0.096   3.066   7.384 -0.3996  0.6978  0.0550
 4718SOL    HW115575   0.098   3.162   7.384  0.5252  0.6917  1.2129
 4718SOL    HW215576   0.029   3.043   7.449 -0.4406  0.5484 -0.0378
 4719SOL     OW15577   3.801   3.612   8.636  0.1181  0.1368 -0.5656
 4719SOL    HW115578   3.764   3.688   8.681 -0.7108 -0.5183 -0.1228
 4719SOL    HW215579   3.813   3.547   8.705 -0.8904 -0.7739 -1.2191
 4720SOL     OW15580   8.065   8.406   9.108  0.2546  0.4311  0.1774
 4720SOL    HW115581   8.122   8.363   9.044  0.7060  2.8561 -1.1450
 4720SOL    HW215582   8.125   8.443   9.172 -0.1054 -0.3157  0.9720
 4721SOL     OW15583   9.242   7.306   1.280 -0.0381 -0.4215 -0.4972
 4721SOL    HW115584   9.177   7.368   1.249 -0.4810 -1.5883 -2.0273
 4721SOL    HW215585   9.256   7.329   1.372 -0.6018  1.5374 -0.8598
 4722SOL     OW15586   8.801   9.248   2.782 -0.6716  0.3514  0.2181
 4722SOL    HW115587   8.819   9.158   2.757 -0.3896  0.7418 -1.0199
 4722SOL    HW215588   8.786   9.294   2.700 -2.4838  1.0962  0.8950
 4723SOL     OW15589   1.078   5.481   8.743  0.0210  0.1676  0.1918
 4723SOL    HW115590   1.025   5.500   8.665 -2.1261  0.3079  1.5889
 4723SOL    HW215591   1.093   5.387   8.739  1.5433  0.4156 -1.2873
 4724SOL     OW15592   8.544   5.865   5.967  0.1118  0.6885 -0.1107
 4724SOL    HW115593   8.613   5.857   6.033  0.2058 -0.5643 -0.3375
 4724SOL    HW215594   8.475   5.914   6.011  0.3293  0.2013  0.7964
 4725SOL     OW15595   0.035   8.593   6.112 -0.0015  0.5210  0.5109
 4725SOL    HW115596   0.072   8.620   6.196 -1.0405 -0.6931  1.3930
 4725SOL    HW215597  -0.053   8.562   6.133 -0.9498  1.8148 -1.2865
 4726SOL     OW15598   7.508   4.421   6.992 -0.2643  0.2946 -0.4344
 4726SOL    HW115599   7.522   4.516   6.995 -0.8377  0.3717  1.2201
 4726SOL    HW215600   7.440   4.405   7.058  2.9220 -1.7413  2.7022
 4727SOL     OW15601   0.661   7.641   5.852  0.4674  0.6819 -0.2043
 4727SOL    HW115602   0.647   7.550   5.876 -0.8974  0.3810 -1.9691
 4727SOL    HW215603   0.700   7.681   5.930 -0.9510 -0.8785  1.3838
 4728SOL     OW15604   6.142   7.935   4.419  0.3506 -0.1098 -0.1008
 4728SOL    HW115605   6.185   7.861   4.376  0.2238 -1.0565  1.3306
 4728SOL    HW215606   6.155   8.008   4.358  2.0089 -0.8815 -0.7614
 4729SOL     OW15607   5.387   7.597   0.142  0.5384  0.0779  0.3437
 4729SOL    HW115608   5.453   7.569   0.078  2.4632  0.4243  2.0533
 4729SOL    HW215609   5.383   7.692   0.132  1.4592  0.2275  1.2471
 4730SOL     OW15610   8.641   3.134   2.736 -0.0766 -0.1016 -0.4592
 4730SOL    HW115611   8.628   3.044   2.766 -0.3981  0.3371  0.7521
 4730SOL    HW215612   8.730   3.156   2.764  0.8980 -0.7914 -2.7807
 4731SOL     OW15613   2.416   4.186   5.395 -0.0504  0.0537  0.3990
 4731SOL    HW115614   2.416   4.281   5.380 -1.4227  0.1276  0.6983
 4731SOL    HW215615   2.368   4.150   5.320  1.7779 -0.5953 -0.5303
 4732SOL     OW15616   2.651   8.050   4.995  0.2290 -0.5962 -0.4071
 4732SOL    HW115617   2.721   8.029   4.934 -0.1171  0.1812 -1.0944
 4732SOL    HW215618   2.577   8.074   4.940  0.0854  0.6903  0.3014
 4733SOL     OW15619   3.270   2.530   8.587 -0.4003 -0.3048  0.1770
 4733SOL    HW115620   3.243   2.622   8.589 -0.8404 -0.3890 -1.2319
 4733SOL    HW215621   3.223   2.492   8.513 -0.8979 -1.8976  1.2422
 4734SOL     OW15622   4.084   2.616   4.123  0.1599  0.6752 -0.1517
 4734SOL    HW115623   4.126   2.662   4.051  0.8647  1.2662  0.6287
 4734SOL    HW215624   4.076   2.681   4.193  1.1389 -0.3465  0.9629
 4735SOL     OW15625   4.269   4.939   6.157 -0.2006  0.1200 -0.2124
 4735SOL    HW115626   4.209   4.990   6.211  0.3400 -0.3215  0.8361
 4735SOL    HW215627   4.256   4.973   6.069 -1.7374  0.2706  0.0336
 4736SOL     OW15628   4.142   3.170   1.769 -0.3933 -0.1821 -0.3944
 4736SOL    HW115629   4.222   3.212   1.737 -2.2849  2.7712 -1.7122
 4736SOL    HW215630   4.159   3.153   1.862  2.9384 -3.0260 -1.3152
 4737SOL     OW15631   7.125   2.222   4.621  0.4016  0.5449  0.1679
 4737SOL    HW115632   7.098   2.229   4.529  1.0638  0.4970 -0.0366
 4737SOL    HW215633   7.219   2.201   4.617  0.0305 -1.4403  0.8338
 4738SOL     OW15634   4.068   1.236   8.181  0.2238  0.5551 -0.2672
 4738SOL    HW115635   4.140   1.286   8.220  1.0645 -1.0532  0.3277
 4738SOL    HW215636   4.107   1.193   8.105 -0.1957 -0.0408 -0.1496
 4739SOL     OW15637   3.908   7.372   4.418 -0.0151 -0.1542  0.9197
 4739SOL    HW115638   3.873   7.460   4.432  0.3182  0.5128 -1.8822
 4739SOL    HW215639   3.992   7.387   4.373 -0.9631 -1.8639 -1.6463
 4740SOL     OW15640   1.637   9.134   6.893 -0.4154 -0.1084 -0.0968
 4740SOL    HW115641   1.708   9.189   6.928 -1.6109  1.0012  0.6555
 4740SOL    HW215642   1.594   9.189   6.827  1.4051 -1.9457 -3.0394
 4741SOL     OW15643   4.168   7.498   3.575 -0.2487 -0.2417 -0.1393
 4741SOL    HW115644   4.229   7.565   3.605  0.7421 -0.4307 -1.5809
 4741SOL    HW215645   4.203   7.416   3.610 -0.3891 -0.2111  0.0715
 4742SOL     OW15646   0.895   3.129   1.532  0.0441 -0.5260 -0.7056
 4742SOL    HW115647   0.965   3.082   1.578  0.2005  0.4432  0.0827
 4742SOL    HW215648   0.817   3.115   1.586  0.0678  0.0123 -0.5273
 4743SOL     OW15649   7.716   2.873   0.951 -0.5436 -0.4585  0.0807
 4743SOL    HW115650   7.803   2.836   0.940 -0.5505 -0.1955 -1.1049
 4743SOL    HW215651   7.702   2.923   0.870 -0.9892  1.1652  1.0976
 4744SOL     OW15652   4.561   2.609   0.516  0.1939 -0.0791  0.1352
 4744SOL    HW115653   4.522   2.692   0.542 -0.0596 -1.1571  3.8708
 4744SOL    HW215654   4.490   2.561   0.473 -1.3424 -0.2541  2.6757
 4745SOL     OW15655   6.403   5.190   6.550  0.2645  0.5275 -0.0626
 4745SOL    HW115656   6.327   5.172   6.495  0.8426  1.0552 -1.0541
 4745SOL    HW215657   6.437   5.274   6.518  2.9814 -1.0230 -1.6585
 4746SOL     OW15658   2.240   2.422   3.560 -0.0168 -0.4068 -0.0629
 4746SOL    HW115659   2.318   2.383   3.598  1.0591  1.8112  0.1947
 4746SOL    HW215660   2.235   2.385   3.472  2.3305  0.5786 -0.6944
 4747SOL     OW15661   4.535   7.473   2.916  0.5967  0.3091 -0.1483
 4747SOL    HW115662   4.484   7.403   2.957  0.0965  0.9538  0.3285
 4747SOL    HW215663   4.610   7.427   2.877 -0.3604 -0.6491 -0.9105
 4748SOL     OW15664   8.996   7.409   2.975 -0.9119 -0.0440  0.7272
 4748SOL    HW115665   9.035   7.471   2.914  0.3601 -0.9077  0.6152
 4748SOL    HW215666   8.926   7.367   2.925 -0.2656 -0.3211  0.0329
 4749SOL     OW15667   6.358   5.809   8.045  0.0316 -0.1560 -0.2066
 4749SOL    HW115668   6.363   5.816   8.141 -0.2162 -0.7025 -0.1510
 4749SOL    HW215669   6.375   5.898   8.014  0.0198  0.0466  0.3489
 4750SOL     OW15670   0.800   5.133   3.591 -0.0378  0.5743  0.4272
 4750SOL    HW115671   0.814   5.073   3.517  0.5445  0.2371  0.8006
 4750SOL    HW215672   0.724   5.097   3.636 -0.8887  1.2399 -0.4553
 4751SOL     OW15673   3.838   7.185   2.801  0.2686  0.3934 -0.1216
 4751SOL    HW115674   3.857   7.236   2.880 -0.7319 -0.8084  0.9345
 4751SOL    HW215675   3.923   7.175   2.758  0.8893  0.7638  0.9913
 4752SOL     OW15676   1.406   3.075   1.439 -0.0165  0.2777 -0.5146
 4752SOL    HW115677   1.363   3.156   1.416  2.1744  1.0967 -2.0914
 4752SOL    HW215678   1.437   3.089   1.529  1.2801  1.6751 -1.1359
 4753SOL     OW15679   3.209   7.673   5.417 -0.0116  0.8761  0.3208
 4753SOL    HW115680   3.267   7.620   5.362 -1.5542  0.6624 -1.1878
 4753SOL    HW215681   3.150   7.609   5.458 -0.6911  1.2598 -0.0378
 4754SOL     OW15682   3.673   8.536   5.974 -0.0570 -0.6112  0.2063
 4754SOL    HW115683   3.640   8.545   6.064 -0.3785 -0.1905  0.0511
 4754SOL    HW215684   3.631   8.608   5.926 -1.1033 -1.7329 -0.6286
 4755SOL     OW15685   0.298   0.886   7.423 -0.2354  0.2064  0.0866
 4755SOL    HW115686   0.242   0.963   7.435 -0.4535  0.1219 -0.3681
 4755SOL    HW215687   0.383   0.923   7.397 -1.2701  0.2379 -3.7755
 4756SOL     OW15688   8.211   1.090   0.089 -0.2460 -0.2642  0.4343
 4756SOL    HW115689   8.279   1.024   0.107 -1.8788 -1.6002  2.0172
 4756SOL    HW215690   8.139   1.040   0.050 -1.4025  0.6171  1.3767
 4757SOL     OW15691   0.287   0.370   8.064 -0.1909 -0.1234  0.1013
 4757SOL    HW115692   0.252   0.335   8.146 -0.7952 -0.9888 -0.5038
 4757SOL    HW215693   0.274   0.464   8.071  0.1710 -0.1342  1.1786
 4758SOL     OW15694   4.417   8.487   6.924 -0.0664  0.0148  0.3911
 4758SOL    HW115695   4.467   8.426   6.978  1.5419 -0.1082 -1.1304
 4758SOL    HW215696   4.424   8.571   6.968  1.1300 -0.1009  0.4558
 4759SOL     OW15697   6.612   8.609   7.654  0.0604 -0.5670  0.0062
 4759SOL    HW115698   6.673   8.539   7.676  0.9621  0.1072 -0.3200
 4759SOL    HW215699   6.528   8.564   7.641  0.6204 -1.5805 -0.1828
 4760SOL     OW15700   7.667   2.750   3.440 -0.0114 -0.1144 -0.1943
 4760SOL    HW115701   7.615   2.751   3.521 -1.8304 -0.9529 -1.2829
 4760SOL    HW215702   7.603   2.763   3.371  1.3804 -0.3703 -1.5798
 4761SOL     OW15703   7.698   6.216   6.310  1.0750 -0.2692  0.0632
 4761SOL    HW115704   7.637   6.219   6.236  0.3293 -1.0014  0.6305
 4761SOL    HW215705   7.650   6.259   6.381  1.7252  0.2907  0.1732
 4762SOL     OW15706   8.949   2.141   6.831  0.0210 -0.2502 -0.1822
 4762SOL    HW115707   8.861   2.121   6.861 -0.3686  2.5206  0.7360
 4762SOL    HW215708   9.005   2.122   6.907 -0.0740  0.1489 -0.0131
 4763SOL     OW15709   4.932   0.401   4.887 -0.4768 -0.1051 -0.0488
 4763SOL    HW115710   4.978   0.476   4.848 -0.0969 -0.0552  0.4836
 4763SOL    HW215711   4.843   0.434   4.902 -0.8416 -0.3495 -1.5145
 4764SOL     OW15712   6.596   9.176   2.368 -0.3695  0.1608  0.5214
 4764SOL    HW115713   6.688   9.198   2.385 -0.3317  0.6256 -0.2515
 4764SOL    HW215714   6.548   9.255   2.394 -0.4215  0.4192 -0.3403
 4765SOL     OW15715   7.145   3.921   3.922  0.4418  0.1176  0.4955
 4765SOL    HW115716   7.239   3.915   3.937  0.2416 -0.1951  1.7573
 4765SOL    HW215717   7.114   3.979   3.992 -0.5720 -1.4112  1.3536
 4766SOL     OW15718   1.056   2.403   6.825 -0.1369  0.1685 -0.6780
 4766SOL    HW115719   1.074   2.496   6.827  0.7320  0.0323 -1.4161
 4766SOL    HW215720   1.121   2.367   6.764 -1.2665 -0.7300 -1.3934
 4767SOL     OW15721   2.585   7.172   6.897  0.1352 -0.9990  0.3816
 4767SOL    HW115722   2.637   7.113   6.842 -1.0034  0.3434 -2.3141
 4767SOL    HW215723   2.497   7.135   6.894  0.1045 -1.1266  1.7666
 4768SOL     OW15724   6.752   0.305   4.169 -0.0124 -0.0798 -0.0378
 4768SOL    HW115725   6.818   0.237   4.180 -0.8664 -0.7850  0.9239
 4768SOL    HW215726   6.669   0.259   4.177 -0.6393  1.3023  2.5022
 4769SOL     OW15727   8.420   3.496   6.102  0.6016  0.7925  0.0601
 4769SOL    HW115728   8.351   3.519   6.041  0.7113 -0.0962 -0.4258
 4769SOL    HW215729   8.425   3.569   6.164  1.1802  2.2018 -1.5887
 4770SOL     OW15730   7.029   1.762   1.077 -0.7214 -0.0939  0.5283
 4770SOL    HW115731   6.939   1.737   1.094 -0.6025  0.2339  1.7287
 4770SOL    HW215732   7.035   1.771   0.981 -1.7764 -0.7516  0.3986
 4771SOL     OW15733   0.898   0.618   8.107 -0.6410 -0.1809  0.1085
 4771SOL    HW115734   0.935   0.706   8.102 -1.7290  0.2683 -0.2512
 4771SOL    HW215735   0.861   0.613   8.195 -0.2264 -0.4392  0.2745
 4772SOL     OW15736   7.449   7.864   0.986 -0.2275 -0.0805  0.0614
 4772SOL    HW115737   7.446   7.805   0.911 -1.7610 -0.9889  0.7928
 4772SOL    HW215738   7.363   7.855   1.028 -0.5313  2.6776  0.2196
 4773SOL     OW15739   5.817   0.928   8.313 -0.1152 -0.3825 -0.7923
 4773SOL    HW115740   5.905   0.966   8.309 -0.0912 -0.2499  0.6120
 4773SOL    HW215741   5.797   0.924   8.406 -1.2780 -1.1725 -1.0604
 4774SOL     OW15742   7.585   1.258   0.033  0.5530  0.2791  0.2131
 4774SOL    HW115743   7.680   1.260   0.032  0.5582  2.4065 -1.1512
 4774SOL    HW215744   7.561   1.299   0.116  0.7816 -0.8967  0.8851
 4775SOL     OW15745   7.318   4.080   8.368 -0.2464  0.0513 -0.9084
 4775SOL    HW115746   7.384   4.033   8.419  0.8103  2.0262 -0.3546
 4775SOL    HW215747   7.369   4.138   8.311 -1.4766  1.5386 -0.5595
 4776SOL     OW15748   6.711   3.088   2.993  0.1352  0.3940  0.1066
 4776SOL    HW115749   6.787   3.140   3.022  0.4579  0.2834 -0.5096
 4776SOL    HW215750   6.725   3.077   2.899 -1.5895  1.9468 -0.3800
 4777SOL     OW15751   6.605   7.073   3.764  0.4000 -0.5861  0.7105
 4777SOL    HW115752   6.529   7.045   3.815 -0.4019  0.2280  0.0188
 4777SOL    HW215753   6.577   7.064   3.673  0.4474  1.3934  0.4405
 4778SOL     OW15754   5.865   6.409   4.832 -0.3501  0.2114  0.2241
 4778SOL    HW115755   5.870   6.504   4.845  2.7477  0.2851 -0.8074
 4778SOL    HW215756   5.951   6.377   4.860 -0.7351 -2.0669 -1.0178
 4779SOL     OW15757   5.644   0.974   2.760 -0.1173 -0.1932  0.4781
 4779SOL    HW115758   5.665   0.975   2.854  0.0765 -1.0564  0.4481
 4779SOL    HW215759   5.721   0.936   2.719  0.4012  1.4920 -0.2099
 4780SOL     OW15760   0.772   9.015   8.439  0.2430  0.7410 -0.2189
 4780SOL    HW115761   0.853   9.060   8.413  0.4426 -0.4921 -1.8429
 4780SOL    HW215762   0.787   8.992   8.531  2.0203 -0.0188 -0.6539
 4781SOL     OW15763   2.506   9.208   8.238 -0.2252 -0.4112  0.0092
 4781SOL    HW115764   2.519   9.242   8.326  0.4690  0.2103 -0.3150
 4781SOL    HW215765   2.433   9.147   8.245 -1.2923  0.8886  0.7033
 4782SOL     OW15766   7.436   3.884   7.258 -0.0115  0.2744  0.1999
 4782SOL    HW115767   7.435   3.904   7.352  2.0664  0.2097  0.2866
 4782SOL    HW215768   7.476   3.961   7.218  0.0738 -0.1300 -0.5012
 4783SOL     OW15769   4.830   2.429   0.122  0.2900  0.3306  0.2672
 4783SOL    HW115770   4.830   2.440   0.217  2.3927 -0.5524  0.3977
 4783SOL    HW215771   4.901   2.486   0.091 -0.8629  1.2122 -0.8963
 4784SOL     OW15772   4.561   6.606   1.616  0.2629  0.0190 -0.3626
 4784SOL    HW115773   4.624   6.555   1.668 -0.1087  0.5314  0.6226
 4784SOL    HW215774   4.524   6.543   1.554  0.4792 -0.6937  0.2174
 4785SOL     OW15775   8.399   0.936   2.856  0.0372 -0.0614  0.3735
 4785SOL    HW115776   8.492   0.920   2.868  0.3623  0.7375 -0.8932
 4785SOL    HW215777   8.360   0.918   2.942  1.1835 -1.4703  0.6410
 4786SOL     OW15778   4.236   3.360   2.403 -0.2638 -0.1053 -0.1281
 4786SOL    HW115779   4.262   3.387   2.491 -0.1783  0.0923 -0.2155
 4786SOL    HW215780   4.191   3.276   2.417  1.6011 -1.1733 -0.1022
 4787SOL     OW15781   5.059   4.343   1.659 -0.3842  0.0336 -0.3763
 4787SOL    HW115782   5.130   4.317   1.600 -0.6418  1.1851 -1.2087
 4787SOL    HW215783   5.084   4.430   1.690 -0.9911  0.0638  0.0439
 4788SOL     OW15784   1.632   4.753   8.177  0.3452  0.0062 -0.1111
 4788SOL    HW115785   1.550   4.757   8.228  0.6243  0.5989  0.2959
 4788SOL    HW215786   1.701   4.748   8.243  0.5981 -1.7085 -0.4524
 4789SOL     OW15787   8.200   7.928   2.683 -0.4243 -0.2115 -0.3157
 4789SOL    HW115788   8.139   7.927   2.609 -0.2315 -0.4099 -0.4733
 4789SOL    HW215789   8.280   7.966   2.648 -1.2358  2.4983  0.5318
 4790SOL     OW15790   2.280   5.841   1.111  0.1816  0.2438 -0.4730
 4790SOL    HW115791   2.323   5.906   1.167  0.1894 -0.2344  0.0875
 4790SOL    HW215792   2.313   5.861   1.023  1.1238  0.2452 -0.1367
 4791SOL     OW15793   4.321   6.403   3.220 -0.0001 -0.0924  0.2715
 4791SOL    HW115794   4.316   6.353   3.302 -2.2924  0.0251  0.2679
 4791SOL    HW215795   4.342   6.492   3.248 -0.1707 -0.1770  0.6839
 4792SOL     OW15796   1.433   1.561   7.051 -0.0981 -0.0790  0.5835
 4792SOL    HW115797   1.512   1.534   7.005 -0.7196 -0.3518 -0.3563
 4792SOL    HW215798   1.365   1.562   6.984 -1.2347 -1.3520  1.6609
 4793SOL     OW15799   6.561   8.988   3.546 -0.4371 -0.3783 -0.1499
 4793SOL    HW115800   6.564   9.072   3.500  2.4710 -0.3371 -0.1204
 4793SOL    HW215801   6.585   8.923   3.479 -1.3736 -1.0161  0.1242
 4794SOL     OW15802   3.248   8.695   5.802 -0.0729 -0.1020  0.2432
 4794SOL    HW115803   3.244   8.730   5.891 -0.1651 -1.2367  0.6989
 4794SOL    HW215804   3.178   8.630   5.799  1.4028 -1.7733  0.1135
 4795SOL     OW15805   4.081   4.522   4.061 -0.0967 -0.0510 -0.6540
 4795SOL    HW115806   4.072   4.459   3.990  0.2497  0.6581 -1.3331
 4795SOL    HW215807   4.013   4.496   4.124 -0.4304 -0.6614 -1.2511
 4796SOL     OW15808   3.277   3.056   1.162  0.7813  0.4375  0.5012
 4796SOL    HW115809   3.193   3.095   1.139  0.9715  0.6477  0.1473
 4796SOL    HW215810   3.299   3.000   1.087  0.3547 -0.6173  1.1477
 4797SOL     OW15811   7.105   5.589   6.952  0.2404  0.1161  0.4769
 4797SOL    HW115812   7.033   5.629   7.002 -1.1899 -0.9991 -0.5895
 4797SOL    HW215813   7.109   5.499   6.985  1.4304  0.2669  0.7843
 4798SOL     OW15814   0.199   5.218   6.501  0.3720  0.1958 -0.3733
 4798SOL    HW115815   0.269   5.159   6.475  1.6753  2.0247 -1.1929
 4798SOL    HW215816   0.222   5.246   6.589  0.6419  0.7404 -0.6144
 4799SOL     OW15817   0.101   6.942   0.443 -0.8263 -0.0641 -0.5701
 4799SOL    HW115818   0.179   6.992   0.466 -0.6977  0.0667 -1.2613
 4799SOL    HW215819   0.028   6.996   0.474 -0.6352 -0.5583  0.7866
 4800SOL     OW15820   6.132   0.124   5.258  0.4100  0.1465  0.3916
 4800SOL    HW115821   6.081   0.169   5.325  0.3543  2.6076 -1.1696
 4800SOL    HW215822   6.120   0.177   5.179  1.4639 -1.9334 -1.2686
 4801SOL     OW15823   7.035   2.462   6.924 -0.4382 -0.5428  0.2095
 4801SOL    HW115824   7.068   2.448   6.835  1.4087 -0.9801  0.9109
 4801SOL    HW215825   7.077   2.543   6.953 -0.6390 -0.6584  0.8448
 4802SOL     OW15826   1.254   4.586   1.881  0.3158 -0.0531  0.5500
 4802SOL    HW115827   1.167   4.591   1.840  0.9261 -2.0168 -1.1453
 4802SOL    HW215828   1.302   4.660   1.844 -0.2935  0.3928  0.6387
 4803SOL     OW15829   7.096   4.641   3.280  0.5746  0.1292 -0.2903
 4803SOL    HW115830   7.189   4.643   3.304  0.7931 -0.2537 -1.0585
 4803SOL    HW215831   7.051   4.679   3.355  1.4723  1.6311 -0.4670
 4804SOL     OW15832   7.200   4.801   6.280 -0.0611  0.3890 -0.4130
 4804SOL    HW115833   7.260   4.876   6.275  0.4602  0.2864  2.5780
 4804SOL    HW215834   7.248   4.730   6.238  1.8297  0.4477  1.4598
 4805SOL     OW15835   5.226   0.922   1.512 -0.2342  0.2608  0.0482
 4805SOL    HW115836   5.175   0.924   1.593  0.4634  0.7018  0.4791
 4805SOL    HW215837   5.225   1.012   1.481  1.3215  0.5456  0.7234
 4806SOL     OW15838   0.530   2.641   7.906  0.5114 -0.2379  0.1236
 4806SOL    HW115839   0.458   2.599   7.953 -0.4203  1.5438  0.3746
 4806SOL    HW215840   0.600   2.649   7.971  0.3557 -0.5162  0.3301
 4807SOL     OW15841   4.402   0.047   0.328  0.3219 -0.0297  0.1428
 4807SOL    HW115842   4.336  -0.004   0.377  0.7875  0.9053  1.8220
 4807SOL    HW215843   4.427   0.117   0.388  2.2451  0.1298 -0.7832
 4808SOL     OW15844   3.091   4.340   2.177  0.0143 -0.0789  0.0819
 4808SOL    HW115845   3.115   4.247   2.177  0.6861  0.0839  0.6837
 4808SOL    HW215846   3.015   4.346   2.233  0.2565 -0.2009  0.4258
 4809SOL     OW15847   0.342   3.545   8.302 -0.5626 -0.4096 -0.4225
 4809SOL    HW115848   0.346   3.455   8.270  0.6724 -1.2662  1.8210
 4809SOL    HW215849   0.342   3.600   8.224 -0.6719 -2.3526 -1.8383
 4810SOL     OW15850   1.200   3.543   0.937 -0.5570  0.0559  0.4474
 4810SOL    HW115851   1.187   3.593   0.856  1.2322  1.0514  0.7245
 4810SOL    HW215852   1.162   3.457   0.918 -3.0835  1.2311 -0.2872
 4811SOL     OW15853   7.489   3.608   8.786 -0.6648  0.9226 -0.0532
 4811SOL    HW115854   7.394   3.614   8.790 -0.7633 -0.6879  0.9727
 4811SOL    HW215855   7.511   3.533   8.842  1.1236  0.6239 -1.0547
 4812SOL     OW15856   7.664   1.667   3.006  0.3448 -0.7004  0.2413
 4812SOL    HW115857   7.721   1.705   2.939  0.2710 -0.7769  0.1344
 4812SOL    HW215858   7.639   1.742   3.061  2.8722 -1.0751  2.0584
 4813SOL     OW15859   0.162   7.478   3.764 -0.1504 -0.3423 -0.0832
 4813SOL    HW115860   0.147   7.408   3.827  0.0838 -0.3036  0.0163
 4813SOL    HW215861   0.099   7.462   3.694 -1.1953  0.2600  0.6845
 4814SOL     OW15862   3.104   9.177   8.544 -0.5112  0.3000 -0.1827
 4814SOL    HW115863   3.009   9.163   8.540 -0.3785 -0.9671  0.6790
 4814SOL    HW215864   3.142   9.094   8.515  0.3905  1.5133 -2.7855
 4815SOL     OW15865   5.607   4.916   7.583 -0.2159 -0.4936 -0.2942
 4815SOL    HW115866   5.683   4.973   7.597 -1.2936  1.1458 -0.8366
 4815SOL    HW215867   5.609   4.897   7.489 -1.4678  1.1151 -0.6966
 4816SOL     OW15868   5.022   6.324   0.331 -0.0841  0.1371 -0.3332
 4816SOL    HW115869   5.074   6.262   0.280  1.2238  0.0280  1.0554
 4816SOL    HW215870   5.045   6.410   0.296  1.0907  0.0933  0.2839
 4817SOL     OW15871   7.067   8.447   4.925 -0.0191  0.6272 -0.0137
 4817SOL    HW115872   7.072   8.471   4.833 -0.0167 -1.1422 -0.5153
 4817SOL    HW215873   7.014   8.515   4.965 -0.7828  0.9505 -1.5087
 4818SOL     OW15874   6.463   7.099   2.655 -0.2437  1.1197  0.4047
 4818SOL    HW115875   6.387   7.041   2.658 -0.6203  1.5956  0.2901
 4818SOL    HW215876   6.485   7.107   2.562  0.5350  0.2413  0.5050
 4819SOL     OW15877   2.199   0.974   2.471 -0.1218  0.4524  0.5998
 4819SOL    HW115878   2.173   1.042   2.408  0.3434  0.6603  0.6263
 4819SOL    HW215879   2.190   0.892   2.423 -1.9107  0.4048  0.9578
 4820SOL     OW15880   2.830   0.451   8.156 -0.1494  0.6425 -0.0168
 4820SOL    HW115881   2.820   0.543   8.176  1.0978  0.9054 -0.5094
 4820SOL    HW215882   2.780   0.438   8.075 -0.5867  0.8132  0.2282
 4821SOL     OW15883   0.572   5.455   3.278 -0.1876 -0.0380  0.2635
 4821SOL    HW115884   0.648   5.497   3.238 -1.0563  1.2175 -0.1209
 4821SOL    HW215885   0.563   5.372   3.231  2.0783 -1.1331  1.6184
 4822SOL     OW15886   2.563   8.914   3.556  0.3441  0.1162 -0.5012
 4822SOL    HW115887   2.546   8.877   3.470 -2.9977  0.5605 -0.1601
 4822SOL    HW215888   2.507   8.992   3.561  1.4177  0.8473  1.6231
 4823SOL     OW15889   3.767   6.993   3.353  0.0181  0.1233 -0.2370
 4823SOL    HW115890   3.784   6.903   3.379  1.3595  0.7701  1.2514
 4823SOL    HW215891   3.694   7.020   3.408 -0.2869  0.0079 -0.5789
 4824SOL     OW15892   9.109   2.302   3.025 -0.0498  0.3015  0.1840
 4824SOL    HW115893   9.066   2.229   2.982 -0.6379  1.5391 -1.4417
 4824SOL    HW215894   9.152   2.264   3.101 -2.6944 -1.2448  0.9880
 4825SOL     OW15895   1.492   1.062   6.702 -0.5258 -0.2208  0.1291
 4825SOL    HW115896   1.483   1.137   6.760 -0.0560  0.4362 -0.6179
 4825SOL    HW215897   1.428   0.999   6.733 -0.4626  0.2188  1.1894
 4826SOL     OW15898   5.130   7.145   0.637 -0.2777  0.0168  0.4482
 4826SOL    HW115899   5.225   7.146   0.638 -0.2336 -0.4302 -0.8684
 4826SOL    HW215900   5.105   7.221   0.585 -0.6746  0.4939  1.3111
 4827SOL     OW15901   4.496   5.301   4.444 -1.0206  0.0691 -0.2783
 4827SOL    HW115902   4.580   5.347   4.444 -1.8364  1.6319 -0.0810
 4827SOL    HW215903   4.515   5.216   4.404  0.6185  0.4387 -0.3554
 4828SOL     OW15904   1.469   1.953   7.866 -0.2206  0.1348 -0.5856
 4828SOL    HW115905   1.476   2.040   7.828 -1.1947  0.6715  0.4148
 4828SOL    HW215906   1.438   1.898   7.794 -1.1149  0.9311 -0.8172
 4829SOL     OW15907   7.600   0.163   7.954 -0.2345 -0.1001 -0.2373
 4829SOL    HW115908   7.516   0.141   7.996  0.3730  0.3551  1.2844
 4829SOL    HW215909   7.643   0.078   7.942 -0.3649 -0.2302  0.1904
 4830SOL     OW15910   2.109   7.313   3.337  0.5652 -0.2208 -0.2064
 4830SOL    HW115911   2.143   7.252   3.403  0.2382 -0.2949 -0.1058
 4830SOL    HW215912   2.101   7.260   3.258  0.9698 -0.1287 -0.3119
 4831SOL     OW15913   5.882   8.763   5.033  0.3498  0.3581  0.6496
 4831SOL    HW115914   5.876   8.829   5.103  1.0530 -0.6430  1.6837
 4831SOL    HW215915   5.813   8.700   5.055 -0.5849  0.9260 -0.5598
 4832SOL     OW15916   9.151   3.512   6.831 -0.3884  0.4784  0.3653
 4832SOL    HW115917   9.092   3.481   6.762  0.3558  1.7355 -0.8908
 4832SOL    HW215918   9.095   3.521   6.908 -1.4502 -0.0347 -0.3216
 4833SOL     OW15919   3.510   7.372   6.654 -0.0756  0.0664  0.1628
 4833SOL    HW115920   3.526   7.380   6.560  0.1508  1.5142  0.2991
 4833SOL    HW215921   3.447   7.442   6.673 -0.5280 -0.5520  1.0081
 4834SOL     OW15922   3.774   3.830   2.411  0.4915  0.5882 -0.2364
 4834SOL    HW115923   3.859   3.857   2.378 -0.2593  2.2325 -0.9691
 4834SOL    HW215924   3.763   3.878   2.493  0.7046 -0.4646  0.4265
 4835SOL     OW15925   1.979   3.848   1.540  0.1114 -0.4601  0.4771
 4835SOL    HW115926   1.979   3.934   1.497 -1.2776  0.4780  2.2246
 4835SOL    HW215927   2.065   3.842   1.581  0.5058 -0.2608 -0.3013
 4836SOL     OW15928   3.586   2.694   8.903  0.1008  0.1227  0.1970
 4836SOL    HW115929   3.535   2.615   8.919 -0.3597  0.5947  1.1245
 4836SOL    HW215930   3.599   2.695   8.808 -1.8928  0.1439 -0.1160
 4837SOL     OW15931   5.811   1.258   8.170 -0.2475 -0.0305 -0.1797
 4837SOL    HW115932   5.784   1.346   8.195  0.8757  0.1131  0.5732
 4837SOL    HW215933   5.907   1.260   8.174 -0.1923 -1.1631 -0.5809
 4838SOL     OW15934   4.829   3.110   0.755 -0.2774 -0.6064 -0.2483
 4838SOL    HW115935   4.875   3.189   0.786 -0.2754 -0.4940 -0.5361
 4838SOL    HW215936   4.739   3.121   0.786 -0.6387  0.2019 -1.4945
 4839SOL     OW15937   6.297   2.582   0.648  0.1004  0.0012  0.0414
 4839SOL    HW115938   6.269   2.571   0.557  0.2494  0.7057 -0.0904
 4839SOL    HW215939   6.217   2.571   0.699  0.1507 -1.1939 -0.1089
 4840SOL     OW15940   8.621   7.281   5.142 -0.0772 -0.2466  0.1304
 4840SOL    HW115941   8.613   7.212   5.076  0.5850  1.1826 -1.5280
 4840SOL    HW215942   8.699   7.258   5.191  1.8261  0.7222 -2.2508
 4841SOL     OW15943   8.784   6.487   8.831  0.0128  0.5942  0.3557
 4841SOL    HW115944   8.704   6.436   8.835 -1.2344  2.4856  0.9431
 4841SOL    HW215945   8.816   6.476   8.742 -1.1287  0.1473 -0.0121
 4842SOL     OW15946   3.377   2.925   4.592  0.2674 -0.0444  0.0581
 4842SOL    HW115947   3.325   2.849   4.616 -0.9791  1.4190  2.3606
 4842SOL    HW215948   3.317   2.981   4.542  0.6889  0.1505 -0.2367
 4843SOL     OW15949   3.998   4.327   0.287 -0.0181 -0.0740  0.2033
 4843SOL    HW115950   4.005   4.279   0.369  1.5977 -1.8948 -0.9057
 4843SOL    HW215951   3.953   4.266   0.227 -1.5336  1.3607 -0.2066
 4844SOL     OW15952   6.838   6.838   0.218  0.2651 -0.1797  0.7746
 4844SOL    HW115953   6.836   6.917   0.165  0.0909  0.0236  1.0862
 4844SOL    HW215954   6.928   6.835   0.253  0.1792  0.0553  1.0235
 4845SOL     OW15955   7.794   1.794   2.820  0.4755 -0.3071  0.1114
 4845SOL    HW115956   7.883   1.781   2.852  0.7284  1.0348 -0.0169
 4845SOL    HW215957   7.802   1.856   2.748 -0.2403 -2.3678 -1.8721
 4846SOL     OW15958   8.018   0.251   9.096 -0.3980  0.6159 -0.0980
 4846SOL    HW115959   8.018   0.263   9.191  0.9498  0.6991 -0.0817
 4846SOL    HW215960   7.999   0.158   9.084  1.0170  0.2372  0.3568
 4847SOL     OW15961   4.897   7.240   4.986  0.0742 -0.2331 -0.5479
 4847SOL    HW115962   4.924   7.166   4.931  1.8159 -0.9215  1.1398
 4847SOL    HW215963   4.902   7.206   5.075 -2.3537  0.9645  0.1017
 4848SOL     OW15964   3.570   3.956   2.926  0.0840 -0.1989 -0.3005
 4848SOL    HW115965   3.529   4.035   2.960 -0.5701 -0.8090  0.3442
 4848SOL    HW215966   3.614   3.917   3.001  1.7271  0.3438 -0.9410
 4849SOL     OW15967   0.774   1.802   4.571 -0.0546 -0.6340  0.9612
 4849SOL    HW115968   0.683   1.831   4.571 -0.4256 -1.7376  0.2555
 4849SOL    HW215969   0.824   1.881   4.550 -0.9494 -0.2703  0.0677
 4850SOL     OW15970   8.713   6.333   1.592  0.1453  0.8384 -0.4401
 4850SOL    HW115971   8.768   6.371   1.660 -0.1917  1.6051 -0.5813
 4850SOL    HW215972   8.641   6.396   1.581 -1.3832 -0.6377  0.5241
 4851SOL     OW15973   8.495   5.149   7.694 -0.6631  0.6923  0.0562
 4851SOL    HW115974   8.503   5.134   7.788  0.6769 -0.8626 -0.2520
 4851SOL    HW215975   8.433   5.083   7.664  1.7241 -1.3916 -0.6349
 4852SOL     OW15976   6.432   4.628   9.266 -0.2225  0.4146  0.1535
 4852SOL    HW115977   6.443   4.540   9.231 -0.5439 -0.3490  1.8738
 4852SOL    HW215978   6.520   4.667   9.261 -0.0702 -0.0035 -0.5826
 4853SOL     OW15979   8.599   9.029   2.452 -0.0534 -0.1479  0.0560
 4853SOL    HW115980   8.515   9.002   2.417  0.6194 -1.0443 -0.9530
 4853SOL    HW215981   8.632   8.952   2.498 -0.2839  0.5681  1.4677
 4854SOL     OW15982   4.382   8.184   1.930 -0.3095 -0.6303 -0.0725
 4854SOL    HW115983   4.440   8.246   1.974 -1.0844 -1.2476  1.9671
 4854SOL    HW215984   4.400   8.100   1.974 -2.4709 -0.8893  0.4327
 4855SOL     OW15985   5.972   5.651   2.172  0.3649 -0.8732  0.4947
 4855SOL    HW115986   5.951   5.582   2.234  1.2322 -0.4259  1.3071
 4855SOL    HW215987   5.919   5.631   2.094  0.5048 -2.3638  0.7659
 4856SOL     OW15988   3.108   3.659   7.859  0.0549  0.1147 -0.1381
 4856SOL    HW115989   3.042   3.694   7.920 -1.2372 -0.8922 -0.8843
 4856SOL    HW215990   3.173   3.619   7.916 -2.3148 -2.9413  0.7298
 4857SOL     OW15991   5.885   8.416   1.804 -0.0150  0.8864  0.3645
 4857SOL    HW115992   5.852   8.443   1.890 -1.0786  1.0991 -0.0893
 4857SOL    HW215993   5.853   8.483   1.744 -3.1053 -1.4546 -0.8779
 4858SOL     OW15994   0.573   7.715   6.407  0.7774  0.2066 -0.2049
 4858SOL    HW115995   0.646   7.728   6.467  1.1538  0.0960 -0.6338
 4858SOL    HW215996   0.597   7.638   6.356 -0.2247 -0.6071  0.5158
 4859SOL     OW15997   5.267   5.316   2.799 -0.4126 -0.1837 -0.0189
 4859SOL    HW115998   5.225   5.392   2.759 -1.8629 -0.6721  0.5295
 4859SOL    HW215999   5.315   5.275   2.727 -0.7681  0.4595 -0.6373
 4860SOL     OW16000   7.238   0.283   2.288 -0.4440 -0.1188 -0.1476
 4860SOL    HW116001   7.148   0.306   2.264 -0.1937  0.7958 -0.2436
 4860SOL    HW216002   7.277   0.366   2.316 -0.0143 -0.7254  1.1349
 4861SOL     OW16003   2.717   8.960   6.490  0.3221  0.3006 -0.3227
 4861SOL    HW116004   2.673   9.033   6.448  0.7034  1.6435  1.4835
 4861SOL    HW216005   2.648   8.913   6.536  0.3323  0.5552 -0.0498
 4862SOL     OW16006   7.112   8.969   3.358 -0.1543 -0.0448 -0.1548
 4862SOL    HW116007   7.104   8.916   3.279 -0.0503 -1.0046  0.4557
 4862SOL    HW216008   7.029   8.956   3.404 -0.1066  0.2769  0.0285
 4863SOL     OW16009   4.707   1.894   3.093  0.5178  0.3955 -0.0478
 4863SOL    HW116010   4.656   1.839   3.153 -0.6871  1.6794  0.1470
 4863SOL    HW216011   4.641   1.943   3.044  1.5340  0.4576 -1.3890
 4864SOL     OW16012   3.635   7.488   3.072 -0.9547  0.0522 -0.3466
 4864SOL    HW116013   3.681   7.477   3.155 -0.7099 -1.2959 -0.6287
 4864SOL    HW216014   3.607   7.579   3.071 -0.2882  0.2843  0.8646
 4865SOL     OW16015   2.529   3.779   4.785 -0.0098 -0.4368  0.1635
 4865SOL    HW116016   2.547   3.688   4.810 -1.4937 -1.0842 -0.9769
 4865SOL    HW216017   2.507   3.774   4.693  0.5134  1.2032 -0.0786
 4866SOL     OW16018   3.411   3.023   4.939  0.4546  0.1568  0.2236
 4866SOL    HW116019   3.466   3.069   4.875  0.0889  4.1509  2.4196
 4866SOL    HW216020   3.322   3.045   4.914  0.2047 -0.2219  0.7663
 4867SOL     OW16021   9.206   2.883   5.719  0.0104  0.2878  0.3076
 4867SOL    HW116022   9.145   2.951   5.691 -1.0803 -1.0838 -0.7839
 4867SOL    HW216023   9.162   2.801   5.698  2.0672 -0.7643 -0.1550
 4868SOL     OW16024   2.686   8.958   0.285  1.0868  0.5497 -0.0543
 4868SOL    HW116025   2.738   8.978   0.207  0.2129  0.0264 -0.7776
 4868SOL    HW216026   2.628   9.033   0.295  0.2254 -0.0121 -0.7379
 4869SOL     OW16027   5.609   1.500   0.361  0.5490  0.3007  0.0251
 4869SOL    HW116028   5.702   1.478   0.370  0.1997 -0.6144  1.7936
 4869SOL    HW216029   5.578   1.508   0.452 -1.1816  0.2329 -0.5376
 4870SOL     OW16030   8.713   6.117   3.170 -0.1553 -0.0260  0.1973
 4870SOL    HW116031   8.725   6.114   3.265 -0.1296  2.0129  0.3125
 4870SOL    HW216032   8.793   6.158   3.138  0.0804 -1.2056 -0.7969
 4871SOL     OW16033   0.524   5.388   9.213 -0.1594 -0.7976  0.0913
 4871SOL    HW116034   0.519   5.293   9.225 -2.6521 -0.3995  3.8815
 4871SOL    HW216035   0.586   5.417   9.281 -0.1968  0.3651 -0.3591
 4872SOL     OW16036   3.325   3.439   8.602  0.5860 -0.2776  0.1609
 4872SOL    HW116037   3.286   3.526   8.597  0.2465 -0.4779 -0.8088
 4872SOL    HW216038   3.370   3.438   8.687  0.7938  0.9212  0.0826
 4873SOL     OW16039   2.403   5.302   9.244 -0.6603 -0.2829 -0.0630
 4873SOL    HW116040   2.412   5.218   9.289 -1.1464 -0.1899  0.2132
 4873SOL    HW216041   2.436   5.367   9.307  1.2899 -0.4105 -0.8950
 4874SOL     OW16042   2.703   1.833   7.480  0.0129 -0.5660  0.3254
 4874SOL    HW116043   2.799   1.837   7.486  0.1584 -2.2789 -0.2708
 4874SOL    HW216044   2.683   1.881   7.399  0.3857 -0.4019  0.3253
 4875SOL     OW16045   1.263   3.173   3.478 -0.5399  0.2850 -0.3073
 4875SOL    HW116046   1.185   3.141   3.432 -1.3762  3.3469 -1.2684
 4875SOL    HW216047   1.325   3.194   3.408  0.4075 -0.2825  0.3418
 4876SOL     OW16048   5.628   8.610   6.260 -0.5084  0.0410  0.1924
 4876SOL    HW116049   5.549   8.614   6.316 -1.1498 -0.7786 -0.6196
 4876SOL    HW216050   5.633   8.696   6.219  0.3890  0.9258  2.0248
 4877SOL     OW16051   3.599   4.877   4.486  0.3548  0.1912 -0.5801
 4877SOL    HW116052   3.663   4.943   4.514  0.5874 -0.6771  1.0115
 4877SOL    HW216053   3.514   4.917   4.503  0.4595 -0.7766  2.7458
 4878SOL     OW16054   0.116   4.585   3.038  0.0815 -0.2574 -0.1121
 4878SOL    HW116055   0.176   4.511   3.034 -0.5344 -0.7315 -0.8334
 4878SOL    HW216056   0.136   4.636   2.959 -0.1767 -0.1909 -0.1341
 4879SOL     OW16057   7.088   7.229   2.867 -0.2485 -1.2150  0.2461
 4879SOL    HW116058   7.082   7.136   2.889  0.3846 -1.5062 -0.7355
 4879SOL    HW216059   7.126   7.230   2.779 -0.3231 -0.0266  0.2140
 4880SOL     OW16060   7.217   2.526   7.992  0.1709 -0.1277  0.5225
 4880SOL    HW116061   7.244   2.579   7.917  1.3864 -2.0754 -0.5150
 4880SOL    HW216062   7.122   2.517   7.982  0.4189 -1.2283 -1.4884
 4881SOL     OW16063   5.827   6.770   0.560  0.1969  0.1862  0.1688
 4881SOL    HW116064   5.783   6.685   0.561 -0.0128  0.2558 -1.2529
 4881SOL    HW216065   5.917   6.751   0.587  0.1045 -0.4512  0.0495
 4882SOL     OW16066   1.683   8.760   8.350  0.2318  0.2803  0.0852
 4882SOL    HW116067   1.655   8.850   8.336  0.8269  0.6016  0.8859
 4882SOL    HW216068   1.603   8.715   8.378 -0.4804  0.1144 -2.0488
 4883SOL     OW16069   7.786   5.480   2.446 -0.8879  0.2346 -0.1711
 4883SOL    HW116070   7.717   5.485   2.512 -1.2018  1.0908 -0.5510
 4883SOL    HW216071   7.769   5.398   2.399  0.7330 -1.6674  2.2961
 4884SOL     OW16072   6.556   2.174   1.386 -0.1633 -0.6684 -0.3747
 4884SOL    HW116073   6.513   2.093   1.412  0.2321 -0.9216 -0.5010
 4884SOL    HW216074   6.566   2.168   1.291 -1.3970  0.1572 -0.5904
 4885SOL     OW16075   5.431   2.655   2.380  0.3265  0.0816 -0.3099
 4885SOL    HW116076   5.488   2.590   2.421  1.2308  0.5110 -0.8379
 4885SOL    HW216077   5.444   2.643   2.286 -2.8297 -1.8822 -0.6402
 4886SOL     OW16078   8.729   7.173   7.085  0.3736  0.0382  0.1856
 4886SOL    HW116079   8.697   7.240   7.025  3.1326  2.1481  0.8989
 4886SOL    HW216080   8.672   7.180   7.162  0.0357  0.8916 -0.1318
 4887SOL     OW16081   3.607   8.614   4.206 -0.3517  0.7683 -0.5432
 4887SOL    HW116082   3.534   8.660   4.165  0.2086  0.9884 -1.3184
 4887SOL    HW216083   3.684   8.663   4.179  0.1516  0.0533 -0.4207
 4888SOL     OW16084   1.554   2.732   7.422 -0.2764  0.5519  0.4320
 4888SOL    HW116085   1.612   2.655   7.426  1.3776  1.6484 -1.2138
 4888SOL    HW216086   1.476   2.701   7.376  0.8350  0.0758 -1.2244
 4889SOL     OW16087   7.830   7.915   1.940 -0.0067  0.5261  0.4511
 4889SOL    HW116088   7.842   7.978   2.011 -2.3197  0.8687  0.6048
 4889SOL    HW216089   7.763   7.953   1.884 -0.0573 -0.9173 -0.5432
 4890SOL     OW16090   6.525   1.219   1.757  0.4406 -0.1052  0.5121
 4890SOL    HW116091   6.467   1.187   1.826 -0.4164 -0.5807 -0.4111
 4890SOL    HW216092   6.559   1.139   1.716  0.3465  0.1727 -0.1077
 4891SOL     OW16093   8.449   0.998   0.331 -0.0683  0.0875 -0.3983
 4891SOL    HW116094   8.410   0.912   0.350  2.4976 -1.3633 -1.1603
 4891SOL    HW216095   8.462   1.037   0.418 -0.8298 -0.4849 -0.0033
 4892SOL     OW16096   5.507   3.335   7.751 -0.1774  0.1997 -0.5074
 4892SOL    HW116097   5.474   3.303   7.667  0.2040  0.2361 -0.6733
 4892SOL    HW216098   5.602   3.337   7.740  0.1952 -2.8831  0.9589
 4893SOL     OW16099   0.676   3.857   8.715  0.3107  0.0773  0.1531
 4893SOL    HW116100   0.637   3.771   8.699  0.8271 -0.5588  2.0099
 4893SOL    HW216101   0.747   3.863   8.652 -2.1453  0.9391 -2.7703
 4894SOL     OW16102   8.751   8.931   0.264 -0.2807 -0.1821 -0.0394
 4894SOL    HW116103   8.680   8.940   0.201 -0.8272 -3.3027 -0.0518
 4894SOL    HW216104   8.821   8.888   0.214  1.0165  1.3244  0.4097
 4895SOL     OW16105   6.697   7.442   4.381  0.6220 -0.2055 -0.4127
 4895SOL    HW116106   6.706   7.347   4.374  2.0717  0.0071 -2.4157
 4895SOL    HW216107   6.751   7.476   4.310 -1.4658  2.0657 -1.0403
 4896SOL     OW16108   3.496   3.683   4.698  0.2055  0.2073  0.1971
 4896SOL    HW116109   3.442   3.761   4.685 -0.3288 -0.3452 -1.1037
 4896SOL    HW216110   3.575   3.699   4.647 -0.5620 -0.6895 -1.3704
 4897SOL     OW16111   3.068   4.710   2.824  0.2268 -0.9769  0.1376
 4897SOL    HW116112   3.097   4.755   2.745 -0.3641 -0.9113 -0.0469
 4897SOL    HW216113   3.065   4.617   2.800 -0.3462 -0.9150 -0.0460
 4898SOL     OW16114   7.953   6.696   9.094 -0.2948 -0.0604 -0.4656
 4898SOL    HW116115   8.015   6.736   9.155 -0.0698 -1.0402 -0.0340
 4898SOL    HW216116   7.881   6.665   9.149 -0.0278 -1.0794 -0.6662
 4899SOL     OW16117   2.508   0.490   3.633  0.2713 -0.2726  0.4087
 4899SOL    HW116118   2.486   0.512   3.724  3.9409  3.3187  0.6942
 4899SOL    HW216119   2.597   0.455   3.639  0.5004 -0.1690 -1.7935
 4900SOL     OW16120   8.553   7.637   7.352 -0.3879  0.1896  0.4355
 4900SOL    HW116121   8.497   7.630   7.275  0.1756 -0.6513  0.0965
 4900SOL    HW216122   8.496   7.614   7.426 -0.9174  0.9600  0.2764
 4901SOL     OW16123   7.877   1.327   0.609  0.4008  0.2870  0.3270
 4901SOL    HW116124   7.910   1.245   0.646  0.4969  0.5201  0.7663
 4901SOL    HW216125   7.833   1.301   0.528  1.8230 -0.0224 -0.3801
 4902SOL     OW16126   7.786   3.745   2.849  0.3322  0.0545 -0.1569
 4902SOL    HW116127   7.860   3.738   2.789  1.9668 -0.5101  1.8132
 4902SOL    HW216128   7.769   3.839   2.853  1.8086  0.3369  0.3094
 4903SOL     OW16129   6.483   0.852   2.459 -0.1816  0.5537 -0.3917
 4903SOL    HW116130   6.521   0.884   2.541 -0.1349  2.3142 -1.0576
 4903SOL    HW216131   6.409   0.799   2.486  0.2112  0.5920  0.8113
 4904SOL     OW16132   0.973   7.598   2.550 -0.4957  0.4685  0.1683
 4904SOL    HW116133   0.913   7.524   2.554 -1.0487  0.9378  1.1299
 4904SOL    HW216134   0.977   7.622   2.458 -2.1116  0.6674  0.1280
 4905SOL     OW16135   0.959   0.563   9.241 -0.0172  0.3394 -0.1935
 4905SOL    HW116136   0.893   0.624   9.274 -0.6811 -0.3266 -0.2656
 4905SOL    HW216137   0.969   0.586   9.149 -0.7298 -0.0465 -0.3803
 4906SOL     OW16138   8.385   0.678   7.201  0.4695  0.1328 -0.1224
 4906SOL    HW116139   8.361   0.597   7.154 -0.1424  1.7242 -2.7793
 4906SOL    HW216140   8.310   0.697   7.257  0.7979 -1.3206  0.8692
 4907SOL     OW16141   6.423   1.100   4.788 -0.3370  0.4784 -0.0746
 4907SOL    HW116142   6.437   1.084   4.695 -2.3870 -0.4944 -0.2731
 4907SOL    HW216143   6.449   1.018   4.831 -0.8130  0.3965  0.0556
 4908SOL     OW16144   4.007   7.920   5.485 -0.5949  0.0471 -0.5052
 4908SOL    HW116145   3.918   7.925   5.521 -0.3769  0.4027 -0.0009
 4908SOL    HW216146   4.045   8.005   5.505  0.0925 -0.3516 -0.0910
 4909SOL     OW16147   4.396   2.280   0.305 -0.6544 -0.0201 -0.4190
 4909SOL    HW116148   4.376   2.226   0.382 -1.0154  0.3155 -0.2733
 4909SOL    HW216149   4.351   2.363   0.321 -0.5971  0.1140 -0.9153
 4910SOL     OW16150   9.004   6.758   7.391 -0.1082  0.0503 -0.4228
 4910SOL    HW116151   8.966   6.746   7.478 -0.1641  0.4251 -0.3960
 4910SOL    HW216152   9.039   6.847   7.391  0.1357 -0.0422 -0.6907
 4911SOL     OW16153   8.111   2.542   7.781 -0.6920 -0.1141  0.4401
 4911SOL    HW116154   8.056   2.500   7.847  0.8382 -1.1048  1.1276
 4911SOL    HW216155   8.078   2.508   7.698 -1.7618  0.1002  0.7523
 4912SOL     OW16156   2.284   8.975   3.889  0.4521  0.4127  0.3012
 4912SOL    HW116157   2.351   9.042   3.902  0.5051  0.3002  0.6147
 4912SOL    HW216158   2.320   8.896   3.930 -0.3906  0.6689  1.5969
 4913SOL     OW16159   4.637   8.248   6.312 -0.5174 -0.3788  0.1311
 4913SOL    HW116160   4.555   8.260   6.265 -1.0753 -2.1252  0.5799
 4913SOL    HW216161   4.705   8.273   6.249 -1.3693  2.5177  0.2289
 4914SOL     OW16162   1.869   7.085   2.533  0.6000  0.1429 -0.2710
 4914SOL    HW116163   1.929   7.083   2.608 -0.0184 -0.4892  0.2304
 4914SOL    HW216164   1.782   7.087   2.573  0.2777  0.8024 -0.9845
 4915SOL     OW16165   0.268   1.525   2.931  0.2837 -0.1316  0.6094
 4915SOL    HW116166   0.256   1.459   2.999  1.2273 -0.5574  0.3883
 4915SOL    HW216167   0.216   1.494   2.857 -0.5219  0.1889  1.0360
 4916SOL     OW16168   0.969   3.618   3.281  0.5451 -0.4271 -0.2824
 4916SOL    HW116169   1.004   3.631   3.369  0.9506 -0.3384 -0.4565
 4916SOL    HW216170   0.906   3.690   3.269  3.3421  2.0185 -1.5411
 4917SOL     OW16171   4.065   4.492   1.002 -0.2447  0.2589 -0.2163
 4917SOL    HW116172   4.021   4.458   1.079 -2.8169 -0.6463 -1.9678
 4917SOL    HW216173   4.001   4.550   0.961  0.4478 -0.4920 -2.4819
 4918SOL     OW16174   6.270   0.421   7.213 -0.3979 -0.8214  0.5027
 4918SOL    HW116175   6.194   0.370   7.188 -0.6770  0.7982 -2.4833
 4918SOL    HW216176   6.234   0.499   7.257 -0.3136 -0.9792  0.8542
 4919SOL     OW16177   0.301   5.275   6.741 -0.5825  0.1659  0.2457
 4919SOL    HW116178   0.287   5.207   6.807  0.0346  0.1937  0.4076
 4919SOL    HW216179   0.395   5.275   6.726 -0.2166  2.5105  1.9039
 4920SOL     OW16180   8.580   1.834   4.468  0.1519  0.3620 -0.4123
 4920SOL    HW116181   8.671   1.807   4.456  0.5501  0.0995  2.4468
 4920SOL    HW216182   8.528   1.764   4.430  1.1345  0.1178 -1.3473
 4921SOL     OW16183   4.971   6.412   6.130  0.0230  0.4364  0.3529
 4921SOL    HW116184   4.997   6.491   6.084  1.9059  0.3415  1.1614
 4921SOL    HW216185   4.879   6.427   6.155 -1.3200  0.2349 -3.7878
 4922SOL     OW16186   5.851   8.637   3.673  0.0256 -0.4667 -0.1790
 4922SOL    HW116187   5.926   8.595   3.631  0.6083 -0.4531  0.8152
 4922SOL    HW216188   5.862   8.618   3.766  0.2331  1.7331  0.3145
 4923SOL     OW16189   2.796   5.449   8.661  0.7550  0.0808  0.1202
 4923SOL    HW116190   2.870   5.394   8.634 -1.0345 -3.7173  2.1410
 4923SOL    HW216191   2.807   5.460   8.755 -0.0813  1.4450  0.0817
 4924SOL     OW16192   2.663   2.747   2.976 -0.3387  0.0802  0.2408
 4924SOL    HW116193   2.696   2.792   3.053  0.6781 -0.1192 -0.0591
 4924SOL    HW216194   2.721   2.773   2.905 -0.1103 -1.1824 -0.0723
 4925SOL     OW16195   2.181   9.201   2.335  0.4206  0.0230  0.0244
 4925SOL    HW116196   2.225   9.190   2.250  1.7514  1.0417  0.5437
 4925SOL    HW216197   2.191   9.116   2.378  1.3158  0.0373 -0.1350
 4926SOL     OW16198   2.542   4.354   1.521  0.1770  0.1634 -0.3959
 4926SOL    HW116199   2.588   4.323   1.443 -2.0984  0.1637 -1.8081
 4926SOL    HW216200   2.524   4.274   1.571 -1.7221 -0.3649 -1.8201
 4927SOL     OW16201   2.629   9.096   3.170 -0.5680 -0.1731  0.1112
 4927SOL    HW116202   2.669   9.169   3.122  0.6966 -0.3027  0.9152
 4927SOL    HW216203   2.654   9.111   3.261  0.1571 -1.8698  0.2255
 4928SOL     OW16204   8.619   5.086   7.099  0.7461  0.0605  0.3819
 4928SOL    HW116205   8.544   5.067   7.156 -0.0386 -2.5460 -1.3325
 4928SOL    HW216206   8.685   5.120   7.159 -0.5387 -1.0995  2.6427
 4929SOL     OW16207   4.400   4.615   8.399 -0.0525 -0.5611  0.2890
 4929SOL    HW116208   4.473   4.646   8.347  1.5132 -0.6093  2.3460
 4929SOL    HW216209   4.355   4.551   8.343  2.6049 -1.9559 -0.3904
 4930SOL     OW16210   8.392   1.763   6.232  0.3018  0.0694  0.2570
 4930SOL    HW116211   8.369   1.840   6.284 -2.2131 -0.2644 -0.1903
 4930SOL    HW216212   8.378   1.790   6.141 -0.7499 -0.8993  0.0995
 4931SOL     OW16213   7.303   4.129   8.924  1.2049 -0.1125  0.2886
 4931SOL    HW116214   7.303   4.057   8.987 -0.6277  0.5672  1.1190
 4931SOL    HW216215   7.395   4.139   8.899  1.7410 -1.4794  1.5960
 4932SOL     OW16216   7.738   7.018   1.269 -0.4980  0.3281  0.1858
 4932SOL    HW116217   7.658   7.011   1.216 -0.2087 -0.9137 -0.1109
 4932SOL    HW216218   7.796   7.075   1.218 -1.1890  1.2703  0.4193
 4933SOL     OW16219   3.705   2.365   2.779  0.2733  0.1758  0.2165
 4933SOL    HW116220   3.660   2.295   2.826 -1.3795 -0.6353 -2.4107
 4933SOL    HW216221   3.796   2.335   2.774 -0.0313 -0.8861  0.7109
 4934SOL     OW16222   1.641   6.656   1.232 -0.5941 -0.2154 -0.2675
 4934SOL    HW116223   1.635   6.735   1.179  0.2933 -0.3489 -0.5899
 4934SOL    HW216224   1.695   6.683   1.307  0.1065 -0.6235 -0.6142
 4935SOL     OW16225   7.316   7.148   0.678  0.1520 -0.7123 -1.0600
 4935SOL    HW116226   7.352   7.201   0.607  0.6186  0.9543  0.3490
 4935SOL    HW216227   7.384   7.084   0.698 -0.1247 -1.4336 -2.2978
 4936SOL     OW16228   2.384   7.672   0.175 -0.8588 -0.0718 -0.0256
 4936SOL    HW116229   2.406   7.580   0.161 -0.3584  0.2524 -1.6434
 4936SOL    HW216230   2.462   7.710   0.214 -0.9496 -0.2733  0.3523
 4937SOL     OW16231   3.159   2.745   4.605  0.4689  0.6838 -0.5456
 4937SOL    HW116232   3.145   2.723   4.697 -1.1433  1.0416 -0.6617
 4937SOL    HW216233   3.127   2.668   4.558  1.2174  0.5341 -0.8168
 4938SOL     OW16234   1.260   8.878   2.400  0.2837 -0.6328  0.0138
 4938SOL    HW116235   1.192   8.936   2.365  0.8621 -0.0975 -0.2554
 4938SOL    HW216236   1.212   8.804   2.437 -0.5680  0.6595  1.6226
 4939SOL     OW16237   5.292   4.585   0.751  0.1172 -0.2198  0.0474
 4939SOL    HW116238   5.198   4.595   0.769 -0.7210 -0.1054 -3.7409
 4939SOL    HW216239   5.300   4.498   0.713  1.5692 -0.1593  0.1598
 4940SOL     OW16240   3.915   3.832   6.705 -0.1466  0.1949 -0.2711
 4940SOL    HW116241   3.835   3.872   6.669 -0.6690  2.2994  2.7762
 4940SOL    HW216242   3.982   3.847   6.639 -1.8696 -0.0038 -2.1381
 4941SOL     OW16243   1.646   3.430   5.248  0.0569  0.5834 -0.0976
 4941SOL    HW116244   1.626   3.500   5.187  1.1631  0.5807 -0.4859
 4941SOL    HW216245   1.639   3.470   5.334  0.3403  1.0742 -0.3021
 4942SOL     OW16246   6.951   4.668   5.787 -0.0373  0.5553 -0.2389
 4942SOL    HW116247   6.893   4.652   5.713  1.0734 -0.2474 -0.9735
 4942SOL    HW216248   6.895   4.660   5.864 -1.0453  0.6009 -0.9569
 4943SOL     OW16249   4.384   6.563   5.539 -0.2134  0.8978  0.4193
 4943SOL    HW116250   4.397   6.468   5.532  1.1757  1.0937 -0.1103
 4943SOL    HW216251   4.293   6.573   5.565  0.1813 -0.6726  2.7269
 4944SOL     OW16252   7.006   3.426   3.662 -0.5255  0.1988 -0.4825
 4944SOL    HW116253   6.984   3.376   3.584 -0.0218  1.0035 -1.1633
 4944SOL    HW216254   6.921   3.443   3.704 -0.7320 -0.8578 -0.4545
 4945SOL     OW16255   2.899   8.917   7.199 -0.0151 -0.5065  0.5726
 4945SOL    HW116256   2.920   8.937   7.108  1.6080  1.2059  1.2630
 4945SOL    HW216257   2.844   8.838   7.194  2.4303 -2.2673 -1.7091
 4946SOL     OW16258   5.250   7.468   1.384 -0.3214  0.2954 -0.1960
 4946SOL    HW116259   5.167   7.515   1.386 -0.3919  0.2127 -0.9750
 4946SOL    HW216260   5.312   7.532   1.348 -0.1660  0.1808 -0.1327
 4947SOL     OW16261   5.849   3.757   5.726  0.3801  0.2722 -0.0250
 4947SOL    HW116262   5.761   3.754   5.763  0.0529  0.4090 -0.7676
 4947SOL    HW216263   5.838   3.802   5.642  0.9192 -0.9447 -0.7652
 4948SOL     OW16264   4.041   2.649   8.881  0.2026 -0.4794  0.0799
 4948SOL    HW116265   4.118   2.664   8.936  0.0983  0.5693 -0.0263
 4948SOL    HW216266   4.006   2.565   8.911 -0.4689  0.5345  2.3869
 4949SOL     OW16267   3.004   1.465   2.813 -0.8108  0.5891  0.0501
 4949SOL    HW116268   3.080   1.485   2.757 -1.9243  1.4091 -1.2253
 4949SOL    HW216269   3.013   1.525   2.887 -0.8626  1.5774 -0.7173
 4950SOL     OW16270   0.250   5.976   8.551 -0.2065  0.4219  0.3915
 4950SOL    HW116271   0.182   5.985   8.484 -1.1322 -0.2684  1.2111
 4950SOL    HW216272   0.216   6.025   8.626 -0.0010 -0.2667  0.9464
 4951SOL     OW16273   1.544   1.624   5.729 -0.1843 -0.1955 -0.5145
 4951SOL    HW116274   1.494   1.578   5.796 -0.4158  0.7364 -0.0321
 4951SOL    HW216275   1.633   1.626   5.763 -0.4038  0.7579  0.0494
 4952SOL     OW16276   5.433   3.339   6.202 -0.2483  0.0625  0.7797
 4952SOL    HW116277   5.503   3.374   6.147 -0.7670 -0.9405 -0.5989
 4952SOL    HW216278   5.467   3.343   6.291  2.7505 -2.8314 -0.0216
 4953SOL     OW16279   7.581   1.980   7.206 -0.0950  0.3137  0.2842
 4953SOL    HW116280   7.610   1.897   7.169  0.6022  1.4104 -1.7934
 4953SOL    HW216281   7.503   2.003   7.155  0.9077  1.8811 -0.6484
 4954SOL     OW16282   7.529   4.638   3.628  0.6471 -0.1936  0.0680
 4954SOL    HW116283   7.580   4.561   3.652  1.1860  0.0860 -0.1781
 4954SOL    HW216284   7.576   4.712   3.666  1.0841  0.1805 -1.1508
 4955SOL     OW16285   7.751   1.881   1.766  0.2854  0.4571  0.9548
 4955SOL    HW116286   7.678   1.841   1.719  1.4025  2.7506 -3.1538
 4955SOL    HW216287   7.709   1.949   1.821 -0.7922  1.6116 -1.1761
 4956SOL     OW16288   8.869   6.306   6.718  0.1401  0.5168 -0.1031
 4956SOL    HW116289   8.871   6.345   6.631  0.5704 -0.8361 -0.7201
 4956SOL    HW216290   8.834   6.376   6.774 -2.0217  0.8237 -1.6731
 4957SOL     OW16291   8.783   7.020   1.983 -0.0304  0.0519  0.2954
 4957SOL    HW116292   8.751   6.944   2.032 -0.4598 -1.1593 -1.7401
 4957SOL    HW216293   8.872   6.996   1.958  0.8449  1.4108  1.8896
 4958SOL     OW16294   5.930   2.831   2.579  0.3139  0.0823 -0.2049
 4958SOL    HW116295   5.912   2.795   2.665  0.2373  0.8182  0.0977
 4958SOL    HW216296   5.880   2.776   2.519 -0.7383  0.3913  0.3568
 4959SOL     OW16297   6.042   7.100   7.399 -0.1518  0.0311 -0.1648
 4959SOL    HW116298   6.050   7.086   7.493 -0.3173  0.7989 -0.0371
 4959SOL    HW216299   5.966   7.156   7.389  1.2118  1.8937 -0.5736
 4960SOL     OW16300   8.050   5.379   2.472  0.5103 -0.2338 -0.6245
 4960SOL    HW116301   7.970   5.394   2.422  1.0234 -0.1854 -1.4575
 4960SOL    HW216302   8.027   5.311   2.535 -0.9187  1.5669  0.9238
 4961SOL     OW16303   6.438   3.805   5.863  0.5412  0.4928  0.0057
 4961SOL    HW116304   6.429   3.848   5.778 -0.0661 -1.5986 -1.0428
 4961SOL    HW216305   6.349   3.802   5.899  0.4821 -0.4170 -0.2091
 4962SOL     OW16306   2.243   7.422   7.663 -0.2221 -0.1881 -0.0217
 4962SOL    HW116307   2.267   7.331   7.649  0.5968 -0.0168  0.2118
 4962SOL    HW216308   2.199   7.423   7.748 -1.7264 -0.6101 -0.7513
 4963SOL     OW16309   7.764   6.399   1.682 -0.0131  0.6361 -0.7222
 4963SOL    HW116310   7.748   6.459   1.755 -0.3404  0.8311 -0.9514
 4963SOL    HW216311   7.678   6.366   1.658 -0.0691  1.4529 -1.7641
 4964SOL     OW16312   6.167   6.207   4.307 -0.1139  0.4650 -0.1724
 4964SOL    HW116313   6.109   6.281   4.289 -0.0202  0.7523  0.6452
 4964SOL    HW216314   6.108   6.139   4.341  0.0648  0.9358  1.1544
 4965SOL     OW16315   0.929   0.784   7.277  0.5576 -0.2448 -0.7363
 4965SOL    HW116316   0.840   0.751   7.266 -0.0280  0.2376  1.9572
 4965SOL    HW216317   0.958   0.747   7.361  1.0475  3.3797  0.8708
 4966SOL     OW16318   2.353   7.420   6.086  0.5092  0.6134 -0.2240
 4966SOL    HW116319   2.353   7.451   5.995  0.7859 -0.6330 -0.6722
 4966SOL    HW216320   2.261   7.424   6.112  0.5010  1.5114 -0.3593
 4967SOL     OW16321   5.352   6.425   4.640 -0.5215 -0.5679  0.3593
 4967SOL    HW116322   5.440   6.458   4.660 -1.2536  1.2065  0.9178
 4967SOL    HW216323   5.365   6.362   4.570  1.2637 -0.8476  0.8861
 4968SOL     OW16324   7.679   2.185   4.695  0.0527  0.3690 -0.1548
 4968SOL    HW116325   7.655   2.253   4.633  1.4849  3.1902  2.1523
 4968SOL    HW216326   7.602   2.176   4.751 -0.0189  0.3330 -0.2585
 4969SOL     OW16327   3.541   1.850   7.204 -0.4349  0.3798  0.2790
 4969SOL    HW116328   3.634   1.870   7.215  0.2074 -1.6307 -0.9155
 4969SOL    HW216329   3.496   1.931   7.228  1.5719  1.2159  1.4794
 4970SOL     OW16330   0.681   1.264   0.986  0.3403 -0.4007 -0.1718
 4970SOL    HW116331   0.680   1.247   0.891  0.5326 -0.1012 -0.2253
 4970SOL    HW216332   0.591   1.247   1.013  0.3586 -0.8143 -0.3497
 4971SOL     OW16333   0.261   2.168   5.290  0.7412  0.1238  0.5659
 4971SOL    HW116334   0.276   2.260   5.316  0.1799 -0.2476  2.3849
 4971SOL    HW216335   0.349   2.132   5.278  0.9622  1.2963 -1.8691
 4972SOL     OW16336   0.548   4.980   6.893  0.1747  0.1512 -0.2066
 4972SOL    HW116337   0.453   4.976   6.901  0.0392 -0.3903 -1.7336
 4972SOL    HW216338   0.564   5.017   6.806  1.3660  0.1831 -0.0024
 4973SOL     OW16339   8.542   3.442   5.629  0.6204 -0.3022  0.1820
 4973SOL    HW116340   8.508   3.442   5.539  0.9223 -1.4119  0.0539
 4973SOL    HW216341   8.482   3.499   5.677 -0.0183 -0.3374 -0.5545
 4974SOL     OW16342   6.486   7.251   3.112 -0.4017  0.0232  0.4637
 4974SOL    HW116343   6.467   7.274   3.021  1.8743  1.4779  0.2591
 4974SOL    HW216344   6.561   7.191   3.106 -0.6108 -0.3399  1.3564
 4975SOL     OW16345   7.758   3.947   6.640 -0.2977 -0.2937 -0.0644
 4975SOL    HW116346   7.736   4.011   6.708 -0.5464  0.5982 -0.9740
 4975SOL    HW216347   7.681   3.890   6.635 -0.3803 -0.2107  0.2165
 4976SOL     OW16348   0.845   4.441   4.235 -0.0915 -0.0007 -0.1657
 4976SOL    HW116349   0.894   4.369   4.195 -1.2302 -0.1408 -1.3342
 4976SOL    HW216350   0.902   4.517   4.225  1.7219 -0.8926  2.2394
 4977SOL     OW16351   0.420   0.497   0.543 -0.3992  0.3528  0.3055
 4977SOL    HW116352   0.501   0.482   0.495 -1.0974  2.0119 -1.5207
 4977SOL    HW216353   0.351   0.470   0.482 -1.2790  1.4759  0.7710
 4978SOL     OW16354   2.733   3.624   0.767 -0.2435  0.1839 -0.5364
 4978SOL    HW116355   2.691   3.656   0.688 -0.7627 -0.2504 -0.4403
 4978SOL    HW216356   2.815   3.584   0.737  0.0401  0.9077 -0.7386
 4979SOL     OW16357   1.477   7.366   2.572 -0.4874 -0.1651 -0.2400
 4979SOL    HW116358   1.393   7.392   2.611  0.2719  0.6871  0.8908
 4979SOL    HW216359   1.474   7.270   2.571 -1.2588 -0.1545  0.2788
 4980SOL     OW16360   2.782   3.943   0.677  0.0143  0.6242 -0.0476
 4980SOL    HW116361   2.739   3.870   0.634 -1.5106  2.1699 -1.2954
 4980SOL    HW216362   2.757   3.935   0.769 -2.1733  0.8823 -0.5714
 4981SOL     OW16363   8.952   3.246   4.880 -0.2023  0.2182 -0.2054
 4981SOL    HW116364   8.985   3.297   4.953  0.7884  0.1731 -0.6022
 4981SOL    HW216365   8.912   3.169   4.921  2.2824 -0.9284  0.2627
 4982SOL     OW16366   2.662   7.146   6.430  0.7171  0.1154 -0.0557
 4982SOL    HW116367   2.732   7.095   6.390  0.6597  0.2002 -0.2653
 4982SOL    HW216368   2.672   7.131   6.524  0.3201 -0.7628 -0.1523
 4983SOL     OW16369   4.599   0.591   6.621  0.1019 -0.1768 -0.1106
 4983SOL    HW116370   4.569   0.568   6.533 -0.4720 -1.8608  0.4671
 4983SOL    HW216371   4.633   0.508   6.656 -0.8908  0.1290  1.6991
 4984SOL     OW16372   8.593   2.111   5.127 -0.1165  0.4505 -0.0937
 4984SOL    HW116373   8.587   2.170   5.052 -0.0769 -0.3323 -0.7160
 4984SOL    HW216374   8.504   2.076   5.138  0.0523 -0.0463 -0.2784
 4985SOL     OW16375   5.052   4.453   7.214  0.3642 -0.0528  0.2836
 4985SOL    HW116376   4.969   4.447   7.263  0.8545 -0.5870  1.0705
 4985SOL    HW216377   5.033   4.515   7.144 -0.9627 -0.7962 -0.0618
 4986SOL     OW16378   2.471   9.225   2.546  0.4646  0.4514  0.2273
 4986SOL    HW116379   2.503   9.185   2.627  0.1456 -0.0380  0.1188
 4986SOL    HW216380   2.520   9.307   2.539  0.8954  0.2375  0.6272
 4987SOL     OW16381   5.065   7.096   8.657 -0.0045  0.4200 -0.1794
 4987SOL    HW116382   5.022   7.045   8.589 -0.0113 -1.6116  1.2437
 4987SOL    HW216383   5.122   7.033   8.701  1.1945  2.0420  0.6877
 4988SOL     OW16384   4.419   0.020   3.248 -0.3973 -0.0360 -0.3306
 4988SOL    HW116385   4.393   0.112   3.243 -2.0898 -0.4815 -0.4000
 4988SOL    HW216386   4.472   0.014   3.328  0.2370  1.0975 -0.6524
 4989SOL     OW16387   0.515   3.234   8.807 -0.4520 -0.5689 -0.4135
 4989SOL    HW116388   0.512   3.243   8.712 -0.2107  1.0435 -0.3034
 4989SOL    HW216389   0.432   3.272   8.837  0.4054  0.9532  0.1176
 4990SOL     OW16390   1.742   5.809   0.469 -0.8845  0.3252  0.0899
 4990SOL    HW116391   1.693   5.874   0.419  1.0677 -0.3583 -3.0121
 4990SOL    HW216392   1.812   5.859   0.512 -0.9932  0.5960 -0.0465
 4991SOL     OW16393   4.840   1.590   7.809 -0.3826  0.2570 -0.6774
 4991SOL    HW116394   4.753   1.562   7.780  0.3748 -0.7501 -2.1161
 4991SOL    HW216395   4.864   1.660   7.749  0.0285  0.1210 -0.6769
 4992SOL     OW16396   5.307   9.021   2.262  0.5908 -0.0645 -0.4064
 4992SOL    HW116397   5.260   8.996   2.342 -1.1559  0.9897 -1.0563
 4992SOL    HW216398   5.340   8.938   2.228 -0.8012 -0.8740  0.1034
 4993SOL     OW16399   1.582   1.567   5.310 -0.0778 -0.0848  0.0216
 4993SOL    HW116400   1.626   1.524   5.237 -0.3843 -0.0976 -0.1563
 4993SOL    HW216401   1.653   1.605   5.361  0.2655 -1.3459  0.5403
 4994SOL     OW16402   4.795   1.124   1.734 -0.5903  0.1956  0.1467
 4994SOL    HW116403   4.732   1.093   1.670 -0.0802  1.7061 -1.1446
 4994SOL    HW216404   4.799   1.219   1.721  3.0046  0.0723 -0.8960
 4995SOL     OW16405   7.410   7.574   8.711 -0.3270 -0.8404 -0.3769
 4995SOL    HW116406   7.441   7.659   8.741 -0.5083 -0.5906 -0.8801
 4995SOL    HW216407   7.481   7.540   8.657  0.4332 -1.7526  1.1310
 4996SOL     OW16408   8.814   6.094   4.309  0.7342  0.2898  0.3548
 4996SOL    HW116409   8.860   6.054   4.383 -0.2083  0.7045  1.1838
 4996SOL    HW216410   8.883   6.141   4.261  1.4019 -0.1931  0.8084
 4997SOL     OW16411   3.323   7.850   4.675 -0.1437  0.2057  0.0240
 4997SOL    HW116412   3.249   7.832   4.617  0.0742  0.9416 -0.4985
 4997SOL    HW216413   3.392   7.882   4.617  0.5507 -0.3487  0.5190
 4998SOL     OW16414   3.066   5.398   6.008 -0.3493  0.1199  0.2854
 4998SOL    HW116415   3.113   5.319   6.036  0.1100  1.0633  2.4051
 4998SOL    HW216416   3.115   5.430   5.932 -0.1699 -1.2528 -0.2054
 4999SOL     OW16417   2.162   7.393   4.962 -0.0619  0.4363  0.1028
 4999SOL    HW116418   2.067   7.397   4.949  0.0542  0.3852 -0.8289
 4999SOL    HW216419   2.181   7.465   5.022 -0.8777 -0.4940  1.5156
 5000SOL     OW16420   7.034   5.850   1.395  0.5785 -0.4409  0.5133
 5000SOL    HW116421   6.952   5.807   1.371  0.8345 -0.5716 -0.1573
 5000SOL    HW216422   7.013   5.944   1.393  0.1228 -0.5109  1.5856
 5001SOL     OW16423   2.698   1.343   8.249 -0.3879  0.3250  0.2038
 5001SOL    HW116424   2.633   1.305   8.191  0.5800 -0.3251 -0.4782
 5001SOL    HW216425   2.648   1.404   8.304 -1.7270 -0.8868  0.3774
 5002SOL     OW16426   3.887   3.320   3.656 -0.6687 -0.1572 -0.0861
 5002SOL    HW116427   3.935   3.238   3.665 -0.8648 -0.2875 -0.2058
 5002SOL    HW216428   3.898   3.344   3.564  0.4641  0.6268  0.2317
 5003SOL     OW16429   4.450   8.405   0.264 -0.4315  0.0925 -0.0420
 5003SOL    HW116430   4.458   8.492   0.225 -0.3888  0.5894  1.0491
 5003SOL    HW216431   4.469   8.418   0.357  1.8904 -1.4706 -0.2076
 5004SOL     OW16432   8.669   5.162   0.855 -0.0291 -0.7653  0.0344
 5004SOL    HW116433   8.709   5.238   0.898 -0.7335 -0.6136  0.4453
 5004SOL    HW216434   8.631   5.198   0.774 -1.4370 -0.4051  0.8163
 5005SOL     OW16435   7.134   7.774   2.526  0.1508 -0.0884  0.0592
 5005SOL    HW116436   7.154   7.777   2.619 -0.1150 -2.6200  0.2908
 5005SOL    HW216437   7.202   7.718   2.488 -1.9548 -2.5642 -0.4520
 5006SOL     OW16438   0.362   4.982   8.796  0.0782 -0.4793  0.2487
 5006SOL    HW116439   0.393   4.975   8.706  0.6847  0.1874  0.4018
 5006SOL    HW216440   0.331   5.072   8.804  0.2666 -0.4580  0.7776
 5007SOL     OW16441   8.199   6.056   1.152  0.1332 -0.2028  0.0780
 5007SOL    HW116442   8.115   6.032   1.190 -0.4397  0.8236 -0.4762
 5007SOL    HW216443   8.262   6.047   1.223 -0.5641 -0.3368  0.6870
 5008SOL     OW16444   8.658   4.685   5.145  0.4669  0.1628  0.3344
 5008SOL    HW116445   8.591   4.626   5.111  0.7286 -0.4654  0.9036
 5008SOL    HW216446   8.626   4.772   5.121 -0.4512 -0.1365  0.4009
 5009SOL     OW16447   1.141   6.445   1.981 -0.1881 -0.1096  0.2819
 5009SOL    HW116448   1.045   6.438   1.983 -0.1607 -0.9777 -0.6453
 5009SOL    HW216449   1.161   6.491   1.900  0.1782  0.2318  0.5620
 5010SOL     OW16450   3.511   3.590   4.952 -0.2339  0.3673  0.0808
 5010SOL    HW116451   3.502   3.583   4.857  1.2170  0.2206 -0.0649
 5010SOL    HW216452   3.476   3.677   4.973 -0.9399  0.2384 -0.5176
 5011SOL     OW16453   8.783   0.106   5.307  0.4445 -0.6336 -0.1083
 5011SOL    HW116454   8.691   0.093   5.329  0.3329 -0.6598 -0.5799
 5011SOL    HW216455   8.827   0.025   5.334  0.3264 -0.6318  0.0899
 5012SOL     OW16456   3.030   5.018   4.055 -0.1549 -0.2950 -1.0652
 5012SOL    HW116457   2.969   5.001   3.983  1.7444 -1.5280 -2.4902
 5012SOL    HW216458   3.112   5.040   4.011  1.0673 -1.0549  0.7329
 5013SOL     OW16459   0.965   1.663   7.824  0.2261 -0.4892  0.3203
 5013SOL    HW116460   0.915   1.632   7.900  0.0976  0.5116  0.6599
 5013SOL    HW216461   0.906   1.725   7.780  0.9587  0.3101  0.4326
 5014SOL     OW16462   8.338   6.178   8.575 -0.2589  0.1789  0.4113
 5014SOL    HW116463   8.328   6.119   8.649 -2.8920  0.1361  0.1132
 5014SOL    HW216464   8.306   6.129   8.500  0.4509  0.9275 -0.4088
 5015SOL     OW16465   5.539   4.562   0.939  0.0515 -0.6071  0.2824
 5015SOL    HW116466   5.473   4.614   0.984 -1.0246  0.4044 -2.2540
 5015SOL    HW216467   5.499   4.540   0.855  3.0002  0.3394 -1.5509
 5016SOL     OW16468   5.073   3.918   2.575 -0.3543 -0.8712  0.1732
 5016SOL    HW116469   5.103   3.828   2.584  0.7328 -0.5471 -0.0241
 5016SOL    HW216470   5.135   3.959   2.515  1.2825  0.8914  2.8372
 5017SOL     OW16471   6.387   0.958   4.209  0.0645 -0.2072  0.0228
 5017SOL    HW116472   6.428   1.043   4.222 -0.8927 -0.0866  3.3277
 5017SOL    HW216473   6.448   0.896   4.251 -0.9172 -0.6025  0.9228
 5018SOL     OW16474   5.601   1.727   1.302  0.1299 -0.1536  0.4699
 5018SOL    HW116475   5.600   1.807   1.249  2.6303 -0.4649 -0.2149
 5018SOL    HW216476   5.612   1.656   1.238  2.6769 -0.5781  1.2669
 5019SOL     OW16477   2.113   4.798   5.668  0.5625  0.5511 -0.3152
 5019SOL    HW116478   2.053   4.863   5.706  1.1423  0.5826  0.5695
 5019SOL    HW216479   2.070   4.714   5.683 -0.0787  0.6931 -1.2526
 5020SOL     OW16480   6.695   3.765   1.982  0.3944  0.1727 -0.2883
 5020SOL    HW116481   6.655   3.679   1.966  0.6134  0.0867 -0.3809
 5020SOL    HW216482   6.778   3.761   1.935 -0.2538  0.9763 -1.5469
 5021SOL     OW16483   5.402   3.772   4.026 -0.0368 -0.2299  0.4377
 5021SOL    HW116484   5.401   3.737   3.937 -2.8310  1.9262 -0.5449
 5021SOL    HW216485   5.495   3.784   4.046  0.7186  0.9500 -2.9989
 5022SOL     OW16486   6.870   7.139   5.087 -0.3755 -0.4521 -0.0574
 5022SOL    HW116487   6.823   7.219   5.109 -0.2217  0.1304 -1.6888
 5022SOL    HW216488   6.852   7.079   5.159 -0.6602  0.9758  1.0969
 5023SOL     OW16489   1.389   8.191   5.813  0.7320 -0.3717 -0.2996
 5023SOL    HW116490   1.328   8.164   5.882  1.6071 -0.1376  0.5848
 5023SOL    HW216491   1.334   8.237   5.749  0.2632  1.7883  1.5455
 5024SOL     OW16492   8.606   4.559   0.029 -0.3457 -0.1724 -0.5088
 5024SOL    HW116493   8.674   4.506   0.071  0.5082  1.4434  0.2329
 5024SOL    HW216494   8.529   4.546   0.085 -0.0164 -0.2735 -0.0686
 5025SOL     OW16495   4.201   7.007   4.652  0.3017  0.8056 -0.3785
 5025SOL    HW116496   4.229   7.043   4.737 -0.0690  1.6951 -0.6228
 5025SOL    HW216497   4.107   6.993   4.662  0.5099 -0.5815 -0.1290
 5026SOL     OW16498   6.620   5.053   1.392 -0.3821  0.1259  0.5586
 5026SOL    HW116499   6.684   5.070   1.461 -1.0198 -1.4982  1.6292
 5026SOL    HW216500   6.535   5.067   1.434 -0.8513 -2.5883  0.7316
 5027SOL     OW16501   1.926   1.922   2.661  0.0901 -0.0228  0.3978
 5027SOL    HW116502   1.856   1.889   2.605 -0.8779  1.2715  0.7945
 5027SOL    HW216503   1.987   1.848   2.669 -0.3954 -0.6500 -1.2718
 5028SOL     OW16504   7.578   7.554   7.698 -0.3409  0.2365  0.0319
 5028SOL    HW116505   7.665   7.592   7.688 -0.2170 -0.1991 -0.6396
 5028SOL    HW216506   7.578   7.478   7.640 -1.6834  1.1070 -1.1667
 5029SOL     OW16507   8.856   8.267   1.261  0.0673 -0.5405  0.0322
 5029SOL    HW116508   8.922   8.279   1.329  0.8161 -0.6720 -0.6612
 5029SOL    HW216509   8.889   8.196   1.207 -1.2999 -1.5425  0.4514
 5030SOL     OW16510   6.419   0.538   0.948 -0.8405  0.1153 -0.2776
 5030SOL    HW116511   6.500   0.500   0.981 -1.8239  0.4169  2.8904
 5030SOL    HW216512   6.447   0.609   0.890  1.1093 -0.8212 -0.5607
 5031SOL     OW16513   8.631   5.558   8.785 -0.6298  0.0344 -0.1939
 5031SOL    HW116514   8.541   5.564   8.754 -0.3027 -2.3808 -1.9242
 5031SOL    HW216515   8.628   5.492   8.854 -0.0939 -0.7440 -0.8915
 5032SOL     OW16516   0.394   8.581   1.522 -0.4138 -0.1743 -0.3460
 5032SOL    HW116517   0.449   8.619   1.590 -0.5253 -1.8640  0.7512
 5032SOL    HW216518   0.456   8.550   1.456 -0.0949 -0.8656  0.2524
 5033SOL     OW16519   4.778   2.881   3.751 -0.0118 -0.4182  0.1004
 5033SOL    HW116520   4.852   2.848   3.700  0.4021  0.4383  0.1155
 5033SOL    HW216521   4.801   2.862   3.842  0.9237  1.1578  0.2347
 5034SOL     OW16522   7.232   3.419   6.602 -0.0180  0.0570 -0.0550
 5034SOL    HW116523   7.252   3.452   6.690  0.3154  0.2126 -0.1852
 5034SOL    HW216524   7.198   3.495   6.555 -2.3289 -0.5057  0.5707
 5035SOL     OW16525   5.031   4.609   0.805  0.2347  0.0528 -0.2482
 5035SOL    HW116526   4.966   4.539   0.803 -2.7228  2.5153  0.7439
 5035SOL    HW216527   5.022   4.648   0.892  0.4126  2.7418 -1.3381
 5036SOL     OW16528   2.838   8.727   8.288 -0.1309 -0.1521 -0.5263
 5036SOL    HW116529   2.814   8.800   8.230 -0.4594 -0.0251 -0.2329
 5036SOL    HW216530   2.780   8.656   8.262 -1.0204  0.2324  0.3512
 5037SOL     OW16531   6.358   3.995   2.850 -0.4823  0.0468 -0.5252
 5037SOL    HW116532   6.298   3.929   2.815 -0.3124  0.3263 -1.3740
 5037SOL    HW216533   6.442   3.951   2.854 -0.1796  0.4344 -1.9153
 5038SOL     OW16534   5.297   0.618   0.251  0.0371  0.1559 -0.5976
 5038SOL    HW116535   5.225   0.555   0.255 -0.3334  0.3469 -3.0066
 5038SOL    HW216536   5.288   0.670   0.331 -1.5967 -0.7649 -0.1465
 5039SOL     OW16537   4.617   2.263   4.832  0.2330 -0.3683  0.3323
 5039SOL    HW116538   4.579   2.333   4.778  0.8554  0.1951  0.6169
 5039SOL    HW216539   4.710   2.283   4.835  0.3935 -1.1260  0.5590
 5040SOL     OW16540   8.357   4.753   8.158 -0.7445 -0.4560 -0.2471
 5040SOL    HW116541   8.322   4.677   8.204 -0.0975 -0.9429 -0.5430
 5040SOL    HW216542   8.367   4.725   8.067 -3.3305  0.9287 -1.0744
 5041SOL     OW16543   1.054   4.643   4.236  0.9389  0.5490 -0.4710
 5041SOL    HW116544   1.109   4.579   4.282  1.3313  1.5693  0.5325
 5041SOL    HW216545   1.110   4.676   4.166  0.6073 -0.4551 -1.2281
 5042SOL     OW16546   4.451   8.182   3.034  0.3012 -0.1711 -0.1324
 5042SOL    HW116547   4.402   8.100   3.024  0.3335 -0.1550 -0.4282
 5042SOL    HW216548   4.399   8.233   3.096 -0.4387  0.1359 -0.9774
 5043SOL     OW16549   9.081   3.471   2.869  0.3109  0.1918  0.2174
 5043SOL    HW116550   9.032   3.547   2.838 -0.6936 -0.7823 -0.6933
 5043SOL    HW216551   9.161   3.470   2.817 -0.5319 -0.3939 -1.1235
 5044SOL     OW16552   3.244   5.129   5.772  0.2305  0.0970  0.7498
 5044SOL    HW116553   3.260   5.097   5.683 -1.2647 -2.9746  1.4671
 5044SOL    HW216554   3.330   5.124   5.814  0.9355  1.4653 -0.4105
 5045SOL     OW16555   5.368   8.076   5.569  0.0390 -0.0306 -0.4602
 5045SOL    HW116556   5.377   7.981   5.573 -0.1265 -0.0120  0.7984
 5045SOL    HW216557   5.450   8.110   5.605 -0.1374  0.2909 -0.3558
 5046SOL     OW16558   6.565   5.025   2.435  0.0722  0.6294 -0.3555
 5046SOL    HW116559   6.485   4.975   2.452  0.4612 -0.1941 -0.8540
 5046SOL    HW216560   6.570   5.087   2.507 -0.1033 -0.4752  0.6462
 5047SOL     OW16561   1.225   4.630   0.428  0.2223  0.3753 -0.2657
 5047SOL    HW116562   1.234   4.723   0.449 -0.0616  0.4100 -0.2908
 5047SOL    HW216563   1.210   4.587   0.512  0.9841  0.2711 -0.1829
 5048SOL     OW16564   7.446   3.664   3.428 -0.4439 -0.4803 -0.0496
 5048SOL    HW116565   7.388   3.707   3.365 -0.9162 -2.3164 -0.9362
 5048SOL    HW216566   7.387   3.626   3.493 -0.1412 -1.0438 -0.0968
 5049SOL     OW16567   6.461   3.109   5.776 -0.7703 -0.8380  0.1038
 5049SOL    HW116568   6.420   3.188   5.739  2.4314  0.4145 -1.1577
 5049SOL    HW216569   6.448   3.042   5.709  1.5994  0.3624 -1.6999
 5050SOL     OW16570   8.511   2.273   4.281  0.0724  0.1442  0.1032
 5050SOL    HW116571   8.446   2.304   4.344  0.1130 -0.9104  0.6888
 5050SOL    HW216572   8.542   2.352   4.237 -0.7178  0.7850  0.6766
 5051SOL     OW16573   5.354   1.109   2.493  0.3446 -0.7730  0.1124
 5051SOL    HW116574   5.282   1.111   2.430 -0.2661  0.0125  0.8063
 5051SOL    HW216575   5.332   1.177   2.556  0.6883 -1.8297  1.4348
 5052SOL     OW16576   2.811   7.080   7.423  0.0439  0.1913  0.5426
 5052SOL    HW116577   2.774   7.101   7.338 -0.1093 -1.5048  0.1557
 5052SOL    HW216578   2.780   7.150   7.481 -2.8504 -0.5449  0.0093
 5053SOL     OW16579   5.685   6.229   6.002  0.2895  0.2316  0.1221
 5053SOL    HW116580   5.661   6.140   5.974 -1.5951  0.1977  1.6442
 5053SOL    HW216581   5.675   6.282   5.922 -0.9816 -0.5286 -0.2609
 5054SOL     OW16582   5.816   3.345   4.506 -0.8977  0.4597 -0.3007
 5054SOL    HW116583   5.864   3.354   4.588 -3.8176 -0.6133  1.7046
 5054SOL    HW216584   5.871   3.289   4.452  1.7131  2.2476  0.3083
 5055SOL     OW16585   4.371   4.584   2.873  0.0072 -0.7763  0.2180
 5055SOL    HW116586   4.318   4.560   2.798 -1.2539  0.0056  0.8265
 5055SOL    HW216587   4.368   4.680   2.875 -2.0160 -0.7998  2.6284
 5056SOL     OW16588   6.949   4.161   5.086  0.4838 -0.5380 -0.1679
 5056SOL    HW116589   7.037   4.181   5.119  0.2003  0.0065  0.2899
 5056SOL    HW216590   6.948   4.066   5.077 -0.0988 -1.0436  3.5523
 5057SOL     OW16591   2.211   2.127   2.161  0.2422  0.1862  0.0072
 5057SOL    HW116592   2.214   2.038   2.126  0.0079 -0.2852  1.1482
 5057SOL    HW216593   2.242   2.119   2.251  0.8942  1.3775 -0.0847
 5058SOL     OW16594   4.055   2.528   3.563 -0.4815 -0.1085  0.2548
 5058SOL    HW116595   4.025   2.537   3.473  0.5013  1.6414  0.0443
 5058SOL    HW216596   4.054   2.434   3.580 -2.1788 -0.3723 -1.0396
 5059SOL     OW16597   3.671   2.612   4.001 -0.2774  0.0582 -0.4476
 5059SOL    HW116598   3.761   2.626   3.970  0.7589 -0.4310  2.0335
 5059SOL    HW216599   3.657   2.517   3.991  0.2263 -0.1735  0.8684
 5060SOL     OW16600   0.437   1.659   9.086 -0.2470  0.0534 -0.2546
 5060SOL    HW116601   0.464   1.721   9.154 -0.7024 -0.8892  0.7997
 5060SOL    HW216602   0.343   1.648   9.100 -0.4612  0.2823 -1.4146
 5061SOL     OW16603   0.955   4.389   4.911 -0.7272 -0.2189 -0.7459
 5061SOL    HW116604   0.890   4.436   4.859 -1.8566 -1.1160 -0.1913
 5061SOL    HW216605   0.956   4.436   4.995  0.4747  0.7130 -1.2561
 5062SOL     OW16606   6.426   0.361   2.648 -0.4868 -0.1225 -0.0145
 5062SOL    HW116607   6.500   0.420   2.634 -0.0996 -0.5565  0.1511
 5062SOL    HW216608   6.349   0.416   2.642 -0.2392  0.1186 -1.6594
 5063SOL     OW16609   0.562   8.958   5.199  0.2536 -0.1550  0.3222
 5063SOL    HW116610   0.592   8.915   5.119  1.6578 -0.3217  0.9083
 5063SOL    HW216611   0.528   9.042   5.169  1.0598 -0.0791 -0.4349
 5064SOL     OW16612   7.553   0.792   6.523  0.1148  0.4288  0.6611
 5064SOL    HW116613   7.477   0.826   6.476 -0.3425 -1.8777 -0.4281
 5064SOL    HW216614   7.625   0.798   6.460  0.1694 -0.0210  0.6766
 5065SOL     OW16615   2.153   2.304   6.030  0.5594  0.1305 -0.2351
 5065SOL    HW116616   2.226   2.366   6.032 -0.1068  0.9496  2.3392
 5065SOL    HW216617   2.190   2.222   6.063  0.2284  0.7174  1.6799
 5066SOL     OW16618   5.989   3.695   3.184  0.1141 -0.3309  0.5809
 5066SOL    HW116619   5.993   3.752   3.107  0.9358 -1.9886 -0.6623
 5066SOL    HW216620   6.080   3.690   3.215 -0.2609  0.5940  1.9023
 5067SOL     OW16621   0.146   3.334   4.023 -0.6803 -0.0061 -0.1915
 5067SOL    HW116622   0.118   3.417   3.985 -2.5276  0.0405  1.1491
 5067SOL    HW216623   0.241   3.344   4.036 -0.3178  0.7322 -2.7313
 5068SOL     OW16624   0.613   6.551   1.852 -0.2839  0.0681 -0.4110
 5068SOL    HW116625   0.573   6.638   1.863 -0.0128  0.3537 -1.6248
 5068SOL    HW216626   0.610   6.534   1.758  2.8181  0.2907 -0.6356
 5069SOL     OW16627   8.560   5.779   7.042  1.0419  0.3465  0.4033
 5069SOL    HW116628   8.547   5.685   7.038  1.2145  0.1498  2.8659
 5069SOL    HW216629   8.471   5.816   7.036  0.9016 -0.0117  0.2764
 5070SOL     OW16630   0.423   3.799   7.154 -0.2284  0.0661  0.5210
 5070SOL    HW116631   0.433   3.768   7.064  0.8072  0.3178  0.5398
 5070SOL    HW216632   0.426   3.719   7.208  0.7873  0.0438  0.4469
 5071SOL     OW16633   6.899   3.677   6.154  0.1193  1.1753 -0.4474
 5071SOL    HW116634   6.904   3.587   6.185 -0.9936  1.3042  0.1629
 5071SOL    HW216635   6.917   3.730   6.232 -1.6213  1.4872 -0.2168
 5072SOL     OW16636   7.589   8.595   5.103 -0.3471 -0.3133  0.2897
 5072SOL    HW116637   7.588   8.686   5.134 -1.1166 -0.2470  0.0919
 5072SOL    HW216638   7.679   8.581   5.072 -0.7517  1.0530 -1.6603
 5073SOL     OW16639   0.012   2.177   5.880  0.6692 -0.2012  0.1418
 5073SOL    HW116640  -0.053   2.161   5.948 -1.0567  0.8677 -1.1763
 5073SOL    HW216641   0.038   2.090   5.851  0.6045 -0.6549  1.3628
 5074SOL     OW16642   5.698   4.897   6.089 -0.0455  0.0160 -0.6954
 5074SOL    HW116643   5.787   4.903   6.122  0.4187  1.9782 -2.1272
 5074SOL    HW216644   5.692   4.809   6.051  0.3288 -1.1815  1.7850
 5075SOL     OW16645   1.530   7.286   6.200 -0.0718 -0.4911 -0.8429
 5075SOL    HW116646   1.450   7.252   6.240  1.2925 -2.3996  0.4019
 5075SOL    HW216647   1.515   7.279   6.105 -1.4917 -0.4798 -0.6324
 5076SOL     OW16648   5.464   4.711   9.182 -0.3558 -0.5300  0.2702
 5076SOL    HW116649   5.477   4.805   9.197 -0.2194 -0.4074 -0.5630
 5076SOL    HW216650   5.546   4.682   9.142 -1.3646 -0.4231 -2.0252
 5077SOL     OW16651   3.580   2.084   2.298 -0.1750 -0.0669  1.0325
 5077SOL    HW116652   3.650   2.081   2.232  0.0006 -0.8565  1.2404
 5077SOL    HW216653   3.599   2.010   2.355 -2.3433 -1.6281 -0.1263
 5078SOL     OW16654   0.829   6.197   8.262  0.8359 -0.6022 -1.1433
 5078SOL    HW116655   0.881   6.228   8.188  1.8794  1.0698  0.2099
 5078SOL    HW216656   0.790   6.276   8.299  0.3701 -1.3809  0.1185
 5079SOL     OW16657   5.587   8.852   0.534  0.1771 -0.3202 -0.2398
 5079SOL    HW116658   5.663   8.802   0.565  2.2392  1.2003 -2.4758
 5079SOL    HW216659   5.613   8.944   0.542 -2.0415  0.3486  0.2246
 5080SOL     OW16660   3.778   0.087   5.684  0.0099 -0.0712 -0.0849
 5080SOL    HW116661   3.686   0.079   5.709 -0.2074 -1.1185 -1.1394
 5080SOL    HW216662   3.811  -0.003   5.688  0.4695  0.0107 -1.5963
 5081SOL     OW16663   6.249   4.168   4.784  0.1746 -0.2535  0.0691
 5081SOL    HW116664   6.172   4.221   4.805  1.2404  0.5120  2.3137
 5081SOL    HW216665   6.213   4.087   4.749 -1.5768  0.8933 -0.9650
 5082SOL     OW16666   0.341   9.071   5.758 -0.7118 -0.0181 -0.0170
 5082SOL    HW116667   0.328   8.994   5.703 -2.2756  1.3501 -1.6785
 5082SOL    HW216668   0.262   9.075   5.813 -0.3709  0.1102  0.4742
 5083SOL     OW16669   6.756   7.452   6.928  0.3514 -0.5419  0.2120
 5083SOL    HW116670   6.725   7.471   7.016  1.8741 -0.1917  0.6958
 5083SOL    HW216671   6.676   7.430   6.879 -0.8824  1.9637  0.9310
 5084SOL     OW16672   7.197   3.077   1.688  0.3309  0.0048 -0.4454
 5084SOL    HW116673   7.269   3.014   1.689 -0.0843 -0.4759  0.4100
 5084SOL    HW216674   7.131   3.039   1.746 -0.1619  0.9594 -0.3593
 5085SOL     OW16675   2.150   8.701   3.978 -0.4229 -0.4131  0.1565
 5085SOL    HW116676   2.125   8.720   3.888  0.4919  0.2543  0.0295
 5085SOL    HW216677   2.092   8.756   4.031 -2.2871 -2.1971  0.1108
 5086SOL     OW16678   6.206   1.682   1.348 -0.4751  0.3972 -1.1883
 5086SOL    HW116679   6.170   1.765   1.378  1.1462  0.2711  1.3568
 5086SOL    HW216680   6.195   1.622   1.421  1.2509 -0.7346 -1.7865
 5087SOL     OW16681   6.451   9.169   6.479  0.3296 -0.8145 -0.1816
 5087SOL    HW116682   6.511   9.176   6.405  0.9342 -1.6808  0.2179
 5087SOL    HW216683   6.376   9.121   6.444 -0.5589  0.9765 -0.9088
 5088SOL     OW16684   0.038   9.072   5.091 -0.2525  0.5049 -0.2410
 5088SOL    HW116685   0.033   9.050   5.184 -0.1727 -0.3427 -0.4227
 5088SOL    HW216686   0.121   9.034   5.062 -0.7325 -0.1018 -0.8650
 5089SOL     OW16687   5.674   1.473   5.280 -0.0694  0.4968  0.4736
 5089SOL    HW116688   5.602   1.460   5.218 -0.2600  0.0136  0.7979
 5089SOL    HW216689   5.753   1.463   5.226 -0.2365  0.3096  0.2616
 5090SOL     OW16690   8.644   0.279   8.163 -0.2273  0.0171  0.5662
 5090SOL    HW116691   8.549   0.284   8.156 -0.1773 -0.4280 -0.6139
 5090SOL    HW216692   8.660   0.209   8.227 -0.6951  0.0252  0.6921
 5091SOL     OW16693   1.733   6.447   3.156  0.6200 -0.2162  0.2653
 5091SOL    HW116694   1.761   6.359   3.183 -2.6395 -0.2886  4.5812
 5091SOL    HW216695   1.757   6.503   3.230 -0.8196  1.7275 -0.6517
 5092SOL     OW16696   2.565   3.393   3.151 -0.0176 -0.0035 -0.7687
 5092SOL    HW116697   2.507   3.380   3.077 -0.2498 -0.8590 -0.4409
 5092SOL    HW216698   2.534   3.332   3.218  0.8235  0.0262 -0.3372
 5093SOL     OW16699   0.101   3.914   0.731  0.6440  0.7771 -0.4906
 5093SOL    HW116700   0.164   3.849   0.703 -0.5166 -1.8112  2.2706
 5093SOL    HW216701   0.021   3.894   0.682 -0.0798 -0.8648  1.2143
 5094SOL     OW16702   4.057   7.055   3.013  0.4933 -0.2588  0.0901
 5094SOL    HW116703   4.043   7.098   3.097  0.0007  0.0082 -0.1221
 5094SOL    HW216704   4.110   7.117   2.962  1.1001 -0.5753  0.3240
 5095SOL     OW16705   6.653   4.570   3.915  0.0025 -0.3818 -0.1960
 5095SOL    HW116706   6.735   4.543   3.872 -0.0467  1.1060 -1.3111
 5095SOL    HW216707   6.650   4.518   3.995  1.2584 -1.5993 -0.8937
 5096SOL     OW16708   3.478   3.395   7.819  0.0745  0.4231 -0.2847
 5096SOL    HW116709   3.467   3.490   7.817  0.5911  0.4889 -0.2961
 5096SOL    HW216710   3.573   3.382   7.820  0.0285 -0.0600  1.4264
 5097SOL     OW16711   4.320   4.045   0.894 -0.2804  0.1731  0.1298
 5097SOL    HW116712   4.274   4.129   0.892  0.8772  0.9621  2.7311
 5097SOL    HW216713   4.270   3.992   0.955 -0.9334 -1.0642 -1.4020
 5098SOL     OW16714   5.734   8.891   3.638 -0.0043 -0.0226  0.0958
 5098SOL    HW116715   5.780   8.811   3.665 -2.1096 -1.5641 -0.6352
 5098SOL    HW216716   5.787   8.925   3.565  0.1661 -1.5879 -0.5642
 5099SOL     OW16717   0.580   7.047   8.093 -0.0962  0.3213  0.2703
 5099SOL    HW116718   0.510   7.031   8.030 -0.4496  1.3837  0.3598
 5099SOL    HW216719   0.534   7.058   8.177  0.2527  0.1825  0.4806
 5100SOL     OW16720   0.468   8.035   5.333  0.3367 -0.1070  0.0495
 5100SOL    HW116721   0.499   8.119   5.300  0.2977  0.1660  0.6990
 5100SOL    HW216722   0.377   8.051   5.359  0.3342 -0.3475  0.1947
 5101SOL     OW16723   8.416   1.691   4.741  0.2698 -0.4505  0.5337
 5101SOL    HW116724   8.444   1.746   4.668  1.5973  0.2299  1.5296
 5101SOL    HW216725   8.399   1.606   4.701 -2.8258  0.8010 -1.2384
 5102SOL     OW16726   9.216   1.083   3.128  0.4080 -0.5896 -0.3833
 5102SOL    HW116727   9.139   1.076   3.185 -0.0410 -0.0148 -0.9046
 5102SOL    HW216728   9.291   1.074   3.187 -0.0372  0.4749  0.3809
 5103SOL     OW16729   8.353   3.215   9.182  0.4880  0.6512  0.5553
 5103SOL    HW116730   8.284   3.158   9.216  1.2104 -0.9941 -0.6447
 5103SOL    HW216731   8.336   3.300   9.223 -1.2184 -0.1530  1.6051
 5104SOL     OW16732   4.588   8.713   1.244 -0.0642 -0.1548  0.2628
 5104SOL    HW116733   4.660   8.678   1.297 -0.6693  0.6961  1.7014
 5104SOL    HW216734   4.536   8.636   1.221 -0.4081 -0.4307  1.8775
 5105SOL     OW16735   2.188   2.235   1.731 -0.3660 -0.1139 -0.2074
 5105SOL    HW116736   2.178   2.313   1.785  1.9637  0.9064 -1.1003
 5105SOL    HW216737   2.195   2.268   1.641  0.1464 -1.3732 -0.6664
 5106SOL     OW16738   3.124   5.696   6.020  0.2694  0.1328  0.1690
 5106SOL    HW116739   3.110   5.602   6.030 -1.0978  0.4900  2.2971
 5106SOL    HW216740   3.152   5.707   5.929  1.8649 -2.4597  0.2641
 5107SOL     OW16741   8.988   1.504   3.671  0.1972  0.6859 -0.4072
 5107SOL    HW116742   8.961   1.548   3.751 -0.3689  0.1982 -0.3311
 5107SOL    HW216743   9.084   1.513   3.670  0.2698  0.1842  0.6251
 5108SOL     OW16744   2.219   2.658   6.119  0.0514 -0.6636  0.3009
 5108SOL    HW116745   2.152   2.625   6.178  0.7399  0.0799  1.5439
 5108SOL    HW216746   2.267   2.580   6.090 -0.0587 -1.0042  1.0242
 5109SOL     OW16747   3.333   6.113   5.665 -0.1887  0.6776 -0.5786
 5109SOL    HW116748   3.276   6.061   5.607 -2.2280  1.5767  0.5007
 5109SOL    HW216749   3.417   6.068   5.662 -1.5654 -2.1766 -0.4386
 5110SOL     OW16750   5.258   6.874   2.036  0.3239  0.0710  0.5714
 5110SOL    HW116751   5.209   6.932   2.095  1.0431 -0.6138  1.8631
 5110SOL    HW216752   5.218   6.889   1.950  0.2403  2.2176  0.9208
 5111SOL     OW16753   4.189   7.562   3.313 -0.1980  0.1859  0.4578
 5111SOL    HW116754   4.168   7.548   3.405 -0.5985 -1.3515  0.1496
 5111SOL    HW216755   4.217   7.477   3.281 -0.3763  0.6185 -0.9351
 5112SOL     OW16756   6.012   2.013   1.891 -1.1628 -0.2667  0.5337
 5112SOL    HW116757   6.021   2.023   1.986  0.4947  1.5714  0.2587
 5112SOL    HW216758   5.951   2.082   1.866 -0.9763 -0.2363  0.1649
 5113SOL     OW16759   6.847   9.128   9.198 -0.2664 -0.2526 -0.0173
 5113SOL    HW116760   6.822   9.196   9.135 -2.3750  0.1072  1.1147
 5113SOL    HW216761   6.943   9.130   9.198 -0.2161  0.4975 -2.3539
 5114SOL     OW16762   1.241   3.231   6.251 -0.4112  0.1991  0.7155
 5114SOL    HW116763   1.187   3.297   6.294  1.7982  0.7089  2.9553
 5114SOL    HW216764   1.204   3.147   6.281 -0.7222  0.5029  1.2012
 5115SOL     OW16765   8.291   2.687   0.426  0.0803  0.7922 -0.1519
 5115SOL    HW116766   8.321   2.640   0.348 -0.4192 -1.4100  0.9348
 5115SOL    HW216767   8.196   2.687   0.419  0.0664  2.0678 -0.3213
 5116SOL     OW16768   1.292   8.098   1.719 -0.2057  0.0549 -0.7331
 5116SOL    HW116769   1.382   8.122   1.743  0.2541 -0.0975 -2.1961
 5116SOL    HW216770   1.301   8.050   1.637 -1.4715 -1.6385  0.0664
 5117SOL     OW16771   4.224   7.357   7.681 -0.2161 -0.0970 -0.0321
 5117SOL    HW116772   4.180   7.272   7.678 -2.9360  1.2222 -1.4021
 5117SOL    HW216773   4.186   7.402   7.756 -0.4923  0.7098 -0.6378
 5118SOL     OW16774   6.494   4.660   5.414  0.2615 -0.5425  0.1714
 5118SOL    HW116775   6.581   4.679   5.378 -0.4114  3.1678  0.1114
 5118SOL    HW216776   6.493   4.565   5.424  4.1931 -0.7936 -0.0946
 5119SOL     OW16777   4.466   1.269   0.757 -0.6557 -0.5599 -0.5620
 5119SOL    HW116778   4.382   1.224   0.746 -0.2715 -1.0185 -1.8971
 5119SOL    HW216779   4.450   1.358   0.728 -1.0446 -0.2167  0.6528
 5120SOL     OW16780   6.043   6.820   5.820  0.5315 -0.3532  0.1538
 5120SOL    HW116781   6.011   6.817   5.730  0.5152 -0.0866  0.1499
 5120SOL    HW216782   6.137   6.837   5.811  1.3324 -3.9873  0.0417
 5121SOL     OW16783   4.715   2.014   8.766 -0.0442 -0.1297 -0.5508
 5121SOL    HW116784   4.779   1.947   8.742  0.4667 -0.1380  0.7789
 5121SOL    HW216785   4.639   1.965   8.796  0.6462 -0.1560  1.2568
 5122SOL     OW16786   1.380   0.164   7.545 -0.4379  0.5442  0.0137
 5122SOL    HW116787   1.294   0.128   7.568 -0.0524 -2.7191 -2.8185
 5122SOL    HW216788   1.440   0.123   7.607 -0.3702 -1.6077 -1.3776
 5123SOL     OW16789   1.891   5.747   3.341 -1.0046 -0.0323 -0.4358
 5123SOL    HW116790   1.857   5.831   3.307 -0.9988  0.4283  0.6678
 5123SOL    HW216791   1.876   5.685   3.269 -1.3780  0.8235 -1.1226
 5124SOL     OW16792   3.573   4.744   0.416 -0.1894  0.3938  0.1293
 5124SOL    HW116793   3.611   4.769   0.500  0.3501 -1.2844  0.4074
 5124SOL    HW216794   3.479   4.743   0.431 -0.0528 -0.9628  1.0469
 5125SOL     OW16795   6.200   6.504   5.600  0.3252  0.0683  0.0341
 5125SOL    HW116796   6.128   6.560   5.570 -1.2021 -1.4705  0.6668
 5125SOL    HW216797   6.273   6.524   5.540 -0.1817  2.6073  0.1963
 5126SOL     OW16798   5.786   8.409   7.410 -0.4930  0.0834  0.3667
 5126SOL    HW116799   5.837   8.389   7.332 -2.2011  1.8939 -1.3064
 5126SOL    HW216800   5.753   8.324   7.439 -1.8423 -0.4452 -2.3856
 5127SOL     OW16801   5.965   6.860   4.090  0.2954  0.2216  0.1317
 5127SOL    HW116802   6.054   6.875   4.121  1.6620 -0.3378 -3.1160
 5127SOL    HW216803   5.961   6.765   4.075 -1.0292  0.1810  0.5756
 5128SOL     OW16804   8.423   2.245   4.710  0.1446  0.4442  0.1441
 5128SOL    HW116805   8.330   2.257   4.692 -0.2673  0.9287  2.3539
 5128SOL    HW216806   8.432   2.260   4.804  2.3142 -0.4899  0.1532
 5129SOL     OW16807   9.044   5.509   4.547 -0.6916  0.6292  0.1762
 5129SOL    HW116808   9.051   5.415   4.530 -0.7045  0.6441  0.0912
 5129SOL    HW216809   9.125   5.531   4.593 -1.6601  0.1128  2.2851
 5130SOL     OW16810   8.392   8.161   6.968  0.1987 -0.3083  0.0674
 5130SOL    HW116811   8.298   8.145   6.966  0.2066 -0.3487  0.0227
 5130SOL    HW216812   8.427   8.096   7.029  0.6227 -2.5215 -2.3411
 5131SOL     OW16813   3.865   7.007   8.160 -0.0014 -0.5777 -0.1301
 5131SOL    HW116814   3.956   7.023   8.133 -0.4517  1.9029 -0.4154
 5131SOL    HW216815   3.836   7.090   8.198 -2.1988 -1.2670 -0.1536
 5132SOL     OW16816   3.618   6.818   0.121  0.0897 -0.5462 -0.3062
 5132SOL    HW116817   3.691   6.863   0.163 -0.4252  0.6512 -0.6476
 5132SOL    HW216818   3.648   6.727   0.110  1.4971 -0.0840 -0.4185
 5133SOL     OW16819   3.674   0.569   4.178  0.0437  0.3925 -0.0048
 5133SOL    HW116820   3.638   0.615   4.102  1.6886  0.1193 -0.9883
 5133SOL    HW216821   3.666   0.476   4.157 -1.2834  0.2305  1.0434
 5134SOL     OW16822   1.780   4.163   2.733  0.5418 -0.5282  0.9729
 5134SOL    HW116823   1.866   4.125   2.749  0.8730 -0.2471 -0.0042
 5134SOL    HW216824   1.785   4.195   2.642 -0.6708 -0.7179  0.8210
 5135SOL     OW16825   9.041   8.303   1.507  0.0710 -0.2071  0.3634
 5135SOL    HW116826   9.123   8.324   1.552 -0.4310  0.2684  1.0729
 5135SOL    HW216827   9.019   8.383   1.459 -0.1843 -0.1977  0.4952
 5136SOL     OW16828   1.361   2.092   2.522  0.1990  0.3177  0.1853
 5136SOL    HW116829   1.432   2.155   2.531  0.9212 -0.3536 -0.5785
 5136SOL    HW216830   1.405   2.009   2.502 -0.6499 -0.7013  2.2772
 5137SOL     OW16831   9.167   4.125   2.043  0.1070 -0.0303  0.4353
 5137SOL    HW116832   9.211   4.041   2.055  0.8363 -0.1700 -2.4352
 5137SOL    HW216833   9.104   4.110   1.973  0.1284  1.7732 -0.0247
 5138SOL     OW16834   7.260   3.042   9.211  0.1039 -0.6388 -0.2794
 5138SOL    HW116835   7.248   2.947   9.210 -0.3443 -0.7177  2.7912
 5138SOL    HW216836   7.171   3.077   9.209  0.1374 -0.4179  1.2485
 5139SOL     OW16837   7.588   1.311   3.207 -0.3653 -0.4495 -0.0081
 5139SOL    HW116838   7.494   1.322   3.222 -0.3147  0.8149 -0.4932
 5139SOL    HW216839   7.596   1.220   3.178 -1.2867 -0.9028  1.0559
 5140SOL     OW16840   4.314   0.229   2.691  0.1670 -0.1779 -1.2487
 5140SOL    HW116841   4.360   0.295   2.743  1.3659 -0.0485 -2.3963
 5140SOL    HW216842   4.253   0.280   2.637 -0.0521 -0.1651 -0.9867
 5141SOL     OW16843   8.181   7.201   8.815 -0.1581 -0.4253 -0.0119
 5141SOL    HW116844   8.224   7.232   8.894 -1.1590  0.0943  0.3467
 5141SOL    HW216845   8.247   7.210   8.746  0.5018 -0.2451  0.6284
 5142SOL     OW16846   4.179   6.509   5.830 -0.0660 -0.2087 -0.7260
 5142SOL    HW116847   4.207   6.574   5.894 -0.4207 -1.1215  0.3780
 5142SOL    HW216848   4.245   6.440   5.835 -1.9633 -2.0279  1.3750
 5143SOL     OW16849   3.957   0.993   2.711 -0.4610  0.6048 -0.1325
 5143SOL    HW116850   3.884   1.053   2.726 -0.2425  1.0623 -0.8552
 5143SOL    HW216851   4.026   1.048   2.674  1.0648  0.6145  2.5201
 5144SOL     OW16852   7.265   1.290   6.928 -0.2269  0.0045  0.4367
 5144SOL    HW116853   7.330   1.293   6.998 -1.1213  0.6008  1.2680
 5144SOL    HW216854   7.301   1.344   6.858 -0.7686  2.1268  1.7329
 5145SOL     OW16855   6.480   4.837   6.693 -0.1862  0.2942  0.1040
 5145SOL    HW116856   6.519   4.793   6.617 -1.2858  0.8814 -0.8202
 5145SOL    HW216857   6.526   4.921   6.699 -2.2665  1.7021 -1.9736
 5146SOL     OW16858   0.174   5.061   3.444  0.1821 -0.1502 -0.2797
 5146SOL    HW116859   0.100   5.015   3.404 -1.6274  2.7548 -0.5777
 5146SOL    HW216860   0.134   5.123   3.505  2.4155  1.1210  0.0122
 5147SOL     OW16861   2.159   4.514   0.899  0.7460  0.7329  0.5050
 5147SOL    HW116862   2.167   4.603   0.933  0.6997  1.3188 -0.9412
 5147SOL    HW216863   2.212   4.514   0.819 -1.8510  0.4554 -1.3276
 5148SOL     OW16864   3.230   7.439   0.191  0.1538 -0.3614  0.2538
 5148SOL    HW116865   3.213   7.518   0.140  0.5465  0.3211  1.1439
 5148SOL    HW216866   3.325   7.428   0.187  0.5250  1.0983  2.7432
 5149SOL     OW16867   0.963   9.162   3.113 -0.3880 -0.0822  0.3987
 5149SOL    HW116868   1.055   9.138   3.108  0.2248  2.3269 -1.8449
 5149SOL    HW216869   0.918   9.080   3.134  2.1863 -1.3935  1.1715
 5150SOL     OW16870   5.169   7.298   9.002  0.2142 -0.1188 -0.1525
 5150SOL    HW116871   5.179   7.221   9.058 -1.3151 -0.5971 -0.4932
 5150SOL    HW216872   5.133   7.366   9.060  2.6441  0.7756  0.4382
 5151SOL     OW16873   5.190   0.715   0.750  0.0434 -0.3596 -0.3480
 5151SOL    HW116874   5.160   0.656   0.819 -1.0665 -0.5391 -0.9747
 5151SOL    HW216875   5.180   0.802   0.788  1.8500 -0.5194  0.6480
 5152SOL     OW16876   0.590   5.093   0.302 -0.0999 -0.3952 -0.2723
 5152SOL    HW116877   0.546   5.026   0.356  0.2706  0.3105  0.9563
 5152SOL    HW216878   0.680   5.094   0.335 -0.6041  2.2012  1.2994
 5153SOL     OW16879   0.263   5.017   8.162 -0.1100 -0.0457  0.1874
 5153SOL    HW116880   0.184   5.071   8.164  0.4231  0.7480  1.8507
 5153SOL    HW216881   0.236   4.937   8.118 -1.2033  1.1384 -1.4273
 5154SOL     OW16882   0.391   6.827   2.803  0.0665 -0.0959 -0.0131
 5154SOL    HW116883   0.439   6.746   2.817  0.9702  0.3639 -0.3394
 5154SOL    HW216884   0.413   6.853   2.713 -0.1556  0.5417  0.1072
 5155SOL     OW16885   7.501   9.213   7.428  0.3016 -0.1617  0.5884
 5155SOL    HW116886   7.473   9.169   7.348  0.3517  2.2106 -0.8078
 5155SOL    HW216887   7.543   9.294   7.399  0.8121  0.5461  3.0000
 5156SOL     OW16888   7.352   5.762   0.047  0.1152 -0.3812 -0.1226
 5156SOL    HW116889   7.287   5.832   0.042  0.2979 -0.2265 -0.3335
 5156SOL    HW216890   7.390   5.771   0.134  0.1941 -0.1698 -0.1799
 5157SOL     OW16891   2.910   8.916   6.675  0.2455  0.2344  0.2265
 5157SOL    HW116892   2.913   8.823   6.654  0.0449  0.4730 -0.9726
 5157SOL    HW216893   2.861   8.955   6.602 -0.3570  1.1690  1.1015
 5158SOL     OW16894   1.032   5.449   1.868 -0.0570 -0.0157 -0.3425
 5158SOL    HW116895   1.013   5.468   1.776  1.8166  0.3622 -0.6899
 5158SOL    HW216896   0.947   5.425   1.905 -0.9157  0.1470 -2.0816
 5159SOL     OW16897   2.135   1.422   1.455 -0.1393  0.8108  0.2448
 5159SOL    HW116898   2.151   1.477   1.531  0.9211 -0.3543  0.9079
 5159SOL    HW216899   2.214   1.431   1.402 -0.8350  1.5431 -0.6999
 5160SOL     OW16900   2.016   6.219   9.021  0.5241  0.0429  0.1613
 5160SOL    HW116901   2.081   6.282   8.991 -0.4120  0.7339 -0.4673
 5160SOL    HW216902   2.066   6.140   9.039  1.4047  0.2054 -1.3956
 5161SOL     OW16903   1.046   1.757   3.384 -0.6110 -0.2662  0.0733
 5161SOL    HW116904   0.954   1.753   3.413 -0.5015 -2.4706  0.3097
 5161SOL    HW216905   1.096   1.742   3.464 -0.1797 -2.0525 -0.4812
 5162SOL     OW16906   4.782   8.809   2.083 -0.4209 -0.5757 -0.1686
 5162SOL    HW116907   4.733   8.891   2.091  0.8960  0.5278 -2.5272
 5162SOL    HW216908   4.811   8.790   2.172 -0.5717  1.6443  0.4088
 5163SOL     OW16909   8.828   5.796   0.869 -0.0964 -0.2663  0.6236
 5163SOL    HW116910   8.914   5.828   0.899 -0.2001 -0.4098  1.0875
 5163SOL    HW216911   8.767   5.865   0.894 -0.1181 -0.1572  0.2761
 5164SOL     OW16912   1.722   6.380   1.252  0.1516 -0.1261  0.4372
 5164SOL    HW116913   1.814   6.386   1.228 -0.4794 -1.3499 -2.9405
 5164SOL    HW216914   1.687   6.468   1.235  0.4101 -0.0704  0.1848
 5165SOL     OW16915   7.956   2.328   3.289 -0.1536  0.2637 -0.1910
 5165SOL    HW116916   7.933   2.419   3.306  0.9363  0.2793  1.4126
 5165SOL    HW216917   7.872   2.283   3.280 -0.8179  0.9360  1.9909
 5166SOL     OW16918   4.130   2.595   2.514  0.4543  0.2413 -0.2650
 5166SOL    HW116919   4.080   2.632   2.586 -1.0790 -0.3784 -0.9543
 5166SOL    HW216920   4.131   2.501   2.532  0.4533  0.1346 -0.8162
 5167SOL     OW16921   5.774   0.699   5.224  0.2641  0.0743  0.5468
 5167SOL    HW116922   5.847   0.760   5.223  1.0902 -0.8754  1.5442
 5167SOL    HW216923   5.814   0.613   5.213 -0.8596 -0.3466 -0.5524
 5168SOL     OW16924   1.850   1.645   4.117  0.3323  0.0587  0.0935
 5168SOL    HW116925   1.800   1.726   4.124  0.8394  0.4684 -0.9194
 5168SOL    HW216926   1.895   1.638   4.202 -0.2822  0.4409  0.4610
 5169SOL     OW16927   3.567   2.268   0.560  0.1890  0.0772 -0.3025
 5169SOL    HW116928   3.526   2.341   0.513  0.3918  2.0182  2.2796
 5169SOL    HW216929   3.494   2.216   0.593 -0.1580  1.3254  1.0100
 5170SOL     OW16930   1.347   8.290   2.046  0.0657  0.1676  0.1780
 5170SOL    HW116931   1.364   8.197   2.055  1.2196  0.0883 -2.0776
 5170SOL    HW216932   1.296   8.297   1.965 -1.3242  1.3967  1.1036
 5171SOL     OW16933   5.917   1.059   3.691 -0.6541 -0.0704 -0.0401
 5171SOL    HW116934   5.846   1.070   3.753 -1.0859 -0.2273 -0.5013
 5171SOL    HW216935   5.881   1.002   3.623  0.0602 -0.5486 -0.0392
 5172SOL     OW16936   1.285   0.908   6.812 -0.2932  0.7469  0.3246
 5172SOL    HW116937   1.213   0.937   6.756  0.1800  0.1845 -0.6001
 5172SOL    HW216938   1.272   0.955   6.894 -0.0947  2.8761 -0.7922
 5173SOL     OW16939   4.795   7.272   3.480  0.0094  0.3844  0.0053
 5173SOL    HW116940   4.759   7.201   3.428  0.4706  1.3962 -1.7808
 5173SOL    HW216941   4.890   7.257   3.480 -0.0924 -0.7359  2.3581
 5174SOL     OW16942   6.098   7.097   2.975 -0.3428  0.4351 -0.3993
 5174SOL    HW116943   6.172   7.060   3.024  0.0520  0.5461 -0.8968
 5174SOL    HW216944   6.024   7.091   3.035  0.0236  0.1211  0.0316
 5175SOL     OW16945   7.573   8.368   0.733 -0.4618  0.6912  0.4190
 5175SOL    HW116946   7.651   8.414   0.765 -0.9950  1.1328  1.1207
 5175SOL    HW216947   7.528   8.432   0.678 -1.5033  1.2344  1.8584
 5176SOL     OW16948   7.060   5.249   4.359  0.1450  0.4575  0.6732
 5176SOL    HW116949   7.007   5.317   4.317  0.4043  0.5108  0.4288
 5176SOL    HW216950   7.150   5.268   4.332 -0.0103 -1.3994 -1.3854
 5177SOL     OW16951   8.545   3.307   8.676 -0.2678 -0.1575  0.3053
 5177SOL    HW116952   8.592   3.288   8.757  0.4365 -1.0834 -0.3002
 5177SOL    HW216953   8.491   3.384   8.697  3.6743  2.9470  0.2908
 5178SOL     OW16954   3.239   8.830   6.059  0.3088 -0.2713  0.2279
 5178SOL    HW116955   3.273   8.766   6.122 -2.3088 -1.2083  0.7825
 5178SOL    HW216956   3.158   8.862   6.098 -0.2532  0.7554 -1.6679
 5179SOL     OW16957   1.613   2.417   6.540 -0.5242  0.1745 -0.3190
 5179SOL    HW116958   1.644   2.333   6.574 -0.3582 -0.4431 -1.8828
 5179SOL    HW216959   1.630   2.412   6.446 -2.2115  1.2065 -0.7296
 5180SOL     OW16960   1.534   3.861   0.004  0.1955 -0.1396 -0.1532
 5180SOL    HW116961   1.546   3.952  -0.022  0.9086 -0.3121 -0.4599
 5180SOL    HW216962   1.479   3.823  -0.064 -1.5985  0.4944  0.9029
 5181SOL     OW16963   0.887   2.016   4.918  0.0027  0.3020  0.9192
 5181SOL    HW116964   0.852   2.067   4.845  0.9041 -1.7257 -1.0462
 5181SOL    HW216965   0.825   1.944   4.928  1.4180 -1.1105  0.0528
 5182SOL     OW16966   4.780   7.019   3.810  0.6219 -0.0707 -0.3684
 5182SOL    HW116967   4.777   7.111   3.787  0.9067 -0.2214 -1.0125
 5182SOL    HW216968   4.731   6.975   3.741  1.2359 -0.4967 -0.5361
 5183SOL     OW16969   2.844   7.320   3.953 -0.6683  0.6565 -0.8586
 5183SOL    HW116970   2.850   7.308   3.859  0.0548 -1.8467 -0.5443
 5183SOL    HW216971   2.903   7.394   3.971  1.6105 -0.7301 -2.0758
 5184SOL     OW16972   5.168   3.834   7.064 -0.2841  0.1815 -0.6500
 5184SOL    HW116973   5.150   3.855   7.156  3.0297  0.7864 -0.0309
 5184SOL    HW216974   5.082   3.839   7.022 -1.7361  1.1622  2.1308
 5185SOL     OW16975   3.967   0.368   8.969 -0.1746  0.2123 -0.4944
 5185SOL    HW116976   4.017   0.413   8.900 -0.7237  1.0345 -0.3570
 5185SOL    HW216977   3.931   0.291   8.924 -1.1344  1.1222 -1.3354
 5186SOL     OW16978   8.789   4.056   3.953 -0.2062  0.5157 -0.0326
 5186SOL    HW116979   8.858   4.056   3.887  0.5519  1.7054  0.7019
 5186SOL    HW216980   8.736   4.133   3.933 -1.3834 -0.4290 -0.6268
 5187SOL     OW16981   0.754   3.445   6.504 -0.0896  0.1065  0.4337
 5187SOL    HW116982   0.702   3.462   6.583 -0.7602  1.3036 -0.2320
 5187SOL    HW216983   0.782   3.532   6.475  0.2271 -0.3289 -0.6075
 5188SOL     OW16984   6.385   0.753   1.704  0.7153  0.0372 -0.9560
 5188SOL    HW116985   6.398   0.766   1.798  3.1292  0.6564 -1.3152
 5188SOL    HW216986   6.300   0.710   1.697  1.1146 -1.3177  1.5962
 5189SOL     OW16987   5.445   7.795   2.957  0.4846 -0.5643 -0.2285
 5189SOL    HW116988   5.407   7.820   2.872 -0.1792 -1.1365 -0.1100
 5189SOL    HW216989   5.537   7.775   2.937  0.7083  0.6818 -0.5494
 5190SOL     OW16990   4.306   3.373   7.590  0.1708  0.1248  0.0110
 5190SOL    HW116991   4.336   3.290   7.553 -1.3310 -0.3813 -0.1466
 5190SOL    HW216992   4.218   3.355   7.623  0.5009  1.2071  1.6170
 5191SOL     OW16993   0.088   1.027   0.722  0.0161  0.8749 -0.3385
 5191SOL    HW116994   0.115   0.936   0.706  0.9387  1.0923 -0.0832
 5191SOL    HW216995   0.149   1.079   0.670 -0.1836  1.3762 -0.0780
 5192SOL     OW16996   8.414   9.188   6.879  0.2314  0.4129  0.1862
 5192SOL    HW116997   8.373   9.154   6.799  2.2157 -1.1896 -0.2274
 5192SOL    HW216998   8.461   9.266   6.850  0.8337 -0.0871 -0.2054
 5193SOL     OW16999   5.062   3.598   8.699  0.5058  0.2907  0.2168
 5193SOL    HW117000   5.041   3.514   8.740  0.6990  0.2099  0.1537
 5193SOL    HW217001   5.118   3.642   8.763 -0.1014  0.6344  0.5181
 5194SOL     OW17002   8.666   7.097   9.117 -0.7798  0.0772  0.3319
 5194SOL    HW117003   8.752   7.139   9.113 -1.1951  0.9782  0.5128
 5194SOL    HW217004   8.658   7.051   9.033 -0.7583  1.2983 -0.3707
 5195SOL     OW17005   4.504   2.702   5.668  0.0955 -0.3521 -0.1311
 5195SOL    HW117006   4.521   2.757   5.592  0.5689  0.9266  0.8439
 5195SOL    HW217007   4.507   2.763   5.742 -4.0069 -0.7769  0.6420
 5196SOL     OW17008   3.020   6.246   4.413 -1.2230 -0.1304  0.0286
 5196SOL    HW117009   3.079   6.297   4.468 -3.8581  1.6312  1.3924
 5196SOL    HW217010   3.022   6.290   4.328 -0.2059 -0.4619 -0.1453
 5197SOL     OW17011   5.356   2.853   8.498  0.3176 -0.2275  0.3132
 5197SOL    HW117012   5.371   2.891   8.411  1.6856 -1.6794 -0.1396
 5197SOL    HW217013   5.333   2.761   8.480 -0.9533 -0.1675  1.4474
 5198SOL     OW17014   4.892   1.901   6.466 -0.0040 -0.1169  0.3958
 5198SOL    HW117015   4.801   1.923   6.485 -0.0140  0.0415  0.1646
 5198SOL    HW217016   4.913   1.830   6.528 -0.9112 -1.5472 -0.8782
 5199SOL     OW17017   6.049   5.683   8.662 -0.3899 -0.0663 -0.3715
 5199SOL    HW117018   5.971   5.726   8.624 -1.2957 -1.1024  0.2590
 5199SOL    HW217019   6.018   5.649   8.746  1.0051  0.2758  0.2972
 5200SOL     OW17020   1.697   5.141   6.771 -0.6765 -0.2172  0.2068
 5200SOL    HW117021   1.774   5.169   6.819 -1.3182  0.6369  0.7648
 5200SOL    HW217022   1.681   5.052   6.802  0.1301 -0.4339  0.0179
 5201SOL     OW17023   1.630   2.537   0.778 -0.2648 -0.0115  1.0258
 5201SOL    HW117024   1.685   2.609   0.808  1.0624 -0.1676 -0.8747
 5201SOL    HW217025   1.548   2.579   0.751  1.0884  1.1213 -1.6571
 5202SOL     OW17026   7.590   4.310   8.694 -0.2074 -0.1046 -0.5772
 5202SOL    HW117027   7.648   4.385   8.704 -0.4794  0.1425 -0.8470
 5202SOL    HW217028   7.597   4.286   8.601  0.3638 -0.8113 -0.3666
 5203SOL     OW17029   1.302   4.500   3.966 -0.1298  0.6561  0.2835
 5203SOL    HW117030   1.212   4.527   3.987  0.0417  1.8830 -0.4843
 5203SOL    HW217031   1.291   4.426   3.906 -0.6394  1.0428 -0.1142
 5204SOL     OW17032   6.764   6.948   7.771  0.5832  0.3585  0.5497
 5204SOL    HW117033   6.709   6.995   7.708  0.7986 -0.0398  0.0539
 5204SOL    HW217034   6.781   6.864   7.729 -0.4379 -0.4762  1.7706
 5205SOL     OW17035   1.559   1.880   0.898 -0.0390  0.4563 -0.1123
 5205SOL    HW117036   1.635   1.822   0.906 -0.2542  0.3273  1.2043
 5205SOL    HW217037   1.518   1.878   0.984 -0.4122  2.0846 -0.2150
 5206SOL     OW17038   4.722   8.272   7.223 -0.2501  0.1728  0.3367
 5206SOL    HW117039   4.710   8.327   7.146  0.6381  1.1239  0.8492
 5206SOL    HW217040   4.815   8.281   7.245 -0.7568  1.0042  2.2958
 5207SOL     OW17041   1.648   0.871   3.815 -0.0496 -0.0459  0.2921
 5207SOL    HW117042   1.635   0.965   3.823  3.0341  0.9963 -3.5289
 5207SOL    HW217043   1.583   0.843   3.751 -1.0653 -0.6372  1.5374
 5208SOL     OW17044   1.852   7.203   1.657 -0.3446  0.1217  0.3976
 5208SOL    HW117045   1.884   7.274   1.713 -1.5246  1.8874 -1.0243
 5208SOL    HW217046   1.757   7.213   1.658 -0.6886 -2.4376  1.3116
 5209SOL     OW17047   7.596   5.442   3.144  0.3425  0.0466 -0.3621
 5209SOL    HW117048   7.547   5.404   3.216  1.7035  0.3587  0.7725
 5209SOL    HW217049   7.618   5.367   3.088 -3.5835  0.1563 -2.4204
 5210SOL     OW17050   6.590   8.726   9.223  0.9010 -0.9399 -0.2009
 5210SOL    HW117051   6.608   8.668   9.297  0.9235 -1.3020 -0.4850
 5210SOL    HW217052   6.631   8.809   9.246  0.2746 -0.8216  0.5194
 5211SOL     OW17053   4.940   7.060   8.356 -1.2511 -0.4235 -0.2644
 5211SOL    HW117054   4.871   7.060   8.290 -1.3339  0.4704 -0.1994
 5211SOL    HW217055   4.985   7.144   8.343 -1.9447  0.2767  1.4951
 5212SOL     OW17056   5.594   0.403   0.341  0.3800 -0.0312  0.4977
 5212SOL    HW117057   5.666   0.350   0.376 -0.6453 -1.4357  0.5650
 5212SOL    HW217058   5.561   0.452   0.417  0.1991 -0.6510  0.8191
 5213SOL     OW17059   1.522   4.899   3.345 -0.2092 -0.0920 -0.0052
 5213SOL    HW117060   1.567   4.878   3.427  2.0830 -0.9954 -1.4062
 5213SOL    HW217061   1.465   4.824   3.329 -0.1885 -0.2050  0.4338
 5214SOL     OW17062   2.194   5.210   1.371 -0.0185 -0.4955 -0.6468
 5214SOL    HW117063   2.107   5.249   1.365 -0.1914 -0.7931 -0.1083
 5214SOL    HW217064   2.190   5.134   1.312 -0.1906 -0.6313 -0.4605
 5215SOL     OW17065   5.077   3.946   3.071 -0.4000 -0.0142  0.0034
 5215SOL    HW117066   5.133   3.956   2.994  1.9349 -0.5219  1.5279
 5215SOL    HW217067   5.125   3.886   3.128 -2.9207 -1.1267  1.1088
 5216SOL     OW17068   5.524   3.709   2.775  0.0053 -0.1820 -0.0782
 5216SOL    HW117069   5.486   3.736   2.691  0.1422 -1.2415 -0.4993
 5216SOL    HW217070   5.617   3.692   2.755  0.0049 -0.5840  0.2461
 5217SOL     OW17071   8.729   0.584   0.913 -0.0689 -0.4765  0.0448
 5217SOL    HW117072   8.714   0.652   0.848 -0.0350 -0.8322 -0.3341
 5217SOL    HW217073   8.819   0.555   0.899  0.2442  0.0692  0.8389
 5218SOL     OW17074   7.793   4.758   3.063  0.2104 -0.5044  0.1901
 5218SOL    HW117075   7.713   4.722   3.025  0.1498 -0.1941  0.0195
 5218SOL    HW217076   7.765   4.838   3.107  0.4771 -0.2166 -0.1539
 5219SOL     OW17077   7.678   1.965   8.071 -0.0886 -0.4479 -0.3070
 5219SOL    HW117078   7.690   1.967   8.166  0.5562 -0.0301 -0.3861
 5219SOL    HW217079   7.767   1.971   8.036 -0.2051 -1.9292 -0.9395
 5220SOL     OW17080   0.324   2.766   2.560  0.6800  0.1154 -0.2638
 5220SOL    HW117081   0.275   2.848   2.563 -0.9829 -0.7817 -1.1704
 5220SOL    HW217082   0.286   2.712   2.629  0.6126 -0.4793 -0.7563
 5221SOL     OW17083   1.181   3.818   3.338 -0.1844 -0.2019 -0.3965
 5221SOL    HW117084   1.163   3.858   3.253 -2.1379  0.2642  0.1757
 5221SOL    HW217085   1.118   3.859   3.398  0.6777 -1.0024  1.1412
 5222SOL     OW17086   3.232   1.208   1.490 -0.2655 -0.3935  0.6600
 5222SOL    HW117087   3.317   1.250   1.475  0.3665 -1.2431  1.7283
 5222SOL    HW217088   3.249   1.114   1.481 -0.8825 -0.6318  1.7908
 5223SOL     OW17089   8.186   0.727   2.630  0.5182 -0.3148  0.2176
 5223SOL    HW117090   8.257   0.790   2.621  1.4920 -1.4787 -0.6539
 5223SOL    HW217091   8.145   0.748   2.714 -0.7107  2.9245 -1.0263
 5224SOL     OW17092   3.722   5.027   5.274  0.3074 -0.1827 -0.3058
 5224SOL    HW117093   3.709   5.112   5.316  1.5488  0.0500 -0.3647
 5224SOL    HW217094   3.649   5.021   5.211 -0.5099  0.2652  0.5629
 5225SOL     OW17095   0.662   0.188   3.535 -0.5105  0.5479 -0.3897
 5225SOL    HW117096   0.608   0.263   3.563 -0.3912  1.5082 -2.5148
 5225SOL    HW217097   0.600   0.129   3.491 -0.6156 -0.6886  1.3383
 5226SOL     OW17098   4.266   7.034   1.226 -0.1448 -0.0097 -0.4024
 5226SOL    HW117099   4.236   6.978   1.156 -1.5772  0.5717 -0.2773
 5226SOL    HW217100   4.196   7.032   1.291 -1.1668  3.2953 -1.1889
 5227SOL     OW17101   0.868   3.632   3.867  0.5156 -0.2685  0.2521
 5227SOL    HW117102   0.928   3.585   3.809 -0.0731 -1.3051  0.4563
 5227SOL    HW217103   0.915   3.641   3.950  0.6299 -0.4793  0.2093
 5228SOL     OW17104   8.589   8.200   4.586  0.1446 -0.4198  0.0038
 5228SOL    HW117105   8.517   8.140   4.562 -1.0878  0.6616  0.8347
 5228SOL    HW217106   8.571   8.280   4.536 -0.1953  0.4410  1.4466
 5229SOL     OW17107   1.651   1.561   4.781  0.3130  0.3069 -0.6256
 5229SOL    HW117108   1.652   1.538   4.688  0.5917 -0.7803 -0.3781
 5229SOL    HW217109   1.590   1.498   4.820  0.3829  0.6003 -0.0393
 5230SOL     OW17110   7.458   7.507   5.881 -0.0131 -0.1519 -0.0267
 5230SOL    HW117111   7.525   7.547   5.935  0.2161 -0.7051  0.1088
 5230SOL    HW217112   7.413   7.580   5.838 -0.4103  0.3184  1.1572
 5231SOL     OW17113   5.551   8.539   8.234 -0.2153 -0.4307  0.2604
 5231SOL    HW117114   5.636   8.557   8.193 -1.9432  2.3165 -2.5949
 5231SOL    HW217115   5.544   8.605   8.304 -0.2568 -0.2154  0.0551
 5232SOL     OW17116   7.202   6.031   8.384 -0.2931  0.6366 -0.6914
 5232SOL    HW117117   7.239   5.961   8.331 -0.6684 -0.6234  0.6502
 5232SOL    HW217118   7.114   6.044   8.349  0.4867  1.9328 -2.2910
 5233SOL     OW17119   0.124   9.075   8.518  0.5029  0.5570  0.4239
 5233SOL    HW117120   0.056   9.122   8.470  0.5013  0.7395  0.6062
 5233SOL    HW217121   0.176   9.034   8.449  1.0493  1.5682  0.2004
 5234SOL     OW17122   2.612   1.501   0.289 -0.0559  0.4363 -0.0247
 5234SOL    HW117123   2.677   1.438   0.257 -0.5254  0.4804 -1.1215
 5234SOL    HW217124   2.544   1.446   0.329  1.0871  0.4305  2.0836
 5235SOL     OW17125   8.550   1.865   2.078  0.2419  0.2247 -0.0867
 5235SOL    HW117126   8.585   1.794   2.131 -0.0183  0.3306  0.2327
 5235SOL    HW217127   8.456   1.846   2.071  0.4825 -0.5147 -1.6432
 5236SOL     OW17128   4.970   1.126   4.683  0.4747  0.0528 -0.2996
 5236SOL    HW117129   4.991   1.060   4.617 -2.7624 -1.5812  0.1231
 5236SOL    HW217130   4.882   1.155   4.662  0.2498  1.2327  1.9250
 5237SOL     OW17131   7.685   5.370   4.161 -0.0056 -0.7541  0.2156
 5237SOL    HW117132   7.652   5.359   4.072  1.3631  2.2532 -0.7874
 5237SOL    HW217133   7.606   5.375   4.216 -0.9246 -1.0700 -1.0526
 5238SOL     OW17134   2.117   0.808   5.226  0.0579  0.1583 -0.3719
 5238SOL    HW117135   2.092   0.900   5.213 -1.2793  0.1562  1.7096
 5238SOL    HW217136   2.036   0.765   5.254  1.2048 -1.0848  1.2525
 5239SOL     OW17137   8.854   6.486   2.412 -0.0551 -0.1792  0.0833
 5239SOL    HW117138   8.872   6.576   2.440 -1.8461  0.0023  0.7612
 5239SOL    HW217139   8.865   6.487   2.317 -0.5898  0.8964  0.0266
 5240SOL     OW17140   5.185   6.589   4.805 -0.1822  0.0363 -0.6865
 5240SOL    HW117141   5.245   6.523   4.771 -0.3626 -0.1853 -0.5701
 5240SOL    HW217142   5.108   6.584   4.750  0.2890  0.9954 -1.4611
 5241SOL     OW17143   3.639   0.167   6.095  0.1906  0.2479 -0.4635
 5241SOL    HW117144   3.559   0.123   6.067 -0.3541  0.5708  0.5229
 5241SOL    HW217145   3.618   0.260   6.093  0.6691  0.3571 -0.5698
 5242SOL     OW17146   4.505   3.875   8.061  0.1747  0.2187  0.1291
 5242SOL    HW117147   4.443   3.893   8.132  0.1925  1.3295 -0.1138
 5242SOL    HW217148   4.591   3.890   8.100  0.3854 -2.2210  0.7261
 5243SOL     OW17149   7.725   4.279   0.274 -0.2334 -0.2377  0.5548
 5243SOL    HW117150   7.640   4.322   0.278  1.4076  3.2813  1.9406
 5243SOL    HW217151   7.773   4.328   0.207  0.7444 -2.2166 -0.2803
 5244SOL     OW17152   7.261   6.529   5.465  0.1355  0.0044 -0.8782
 5244SOL    HW117153   7.292   6.466   5.399  0.5153  0.8682 -1.5396
 5244SOL    HW217154   7.317   6.606   5.453 -0.1944  0.3968  0.0550
 5245SOL     OW17155   2.663   8.284   1.577 -0.1959 -0.3979  0.4163
 5245SOL    HW117156   2.677   8.357   1.518 -2.0206 -1.7684 -1.8833
 5245SOL    HW217157   2.631   8.325   1.658  0.0744  1.3941 -0.3317
 5246SOL     OW17158   5.028   0.810   8.710  0.5493  0.0308  0.1953
 5246SOL    HW117159   5.075   0.889   8.739 -0.4702  0.3248  1.1118
 5246SOL    HW217160   5.076   0.781   8.633  1.4823  1.0387  0.3664
 5247SOL     OW17161   1.593   5.068   3.107 -0.0875 -0.5683  1.0999
 5247SOL    HW117162   1.566   5.139   3.165  0.5722 -0.7198  1.6011
 5247SOL    HW217163   1.584   4.989   3.160  1.0899 -0.6463  1.2035
 5248SOL     OW17164   0.566   6.323   2.757  0.4278 -0.0047  0.3140
 5248SOL    HW117165   0.657   6.304   2.781  0.5263  1.1484  0.9412
 5248SOL    HW217166   0.574   6.373   2.675  0.3748  0.1934  0.4284
 5249SOL     OW17167   3.350   3.208   0.514  0.0612 -0.1928  0.6033
 5249SOL    HW117168   3.312   3.121   0.528  1.0890 -0.9288 -0.8577
 5249SOL    HW217169   3.406   3.197   0.437 -0.5720  2.0314 -0.2420
 5250SOL     OW17170   5.603   8.116   0.893  0.2201  0.2307  0.6754
 5250SOL    HW117171   5.691   8.089   0.866 -0.0880 -1.5659  1.3507
 5250SOL    HW217172   5.545   8.047   0.861 -0.7229  0.5003  1.7255
 5251SOL     OW17173   5.755   5.356   3.155  0.5766  0.2057  0.4299
 5251SOL    HW117174   5.765   5.400   3.239  0.5827  4.3065 -1.4979
 5251SOL    HW217175   5.839   5.367   3.112  0.3630 -1.2485 -0.4317
 5252SOL     OW17176   2.463   8.138   4.365  0.5249  0.0884  0.3226
 5252SOL    HW117177   2.432   8.190   4.439 -0.4405 -0.4532  0.3158
 5252SOL    HW217178   2.526   8.195   4.321 -0.9972  1.5831 -0.0824
 5253SOL     OW17179   2.609   7.800   4.388  0.4558 -0.5219 -0.0419
 5253SOL    HW117180   2.541   7.833   4.329  0.3579 -1.1320 -0.2765
 5253SOL    HW217181   2.690   7.840   4.355  0.2099  0.2427  0.2670
 5254SOL     OW17182   1.895   0.544   5.250 -0.2624  0.6531  0.0253
 5254SOL    HW117183   1.822   0.534   5.189  0.3977 -1.1375 -0.5532
 5254SOL    HW217184   1.971   0.555   5.193  0.0393  1.7265  0.6054
 5255SOL     OW17185   3.612   6.375   7.909 -0.4491 -0.0043  0.3152
 5255SOL    HW117186   3.564   6.330   7.840 -0.4479 -2.0292  1.5637
 5255SOL    HW217187   3.703   6.354   7.893 -0.3829  0.1493  0.4880
 5256SOL     OW17188   8.252   1.832   3.358  0.1384 -0.1342 -0.0812
 5256SOL    HW117189   8.181   1.776   3.325  0.4915 -0.7396  0.1619
 5256SOL    HW217190   8.213   1.919   3.366 -1.5951 -1.0636  3.2657
 5257SOL     OW17191   7.633   1.056   0.354 -0.1345 -0.5802  0.0359
 5257SOL    HW117192   7.671   0.971   0.376 -0.4004 -0.5168  0.7915
 5257SOL    HW217193   7.539   1.040   0.350 -0.2227 -0.2540  0.5800
 5258SOL     OW17194   7.161   8.055   3.703  0.3533 -0.4827 -0.3434
 5258SOL    HW117195   7.254   8.048   3.723  0.0463 -0.1333  1.3843
 5258SOL    HW217196   7.158   8.103   3.620  1.6946 -0.0024 -0.1356
 5259SOL     OW17197   7.716   7.460   0.793 -0.0087  0.1021 -0.2005
 5259SOL    HW117198   7.690   7.370   0.817 -2.2172  0.8434  0.4482
 5259SOL    HW217199   7.651   7.487   0.729  0.9132  1.1091 -0.7319
 5260SOL     OW17200   5.132   6.862   7.209  0.0087  0.1949 -0.1887
 5260SOL    HW117201   5.039   6.840   7.209  0.3006 -1.2174 -1.3589
 5260SOL    HW217202   5.170   6.804   7.142  1.8975 -0.0187  0.9966
 5261SOL     OW17203   1.818   2.328   7.131  0.3812  0.4782 -0.2270
 5261SOL    HW117204   1.785   2.238   7.126 -0.8397  0.8514  0.7735
 5261SOL    HW217205   1.843   2.349   7.041  1.1169 -1.0067 -0.4028
 5262SOL     OW17206   0.452   8.095   2.687  0.8004  0.0820  0.0196
 5262SOL    HW117207   0.478   8.005   2.706  0.0728 -0.1198  0.0999
 5262SOL    HW217208   0.356   8.092   2.684  0.8053  0.6030 -1.2088
 5263SOL     OW17209   3.837   8.185   0.031  0.1408 -0.1859  0.3598
 5263SOL    HW117210   3.894   8.109   0.038  1.7912  0.8033 -1.1608
 5263SOL    HW217211   3.897   8.260   0.036 -1.2582  0.9792  0.4795
 5264SOL     OW17212   4.311   0.646   5.042 -0.6534 -0.2229 -0.0408
 5264SOL    HW117213   4.393   0.682   5.076 -0.2795 -1.0390 -0.0570
 5264SOL    HW217214   4.281   0.586   5.111 -1.5395  0.4980  0.2185
 5265SOL     OW17215   5.307   5.178   5.047  0.5072 -0.0015  0.9908
 5265SOL    HW117216   5.347   5.091   5.052  1.3747  0.2652 -0.7490
 5265SOL    HW217217   5.243   5.171   4.977 -1.0193  0.1888  2.3212
 5266SOL     OW17218   0.011   3.929   1.051  0.3349  0.2038 -0.2618
 5266SOL    HW117219   0.090   3.902   1.004 -1.2508 -1.4675 -2.1447
 5266SOL    HW217220  -0.057   3.870   1.020 -1.9348  2.2766  0.4115
 5267SOL     OW17221   7.570   2.273   9.036 -0.2012 -0.2320 -0.0844
 5267SOL    HW117222   7.662   2.270   9.060  0.0546  1.3311 -0.7330
 5267SOL    HW217223   7.542   2.361   9.061 -1.0172 -0.0269 -1.6021
 5268SOL     OW17224   4.559   3.367   8.566 -0.1208 -0.2533 -0.1202
 5268SOL    HW117225   4.602   3.453   8.565 -2.1750  0.8394 -0.2130
 5268SOL    HW217226   4.477   3.382   8.518 -0.7046 -2.1838  0.2304
 5269SOL     OW17227   8.043   4.851   7.388  0.1794 -0.3135 -0.4558
 5269SOL    HW117228   8.061   4.815   7.302  2.8094 -0.6655  0.1336
 5269SOL    HW217229   8.101   4.927   7.395 -0.2416 -0.0730  0.8624
 5270SOL     OW17230   8.664   1.770   7.962 -0.0293 -0.1431 -0.3788
 5270SOL    HW117231   8.733   1.712   7.932  0.6959  0.9997 -0.9923
 5270SOL    HW217232   8.710   1.846   7.998 -0.9531  0.7426 -1.0025
 5271SOL     OW17233   6.521   8.507   1.929 -0.2484 -0.8427 -0.6807
 5271SOL    HW117234   6.455   8.456   1.976 -1.4904  0.2093 -1.2250
 5271SOL    HW217235   6.496   8.598   1.945  0.1094 -0.4527 -2.2339
 5272SOL     OW17236   8.074   3.775   5.385  0.1650 -0.1297 -0.5219
 5272SOL    HW117237   8.102   3.827   5.460  0.8771 -0.7270 -0.3596
 5272SOL    HW217238   7.981   3.796   5.374 -0.1853 -0.7332  1.1067
 5273SOL     OW17239   7.849   6.443   4.724  0.0753  0.0730 -0.4987
 5273SOL    HW117240   7.905   6.506   4.769  0.2577 -0.6010  0.2323
 5273SOL    HW217241   7.908   6.374   4.695  0.0669  0.7902 -2.3758
 5274SOL     OW17242   4.208   7.937   0.584 -0.4605 -0.5800  0.3560
 5274SOL    HW117243   4.123   7.904   0.554 -0.7204  1.1407 -0.9789
 5274SOL    HW217244   4.195   8.031   0.593  1.3052 -0.2814  0.1330
 5275SOL     OW17245   1.356   1.517   9.212 -0.3545 -0.4945  0.3576
 5275SOL    HW117246   1.314   1.458   9.150  0.7559 -1.2501  0.3029
 5275SOL    HW217247   1.285   1.574   9.243 -0.8842  0.1408 -1.8549
 5276SOL     OW17248   1.798   4.682   1.667 -0.3146  0.0818 -0.1087
 5276SOL    HW117249   1.849   4.626   1.725 -0.1935  2.2219  1.9932
 5276SOL    HW217250   1.707   4.670   1.695 -0.5559 -0.6413 -1.1190
 5277SOL     OW17251   5.708   5.529   0.345  0.3604  0.2481  0.8094
 5277SOL    HW117252   5.739   5.468   0.278 -0.6199  0.9402 -0.3072
 5277SOL    HW217253   5.617   5.506   0.359  0.4971  0.2430  1.7834
 5278SOL     OW17254   4.271   3.765   3.104 -0.4511  0.0801  0.0332
 5278SOL    HW117255   4.285   3.779   3.010 -1.5462 -1.9801 -0.5033
 5278SOL    HW217256   4.357   3.743   3.138 -0.2290 -0.2287 -0.7105
 5279SOL     OW17257   9.151   6.529   1.035  0.0287  0.6233 -0.4695
 5279SOL    HW117258   9.197   6.612   1.022 -0.8613  1.2233  0.1286
 5279SOL    HW217259   9.159   6.512   1.129  1.8236 -0.9567 -0.8417
 5280SOL     OW17260   8.758   1.818   6.339  0.1312  0.2523  0.0054
 5280SOL    HW117261   8.793   1.757   6.274  0.0594 -0.3289  0.5033
 5280SOL    HW217262   8.725   1.892   6.288 -0.6024 -0.5303 -0.6676
 5281SOL     OW17263   7.363   1.030   0.331  0.5001  0.2583 -0.2426
 5281SOL    HW117264   7.348   1.049   0.238 -1.1236 -0.7248 -0.2152
 5281SOL    HW217265   7.320   0.946   0.346  0.5596  0.4914  1.4532
 5282SOL     OW17266   7.989   3.359   4.448 -0.3508 -0.6099  0.4389
 5282SOL    HW117267   7.973   3.272   4.485  1.8443 -0.4767  1.9007
 5282SOL    HW217268   7.951   3.420   4.511  1.8879 -0.4404  1.7364
 5283SOL     OW17269   4.872   8.280   7.779  0.0220  0.3837 -0.1854
 5283SOL    HW117270   4.872   8.197   7.733 -1.2484 -0.3161  0.9842
 5283SOL    HW217271   4.934   8.335   7.731  1.4694 -1.4589 -0.5481
 5284SOL     OW17272   4.347   0.145   5.526  0.2652 -0.4044 -0.3905
 5284SOL    HW117273   4.417   0.084   5.550  0.4504 -0.0828 -0.0975
 5284SOL    HW217274   4.272   0.090   5.508  0.1872 -0.6798  0.7140
 5285SOL     OW17275   7.504   0.565   8.405  0.3964 -0.2360  0.0583
 5285SOL    HW117276   7.570   0.615   8.453  1.1901  0.2857 -1.5252
 5285SOL    HW217277   7.518   0.587   8.313 -1.6110 -0.5813 -0.3809
 5286SOL     OW17278   0.854   5.866   3.860 -0.0480 -0.3713  0.3104
 5286SOL    HW117279   0.829   5.823   3.942  1.1727 -0.6207  0.5714
 5286SOL    HW217280   0.923   5.811   3.824  0.0262  0.2046 -0.4566
 5287SOL     OW17281   3.644   2.540   6.959 -0.2174 -0.7388 -0.2269
 5287SOL    HW117282   3.643   2.618   7.015  1.9030 -0.8239  0.0018
 5287SOL    HW217283   3.653   2.467   7.021 -0.4164 -1.0368 -0.5481
 5288SOL     OW17284   7.447   3.498   3.842  0.1785  0.4397 -0.1963
 5288SOL    HW117285   7.455   3.406   3.866  0.8612  0.3895 -0.5861
 5288SOL    HW217286   7.479   3.546   3.919 -0.7454  0.3750  0.2381
 5289SOL     OW17287   5.064   7.804   8.940  0.3844  0.1430  0.3198
 5289SOL    HW117288   5.008   7.811   9.017  0.8310  1.7355  0.5403
 5289SOL    HW217289   5.029   7.869   8.879 -0.1783 -1.3160 -1.0064
 5290SOL     OW17290   6.534   7.101   3.502 -0.7169 -0.4229  0.2020
 5290SOL    HW117291   6.476   7.129   3.431 -0.5861  0.3471  0.3893
 5290SOL    HW217292   6.599   7.046   3.459 -1.7163 -1.5058  0.0335
 5291SOL     OW17293   1.521   3.436   2.337  0.1080 -0.4050 -0.4471
 5291SOL    HW117294   1.609   3.473   2.331  0.4612 -1.2109 -0.3894
 5291SOL    HW217295   1.465   3.503   2.299  0.8475 -0.2108 -1.2614
 5292SOL     OW17296   7.153   3.313   1.932  0.0771  0.0268 -0.4141
 5292SOL    HW117297   7.065   3.350   1.936  0.2362  0.3294  0.7253
 5292SOL    HW217298   7.207   3.373   1.984  0.5020 -1.3125  0.7804
 5293SOL     OW17299   1.043   5.214   2.677  0.2856 -0.1791 -0.3426
 5293SOL    HW117300   1.055   5.307   2.663  0.4260 -0.3746 -1.6258
 5293SOL    HW217301   0.971   5.208   2.741 -1.0387  0.7735 -1.6870
 5294SOL     OW17302   9.180   1.209   0.572  0.2750  0.3235 -0.2623
 5294SOL    HW117303   9.160   1.116   0.567 -1.3621  0.6190  0.3757
 5294SOL    HW217304   9.270   1.213   0.606  0.3572 -1.0026 -0.3039
 5295SOL     OW17305   2.082   7.911   0.080  0.1243  0.3497 -0.0905
 5295SOL    HW117306   2.142   7.954   0.019 -0.3549 -0.5353 -1.2111
 5295SOL    HW217307   2.065   7.826   0.041  0.1683 -0.4372  1.5290
 5296SOL     OW17308   5.468   3.577   5.396  0.0202  0.1982  0.2027
 5296SOL    HW117309   5.495   3.548   5.309 -0.2222 -0.0381  0.2069
 5296SOL    HW217310   5.373   3.578   5.392 -0.0297 -0.8761  0.8085
 5297SOL     OW17311   0.625   2.984   3.101  0.2746 -0.1503  0.0015
 5297SOL    HW117312   0.541   3.023   3.076 -0.0953 -0.6877  0.3694
 5297SOL    HW217313   0.601   2.911   3.159  1.0711  2.4359  4.0015
 5298SOL     OW17314   2.567   6.813   6.113  0.0040 -0.2442  0.6882
 5298SOL    HW117315   2.638   6.875   6.126  0.7685 -0.5002 -1.7229
 5298SOL    HW217316   2.505   6.859   6.056 -1.9408  0.0429  2.8582
 5299SOL     OW17317   3.505   9.263   0.993  0.1717  0.1441 -0.7172
 5299SOL    HW117318   3.507   9.197   1.062 -0.1669  0.2017 -0.6527
 5299SOL    HW217319   3.580   9.320   1.011  0.0206  0.2228 -0.3356
 5300SOL     OW17320   1.037   0.692   2.916  0.2528 -0.0442  0.2148
 5300SOL    HW117321   1.023   0.782   2.945 -0.9106 -0.3637  0.7349
 5300SOL    HW217322   0.965   0.643   2.956  1.0296 -1.2572  0.1805
 5301SOL     OW17323   6.943   1.809   6.077 -0.0111  0.2595 -0.1414
 5301SOL    HW117324   6.958   1.720   6.046  1.9707  0.0584  1.2018
 5301SOL    HW217325   6.889   1.798   6.155 -1.4668  0.4295 -1.0968
 5302SOL     OW17326   7.257   4.666   1.576 -0.1322  0.2792 -0.5547
 5302SOL    HW117327   7.331   4.682   1.635  2.2695 -1.4716 -2.8805
 5302SOL    HW217328   7.258   4.740   1.515 -0.2795  0.2104 -0.6401
 5303SOL     OW17329   0.243   0.049   5.486 -0.7770  0.7499  0.4496
 5303SOL    HW117330   0.244  -0.043   5.460  0.0159  0.7416  0.4930
 5303SOL    HW217331   0.314   0.089   5.437  0.4157  0.8456  2.1749
 5304SOL     OW17332   2.678   0.461   7.923 -0.0185  0.0764  0.8744
 5304SOL    HW117333   2.635   0.415   7.850  0.7002 -1.0492  1.1456
 5304SOL    HW217334   2.641   0.550   7.920 -0.4919 -0.1403 -0.4475
 5305SOL     OW17335   8.962   0.782   3.805  0.4872  0.1218 -0.6687
 5305SOL    HW117336   9.051   0.756   3.829  0.2816  0.9413  1.2192
 5305SOL    HW217337   8.972   0.840   3.731  1.5748  0.5301 -0.2098
 5306SOL     OW17338   2.395   7.907   7.383 -0.2326 -0.0837 -0.2126
 5306SOL    HW117339   2.359   7.905   7.294 -1.7290  0.0468  0.3710
 5306SOL    HW217340   2.475   7.854   7.377 -0.1866  0.0962 -1.6706
 5307SOL     OW17341   0.212   1.722   6.110  0.5597 -0.0005  0.4585
 5307SOL    HW117342   0.220   1.627   6.101  3.6675  0.1184  0.8845
 5307SOL    HW217343   0.188   1.735   6.202 -0.0484 -0.3703  0.3555
 5308SOL     OW17344   4.088   6.255   3.058  0.0063  0.5680  0.0880
 5308SOL    HW117345   4.033   6.232   2.984 -1.1521 -0.1398  1.1241
 5308SOL    HW217346   4.112   6.171   3.097  0.9438  0.9120  0.2775
 5309SOL     OW17347   7.925   1.948   7.895  0.2886  0.0365 -0.4051
 5309SOL    HW117348   7.935   2.043   7.895  3.5229 -0.2032 -0.7315
 5309SOL    HW217349   7.917   1.924   7.803 -0.8642 -0.0376 -0.3072
 5310SOL     OW17350   3.666   6.642   6.509  0.8132 -0.0856  0.0069
 5310SOL    HW117351   3.601   6.584   6.548 -2.2332  1.8047 -1.8477
 5310SOL    HW217352   3.655   6.725   6.554  2.3643  0.1566 -0.0111
 5311SOL     OW17353   4.615   4.815   5.712 -0.3196  0.0257  0.7037
 5311SOL    HW117354   4.524   4.844   5.702 -0.6797 -0.9980  0.8385
 5311SOL    HW217355   4.636   4.773   5.628 -0.3804 -0.7923  1.0911
 5312SOL     OW17356   7.075   6.224   5.821  0.1405 -0.5000 -0.4292
 5312SOL    HW117357   7.068   6.235   5.916 -1.1024 -0.6830 -0.4894
 5312SOL    HW217358   6.989   6.194   5.793 -0.9375  3.4945 -2.1461
 5313SOL     OW17359   6.877   1.597   8.356 -0.0090  0.5622  0.1204
 5313SOL    HW117360   6.841   1.665   8.300 -0.5506  1.1059  1.0956
 5313SOL    HW217361   6.917   1.534   8.296  1.0749  2.0442 -0.7922
 5314SOL     OW17362   6.299   1.060   0.176  0.4303  0.6288  0.2785
 5314SOL    HW117363   6.210   1.094   0.167  0.7708  1.6496  0.5702
 5314SOL    HW217364   6.353   1.139   0.188  1.3968  0.0414 -0.1315
 5315SOL     OW17365   2.981   8.851   6.232  0.1136 -0.2694 -0.3979
 5315SOL    HW117366   2.933   8.769   6.220  0.6727 -0.3593 -2.3223
 5315SOL    HW217367   2.981   8.865   6.327 -1.3568 -1.6546 -0.1565
 5316SOL     OW17368   1.226   5.324   2.884 -0.8830  0.2533 -0.6565
 5316SOL    HW117369   1.171   5.252   2.852  1.1654 -2.2951  1.0972
 5316SOL    HW217370   1.315   5.299   2.858 -0.0034  1.6654  0.8138
 5317SOL     OW17371   7.564   8.881   7.146  0.0864 -0.2084  0.0421
 5317SOL    HW117372   7.593   8.969   7.170  0.4469 -0.1186 -0.6992
 5317SOL    HW217373   7.600   8.824   7.214  0.9709  0.0533 -0.1964
 5318SOL     OW17374   1.140   0.009   2.196 -0.0993 -0.1383 -0.3849
 5318SOL    HW117375   1.233   0.025   2.213 -0.3574 -0.2906  1.3993
 5318SOL    HW217376   1.097   0.091   2.215 -0.4099 -0.2494 -0.5929
 5319SOL     OW17377   6.236   8.373   7.461 -0.0629 -0.1754 -0.1518
 5319SOL    HW117378   6.311   8.379   7.403 -0.0508 -1.4881 -0.3036
 5319SOL    HW217379   6.184   8.452   7.442  0.7670  0.2442 -0.7379
 5320SOL     OW17380   0.394   7.663   1.381 -0.3259 -0.3485 -0.7983
 5320SOL    HW117381   0.438   7.606   1.444  1.6961  1.3629 -0.5403
 5320SOL    HW217382   0.369   7.740   1.432 -1.2124 -0.1362 -1.5301
 5321SOL     OW17383   5.436   2.016   3.574  0.0700  0.0705  0.4063
 5321SOL    HW117384   5.529   2.027   3.593 -0.2167 -0.6628  2.4822
 5321SOL    HW217385   5.425   1.921   3.562 -0.3440  0.2023 -0.3094
 5322SOL     OW17386   4.693   1.441   0.839 -0.2508 -0.1747 -0.1792
 5322SOL    HW117387   4.761   1.426   0.773 -1.1438 -0.4112 -1.0721
 5322SOL    HW217388   4.621   1.383   0.813 -0.9984  0.4511  0.4512
 5323SOL     OW17389   0.750   7.473   2.882 -0.0832 -0.1702  0.4715
 5323SOL    HW117390   0.822   7.465   2.944 -0.4388 -2.2591  0.6693
 5323SOL    HW217391   0.711   7.386   2.877 -1.9180  0.6301 -0.4789
 5324SOL     OW17392   0.466   6.589   2.545  0.0324 -0.4118  0.1504
 5324SOL    HW117393   0.436   6.504   2.509 -1.0715  0.5357 -1.3139
 5324SOL    HW217394   0.391   6.647   2.533 -0.0295  0.2811  3.1690
 5325SOL     OW17395   6.548   2.867   4.832 -0.0093  0.0235 -0.2061
 5325SOL    HW117396   6.481   2.807   4.864 -0.5821  0.5666 -0.3626
 5325SOL    HW217397   6.499   2.939   4.792  0.6432  0.8549  0.4451
 5326SOL     OW17398   0.891   0.402   7.710 -0.8368  0.2187 -0.6075
 5326SOL    HW117399   0.853   0.419   7.796 -0.4603  1.1222 -0.6054
 5326SOL    HW217400   0.820   0.422   7.648 -0.6146  1.1769 -0.5707
 5327SOL     OW17401   3.548   0.761   3.282  0.1984  0.6208 -0.0549
 5327SOL    HW117402   3.453   0.754   3.270  0.4873  0.0016 -2.7143
 5327SOL    HW217403   3.574   0.676   3.318 -0.1512  0.3667 -0.3869
 5328SOL     OW17404   9.011   8.942   2.355  0.7304 -0.0958 -1.0703
 5328SOL    HW117405   8.970   8.867   2.398 -0.5322 -0.1050 -2.2097
 5328SOL    HW217406   9.085   8.964   2.410 -0.6222 -0.3055  0.9306
 5329SOL     OW17407   2.994   2.722   1.419  0.1342 -0.2823  0.0588
 5329SOL    HW117408   3.088   2.738   1.424  0.0891  0.9998 -1.9490
 5329SOL    HW217409   2.955   2.790   1.473  0.3184  0.3723 -0.6112
 5330SOL     OW17410   4.200   0.513   8.615 -0.3127 -0.4875  0.6907
 5330SOL    HW117411   4.211   0.556   8.530 -2.2201 -0.5964  0.3434
 5330SOL    HW217412   4.252   0.433   8.608  2.1830  1.0237  0.8569
 5331SOL     OW17413   4.032   6.537   7.548  0.0953 -0.1950  0.9644
 5331SOL    HW117414   3.985   6.619   7.558 -1.1183 -0.6105 -0.8049
 5331SOL    HW217415   4.086   6.550   7.469  0.2261 -0.9430  0.9209
 5332SOL     OW17416   0.999   6.083   7.881  0.5703  0.3732  0.4619
 5332SOL    HW117417   1.017   6.049   7.793  2.9073  0.1416  0.9764
 5332SOL    HW217418   0.999   6.006   7.937  0.0866  0.6267  0.8215
 5333SOL     OW17419   6.259   4.937   7.128  0.0782  0.3474  0.5152
 5333SOL    HW117420   6.288   5.025   7.103 -0.2489  0.4435  0.4684
 5333SOL    HW217421   6.326   4.878   7.093 -0.2164  0.5065 -0.3395
 5334SOL     OW17422   8.242   5.344   3.090 -0.0014  0.1080  0.5009
 5334SOL    HW117423   8.201   5.275   3.143 -2.2201  0.6649 -0.4141
 5334SOL    HW217424   8.254   5.417   3.150  0.8969 -0.4800  1.0780
 5335SOL     OW17425   5.539   7.532   8.460 -0.1074 -0.3571 -0.4707
 5335SOL    HW117426   5.608   7.481   8.503  0.3819 -0.9689 -1.9314
 5335SOL    HW217427   5.471   7.467   8.440 -1.5387  0.3531  1.6423
 5336SOL     OW17428   7.371   6.319   4.036  0.6840  0.2113  0.5318
 5336SOL    HW117429   7.295   6.335   3.979  0.9115  1.7833  0.6263
 5336SOL    HW217430   7.375   6.224   4.044 -0.0349 -0.0040 -1.1676
 5337SOL     OW17431   9.013   6.518   4.835 -0.5524  0.2039  0.5050
 5337SOL    HW117432   9.047   6.513   4.746 -0.3897 -0.1631  0.5840
 5337SOL    HW217433   9.086   6.493   4.891 -1.1499 -1.4893  0.6215
 5338SOL     OW17434   0.666   4.039   5.107 -1.0005 -0.2499  0.8856
 5338SOL    HW117435   0.745   4.001   5.147 -1.2973 -0.9269  0.8402
 5338SOL    HW217436   0.605   3.966   5.099 -0.9597 -0.1584 -0.8031
 5339SOL     OW17437   4.271   6.226   1.330  0.2544  0.1604 -0.1463
 5339SOL    HW117438   4.233   6.143   1.301 -0.4516  0.0650  0.9745
 5339SOL    HW217439   4.290   6.273   1.249 -3.9347  0.9601 -0.9122
 5340SOL     OW17440   5.123   6.984   5.422  0.3248  0.1749 -0.3216
 5340SOL    HW117441   5.217   6.996   5.409  0.7218 -1.9504  0.1505
 5340SOL    HW217442   5.116   6.897   5.463 -1.8504  0.2312 -0.4830
 5341SOL     OW17443   7.055   8.594   3.334 -0.3378 -0.4554 -0.4518
 5341SOL    HW117444   7.097   8.649   3.267  0.9170 -1.4839 -0.5514
 5341SOL    HW217445   7.066   8.644   3.415 -0.1263 -0.0838 -0.6994
 5342SOL     OW17446   5.946   4.147   3.402 -0.1698  0.2844  0.3729
 5342SOL    HW117447   5.916   4.211   3.467  0.7184  0.7252  0.3776
 5342SOL    HW217448   5.876   4.083   3.397 -0.6480  0.7267  1.1120
 5343SOL     OW17449   2.084   8.886   3.101  0.6508 -0.1271  0.2984
 5343SOL    HW117450   2.100   8.819   3.035  2.5727  1.2494 -0.7255
 5343SOL    HW217451   2.042   8.839   3.173  0.4624 -2.0869 -1.0105
 5344SOL     OW17452   2.710   7.726   4.972  0.2824 -0.3366  0.2277
 5344SOL    HW117453   2.626   7.763   4.945 -0.9352 -1.0410  2.7715
 5344SOL    HW217454   2.706   7.634   4.945  0.5774 -0.1858 -0.3401
 5345SOL     OW17455   8.361   4.096   2.581 -0.3179  0.3493  0.2502
 5345SOL    HW117456   8.271   4.063   2.583 -0.0416 -0.3952  0.9865
 5345SOL    HW217457   8.358   4.179   2.629 -0.9054  1.1334 -1.0976
 5346SOL     OW17458   0.586   4.202   2.255 -0.2108 -0.7615  0.0742
 5346SOL    HW117459   0.635   4.247   2.186 -0.7273 -0.6548 -0.2259
 5346SOL    HW217460   0.651   4.188   2.325 -0.6313  2.9818  1.4012
 5347SOL     OW17461   1.082   2.169   0.102 -0.0271 -0.2951 -0.4822
 5347SOL    HW117462   0.994   2.144   0.076 -0.8309  0.5528  1.2153
 5347SOL    HW217463   1.104   2.109   0.173  0.6972 -0.3890 -0.7783
 5348SOL     OW17464   6.079   5.052   5.109 -0.1081 -0.4332 -0.3721
 5348SOL    HW117465   6.007   4.991   5.095  0.0133 -0.7572  0.4095
 5348SOL    HW217466   6.043   5.137   5.085 -0.5422 -0.6859 -0.6234
 5349SOL     OW17467   0.775   0.454   8.298 -0.0463 -0.2223  0.0976
 5349SOL    HW117468   0.768   0.364   8.266 -0.2633  0.2473 -1.2780
 5349SOL    HW217469   0.856   0.456   8.349 -0.4709 -1.3808  0.8530
 5350SOL     OW17470   7.543   6.820   4.148  0.3834  0.2714  0.4216
 5350SOL    HW117471   7.599   6.743   4.139  1.0723  0.7490  0.4285
 5350SOL    HW217472   7.602   6.893   4.127 -0.3025  0.7740  0.2359
 5351SOL     OW17473   7.492   7.147   5.372  0.0796  0.7860 -0.4457
 5351SOL    HW117474   7.442   7.163   5.292 -2.3376 -0.9539  0.5812
 5351SOL    HW217475   7.425   7.144   5.441  1.8496  0.2221  1.3420
 5352SOL     OW17476   3.500   6.680   3.935  0.1931  0.1683  0.0733
 5352SOL    HW117477   3.413   6.655   3.966  0.2122 -1.4451 -1.0169
 5352SOL    HW217478   3.504   6.775   3.947 -2.0135  0.3932 -0.5150
 5353SOL     OW17479   1.080   5.826   1.888  0.6353 -0.2724  0.0440
 5353SOL    HW117480   0.989   5.799   1.881  0.5637 -0.7780  2.2717
 5353SOL    HW217481   1.079   5.900   1.949  1.8877 -1.6292  1.8177
 5354SOL     OW17482   1.024   7.426   3.368  0.0386 -0.3509 -0.3197
 5354SOL    HW117483   0.997   7.505   3.414  0.8885 -0.2246 -0.0254
 5354SOL    HW217484   0.972   7.426   3.287 -0.5872  0.0505  0.0754
 5355SOL     OW17485   9.266   1.609   1.685 -0.4458  0.0761 -0.0978
 5355SOL    HW117486   9.339   1.570   1.732 -0.0355  0.9023 -0.0361
 5355SOL    HW217487   9.193   1.549   1.700  0.4727 -1.3498 -1.0972
 5356SOL     OW17488   3.496   8.487   6.911 -0.3493 -0.1057 -0.1691
 5356SOL    HW117489   3.432   8.556   6.898  0.2784  0.5205 -0.0021
 5356SOL    HW217490   3.462   8.436   6.984  0.1092  1.1648  0.9775
 5357SOL     OW17491   0.703   6.593   3.593  0.1973  0.1133 -0.5430
 5357SOL    HW117492   0.760   6.661   3.628 -1.1062 -0.0674  2.1671
 5357SOL    HW217493   0.745   6.511   3.620 -2.0352 -0.0298  3.0669
 5358SOL     OW17494   5.449   5.291   5.925 -0.2543 -0.0101  0.3530
 5358SOL    HW117495   5.468   5.354   5.995  0.4081  1.1031 -0.7747
 5358SOL    HW217496   5.376   5.240   5.958  0.2449  0.2663  1.9873
 5359SOL     OW17497   2.754   8.351   0.670  0.0880  0.4039  0.3408
 5359SOL    HW117498   2.691   8.355   0.741 -1.0856 -1.2776 -0.5451
 5359SOL    HW217499   2.720   8.412   0.604  0.6448  1.2060  0.7695
 5360SOL     OW17500   4.562   0.642   0.592  0.4372  0.2269 -0.0715
 5360SOL    HW117501   4.644   0.635   0.543  0.5910  1.2922  0.0170
 5360SOL    HW217502   4.584   0.611   0.680  0.8719  0.9603  0.0822
 5361SOL     OW17503   2.406   6.015   1.334 -0.2936 -0.3399  0.0517
 5361SOL    HW117504   2.477   6.003   1.397  1.3216 -0.0439 -1.6110
 5361SOL    HW217505   2.331   5.972   1.373  0.6198 -0.1090  2.1792
 5362SOL     OW17506   1.985   8.149   1.319 -0.1391  0.3370  0.2109
 5362SOL    HW117507   2.020   8.075   1.269  0.7398  0.8329  0.0690
 5362SOL    HW217508   2.059   8.181   1.370 -0.8977  0.1592  1.4635
 5363SOL     OW17509   0.694   3.486   4.477  0.9095 -0.0852 -0.0240
 5363SOL    HW117510   0.601   3.501   4.488  0.6489 -1.5260 -0.0203
 5363SOL    HW217511   0.732   3.498   4.564  0.4552 -1.1789  0.3372
 5364SOL     OW17512   5.510   4.632   3.712 -0.0011  0.1473 -0.3393
 5364SOL    HW117513   5.476   4.622   3.801 -0.7041  4.0085  0.0086
 5364SOL    HW217514   5.593   4.585   3.713 -2.0555 -3.9876  0.7608
 5365SOL     OW17515   1.438   0.621   3.677 -0.0030 -0.1789 -0.4532
 5365SOL    HW117516   1.431   0.577   3.761 -1.7175  0.2120 -0.3576
 5365SOL    HW217517   1.404   0.709   3.692 -0.0341  0.0041 -1.4838
 5366SOL     OW17518   0.331   1.543   7.626 -0.2997 -0.7309 -0.0237
 5366SOL    HW117519   0.365   1.476   7.567 -0.8690  0.2147 -1.5006
 5366SOL    HW217520   0.277   1.599   7.570 -0.1247  0.7530  1.2197
 5367SOL     OW17521   6.120   5.954   2.081 -0.5406 -0.2374  0.2890
 5367SOL    HW117522   6.183   6.013   2.040 -1.4078 -0.0531 -0.8165
 5367SOL    HW217523   6.122   5.876   2.025 -2.1998  0.2633 -0.5374
 5368SOL     OW17524   8.895   7.234   1.237  0.4955 -0.3575 -0.5378
 5368SOL    HW117525   8.941   7.208   1.317  0.8846  1.1388 -0.2385
 5368SOL    HW217526   8.948   7.306   1.201 -1.0934  0.8024 -0.6741
 5369SOL     OW17527   8.903   8.616   4.819  0.3127 -0.1392 -0.5708
 5369SOL    HW117528   8.989   8.599   4.857 -0.4775  0.4244  1.6408
 5369SOL    HW217529   8.863   8.530   4.810  0.0496 -0.2323  1.1740
 5370SOL     OW17530   8.992   6.171   0.365 -0.0617  0.0284 -0.0194
 5370SOL    HW117531   8.998   6.119   0.285  0.8909  0.9568 -0.5660
 5370SOL    HW217532   8.924   6.236   0.348  0.9860  1.0038 -0.5417
 5371SOL     OW17533   2.272   2.786   8.975  0.2330 -0.3273  0.5221
 5371SOL    HW117534   2.261   2.726   9.048  2.3858 -2.1721 -0.5313
 5371SOL    HW217535   2.258   2.732   8.897  0.1969  1.0383 -0.4540
 5372SOL     OW17536   4.361   6.224   2.571 -0.0872 -0.0378  0.2726
 5372SOL    HW117537   4.417   6.299   2.549 -1.3913  1.8608  2.8730
 5372SOL    HW217538   4.297   6.220   2.500 -1.1308  2.6019  0.9566
 5373SOL     OW17539   8.399   9.258   2.255 -0.5255  0.1793 -0.7899
 5373SOL    HW117540   8.425   9.183   2.202  0.5720 -0.0138  0.0030
 5373SOL    HW217541   8.367   9.323   2.192  0.5919 -0.1090 -1.6627
 5374SOL     OW17542   5.847   5.535   3.335  0.1266 -0.1002 -0.2187
 5374SOL    HW117543   5.931   5.492   3.353 -0.1551 -0.6333 -0.1674
 5374SOL    HW217544   5.870   5.609   3.278  0.6130 -0.3183 -0.3125
 5375SOL     OW17545   0.548   9.011   8.079  0.0066 -0.3341 -0.5754
 5375SOL    HW117546   0.641   9.033   8.085  0.0144 -0.7967  2.1358
 5375SOL    HW217547   0.503   9.095   8.070  0.6378 -0.0611 -1.1978
 5376SOL     OW17548   2.356   1.776   7.834 -0.6883  0.4383 -0.2486
 5376SOL    HW117549   2.353   1.680   7.831 -0.9970  0.4607 -1.8590
 5376SOL    HW217550   2.330   1.803   7.745 -1.3101  2.0260  0.3791
 5377SOL     OW17551   6.990   9.276   3.235 -0.6820  0.4738  0.2336
 5377SOL    HW117552   7.027   9.289   3.322 -0.1918  0.5102  0.0233
 5377SOL    HW217553   6.935   9.199   3.244 -0.3536  0.2645  0.4958
 5378SOL     OW17554   7.321   4.226   6.231 -0.1357  0.0093 -0.1679
 5378SOL    HW117555   7.227   4.246   6.228 -0.5838 -1.9675 -1.5171
 5378SOL    HW217556   7.358   4.291   6.290 -2.2874  1.1073  0.0583
 5379SOL     OW17557   2.456   4.471   0.184  0.4154 -0.1138  0.4291
 5379SOL    HW117558   2.535   4.437   0.142  0.7433  1.1740 -0.0410
 5379SOL    HW217559   2.473   4.461   0.278  1.0990  0.0663  0.3295
 5380SOL     OW17560   4.687   8.040   1.969  0.1310  0.1972  0.0649
 5380SOL    HW117561   4.667   8.107   2.033 -0.7012 -0.8120  0.8897
 5380SOL    HW217562   4.768   7.999   2.001  0.4669  0.5754 -0.2748
 5381SOL     OW17563   8.249   6.152   0.626  0.4662 -0.2292  0.2709
 5381SOL    HW117564   8.154   6.151   0.614  0.6680  0.8120 -1.8085
 5381SOL    HW217565   8.270   6.244   0.642  0.8163 -0.8420  4.7031
 5382SOL     OW17566   0.433   5.244   5.166  0.2368 -0.4803  0.4051
 5382SOL    HW117567   0.407   5.158   5.132 -0.5606  0.0494 -0.3362
 5382SOL    HW217568   0.487   5.282   5.097 -3.1099  1.4942 -1.3824
 5383SOL     OW17569   2.192   3.351   3.025  0.2828 -0.4530 -0.3273
 5383SOL    HW117570   2.214   3.406   3.099 -3.4933 -1.1034  1.5081
 5383SOL    HW217571   2.266   3.291   3.017  1.2995  0.3245  2.2152
 5384SOL     OW17572   8.829   1.903   7.185 -0.2202 -0.6958  0.2893
 5384SOL    HW117573   8.893   1.857   7.238 -0.3480 -0.8219  0.3357
 5384SOL    HW217574   8.744   1.874   7.219 -0.3190 -1.4748 -0.5603
 5385SOL     OW17575   2.926   4.516   1.380  0.6123  0.1430  0.4325
 5385SOL    HW117576   2.903   4.608   1.395  1.3119  0.5039 -0.5861
 5385SOL    HW217577   2.887   4.469   1.453 -1.5139  0.9870 -0.0879
 5386SOL     OW17578   3.725   3.290   7.750  0.3349  0.3871  0.6153
 5386SOL    HW117579   3.738   3.325   7.662  0.4028  0.5103  0.6738
 5386SOL    HW217580   3.795   3.329   7.802 -0.0937  0.8382  0.8675
 5387SOL     OW17581   3.668   4.353   5.569  0.4070 -0.3548  0.4401
 5387SOL    HW117582   3.650   4.416   5.639 -1.5520  1.7042 -1.7488
 5387SOL    HW217583   3.755   4.378   5.537  0.7919 -0.5363  1.3103
 5388SOL     OW17584   5.785   4.906   8.442 -0.6871  0.2019  0.1340
 5388SOL    HW117585   5.761   4.823   8.401 -1.3328  0.8369 -0.7974
 5388SOL    HW217586   5.702   4.952   8.455 -0.2276  1.3130 -0.7151
 5389SOL     OW17587   2.512   5.278   0.655 -0.6126  0.3721  0.5536
 5389SOL    HW117588   2.502   5.265   0.749  0.7654  2.5287  1.0850
 5389SOL    HW217589   2.558   5.201   0.624  0.7494  0.5398  2.0624
 5390SOL     OW17590   1.774   2.927   8.040  0.6543  0.1671  0.1271
 5390SOL    HW117591   1.739   2.955   8.125  0.2473  1.1116 -0.3388
 5390SOL    HW217592   1.824   2.848   8.060  0.7821  0.5173  1.2873
 5391SOL     OW17593   1.977   1.161   5.157  0.3028 -0.1754  0.2848
 5391SOL    HW117594   2.061   1.203   5.176  0.3986 -0.1417 -0.1846
 5391SOL    HW217595   1.992   1.116   5.073 -0.3393  0.3746 -0.1384
 5392SOL     OW17596   7.974   1.002   0.860 -0.5201  0.4203 -0.0737
 5392SOL    HW117597   8.009   1.040   0.780 -1.7135  1.2025 -0.2464
 5392SOL    HW217598   8.043   0.943   0.891  0.1059  0.3884 -1.4666
 5393SOL     OW17599   3.769   2.032   6.599  0.1401 -0.6289  0.1123
 5393SOL    HW117600   3.675   2.043   6.611 -0.2396 -0.7534 -2.1361
 5393SOL    HW217601   3.807   2.117   6.621 -0.7841  0.0944 -0.9644
 5394SOL     OW17602   5.346   3.218   8.386  0.1243  0.1732  0.6626
 5394SOL    HW117603   5.258   3.199   8.352  0.9487 -0.4777 -1.2169
 5394SOL    HW217604   5.367   3.304   8.351  1.1799 -0.7127 -0.9720
 5395SOL     OW17605   2.894   2.008   0.764 -0.7980 -0.2126  0.2447
 5395SOL    HW117606   2.856   1.949   0.699  0.9824 -1.2754  0.1013
 5395SOL    HW217607   2.915   2.087   0.713 -3.0247  0.5453  0.4035
 5396SOL     OW17608   5.588   9.217   6.183 -0.4154 -0.4273 -0.8778
 5396SOL    HW117609   5.612   9.307   6.203 -0.2145 -0.7302  0.3020
 5396SOL    HW217610   5.665   9.166   6.208 -0.6502 -0.9598 -1.2352
 5397SOL     OW17611   4.705   1.089   0.197 -0.3618 -0.1902  0.6195
 5397SOL    HW117612   4.661   1.009   0.167  0.2648 -0.2303 -0.2293
 5397SOL    HW217613   4.794   1.082   0.161 -1.0905  2.2281 -1.8956
 5398SOL     OW17614   5.758   4.833   2.687  0.3135  0.3502  0.5810
 5398SOL    HW117615   5.735   4.892   2.615 -1.1203 -1.3552 -0.4135
 5398SOL    HW217616   5.842   4.795   2.662  1.2066  1.8204  1.1870
 5399SOL     OW17617   4.293   3.062   8.853 -0.5540 -0.4272  1.2894
 5399SOL    HW117618   4.247   3.140   8.822  0.3657  0.0936  1.2027
 5399SOL    HW217619   4.323   3.019   8.774 -0.2618 -0.3767  1.3734
 5400SOL     OW17620   5.536   8.770   1.067  0.3574  0.2468  0.5257
 5400SOL    HW117621   5.615   8.734   1.027 -0.2811 -1.1968  0.4891
 5400SOL    HW217622   5.504   8.834   1.004 -0.7981 -2.1874 -1.5708
 5401SOL     OW17623   4.987   2.219   9.013 -0.2135 -0.2336  0.0356
 5401SOL    HW117624   5.020   2.307   8.994 -2.9311  1.3120  1.6716
 5401SOL    HW217625   5.012   2.167   8.936  1.8977  1.8060 -0.7895
 5402SOL     OW17626   9.211   2.609   6.384 -0.2784  0.2227 -0.2733
 5402SOL    HW117627   9.252   2.523   6.397 -0.0250  0.1665 -1.3435
 5402SOL    HW217628   9.208   2.647   6.472  1.9360  0.1678 -0.1025
 5403SOL     OW17629   2.669   6.088   8.829 -0.5114 -0.6245  0.0659
 5403SOL    HW117630   2.731   6.153   8.795  3.3345 -1.6474  4.1163
 5403SOL    HW217631   2.650   6.119   8.918 -1.3877 -3.2045  0.8596
 5404SOL     OW17632   6.476   2.386   4.364 -0.7581 -0.8114  0.0520
 5404SOL    HW117633   6.481   2.425   4.451  2.2850 -1.0222  0.0809
 5404SOL    HW217634   6.431   2.452   4.311 -1.2373  0.0109  1.4088
 5405SOL     OW17635   3.787   8.944   5.467 -0.0806 -0.0450  0.0967
 5405SOL    HW117636   3.816   8.854   5.476  0.0215 -0.0776 -0.5044
 5405SOL    HW217637   3.701   8.938   5.426  0.5476  0.1774 -1.2968
 5406SOL     OW17638   5.839   3.396   7.374 -0.4675  0.7012  0.1806
 5406SOL    HW117639   5.758   3.356   7.405 -0.4376  0.9944  0.6569
 5406SOL    HW217640   5.819   3.427   7.286 -0.6219  0.0330 -0.0204
 5407SOL     OW17641   2.830   1.467   7.572 -0.4199  0.0247 -0.0722
 5407SOL    HW117642   2.787   1.449   7.656  1.1119 -1.3724  0.4624
 5407SOL    HW217643   2.881   1.547   7.588  1.1282 -1.1022  0.8723
 5408SOL     OW17644   0.524   1.502   3.953 -0.1144  0.3872 -0.0132
 5408SOL    HW117645   0.550   1.457   4.033  0.5382  1.5856  0.4703
 5408SOL    HW217646   0.435   1.470   3.935  0.6044 -1.6684 -0.1422
 5409SOL     OW17647   5.925   3.786   2.212  0.0844 -0.4096  0.3398
 5409SOL    HW117648   5.971   3.845   2.152  0.5457  0.1994  1.2825
 5409SOL    HW217649   5.981   3.780   2.288 -1.0444 -0.2314  1.2144
 5410SOL     OW17650   5.913   6.209   1.208 -0.4399 -0.4451  0.2893
 5410SOL    HW117651   5.992   6.162   1.184 -0.4579 -0.9792  1.2054
 5410SOL    HW217652   5.909   6.202   1.304 -0.0475  2.0673  0.5591
 5411SOL     OW17653   3.754   3.538   5.277 -0.2412 -0.0608 -0.3810
 5411SOL    HW117654   3.705   3.459   5.301 -1.2619  1.1026  1.5724
 5411SOL    HW217655   3.764   3.531   5.182 -2.1540 -1.5253 -0.5465
 5412SOL     OW17656   8.716   4.160   4.478 -0.4314 -0.2286 -0.2838
 5412SOL    HW117657   8.621   4.153   4.493 -0.1260 -2.4534  1.0928
 5412SOL    HW217658   8.755   4.102   4.544  1.9060  0.6477 -0.8055
 5413SOL     OW17659   1.210   0.766   5.184 -0.6498  0.0970  0.0372
 5413SOL    HW117660   1.189   0.679   5.150  1.0233  0.4880 -2.2417
 5413SOL    HW217661   1.202   0.824   5.108 -1.1004  1.8611  1.3556
 5414SOL     OW17662   0.623   3.480   3.191 -0.8558  0.1307  0.2653
 5414SOL    HW117663   0.534   3.447   3.173 -1.3119  1.8862 -0.9167
 5414SOL    HW217664   0.663   3.488   3.105 -0.6353  2.1980  0.5198
 5415SOL     OW17665   0.898   5.702   7.783  0.4776 -0.1645  0.8862
 5415SOL    HW117666   0.888   5.789   7.743  0.5062  0.5060  2.2875
 5415SOL    HW217667   0.982   5.670   7.751  0.0817 -0.0520 -0.3147
 5416SOL     OW17668   2.602   4.885   1.150 -0.2099  0.0658  0.0654
 5416SOL    HW117669   2.677   4.937   1.120 -1.5507  2.3299  0.3486
 5416SOL    HW217670   2.527   4.945   1.141 -1.8515 -1.8027  0.6299
 5417SOL     OW17671   4.688   0.455   7.522 -0.2957 -0.4432 -0.0077
 5417SOL    HW117672   4.625   0.473   7.452  0.0870  2.6581  0.3024
 5417SOL    HW217673   4.774   0.464   7.479  0.0432 -3.3587 -0.1366
 5418SOL     OW17674   6.285   4.743   8.971  0.1639 -0.5294  0.3945
 5418SOL    HW117675   6.346   4.817   8.963 -0.0055 -0.2192  1.8052
 5418SOL    HW217676   6.342   4.665   8.968  0.2206 -0.5061 -2.7404
 5419SOL     OW17677   5.681   0.973   5.352  0.6779  0.0246 -0.0328
 5419SOL    HW117678   5.770   0.939   5.364  1.0387  1.0757  0.3350
 5419SOL    HW217679   5.668   1.031   5.427 -0.5563 -0.5901  0.2521
 5420SOL     OW17680   8.007   4.664   5.336  0.4737  0.4860  0.0848
 5420SOL    HW117681   7.920   4.626   5.323  0.7194  0.5668 -2.2952
 5420SOL    HW217682   8.066   4.602   5.294  1.2549  1.7795 -0.7833
 5421SOL     OW17683   1.609   4.922   7.566  0.1613 -0.1240 -0.5103
 5421SOL    HW117684   1.517   4.933   7.541 -0.1960 -0.3136  0.6919
 5421SOL    HW217685   1.654   4.902   7.483 -0.7085  0.9387 -1.2649
 5422SOL     OW17686   6.107   0.932   9.194  0.3266  0.3819 -0.2098
 5422SOL    HW117687   6.177   0.920   9.130  0.4540  1.1016 -0.2097
 5422SOL    HW217688   6.116   0.858   9.253  0.8007  0.2228 -0.4752
 5423SOL     OW17689   3.154   0.246   2.688 -0.0385  0.3866 -0.0725
 5423SOL    HW117690   3.093   0.195   2.740  0.4203 -0.7165 -0.5942
 5423SOL    HW217691   3.241   0.220   2.718  0.2106  1.7582  0.4898
 5424SOL     OW17692   6.007   4.214   5.941 -0.2521  0.2806 -0.0713
 5424SOL    HW117693   6.013   4.309   5.938  0.2196  0.2463 -0.2794
 5424SOL    HW217694   5.943   4.192   5.873  1.0298  0.3403 -1.3634
 5425SOL     OW17695   3.896   0.160   4.265  0.0508  0.4583  0.0733
 5425SOL    HW117696   3.870   0.250   4.281 -1.1788 -0.2237  2.2733
 5425SOL    HW217697   3.814   0.110   4.268  0.8335 -0.8720  0.0740
 5426SOL     OW17698   4.821   0.886   2.801 -0.0304  0.2983  0.7418
 5426SOL    HW117699   4.748   0.932   2.840 -0.7972  1.6670 -2.0771
 5426SOL    HW217700   4.892   0.951   2.799  0.6342 -0.3685  1.5290
 5427SOL     OW17701   0.780   5.465   0.462  0.2013  0.2426  0.1090
 5427SOL    HW117702   0.718   5.456   0.390 -1.9785 -0.3890  1.9483
 5427SOL    HW217703   0.861   5.495   0.420 -0.4427 -1.6082 -2.8018
 5428SOL     OW17704   0.305   7.594   5.019  0.0912  0.5136  0.2308
 5428SOL    HW117705   0.291   7.564   5.109 -1.5522 -1.1595 -0.5148
 5428SOL    HW217706   0.237   7.660   5.005  0.8388  1.3445  0.4352
 5429SOL     OW17707   8.046   1.255   3.433 -0.3423  0.6010  0.1400
 5429SOL    HW117708   7.993   1.235   3.356  1.6722  1.3151 -1.5198
 5429SOL    HW217709   8.137   1.250   3.402  0.7336 -2.0964  3.1954
 5430SOL     OW17710   1.337   7.838   7.388 -0.0390  0.0850  0.1877
 5430SOL    HW117711   1.427   7.871   7.392  0.0082  0.2315 -1.5048
 5430SOL    HW217712   1.283   7.913   7.412  0.2206  0.5119 -0.5277
 5431SOL     OW17713   6.654   1.221   3.544 -0.5535 -0.0156 -0.5390
 5431SOL    HW117714   6.572   1.175   3.562 -0.4332 -0.0506 -0.0475
 5431SOL    HW217715   6.706   1.159   3.493 -0.5335 -0.2959 -0.1873
 5432SOL     OW17716   4.558   8.970   3.612  0.2119 -0.2490  0.6323
 5432SOL    HW117717   4.493   8.901   3.629 -1.0861  0.0899 -2.3285
 5432SOL    HW217718   4.629   8.925   3.565 -0.1000  0.2029 -0.2880
 5433SOL     OW17719   8.296   5.911   7.050 -0.3373 -0.5161  0.0762
 5433SOL    HW117720   8.221   5.889   6.994  0.4885  0.3825 -1.4793
 5433SOL    HW217721   8.301   6.006   7.046  0.9710 -0.5686  0.0099
 5434SOL     OW17722   6.412   4.348   4.644  0.0536 -0.3762 -0.0812
 5434SOL    HW117723   6.353   4.311   4.709 -2.2283  1.1971 -1.0959
 5434SOL    HW217724   6.361   4.348   4.563  1.2905  1.4825 -0.9315
 5435SOL     OW17725   3.643   1.838   0.437  0.3461  0.3177 -0.1312
 5435SOL    HW117726   3.664   1.926   0.467 -3.2459  1.0783  0.5879
 5435SOL    HW217727   3.687   1.780   0.500  3.7972  1.3694 -1.3163
 5436SOL     OW17728   0.518   7.950   1.755 -0.2223 -0.0221  0.4679
 5436SOL    HW117729   0.525   7.910   1.668  0.4846  0.0910  0.4694
 5436SOL    HW217730   0.572   7.894   1.811 -1.3851 -0.6214  1.0281
 5437SOL     OW17731   4.175   2.712   7.787  0.1804 -0.0848  0.5691
 5437SOL    HW117732   4.167   2.801   7.822 -0.8954 -0.4832  1.3802
 5437SOL    HW217733   4.186   2.657   7.864 -1.5392 -0.9023  0.2863
 5438SOL     OW17734   7.222   6.303   9.224  0.0555 -0.2391 -0.1614
 5438SOL    HW117735   7.242   6.354   9.146 -0.0188  1.1437  0.7017
 5438SOL    HW217736   7.156   6.354   9.270 -1.1329 -1.8380  0.0099
 5439SOL     OW17737   3.063   2.690   5.276 -0.1563 -0.0644 -0.3559
 5439SOL    HW117738   3.058   2.680   5.371  0.0451 -2.2885 -0.5394
 5439SOL    HW217739   3.156   2.680   5.255 -0.2684 -0.1441 -0.8406
 5440SOL     OW17740   1.274   3.843   4.557  0.4808 -0.3360 -0.1745
 5440SOL    HW117741   1.271   3.888   4.472 -0.5167  1.7710  0.9126
 5440SOL    HW217742   1.183   3.815   4.571  1.0531 -2.7189 -0.7684
 5441SOL     OW17743   0.100   2.286   8.714  0.1375 -0.0515  0.1845
 5441SOL    HW117744   0.190   2.271   8.685 -0.8222 -0.4845 -3.0394
 5441SOL    HW217745   0.089   2.227   8.789  2.0835 -1.1457 -0.3088
 5442SOL     OW17746   5.521   2.027   4.225  0.4118 -0.4103  0.2242
 5442SOL    HW117747   5.473   2.082   4.287 -0.8381  2.4739 -2.9786
 5442SOL    HW217748   5.461   1.955   4.205 -1.0659  1.0587 -0.8460
 5443SOL     OW17749   7.738   7.408   9.135 -0.3409  0.3522 -0.5396
 5443SOL    HW117750   7.761   7.373   9.221 -1.7355 -0.4838 -0.4907
 5443SOL    HW217751   7.802   7.368   9.075  0.0058  0.1571 -0.0481
 5444SOL     OW17752   4.576   4.250   8.200  0.2188 -0.3332 -0.3656
 5444SOL    HW117753   4.620   4.334   8.188  1.2882 -0.7208  0.5864
 5444SOL    HW217754   4.502   4.270   8.256  0.3538  0.0106 -0.3065
 5445SOL     OW17755   8.750   4.352   6.046  0.0191 -0.1348  0.5693
 5445SOL    HW117756   8.703   4.426   6.084 -1.0301  0.1554 -1.1728
 5445SOL    HW217757   8.818   4.392   5.992  0.0573 -0.4500  0.3787
 5446SOL     OW17758   0.645   7.806   5.468 -0.2582 -0.2608  0.2461
 5446SOL    HW117759   0.592   7.771   5.540 -0.6752  0.2666  0.1920
 5446SOL    HW217760   0.596   7.881   5.435  1.7777  2.0489  2.0318
 5447SOL     OW17761   4.148   8.443   2.481 -0.4381  0.1144 -0.0231
 5447SOL    HW117762   4.133   8.537   2.484 -0.5211  0.1590 -1.2368
 5447SOL    HW217763   4.102   8.408   2.557  0.2285  1.1256  0.8660
 5448SOL     OW17764   4.232   3.152   6.287 -0.4466  0.0730  0.6981
 5448SOL    HW117765   4.179   3.188   6.359  0.2386  1.2471  0.6430
 5448SOL    HW217766   4.248   3.227   6.230  2.4871  0.1239  1.4485
 5449SOL     OW17767   8.960   3.059   0.521  0.2881 -0.1593  0.4610
 5449SOL    HW117768   9.039   3.007   0.530  0.5117 -0.4820 -2.4896
 5449SOL    HW217769   8.990   3.150   0.526  0.3921 -0.2621  2.1361
 5450SOL     OW17770   3.798   8.494   8.337 -0.2942  0.0782  0.0877
 5450SOL    HW117771   3.828   8.569   8.286 -1.8325 -0.1953 -1.3197
 5450SOL    HW217772   3.831   8.417   8.289 -1.3816 -0.1768 -0.2721
 5451SOL     OW17773   3.369   5.964   4.362 -0.0062 -0.2181 -1.2395
 5451SOL    HW117774   3.439   6.029   4.365 -1.1771  1.1151 -1.6127
 5451SOL    HW217775   3.306   5.999   4.300 -1.6877 -0.6400  0.1385
 5452SOL     OW17776   4.632   7.294   7.508 -0.3762  0.1196  0.6397
 5452SOL    HW117777   4.603   7.380   7.478 -2.0397 -0.3156  0.8828
 5452SOL    HW217778   4.599   7.233   7.442 -0.9924 -0.5045  1.5002
 5453SOL     OW17779   7.783   4.220   1.681  0.4466  0.4351 -0.3240
 5453SOL    HW117780   7.863   4.241   1.632  1.7038  0.6913  1.7169
 5453SOL    HW217781   7.783   4.125   1.688  0.9677  0.4810  0.2996
 5454SOL     OW17782   1.338   4.996   0.230 -0.2894 -0.0955  0.1757
 5454SOL    HW117783   1.400   4.946   0.178  0.7121  2.1303 -0.9364
 5454SOL    HW217784   1.342   4.958   0.317  2.3455 -0.3076  0.0300
 5455SOL     OW17785   2.008   7.185   2.277  0.3021  0.3333 -0.0744
 5455SOL    HW117786   1.959   7.117   2.324 -1.2750  1.2114 -0.3603
 5455SOL    HW217787   2.074   7.215   2.340  0.4916 -0.8803  0.3330
 5456SOL     OW17788   7.892   0.017   7.704 -0.0597 -0.2308 -0.8759
 5456SOL    HW117789   7.838  -0.051   7.665 -0.9241  0.0255 -0.1554
 5456SOL    HW217790   7.852   0.034   7.789 -0.3013  1.6649 -1.3178
 5457SOL     OW17791   5.703   1.001   3.035  0.1392  0.1668 -0.2487
 5457SOL    HW117792   5.752   0.951   3.101 -2.2332  2.1169  3.3447
 5457SOL    HW217793   5.732   1.092   3.048 -0.3542  0.6040 -1.9974
 5458SOL     OW17794   5.768   2.681   1.437 -0.3620 -0.4572 -0.2619
 5458SOL    HW117795   5.789   2.688   1.530 -0.8714  0.3524 -0.2001
 5458SOL    HW217796   5.695   2.619   1.434  1.0379 -2.1895 -0.3489
 5459SOL     OW17797   7.806   4.141   8.252  0.4953 -0.6697 -0.4244
 5459SOL    HW117798   7.771   4.144   8.163  0.3710  1.1766 -0.3673
 5459SOL    HW217799   7.901   4.135   8.240  0.4200 -1.3886 -0.6632
 5460SOL     OW17800   3.792   3.787   0.215 -0.0675  0.2043 -0.0388
 5460SOL    HW117801   3.808   3.722   0.284 -0.2775 -1.2616 -1.3044
 5460SOL    HW217802   3.758   3.863   0.262 -0.0372 -0.6650  1.4919
 5461SOL     OW17803   2.408   5.619   5.445 -0.2409  0.3387  0.5060
 5461SOL    HW117804   2.504   5.626   5.449 -0.2142  0.9118 -0.7144
 5461SOL    HW217805   2.392   5.535   5.403 -0.2756  0.4356  0.3283
 5462SOL     OW17806   6.505   9.210   4.640 -0.0876 -0.5697 -0.1067
 5462SOL    HW117807   6.489   9.222   4.733  0.8780  0.1490 -0.0124
 5462SOL    HW217808   6.527   9.117   4.631 -0.0410 -0.6108  0.4066
 5463SOL     OW17809   7.814   7.650   3.560 -0.2039 -0.2867 -1.1015
 5463SOL    HW117810   7.771   7.664   3.645  1.3150 -1.5223 -0.0644
 5463SOL    HW217811   7.872   7.725   3.550 -0.4964 -0.0625 -1.1236
 5464SOL     OW17812   7.276   1.110   8.515  0.0069 -0.8759  0.4217
 5464SOL    HW117813   7.356   1.062   8.536  0.5608  0.2234  0.9059
 5464SOL    HW217814   7.241   1.138   8.599 -0.2709 -0.3824  0.1497
 5465SOL     OW17815   0.333   2.093   8.158  0.1349 -0.2209  0.2445
 5465SOL    HW117816   0.292   2.112   8.242 -0.1827 -0.2484  0.0948
 5465SOL    HW217817   0.313   2.001   8.141 -0.3929 -0.0337 -0.1882
 5466SOL     OW17818   2.140   0.478   3.210  0.2176  0.1328 -0.1526
 5466SOL    HW117819   2.185   0.544   3.263  1.8335 -0.5753 -0.5947
 5466SOL    HW217820   2.208   0.440   3.155 -1.1436 -0.1793 -1.7196
 5467SOL     OW17821   4.392   7.579   0.873 -0.0360 -0.7934  0.5524
 5467SOL    HW117822   4.452   7.609   0.942  0.4596 -0.1448 -0.1320
 5467SOL    HW217823   4.449   7.536   0.809 -0.1344  0.6532 -0.5633
 5468SOL     OW17824   6.450   7.766   7.187  0.1753 -0.3550 -0.0430
 5468SOL    HW117825   6.466   7.812   7.105 -1.5849 -0.4397 -0.4832
 5468SOL    HW217826   6.407   7.684   7.160  0.9431 -1.0842  0.8814
 5469SOL     OW17827   3.000   9.148   5.576 -0.3423  0.4809 -0.0949
 5469SOL    HW117828   3.007   9.056   5.554  1.3607 -0.3158  3.1515
 5469SOL    HW217829   2.920   9.155   5.628  1.1634  0.0622  2.4238
 5470SOL     OW17830   5.491   4.181   4.846 -0.0886  0.0806  0.1900
 5470SOL    HW117831   5.448   4.205   4.764  2.4978 -1.1850 -1.6698
 5470SOL    HW217832   5.577   4.148   4.820  1.3930  0.8606  3.5340
 5471SOL     OW17833   5.405   8.270   9.034 -0.3661  0.0165  0.2041
 5471SOL    HW117834   5.316   8.267   9.069 -0.5317 -0.4520 -0.2337
 5471SOL    HW217835   5.451   8.331   9.090 -1.2526  1.1308 -0.2335
 5472SOL     OW17836   0.263   8.004   2.950  0.0662  0.0704 -0.4023
 5472SOL    HW117837   0.202   7.931   2.962  1.8925 -1.8955 -2.2681
 5472SOL    HW217838   0.229   8.052   2.874  1.9636 -2.4524 -3.0192
 5473SOL     OW17839   0.114   2.744   4.688  0.1926  0.1725 -0.1003
 5473SOL    HW117840   0.155   2.704   4.611 -0.3977 -0.8593  0.1024
 5473SOL    HW217841   0.165   2.711   4.762 -1.6239 -2.0964  0.2616
 5474SOL     OW17842   2.070   9.083   7.123 -0.4302  0.1208 -0.0169
 5474SOL    HW117843   2.106   9.129   7.199 -0.1344  0.2665 -0.2435
 5474SOL    HW217844   2.088   8.991   7.140 -0.2528  0.1634  0.0340
 5475SOL     OW17845   4.335   5.143   5.138  0.1520 -0.7168  0.3104
 5475SOL    HW117846   4.276   5.176   5.205  0.8782 -0.0988  0.6565
 5475SOL    HW217847   4.423   5.167   5.169  0.4880 -0.2146 -0.9742
 5476SOL     OW17848   2.468   4.160   6.974 -0.2359  0.0589 -0.1364
 5476SOL    HW117849   2.465   4.236   6.916 -0.9051  0.5001  0.4562
 5476SOL    HW217850   2.432   4.191   7.057  1.5409 -0.3119  0.8156
 5477SOL     OW17851   5.364   5.592   4.309  0.4736 -0.4032 -0.4361
 5477SOL    HW117852   5.371   5.539   4.229 -0.0169  0.0128 -0.7637
 5477SOL    HW217853   5.298   5.546   4.362  0.6295 -0.5523 -0.3700
 5478SOL     OW17854   3.501   1.934   9.278  0.1865 -0.5814 -0.3670
 5478SOL    HW117855   3.463   1.846   9.284 -1.3046 -0.0486 -1.2671
 5478SOL    HW217856   3.573   1.924   9.216  0.6520 -1.3457  0.2729
 5479SOL     OW17857   5.134   0.415   9.174  0.1134  0.0624  0.3571
 5479SOL    HW117858   5.134   0.402   9.079  1.1485 -0.0425  0.3568
 5479SOL    HW217859   5.106   0.331   9.210  2.1775 -0.7447  0.2038
 5480SOL     OW17860   5.194   0.972   3.418  0.2069 -0.1518 -0.4692
 5480SOL    HW117861   5.263   1.037   3.406 -0.1218  0.0319 -1.4644
 5480SOL    HW217862   5.226   0.916   3.488  0.5022  1.0675  0.3983
 5481SOL     OW17863   4.898   0.176   5.017 -0.2542 -0.1149  0.5775
 5481SOL    HW117864   4.913   0.253   4.962 -0.7907 -1.4607 -1.6125
 5481SOL    HW217865   4.968   0.115   4.992 -0.6280 -0.8409  1.2496
 5482SOL     OW17866   6.689   8.613   4.389  0.4819 -0.3697 -0.0369
 5482SOL    HW117867   6.628   8.540   4.373 -0.3106  0.2458  0.1398
 5482SOL    HW217868   6.734   8.625   4.306 -0.2476 -0.2827 -0.4291
 5483SOL     OW17869   2.670   6.633   9.067 -0.1707 -0.6766  0.1895
 5483SOL    HW117870   2.763   6.627   9.088 -0.2567 -3.0703  0.1825
 5483SOL    HW217871   2.659   6.578   8.989 -1.4441  0.4228 -0.4653
 5484SOL     OW17872   1.452   4.980   3.772 -0.0458  0.0146  0.0108
 5484SOL    HW117873   1.439   5.064   3.816  0.2215  0.3036 -0.4497
 5484SOL    HW217874   1.510   4.931   3.831  0.2939  0.3895 -0.0045
 5485SOL     OW17875   5.548   4.634   4.954  0.4741 -0.5538 -0.0173
 5485SOL    HW117876   5.505   4.610   5.037 -0.6522 -1.1318 -0.7420
 5485SOL    HW217877   5.514   4.721   4.934  1.7029  0.1299  0.7263
 5486SOL     OW17878   6.921   7.003   3.217 -0.1764  1.2608  0.5802
 5486SOL    HW117879   6.968   6.961   3.145 -1.6457 -0.8934  0.7765
 5486SOL    HW217880   6.972   6.980   3.295 -0.3347  0.8319  0.5593
 5487SOL     OW17881   6.215   3.379   7.974 -0.0022 -0.1516  0.7846
 5487SOL    HW117882   6.296   3.429   7.973 -0.3656  0.4884  1.7373
 5487SOL    HW217883   6.171   3.407   8.054 -0.9019 -0.9063  0.5671
 5488SOL     OW17884   4.633   8.404   4.023  0.0786  0.0857  0.0531
 5488SOL    HW117885   4.656   8.492   4.053  1.7354 -0.5364  0.7203
 5488SOL    HW217886   4.692   8.387   3.950 -1.1932  0.0365 -1.0009
 5489SOL     OW17887   5.691   8.588   7.987 -0.0362  0.0186 -0.9884
 5489SOL    HW117888   5.769   8.628   7.948  0.7696 -0.8422 -0.3282
 5489SOL    HW217889   5.714   8.495   7.994 -0.3494  0.0482  0.9899
 5490SOL     OW17890   6.287   4.917   4.960 -0.0074 -0.3346  0.1070
 5490SOL    HW117891   6.201   4.948   4.987 -0.5844 -0.1219 -1.8417
 5490SOL    HW217892   6.348   4.972   5.009 -0.9970  0.5009  0.4422
 5491SOL     OW17893   5.310   3.730   4.808  0.4454 -0.1308  0.1477
 5491SOL    HW117894   5.301   3.699   4.718  1.6125  0.5710 -0.2429
 5491SOL    HW217895   5.405   3.729   4.824  0.2739  0.0709  1.2508
 5492SOL     OW17896   1.237   7.482   1.869 -0.1278  0.1703 -0.3372
 5492SOL    HW117897   1.265   7.456   1.956  1.2531 -1.7255 -1.2768
 5492SOL    HW217898   1.258   7.576   1.863  0.7444  0.0715  0.9680
 5493SOL     OW17899   0.604   7.625   0.876 -0.3318 -0.0314  0.3005
 5493SOL    HW117900   0.698   7.612   0.888 -0.0657  0.5979 -0.8893
 5493SOL    HW217901   0.568   7.625   0.964  0.7517 -0.5154  0.7578
 5494SOL     OW17902   1.021   0.414   0.392  0.0617  0.2887 -0.3346
 5494SOL    HW117903   0.965   0.467   0.449 -1.4129 -2.0675  0.5466
 5494SOL    HW217904   0.985   0.426   0.304  1.1212  2.3926 -0.5377
 5495SOL     OW17905   5.768   5.669   0.051  0.0750  0.2911 -0.0497
 5495SOL    HW117906   5.863   5.677   0.063  0.4458 -0.7652 -2.0456
 5495SOL    HW217907   5.756   5.586   0.007 -1.8799  0.0667  0.8279
 5496SOL     OW17908   1.378   3.380   4.489  0.3565  0.0584 -0.3153
 5496SOL    HW117909   1.338   3.300   4.522 -0.5991  0.0823 -1.3682
 5496SOL    HW217910   1.306   3.443   4.485  0.7811  0.5184 -0.9183
 5497SOL     OW17911   9.141   6.894   6.791 -0.8212 -0.0976  0.5974
 5497SOL    HW117912   9.046   6.879   6.800 -0.9574 -0.1888 -0.7755
 5497SOL    HW217913   9.154   6.908   6.697  0.4182  0.7575  0.8764
 5498SOL     OW17914   8.639   4.873   0.890 -0.0410 -0.0508 -0.2042
 5498SOL    HW117915   8.588   4.845   0.966 -0.4783  0.7870 -0.1717
 5498SOL    HW217916   8.582   4.935   0.845  1.5339  2.2193  0.7250
 5499SOL     OW17917   7.827   0.547   4.403  0.5191 -0.1516 -0.0795
 5499SOL    HW117918   7.772   0.534   4.326  1.3580  2.4920 -1.2616
 5499SOL    HW217919   7.775   0.603   4.461  0.5835 -0.6670  0.4907
 5500SOL     OW17920   9.255   3.116   4.068  0.1691  0.5121  0.5385
 5500SOL    HW117921   9.189   3.134   4.000  1.0395 -0.1831 -0.5133
 5500SOL    HW217922   9.323   3.182   4.053  0.3374  0.3989  0.8003
 5501SOL     OW17923   1.051   8.924   2.726 -0.4821  0.1678 -0.1707
 5501SOL    HW117924   1.044   9.019   2.738 -0.9774 -0.0945  2.2216
 5501SOL    HW217925   0.968   8.898   2.686 -0.7694  0.6247  0.1289
 5502SOL     OW17926   6.335   2.872   3.486 -0.1537  0.0156 -0.0590
 5502SOL    HW117927   6.408   2.932   3.470 -1.1124  1.7739  1.7634
 5502SOL    HW217928   6.370   2.786   3.466  2.5519  0.7598  1.0549
 5503SOL     OW17929   3.450   4.958   3.173  0.2222  0.4427 -0.1157
 5503SOL    HW117930   3.431   5.028   3.110 -0.6727 -1.1599 -1.6906
 5503SOL    HW217931   3.517   4.905   3.131  0.8547  0.2727  1.0436
 5504SOL     OW17932   1.156   6.490   8.044  0.5141 -0.6308  0.5611
 5504SOL    HW117933   1.150   6.561   8.108 -0.5879  1.0664 -1.2884
 5504SOL    HW217934   1.248   6.489   8.019  0.3257  1.2224 -0.4295
 5505SOL     OW17935   9.105   8.045   1.516 -0.4147  0.0042 -0.2285
 5505SOL    HW117936   9.096   8.041   1.421 -1.6823 -1.0935 -0.1055
 5505SOL    HW217937   9.050   8.119   1.542 -0.1664  0.2289 -0.3482
 5506SOL     OW17938   9.084   1.375   0.957  0.5880 -0.4354 -0.0959
 5506SOL    HW117939   9.168   1.386   0.914  0.0105  1.0955 -0.8750
 5506SOL    HW217940   9.031   1.326   0.894  0.9249 -1.5940  0.4825
 5507SOL     OW17941   1.095   1.731   4.762 -0.1475  0.0272  0.1197
 5507SOL    HW117942   1.010   1.740   4.805 -0.0552  0.2706  0.2517
 5507SOL    HW217943   1.145   1.807   4.791  0.3053 -0.4045  0.4821
 5508SOL     OW17944   3.711   8.325   8.850 -0.6456  0.0366  0.0360
 5508SOL    HW117945   3.799   8.325   8.889  0.0001  0.9373 -1.3445
 5508SOL    HW217946   3.659   8.269   8.908  0.4994  0.5526  1.6244
 5509SOL     OW17947   3.754   5.719   3.777 -0.2724 -0.0983  0.0075
 5509SOL    HW117948   3.763   5.810   3.806  1.9931  0.3260 -1.7697
 5509SOL    HW217949   3.673   5.718   3.726 -0.8929  0.6186  0.9285
 5510SOL     OW17950   3.510   5.726   4.196 -0.5437  0.1642 -0.2120
 5510SOL    HW117951   3.479   5.798   4.250 -0.2503  0.4764 -0.4546
 5510SOL    HW217952   3.606   5.735   4.197 -0.4755 -0.4999  0.1379
 5511SOL     OW17953   8.496   7.903   4.054  0.3523 -0.7277  0.3368
 5511SOL    HW117954   8.408   7.928   4.028  0.1980 -1.2063  0.3914
 5511SOL    HW217955   8.499   7.808   4.042  0.7518 -0.7597  0.6494
 5512SOL     OW17956   2.682   5.249   5.289  0.5220  0.1031  0.0436
 5512SOL    HW117957   2.697   5.272   5.198 -0.2109 -1.5815 -0.5431
 5512SOL    HW217958   2.768   5.254   5.330  1.3103 -1.4401 -1.3238
 5513SOL     OW17959   5.908   0.344   0.226  0.1986 -0.0226 -0.3746
 5513SOL    HW117960   5.925   0.379   0.138  2.3403 -1.7093 -0.7136
 5513SOL    HW217961   5.981   0.286   0.243 -2.1380 -2.8369  0.9434
 5514SOL     OW17962   3.202   3.365   6.033 -0.0349  0.0142 -0.0291
 5514SOL    HW117963   3.286   3.319   6.031  0.8873  1.6117  0.6148
 5514SOL    HW217964   3.138   3.296   6.052  0.9854 -1.3815 -1.4159
 5515SOL     OW17965   6.245   3.553   2.346 -0.1704 -0.0839 -0.2992
 5515SOL    HW117966   6.209   3.469   2.372 -2.9458  1.0209 -0.2421
 5515SOL    HW217967   6.186   3.618   2.385  1.0738  1.8567 -1.4562
 5516SOL     OW17968   3.544   8.778   0.255 -0.0673 -0.4836 -0.3893
 5516SOL    HW117969   3.522   8.686   0.242  0.2931 -0.6839  0.3428
 5516SOL    HW217970   3.612   8.795   0.190 -0.1899 -0.7130 -0.5806
 5517SOL     OW17971   8.487   5.485   0.352 -0.0471  0.0993 -0.4521
 5517SOL    HW117972   8.444   5.399   0.356 -0.2992  0.2269 -0.3887
 5517SOL    HW217973   8.473   5.514   0.262 -1.6643  0.9330  0.0318
 5518SOL     OW17974   4.336   0.912   4.956  0.0329 -0.4457 -0.3093
 5518SOL    HW117975   4.307   0.821   4.959  0.5599 -0.5998  0.6203
 5518SOL    HW217976   4.342   0.938   5.048 -0.4845  0.6571 -0.5689
 5519SOL     OW17977   3.558   1.482   0.205 -0.0497 -0.4517  0.0870
 5519SOL    HW117978   3.569   1.387   0.200  1.7270 -0.2445 -0.6639
 5519SOL    HW217979   3.630   1.512   0.260 -1.5649  0.3518  1.7496
 5520SOL     OW17980   1.593   4.092   0.224  0.3470  0.7829  0.1755
 5520SOL    HW117981   1.682   4.120   0.200  0.5295  0.4692  0.4716
 5520SOL    HW217982   1.595   3.997   0.218  0.6846  0.5960  2.2909
 5521SOL     OW17983   9.060   7.395   1.946 -0.6278  0.8303 -0.0663
 5521SOL    HW117984   9.066   7.488   1.968 -0.4598  1.2957 -1.9347
 5521SOL    HW217985   9.138   7.356   1.987 -0.4371  1.5915  0.3159
 5522SOL     OW17986   3.602   4.127   0.717 -0.1905  0.2809 -0.3495
 5522SOL    HW117987   3.608   4.043   0.670 -0.1033 -0.3359  0.7260
 5522SOL    HW217988   3.510   4.151   0.712 -0.2666 -0.0203 -0.4331
 5523SOL     OW17989   0.615   0.854   0.323  0.2985  0.1175 -0.0294
 5523SOL    HW117990   0.689   0.910   0.350  0.9130  0.0853 -1.5790
 5523SOL    HW217991   0.537   0.905   0.346  0.7946  0.4599  0.9765
 5524SOL     OW17992   2.181   7.981   6.652  0.1522  0.1967 -0.4187
 5524SOL    HW117993   2.129   7.923   6.596 -1.7016  0.2584  1.1260
 5524SOL    HW217994   2.238   8.029   6.592  1.6668 -3.0238 -1.8006
 5525SOL     OW17995   3.452   0.418   8.425  0.1168 -0.3185 -0.0741
 5525SOL    HW117996   3.482   0.350   8.486  1.1052  0.6876  0.5930
 5525SOL    HW217997   3.417   0.487   8.482 -0.4313 -0.0482 -0.7302
 5526SOL     OW17998   7.572   4.763   3.955  0.1696 -0.0226  0.1809
 5526SOL    HW117999   7.654   4.742   3.998  0.4464  1.8849  0.6719
 5526SOL    HW218000   7.504   4.730   4.014  0.5708  1.0924  1.3022
 5527SOL     OW18001   8.301   8.254   1.223 -0.0189  0.0956 -0.2961
 5527SOL    HW118002   8.375   8.312   1.242 -0.6132  0.5539  0.7348
 5527SOL    HW218003   8.224   8.308   1.241 -0.5856 -0.9440  0.5008
 5528SOL     OW18004   6.027   5.224   4.583 -0.5566  0.3307  0.0927
 5528SOL    HW118005   5.996   5.138   4.553 -0.4699  0.6271 -0.8862
 5528SOL    HW218006   6.110   5.206   4.627 -1.3879 -0.2923  1.4449
 5529SOL     OW18007   0.433   3.220   7.610  0.0111 -0.6680  0.4560
 5529SOL    HW118008   0.413   3.142   7.558  1.5669 -0.5770 -0.3319
 5529SOL    HW218009   0.526   3.236   7.594 -0.4418  1.8158 -0.0371
 5530SOL     OW18010   6.522   5.305   1.571 -0.5546 -0.4099 -0.3511
 5530SOL    HW118011   6.511   5.237   1.638  0.6069 -1.1780 -0.9080
 5530SOL    HW218012   6.603   5.281   1.526  0.3653  1.8327 -0.0142
 5531SOL     OW18013   8.879   7.184   3.968 -0.1183 -0.5533 -0.2269
 5531SOL    HW118014   8.795   7.229   3.969  0.1662 -0.0009 -0.6110
 5531SOL    HW218015   8.867   7.111   3.907  0.2824  0.7501 -1.9603
 5532SOL     OW18016   1.127   5.961   4.592  0.0824 -0.2411  0.1868
 5532SOL    HW118017   1.050   5.997   4.637  0.8769  0.1730  1.2622
 5532SOL    HW218018   1.128   6.004   4.507  1.0186  2.3966  1.4341
 5533SOL     OW18019   2.415   5.091   8.373 -0.9000 -0.5491 -0.5136
 5533SOL    HW118020   2.329   5.071   8.337 -0.8239 -1.5118 -0.1986
 5533SOL    HW218021   2.472   5.021   8.340 -0.6769 -1.0623  0.8607
 5534SOL     OW18022   4.568   6.867   4.930  0.0318  0.2953  0.4917
 5534SOL    HW118023   4.554   6.960   4.911  0.6289  0.2219 -0.3760
 5534SOL    HW218024   4.620   6.867   5.010 -0.1079  0.7037  0.5879
 5535SOL     OW18025   7.581   3.956   1.117 -0.0135 -0.2380 -0.3330
 5535SOL    HW118026   7.565   3.915   1.202  3.1267 -1.8404 -0.3805
 5535SOL    HW218027   7.594   4.048   1.137 -0.2596 -0.4318  0.7886
 5536SOL     OW18028   2.059   6.940   0.454 -0.4923  0.5027 -0.2923
 5536SOL    HW118029   2.109   6.903   0.527 -0.9996 -0.2513 -0.3140
 5536SOL    HW218030   2.089   6.891   0.377  0.3456  1.5804 -0.6722
 5537SOL     OW18031   3.615   4.114   2.269  0.0600  0.1685  0.2532
 5537SOL    HW118032   3.678   4.162   2.215 -2.0186  2.6701 -0.1447
 5537SOL    HW218033   3.533   4.119   2.220 -0.8766 -1.4819  1.5560
 5538SOL     OW18034   4.400   4.091   3.151 -0.6633  0.7087  0.2782
 5538SOL    HW118035   4.416   4.179   3.186 -1.6591  1.1571 -0.3299
 5538SOL    HW218036   4.304   4.083   3.152 -0.5669 -0.9541  1.7051
 5539SOL     OW18037   7.404   6.837   2.992  0.3351 -0.1352 -0.9598
 5539SOL    HW118038   7.441   6.842   3.080 -2.4233  2.2683  0.2376
 5539SOL    HW218039   7.446   6.761   2.952  2.0021 -1.0786  2.2650
 5540SOL     OW18040   2.180   6.016   0.703  0.1058  0.5692 -0.0866
 5540SOL    HW118041   2.189   6.085   0.638 -0.6789 -1.5982 -2.6936
 5540SOL    HW218042   2.262   5.968   0.699 -0.4807 -0.4384 -0.6230
 5541SOL     OW18043   0.882   3.203   4.226 -0.3103 -0.1326 -0.0221
 5541SOL    HW118044   0.796   3.190   4.266  0.1866  2.1195  2.0326
 5541SOL    HW218045   0.863   3.223   4.134 -2.2650  2.5037  0.8264
 5542SOL     OW18046   3.894   0.103   8.307  0.1365  0.5754  0.4508
 5542SOL    HW118047   3.806   0.141   8.302  0.3141  0.8720 -0.7354
 5542SOL    HW218048   3.880   0.009   8.301 -0.1472  0.5666  1.1177
 5543SOL     OW18049   0.427   0.742   2.552 -0.2187 -0.0783  0.4219
 5543SOL    HW118050   0.509   0.768   2.510  0.1674  0.8266  1.6392
 5543SOL    HW218051   0.362   0.802   2.517 -0.0491  0.1750  0.5329
 5544SOL     OW18052   3.599   4.599   8.917  0.8692  0.0849  0.4343
 5544SOL    HW118053   3.590   4.690   8.946 -2.5080 -0.1041  0.3619
 5544SOL    HW218054   3.636   4.606   8.829 -0.6523  1.5324 -0.1509
 5545SOL     OW18055   1.912   2.654   5.994  0.0559  0.3815  0.5343
 5545SOL    HW118056   1.924   2.602   5.915 -0.5521 -2.3316  2.0910
 5545SOL    HW218057   1.880   2.739   5.963  1.0184 -0.1406 -2.1557
 5546SOL     OW18058   3.816   0.130   5.206 -0.6349  0.2671  0.0327
 5546SOL    HW118059   3.844   0.079   5.130  2.1521 -1.0931  1.7645
 5546SOL    HW218060   3.749   0.189   5.173 -1.0107 -1.6316 -3.0062
 5547SOL     OW18061   6.608   4.935   8.666  0.3093  0.3406  0.3468
 5547SOL    HW118062   6.700   4.950   8.647  0.7752  2.4933  3.4404
 5547SOL    HW218063   6.569   5.023   8.664 -1.0009 -0.1548  1.8409
 5548SOL     OW18064   6.135   0.902   6.827  0.1244 -0.6406 -0.3804
 5548SOL    HW118065   6.154   0.996   6.821  0.8559 -0.8245 -1.0627
 5548SOL    HW218066   6.217   0.863   6.857 -0.4623 -0.9658  0.8837
 5549SOL     OW18067   1.098   3.613   0.209  0.5299 -0.3198 -0.5562
 5549SOL    HW118068   1.154   3.657   0.145 -0.5900  2.1860  0.0768
 5549SOL    HW218069   1.010   3.645   0.190 -0.3588 -2.2481  0.0495
 5550SOL     OW18070   6.007   0.295   7.357  0.1210 -0.0557 -0.3979
 5550SOL    HW118071   6.082   0.280   7.414  0.4820  1.3207 -0.4809
 5550SOL    HW218072   5.942   0.338   7.412 -0.8247 -1.6338 -0.2087
 5551SOL     OW18073   4.087   8.133   1.543 -0.2883 -0.6379 -0.0948
 5551SOL    HW118074   4.002   8.109   1.581 -1.0197  2.7493  0.8191
 5551SOL    HW218075   4.149   8.125   1.615 -0.4696 -0.1592  0.1207
 5552SOL     OW18076   4.709   4.503   3.810  0.0977 -0.5972  0.4427
 5552SOL    HW118077   4.658   4.500   3.729  2.7604 -0.8472 -1.3376
 5552SOL    HW218078   4.734   4.412   3.827  0.6688 -0.3864  0.7725
 5553SOL     OW18079   7.852   3.146   6.819 -0.0284 -0.3808  0.6108
 5553SOL    HW118080   7.915   3.152   6.748 -1.2197  2.0179 -0.3600
 5553SOL    HW218081   7.793   3.075   6.792 -0.7374  0.7969 -1.0966
 5554SOL     OW18082   6.798   9.261   2.894  1.0286  0.7981 -0.3221
 5554SOL    HW118083   6.787   9.167   2.911  0.8098  0.9839  0.6203
 5554SOL    HW218084   6.891   9.271   2.875  1.0646  0.4066 -0.3669
 5555SOL     OW18085   7.372   7.741   2.120 -0.3786 -0.2366 -0.4241
 5555SOL    HW118086   7.346   7.658   2.080 -0.2424 -0.5301  0.0841
 5555SOL    HW218087   7.295   7.798   2.111  0.0088  0.0958 -2.1089
 5556SOL     OW18088   7.258   8.620   3.777  0.0338  0.2241  0.2295
 5556SOL    HW118089   7.334   8.673   3.799 -0.8327  2.2052 -1.2623
 5556SOL    HW218090   7.294   8.535   3.752  1.6254  0.7049  0.7797
 5557SOL     OW18091   8.479   7.018   2.284 -0.2183 -0.0061 -0.3775
 5557SOL    HW118092   8.529   7.020   2.365  0.8071  2.2795 -0.9871
 5557SOL    HW218093   8.482   6.926   2.256  1.6913 -0.3498  0.7916
 5558SOL     OW18094   0.350   0.499   8.805 -0.2543 -0.2221 -0.3111
 5558SOL    HW118095   0.435   0.543   8.804  1.6031 -3.2557  2.6867
 5558SOL    HW218096   0.298   0.551   8.866  0.5974 -0.0893  0.3253
 5559SOL     OW18097   6.074   5.886   5.228 -0.2259  0.0585 -0.0806
 5559SOL    HW118098   6.023   5.882   5.308 -0.4098 -0.4575 -0.2193
 5559SOL    HW218099   6.011   5.870   5.158  0.6865 -5.4146 -0.0664
 5560SOL     OW18100   2.303   0.166   8.396  0.4027 -0.5485 -0.3813
 5560SOL    HW118101   2.338   0.148   8.483 -1.0052 -0.1730  0.2836
 5560SOL    HW218102   2.277   0.258   8.399 -3.4336 -1.5055  0.2170
 5561SOL     OW18103   7.266   3.079   0.284 -0.1644  0.8268  0.0666
 5561SOL    HW118104   7.307   2.997   0.311 -0.0525 -0.3055 -3.1050
 5561SOL    HW218105   7.323   3.112   0.214 -0.9106  2.9559  0.4050
 5562SOL     OW18106   2.978   5.464   3.602  0.0655 -0.3101 -0.4450
 5562SOL    HW118107   3.010   5.501   3.520 -0.6375 -0.5771 -0.8543
 5562SOL    HW218108   2.892   5.427   3.579 -2.0059  3.0063  1.2388
 5563SOL     OW18109   5.210   4.986   8.908 -0.1111  0.1704  0.1477
 5563SOL    HW118110   5.155   5.038   8.967  1.0436 -1.0535  2.4427
 5563SOL    HW218111   5.175   5.004   8.821 -2.2335  1.7005  1.2174
 5564SOL     OW18112   0.219   5.885   7.086 -0.9104 -0.7732 -0.0579
 5564SOL    HW118113   0.161   5.809   7.080 -1.9869  0.0549 -0.6078
 5564SOL    HW218114   0.284   5.871   7.017 -2.0181 -0.5005 -1.2240
 5565SOL     OW18115   0.731   5.110   7.466 -0.4518 -0.3294 -0.0624
 5565SOL    HW118116   0.732   5.054   7.544  1.3867 -0.6807 -0.2717
 5565SOL    HW218117   0.662   5.074   7.410 -1.2402 -0.5733  1.0424
 5566SOL     OW18118   5.583   1.618   8.023 -0.2241  0.1312  0.3934
 5566SOL    HW118119   5.497   1.589   7.993 -0.1008 -0.5246  0.6371
 5566SOL    HW218120   5.583   1.713   8.011 -1.5247  0.3459  1.7242
 5567SOL     OW18121   8.352   0.095   1.486 -0.3295 -0.2536 -0.2404
 5567SOL    HW118122   8.321   0.064   1.571 -0.1672 -0.9262 -0.4201
 5567SOL    HW218123   8.281   0.150   1.453 -1.6671 -2.2207 -0.9021
 5568SOL     OW18124   4.129   6.912   7.823 -0.7070 -0.0289 -0.4480
 5568SOL    HW118125   4.081   6.985   7.861  2.0895  1.4852  0.4433
 5568SOL    HW218126   4.188   6.883   7.893  1.1245 -0.4139 -2.0701
 5569SOL     OW18127   4.265   8.434   8.844 -0.2516 -0.0196 -0.0166
 5569SOL    HW118128   4.261   8.527   8.825 -0.6095 -0.1916 -0.7875
 5569SOL    HW218129   4.266   8.391   8.759 -3.7219 -0.8806  0.2401
 5570SOL     OW18130   6.550   4.001   1.980  0.1572 -0.1874  0.3649
 5570SOL    HW118131   6.561   3.923   1.926 -0.5338 -0.1542  0.1766
 5570SOL    HW218132   6.631   4.005   2.032  0.2022 -1.0118  0.3692
 5571SOL     OW18133   7.677   5.572   0.167  0.1611  0.0592  0.0581
 5571SOL    HW118134   7.593   5.562   0.122 -0.3183  1.3704  0.5935
 5571SOL    HW218135   7.666   5.524   0.249 -0.2865  0.6734  0.3703
 5572SOL     OW18136   2.050   7.475   0.800 -0.5006 -0.3390 -0.0323
 5572SOL    HW118137   2.031   7.382   0.808  0.4538 -0.6520 -1.1113
 5572SOL    HW218138   1.965   7.517   0.791 -1.2716 -0.6496  3.9093
 5573SOL     OW18139   7.733   3.130   7.754 -0.2290 -0.2313 -0.2402
 5573SOL    HW118140   7.725   3.195   7.684  1.0006 -0.3186 -0.4832
 5573SOL    HW218141   7.825   3.106   7.753 -0.7321 -2.2956 -0.4236
 5574SOL     OW18142   4.197   3.696   7.642 -0.4073  0.3931 -0.0841
 5574SOL    HW118143   4.198   3.613   7.690  0.0242  1.2618  1.4758
 5574SOL    HW218144   4.127   3.685   7.578 -2.0258 -0.3111  1.6984
 5575SOL     OW18145   8.638   6.996   2.504  0.2415 -0.2461  0.3896
 5575SOL    HW118146   8.637   6.959   2.592  1.6350  0.1639  0.6039
 5575SOL    HW218147   8.678   7.082   2.515  0.1109 -0.0469 -0.5984
 5576SOL     OW18148   6.147   8.874   2.292 -0.2369  0.5804 -0.6900
 5576SOL    HW118149   6.058   8.839   2.292 -0.7334  1.7837 -0.4606
 5576SOL    HW218150   6.179   8.858   2.381  0.4351 -1.3632 -1.2236
 5577SOL     OW18151   8.110   7.232   3.065 -0.2281  0.7801  0.3067
 5577SOL    HW118152   8.042   7.232   2.998 -0.9109 -1.1983  0.8988
 5577SOL    HW218153   8.062   7.218   3.147  0.8976 -1.6124  0.6406
 5578SOL     OW18154   0.662   6.470   6.545  0.0867  0.2702  0.1426
 5578SOL    HW118155   0.739   6.439   6.592  0.7466  0.7699 -0.5765
 5578SOL    HW218156   0.602   6.499   6.613 -0.3896 -2.1139  0.8525
 5579SOL     OW18157   8.308   1.813   3.683  0.5013 -0.2887  0.2483
 5579SOL    HW118158   8.313   1.813   3.779 -0.6581  1.5998  0.3614
 5579SOL    HW218159   8.252   1.739   3.662 -1.6784  0.9762  1.2699
 5580SOL     OW18160   6.413   4.536   7.131 -0.1393 -0.0818 -0.7959
 5580SOL    HW118161   6.429   4.626   7.101 -0.6839  0.9623  1.7570
 5580SOL    HW218162   6.355   4.499   7.064  0.2154  1.3964 -1.9966
 5581SOL     OW18163   7.340   3.060   8.928  0.1125 -0.8679  0.0585
 5581SOL    HW118164   7.306   3.093   9.011  0.6457 -0.0703 -0.0346
 5581SOL    HW218165   7.335   2.965   8.937  0.1987 -0.7935  1.0227
 5582SOL     OW18166   3.439   6.698   5.004  0.4088 -0.1767 -0.6717
 5582SOL    HW118167   3.422   6.647   4.925  1.0593 -2.9363  0.8344
 5582SOL    HW218168   3.532   6.719   5.000  0.2629  0.4077 -1.0268
 5583SOL     OW18169   1.651   4.816   1.169 -0.4805  0.1766  0.2775
 5583SOL    HW118170   1.559   4.792   1.171 -0.0202 -1.7354  1.8247
 5583SOL    HW218171   1.693   4.757   1.233  1.8517  0.7676 -0.5936
 5584SOL     OW18172   3.764   7.844   3.391  0.3267  0.2999 -0.3063
 5584SOL    HW118173   3.824   7.869   3.461  0.7993 -0.1139 -0.5543
 5584SOL    HW218174   3.695   7.910   3.394 -0.1223 -0.1988  1.1031
 5585SOL     OW18175   7.296   3.653   1.738  0.0735 -0.0911 -0.0066
 5585SOL    HW118176   7.210   3.658   1.780  0.2641  0.2383  0.3479
 5585SOL    HW218177   7.331   3.742   1.742  0.5008 -0.2543  0.0048
 5586SOL     OW18178   8.164   6.135   5.158  0.3534 -0.3104  0.2801
 5586SOL    HW118179   8.110   6.130   5.237 -0.3381 -0.0645 -0.1705
 5586SOL    HW218180   8.253   6.152   5.191  0.3711 -1.8161  1.0964
 5587SOL     OW18181   9.042   4.596   5.670  0.2360  0.1074 -0.0972
 5587SOL    HW118182   9.041   4.680   5.624 -1.2535 -0.2081 -0.7047
 5587SOL    HW218183   9.128   4.592   5.711  0.0551  2.2953  0.6227
 5588SOL     OW18184   1.635   6.787   0.790  0.1800  0.8977 -0.1644
 5588SOL    HW118185   1.702   6.720   0.805 -0.7107 -0.4393 -1.7647
 5588SOL    HW218186   1.639   6.804   0.696 -0.8578  1.7646 -0.0723
 5589SOL     OW18187   6.479   3.579   3.706  0.8016  0.0265 -0.3979
 5589SOL    HW118188   6.420   3.564   3.632  1.7767 -1.2145 -0.9623
 5589SOL    HW218189   6.532   3.653   3.678  1.0162 -0.2927 -0.8613
 5590SOL     OW18190   6.193   4.256   3.906  0.2416 -0.4216  0.2039
 5590SOL    HW118191   6.164   4.326   3.848 -0.4349 -1.7475 -1.1240
 5590SOL    HW218192   6.137   4.182   3.884  1.3224 -1.5581  1.1407
 5591SOL     OW18193   2.375   3.999   2.219  0.0237  0.2053  0.2449
 5591SOL    HW118194   2.384   4.073   2.279 -1.5227 -0.5923  1.5281
 5591SOL    HW218195   2.317   4.032   2.150 -1.0111  0.0929  1.0363
 5592SOL     OW18196   7.970   7.794   4.557 -0.0423 -0.0751 -0.1284
 5592SOL    HW118197   8.007   7.879   4.579 -1.1850  0.0041  1.6604
 5592SOL    HW218198   7.986   7.785   4.463  1.8732  1.2013  0.0146
 5593SOL     OW18199   0.849   2.790   9.033  0.4195  0.1498 -0.0498
 5593SOL    HW118200   0.778   2.729   9.052  1.0432 -0.7477 -0.4951
 5593SOL    HW218201   0.917   2.736   8.994  0.7962  1.2272 -0.9542
 5594SOL     OW18202   6.622   7.121   5.534 -0.0911 -0.6025  0.0951
 5594SOL    HW118203   6.594   7.109   5.443 -1.2213  1.4774  0.1057
 5594SOL    HW218204   6.705   7.169   5.528 -0.2227 -0.3642  0.1446
 5595SOL     OW18205   7.284   7.111   4.401  0.1095  0.2097  0.5477
 5595SOL    HW118206   7.242   7.067   4.328  0.7924 -1.1862  0.9561
 5595SOL    HW218207   7.260   7.059   4.478  1.3065  0.2546  0.9837
 5596SOL     OW18208   3.731   1.009   1.209  0.0700 -0.1856 -0.1157
 5596SOL    HW118209   3.642   0.988   1.183 -0.0356  0.9221 -0.7334
 5596SOL    HW218210   3.783   0.934   1.181 -0.8049 -1.3772  1.3190
 5597SOL     OW18211   8.266   9.258   1.729 -0.3830 -0.3071  0.7032
 5597SOL    HW118212   8.313   9.298   1.803  0.3912  0.0766  0.0148
 5597SOL    HW218213   8.174   9.260   1.755 -0.3714  1.8941  0.7115
 5598SOL     OW18214   7.978   5.511   4.765  0.6051  0.3219  0.5827
 5598SOL    HW118215   8.053   5.517   4.706 -0.4360  0.0326 -0.8021
 5598SOL    HW218216   8.002   5.566   4.840  1.8587  0.8613 -0.1923
 5599SOL     OW18217   3.743   8.473   7.215  0.1629  0.3257  0.0154
 5599SOL    HW118218   3.681   8.433   7.275  0.8981  0.0092  0.5750
 5599SOL    HW218219   3.746   8.413   7.141  3.8718 -2.7189  2.2997
 5600SOL     OW18220   6.121   0.769   6.586  0.0947 -0.2425  0.5122
 5600SOL    HW118221   6.137   0.822   6.664  2.0744  1.2776 -0.8337
 5600SOL    HW218222   6.067   0.825   6.530  2.6148  0.6817 -1.1357
 5601SOL     OW18223   4.228   0.727   6.618 -0.2564  0.0834 -0.1586
 5601SOL    HW118224   4.176   0.664   6.667 -0.8072  1.6915  1.4212
 5601SOL    HW218225   4.164   0.781   6.572  0.1424  0.3329 -0.4297
 5602SOL     OW18226   7.441   9.045   1.218 -0.7131  0.0314  0.0344
 5602SOL    HW118227   7.393   9.016   1.141 -0.0817 -0.0867 -0.3179
 5602SOL    HW218228   7.532   9.022   1.200 -0.3317  1.3453  0.1629
 5603SOL     OW18229   7.623   6.348   4.843 -0.0771 -0.1135 -0.5742
 5603SOL    HW118230   7.707   6.374   4.808 -0.4865 -0.3839 -1.8054
 5603SOL    HW218231   7.597   6.273   4.790 -1.1201  0.0010 -0.2553
 5604SOL     OW18232   4.941   5.435   0.582 -0.7377 -0.0033  0.1862
 5604SOL    HW118233   4.965   5.346   0.607  0.3254 -0.3321 -1.7823
 5604SOL    HW218234   4.862   5.425   0.529  0.6067 -0.0961 -1.9147
 5605SOL     OW18235   0.567   7.451   4.899  0.1537  0.2375  0.2268
 5605SOL    HW118236   0.487   7.498   4.925 -0.3843  0.5962 -1.9481
 5605SOL    HW218237   0.539   7.361   4.888 -0.8644  0.8417 -3.6603
 5606SOL     OW18238   7.702   8.140   4.333 -0.5061  0.0009  0.2053
 5606SOL    HW118239   7.646   8.063   4.325 -0.5571  0.0266  0.3115
 5606SOL    HW218240   7.641   8.212   4.352 -0.4217  0.0029  0.4680
 5607SOL     OW18241   2.117   4.246   6.132 -0.2913 -0.4831  0.0144
 5607SOL    HW118242   2.023   4.231   6.124 -0.3064  0.4829 -2.7199
 5607SOL    HW218243   2.136   4.314   6.068  2.4278 -1.3713 -0.2467
 5608SOL     OW18244   6.604   1.565   0.865 -0.3329  0.5267  0.0033
 5608SOL    HW118245   6.598   1.615   0.784 -0.9221  0.3969 -0.0379
 5608SOL    HW218246   6.658   1.489   0.843 -1.0632  0.1232 -0.4686
 5609SOL     OW18247   5.547   9.228   7.896  0.0194  0.3167 -0.4452
 5609SOL    HW118248   5.561   9.312   7.853  2.1569 -0.9666 -2.5110
 5609SOL    HW218249   5.629   9.212   7.943 -0.9150  0.0020  1.1436
 5610SOL     OW18250   3.967   8.302   8.741 -0.1523 -0.4588 -0.5804
 5610SOL    HW118251   4.010   8.220   8.766 -0.7809 -0.4016  0.7453
 5610SOL    HW218252   4.025   8.340   8.675  1.4250 -0.7518  0.5951
 5611SOL     OW18253   3.020   4.739   7.711 -0.3802  0.4517 -0.1400
 5611SOL    HW118254   2.979   4.794   7.643  0.0312  0.2102 -0.5913
 5611SOL    HW218255   3.096   4.700   7.667 -0.8440 -0.7237  0.0872
 5612SOL     OW18256   1.926   1.562   2.416 -0.7728 -0.0860 -0.1862
 5612SOL    HW118257   1.859   1.494   2.414 -1.0840  0.1335  1.4546
 5612SOL    HW218258   1.988   1.534   2.483  1.3485 -0.7413 -2.2915
 5613SOL     OW18259   8.891   5.816   2.253  0.1233 -0.7146 -0.5101
 5613SOL    HW118260   8.803   5.825   2.215  0.0478  0.4994 -0.0801
 5613SOL    HW218261   8.877   5.766   2.333 -0.3689  0.4716  0.1681
 5614SOL     OW18262   8.447   5.129   7.967 -0.1271 -0.2399 -0.0535
 5614SOL    HW118263   8.511   5.136   8.038 -1.2155  1.4720  0.8250
 5614SOL    HW218264   8.365   5.160   8.005 -1.0031 -0.3666 -1.7492
 5615SOL     OW18265   1.320   1.688   2.434  0.2001  0.1954  0.2251
 5615SOL    HW118266   1.248   1.709   2.374 -0.6477  0.5244  1.3294
 5615SOL    HW218267   1.388   1.752   2.413 -0.2965  0.6478 -0.0279
 5616SOL     OW18268   8.354   6.236   6.522  0.1723  0.2724 -0.4359
 5616SOL    HW118269   8.342   6.188   6.604 -0.4668 -0.0847 -0.7270
 5616SOL    HW218270   8.275   6.216   6.471 -0.2586  1.8766 -0.4514
 5617SOL     OW18271   0.358   3.333   3.700 -0.0670  0.7236  0.1000
 5617SOL    HW118272   0.420   3.396   3.663 -0.3959  0.6435 -0.6126
 5617SOL    HW218273   0.276   3.381   3.708 -0.0453  0.6872  0.5676
 5618SOL     OW18274   0.769   2.196   6.252  0.3734  0.0810  0.8484
 5618SOL    HW118275   0.700   2.160   6.196  0.3606  0.7786  0.4116
 5618SOL    HW218276   0.823   2.120   6.275 -1.2920 -0.7136  2.3182
 5619SOL     OW18277   4.069   6.671   8.493  0.2023  0.2106 -0.9566
 5619SOL    HW118278   4.140   6.608   8.486 -0.3801 -0.8908  1.8747
 5619SOL    HW218279   4.092   6.726   8.568 -2.6362 -1.3566  1.2897
 5620SOL     OW18280   2.427   4.483   4.248  0.0255 -0.0635 -0.1894
 5620SOL    HW118281   2.472   4.416   4.197  0.1207  0.0047 -0.1940
 5620SOL    HW218282   2.417   4.557   4.188  0.3625  0.1110 -0.0332
 5621SOL     OW18283   8.430   6.995   1.855  0.0482  0.2580  0.2750
 5621SOL    HW118284   8.377   6.916   1.838  0.8194  0.0883 -1.5894
 5621SOL    HW218285   8.459   6.985   1.945  0.4507 -1.8186 -0.0379
 5622SOL     OW18286   8.807   6.985   1.120 -0.2280  0.4560 -0.5697
 5622SOL    HW118287   8.848   7.065   1.155  1.4258 -0.9319  0.8629
 5622SOL    HW218288   8.820   6.991   1.026  1.0261  1.3073 -0.3794
 5623SOL     OW18289   7.627   5.565   8.729 -0.0879 -0.4473  0.5711
 5623SOL    HW118290   7.631   5.655   8.696  0.9092 -0.6860 -0.0091
 5623SOL    HW218291   7.562   5.522   8.674  1.0148 -0.6395 -0.6240
 5624SOL     OW18292   1.737   6.158   3.989  0.4923 -0.2510  0.4062
 5624SOL    HW118293   1.760   6.084   4.045  1.0109  0.2326  0.8373
 5624SOL    HW218294   1.678   6.120   3.923  1.0835 -1.1373  0.3652
 5625SOL     OW18295   8.650   5.598   6.319  0.3396  0.1795  0.1867
 5625SOL    HW118296   8.704   5.629   6.247  0.8356  1.4404  1.0761
 5625SOL    HW218297   8.711   5.582   6.391 -0.2815  0.0694  0.7034
 5626SOL     OW18298   4.032   8.392   7.226  0.4751 -0.1182 -0.1072
 5626SOL    HW118299   3.941   8.412   7.207  0.6767  0.2677 -0.6902
 5626SOL    HW218300   4.038   8.395   7.322 -0.2362 -0.6743 -0.0371
 5627SOL     OW18301   5.917   1.167   6.867 -0.3107  0.4231 -0.4367
 5627SOL    HW118302   6.007   1.149   6.838 -0.1204 -0.6187  0.7283
 5627SOL    HW218303   5.924   1.246   6.920 -0.3356  1.1597 -1.4884
 5628SOL     OW18304   7.196   6.341   4.930  0.7559 -0.7711 -0.1003
 5628SOL    HW118305   7.244   6.341   4.847  0.6186 -1.9911 -0.1964
 5628SOL    HW218306   7.261   6.365   4.996  1.0443 -0.5426 -0.4653
 5629SOL     OW18307   7.160   7.353   7.173 -0.6465  0.4482  0.5326
 5629SOL    HW118308   7.099   7.426   7.157 -0.5951  0.2589 -0.5819
 5629SOL    HW218309   7.178   7.317   7.086  0.8246  0.3043  0.8735
 5630SOL     OW18310   6.264   6.395   1.352  0.2523  0.1226 -0.5383
 5630SOL    HW118311   6.265   6.314   1.404 -0.2762  0.1196 -0.5355
 5630SOL    HW218312   6.266   6.465   1.417 -1.7057  0.1398 -0.4457
 5631SOL     OW18313   3.542   9.149   9.109  0.3180 -0.7318  0.6448
 5631SOL    HW118314   3.497   9.088   9.168 -0.3537  0.4770  1.4387
 5631SOL    HW218315   3.609   9.190   9.164  0.3549 -0.3288  0.3038
 5632SOL     OW18316   1.368   2.469   3.879 -0.3226  0.3789 -0.3728
 5632SOL    HW118317   1.347   2.561   3.868 -1.3272  0.1995 -0.0060
 5632SOL    HW218318   1.445   2.469   3.936 -1.4239  0.9526  1.1916
 5633SOL     OW18319   6.853   4.430   0.137  0.2233  0.2767  0.2126
 5633SOL    HW118320   6.826   4.424   0.045  1.8960 -0.5691 -0.2636
 5633SOL    HW218321   6.883   4.520   0.147  1.6975 -0.0802 -0.6078
 5634SOL     OW18322   4.659   7.423   8.893  0.6903 -0.1117  0.3010
 5634SOL    HW118323   4.590   7.403   8.956  0.2054 -0.3281 -0.2927
 5634SOL    HW218324   4.612   7.441   8.811  1.3533 -0.5569 -0.1831
 5635SOL     OW18325   9.141   3.188   2.505  0.7062 -0.4046  0.0979
 5635SOL    HW118326   9.192   3.141   2.439  0.2888  1.0882 -1.3507
 5635SOL    HW218327   9.175   3.277   2.503 -1.5205  0.4909 -0.4899
 5636SOL     OW18328   0.627   5.590   2.806 -0.5764  0.3473  0.0798
 5636SOL    HW118329   0.639   5.496   2.792 -0.6040  0.3923 -0.2600
 5636SOL    HW218330   0.533   5.604   2.803 -0.5468  0.4688 -0.4509
 5637SOL     OW18331   4.886   5.482   7.487  0.8778 -0.3206 -0.1259
 5637SOL    HW118332   4.884   5.532   7.405 -1.2642 -1.7851 -1.0644
 5637SOL    HW218333   4.838   5.536   7.549  0.9146 -0.0188 -0.3581
 5638SOL     OW18334   8.877   3.714   7.112 -0.1880 -0.1562 -0.1053
 5638SOL    HW118335   8.923   3.714   7.196 -0.9326  0.0727  0.3146
 5638SOL    HW218336   8.838   3.627   7.106 -0.0595 -0.2035 -0.2612
 5639SOL     OW18337   8.867   2.882   6.956 -0.1945 -0.0483  0.1985
 5639SOL    HW118338   8.841   2.974   6.950  1.9968  0.6142 -0.0027
 5639SOL    HW218339   8.903   2.862   6.869  1.8711 -0.2165  1.0352
 5640SOL     OW18340   9.196   4.370   4.304  0.5984  0.3511 -0.0027
 5640SOL    HW118341   9.133   4.306   4.335 -0.6673  1.7812  0.5025
 5640SOL    HW218342   9.206   4.431   4.378  2.3077  0.3702 -0.2052
 5641SOL     OW18343   6.072   7.325   3.505 -0.0095  0.3736  0.1385
 5641SOL    HW118344   6.138   7.393   3.491  0.2770  0.6053  2.2918
 5641SOL    HW218345   6.119   7.253   3.547 -0.3213 -1.2279 -2.0643
 5642SOL     OW18346   7.220   0.121   0.150 -0.4895  0.0337 -0.0115
 5642SOL    HW118347   7.195   0.030   0.169  1.2236 -0.0271  2.4171
 5642SOL    HW218348   7.315   0.119   0.149 -0.4212  1.4702 -2.1446
 5643SOL     OW18349   4.911   3.649   4.683 -0.1293 -0.0387  0.7469
 5643SOL    HW118350   4.867   3.595   4.749 -1.9919  0.3289 -0.1210
 5643SOL    HW218351   4.908   3.596   4.603  3.9807 -1.3917  1.2857
 5644SOL     OW18352   7.278   8.934   6.856  0.4250 -0.2422 -0.0271
 5644SOL    HW118353   7.189   8.907   6.831 -0.6489  0.6579  2.4678
 5644SOL    HW218354   7.323   8.947   6.773 -1.9105 -0.2828 -1.4104
 5645SOL     OW18355   8.045   6.856   0.045  0.0540 -0.0661 -0.0514
 5645SOL    HW118356   8.054   6.833   0.137 -0.6950  0.3998  0.1481
 5645SOL    HW218357   7.957   6.892   0.038  0.2511  0.2795 -0.8714
 5646SOL     OW18358   8.704   0.024   0.019  0.8091  0.1054  0.4493
 5646SOL    HW118359   8.701   0.020   0.115 -2.8756 -2.2251  0.4227
 5646SOL    HW218360   8.657  -0.054  -0.010  0.3283  1.5741 -3.2860
 5647SOL     OW18361   4.270   6.156   8.629 -0.1078  0.2556  0.3258
 5647SOL    HW118362   4.311   6.214   8.566  1.5868  0.1085  1.2266
 5647SOL    HW218363   4.179   6.150   8.601  0.2018  1.5489 -1.0730
 5648SOL     OW18364   0.685   0.634   6.416 -0.0289  0.1340 -0.2818
 5648SOL    HW118365   0.643   0.710   6.458 -0.7984 -0.1563 -0.5038
 5648SOL    HW218366   0.683   0.655   6.322 -0.6360 -0.3446 -0.3802
 5649SOL     OW18367   0.387   8.252   4.634 -0.2625  0.1598  0.1051
 5649SOL    HW118368   0.320   8.306   4.592  1.0365 -0.4720 -3.1242
 5649SOL    HW218369   0.361   8.162   4.616  0.8058 -0.1138 -0.1754
 5650SOL     OW18370   3.416   0.062   2.954 -0.2582 -0.0525 -0.0622
 5650SOL    HW118371   3.425  -0.005   2.886 -0.2467  1.0610 -1.1988
 5650SOL    HW218372   3.366   0.018   3.024  1.2883 -1.7862  0.0328
 5651SOL     OW18373   6.343   6.748   0.495 -0.4602 -0.7203 -0.1023
 5651SOL    HW118374   6.384   6.795   0.423 -0.2877 -0.3438  0.2451
 5651SOL    HW218375   6.367   6.656   0.481 -0.0402 -0.5845 -0.2559
 5652SOL     OW18376   5.388   0.110   7.041 -0.4142 -0.2724 -0.4438
 5652SOL    HW118377   5.370   0.137   6.951  1.5295  0.9799 -0.5027
 5652SOL    HW218378   5.477   0.140   7.059 -0.2624 -1.6306  1.4815
 5653SOL     OW18379   3.294   4.456   4.295 -0.0985  0.2731 -0.0134
 5653SOL    HW118380   3.239   4.383   4.268 -1.2875  1.4677 -0.9799
 5653SOL    HW218381   3.361   4.463   4.227 -0.3869  0.4865 -0.2779
 5654SOL     OW18382   7.970   4.252   7.433 -0.0270 -0.2083  0.4913
 5654SOL    HW118383   8.028   4.176   7.425 -0.5939 -0.9898  2.9994
 5654SOL    HW218384   7.904   4.239   7.365  0.8646 -1.0213 -0.2491
 5655SOL     OW18385   1.677   7.197   7.363 -0.6576  0.1874 -0.0121
 5655SOL    HW118386   1.770   7.211   7.378 -0.6400 -0.0143  0.0827
 5655SOL    HW218387   1.660   7.109   7.399 -1.1098  0.6690  0.9883
 5656SOL     OW18388   5.556   2.483   3.221  0.3379 -0.4404 -0.1518
 5656SOL    HW118389   5.525   2.559   3.270  0.3125 -1.3720  1.3405
 5656SOL    HW218390   5.651   2.481   3.237  0.1306 -1.5614  1.0837
 5657SOL     OW18391   4.498   5.549   5.803 -0.4838  0.0504  0.6186
 5657SOL    HW118392   4.438   5.596   5.745  0.3596  1.2227  0.6674
 5657SOL    HW218393   4.499   5.602   5.883  1.7054  0.8602  0.1055
 5658SOL     OW18394   8.706   5.462   5.351  0.3879  0.1964 -0.1627
 5658SOL    HW118395   8.772   5.501   5.409 -1.4091  3.2996  0.0113
 5658SOL    HW218396   8.752   5.389   5.309  3.4519  1.2473  1.0323
 5659SOL     OW18397   8.524   6.507   1.256 -0.0671 -0.2821 -0.2594
 5659SOL    HW118398   8.542   6.544   1.342 -0.7530  0.4771 -0.4272
 5659SOL    HW218399   8.430   6.492   1.255 -0.2914  0.9517 -1.3267
 5660SOL     OW18400   6.352   7.348   2.027 -0.0394  0.3687 -0.3348
 5660SOL    HW118401   6.298   7.425   2.006 -0.7961 -0.4023 -1.2520
 5660SOL    HW218402   6.309   7.309   2.103 -0.0028  0.5032 -0.2443
 5661SOL     OW18403   3.618   8.826   8.437  0.3484 -0.4708 -0.6412
 5661SOL    HW118404   3.556   8.758   8.461 -1.3225  1.1596 -0.0751
 5661SOL    HW218405   3.661   8.849   8.520 -0.7449  0.6951 -0.3694
 5662SOL     OW18406   0.023   6.309   4.652 -0.4519 -0.0675 -0.6937
 5662SOL    HW118407   0.094   6.251   4.623 -0.9062 -0.5734 -0.8144
 5662SOL    HW218408   0.067   6.381   4.696  0.0894 -0.9933  0.3237
 5663SOL     OW18409   6.252   0.939   8.715  0.5908 -0.0729 -0.2810
 5663SOL    HW118410   6.178   0.879   8.713  0.0710  0.5336  0.2037
 5663SOL    HW218411   6.286   0.931   8.805  2.6205 -2.1022 -1.1170
 5664SOL     OW18412   8.273   2.903   7.991  0.0222 -0.0379  0.0336
 5664SOL    HW118413   8.252   2.835   8.055  0.7320  0.4750  0.8415
 5664SOL    HW218414   8.302   2.978   8.044  2.9257 -0.3600 -0.8890
 5665SOL     OW18415   8.680   9.230   0.306  0.3956 -0.3131  0.5272
 5665SOL    HW118416   8.652   9.238   0.397 -0.5639  0.3287  0.1872
 5665SOL    HW218417   8.664   9.139   0.284  0.7522 -0.5042  1.0353
 5666SOL     OW18418   6.138   7.412   2.948 -0.5260  0.0261 -0.8610
 5666SOL    HW118419   6.178   7.332   2.912  0.2447  0.1218 -0.2404
 5666SOL    HW218420   6.048   7.410   2.915 -1.6074 -2.8013  1.7303
 5667SOL     OW18421   2.956   6.612   3.642 -0.0282 -0.1009  0.4035
 5667SOL    HW118422   2.995   6.582   3.559  1.3055 -0.8102  1.2581
 5667SOL    HW218423   2.891   6.676   3.615  0.8312  0.1645 -1.1895
 5668SOL     OW18424   2.802   5.049   1.049  0.6198  0.1958  0.5016
 5668SOL    HW118425   2.894   5.075   1.048  0.6290  0.2428  1.3501
 5668SOL    HW218426   2.763   5.106   1.116  0.2115 -0.5801  0.9296
 5669SOL     OW18427   4.593   7.737   1.617  0.1435 -0.4624  0.2227
 5669SOL    HW118428   4.515   7.738   1.673 -0.7897 -0.3459 -1.0349
 5669SOL    HW218429   4.644   7.813   1.646 -1.6802  1.2687 -0.8646
 5670SOL     OW18430   8.637   0.293   4.560  0.0544  0.5988 -0.0555
 5670SOL    HW118431   8.660   0.215   4.610 -0.4083  2.3072  3.1181
 5670SOL    HW218432   8.713   0.310   4.505  1.4597 -0.3781  1.5032
 5671SOL     OW18433   1.095   3.598   1.255 -0.0465  0.5030  0.1064
 5671SOL    HW118434   1.160   3.558   1.313 -2.0242 -1.8813  0.8497
 5671SOL    HW218435   1.011   3.579   1.297 -1.3603  1.8938 -1.7359
 5672SOL     OW18436   2.798   7.561   1.213 -0.1923 -0.3828  0.3234
 5672SOL    HW118437   2.703   7.574   1.213  0.0516  2.2291  2.2671
 5672SOL    HW218438   2.834   7.649   1.220  2.4911 -1.1490 -2.1041
 5673SOL     OW18439   3.534   8.180   9.055  0.0744  0.1009  0.1617
 5673SOL    HW118440   3.544   8.201   9.148  1.8517  0.5200 -0.0980
 5673SOL    HW218441   3.553   8.086   9.050 -0.3622  0.0035  0.2532
 5674SOL     OW18442   6.142   1.910   3.902  0.6800  0.3290  0.0678
 5674SOL    HW118443   6.123   1.965   3.978  0.0921 -0.7515  0.7339
 5674SOL    HW218444   6.113   1.822   3.928 -1.7098  0.3056 -2.1799
 5675SOL     OW18445   7.579   3.281   7.896 -0.2081  0.1215  0.0960
 5675SOL    HW118446   7.494   3.245   7.874 -0.3060  0.8592 -0.8001
 5675SOL    HW218447   7.642   3.219   7.858 -0.3741  0.9700 -1.6584
 5676SOL     OW18448   2.018   3.208   0.327 -0.1721  0.2357 -0.6604
 5676SOL    HW118449   1.943   3.268   0.324 -2.2536 -1.9300  2.4569
 5676SOL    HW218450   2.076   3.245   0.394  0.1896  0.4403 -1.0794
 5677SOL     OW18451   7.902   5.830   7.183  0.0920  0.3427  0.1660
 5677SOL    HW118452   7.873   5.815   7.273 -1.4071 -0.1697 -0.3691
 5677SOL    HW218453   7.861   5.759   7.133  1.4005  0.2610 -0.8374
 5678SOL     OW18454   5.549   3.547   8.593  0.3049 -0.3993 -0.1439
 5678SOL    HW118455   5.536   3.594   8.676  0.8894 -0.0583 -0.2505
 5678SOL    HW218456   5.641   3.558   8.572 -0.0894  0.5372 -1.4748
 5679SOL     OW18457   0.907   8.615   5.474  0.5799  0.0767 -0.2272
 5679SOL    HW118458   0.814   8.599   5.490  1.0144 -2.9492 -0.3122
 5679SOL    HW218459   0.926   8.571   5.392  2.2052  0.2498  0.0216
 5680SOL     OW18460   2.596   4.569   4.485 -0.2470  0.5472  0.2902
 5680SOL    HW118461   2.545   4.539   4.560  0.6981  0.4418  0.9056
 5680SOL    HW218462   2.561   4.520   4.411 -0.6163  0.0197  0.8054
 5681SOL     OW18463   3.598   7.131   3.572 -0.0774 -0.1113 -0.0777
 5681SOL    HW118464   3.521   7.186   3.586 -1.2412 -1.7666  0.3287
 5681SOL    HW218465   3.569   7.043   3.594  1.6104 -0.9724 -1.0612
 5682SOL     OW18466   2.309   2.133   1.159  0.3946  0.7591  0.2468
 5682SOL    HW118467   2.254   2.199   1.119  0.7108 -0.6916 -2.8342
 5682SOL    HW218468   2.260   2.051   1.150  0.0540  0.3717  3.8499
 5683SOL     OW18469   4.890   2.595   1.076 -0.1461  0.1370  0.2264
 5683SOL    HW118470   4.812   2.649   1.064 -0.2815 -0.2098 -0.5311
 5683SOL    HW218471   4.897   2.584   1.170 -0.3433  1.1410  0.3663
 5684SOL     OW18472   6.162   6.519   1.113  0.4893 -0.3600  0.1116
 5684SOL    HW118473   6.225   6.577   1.154  0.1986 -0.5693  0.8724
 5684SOL    HW218474   6.149   6.449   1.176 -1.8509  0.5970  0.7953
 5685SOL     OW18475   6.246   1.368   4.664 -0.0261 -0.3683  0.0128
 5685SOL    HW118476   6.265   1.288   4.617  0.1942 -0.3573  0.0819
 5685SOL    HW218477   6.154   1.387   4.645 -0.1224 -0.7229  0.1285
 5686SOL     OW18478   6.079   8.790   0.798  0.6123  0.6938  0.0395
 5686SOL    HW118479   6.010   8.759   0.856 -0.4223  0.7028 -1.1432
 5686SOL    HW218480   6.122   8.860   0.847 -1.1724  1.6880  0.2669
 5687SOL     OW18481   8.922   2.590   2.671  0.7477 -0.0107  0.0868
 5687SOL    HW118482   8.877   2.669   2.641 -1.1935 -1.6273 -1.6247
 5687SOL    HW218483   8.876   2.566   2.752  1.9727  1.0867  1.1329
 5688SOL     OW18484   6.255   0.755   1.171 -0.0002  0.0543 -0.8722
 5688SOL    HW118485   6.284   0.678   1.122 -0.7738 -1.5429  1.0570
 5688SOL    HW218486   6.288   0.829   1.121  2.5217 -1.5516 -1.7575
 5689SOL     OW18487   3.352   1.516   6.890  0.0372  0.2493  0.2414
 5689SOL    HW118488   3.432   1.506   6.838  1.5616 -0.2941  2.5484
 5689SOL    HW218489   3.293   1.450   6.856  1.2126 -0.4946 -0.4141
 5690SOL     OW18490   5.597   5.812   1.828 -0.0239  0.1217  0.1428
 5690SOL    HW118491   5.541   5.743   1.791  0.3433  0.3226 -0.8286
 5690SOL    HW218492   5.662   5.828   1.760 -0.0205  1.3281  0.4192
 5691SOL     OW18493   5.999   2.690   0.371 -0.4494 -0.0025  0.2137
 5691SOL    HW118494   5.932   2.644   0.321 -0.8058  0.5788  0.1520
 5691SOL    HW218495   6.008   2.774   0.327 -1.8654  1.1393  2.0103
 5692SOL     OW18496   5.121   3.882   5.138  0.2366  0.4378  0.4554
 5692SOL    HW118497   5.119   3.917   5.049  0.2853  0.3660  0.4259
 5692SOL    HW218498   5.213   3.862   5.154 -0.0475 -1.8290 -0.3697
 5693SOL     OW18499   0.462   6.824   3.417  0.3571  0.5647  0.2887
 5693SOL    HW118500   0.414   6.903   3.445 -0.9105 -0.0719  0.0116
 5693SOL    HW218501   0.441   6.759   3.483 -1.9192 -0.6820 -1.5053
 5694SOL     OW18502   1.164   7.890   8.711  0.4125 -0.2235 -0.2557
 5694SOL    HW118503   1.134   7.937   8.633 -0.0821  1.9133  1.1438
 5694SOL    HW218504   1.090   7.835   8.737 -0.5168  1.2699  0.3380
 5695SOL     OW18505   3.861   0.086   8.908 -0.1777 -0.6904 -0.0058
 5695SOL    HW118506   3.769   0.065   8.924 -0.2990 -1.2021 -1.2960
 5695SOL    HW218507   3.907   0.003   8.919  0.1402 -0.4357  0.6385
 5696SOL     OW18508   3.902   5.718   2.301  0.0910 -0.1975 -0.0310
 5696SOL    HW118509   3.886   5.811   2.318  1.6356  0.0445  0.2907
 5696SOL    HW218510   3.881   5.675   2.384  2.1603  0.2726  0.8125
 5697SOL     OW18511   8.976   5.316   7.395 -0.2511 -0.1292  0.0889
 5697SOL    HW118512   8.943   5.356   7.475 -0.0995  0.7893 -0.2865
 5697SOL    HW218513   8.934   5.231   7.391 -0.8852  0.1434  0.7271
 5698SOL     OW18514   8.190   5.805   8.181 -0.5702  0.5936  0.4515
 5698SOL    HW118515   8.188   5.738   8.114 -1.0911  0.2243  0.8268
 5698SOL    HW218516   8.112   5.857   8.165 -0.6239  0.5863  0.6868
 5699SOL     OW18517   2.924   4.481   4.154 -0.3537 -0.5189  0.4128
 5699SOL    HW118518   3.001   4.453   4.105 -0.4288 -0.5488  0.3127
 5699SOL    HW218519   2.927   4.576   4.152 -0.3711 -0.5200  0.3290
 5700SOL     OW18520   7.089   2.284   8.117  0.0826  0.0249  0.1021
 5700SOL    HW118521   7.146   2.303   8.042 -0.0936 -1.6340 -0.4817
 5700SOL    HW218522   7.149   2.276   8.191  0.3028  1.2131  0.0756
 5701SOL     OW18523   3.806   4.585   1.445 -0.2417 -0.2164 -0.0604
 5701SOL    HW118524   3.773   4.503   1.484 -1.6379  0.7239  0.8190
 5701SOL    HW218525   3.729   4.625   1.405  0.7703 -0.1433 -2.0625
 5702SOL     OW18526   5.706   3.709   4.124  0.2513 -0.5688  0.1909
 5702SOL    HW118527   5.708   3.794   4.082 -1.2032  0.7835  2.6240
 5702SOL    HW218528   5.777   3.712   4.188 -1.2556 -0.1654  1.9365
 5703SOL     OW18529   6.610   3.833   4.774  0.3461  0.0678  0.4555
 5703SOL    HW118530   6.703   3.839   4.795  0.2489  1.2116  0.5913
 5703SOL    HW218531   6.596   3.740   4.754  1.1939 -0.4200  1.9454
 5704SOL     OW18532   0.783   0.713   1.162  0.0573 -0.0388  0.1368
 5704SOL    HW118533   0.777   0.775   1.090  1.7621  0.7444  0.6127
 5704SOL    HW218534   0.702   0.662   1.158 -0.0926  0.3009 -2.0190
 5705SOL     OW18535   2.122   2.450   4.098  0.2323  1.1073 -0.1127
 5705SOL    HW118536   2.161   2.371   4.136 -0.0273  0.0542 -1.9306
 5705SOL    HW218537   2.031   2.447   4.127  0.2401  0.7526 -0.1118
 5706SOL     OW18538   6.430   2.654   8.945  0.3932 -0.3082 -0.1330
 5706SOL    HW118539   6.335   2.657   8.958 -0.3988 -0.6392 -4.4456
 5706SOL    HW218540   6.466   2.658   9.034 -3.6129 -0.8296  1.7574
 5707SOL     OW18541   6.980   7.996   2.038  0.2616  0.4413 -0.2826
 5707SOL    HW118542   6.963   7.926   2.100  1.2376 -0.1437 -0.6555
 5707SOL    HW218543   6.906   7.994   1.977  0.2274 -0.1840 -0.2179
 5708SOL     OW18544   1.932   7.402   4.651 -0.4641  0.1638  0.8250
 5708SOL    HW118545   1.959   7.310   4.642  2.5346  0.9518  0.6355
 5708SOL    HW218546   1.940   7.420   4.745 -0.2291  0.4389  0.7538
 5709SOL     OW18547   4.334   1.822   0.328 -0.0296  0.2512 -0.4379
 5709SOL    HW118548   4.347   1.904   0.374 -0.1580  0.0605 -0.0619
 5709SOL    HW218549   4.388   1.759   0.375 -0.9835 -0.1764  0.1007
 5710SOL     OW18550   6.118   8.765   8.103  0.1713 -0.1335 -0.8654
 5710SOL    HW118551   6.107   8.671   8.115  2.7008 -0.4028  0.0501
 5710SOL    HW218552   6.033   8.802   8.123 -0.1604 -2.0023  1.6774
 5711SOL     OW18553   6.804   1.288   7.077 -0.3321 -0.3765 -0.1911
 5711SOL    HW118554   6.744   1.327   7.013 -0.8374 -2.7044 -1.2242
 5711SOL    HW218555   6.890   1.325   7.054 -0.5853 -0.7382 -1.8995
 5712SOL     OW18556   8.532   9.274   6.268 -0.2649  0.3227  0.1703
 5712SOL    HW118557   8.533   9.234   6.181  1.3880 -0.3185  0.4335
 5712SOL    HW218558   8.440   9.277   6.292 -0.6214 -1.1861 -0.8370
 5713SOL     OW18559   2.216   6.553   0.315 -0.4803  0.0691  0.2341
 5713SOL    HW118560   2.199   6.558   0.221  2.1369  1.9075 -0.2627
 5713SOL    HW218561   2.246   6.464   0.330 -2.4721 -0.7399 -0.3061
 5714SOL     OW18562   3.939   2.573   3.291  0.0751  0.1571  0.0837
 5714SOL    HW118563   3.878   2.533   3.229  0.9091  1.0529 -1.3622
 5714SOL    HW218564   3.944   2.665   3.264  1.9649  0.1332  0.2433
 5715SOL     OW18565   2.094   5.643   7.635  0.3856 -0.2324  0.1099
 5715SOL    HW118566   2.088   5.738   7.631 -1.0076 -0.3281 -0.4574
 5715SOL    HW218567   2.077   5.621   7.727  0.5511  0.0392  0.2071
 5716SOL     OW18568   6.414   2.773   6.782  0.3040 -0.3639  0.3065
 5716SOL    HW118569   6.403   2.697   6.839  2.5537 -0.5396  0.6047
 5716SOL    HW218570   6.447   2.842   6.841 -0.9294  0.6071 -0.1116
 5717SOL     OW18571   6.989   3.694   9.154  0.2608 -0.0706  0.0701
 5717SOL    HW118572   7.072   3.653   9.131  0.4887 -0.5460  1.6318
 5717SOL    HW218573   6.990   3.777   9.106  2.2425  0.5309  1.0116
 5718SOL     OW18574   0.357   4.737   0.898 -0.6252  1.3047  0.0619
 5718SOL    HW118575   0.391   4.683   0.827 -0.9864  2.4347 -1.0055
 5718SOL    HW218576   0.277   4.693   0.927  0.1546  0.2042  0.6082
 5719SOL     OW18577   0.808   3.536   8.497  0.2924  0.2831  0.1554
 5719SOL    HW118578   0.859   3.455   8.494 -1.9337 -1.1642 -1.7425
 5719SOL    HW218579   0.816   3.572   8.409 -2.6417 -0.5612 -0.5851
 5720SOL     OW18580   3.225   9.275   7.934  0.1503  0.2749  0.1919
 5720SOL    HW118581   3.186   9.207   7.989 -0.1790  0.4452  0.1655
 5720SOL    HW218582   3.252   9.343   7.995  0.7315  0.0044  0.2476
 5721SOL     OW18583   8.277   6.764   9.002 -0.1933  0.3685  0.4333
 5721SOL    HW118584   8.271   6.818   9.081 -1.0972  2.9727 -1.2850
 5721SOL    HW218585   8.367   6.776   8.972  0.3108 -1.0508  1.2987
 5722SOL     OW18586   3.684   3.103   0.035  0.5704 -0.5749 -0.5988
 5722SOL    HW118587   3.604   3.051   0.040  0.4026 -0.8238 -3.7352
 5722SOL    HW218588   3.752   3.046   0.073 -0.1156 -1.9507 -1.3482
 5723SOL     OW18589   7.045   7.767   6.215  0.0218  0.5653 -0.0245
 5723SOL    HW118590   7.107   7.817   6.163  1.3508 -1.7911 -0.8438
 5723SOL    HW218591   7.099   7.715   6.275 -1.3156  0.4506  1.1566
 5724SOL     OW18592   5.217   2.836   7.494  0.2190 -1.1724 -0.6062
 5724SOL    HW118593   5.284   2.777   7.529  2.3432  0.9129 -0.8888
 5724SOL    HW218594   5.144   2.778   7.470  1.1554 -3.3495  1.3957
 5725SOL     OW18595   1.535   6.494   2.019 -0.1230  0.3467 -0.2420
 5725SOL    HW118596   1.481   6.416   2.034  0.4746 -0.2619 -1.2025
 5725SOL    HW218597   1.618   6.461   1.985  0.4756  1.3464  0.1909
 5726SOL     OW18598   2.403   7.508   6.348  0.4306  0.2644 -0.0084
 5726SOL    HW118599   2.411   7.427   6.398 -1.3106  0.0955  0.0578
 5726SOL    HW218600   2.390   7.480   6.258 -1.0629  0.3862  0.1308
 5727SOL     OW18601   5.690   2.995   3.846  0.2001  0.1024  0.0721
 5727SOL    HW118602   5.614   2.991   3.903  0.8911 -0.0920  0.9914
 5727SOL    HW218603   5.698   3.088   3.822 -1.0287 -0.0412 -1.0299
 5728SOL     OW18604   6.680   3.319   6.983  0.8793  0.2110 -0.3826
 5728SOL    HW118605   6.718   3.402   6.955  0.1624  0.6399 -0.0994
 5728SOL    HW218606   6.724   3.298   7.065 -1.1038  1.9053  1.2197
 5729SOL     OW18607   1.374   5.900   4.888 -0.4119 -0.3055 -0.3762
 5729SOL    HW118608   1.438   5.832   4.869 -1.1744 -1.3521  0.6230
 5729SOL    HW218609   1.292   5.866   4.853 -0.6363  0.5088 -0.6575
 5730SOL     OW18610   8.267   1.821   7.619 -0.6548  0.1841  0.0159
 5730SOL    HW118611   8.231   1.823   7.708 -0.7429  2.4984 -0.0153
 5730SOL    HW218612   8.207   1.877   7.568  1.1558  1.5310 -0.7383
 5731SOL     OW18613   7.431   7.498   1.003 -0.4360  0.8294 -0.5570
 5731SOL    HW118614   7.493   7.570   1.008 -0.1218  0.5110  0.2738
 5731SOL    HW218615   7.383   7.502   1.086  0.6578 -0.8456  0.2172
 5732SOL     OW18616   0.588   3.747   7.579  0.5628 -0.3898 -0.1448
 5732SOL    HW118617   0.566   3.807   7.650  1.2315 -0.1968 -0.0984
 5732SOL    HW218618   0.684   3.742   7.580  0.6420  0.2854 -1.5633
 5733SOL     OW18619   7.932   1.887   2.341 -0.0980 -0.1299 -0.5843
 5733SOL    HW118620   8.016   1.847   2.366 -1.3614 -1.5870  1.6852
 5733SOL    HW218621   7.886   1.819   2.292 -1.4544 -0.8955  1.5831
 5734SOL     OW18622   5.496   5.279   1.440 -0.7282  0.0449 -0.4932
 5734SOL    HW118623   5.448   5.361   1.452 -0.7051 -0.1072  0.7305
 5734SOL    HW218624   5.584   5.298   1.473 -1.5571 -1.3347  2.9499
 5735SOL     OW18625   4.336   5.214   3.822 -1.0260 -0.8913  0.2958
 5735SOL    HW118626   4.430   5.209   3.839 -0.9615 -0.2326  0.1647
 5735SOL    HW218627   4.314   5.128   3.787  0.0397 -0.2389 -2.1576
 5736SOL     OW18628   8.544   5.333   4.039 -0.0638 -0.1494  0.0851
 5736SOL    HW118629   8.480   5.365   4.103 -0.3081 -1.9445  0.7940
 5736SOL    HW218630   8.565   5.410   3.986 -0.0385  1.3423  2.1384
 5737SOL     OW18631   2.954   5.328   0.340  0.5286  0.6190 -0.9434
 5737SOL    HW118632   2.886   5.281   0.292 -2.5120  2.2766  1.4058
 5737SOL    HW218633   2.943   5.302   0.431  0.1093  4.0358  0.1462
 5738SOL     OW18634   4.834   3.346   8.068 -0.0541 -0.1563  0.0254
 5738SOL    HW118635   4.780   3.384   8.137 -1.1744 -1.2393 -0.2123
 5738SOL    HW218636   4.814   3.398   7.990 -0.3216 -0.1885  0.0713
 5739SOL     OW18637   3.980   5.720   6.461 -0.0795 -0.4509 -0.0695
 5739SOL    HW118638   4.074   5.734   6.457  0.1053 -1.5506  0.1267
 5739SOL    HW218639   3.956   5.741   6.551  0.2889 -1.8418  0.3800
 5740SOL     OW18640   2.050   7.627   2.285  0.1344  0.2153  0.0505
 5740SOL    HW118641   2.135   7.661   2.310 -0.5705  0.2479  2.7266
 5740SOL    HW218642   2.021   7.684   2.214  1.9124  0.7794 -0.2789
 5741SOL     OW18643   0.545   2.370   2.816  0.0351  0.2617 -0.5181
 5741SOL    HW118644   0.634   2.340   2.829 -0.6229 -1.0637  1.3894
 5741SOL    HW218645   0.532   2.439   2.882 -0.4501  0.2092 -0.5509
 5742SOL     OW18646   1.334   2.692   3.513  0.3791 -0.4900  0.8686
 5742SOL    HW118647   1.305   2.726   3.597  0.4453  1.0578  0.2948
 5742SOL    HW218648   1.430   2.700   3.515  0.7561 -3.7553  1.9833
 5743SOL     OW18649   7.863   2.141   6.792 -0.6542  0.4002  0.9411
 5743SOL    HW118650   7.954   2.120   6.813 -0.5594  1.0929  1.2431
 5743SOL    HW218651   7.813   2.065   6.820 -0.0214 -0.5604 -0.4536
 5744SOL     OW18652   0.175   5.295   0.600 -0.1248  0.2934 -0.5989
 5744SOL    HW118653   0.144   5.233   0.534 -0.3771 -0.2688  0.0392
 5744SOL    HW218654   0.249   5.339   0.558 -1.5801  1.4694 -2.0415
 5745SOL     OW18655   9.018   0.800   8.134 -0.6271 -0.5153  0.1456
 5745SOL    HW118656   9.031   0.810   8.229  2.1019 -1.1851 -0.0830
 5745SOL    HW218657   8.984   0.885   8.106 -3.0552 -0.8046  1.8942
 5746SOL     OW18658   2.134   6.595   3.253  0.6425 -0.5230 -0.3618
 5746SOL    HW118659   2.144   6.547   3.335 -1.4592 -1.2178 -0.4395
 5746SOL    HW218660   2.218   6.639   3.240  0.4491  1.2898  3.1895
 5747SOL     OW18661   6.171   8.794   5.026 -0.2147  0.1852 -0.1366
 5747SOL    HW118662   6.081   8.811   4.999 -0.7112 -0.1689  1.2203
 5747SOL    HW218663   6.163   8.746   5.109  1.2168 -0.0585 -0.1084
 5748SOL     OW18664   4.899   6.461   5.072  0.1579 -0.4804 -0.0933
 5748SOL    HW118665   4.936   6.548   5.054 -0.3616 -0.2238  0.0700
 5748SOL    HW218666   4.943   6.433   5.152 -2.3556  1.2781  2.0892
 5749SOL     OW18667   8.394   0.675   0.445 -0.0836  0.2773  0.1848
 5749SOL    HW118668   8.436   0.613   0.504  0.7012  0.9722  0.3774
 5749SOL    HW218669   8.361   0.622   0.373 -0.5236 -0.5058  0.9557
 5750SOL     OW18670   7.735   8.359   5.933 -0.1450  0.0088  0.3661
 5750SOL    HW118671   7.716   8.441   5.887 -1.4567 -0.3758  0.1732
 5750SOL    HW218672   7.829   8.347   5.924 -0.2119  0.5032 -1.3001
 5751SOL     OW18673   8.494   3.596   1.368 -0.5452 -0.6193  0.7477
 5751SOL    HW118674   8.429   3.654   1.409 -1.5419 -0.2061 -1.2845
 5751SOL    HW218675   8.451   3.510   1.368  0.1095 -0.9713  1.9338
 5752SOL     OW18676   2.811   8.788   4.645  0.0895 -0.1180  0.5014
 5752SOL    HW118677   2.766   8.849   4.704  0.1447 -0.2994  0.7331
 5752SOL    HW218678   2.881   8.751   4.698 -0.4305 -0.9736  0.6152
 5753SOL     OW18679   2.254   3.031   7.840 -0.3292  0.5091 -0.4268
 5753SOL    HW118680   2.348   3.022   7.855  0.0134  1.2225 -1.9705
 5753SOL    HW218681   2.226   2.944   7.813  0.2566  0.6915 -1.6966
 5754SOL     OW18682   3.347   5.569   6.876  0.0068  0.2125 -0.0248
 5754SOL    HW118683   3.363   5.574   6.782 -0.7159  0.4963 -0.1416
 5754SOL    HW218684   3.268   5.515   6.884  1.3653 -1.8113  0.5689
 5755SOL     OW18685   0.144   9.104   3.466  0.1926  0.3459  0.1599
 5755SOL    HW118686   0.152   9.133   3.557 -2.3243 -0.5573  0.7360
 5755SOL    HW218687   0.167   9.181   3.414  1.9974  0.7888  1.5062
 5756SOL     OW18688   2.898   3.050   9.052 -0.3533  0.2490  0.0479
 5756SOL    HW118689   2.988   3.081   9.041  0.4925 -1.4147  1.5311
 5756SOL    HW218690   2.906   2.975   9.111 -2.7459  0.0861  0.2836
 5757SOL     OW18691   8.431   7.497   2.609 -0.4138 -0.1063  0.5738
 5757SOL    HW118692   8.490   7.474   2.681  2.1171 -0.7001 -1.5636
 5757SOL    HW218693   8.444   7.429   2.544 -3.3090 -0.0816 -0.1597
 5758SOL     OW18694   6.943   6.418   2.208  0.0819  0.0780 -0.2687
 5758SOL    HW118695   6.986   6.332   2.215 -0.0897 -0.0239 -0.4298
 5758SOL    HW218696   6.994   6.475   2.265  0.4538 -0.0321 -0.4871
 5759SOL     OW18697   7.859   9.105   6.321 -0.2845  0.1110 -0.1925
 5759SOL    HW118698   7.947   9.092   6.285 -1.1036 -0.5417 -2.1265
 5759SOL    HW218699   7.825   9.182   6.275 -0.2519  1.2015  1.5517
 5760SOL     OW18700   2.156   8.636   2.987 -0.3596 -0.1184 -0.4194
 5760SOL    HW118701   2.214   8.614   3.060 -1.8191 -2.4895  0.1405
 5760SOL    HW218702   2.079   8.581   3.000 -3.1454  3.2936 -0.7245
 5761SOL     OW18703   7.697   0.129   0.786 -0.6173 -0.8715  0.4830
 5761SOL    HW118704   7.646   0.081   0.721  0.0549 -1.1672  0.1645
 5761SOL    HW218705   7.768   0.069   0.809 -0.9862 -0.8784  1.6850
 5762SOL     OW18706   5.738   0.893   0.120 -0.5991 -0.4808 -1.3041
 5762SOL    HW118707   5.807   0.842   0.162 -0.9006 -1.1526 -1.6030
 5762SOL    HW218708   5.657   0.845   0.139 -1.2803  1.3153  0.6736
 5763SOL     OW18709   5.047   0.613   3.490 -0.6623  0.1359  0.2973
 5763SOL    HW118710   5.120   0.579   3.438  0.1795  0.9699  0.8983
 5763SOL    HW218711   5.024   0.696   3.448 -3.1031 -1.3709 -1.5269
 5764SOL     OW18712   5.264   7.093   2.841 -0.3292  0.3969  0.2742
 5764SOL    HW118713   5.223   7.178   2.827  1.0951  1.0538 -0.0937
 5764SOL    HW218714   5.285   7.092   2.935 -2.5139 -0.5975  0.8147
 5765SOL     OW18715   0.641   2.638   6.345 -0.3562 -0.3770  0.2570
 5765SOL    HW118716   0.731   2.667   6.335 -1.3626  2.6454 -1.6090
 5765SOL    HW218717   0.620   2.655   6.437  0.8810 -0.8885  0.6504
 5766SOL     OW18718   5.658   8.041   0.512  0.0428  0.7961  0.1171
 5766SOL    HW118719   5.587   8.100   0.535  0.1250  0.7188  0.5859
 5766SOL    HW218720   5.698   8.080   0.434 -0.0936  1.1962  0.2453
 5767SOL     OW18721   8.058   0.809   5.114 -0.0546  0.1570  0.1742
 5767SOL    HW118722   8.027   0.738   5.057 -0.7681  1.3769 -0.9894
 5767SOL    HW218723   8.149   0.823   5.087  0.2503 -0.6185  0.7478
 5768SOL     OW18724   3.293   6.069   2.400 -0.5738 -0.3017 -0.5104
 5768SOL    HW118725   3.300   6.164   2.392  1.3304 -0.2911  0.6726
 5768SOL    HW218726   3.287   6.054   2.495 -1.7957 -1.3299 -0.7267
 5769SOL     OW18727   5.909   5.676   6.465 -0.0250  0.1032 -0.2685
 5769SOL    HW118728   5.917   5.582   6.483  1.6364 -0.2743 -2.5423
 5769SOL    HW218729   5.996   5.711   6.485  0.7880  0.2763 -3.5593
 5770SOL     OW18730   3.196   6.230   8.025 -0.5688  0.4972  0.3546
 5770SOL    HW118731   3.126   6.165   8.023  0.8829 -1.1362 -2.0450
 5770SOL    HW218732   3.159   6.306   7.979 -0.3288 -0.9696 -2.4672
 5771SOL     OW18733   8.004   3.802   2.662 -0.1228  0.3346  0.3904
 5771SOL    HW118734   8.011   3.897   2.662 -0.6167  0.3820 -0.7046
 5771SOL    HW218735   8.095   3.772   2.671 -0.0896  0.8653  2.5812
 5772SOL     OW18736   1.685   1.605   8.770  0.6570  0.3282 -0.1820
 5772SOL    HW118737   1.678   1.584   8.863  1.3011 -0.2360 -0.2483
 5772SOL    HW218738   1.726   1.527   8.731  2.6493  1.4586 -0.5236
 5773SOL     OW18739   7.727   4.575   1.518 -0.1727  0.4849 -0.1909
 5773SOL    HW118740   7.806   4.618   1.550  1.7984 -2.3680 -0.8201
 5773SOL    HW218741   7.752   4.536   1.435 -1.6074 -2.0725  0.4530
 5774SOL     OW18742   5.574   4.272   1.013 -0.0706 -0.3731  0.7020
 5774SOL    HW118743   5.567   4.367   1.005 -1.7264 -0.2973  2.3626
 5774SOL    HW218744   5.485   4.240   0.999  0.3124 -1.6169  0.9867
 5775SOL     OW18745   7.799   2.418   9.116  0.1441  0.0849  0.2563
 5775SOL    HW118746   7.718   2.458   9.145  0.1669  0.5146 -0.2550
 5775SOL    HW218747   7.849   2.402   9.196 -0.2712  0.1876  0.5374
 5776SOL     OW18748   5.487   5.207   3.848 -0.1037  0.0990 -0.3273
 5776SOL    HW118749   5.435   5.145   3.901  0.9501 -0.4464  0.0976
 5776SOL    HW218750   5.425   5.275   3.824 -1.0050 -0.4956  0.2390
 5777SOL     OW18751   1.927   1.453   0.984 -0.1704 -0.3625  0.6263
 5777SOL    HW118752   1.941   1.530   1.039 -0.3231  1.4618 -1.7452
 5777SOL    HW218753   2.006   1.448   0.930 -1.1777 -0.4390 -0.8671
 5778SOL     OW18754   1.361   3.944   2.939  0.2532  0.1048  0.3710
 5778SOL    HW118755   1.452   3.914   2.939  0.3215  0.2839 -0.5691
 5778SOL    HW218756   1.312   3.872   2.979  0.5583 -0.8237 -0.8727
 5779SOL     OW18757   5.728   7.747   1.124  0.1098 -0.4121 -0.5212
 5779SOL    HW118758   5.648   7.695   1.119 -1.1588  1.4184 -0.1769
 5779SOL    HW218759   5.716   7.803   1.200  2.4284 -1.1386  0.4886
 5780SOL     OW18760   6.290   1.241   9.197  0.6529 -0.0964 -0.0445
 5780SOL    HW118761   6.196   1.263   9.197  0.6233 -0.2223  0.2448
 5780SOL    HW218762   6.298   1.173   9.263  1.2797  1.3471  1.4346
 5781SOL     OW18763   2.266   4.410   1.653 -0.7492 -0.0841 -0.4470
 5781SOL    HW118764   2.351   4.411   1.610 -1.5155  0.2345 -2.0528
 5781SOL    HW218765   2.260   4.495   1.697 -0.7666  0.4928 -1.5082
 5782SOL     OW18766   2.795   1.096   1.622  0.8098  0.3297 -0.2326
 5782SOL    HW118767   2.779   1.182   1.582  1.0280  0.9115  0.8847
 5782SOL    HW218768   2.872   1.110   1.678  2.8378 -1.3833 -2.3981
 5783SOL     OW18769   0.395   7.234   1.936  0.2606  0.1705  0.3124
 5783SOL    HW118770   0.490   7.229   1.921  0.3501  1.9511  0.1788
 5783SOL    HW218771   0.380   7.174   2.009  1.6070  0.4645  0.8674
 5784SOL     OW18772   0.610   4.227   3.583  0.1990  0.2519  0.4786
 5784SOL    HW118773   0.570   4.149   3.620  1.0863  0.7082  2.5390
 5784SOL    HW218774   0.609   4.291   3.654  0.5265  1.7466 -0.8002
 5785SOL     OW18775   4.932   3.346   0.871 -0.3496  0.0613 -0.0123
 5785SOL    HW118776   4.968   3.337   0.959 -0.1658 -0.1101 -0.1053
 5785SOL    HW218777   4.863   3.411   0.881 -1.3275 -1.0245  0.5617
 5786SOL     OW18778   6.191   0.525   0.395  0.3020 -0.2981  0.0413
 5786SOL    HW118779   6.264   0.464   0.383  2.3058  2.1027 -0.8263
 5786SOL    HW218780   6.159   0.542   0.306  0.9695  1.2222  0.0635
 5787SOL     OW18781   5.579   2.567   4.808 -0.1024 -0.2186 -0.0523
 5787SOL    HW118782   5.606   2.585   4.898 -2.4914  0.9519  0.5324
 5787SOL    HW218783   5.546   2.477   4.810 -0.4814 -0.0751  0.3548
 5788SOL     OW18784   5.539   2.725   0.312  0.0167 -0.4028  0.7095
 5788SOL    HW118785   5.470   2.665   0.339  0.2083 -0.8487  0.2179
 5788SOL    HW218786   5.504   2.812   0.331 -0.7048 -0.6208  0.3895
 5789SOL     OW18787   2.206   1.367   2.114  0.0455 -0.6079 -0.4857
 5789SOL    HW118788   2.153   1.291   2.136  0.7982 -0.3427  2.9436
 5789SOL    HW218789   2.295   1.342   2.139  0.2853  1.3496  0.8438
 5790SOL     OW18790   7.639   1.524   3.394  0.0954 -1.0002  0.2843
 5790SOL    HW118791   7.696   1.461   3.438  0.0344 -0.9544  0.4281
 5790SOL    HW218792   7.629   1.489   3.305 -0.8219 -1.7840  0.6719
 5791SOL     OW18793   2.034   7.089   6.984 -0.2819 -0.1663  0.3283
 5791SOL    HW118794   1.992   7.171   7.009 -1.4430 -0.6124 -0.0399
 5791SOL    HW218795   1.967   7.044   6.932  0.6247 -0.9906 -0.1451
 5792SOL     OW18796   2.655   3.453   0.511 -0.6460  0.3508 -0.4314
 5792SOL    HW118797   2.736   3.489   0.549 -0.4994 -1.5018  1.1781
 5792SOL    HW218798   2.679   3.364   0.484 -2.0513 -0.1079 -0.2529
 5793SOL     OW18799   1.153   3.385   2.370  0.2982  0.0285 -0.5896
 5793SOL    HW118800   1.190   3.364   2.455 -0.6643  0.6323  0.0010
 5793SOL    HW218801   1.220   3.440   2.328  1.2725 -1.2015 -0.7151
 5794SOL     OW18802   3.900   7.515   8.218 -0.1857 -0.4758  0.2600
 5794SOL    HW118803   3.975   7.486   8.167  0.3085  0.8845  0.1671
 5794SOL    HW218804   3.930   7.594   8.262 -2.0886  1.1886 -1.2089
 5795SOL     OW18805   5.781   0.798   2.517  0.2981 -0.1141 -0.3132
 5795SOL    HW118806   5.874   0.781   2.529  0.1658 -0.3419  0.4634
 5795SOL    HW218807   5.739   0.713   2.535 -0.1369  0.2561  0.4866
 5796SOL     OW18808   3.920   9.226   5.020 -0.0703 -0.3555 -0.0236
 5796SOL    HW118809   3.883   9.233   4.932 -0.4063 -0.7009  0.0866
 5796SOL    HW218810   3.935   9.133   5.033  0.7753 -0.2230 -0.0322
 5797SOL     OW18811   5.825   5.900   7.923  0.3202 -1.0402 -0.1414
 5797SOL    HW118812   5.895   5.836   7.913 -0.0447 -1.3910 -0.4779
 5797SOL    HW218813   5.821   5.917   8.017 -0.7215 -2.8084  0.1746
 5798SOL     OW18814   4.279   4.500   3.573  0.1413 -0.0850 -0.0518
 5798SOL    HW118815   4.256   4.569   3.510 -1.0578  0.2541  0.7184
 5798SOL    HW218816   4.259   4.539   3.659  1.7851 -0.5115  0.5761
 5799SOL     OW18817   3.066   9.199   0.240  0.0235  0.0657  0.1948
 5799SOL    HW118818   3.067   9.124   0.180  1.1998  0.0254  0.2460
 5799SOL    HW218819   3.064   9.160   0.327 -1.0440  0.1188  0.2026
 5800SOL     OW18820   7.547   3.278   5.698  0.1925 -0.1093  0.3312
 5800SOL    HW118821   7.495   3.319   5.767  0.4366  0.1627  0.3542
 5800SOL    HW218822   7.622   3.241   5.744  1.6679  2.1962 -0.0398
 5801SOL     OW18823   8.450   7.262   4.831 -0.1119  0.1777  0.5053
 5801SOL    HW118824   8.482   7.193   4.889 -0.1090  1.3488  1.9623
 5801SOL    HW218825   8.527   7.288   4.780  0.6741  1.1440  2.1030
 5802SOL     OW18826   5.846   9.137   1.657  0.6444  0.6389  0.0439
 5802SOL    HW118827   5.807   9.164   1.740 -0.2625  0.5950 -0.3501
 5802SOL    HW218828   5.939   9.158   1.666  0.6481  0.1991  1.2374
 5803SOL     OW18829   6.456   6.557   3.671  0.0296  0.0574  0.2493
 5803SOL    HW118830   6.362   6.566   3.655 -0.1203  0.0364  1.0793
 5803SOL    HW218831   6.498   6.609   3.602 -0.6303  1.2552  0.7313
 5804SOL     OW18832   0.710   2.978   8.241  0.1243 -0.4765  0.3217
 5804SOL    HW118833   0.710   2.891   8.281  0.3570 -0.5247  0.2173
 5804SOL    HW218834   0.641   2.974   8.174 -2.4424  0.5233  2.6961
 5805SOL     OW18835   0.639   3.093   1.661 -0.2823  0.5427 -0.4215
 5805SOL    HW118836   0.585   3.036   1.716  1.2248 -1.8260 -1.2419
 5805SOL    HW218837   0.578   3.126   1.595 -0.8819 -1.8912 -1.2036
 5806SOL     OW18838   0.361   7.747   6.561 -0.1545 -0.2736 -0.9234
 5806SOL    HW118839   0.440   7.738   6.508 -0.1478  2.2068 -1.4616
 5806SOL    HW218840   0.290   7.742   6.497 -0.4467 -2.0969 -0.4913
 5807SOL     OW18841   5.397   2.555   5.150 -0.1553  0.3277 -0.5067
 5807SOL    HW118842   5.390   2.478   5.207 -0.6025 -0.5094 -1.6490
 5807SOL    HW218843   5.491   2.573   5.146  0.0591 -0.7593 -0.9570
 5808SOL     OW18844   6.299   7.123   5.079 -0.5058 -0.2681 -0.1962
 5808SOL    HW118845   6.300   7.035   5.041 -1.5688 -0.2368 -0.3201
 5808SOL    HW218846   6.332   7.180   5.010 -0.2361 -0.5087 -0.2677
 5809SOL     OW18847   5.788   1.288   0.806  0.5283 -0.0682  0.6468
 5809SOL    HW118848   5.697   1.261   0.801 -0.0846  1.7501  1.0203
 5809SOL    HW218849   5.791   1.348   0.881  1.8949  0.3709  0.2760
 5810SOL     OW18850   0.039   1.512   7.658  0.1385 -0.1665  0.0337
 5810SOL    HW118851  -0.001   1.599   7.655 -0.9364 -0.6626 -0.7182
 5810SOL    HW218852   0.132   1.529   7.671 -0.2547  1.0317  1.6002
 5811SOL     OW18853   9.092   3.342   7.907  0.3861  0.1739  0.0767
 5811SOL    HW118854   9.046   3.279   7.962  1.2778 -1.0400 -0.5138
 5811SOL    HW218855   9.159   3.380   7.964 -1.7963  2.6438  1.2207
 5812SOL     OW18856   2.561   5.078   1.489  0.5691 -0.4080  0.1766
 5812SOL    HW118857   2.619   5.066   1.564 -0.6250  0.7884  1.3558
 5812SOL    HW218858   2.541   5.172   1.490 -1.5669 -0.8136 -0.0056
 5813SOL     OW18859   8.276   2.848   2.595  0.1635  0.1346  0.0422
 5813SOL    HW118860   8.365   2.830   2.564 -0.0423  2.1524 -2.0917
 5813SOL    HW218861   8.255   2.776   2.654  2.7927 -0.9826 -0.2589
 5814SOL     OW18862   7.746   1.921   8.745  0.5266  0.1610 -0.0042
 5814SOL    HW118863   7.768   1.961   8.829 -0.6806  0.9916 -0.0680
 5814SOL    HW218864   7.736   1.828   8.764  2.3034  0.0051  0.3490
 5815SOL     OW18865   5.682   3.043   0.851 -0.1504  0.1827 -0.8056
 5815SOL    HW118866   5.724   2.974   0.800 -0.6897 -0.1434 -0.8179
 5815SOL    HW218867   5.699   3.019   0.942  0.0291  0.2672 -0.8167
 5816SOL     OW18868   2.063   1.263   6.040  0.1699  0.4965 -0.6894
 5816SOL    HW118869   1.998   1.310   5.988  1.4711 -0.0602 -2.9301
 5816SOL    HW218870   2.014   1.192   6.082 -0.5243 -0.7753 -3.4350
 5817SOL     OW18871   5.782   5.933   8.675 -0.6183  0.3018  0.2711
 5817SOL    HW118872   5.752   5.911   8.763  2.1966 -1.6129  0.8953
 5817SOL    HW218873   5.865   5.978   8.689 -1.6774  3.0412 -1.4129
 5818SOL     OW18874   3.196   0.462   4.008  1.1109  0.2412 -0.5601
 5818SOL    HW118875   3.110   0.422   4.022  2.0419 -2.2657 -1.5556
 5818SOL    HW218876   3.179   0.535   3.948 -0.3212 -0.1652 -0.6875
 5819SOL     OW18877   0.678   1.820   5.451  0.4229 -0.1497  0.1768
 5819SOL    HW118878   0.759   1.817   5.399 -0.1062  0.3910 -0.7086
 5819SOL    HW218879   0.638   1.734   5.437  1.6881 -1.1121  2.0690
 5820SOL     OW18880   3.433   9.246   4.198  0.2993 -0.0145 -0.4665
 5820SOL    HW118881   3.347   9.256   4.238  0.3841 -0.9018 -0.0252
 5820SOL    HW218882   3.422   9.175   4.134 -0.0107  1.8427 -2.5975
 5821SOL     OW18883   1.408   1.027   1.592 -0.5523 -0.4253  0.6932
 5821SOL    HW118884   1.501   1.033   1.569 -0.3816  1.7612  1.6434
 5821SOL    HW218885   1.401   0.950   1.647  0.5538 -1.0369  0.0115
 5822SOL     OW18886   4.697   6.924   1.112 -0.0423 -0.0355 -0.3372
 5822SOL    HW118887   4.696   6.969   1.028  1.6888  1.3894  0.3349
 5822SOL    HW218888   4.655   6.986   1.173 -1.1773 -1.0016 -0.1017
 5823SOL     OW18889   7.216   5.000   1.010  0.1625 -0.1676  0.2794
 5823SOL    HW118890   7.246   4.965   1.094  3.1436  2.8607  0.7163
 5823SOL    HW218891   7.268   4.954   0.944 -0.2534 -0.6989  0.3227
 5824SOL     OW18892   1.692   2.066   8.319 -0.3552  0.0749 -0.5577
 5824SOL    HW118893   1.764   2.118   8.356  0.2494 -0.0823 -1.4684
 5824SOL    HW218894   1.629   2.130   8.288 -0.6602  0.2135  0.3259
 5825SOL     OW18895   0.593   8.617   7.915 -0.4314  0.5320 -0.0522
 5825SOL    HW118896   0.687   8.598   7.904 -0.3911 -0.3680  1.6071
 5825SOL    HW218897   0.557   8.608   7.827  1.3873  3.2429 -1.2252
 5826SOL     OW18898   6.393   3.061   0.261  0.4248  0.5357 -0.0930
 5826SOL    HW118899   6.408   3.099   0.347  0.6837 -0.2192  0.2045
 5826SOL    HW218900   6.438   3.120   0.200  2.2954 -0.1923  0.5211
 5827SOL     OW18901   9.205   4.197   6.494 -0.3223 -0.1746  0.0321
 5827SOL    HW118902   9.145   4.147   6.550  0.8887 -0.4329  1.1534
 5827SOL    HW218903   9.227   4.137   6.423  1.1500 -1.3098  1.3877
 5828SOL     OW18904   3.880   6.693   4.851  0.3669 -0.4581  0.2333
 5828SOL    HW118905   3.971   6.663   4.852  0.5965  0.2044  0.1342
 5828SOL    HW218906   3.876   6.759   4.920 -0.2876 -1.1584  0.8826
 5829SOL     OW18907   1.080   4.699   7.656 -0.2585  0.2582 -0.2753
 5829SOL    HW118908   1.081   4.792   7.682 -0.5078 -0.3238  2.0259
 5829SOL    HW218909   1.028   4.698   7.575 -0.0638  2.1443 -0.4785
 5830SOL     OW18910   4.708   7.152   5.674  0.4437 -0.1433  0.8728
 5830SOL    HW118911   4.774   7.097   5.714  0.6679  1.6201  3.2142
 5830SOL    HW218912   4.736   7.242   5.695 -1.3883  0.7372 -0.1815
 5831SOL     OW18913   4.292   2.671   2.017  0.8136 -0.3425 -0.7246
 5831SOL    HW118914   4.371   2.692   2.067 -0.5455  0.8663  1.0284
 5831SOL    HW218915   4.259   2.591   2.057 -1.2576  1.5583  1.7615
 5832SOL     OW18916   9.080   2.118   8.837 -0.2203  0.0688  0.1776
 5832SOL    HW118917   9.164   2.104   8.881 -0.3545 -0.1587  0.3650
 5832SOL    HW218918   9.077   2.212   8.820  0.4482 -0.0441 -0.5843
 5833SOL     OW18919   7.198   7.773   2.774 -0.0153 -0.1602 -0.1217
 5833SOL    HW118920   7.139   7.830   2.822 -0.2896 -0.1091 -0.5128
 5833SOL    HW218921   7.193   7.689   2.819  0.0028 -0.0126  0.1523
 5834SOL     OW18922   8.046   8.057   2.458  0.3211  0.4085 -0.4598
 5834SOL    HW118923   8.101   8.053   2.379  0.2491  0.3796 -0.5081
 5834SOL    HW218924   8.088   8.124   2.513  0.4202  0.3682 -0.4853
 5835SOL     OW18925   2.731   3.972   0.959  0.0519  0.1100  0.0338
 5835SOL    HW118926   2.764   4.062   0.956  1.8534 -0.5030  0.1091
 5835SOL    HW218927   2.649   3.979   1.009 -0.1109  1.7628 -0.3900
 5836SOL     OW18928   8.834   1.528   7.918  0.2188  0.2202  0.2231
 5836SOL    HW118929   8.853   1.508   8.009 -1.1110  2.4322  1.0769
 5836SOL    HW218930   8.749   1.486   7.901 -0.2453  1.0082  0.5092
 5837SOL     OW18931   8.035   0.324   5.028  0.0232 -0.6166 -0.1122
 5837SOL    HW118932   8.092   0.395   5.057 -2.3034  1.9277 -1.3293
 5837SOL    HW218933   8.091   0.271   4.971  1.2693  1.7212 -1.2424
 5838SOL     OW18934   4.633   0.663   7.962  0.2236 -0.3940 -0.2094
 5838SOL    HW118935   4.683   0.597   8.009  2.5222  1.6182  0.3805
 5838SOL    HW218936   4.669   0.661   7.873  0.8739  0.5562  0.0191
 5839SOL     OW18937   6.832   7.665   0.612 -0.7989 -0.1984  0.1485
 5839SOL    HW118938   6.875   7.675   0.527  0.2260  0.1335  0.6890
 5839SOL    HW218939   6.879   7.593   0.654  0.5989  1.4580  1.5517
 5840SOL     OW18940   1.974   6.486   9.267 -0.6321 -0.0468  0.3009
 5840SOL    HW118941   1.983   6.421   9.197 -2.9317 -0.2214  0.0790
 5840SOL    HW218942   2.053   6.539   9.260  0.4535 -1.6826 -0.6940
 5841SOL     OW18943   7.908   5.557   4.257  0.2180  0.1990  0.0828
 5841SOL    HW118944   7.826   5.508   4.263 -0.3740  0.7289 -2.7265
 5841SOL    HW218945   7.970   5.495   4.220  0.4608  0.5160 -0.0418
 5842SOL     OW18946   1.942   0.129   6.486 -0.0959  0.0825  0.4720
 5842SOL    HW118947   1.984   0.214   6.469  1.0844 -0.8246 -1.5341
 5842SOL    HW218948   1.907   0.137   6.575 -1.4919  3.2337 -0.2223
 5843SOL     OW18949   0.619   2.515   0.223  0.2141 -0.1569  0.2010
 5843SOL    HW118950   0.578   2.578   0.164 -1.1325 -1.2503 -0.0707
 5843SOL    HW218951   0.583   2.535   0.309 -2.1160 -2.0043 -0.2482
 5844SOL     OW18952   8.459   1.433   5.885 -0.2671 -0.1804  0.1586
 5844SOL    HW118953   8.381   1.385   5.912 -1.3915  1.0590 -0.7499
 5844SOL    HW218954   8.432   1.481   5.806  1.4470  0.1845 -0.2545
 5845SOL     OW18955   3.461   0.329   5.242 -0.4857  0.1992  0.1342
 5845SOL    HW118956   3.507   0.306   5.161  0.2340 -0.2023  0.6505
 5845SOL    HW218957   3.530   0.349   5.304 -0.9991 -0.4613  0.9336
 5846SOL     OW18958   6.747   9.276   1.757 -0.3405 -0.0394 -0.2002
 5846SOL    HW118959   6.691   9.246   1.686  0.4589 -0.3958 -0.7037
 5846SOL    HW218960   6.735   9.370   1.761 -0.2111  0.0111 -0.9740
 5847SOL     OW18961   8.428   8.635   4.682  0.7325 -0.3717  0.1242
 5847SOL    HW118962   8.471   8.574   4.742  0.9014 -0.6150 -0.2420
 5847SOL    HW218963   8.444   8.721   4.720  0.4986 -0.5522  0.6417
 5848SOL     OW18964   5.256   6.273   5.823  0.2279 -0.4277  0.1613
 5848SOL    HW118965   5.293   6.328   5.754  0.5905  0.1137  0.7775
 5848SOL    HW218966   5.208   6.204   5.776  0.5059 -0.0928 -0.6244
 5849SOL     OW18967   6.577   7.996   7.726 -0.7080  0.1900 -0.0842
 5849SOL    HW118968   6.483   7.979   7.717 -1.2619  1.7431  2.2412
 5849SOL    HW218969   6.615   7.909   7.743 -1.5444 -0.5792 -1.8575
 5850SOL     OW18970   7.623   5.665   8.225  0.6186  0.1930 -0.3393
 5850SOL    HW118971   7.591   5.587   8.178 -0.5056  0.9854 -0.9532
 5850SOL    HW218972   7.718   5.663   8.213  0.5203 -0.5944 -1.1123
 5851SOL     OW18973   8.869   7.367   3.680 -0.1454 -0.0986 -0.0924
 5851SOL    HW118974   8.800   7.433   3.672  0.1725  0.1773 -0.6225
 5851SOL    HW218975   8.834   7.290   3.635 -0.2905 -0.1058  0.0339
 5852SOL     OW18976   0.390   8.584   6.584 -0.3648 -0.2097 -0.1569
 5852SOL    HW118977   0.313   8.609   6.634 -1.0773 -0.5066 -1.0706
 5852SOL    HW218978   0.415   8.664   6.537  0.0119 -0.0574  0.3045
 5853SOL     OW18979   3.892   3.226   1.605  0.2622  0.1717  0.1791
 5853SOL    HW118980   3.856   3.149   1.648  0.9846  0.7504  1.9113
 5853SOL    HW218981   3.980   3.235   1.641  1.1521  0.3840 -1.8705
 5854SOL     OW18982   6.797   0.075   2.172  0.2182 -0.2371  0.4638
 5854SOL    HW118983   6.870   0.130   2.145 -0.0296 -0.0579  0.1502
 5854SOL    HW218984   6.793   0.007   2.105  1.5519 -1.6109  1.6984
 5855SOL     OW18985   5.890   3.187   2.945 -0.7040  0.0619 -0.3404
 5855SOL    HW118986   5.831   3.262   2.941 -0.9939 -0.0951  0.6502
 5855SOL    HW218987   5.862   3.130   2.873 -0.7341  0.7185 -0.8542
 5856SOL     OW18988   4.035   8.130   4.953  0.4716 -0.0820  0.0843
 5856SOL    HW118989   4.129   8.115   4.953  0.5500  0.4043  0.5954
 5856SOL    HW218990   4.023   8.213   4.999 -0.2945 -0.7465  1.1193
 5857SOL     OW18991   0.405   4.199   4.892 -0.6395 -0.2551  0.1268
 5857SOL    HW118992   0.383   4.170   4.804 -1.6526 -0.0543  0.3061
 5857SOL    HW218993   0.500   4.211   4.890 -0.2741 -2.7622 -0.1885
 5858SOL     OW18994   3.819   1.292   7.740  0.2741  0.0087  0.4219
 5858SOL    HW118995   3.887   1.230   7.716  0.8744  0.3024  1.3005
 5858SOL    HW218996   3.809   1.349   7.664  1.2728  0.1835  0.4093
 5859SOL     OW18997   0.964   1.676   7.312  0.1996 -0.1031  0.2640
 5859SOL    HW118998   0.895   1.641   7.368  0.2438  0.0953  0.4450
 5859SOL    HW218999   0.988   1.760   7.352  0.7810 -0.3242  0.3935
 5860SOL     OW19000   1.683   7.031   6.594 -0.4985 -0.2697 -0.2608
 5860SOL    HW119001   1.612   6.981   6.555 -1.1381  1.3048 -1.1998
 5860SOL    HW219002   1.640   7.107   6.633  0.3322 -0.8595  1.9845
 5861SOL     OW19003   6.738   0.312   6.514  0.2224  0.6169  0.2354
 5861SOL    HW119004   6.674   0.282   6.450  0.3113  2.0175 -0.5449
 5861SOL    HW219005   6.787   0.233   6.537 -0.5655 -0.1205 -0.5500
 5862SOL     OW19006   8.125   7.428   4.480  0.3686 -0.3898 -0.5998
 5862SOL    HW119007   8.081   7.508   4.450  0.4591 -0.2705 -0.4154
 5862SOL    HW219008   8.092   7.414   4.568 -2.3539 -2.5118 -1.8203
 5863SOL     OW19009   8.005   0.340   5.633  0.4201  0.1511  0.7685
 5863SOL    HW119010   8.050   0.328   5.549 -0.6665 -0.0241  0.1919
 5863SOL    HW219011   7.933   0.277   5.631  1.3063 -1.0058  2.5456
 5864SOL     OW19012   3.125   0.504   8.295  0.3528 -0.0748 -0.1600
 5864SOL    HW119013   3.167   0.504   8.209 -1.4702 -1.0705 -1.1154
 5864SOL    HW219014   3.041   0.548   8.280  0.7769  1.4652  1.5854
 5865SOL     OW19015   5.967   0.737   7.562 -0.1819  0.2953  0.0066
 5865SOL    HW119016   6.024   0.758   7.637 -1.6157 -0.0385  1.2495
 5865SOL    HW219017   5.969   0.816   7.508 -0.7116  1.3710  1.4707
 5866SOL     OW19018   3.039   7.198   8.685 -0.4888 -0.1088 -0.6053
 5866SOL    HW119019   3.048   7.254   8.608  1.0167  0.3453 -0.1337
 5866SOL    HW219020   3.056   7.110   8.653  0.9725  0.1726 -0.6744
 5867SOL     OW19021   1.930   1.839   7.131  0.2647  0.1309 -0.0221
 5867SOL    HW119022   1.882   1.902   7.185  0.1692  0.6897 -0.7393
 5867SOL    HW219023   1.899   1.856   7.042  1.7069  0.4501 -0.4917
 5868SOL     OW19024   3.896   8.599   4.975  0.1149  0.8923 -0.0171
 5868SOL    HW119025   3.953   8.658   4.927 -0.4906  0.7211 -0.9866
 5868SOL    HW219026   3.900   8.517   4.926 -0.1366  0.5620  0.5051
 5869SOL     OW19027   1.803   1.803   5.724 -0.1963  0.0318  0.0258
 5869SOL    HW119028   1.855   1.725   5.742 -2.0075 -1.2573 -0.1129
 5869SOL    HW219029   1.814   1.857   5.802  0.9529 -0.4181  0.1950
 5870SOL     OW19030   6.486   1.386   8.730 -0.0275 -0.3605  0.0340
 5870SOL    HW119031   6.443   1.449   8.788  0.1331  0.5911 -0.8495
 5870SOL    HW219032   6.415   1.349   8.678  0.1671  1.5705 -1.7733
 5871SOL     OW19033   6.808   6.532   2.471 -0.0010  0.0950 -0.2887
 5871SOL    HW119034   6.794   6.442   2.442  0.5496  0.0745 -0.5048
 5871SOL    HW219035   6.723   6.574   2.462  0.0721 -0.0090 -1.5852
 5872SOL     OW19036   2.399   5.748   3.048 -0.1361  0.2037 -0.4971
 5872SOL    HW119037   2.327   5.718   2.994  0.4265  1.1520 -1.8289
 5872SOL    HW219038   2.358   5.771   3.132 -0.8526 -2.3355 -0.0555
 5873SOL     OW19039   8.643   2.198   9.212  0.8902 -0.0924 -0.2745
 5873SOL    HW119040   8.636   2.158   9.299  1.5541 -0.2427 -0.2868
 5873SOL    HW219041   8.634   2.292   9.228  1.3969 -0.0886  0.0035
 5874SOL     OW19042   6.783   2.171   3.568  0.2836 -0.0994 -0.2939
 5874SOL    HW119043   6.788   2.075   3.560 -0.4641 -0.0807 -1.1725
 5874SOL    HW219044   6.874   2.201   3.562  0.5972 -0.7940  0.7036
 5875SOL     OW19045   6.481   7.626   4.216 -0.2180 -0.5397  0.2053
 5875SOL    HW119046   6.521   7.709   4.191  0.9251 -1.6413 -1.8927
 5875SOL    HW219047   6.544   7.586   4.275 -0.5395 -0.1784  0.8128
 5876SOL     OW19048   3.326   7.965   1.003 -0.3577  0.1312 -0.2124
 5876SOL    HW119049   3.288   7.935   1.085  0.1804  0.6925  0.2451
 5876SOL    HW219050   3.290   8.053   0.990  0.5691  0.5686  0.0958
 5877SOL     OW19051   2.193   2.179   3.997  1.3391 -0.0823 -0.3304
 5877SOL    HW119052   2.196   2.084   4.000  2.1253 -0.2677 -3.5120
 5877SOL    HW219053   2.282   2.206   4.021  0.9179 -0.0252  1.3324
 5878SOL     OW19054   3.150   0.547   5.205 -0.2965  0.0424 -0.1616
 5878SOL    HW119055   3.130   0.560   5.113  1.2565 -0.1862 -0.5706
 5878SOL    HW219056   3.140   0.453   5.220 -1.6590  0.2355  0.2065
 5879SOL     OW19057   7.499   8.124   0.680 -0.4106 -0.5656 -0.6874
 5879SOL    HW119058   7.406   8.149   0.674 -0.2442  0.1282 -0.5230
 5879SOL    HW219059   7.545   8.208   0.678  0.1046 -0.7631  1.3901
 5880SOL     OW19060   8.343   6.503   6.550  0.3784  0.1029 -0.0298
 5880SOL    HW119061   8.361   6.413   6.522 -1.0774 -0.0717 -0.4883
 5880SOL    HW219062   8.274   6.494   6.615  0.4275  0.8763  0.1337
 5881SOL     OW19063   6.606   1.394   6.359 -0.8742  0.2667  0.1675
 5881SOL    HW119064   6.657   1.444   6.422 -0.4089  0.2754 -0.2109
 5881SOL    HW219065   6.661   1.318   6.339 -0.9112  0.3910 -0.4087
 5882SOL     OW19066   4.149   5.247   7.426 -0.3093  0.6296  0.4025
 5882SOL    HW119067   4.143   5.342   7.424 -0.0390  0.6725  1.2441
 5882SOL    HW219068   4.058   5.218   7.419 -0.4370  0.9673  0.6007
 5883SOL     OW19069   8.529   5.865   8.724 -0.2565  0.0150 -0.1575
 5883SOL    HW119070   8.451   5.808   8.723 -0.3517  0.1449 -0.2238
 5883SOL    HW219071   8.500   5.944   8.770 -1.1155  1.3810 -2.8260
 5884SOL     OW19072   8.720   3.389   6.930 -0.7963  0.4706  0.1714
 5884SOL    HW119073   8.724   3.355   6.840 -1.0406 -1.1801  0.7554
 5884SOL    HW219074   8.634   3.430   6.937 -1.1487 -0.2263 -0.0679
 5885SOL     OW19075   4.862   7.286   2.584  0.0628 -0.3743  0.4889
 5885SOL    HW119076   4.951   7.279   2.548  0.0566  0.2954  0.3254
 5885SOL    HW219077   4.822   7.202   2.565  0.2740 -0.2616 -0.5096
 5886SOL     OW19078   6.490   3.295   4.649 -0.2663  0.3434 -0.2078
 5886SOL    HW119079   6.524   3.220   4.601  1.2393  1.1852 -0.5055
 5886SOL    HW219080   6.453   3.258   4.729 -1.1594 -0.8884 -1.1455
 5887SOL     OW19081   2.927   6.616   8.556  0.1646 -0.3210 -0.2012
 5887SOL    HW119082   2.856   6.680   8.547  2.3430  2.1380 -0.9379
 5887SOL    HW219083   2.946   6.615   8.650  0.3627  0.4569 -0.2215
 5888SOL     OW19084   6.658   4.269   4.659  0.0542  0.3488 -0.0245
 5888SOL    HW119085   6.707   4.244   4.738 -0.4011 -2.4784 -0.5136
 5888SOL    HW219086   6.575   4.302   4.692 -0.1387 -0.8222  0.7472
 5889SOL     OW19087   7.512   2.640   1.221 -0.0913  0.2111  1.0640
 5889SOL    HW119088   7.588   2.624   1.278  0.0672 -1.0978  0.5226
 5889SOL    HW219089   7.460   2.560   1.228 -0.3122  0.2196 -0.2487
 5890SOL     OW19090   0.618   6.631   0.878  0.4204 -0.2797 -0.2759
 5890SOL    HW119091   0.666   6.662   0.955 -0.7719 -2.1012  1.3037
 5890SOL    HW219092   0.556   6.702   0.858  1.4246  0.6377 -0.2335
 5891SOL     OW19093   8.883   0.315   7.282  0.2389  0.0707  0.7157
 5891SOL    HW119094   8.907   0.233   7.238  0.6564  0.4055  0.3195
 5891SOL    HW219095   8.787   0.317   7.278  0.2245 -0.4192  0.7603
 5892SOL     OW19096   0.063   6.389   8.534 -0.8744  0.3734  0.2837
 5892SOL    HW119097   0.116   6.467   8.549 -0.3106  0.1729 -0.5656
 5892SOL    HW219098  -0.022   6.423   8.506 -0.2260  0.7246 -1.4194
 5893SOL     OW19099   4.669   7.753   7.939  0.0789  0.5397 -0.2466
 5893SOL    HW119100   4.655   7.781   7.848 -2.4203  0.2889 -0.0094
 5893SOL    HW219101   4.705   7.665   7.931 -1.3078  0.0186 -1.0296
 5894SOL     OW19102   6.557   1.330   5.299  0.0575  0.2152 -0.2941
 5894SOL    HW119103   6.483   1.373   5.256 -1.2304  0.5813  2.0832
 5894SOL    HW219104   6.625   1.327   5.233 -0.7195  3.4345 -1.4436
 5895SOL     OW19105   0.292   7.988   4.637  0.0993  0.0557  0.4349
 5895SOL    HW119106   0.307   8.009   4.729  1.2178 -4.5561  1.5806
 5895SOL    HW219107   0.224   7.921   4.637 -0.1997  0.2215 -2.1699
 5896SOL     OW19108   2.732   6.669   5.373 -0.3704  0.1398  0.0906
 5896SOL    HW119109   2.811   6.658   5.320 -2.3829 -0.4498 -3.0429
 5896SOL    HW219110   2.705   6.760   5.357 -0.9184 -0.0001  0.2048
 5897SOL     OW19111   4.344   8.468   0.905  0.0243  0.2650  0.1653
 5897SOL    HW119112   4.377   8.401   0.845 -0.8729  0.0034 -0.0490
 5897SOL    HW219113   4.265   8.501   0.863  0.5344  1.5836  0.1882
 5898SOL     OW19114   1.673   0.316   4.856  0.1118  0.5641  0.4139
 5898SOL    HW119115   1.624   0.339   4.777  1.0319  1.5302  0.1012
 5898SOL    HW219116   1.666   0.221   4.862  1.2748  0.2992 -1.6792
 5899SOL     OW19117   3.226   5.332   4.450 -0.2422 -0.0756 -0.0101
 5899SOL    HW119118   3.306   5.376   4.478 -0.3613 -1.0572  1.9760
 5899SOL    HW219119   3.160   5.402   4.446  0.1788  0.3544  0.5205
 5900SOL     OW19120   7.122   1.948   4.451 -0.7736  0.0871 -0.0689
 5900SOL    HW119121   7.179   2.024   4.435 -1.6423  0.7191 -0.2695
 5900SOL    HW219122   7.126   1.898   4.370  0.7862 -0.7610  0.5128
 5901SOL     OW19123   8.658   8.219   0.311  0.7059 -0.1658 -0.1170
 5901SOL    HW119124   8.636   8.147   0.371 -1.6203  0.4303 -0.1596
 5901SOL    HW219125   8.661   8.178   0.225  1.1592 -0.5275  0.0704
 5902SOL     OW19126   8.018   4.930   7.061  0.2787  0.0227  0.6948
 5902SOL    HW119127   7.954   4.991   7.027  0.7233 -1.1284 -2.5106
 5902SOL    HW219128   7.976   4.844   7.053  2.3937 -0.8886 -2.4929
 5903SOL     OW19129   3.367   6.525   2.587  0.1861 -0.4146  0.4514
 5903SOL    HW119130   3.358   6.439   2.628  0.8542 -0.5619  0.2922
 5903SOL    HW219131   3.451   6.521   2.541  0.7679  0.7310  1.3874
 5904SOL     OW19132   5.204   8.687   0.593 -0.0589 -0.5834 -0.0651
 5904SOL    HW119133   5.214   8.751   0.663  2.5841 -0.8248 -0.1460
 5904SOL    HW219134   5.135   8.724   0.537 -2.6571 -0.6312  2.8069
 5905SOL     OW19135   8.526   0.485   7.032 -0.1458 -0.0110 -0.0648
 5905SOL    HW119136   8.598   0.546   7.047 -0.4883  0.0440  1.6198
 5905SOL    HW219137   8.464   0.533   6.978  0.8152  0.1373 -1.0547
 5906SOL     OW19138   0.742   4.875   2.314  0.2976 -0.5317 -0.0412
 5906SOL    HW119139   0.725   4.803   2.253  0.8649 -0.0845 -0.7466
 5906SOL    HW219140   0.756   4.832   2.399 -0.2572 -1.1768 -0.2704
 5907SOL     OW19141   5.796   2.112   5.467  0.2578  0.2852  0.1623
 5907SOL    HW119142   5.721   2.057   5.448  0.2121  0.9153 -1.6143
 5907SOL    HW219143   5.782   2.141   5.558 -0.1377 -1.8707  0.8373
 5908SOL     OW19144   7.889   8.085   1.687  0.1902 -0.5045 -0.4226
 5908SOL    HW119145   7.981   8.109   1.676  0.4569 -0.8527  0.8801
 5908SOL    HW219146   7.874   8.016   1.622  0.3555  0.7342 -1.8223
 5909SOL     OW19147   8.140   9.086   6.791  0.0184  0.0661  0.2048
 5909SOL    HW119148   8.183   9.127   6.716 -0.4965 -0.5846 -0.4625
 5909SOL    HW219149   8.211   9.055   6.846  0.4423 -1.6239 -1.2311
 5910SOL     OW19150   7.534   6.954   0.701 -0.1051 -0.2092  0.6832
 5910SOL    HW119151   7.579   6.886   0.751  2.8409  0.7044 -0.5319
 5910SOL    HW219152   7.516   6.914   0.616  0.8070  0.1967  0.2828
 5911SOL     OW19153   2.170   8.767   1.708  0.3120 -0.2467  0.0528
 5911SOL    HW119154   2.119   8.698   1.665 -1.0449  0.7552 -0.0062
 5911SOL    HW219155   2.214   8.813   1.636 -1.8355  1.3296 -0.3665
 5912SOL     OW19156   5.152   7.579   0.305 -0.1340  0.1239 -0.6714
 5912SOL    HW119157   5.228   7.599   0.251 -0.2749  0.6771 -0.6734
 5912SOL    HW219158   5.101   7.518   0.252 -0.0850  0.3735 -1.0122
 5913SOL     OW19159   5.057   7.933   8.609  0.4503 -0.1305  0.0905
 5913SOL    HW119160   5.075   8.023   8.580 -0.5470  0.3006  0.7674
 5913SOL    HW219161   4.987   7.942   8.673  0.3168 -1.4056  0.1429
 5914SOL     OW19162   4.193   7.646   9.128  0.1508  0.0399  0.1746
 5914SOL    HW119163   4.188   7.569   9.184 -0.0192  2.0065  3.0913
 5914SOL    HW219164   4.227   7.715   9.185  0.2988  2.1448 -2.2839
 5915SOL     OW19165   7.701   5.635   2.916  0.1111 -0.3963 -0.1090
 5915SOL    HW119166   7.650   5.612   2.994  1.2640  1.8145  1.3862
 5915SOL    HW219167   7.637   5.635   2.845 -1.6355  0.5902  1.3921
 5916SOL     OW19168   3.007   6.071   2.875 -0.5545  0.2947  0.1377
 5916SOL    HW119169   2.912   6.070   2.867 -0.7126 -0.9495  1.7156
 5916SOL    HW219170   3.035   5.982   2.857  0.4067  0.7907 -0.9740
 5917SOL     OW19171   8.599   0.362   7.610 -0.7219 -0.0162 -0.5930
 5917SOL    HW119172   8.624   0.373   7.702 -0.6097  0.1936 -0.6486
 5917SOL    HW219173   8.538   0.289   7.611 -3.6980  2.3145  0.1791
 5918SOL     OW19174   4.719   2.338   4.418 -0.0130 -0.0311 -0.2582
 5918SOL    HW119175   4.712   2.243   4.417  0.3794 -0.0601 -0.9662
 5918SOL    HW219176   4.813   2.355   4.405  0.0709  0.4403  0.8451
 5919SOL     OW19177   4.673   5.981   2.082  0.1582  0.4258 -0.0365
 5919SOL    HW119178   4.736   6.016   2.019 -0.3221 -1.7119 -1.8460
 5919SOL    HW219179   4.588   5.995   2.041 -0.4047  1.1682  1.3086
 5920SOL     OW19180   1.839   2.640   6.705  0.5758 -0.3065 -0.5765
 5920SOL    HW119181   1.843   2.603   6.617  3.4661 -1.9145  0.0900
 5920SOL    HW219182   1.785   2.718   6.696 -0.7265 -1.3904 -3.3678
 5921SOL     OW19183   7.962   7.319   4.722  0.4572  0.1686 -0.3100
 5921SOL    HW119184   7.962   7.408   4.757  0.9143 -0.2754  0.8796
 5921SOL    HW219185   8.033   7.275   4.769  1.0558 -0.4820 -1.7916
 5922SOL     OW19186   0.650   0.651   6.874 -0.4122  0.2546  0.2150
 5922SOL    HW119187   0.655   0.745   6.859  0.4456  0.5276  1.9992
 5922SOL    HW219188   0.557   0.629   6.861 -0.6533  1.3624 -0.0067
 5923SOL     OW19189   2.643   2.704   1.697  0.5812  0.6347  0.4172
 5923SOL    HW119190   2.686   2.787   1.677  1.3782  0.6496  2.0770
 5923SOL    HW219191   2.667   2.684   1.787  0.2943 -1.3494  0.1160
 5924SOL     OW19192   4.908   8.840   0.919  0.0941  0.1003  0.6866
 5924SOL    HW119193   4.893   8.934   0.904  0.9770  0.1863  0.2785
 5924SOL    HW219194   4.869   8.797   0.843  4.5110  0.5296 -2.2429
 5925SOL     OW19195   3.210   6.014   7.027 -0.8271 -0.1222 -0.0852
 5925SOL    HW119196   3.278   5.950   7.047 -0.5392  0.3845  0.6025
 5925SOL    HW219197   3.184   5.995   6.937  0.9855  0.3612 -0.7572
 5926SOL     OW19198   3.216   6.331   3.757  0.3703  0.1322  0.9071
 5926SOL    HW119199   3.159   6.330   3.680  0.8898 -0.9555  0.5122
 5926SOL    HW219200   3.276   6.258   3.743  1.2147  0.6298  1.8027
 5927SOL     OW19201   3.731   5.598   4.502 -0.1869 -0.0385 -0.1739
 5927SOL    HW119202   3.744   5.660   4.430 -1.8884  2.1590  1.3300
 5927SOL    HW219203   3.808   5.610   4.558 -1.3066  2.1606  1.0375
 5928SOL     OW19204   3.790   6.693   8.486  0.5553 -0.1630  0.1018
 5928SOL    HW119205   3.778   6.600   8.505  1.0854 -0.1818  0.3503
 5928SOL    HW219206   3.873   6.716   8.528 -0.6692  0.9691  2.0984
 5929SOL     OW19207   8.389   6.496   7.285  0.3642 -0.1847  0.0676
 5929SOL    HW119208   8.363   6.585   7.258  1.2857  0.9900  2.7072
 5929SOL    HW219209   8.431   6.509   7.370 -0.1751 -3.2803  0.8975
 5930SOL     OW19210   3.706   9.008   4.466  0.3731  0.3468  0.1526
 5930SOL    HW119211   3.715   8.953   4.544 -2.3213  0.6945  0.8381
 5930SOL    HW219212   3.628   8.974   4.422  2.4079 -0.5808 -3.1240
 5931SOL     OW19213   2.440   5.459   7.352 -0.1844  1.0178 -0.2401
 5931SOL    HW119214   2.345   5.464   7.362 -0.2716 -1.3204  1.0793
 5931SOL    HW219215   2.469   5.550   7.343 -2.5229  1.7853 -0.5987
 5932SOL     OW19216   4.351   5.234   0.626 -0.5659  0.2755  0.5493
 5932SOL    HW119217   4.264   5.195   0.634 -0.0702 -1.0904 -0.3302
 5932SOL    HW219218   4.403   5.195   0.696  0.7261 -3.0841 -1.9994
 5933SOL     OW19219   8.447   3.121   3.410 -0.4022 -0.6175  0.1489
 5933SOL    HW119220   8.457   3.050   3.347  1.8102 -0.2985  0.0655
 5933SOL    HW219221   8.377   3.175   3.374 -1.2028 -2.0071 -0.4709
 5934SOL     OW19222   3.678   0.002   0.028  0.2298 -0.5663  0.1916
 5934SOL    HW119223   3.612   0.071   0.029  0.8722  0.0601  1.1171
 5934SOL    HW219224   3.665  -0.045   0.111  0.5588 -0.8093  0.1081
 5935SOL     OW19225   2.686   2.905   8.082  0.4638  0.0440  0.5634
 5935SOL    HW119226   2.703   2.862   8.166  1.1347 -0.2134  0.3062
 5935SOL    HW219227   2.773   2.922   8.046  0.2081  1.1259  0.3998
 5936SOL     OW19228   0.623   2.368   7.854 -0.0066  0.0142 -0.2650
 5936SOL    HW119229   0.597   2.342   7.942 -2.1993  0.0736 -0.8340
 5936SOL    HW219230   0.578   2.451   7.839  1.7288  0.8863 -0.8265
 5937SOL     OW19231   2.300   7.804   5.728 -0.1531  0.3810 -0.1816
 5937SOL    HW119232   2.299   7.863   5.653 -0.3125  2.2351  1.2175
 5937SOL    HW219233   2.384   7.758   5.721 -0.1678  0.5141 -1.4696
 5938SOL     OW19234   2.597   7.601   1.865  0.4021  0.1491  0.1913
 5938SOL    HW119235   2.652   7.526   1.890  1.3357  0.1354 -1.6899
 5938SOL    HW219236   2.659   7.674   1.857 -0.0957  0.5063 -0.4626
 5939SOL     OW19237   9.041   0.301   4.593 -0.1748 -0.9823  0.1305
 5939SOL    HW119238   8.995   0.219   4.573 -2.2309 -0.1472  1.1050
 5939SOL    HW219239   9.009   0.326   4.680  0.5360  0.7651 -0.0713
 5940SOL     OW19240   0.725   3.897   0.943 -0.2025  0.0718  0.0090
 5940SOL    HW119241   0.686   3.973   0.900 -1.1626 -0.2758  0.2350
 5940SOL    HW219242   0.800   3.874   0.889 -0.7742  0.2892 -0.8937
 5941SOL     OW19243   4.127   0.056   4.370  0.0332 -0.2222 -0.1816
 5941SOL    HW119244   4.140  -0.037   4.350 -0.2891 -0.5180  0.8950
 5941SOL    HW219245   4.051   0.081   4.319  0.1091 -0.5618 -0.4647
 5942SOL     OW19246   5.188   5.937   7.313  0.4182 -0.4702  0.0842
 5942SOL    HW119247   5.207   5.977   7.228 -0.7697 -0.4798 -0.1990
 5942SOL    HW219248   5.101   5.969   7.336 -0.0319 -1.8874  0.4465
 5943SOL     OW19249   8.097   4.574   3.701  0.2580 -0.5250 -0.6586
 5943SOL    HW119250   8.063   4.557   3.613  0.9803 -1.9412 -0.6991
 5943SOL    HW219251   8.048   4.650   3.732 -0.9924 -0.8573 -1.7444
 5944SOL     OW19252   0.224   1.459   6.077  0.6576 -0.1060 -0.0565
 5944SOL    HW119253   0.200   1.449   5.985 -0.2322 -0.2188  0.1876
 5944SOL    HW219254   0.264   1.375   6.100 -1.2557 -0.9629  0.2940
 5945SOL     OW19255   9.008   4.697   1.283  0.0280 -0.3493  0.1323
 5945SOL    HW119256   8.970   4.781   1.258  0.9501  0.1008  0.2022
 5945SOL    HW219257   9.096   4.719   1.313  0.4550 -1.4069 -0.3174
 5946SOL     OW19258   5.969   3.239   0.284  0.0554 -0.4249  0.1288
 5946SOL    HW119259   6.000   3.318   0.240 -0.2158 -0.3500  0.0733
 5946SOL    HW219260   6.000   3.248   0.375 -0.0784 -0.2000  0.1511
 5947SOL     OW19261   7.592   1.326   1.263  0.3465 -0.9196  0.0054
 5947SOL    HW119262   7.619   1.235   1.253  0.8925 -0.6683 -0.8782
 5947SOL    HW219263   7.530   1.340   1.191 -0.5092 -0.8680  0.7338
 5948SOL     OW19264   2.859   4.680   6.620  0.2467 -0.0213 -0.2846
 5948SOL    HW119265   2.790   4.722   6.671  0.3534  1.3568 -1.2072
 5948SOL    HW219266   2.814   4.611   6.571 -0.0223 -0.7142  0.8956
 5949SOL     OW19267   0.015   1.735   2.196  0.0495 -0.4358 -0.2704
 5949SOL    HW119268   0.086   1.785   2.238 -2.0339  2.1923  0.3686
 5949SOL    HW219269   0.019   1.761   2.104 -0.7609  0.6502 -0.0179
 5950SOL     OW19270   5.546   1.509   2.627  0.1645 -0.1597 -0.2701
 5950SOL    HW119271   5.469   1.534   2.678 -0.0460 -0.4882 -0.4241
 5950SOL    HW219272   5.542   1.413   2.622 -1.8787 -0.0537 -4.0300
 5951SOL     OW19273   6.461   2.880   5.595 -0.2967 -0.1239 -0.2520
 5951SOL    HW119274   6.551   2.853   5.578 -0.0719  0.7666 -0.4916
 5951SOL    HW219275   6.408   2.809   5.560  0.2844 -0.2558 -0.8774
 5952SOL     OW19276   7.568   5.688   4.131 -0.3861  0.9592 -0.3361
 5952SOL    HW119277   7.482   5.679   4.171  0.5652 -0.7035  1.5327
 5952SOL    HW219278   7.628   5.646   4.194  1.8745  2.6018 -1.2563
 5953SOL     OW19279   7.535   5.876   6.754  0.2361 -0.3157 -0.5042
 5953SOL    HW119280   7.515   5.784   6.734  1.2533 -0.7244  0.2183
 5953SOL    HW219281   7.565   5.874   6.845  0.1086  0.7668 -0.4320
 5954SOL     OW19282   9.144   3.373   5.141  0.2560 -0.6775  0.4036
 5954SOL    HW119283   9.139   3.409   5.230 -1.2189 -1.0558  0.4919
 5954SOL    HW219284   9.183   3.444   5.089  1.4792 -0.5928  1.4104
 5955SOL     OW19285   3.347   3.801   2.889  0.7751  0.1324  0.0130
 5955SOL    HW119286   3.294   3.880   2.884  0.4347 -0.0922  0.0227
 5955SOL    HW219287   3.434   3.832   2.912  0.3649  0.4108  1.2893
 5956SOL     OW19288   8.841   4.735   4.746 -0.1951  0.1230  0.1739
 5956SOL    HW119289   8.786   4.788   4.804  0.3748  0.1709  0.6831
 5956SOL    HW219290   8.911   4.794   4.719  0.0167 -0.1515  0.1216
 5957SOL     OW19291   8.557   0.399   6.410  0.1200 -0.0737 -0.3689
 5957SOL    HW119292   8.559   0.493   6.389 -1.1524 -0.4505 -2.4101
 5957SOL    HW219293   8.648   0.371   6.402  1.0769  1.4602  3.1121
 5958SOL     OW19294   1.187   8.914   7.935  0.4824 -0.0741 -0.5045
 5958SOL    HW119295   1.207   8.957   8.018 -0.7838  0.7969 -0.6252
 5958SOL    HW219296   1.267   8.866   7.913  0.7015 -0.7093  1.4411
 5959SOL     OW19297   5.274   9.083   8.678 -0.2025 -0.1905  0.6463
 5959SOL    HW119298   5.180   9.081   8.698  0.2185  1.0400  3.1181
 5959SOL    HW219299   5.299   8.991   8.672 -1.6318 -0.5491 -0.6436
 5960SOL     OW19300   1.583   6.565   3.634  0.6704 -0.4150 -0.0234
 5960SOL    HW119301   1.599   6.642   3.689  1.0253 -0.4544 -0.0726
 5960SOL    HW219302   1.666   6.550   3.589  0.0396  0.3238 -1.4799
 5961SOL     OW19303   4.686   0.892   4.963  0.2904  0.8731 -0.1136
 5961SOL    HW119304   4.777   0.912   4.940  0.3430 -1.2970 -2.1265
 5961SOL    HW219305   4.634   0.931   4.894 -0.3253  1.7272  0.8007
 5962SOL     OW19306   2.312   8.777   6.373  0.2410 -0.0108 -0.1549
 5962SOL    HW119307   2.376   8.810   6.311 -0.5673 -0.6971 -1.3813
 5962SOL    HW219308   2.280   8.695   6.335 -0.1997 -0.5064  1.2106
 5963SOL     OW19309   9.127   7.219   2.632 -0.1922  0.4603 -0.1710
 5963SOL    HW119310   9.177   7.300   2.631  0.4378  0.0776 -0.0329
 5963SOL    HW219311   9.187   7.154   2.668 -0.3880 -0.2572 -1.1010
 5964SOL     OW19312   8.621   4.882   6.881  0.2533  0.3439 -0.5970
 5964SOL    HW119313   8.528   4.864   6.867 -0.4197  1.2001  2.0546
 5964SOL    HW219314   8.622   4.937   6.960  2.9010  2.0226 -1.6814
 5965SOL     OW19315   3.268   3.159   0.852 -0.0602  0.8669 -0.3512
 5965SOL    HW119316   3.344   3.149   0.795  3.4318 -0.3716  3.9729
 5965SOL    HW219317   3.228   3.072   0.855 -0.4540  1.0112 -0.9898
 5966SOL     OW19318   5.347   7.126   1.133  0.5198  0.1186 -0.6928
 5966SOL    HW119319   5.417   7.091   1.077 -0.7828 -0.2054 -2.1780
 5966SOL    HW219320   5.393   7.182   1.196  2.0848  0.2126 -1.8470
 5967SOL     OW19321   3.988   5.531   3.188 -0.0899  1.4097 -0.4669
 5967SOL    HW119322   3.995   5.436   3.185 -0.2738  1.3767  0.0552
 5967SOL    HW219323   4.064   5.563   3.139  0.8088  1.0090  0.6311
 5968SOL     OW19324   0.741   6.120   3.777 -0.3722  0.1839 -0.9659
 5968SOL    HW119325   0.801   6.046   3.786  0.9967  1.1750 -1.6096
 5968SOL    HW219326   0.718   6.143   3.867  0.8434  0.2542 -0.6530
 5969SOL     OW19327   7.636   1.413   5.083 -0.5547  0.0468 -0.3377
 5969SOL    HW119328   7.680   1.328   5.086  2.3992  1.4353 -1.0783
 5969SOL    HW219329   7.582   1.409   5.004  1.1640 -0.4598 -1.5341
 5970SOL     OW19330   1.470   7.223   3.614 -0.6408  0.1165  0.5037
 5970SOL    HW119331   1.512   7.299   3.572 -0.9541 -0.5102 -1.0157
 5970SOL    HW219332   1.521   7.208   3.693  0.0176  1.3195  0.3407
 5971SOL     OW19333   2.286   7.658   8.439  0.5465  0.4517 -0.6057
 5971SOL    HW119334   2.248   7.736   8.479  0.4304 -0.2103  0.6306
 5971SOL    HW219335   2.309   7.601   8.513 -1.2742 -1.5746 -1.4618
 5972SOL     OW19336   3.677   1.131   4.237  0.5505  0.0177 -0.1362
 5972SOL    HW119337   3.673   1.042   4.272 -0.7820  0.6986  1.6343
 5972SOL    HW219338   3.658   1.187   4.312 -0.9728  1.6752 -1.6560
 5973SOL     OW19339   8.607   7.494   4.445 -0.1159  0.1484  0.2173
 5973SOL    HW119340   8.685   7.549   4.436  0.4290 -0.8102 -1.1724
 5973SOL    HW219341   8.554   7.538   4.512  1.3503  1.1177  0.7756
 5974SOL     OW19342   0.292   0.228   7.743  0.0903 -0.2647  0.2700
 5974SOL    HW119343   0.282   0.274   7.826 -0.8228 -0.4790  0.2916
 5974SOL    HW219344   0.286   0.135   7.767  0.9889 -0.3713  0.1089
 5975SOL     OW19345   3.965   2.233   2.835  0.0661  0.3978 -0.1627
 5975SOL    HW119346   4.003   2.159   2.789 -0.9032 -0.5029  0.4258
 5975SOL    HW219347   4.034   2.299   2.837  0.4718  0.0633 -1.9577
 5976SOL     OW19348   0.094   5.635   0.667 -0.0239  0.1436  0.0559
 5976SOL    HW119349   0.025   5.569   0.678  0.7952 -0.7533  0.0108
 5976SOL    HW219350   0.074   5.702   0.732 -1.5434  0.4538 -0.6820
 5977SOL     OW19351   4.815   7.535   7.865  0.1687  0.8570 -0.6805
 5977SOL    HW119352   4.824   7.503   7.955 -1.0594 -1.5313 -1.3098
 5977SOL    HW219353   4.902   7.567   7.842  0.6209  1.0855  1.1734
 5978SOL     OW19354   0.632   2.211   6.008  0.1049  0.0632 -0.6287
 5978SOL    HW119355   0.642   2.190   5.915 -1.4092 -0.2869 -0.7405
 5978SOL    HW219356   0.580   2.291   6.010 -0.3137 -0.2140 -0.0772
 5979SOL     OW19357   7.696   5.313   5.022 -0.0181 -0.0532  0.5268
 5979SOL    HW119358   7.687   5.322   4.927 -0.8987  1.4146  0.7186
 5979SOL    HW219359   7.729   5.398   5.051  1.3752 -0.8592  1.4358
 5980SOL     OW19360   4.253   6.808   4.018  0.6133  0.1365  0.3975
 5980SOL    HW119361   4.188   6.793   4.087  0.6794 -2.8999 -0.1065
 5980SOL    HW219362   4.332   6.765   4.050  0.3130 -2.4219 -1.9734
 5981SOL     OW19363   0.515   8.138   5.822 -0.1266  0.1563 -0.2376
 5981SOL    HW119364   0.553   8.116   5.736 -0.8806 -0.7127 -0.3643
 5981SOL    HW219365   0.539   8.064   5.878 -0.6623  0.1476 -0.0202
 5982SOL     OW19366   4.019   3.705   3.042  0.3142 -0.2016 -0.0136
 5982SOL    HW119367   4.112   3.718   3.062 -0.0082  0.5931  1.0541
 5982SOL    HW219368   3.990   3.788   3.006 -0.1879 -0.1563  0.4859
 5983SOL     OW19369   2.719   3.007   7.078  0.0905 -0.0485  0.0306
 5983SOL    HW119370   2.677   3.044   7.001  0.4759  0.6464  0.1430
 5983SOL    HW219371   2.717   2.913   7.064 -2.1480 -0.1102  0.3695
 5984SOL     OW19372   4.142   5.703   6.186 -0.0546 -0.4952  0.1394
 5984SOL    HW119373   4.174   5.789   6.157 -1.3091  0.6417  1.8927
 5984SOL    HW219374   4.153   5.705   6.282  0.1238 -2.4178  0.1924
 5985SOL     OW19375   6.170   7.229   6.516 -0.1600  0.0219 -0.4067
 5985SOL    HW119376   6.117   7.183   6.581 -0.6623  0.2368 -0.6481
 5985SOL    HW219377   6.180   7.165   6.445 -2.1672  0.7340 -1.4254
 5986SOL     OW19378   3.496   5.315   5.459 -0.5001 -0.3135 -0.2110
 5986SOL    HW119379   3.556   5.329   5.385 -1.0935 -1.4433 -0.9332
 5986SOL    HW219380   3.411   5.299   5.418 -0.5992 -2.2009  0.6281
 5987SOL     OW19381   8.893   1.053   1.337  0.2008 -0.1063 -0.4978
 5987SOL    HW119382   8.972   1.020   1.294  1.9052  2.2104  0.6160
 5987SOL    HW219383   8.892   1.146   1.316 -0.9098  0.3671  1.4391
 5988SOL     OW19384   0.485   8.224   4.168 -0.1056  0.7337 -0.5178
 5988SOL    HW119385   0.404   8.191   4.208 -0.9457  0.5429 -2.2657
 5988SOL    HW219386   0.550   8.156   4.186 -0.4910  0.5780  0.3535
 5989SOL     OW19387   4.189   0.421   9.267 -0.1448  0.1455 -0.0410
 5989SOL    HW119388   4.113   0.368   9.292  0.2912 -0.3354  0.2965
 5989SOL    HW219389   4.193   0.414   9.171 -0.6429  0.3429 -0.0776
 5990SOL     OW19390   4.373   4.919   5.672 -0.5688  0.0870 -0.0705
 5990SOL    HW119391   4.383   4.970   5.592 -0.4060 -0.3658 -0.3383
 5990SOL    HW219392   4.356   4.985   5.740 -2.0999  0.3880 -0.6948
 5991SOL     OW19393   3.946   7.352   8.517 -0.3887 -0.5708  0.1704
 5991SOL    HW119394   3.930   7.437   8.560 -0.0602 -0.2918 -0.2451
 5991SOL    HW219395   3.861   7.308   8.518 -0.4910 -0.3708  0.6775
 5992SOL     OW19396   4.170   6.902   1.021 -0.5112 -0.2550 -0.1794
 5992SOL    HW119397   4.158   6.986   0.978  1.0409  0.9237  1.5210
 5992SOL    HW219398   4.093   6.851   0.996 -1.1648  1.4056 -1.7979
 5993SOL     OW19399   6.331   7.217   3.333  0.2997  0.2776 -0.2789
 5993SOL    HW119400   6.376   7.227   3.248  0.7423 -1.2378 -0.2563
 5993SOL    HW219401   6.335   7.304   3.372 -1.3400  1.4527 -2.4699
 5994SOL     OW19402   8.224   2.531   2.242 -0.1265  0.1384 -0.2378
 5994SOL    HW119403   8.227   2.438   2.219 -0.3303  0.0946 -0.0944
 5994SOL    HW219404   8.315   2.557   2.250 -0.0408  0.2288 -1.3640
 5995SOL     OW19405   8.229   8.959   1.465 -0.4850 -0.2169 -0.0782
 5995SOL    HW119406   8.176   8.900   1.412  0.8836 -0.1156 -1.6139
 5995SOL    HW219407   8.166   9.025   1.497 -1.4237 -0.5437 -1.1851
 5996SOL     OW19408   9.029   5.980   8.307  0.3017  0.6895 -0.0051
 5996SOL    HW119409   9.113   5.978   8.261 -0.2493  2.0974 -1.1316
 5996SOL    HW219410   9.046   6.027   8.389  1.0637 -0.9592  0.8347
 5997SOL     OW19411   9.122   3.609   9.213  0.2483  0.2537  0.1242
 5997SOL    HW119412   9.136   3.697   9.246  0.0998  0.3731 -0.1285
 5997SOL    HW219413   9.209   3.568   9.215  0.0129 -0.2802  2.1512
 5998SOL     OW19414   2.396   5.947   4.704  0.0734 -0.0380 -0.2438
 5998SOL    HW119415   2.356   5.977   4.622  0.6122 -0.0484 -0.5156
 5998SOL    HW219416   2.340   5.874   4.732 -0.8197  0.7275  0.0385
 5999SOL     OW19417   0.784   6.614   5.318 -0.6063 -0.2391  0.1248
 5999SOL    HW119418   0.876   6.592   5.305 -0.0236  1.1958  1.3960
 5999SOL    HW219419   0.771   6.694   5.267 -1.4457 -0.9947 -0.8692
 6000SOL     OW19420   5.643   4.317   2.944 -0.5210  0.0535 -0.9063
 6000SOL    HW119421   5.688   4.383   2.892 -0.4839  0.4512 -0.3826
 6000SOL    HW219422   5.713   4.266   2.985 -0.5475  0.2214 -0.6509
 6001SOL     OW19423   4.233   4.534   1.836  0.5409 -0.0182  0.7773
 6001SOL    HW119424   4.211   4.555   1.927  0.5583  1.8865  0.3706
 6001SOL    HW219425   4.312   4.479   1.843  1.3259  1.1949  1.8804
 6002SOL     OW19426   1.952   1.355   0.537  0.4200  0.1624  0.1176
 6002SOL    HW119427   1.955   1.282   0.475  0.9480  1.4309 -1.4215
 6002SOL    HW219428   1.919   1.429   0.485 -0.2038  1.0060  1.6599
 6003SOL     OW19429   1.792   2.382   5.939 -0.2993 -0.2475 -0.0641
 6003SOL    HW119430   1.711   2.333   5.952  1.2136 -2.8574  0.1954
 6003SOL    HW219431   1.765   2.474   5.946 -2.9121 -1.0182  1.8765
 6004SOL     OW19432   5.738   0.542   7.625  0.0331 -0.0317  0.2134
 6004SOL    HW119433   5.806   0.605   7.601 -0.6173 -0.0882 -2.0544
 6004SOL    HW219434   5.785   0.459   7.636  0.5075  0.2042  0.0030
 6005SOL     OW19435   0.846   6.325   3.630  0.4835 -0.9919 -0.1022
 6005SOL    HW119436   0.826   6.310   3.537  0.7266  0.4046 -0.4005
 6005SOL    HW219437   0.815   6.246   3.674 -0.1664 -1.4346 -1.3026
 6006SOL     OW19438   9.009   1.469   1.702 -0.1824 -0.4167  0.6245
 6006SOL    HW119439   9.065   1.392   1.693 -0.7501 -0.9908  1.8772
 6006SOL    HW219440   8.956   1.452   1.780 -2.3685 -0.0428 -0.7028
 6007SOL     OW19441   3.389   6.890   0.239  0.1619 -0.0917  0.0215
 6007SOL    HW119442   3.474   6.856   0.212  1.5142  1.7282  1.6893
 6007SOL    HW219443   3.376   6.857   0.328  0.6046  2.0331  0.9321
 6008SOL     OW19444   8.602   7.733   2.562 -0.3986  0.2027  0.4331
 6008SOL    HW119445   8.559   7.803   2.611 -1.5409  0.8431 -1.3872
 6008SOL    HW219446   8.542   7.659   2.569  0.2967 -0.2931  1.4509
 6009SOL     OW19447   2.656   8.198   7.671  0.7046  0.5311  0.1127
 6009SOL    HW119448   2.613   8.235   7.594 -0.8121 -0.9713  0.1911
 6009SOL    HW219449   2.628   8.254   7.743  0.8229  0.9782 -0.1813
 6010SOL     OW19450   5.160   7.053   6.925  0.0432  0.2922  0.2270
 6010SOL    HW119451   5.160   6.959   6.905  0.2251  0.6160 -1.5024
 6010SOL    HW219452   5.082   7.067   6.978 -0.9388 -0.5834 -0.9339
 6011SOL     OW19453   8.467   7.064   1.413 -0.2900 -0.6985 -0.1476
 6011SOL    HW119454   8.466   7.027   1.325  1.3813 -1.1982  0.0191
 6011SOL    HW219455   8.384   7.035   1.451 -1.6868  0.6825 -1.9665
 6012SOL     OW19456   5.616   3.751   9.155 -0.1850  0.4826 -0.2226
 6012SOL    HW119457   5.557   3.807   9.207 -0.7685  0.0183 -0.3663
 6012SOL    HW219458   5.678   3.716   9.219 -2.1193 -1.6990  0.6074
 6013SOL     OW19459   8.825   7.609   0.169  0.0409  0.0601  0.0642
 6013SOL    HW119460   8.857   7.646   0.087 -1.3541 -0.5327 -0.8002
 6013SOL    HW219461   8.821   7.515   0.153 -0.0652 -0.0849  0.8849
 6014SOL     OW19462   6.930   6.840   2.812 -0.5449 -0.5105 -0.2187
 6014SOL    HW119463   6.844   6.882   2.818  0.0865  0.7558  0.3356
 6014SOL    HW219464   6.972   6.883   2.738 -0.1605 -0.6731 -0.0939
 6015SOL     OW19465   0.923   1.748   5.337  0.0769  0.1152 -0.1845
 6015SOL    HW119466   0.926   1.661   5.296  1.6354  1.1592 -2.4949
 6015SOL    HW219467   1.005   1.753   5.387 -0.9647 -0.4422  1.7026
 6016SOL     OW19468   5.466   1.831   7.443 -0.3493  0.5618 -0.1626
 6016SOL    HW119469   5.555   1.835   7.407 -0.8235  1.3798 -1.3301
 6016SOL    HW219470   5.409   1.837   7.366 -1.4406 -1.2416  0.4437
 6017SOL     OW19471   3.020   4.652   3.590 -0.3056  0.1088  0.4133
 6017SOL    HW119472   3.030   4.626   3.498  0.8310 -0.9969  0.8172
 6017SOL    HW219473   2.928   4.635   3.610 -0.2327 -1.0355 -0.1380
 6018SOL     OW19474   7.683   4.359   7.771  0.3343 -0.0188 -0.0211
 6018SOL    HW119475   7.636   4.303   7.709 -0.1886 -0.5685  0.8570
 6018SOL    HW219476   7.770   4.369   7.733 -0.1577  0.1517 -1.1483
 6019SOL     OW19477   7.031   1.400   1.467  0.3697 -0.4016 -0.4672
 6019SOL    HW119478   6.983   1.477   1.438 -1.8594 -1.6096 -0.2316
 6019SOL    HW219479   7.096   1.385   1.399  0.4518  1.3049 -0.8184
 6020SOL     OW19480   2.748   6.792   2.755  0.0443 -0.0522  0.6165
 6020SOL    HW119481   2.740   6.698   2.772  1.9321 -0.5220 -0.8288
 6020SOL    HW219482   2.658   6.821   2.739 -0.6660 -1.4025  1.9677
 6021SOL     OW19483   6.431   7.880   6.848  0.1704 -0.1839 -0.6259
 6021SOL    HW119484   6.501   7.862   6.910 -1.0422 -1.7605  0.3660
 6021SOL    HW219485   6.465   7.849   6.764  0.8542 -0.4712 -0.2520
 6022SOL     OW19486   5.203   8.615   8.521 -0.2403  1.0577  0.3324
 6022SOL    HW119487   5.169   8.557   8.590  1.6985  1.2912  1.5498
 6022SOL    HW219488   5.213   8.557   8.445  0.0885  0.1533  1.0376
 6023SOL     OW19489   8.033   0.797   2.419  0.3969 -0.1766 -0.4547
 6023SOL    HW119490   8.091   0.747   2.476 -1.6894 -1.1581  0.9646
 6023SOL    HW219491   7.976   0.846   2.479 -0.6866  0.1960 -1.7284
 6024SOL     OW19492   6.236   7.129   9.135 -0.0322 -0.2890  0.8634
 6024SOL    HW119493   6.285   7.189   9.191  0.3895 -1.4136  1.7363
 6024SOL    HW219494   6.219   7.180   9.055  2.9751  0.0361  0.3021
 6025SOL     OW19495   9.096   8.431   7.354 -0.0228 -0.1550  0.0369
 6025SOL    HW119496   9.093   8.496   7.424  0.2114 -0.5564  0.4267
 6025SOL    HW219497   9.177   8.382   7.371  0.0955 -0.1784 -0.5812
 6026SOL     OW19498   1.762   1.660   0.485  0.3650  0.1209 -0.4570
 6026SOL    HW119499   1.821   1.719   0.532 -0.4594  0.0428  0.7201
 6026SOL    HW219500   1.730   1.712   0.412  2.7865 -0.2128 -1.8806
 6027SOL     OW19501   7.548   4.001   0.554  0.4990 -0.7480 -0.6918
 6027SOL    HW119502   7.494   3.932   0.593 -0.3662  0.9371  1.2629
 6027SOL    HW219503   7.488   4.051   0.499  0.5506 -0.1546 -0.2195
 6028SOL     OW19504   3.624   8.050   4.991  0.3699  0.2087  1.1691
 6028SOL    HW119505   3.625   8.112   4.918  1.0728  0.6591  1.5477
 6028SOL    HW219506   3.562   7.982   4.965  1.5102 -0.2746 -0.3785
 6029SOL     OW19507   3.823   5.170   8.685 -0.6430  0.5839 -0.3950
 6029SOL    HW119508   3.898   5.146   8.629 -0.1133  0.8493  0.1841
 6029SOL    HW219509   3.863   5.215   8.759 -1.2196 -0.7277  0.7656
 6030SOL     OW19510   3.898   4.672   6.483 -0.1447 -0.3585 -0.3551
 6030SOL    HW119511   3.990   4.668   6.457 -0.2028 -0.9430 -0.4893
 6030SOL    HW219512   3.900   4.684   6.578  0.0771 -1.4208 -0.2160
 6031SOL     OW19513   4.177   4.986   4.775  0.2329 -0.1803 -0.0397
 6031SOL    HW119514   4.225   5.061   4.810  1.7573 -1.3040  0.3898
 6031SOL    HW219515   4.159   5.009   4.684 -1.0151  1.4701  0.5677
 6032SOL     OW19516   8.774   8.050   4.690  0.3295  0.5305  0.6050
 6032SOL    HW119517   8.857   8.098   4.699  1.0590 -0.1023 -1.9430
 6032SOL    HW219518   8.720   8.105   4.634  0.7718 -1.0155 -1.4552
 6033SOL     OW19519   8.946   0.449   7.986 -0.2049 -0.1937  0.2127
 6033SOL    HW119520   8.961   0.452   8.080 -1.0851 -0.7818  0.3876
 6033SOL    HW219521   8.935   0.540   7.959  2.0508  0.1780  0.3047
 6034SOL     OW19522   8.294   3.050   5.286 -0.3123 -0.0572 -0.2513
 6034SOL    HW119523   8.307   3.126   5.229 -1.6823  0.5486  0.2155
 6034SOL    HW219524   8.230   3.079   5.351  0.7650 -0.9250  1.2492
 6035SOL     OW19525   8.793   9.117   4.101  0.3995  0.3940  0.4634
 6035SOL    HW119526   8.813   9.161   4.184  0.1334  1.4395 -0.0117
 6035SOL    HW219527   8.729   9.174   4.058  0.5173 -0.1425 -0.4522
 6036SOL     OW19528   5.325   7.780   3.521  0.4616 -0.4002 -0.0758
 6036SOL    HW119529   5.241   7.734   3.511  0.1411  0.3846 -1.2208
 6036SOL    HW219530   5.302   7.872   3.513  1.6719 -0.2396 -2.5208
 6037SOL     OW19531   6.180   6.569   0.853 -0.4201  0.0278  0.2486
 6037SOL    HW119532   6.174   6.547   0.946 -1.4487 -0.6016  0.0511
 6037SOL    HW219533   6.272   6.557   0.831  0.0757  1.3982  1.4640
 6038SOL     OW19534   1.831   8.507   7.844 -0.3299  0.7131  0.1640
 6038SOL    HW119535   1.904   8.447   7.857  0.0813  1.1531 -0.0732
 6038SOL    HW219536   1.782   8.471   7.770 -1.3806 -0.5587  1.4247
 6039SOL     OW19537   7.835   2.736   7.952 -0.0383 -0.7176 -0.0063
 6039SOL    HW119538   7.778   2.812   7.941  0.3232 -0.5018 -0.4218
 6039SOL    HW219539   7.876   2.749   8.038  0.8302  0.1136 -0.5299
 6040SOL     OW19540   6.729   6.274   2.477  1.2621 -0.3718  0.6003
 6040SOL    HW119541   6.807   6.225   2.502  1.3907 -0.5922 -0.2208
 6040SOL    HW219542   6.664   6.253   2.545  2.3524  0.9972  2.1763
 6041SOL     OW19543   8.655   4.509   7.008  0.2366  0.1287 -0.1560
 6041SOL    HW119544   8.687   4.424   7.039  0.0400  0.0851 -0.0681
 6041SOL    HW219545   8.698   4.572   7.066  1.6408  0.2108 -1.2330
 6042SOL     OW19546   8.467   1.548   8.888  0.0949  0.5446  0.6037
 6042SOL    HW119547   8.406   1.487   8.928 -1.7828  1.7995 -0.2353
 6042SOL    HW219548   8.532   1.492   8.845 -2.5236 -1.0023 -1.6767
 6043SOL     OW19549   8.415   2.017   5.527  0.5313  0.1920  0.3792
 6043SOL    HW119550   8.423   2.028   5.621  1.6730 -0.3119  0.3581
 6043SOL    HW219551   8.492   2.060   5.491 -0.8240  2.0342 -0.4838
 6044SOL     OW19552   3.686   8.498   0.435 -0.3043  0.0351 -0.2974
 6044SOL    HW119553   3.641   8.546   0.366 -0.9262 -1.2330 -0.7867
 6044SOL    HW219554   3.676   8.554   0.513  1.3794  2.0411 -1.3941
 6045SOL     OW19555   2.803   8.646   6.215  0.1749  0.5847  0.3184
 6045SOL    HW119556   2.778   8.565   6.171  1.4909 -0.5149  1.4744
 6045SOL    HW219557   2.742   8.654   6.288  1.0165 -0.2865  1.1573
 6046SOL     OW19558   6.914   7.202   3.658  0.2628 -0.0111 -0.2078
 6046SOL    HW119559   7.000   7.164   3.645  0.2973 -0.4055  0.9827
 6046SOL    HW219560   6.855   7.127   3.664  0.0466  0.1944  0.3119
 6047SOL     OW19561   4.870   0.230   8.461  0.1573 -0.0080  0.3839
 6047SOL    HW119562   4.837   0.320   8.452 -0.3557 -0.2985 -0.7166
 6047SOL    HW219563   4.922   0.215   8.382  0.5981 -0.5498  0.7642
 6048SOL     OW19564   8.890   2.938   2.153  0.0548  0.1353 -0.1764
 6048SOL    HW119565   8.813   2.941   2.211 -0.2702 -0.9476 -0.5122
 6048SOL    HW219566   8.963   2.921   2.212 -0.1930 -0.4015 -0.0160
 6049SOL     OW19567   3.604   2.593   5.648  0.1167  0.3149  0.6563
 6049SOL    HW119568   3.583   2.523   5.587  0.5032 -1.2380  2.2444
 6049SOL    HW219569   3.699   2.596   5.650  0.1281  1.8179 -0.3778
 6050SOL     OW19570   9.269   3.973   8.840  0.2434 -0.3274  0.6684
 6050SOL    HW119571   9.278   3.919   8.762  0.5250  1.9783 -1.0094
 6050SOL    HW219572   9.310   4.056   8.817 -2.1439  1.4325  2.2172
 6051SOL     OW19573   0.719   8.976   1.435  0.3086 -0.4810 -0.7643
 6051SOL    HW119574   0.792   8.923   1.468 -0.4518  0.2444  2.3992
 6051SOL    HW219575   0.759   9.060   1.412  0.5331  0.0232  1.2540
 6052SOL     OW19576   4.155   3.400   6.182 -0.1492 -0.8484  0.4876
 6052SOL    HW119577   4.075   3.351   6.199 -0.0908 -1.0906  0.0704
 6052SOL    HW219578   4.127   3.473   6.126 -0.5640  0.6450  2.4928
 6053SOL     OW19579   1.513   2.561   8.501  0.5926  0.0885  0.0515
 6053SOL    HW119580   1.520   2.471   8.534 -1.0721 -0.7889 -1.7671
 6053SOL    HW219581   1.419   2.574   8.488  0.9681  1.3623 -1.6508
 6054SOL     OW19582   6.580   3.835   6.345  0.3018 -0.5263 -0.2362
 6054SOL    HW119583   6.598   3.921   6.309 -1.0910  0.1770  0.6295
 6054SOL    HW219584   6.633   3.830   6.424  1.7428 -1.2137 -1.2133
 6055SOL     OW19585   8.517   7.482   6.303 -1.4553 -0.0282  0.0241
 6055SOL    HW119586   8.565   7.565   6.294 -0.7433 -0.1646  1.8910
 6055SOL    HW219587   8.465   7.494   6.383 -2.3455 -0.9155 -0.4127
 6056SOL     OW19588   2.510   1.998   4.959  0.0801 -0.2099 -0.4965
 6056SOL    HW119589   2.475   1.949   4.883  0.6364  0.0046 -0.8967
 6056SOL    HW219590   2.484   2.088   4.942  1.0994  0.0094 -0.9720
 6057SOL     OW19591   4.195   3.920   2.067 -0.2225  0.1906 -0.2935
 6057SOL    HW119592   4.162   4.009   2.057 -1.4837 -0.2350  0.0039
 6057SOL    HW219593   4.222   3.895   1.979 -2.2994 -0.0579 -0.9077
 6058SOL     OW19594   4.039   4.095   1.725  0.0897 -0.0492 -0.8263
 6058SOL    HW119595   3.976   4.156   1.685 -1.3744 -1.4557 -0.7464
 6058SOL    HW219596   4.030   4.110   1.819  0.9391  0.7426 -0.8562
 6059SOL     OW19597   6.252   1.871   0.379 -0.1750 -0.1180 -0.0203
 6059SOL    HW119598   6.257   1.964   0.361  0.4250 -0.4130 -1.6090
 6059SOL    HW219599   6.292   1.830   0.302 -0.9044 -1.7031  0.4058
 6060SOL     OW19600   3.328   8.365   8.322  0.2253 -0.0363 -0.1318
 6060SOL    HW119601   3.331   8.369   8.418 -0.6377 -1.1520 -0.0385
 6060SOL    HW219602   3.417   8.385   8.294  0.5695 -0.0543  0.9153
 6061SOL     OW19603   7.210   3.960   5.484 -0.3262 -0.1398 -0.5130
 6061SOL    HW119604   7.282   3.936   5.542  0.6628  0.6324 -1.3912
 6061SOL    HW219605   7.216   4.055   5.477 -0.7718 -0.1729 -1.4469
 6062SOL     OW19606   0.889   8.240   0.950 -0.2680 -0.6061 -0.0294
 6062SOL    HW119607   0.963   8.184   0.928  0.0239 -0.9115  1.5692
 6062SOL    HW219608   0.929   8.317   0.990 -0.5653  1.4808 -3.3483
 6063SOL     OW19609   8.025   8.857   1.699 -0.1622 -0.6484  0.1879
 6063SOL    HW119610   8.048   8.948   1.680  0.9648 -0.5332  1.8684
 6063SOL    HW219611   7.937   8.861   1.736 -0.7297 -0.4356 -1.1514
 6064SOL     OW19612   6.302   2.992   8.733  0.5266 -0.4060  0.0828
 6064SOL    HW119613   6.336   3.021   8.648  0.6639  0.5566  0.4654
 6064SOL    HW219614   6.375   2.944   8.773  1.6577  2.0246  1.0921
 6065SOL     OW19615   1.435   4.300   2.578  0.1503  0.4557  0.1078
 6065SOL    HW119616   1.380   4.233   2.539  0.3690 -0.3145  1.0547
 6065SOL    HW219617   1.387   4.382   2.567 -0.7599 -0.0704  0.1413
 6066SOL     OW19618   6.938   9.139   8.659 -0.1778  0.1627 -0.1529
 6066SOL    HW119619   6.908   9.226   8.633 -0.5537 -0.3038 -1.3889
 6066SOL    HW219620   6.872   9.080   8.622  0.6674 -0.7105 -0.3133
 6067SOL     OW19621   1.018   7.029   2.434  0.2480  0.1762 -0.3144
 6067SOL    HW119622   1.020   7.117   2.397 -0.0740  0.0731 -0.5769
 6067SOL    HW219623   0.925   7.007   2.440  0.2783 -1.6269 -3.8041
 6068SOL     OW19624   7.713   1.341   3.858 -0.2279  0.1603 -0.6979
 6068SOL    HW119625   7.655   1.361   3.932 -1.1281 -0.0022 -1.3375
 6068SOL    HW219626   7.653   1.314   3.789  0.5696  0.7043 -1.6184
 6069SOL     OW19627   3.812   2.731   3.483  0.0266  0.1547  0.4622
 6069SOL    HW119628   3.751   2.753   3.413  0.9694  0.7342 -0.2064
 6069SOL    HW219629   3.870   2.665   3.445 -1.1090 -1.5892  1.5935
 6070SOL     OW19630   6.759   6.229   4.172  0.0049  0.2685 -0.3923
 6070SOL    HW119631   6.690   6.168   4.198  1.5594 -1.0681  0.8687
 6070SOL    HW219632   6.733   6.313   4.210  0.9038 -1.0392  3.7195
 6071SOL     OW19633   1.945   8.863   5.958  0.2578 -0.2127  0.1596
 6071SOL    HW119634   1.910   8.815   5.882  1.7812  1.0686 -1.4219
 6071SOL    HW219635   1.868   8.902   5.999 -0.6830 -1.5546 -0.2506
 6072SOL     OW19636   2.632   0.701   3.014 -0.2134  0.3530 -0.2972
 6072SOL    HW119637   2.611   0.793   3.025 -3.0262 -0.0619 -1.2978
 6072SOL    HW219638   2.626   0.686   2.920  2.5881 -0.4352 -0.4580
 6073SOL     OW19639   1.612   5.053   7.815  0.2053 -0.1026 -0.5015
 6073SOL    HW119640   1.607   5.013   7.728 -0.6528  0.4766 -0.7294
 6073SOL    HW219641   1.589   5.145   7.800 -2.9068 -0.5563  0.7192
 6074SOL     OW19642   3.432   6.992   7.922 -0.7113  0.2801 -0.0506
 6074SOL    HW119643   3.470   6.911   7.957 -1.0389 -0.2901 -0.9809
 6074SOL    HW219644   3.453   6.989   7.828 -1.0136  1.1188 -0.1496
 6075SOL     OW19645   7.550   5.126   9.273 -0.3538  0.1660 -0.4794
 6075SOL    HW119646   7.632   5.082   9.251 -0.1654 -0.9038  2.0240
 6075SOL    HW219647   7.481   5.065   9.245 -0.1867 -0.3569  0.2381
 6076SOL     OW19648   6.533   7.271   5.228  0.4233  0.0035 -0.3928
 6076SOL    HW119649   6.496   7.186   5.207  1.5034 -1.0768  1.7670
 6076SOL    HW219650   6.491   7.331   5.166 -1.4331 -1.8479 -1.0538
 6077SOL     OW19651   4.017   0.572   4.559  0.6818 -0.0257 -0.3353
 6077SOL    HW119652   3.974   0.598   4.641  2.1605  1.3736  0.0482
 6077SOL    HW219653   3.981   0.632   4.494 -1.8898 -2.3069 -1.2095
 6078SOL     OW19654   0.248   1.507   0.497  0.1618 -0.1110  0.5815
 6078SOL    HW119655   0.268   1.565   0.423 -0.2395 -0.0627  0.5089
 6078SOL    HW219656   0.313   1.437   0.490  0.4720  0.1780  0.5023
 6079SOL     OW19657   6.061   1.419   6.507 -0.2741  0.0854 -0.4339
 6079SOL    HW119658   5.988   1.357   6.509 -0.1804 -0.0819 -1.4881
 6079SOL    HW219659   6.045   1.476   6.582 -1.0796 -0.4083 -0.2081
 6080SOL     OW19660   9.250   4.007   9.114  0.8223 -0.1049  0.3882
 6080SOL    HW119661   9.248   3.990   9.020  0.5598  0.9486  0.2014
 6080SOL    HW219662   9.183   3.950   9.150 -0.6929  1.1555 -0.3428
 6081SOL     OW19663   0.230   1.103   6.191  0.4265  0.1178 -0.5479
 6081SOL    HW119664   0.313   1.090   6.145  0.3820  1.0288 -0.9080
 6081SOL    HW219665   0.254   1.141   6.275  0.2787  2.6477 -1.5716
 6082SOL     OW19666   2.985   7.244   3.227 -0.5990 -0.8291  0.1030
 6082SOL    HW119667   3.058   7.218   3.282  0.0697 -0.4939 -0.5993
 6082SOL    HW219668   2.907   7.213   3.273 -0.0807 -0.3321  1.3487
 6083SOL     OW19669   6.099   6.143   5.103  0.1429  0.0004  0.6049
 6083SOL    HW119670   6.109   6.066   5.160 -1.6409 -0.2349  0.6794
 6083SOL    HW219671   6.101   6.218   5.163  0.1643 -0.1134  0.7461
 6084SOL     OW19672   2.719   8.572   2.707  0.2711 -0.3900  0.4682
 6084SOL    HW119673   2.768   8.569   2.625 -0.2432  0.6130  0.1038
 6084SOL    HW219674   2.780   8.542   2.773  1.8408  2.0069  0.2388
 6085SOL     OW19675   4.437   5.923   9.091  0.2874  0.5981  0.5863
 6085SOL    HW119676   4.466   5.905   9.181 -0.4009 -1.3789  0.4520
 6085SOL    HW219677   4.446   5.839   9.046  0.8046  1.6089 -1.2712
 6086SOL     OW19678   6.106   5.518   4.269  0.3305  0.1347 -0.3683
 6086SOL    HW119679   6.143   5.489   4.353  0.1804 -2.0881 -0.9966
 6086SOL    HW219680   6.183   5.545   4.218  0.5472  0.3195  0.0473
 6087SOL     OW19681   4.911   5.481   0.952 -0.2159 -0.2703 -0.1332
 6087SOL    HW119682   4.968   5.547   0.991  0.2821 -0.6223 -0.2598
 6087SOL    HW219683   4.968   5.431   0.893 -1.0555  0.5357 -1.6827
 6088SOL     OW19684   1.056   5.285   6.858  0.1319 -0.3720  1.1464
 6088SOL    HW119685   1.097   5.201   6.835  0.0924 -0.6359  1.9705
 6088SOL    HW219686   0.977   5.289   6.805  1.4436  0.3736 -0.8332
 6089SOL     OW19687   2.761   6.333   5.120 -0.3179  0.0855 -0.1842
 6089SOL    HW119688   2.760   6.261   5.056 -1.3112  1.2102 -1.4722
 6089SOL    HW219689   2.837   6.385   5.096 -0.3454  0.1871 -0.0539
 6090SOL     OW19690   6.309   6.311   3.988  0.0651  0.0643 -0.4227
 6090SOL    HW119691   6.241   6.279   3.929 -0.4721 -0.0053  0.2252
 6090SOL    HW219692   6.265   6.322   4.072  1.1926 -1.4581  0.4200
 6091SOL     OW19693   8.402   4.842   5.350  0.4260  0.3685  0.0474
 6091SOL    HW119694   8.394   4.834   5.255 -0.6697 -1.1679  0.2269
 6091SOL    HW219695   8.312   4.854   5.381  0.5996 -0.5128  0.9697
 6092SOL     OW19696   4.940   4.366   4.485 -0.4302  0.1287  0.0731
 6092SOL    HW119697   4.983   4.282   4.466  0.4370  0.5756  0.0425
 6092SOL    HW219698   4.847   4.344   4.488 -0.1564 -1.0522  1.1389
 6093SOL     OW19699   1.124   3.386   0.373  0.1389  0.5323  0.4657
 6093SOL    HW119700   1.199   3.387   0.432 -0.3591  1.2411  1.0985
 6093SOL    HW219701   1.135   3.463   0.317  1.2220 -0.7532 -1.1923
 6094SOL     OW19702   6.814   4.760   1.030 -0.0837 -0.2724 -0.0218
 6094SOL    HW119703   6.882   4.759   1.098  0.7895 -1.1845 -0.8844
 6094SOL    HW219704   6.846   4.823   0.965 -1.8795  2.1566  1.3030
 6095SOL     OW19705   4.861   0.443   2.666 -0.0700  0.1170  0.2828
 6095SOL    HW119706   4.944   0.422   2.709  1.0220  1.0031 -1.2807
 6095SOL    HW219707   4.822   0.358   2.645  0.8676 -0.3154  0.2537
 6096SOL     OW19708   9.128   4.610   6.976  0.2812 -0.5707  0.0928
 6096SOL    HW119709   9.066   4.537   6.978  0.2499 -0.5496 -0.1629
 6096SOL    HW219710   9.177   4.600   7.058  0.1618 -0.7776  0.1416
 6097SOL     OW19711   4.457   2.921   4.489 -0.0571  0.5360 -1.2519
 6097SOL    HW119712   4.491   2.852   4.546 -0.9992 -0.4204 -1.8010
 6097SOL    HW219713   4.504   2.908   4.406  0.4418  1.1641 -1.0752
 6098SOL     OW19714   6.198   5.557   8.466  0.4594 -0.2838  0.8637
 6098SOL    HW119715   6.147   5.611   8.527  0.2458 -1.2820  1.5823
 6098SOL    HW219716   6.252   5.502   8.522  0.8278 -0.6803  0.1312
 6099SOL     OW19717   0.346   7.040   2.129  0.3674  0.2833  0.0172
 6099SOL    HW119718   0.344   7.052   2.224  0.3432 -0.6597  0.1475
 6099SOL    HW219719   0.387   6.954   2.116  0.6727  0.5425 -0.8431
 6100SOL     OW19720   6.338   1.517   0.652  0.2398 -0.2950  0.2971
 6100SOL    HW119721   6.296   1.467   0.582 -0.0384  0.2065  0.0958
 6100SOL    HW219722   6.406   1.460   0.686  1.8307  0.2203 -1.8213
 6101SOL     OW19723   5.630   5.004   4.907  0.3442  0.3358  0.7087
 6101SOL    HW119724   5.601   4.939   4.843  0.8062  0.3310  0.5024
 6101SOL    HW219725   5.581   4.983   4.987  0.6780 -0.4205  0.7188
 6102SOL     OW19726   6.263   2.495   3.906  0.0930  0.1696 -0.0168
 6102SOL    HW119727   6.191   2.547   3.870  0.6796  0.5264 -0.6976
 6102SOL    HW219728   6.234   2.404   3.896 -1.3719  0.3287  2.0812
 6103SOL     OW19729   8.623   4.920   3.611  0.6625 -0.4717 -0.1667
 6103SOL    HW119730   8.606   4.994   3.669 -0.4883 -0.9837  0.1861
 6103SOL    HW219731   8.583   4.946   3.528 -1.8761 -1.5967  0.6082
 6104SOL     OW19732   7.763   8.832   8.276 -0.4423 -0.0129 -0.1544
 6104SOL    HW119733   7.735   8.748   8.240 -1.9353 -0.1448  1.1813
 6104SOL    HW219734   7.760   8.819   8.371 -2.5790  2.0644  0.1496
 6105SOL     OW19735   1.703   8.051   4.695  0.7047  0.3507 -0.3595
 6105SOL    HW119736   1.720   8.109   4.620 -0.6778 -0.1399 -1.0795
 6105SOL    HW219737   1.790   8.031   4.730  1.2648  2.3431 -0.4684
 6106SOL     OW19738   6.380   8.328   2.651  0.4241  0.1457 -0.4038
 6106SOL    HW119739   6.436   8.281   2.589 -0.7706 -1.1448 -0.5356
 6106SOL    HW219740   6.369   8.267   2.724 -0.7912  0.3999 -0.3656
 6107SOL     OW19741   8.588   3.555   1.036  0.6034  0.2572 -0.0787
 6107SOL    HW119742   8.555   3.530   0.949  0.1776  1.4922 -0.2932
 6107SOL    HW219743   8.683   3.540   1.030  0.4228 -0.9012 -0.3084
 6108SOL     OW19744   1.586   7.705   5.655  0.0210 -0.2822 -0.5949
 6108SOL    HW119745   1.674   7.710   5.620  0.3584 -0.5829  0.1856
 6108SOL    HW219746   1.548   7.627   5.614 -0.1609  0.2864 -1.5262
 6109SOL     OW19747   7.363   7.001   2.278  0.7402  0.1729 -0.1736
 6109SOL    HW119748   7.276   7.023   2.244  0.5416 -0.7809 -0.2958
 6109SOL    HW219749   7.346   6.956   2.360  1.1872  1.4305  0.6449
 6110SOL     OW19750   7.429   2.129   8.092 -0.0161  0.1311 -0.0530
 6110SOL    HW119751   7.504   2.076   8.062 -0.7636 -1.1304  0.2481
 6110SOL    HW219752   7.441   2.213   8.048  2.5146  0.5916  1.2996
 6111SOL     OW19753   4.752   0.130   5.996  0.4053  0.5607  0.3740
 6111SOL    HW119754   4.787   0.042   5.984 -0.7297 -0.0730  1.4435
 6111SOL    HW219755   4.670   0.130   5.946 -0.4318  0.4379  1.6981
 6112SOL     OW19756   4.823   3.943   4.362 -0.0181  0.3374 -0.3158
 6112SOL    HW119757   4.799   3.944   4.454  0.7568 -0.7118 -0.0866
 6112SOL    HW219758   4.883   4.017   4.352 -0.9294  1.1076 -0.2329
 6113SOL     OW19759   5.021   2.972   1.154 -0.4135 -0.1963  0.0853
 6113SOL    HW119760   5.058   2.957   1.241 -1.6037 -0.4010  0.5821
 6113SOL    HW219761   4.926   2.975   1.168 -0.5921  0.5375 -1.0980
 6114SOL     OW19762   5.803   2.967   6.164 -0.2585 -0.4161  0.1475
 6114SOL    HW119763   5.764   2.883   6.139 -0.3175  0.1071 -1.6471
 6114SOL    HW219764   5.885   2.944   6.207 -0.0989 -1.3978 -0.6556
 6115SOL     OW19765   6.673   6.109   5.192 -0.0200  0.0468  0.0662
 6115SOL    HW119766   6.707   6.144   5.275  0.3360  0.4088 -0.2292
 6115SOL    HW219767   6.720   6.157   5.125 -1.6306  1.0959 -0.3775
 6116SOL     OW19768   2.294   3.070   3.404 -0.0464  0.7425 -0.2628
 6116SOL    HW119769   2.216   3.079   3.349  0.4527 -1.7137 -1.5273
 6116SOL    HW219770   2.271   3.003   3.468  1.1013 -0.3328 -0.9202
 6117SOL     OW19771   5.793   3.174   2.491  1.2715  0.3487  0.3178
 6117SOL    HW119772   5.762   3.091   2.456 -0.0924  0.1956  1.7532
 6117SOL    HW219773   5.756   3.241   2.433  0.9136  0.0259  0.1753
 6118SOL     OW19774   8.487   1.729   2.389  0.0589 -0.0702 -0.1522
 6118SOL    HW119775   8.536   1.683   2.321  0.4836 -1.4675  1.0354
 6118SOL    HW219776   8.554   1.775   2.440 -0.1516  0.2140 -0.1334
 6119SOL     OW19777   3.557   1.588   2.244  0.0141 -1.0526 -0.0221
 6119SOL    HW119778   3.497   1.517   2.265  0.1224 -0.8578  1.0113
 6119SOL    HW219779   3.518   1.666   2.285  0.1615 -0.6075 -0.6987
 6120SOL     OW19780   3.494   6.520   4.712 -0.5630  0.9874  0.0943
 6120SOL    HW119781   3.473   6.567   4.631 -0.3806 -0.8282 -1.0622
 6120SOL    HW219782   3.470   6.429   4.694 -1.1247  0.6340  2.3241
 6121SOL     OW19783   9.082   7.094   8.594 -0.0869  0.1564  0.3114
 6121SOL    HW119784   9.007   7.143   8.627 -0.2110 -0.9444  1.7816
 6121SOL    HW219785   9.144   7.093   8.667  0.9087  0.1340 -0.5121
 6122SOL     OW19786   2.613   0.213   1.925 -0.1001  0.0308  0.4884
 6122SOL    HW119787   2.532   0.262   1.933 -0.1312  0.1922 -0.6357
 6122SOL    HW219788   2.594   0.128   1.965 -0.4369  0.4791  1.3009
 6123SOL     OW19789   3.114   6.029   5.516 -0.2872  0.1914  0.0932
 6123SOL    HW119790   3.071   6.111   5.492  1.9153  1.7985  1.2760
 6123SOL    HW219791   3.139   5.990   5.432  2.3021  2.8963 -0.5653
 6124SOL     OW19792   5.411   7.234   6.369  0.4939  0.0025  0.2299
 6124SOL    HW119793   5.468   7.301   6.331  0.8575 -1.2331 -1.5476
 6124SOL    HW219794   5.441   7.226   6.459  1.2443  1.3709  0.1241
 6125SOL     OW19795   2.197   5.296   7.386  0.3639  0.0752  0.1497
 6125SOL    HW119796   2.257   5.260   7.452 -2.3860 -0.8770  2.3589
 6125SOL    HW219797   2.161   5.219   7.343 -0.5271  0.5327  0.0693
 6126SOL     OW19798   2.017   2.774   8.128  0.7081  0.7347 -0.9459
 6126SOL    HW119799   2.043   2.866   8.139  1.7193  0.2330  1.2139
 6126SOL    HW219800   1.939   2.765   8.184 -0.7863  0.7743 -2.9005
 6127SOL     OW19801   7.380   1.233   4.492 -0.0411  0.0673  0.0430
 6127SOL    HW119802   7.403   1.313   4.446  1.0967  0.8898  1.9198
 6127SOL    HW219803   7.306   1.257   4.548  0.1056 -0.2766  0.3903
 6128SOL     OW19804   1.035   7.055   4.622 -0.1392 -0.1950 -0.5751
 6128SOL    HW119805   1.089   7.128   4.652  1.1049 -0.9209 -0.9653
 6128SOL    HW219806   1.049   7.052   4.528 -2.1174  0.5593 -0.9279
 6129SOL     OW19807   3.204   5.808   4.902 -0.1317 -0.3018  0.1321
 6129SOL    HW119808   3.221   5.762   4.819  0.3212 -0.3644  0.2583
 6129SOL    HW219809   3.109   5.806   4.911 -0.2571  0.5220 -0.8455
 6130SOL     OW19810   5.233   9.020   0.946 -0.4544 -0.1283 -0.1259
 6130SOL    HW119811   5.226   9.104   0.901  0.5692 -0.1014 -0.2648
 6130SOL    HW219812   5.269   9.043   1.032  2.2917 -0.6099 -1.0333
 6131SOL     OW19813   7.987   5.506   1.147  0.2853 -0.1526 -0.3218
 6131SOL    HW119814   7.965   5.503   1.240 -0.0130 -2.4789 -0.4053
 6131SOL    HW219815   7.918   5.558   1.107 -0.5478 -0.5722  0.5381
 6132SOL     OW19816   2.869   1.201   7.477  0.0022  0.1768 -0.0891
 6132SOL    HW119817   2.839   1.292   7.488  0.0733  0.2226 -0.2812
 6132SOL    HW219818   2.789   1.151   7.460  0.0864  0.3824 -1.1500
 6133SOL     OW19819   5.987   2.142   5.107 -0.0435 -0.0488  0.0416
 6133SOL    HW119820   5.982   2.235   5.086 -1.6375 -0.2155 -0.4719
 6133SOL    HW219821   5.896   2.115   5.118  0.4573 -1.2717  1.5107
 6134SOL     OW19822   6.934   1.344   4.217  0.4664  0.3318  0.3742
 6134SOL    HW119823   6.907   1.411   4.153 -0.1679 -1.0894 -0.9114
 6134SOL    HW219824   7.022   1.319   4.191 -0.0437 -0.7242 -0.3796
 6135SOL     OW19825   3.920   4.835   5.840 -0.3467 -0.4708  0.2865
 6135SOL    HW119826   3.988   4.879   5.791 -0.1663  1.5570  2.1998
 6135SOL    HW219827   3.842   4.889   5.828 -0.7759 -0.9837  0.6805
 6136SOL     OW19828   7.993   6.006   8.156  0.3536  0.4769 -0.5427
 6136SOL    HW119829   7.995   6.102   8.164  0.6731  0.5204 -1.1015
 6136SOL    HW219830   7.955   5.990   8.070 -1.7474  0.0407  0.4081
 6137SOL     OW19831   5.074   4.815   2.169  0.7168 -0.6381 -0.3843
 6137SOL    HW119832   5.039   4.870   2.098  0.8549 -1.2607 -0.9486
 6137SOL    HW219833   4.999   4.798   2.225  0.7624  0.4774  0.0390
 6138SOL     OW19834   1.724   2.108   5.206  0.0476  0.4314 -0.2966
 6138SOL    HW119835   1.777   2.036   5.172  0.1896  0.6439 -0.5324
 6138SOL    HW219836   1.721   2.093   5.300 -2.1836 -1.4084 -0.5830
 6139SOL     OW19837   7.170   6.171   5.560 -0.2028  0.4616  0.0908
 6139SOL    HW119838   7.085   6.135   5.535 -0.2390  0.7458 -0.1875
 6139SOL    HW219839   7.157   6.203   5.649 -0.8772  2.1089 -0.5765
 6140SOL     OW19840   7.231   2.314   5.315 -0.2753 -0.6970  0.3696
 6140SOL    HW119841   7.323   2.287   5.318 -0.6805 -2.5183 -1.3715
 6140SOL    HW219842   7.224   2.366   5.234 -0.6709 -0.0332  0.8164
 6141SOL     OW19843   1.571   6.571   8.904 -0.4739  0.0676  0.1154
 6141SOL    HW119844   1.483   6.544   8.878 -0.0957  0.6728 -1.8953
 6141SOL    HW219845   1.588   6.651   8.855  0.7968  0.5794  1.3230
 6142SOL     OW19846   8.568   4.888   7.879 -0.5992  0.4494  0.4888
 6142SOL    HW119847   8.497   4.830   7.853 -0.0148  0.7749 -2.2412
 6142SOL    HW219848   8.524   4.968   7.909 -1.5046  0.8419 -1.6336
 6143SOL     OW19849   4.469   3.978   3.974  0.3111 -0.4239  0.3290
 6143SOL    HW119850   4.383   3.944   3.999 -0.9092  0.3286 -2.4361
 6143SOL    HW219851   4.493   3.927   3.897  1.9159  0.0298  0.4952
 6144SOL     OW19852   5.617   8.222   5.655  0.0512  0.2337 -0.2816
 6144SOL    HW119853   5.672   8.158   5.700 -0.3008  0.0339 -0.1319
 6144SOL    HW219854   5.663   8.305   5.665  0.3405  0.0617 -0.1835
 6145SOL     OW19855   9.110   2.162   6.083 -0.2848  0.0312 -0.6932
 6145SOL    HW119856   9.019   2.174   6.055 -0.8227  0.7438  1.1682
 6145SOL    HW219857   9.107   2.084   6.137 -0.5145  1.7153  1.9249
 6146SOL     OW19858   3.366   1.271   9.074  0.3061 -0.5432  0.1162
 6146SOL    HW119859   3.309   1.214   9.127  0.4791 -0.1156  0.7698
 6146SOL    HW219860   3.441   1.215   9.053 -0.2284 -1.0294 -0.5303
 6147SOL     OW19861   2.360   6.679   4.865  0.3154  0.2091 -0.0457
 6147SOL    HW119862   2.345   6.715   4.952  0.1619  1.9447 -0.7479
 6147SOL    HW219863   2.423   6.608   4.878  1.0018  1.0460  1.3587
 6148SOL     OW19864   1.680   2.523   7.263  0.0302 -0.3114 -0.4882
 6148SOL    HW119865   1.703   2.437   7.228 -1.1575  0.2379 -2.7699
 6148SOL    HW219866   1.698   2.584   7.192  1.1558  1.4277  1.1877
 6149SOL     OW19867   1.731   7.089   0.706 -0.1673 -0.1064 -0.5277
 6149SOL    HW119868   1.669   7.076   0.778 -0.0181  0.0387 -0.3714
 6149SOL    HW219869   1.678   7.085   0.627 -0.9190  3.1148 -0.3313
 6150SOL     OW19870   5.796   8.288   0.058 -0.4765  0.2673 -0.1681
 6150SOL    HW119871   5.721   8.297  -0.001 -1.6050 -2.3677  0.7175
 6150SOL    HW219872   5.807   8.375   0.096 -0.3434  1.8156 -3.4044
 6151SOL     OW19873   5.568   5.845   2.597  0.5006 -0.3847 -0.2782
 6151SOL    HW119874   5.613   5.789   2.533 -0.1098  0.0515 -1.1008
 6151SOL    HW219875   5.480   5.857   2.561 -0.4228 -1.5026  1.4683
 6152SOL     OW19876   0.491   6.192   8.690  0.3240 -0.3035  0.8220
 6152SOL    HW119877   0.487   6.106   8.733 -0.7896 -0.4886  0.3710
 6152SOL    HW219878   0.583   6.203   8.668  0.5363 -1.2291  1.1998
 6153SOL     OW19879   3.688   9.212   2.660 -0.2028  0.2645 -0.4530
 6153SOL    HW119880   3.770   9.216   2.611  0.1282  1.0387  0.1540
 6153SOL    HW219881   3.642   9.292   2.637  0.1828  0.8956  0.8645
 6154SOL     OW19882   0.394   5.794   3.699 -0.1596  0.5028  0.2205
 6154SOL    HW119883   0.485   5.767   3.713 -0.2746  0.2969  0.6057
 6154SOL    HW219884   0.374   5.850   3.774 -0.9218 -0.9546  1.1589
 6155SOL     OW19885   7.345   3.099   4.453 -0.5919 -0.0028  0.6933
 6155SOL    HW119886   7.295   3.018   4.457 -2.0164  0.7443 -0.9112
 6155SOL    HW219887   7.286   3.163   4.412  1.2252  1.2639 -0.1013
 6156SOL     OW19888   2.177   0.063   4.142 -0.2505 -0.2072 -0.5271
 6156SOL    HW119889   2.190  -0.030   4.159 -0.5875  0.0232  1.1931
 6156SOL    HW219890   2.214   0.077   4.054 -0.3172 -1.9667 -0.8794
 6157SOL     OW19891   4.668   2.933   2.369  0.2559  0.2624  0.9296
 6157SOL    HW119892   4.710   2.958   2.287 -0.6534 -2.1010 -0.3326
 6157SOL    HW219893   4.736   2.887   2.418  0.2476 -0.1033  0.6037
 6158SOL     OW19894   5.490   0.431   5.496 -0.3349 -0.2642 -0.2949
 6158SOL    HW119895   5.513   0.511   5.448  1.2390 -0.8373 -0.5378
 6158SOL    HW219896   5.402   0.449   5.530 -0.8002  0.8349 -1.9221
 6159SOL     OW19897   1.717   5.993   7.334 -0.5665 -0.3624  0.1646
 6159SOL    HW119898   1.717   6.020   7.425  0.7233  1.2284 -0.2631
 6159SOL    HW219899   1.768   5.912   7.333  1.0295  0.5981  0.6324
 6160SOL     OW19900   4.009   6.420   3.260  0.1996 -0.1489 -0.5587
 6160SOL    HW119901   4.018   6.359   3.187 -0.4140  1.5453 -2.1205
 6160SOL    HW219902   3.954   6.490   3.226  0.0170  0.7686  1.5046
 6161SOL     OW19903   6.331   8.617   7.906 -0.3567 -0.0396 -0.4468
 6161SOL    HW119904   6.288   8.532   7.896 -0.5434  0.0399 -0.3309
 6161SOL    HW219905   6.311   8.663   7.824  1.7138 -0.9674 -1.5466
 6162SOL     OW19906   3.137   3.073   3.788  0.6503  0.1247 -0.1271
 6162SOL    HW119907   3.142   2.981   3.762 -0.1892  0.0670 -0.1410
 6162SOL    HW219908   3.056   3.079   3.839 -0.2951  1.1976 -1.6565
 6163SOL     OW19909   8.054   2.401   0.883  0.2605 -0.5830  0.4117
 6163SOL    HW119910   8.116   2.423   0.952  0.5741 -0.8213  0.2102
 6163SOL    HW219911   7.975   2.450   0.905  0.0534 -1.3464  1.4208
 6164SOL     OW19912   3.039   5.478   7.415  0.2642 -0.0309  0.3973
 6164SOL    HW119913   2.951   5.513   7.403  0.4585  0.3168 -0.0377
 6164SOL    HW219914   3.082   5.489   7.330  0.3494 -1.2882  0.2537
 6165SOL     OW19915   7.227   4.731   7.981 -0.0233  0.1229  0.0119
 6165SOL    HW119916   7.192   4.771   7.901 -0.1662 -1.0174 -0.5136
 6165SOL    HW219917   7.151   4.721   8.038 -0.5886 -2.0387 -0.9975
 6166SOL     OW19918   8.336   6.078   2.869 -0.5456 -0.2394  0.1294
 6166SOL    HW119919   8.391   6.088   2.947 -0.1684  1.8954 -0.3628
 6166SOL    HW219920   8.396   6.045   2.802 -0.6754 -1.2371  0.4874
 6167SOL     OW19921   0.360   2.191   3.309  0.3218 -0.1607  0.1545
 6167SOL    HW119922   0.452   2.205   3.333  0.0862  0.0709  0.9451
 6167SOL    HW219923   0.323   2.279   3.303  0.2343 -0.2404 -0.5069
 6168SOL     OW19924   1.062   2.221   8.333 -0.1886 -0.3735  0.1375
 6168SOL    HW119925   1.029   2.212   8.422  0.8945  0.5349  0.6453
 6168SOL    HW219926   1.144   2.270   8.342 -0.5018  0.4919 -1.4353
 6169SOL     OW19927   0.399   3.830   0.919  0.4232 -0.5139 -0.2369
 6169SOL    HW119928   0.338   3.766   0.883 -0.5513  1.5843 -2.6048
 6169SOL    HW219929   0.471   3.834   0.856 -0.4800  2.0074 -1.2512
 6170SOL     OW19930   3.138   7.311   1.592  0.0383 -0.1228  0.3260
 6170SOL    HW119931   3.066   7.296   1.531  1.2379 -0.1491 -1.1165
 6170SOL    HW219932   3.103   7.376   1.653 -0.9481  0.4373 -0.7940
 6171SOL     OW19933   4.957   6.982   1.190 -0.9693  0.2285  0.3125
 6171SOL    HW119934   4.887   6.934   1.146 -1.4400 -0.3279  1.5987
 6171SOL    HW219935   4.925   6.993   1.280 -0.6650  2.5402  0.1975
 6172SOL     OW19936   2.178   7.176   5.761  0.2772 -0.3702  0.0020
 6172SOL    HW119937   2.089   7.145   5.746  1.0368 -2.1280 -1.2482
 6172SOL    HW219938   2.223   7.161   5.678  2.0160 -0.5044  0.9133
 6173SOL     OW19939   7.754   4.246   2.809 -0.3440 -0.2988  0.1650
 6173SOL    HW119940   7.787   4.332   2.836 -0.7947 -0.3505  0.9240
 6173SOL    HW219941   7.663   4.244   2.840 -0.9941 -0.2780 -1.6097
 6174SOL     OW19942   6.773   9.275   8.973 -0.0934  0.2095  0.1111
 6174SOL    HW119943   6.682   9.260   8.947 -1.2555  3.3128  1.7758
 6174SOL    HW219944   6.814   9.314   8.896 -0.8575  0.8179 -0.0057
 6175SOL     OW19945   0.245   8.222   0.969 -0.2781 -0.0095 -0.5115
 6175SOL    HW119946   0.267   8.314   0.957  0.3645 -0.2583 -1.2966
 6175SOL    HW219947   0.311   8.189   1.030  0.5166 -0.3390 -1.5253
 6176SOL     OW19948   3.904   5.465   5.020 -1.2857  0.0011 -0.1024
 6176SOL    HW119949   3.940   5.457   5.108 -1.0965 -0.9173 -0.2625
 6176SOL    HW219950   3.934   5.551   4.990 -0.5573 -0.0820  0.3659
 6177SOL     OW19951   3.904   5.377   3.500  0.2597 -0.3788  0.1647
 6177SOL    HW119952   3.837   5.376   3.432  0.4262 -1.3377 -0.0035
 6177SOL    HW219953   3.858   5.410   3.578 -0.5156 -1.3248  0.1372
 6178SOL     OW19954   6.602   5.210   2.232  0.7198  0.0574 -1.0241
 6178SOL    HW119955   6.561   5.197   2.146 -0.0253 -0.7556 -0.5630
 6178SOL    HW219956   6.577   5.133   2.282  0.6841  0.7864  0.1069
 6179SOL     OW19957   6.901   8.268   7.380 -0.0880  0.4397  0.2353
 6179SOL    HW119958   6.858   8.260   7.465 -0.5561  2.2693  0.2045
 6179SOL    HW219959   6.878   8.187   7.334  0.8161 -0.9453  2.0834
 6180SOL     OW19960   5.487   7.374   2.537  0.1505  0.2107 -0.6427
 6180SOL    HW119961   5.536   7.293   2.527 -0.9247 -0.9811  2.4834
 6180SOL    HW219962   5.529   7.419   2.611 -1.2639  0.8861 -0.2097
 6181SOL     OW19963   0.982   2.066   6.573  0.1686 -0.0495 -0.1887
 6181SOL    HW119964   1.065   2.113   6.571  0.8076 -1.1724 -1.1508
 6181SOL    HW219965   0.973   2.028   6.486 -0.3932 -1.5602  0.4877
 6182SOL     OW19966   1.515   7.716   0.829  0.3150 -0.3759  0.1148
 6182SOL    HW119967   1.496   7.746   0.740  1.9040  0.2054 -0.0598
 6182SOL    HW219968   1.527   7.797   0.879 -0.3777 -0.7022  0.8286
 6183SOL     OW19969   5.539   7.162   8.072 -0.6451 -0.1342  0.0829
 6183SOL    HW119970   5.548   7.251   8.035  0.8010  0.4474  1.7407
 6183SOL    HW219971   5.543   7.105   7.995 -0.7410  1.1790 -0.9522
 6184SOL     OW19972   5.442   2.884   2.729  0.5945 -0.4259 -0.0583
 6184SOL    HW119973   5.495   2.963   2.741  0.3312  0.0516 -1.7684
 6184SOL    HW219974   5.499   2.813   2.758  1.9531  0.1346 -1.1866
 6185SOL     OW19975   7.021   2.261   3.150  0.4375 -0.3198  0.1494
 6185SOL    HW119976   7.035   2.352   3.126 -1.7827  0.0866  0.1656
 6185SOL    HW219977   7.051   2.211   3.074 -0.2215  0.5691 -0.7194
 6186SOL     OW19978   8.226   8.932   4.980 -0.1412  0.2063  0.1136
 6186SOL    HW119979   8.288   9.002   4.960 -0.3512  0.5725  0.7101
 6186SOL    HW219980   8.166   8.932   4.905 -2.4076  3.2292  1.6968
 6187SOL     OW19981   7.783   0.314   3.836 -0.0492  0.0848 -0.3715
 6187SOL    HW119982   7.818   0.402   3.828  0.8285 -0.2542 -0.4049
 6187SOL    HW219983   7.714   0.309   3.769 -0.2666  0.8156 -0.2025
 6188SOL     OW19984   5.219   7.759   2.153 -0.6374 -0.0955  0.0186
 6188SOL    HW119985   5.205   7.710   2.234  0.2422  0.3670  0.4711
 6188SOL    HW219986   5.253   7.694   2.091 -0.6048 -0.3026  0.2517
 6189SOL     OW19987   0.698   3.029   6.548 -0.1574  0.5302  0.3183
 6189SOL    HW119988   0.768   3.072   6.598 -0.0365  0.0727  0.5519
 6189SOL    HW219989   0.692   3.080   6.467 -1.1132  1.9621  1.2496
 6190SOL     OW19990   7.842   6.507   2.523 -0.1995  0.0477  0.0420
 6190SOL    HW119991   7.817   6.550   2.441  0.7814  1.0708  0.2541
 6190SOL    HW219992   7.760   6.494   2.569 -0.5504  1.9527  0.0627
 6191SOL     OW19993   6.989   8.890   5.303  0.0904 -0.0400 -0.2548
 6191SOL    HW119994   7.037   8.909   5.223  0.4758 -0.8379 -0.2191
 6191SOL    HW219995   6.899   8.918   5.285  0.3353  0.4907 -0.6871
 6192SOL     OW19996   8.508   9.270   1.303  0.3953  0.1141 -0.0877
 6192SOL    HW119997   8.503   9.348   1.248  2.3608 -0.0033 -0.5089
 6192SOL    HW219998   8.447   9.287   1.375 -0.5865  1.2146 -1.1362
 6193SOL     OW19999   3.707   3.258   6.154 -0.0352 -0.1840 -0.5419
 6193SOL    HW120000   3.787   3.217   6.187  1.2922  0.7659 -2.4269
 6193SOL    HW220001   3.697   3.338   6.207  1.5944  0.8910 -1.7745
 6194SOL     OW20002   9.135   2.168   7.785  0.6689  0.3001 -0.1237
 6194SOL    HW120003   9.086   2.086   7.791  2.1589 -0.5759  0.6287
 6194SOL    HW220004   9.082   2.232   7.832  0.4099 -0.7112  0.9926
 6195SOL     OW20005   2.401   8.845   4.363  0.1611 -0.6409 -0.9028
 6195SOL    HW120006   2.494   8.832   4.382  0.0172 -1.5309 -0.7522
 6195SOL    HW220007   2.360   8.851   4.449 -0.1148 -1.8335 -0.9256
 6196SOL     OW20008   3.513   6.585   7.197  0.3449 -0.8648 -0.0032
 6196SOL    HW120009   3.548   6.549   7.278 -1.7036 -2.1997  0.3644
 6196SOL    HW220010   3.501   6.509   7.140 -1.0561 -0.3622 -0.4229
 6197SOL     OW20011   2.176   5.702   3.839  0.3919 -0.0968 -0.0062
 6197SOL    HW120012   2.115   5.744   3.778 -0.0983  0.2241  0.6803
 6197SOL    HW220013   2.216   5.631   3.789  0.8383  0.8505 -1.0399
 6198SOL     OW20014   2.746   6.505   0.339 -0.5683  0.4003  0.1527
 6198SOL    HW120015   2.824   6.502   0.393 -1.5087  0.5860  1.5803
 6198SOL    HW220016   2.757   6.435   0.275  0.0377 -0.6238  1.3577
 6199SOL     OW20017   4.329   2.474   4.492  0.4325  0.8195  0.7686
 6199SOL    HW120018   4.381   2.483   4.413 -0.0919  0.6754  0.3970
 6199SOL    HW220019   4.342   2.383   4.519 -1.0676  0.2196 -0.3808
 6200SOL     OW20020   2.410   1.813   5.153 -0.1442  0.5364 -0.0422
 6200SOL    HW120021   2.471   1.866   5.102 -0.9359  0.1922 -1.3903
 6200SOL    HW220022   2.340   1.873   5.178 -0.0717  0.5666  0.0851
 6201SOL     OW20023   2.417   6.150   6.997  0.6693  0.1920 -0.2175
 6201SOL    HW120024   2.387   6.231   7.037 -1.3427 -0.5604 -0.1213
 6201SOL    HW220025   2.408   6.165   6.903  0.6356  0.2147 -0.2105
 6202SOL     OW20026   4.463   5.707   2.550 -0.3920  0.2680  0.4853
 6202SOL    HW120027   4.522   5.704   2.625 -1.8644 -2.1438  1.6979
 6202SOL    HW220028   4.477   5.624   2.504 -0.8872  0.8628 -0.8080
 6203SOL     OW20029   6.682   3.930   2.857 -0.0464  0.6751 -0.1805
 6203SOL    HW120030   6.674   3.872   2.780 -3.0043  1.4334 -0.5672
 6203SOL    HW220031   6.665   3.873   2.932  1.2356  0.2586 -0.1837
 6204SOL     OW20032   7.148   1.201   2.180  0.9485 -0.6691  0.3450
 6204SOL    HW120033   7.177   1.112   2.162  1.4271 -0.6333  0.9335
 6204SOL    HW220034   7.074   1.191   2.241  0.8615 -0.6721  0.2395
 6205SOL     OW20035   3.032   1.506   4.448  0.0693  0.1018  0.0956
 6205SOL    HW120036   3.034   1.440   4.517  2.9834 -0.8880 -0.7988
 6205SOL    HW220037   3.023   1.589   4.494 -0.4680 -0.6672  1.4568
 6206SOL     OW20038   0.307   2.834   4.305  0.1350 -0.5641 -0.2782
 6206SOL    HW120039   0.219   2.867   4.323  0.3596  1.0224 -1.8191
 6206SOL    HW220040   0.299   2.788   4.222  0.5905 -1.2021  0.0246
 6207SOL     OW20041   5.577   5.979   5.947 -0.2101  0.2281  0.2069
 6207SOL    HW120042   5.578   5.982   5.851 -0.6634 -1.4710  0.1259
 6207SOL    HW220043   5.581   5.886   5.969 -2.7600  0.4032  1.8079
 6208SOL     OW20044   7.496   8.408   8.766  0.5730  0.2406  0.7752
 6208SOL    HW120045   7.573   8.374   8.722  1.8865  0.1772  2.9712
 6208SOL    HW220046   7.478   8.492   8.724  0.8662 -0.4455 -0.7767
 6209SOL     OW20047   0.550   4.199   2.920 -0.5404 -0.3198  0.0111
 6209SOL    HW120048   0.479   4.210   2.856  0.0752 -1.7184 -0.9782
 6209SOL    HW220049   0.623   4.165   2.868  0.5873  0.2757  1.1583
 6210SOL     OW20050   5.576   4.446   4.712 -0.0401 -0.3386 -0.2274
 6210SOL    HW120051   5.509   4.379   4.701 -1.9014  1.6027 -1.5728
 6210SOL    HW220052   5.528   4.522   4.746  1.8882  0.4799  0.8053
 6211SOL     OW20053   8.913   5.916   6.330  0.4230 -0.4572  0.1488
 6211SOL    HW120054   8.873   5.959   6.406  1.2737 -1.5608  1.2598
 6211SOL    HW220055   9.006   5.935   6.339  0.5584 -0.8241 -0.4804
 6212SOL     OW20056   0.405   2.133   0.216  0.6642  0.4473 -0.0468
 6212SOL    HW120057   0.447   2.047   0.222  0.4580  0.3492 -0.0092
 6212SOL    HW220058   0.392   2.147   0.122  2.0410  1.0906 -0.1710
 6213SOL     OW20059   8.302   9.171   3.564  0.3207  0.3722 -0.1026
 6213SOL    HW120060   8.260   9.238   3.619 -1.1322 -1.3885  1.0563
 6213SOL    HW220061   8.234   9.105   3.551  1.3616 -0.3586 -2.1564
 6214SOL     OW20062   3.446   7.411   7.123 -0.1518  0.5285 -0.1068
 6214SOL    HW120063   3.445   7.319   7.098 -1.4391  0.7382 -0.9250
 6214SOL    HW220064   3.381   7.418   7.193  2.8667  0.0987  2.9849
 6215SOL     OW20065   1.162   5.023   7.775  0.5345  0.4085 -0.1607
 6215SOL    HW120066   1.246   4.980   7.791  0.0418 -0.6342 -0.2925
 6215SOL    HW220067   1.162   5.039   7.680  0.7797  0.8569 -0.0907
 6216SOL     OW20068   5.902   5.669   4.844 -0.6270  0.3471  0.0577
 6216SOL    HW120069   5.890   5.664   4.750 -0.0156  0.9027 -0.0545
 6216SOL    HW220070   5.909   5.762   4.863  0.9732  0.1789  0.4178
 6217SOL     OW20071   5.078   2.290   3.547  0.2518 -0.5999 -0.3198
 6217SOL    HW120072   5.007   2.229   3.566 -0.2941  0.3502  0.7845
 6217SOL    HW220073   5.097   2.277   3.454  0.4073 -2.6989 -0.0448
 6218SOL     OW20074   4.725   0.118   3.120 -0.6601 -0.0449  0.5128
 6218SOL    HW120075   4.791   0.109   3.051  0.2692  0.0243  1.3774
 6218SOL    HW220076   4.648   0.075   3.084  0.0263 -0.6487 -0.2820
 6219SOL     OW20077   8.796   5.051   4.390  1.0620 -0.2473  0.2142
 6219SOL    HW120078   8.865   5.017   4.333  1.2726 -1.8082  1.3635
 6219SOL    HW220079   8.749   4.974   4.421 -0.0769  0.6801  0.8913
 6220SOL     OW20080   4.868   0.973   7.660 -0.2191  0.0634  0.0110
 6220SOL    HW120081   4.915   1.054   7.642  0.9778 -0.4755  0.5749
 6220SOL    HW220082   4.936   0.906   7.659 -0.8930 -0.6747  1.3492
 6221SOL     OW20083   6.064   2.831   7.758  0.3428  0.0063 -0.1051
 6221SOL    HW120084   5.988   2.778   7.782 -0.3280  0.6197 -0.8291
 6221SOL    HW220085   6.082   2.809   7.667  1.6054 -0.7916  0.3037
 6222SOL     OW20086   1.897   7.538   7.519  0.0646 -0.4617  0.1632
 6222SOL    HW120087   1.902   7.548   7.614 -0.1238 -0.6217  0.1911
 6222SOL    HW220088   1.951   7.462   7.499 -0.9573 -1.2440  0.2941
 6223SOL     OW20089   2.917   9.262   3.096  0.1709  0.0510 -0.1375
 6223SOL    HW120090   2.838   9.299   3.056  0.1259  1.0600  0.8155
 6223SOL    HW220091   2.892   9.247   3.187  1.7669  2.8631  0.8979
 6224SOL     OW20092   8.390   5.446   3.628 -0.1367  0.4194 -0.0456
 6224SOL    HW120093   8.330   5.371   3.635 -0.5336  0.6122 -1.1124
 6224SOL    HW220094   8.353   5.512   3.686 -0.0748 -0.0272  0.5067
 6225SOL     OW20095   5.443   1.692   5.323 -0.4200 -0.3902 -0.2943
 6225SOL    HW120096   5.469   1.705   5.232  0.7380  0.0776  0.0812
 6225SOL    HW220097   5.498   1.752   5.373 -1.4002 -0.2610  0.6776
 6226SOL     OW20098   5.139   5.916   0.902  0.1329 -0.0154 -0.3406
 6226SOL    HW120099   5.081   5.988   0.927  0.3897  0.3020 -0.6569
 6226SOL    HW220100   5.122   5.903   0.809 -1.1154 -1.4565  0.0272
 6227SOL     OW20101   7.979   5.034   4.126  0.4784 -0.4236 -0.4902
 6227SOL    HW120102   7.898   5.026   4.076  1.7156  0.6689 -2.7929
 6227SOL    HW220103   7.955   5.005   4.214 -2.7621  1.1889 -0.6975
 6228SOL     OW20104   8.874   6.897   6.018 -0.3506 -0.0162  0.0611
 6228SOL    HW120105   8.886   6.982   6.061  1.1788 -0.4707  0.6151
 6228SOL    HW220106   8.831   6.843   6.084  0.6715 -0.2887  0.5247
 6229SOL     OW20107   3.085   1.868   2.395 -1.1675 -0.1982 -0.9124
 6229SOL    HW120108   3.122   1.934   2.336 -3.0295 -0.4143 -2.4091
 6229SOL    HW220109   3.106   1.784   2.353  0.1273 -0.5435  0.3540
 6230SOL     OW20110   2.019   8.592   0.534  0.1989 -0.4166  0.6818
 6230SOL    HW120111   2.026   8.497   0.548  0.2992 -0.6190 -0.5803
 6230SOL    HW220112   1.926   8.607   0.520  0.2271 -0.3882  0.5241
 6231SOL     OW20113   8.738   5.234   7.274  0.0356  0.2292 -0.2071
 6231SOL    HW120114   8.772   5.322   7.292  2.0111 -1.0338  2.8210
 6231SOL    HW220115   8.681   5.214   7.348 -0.1628 -1.1846 -0.7087
 6232SOL     OW20116   9.095   7.875   3.044  0.1865  0.0444  0.1761
 6232SOL    HW120117   9.170   7.820   3.065 -1.0313 -1.3173  1.1200
 6232SOL    HW220118   9.025   7.844   3.102 -0.5671  2.5716  0.7402
 6233SOL     OW20119   7.266   4.608   8.466  0.3518 -0.2779  0.0246
 6233SOL    HW120120   7.191   4.551   8.453  0.2630 -0.1209 -0.1554
 6233SOL    HW220121   7.292   4.592   8.557 -0.4139  0.2664  0.3550
 6234SOL     OW20122   8.772   6.761   1.785  0.2441  0.5814 -0.0390
 6234SOL    HW120123   8.858   6.794   1.812  0.6091 -0.2975 -0.0873
 6234SOL    HW220124   8.729   6.836   1.744  0.6119  1.2897  0.8402
 6235SOL     OW20125   6.933   6.830   1.629 -0.2814 -0.0381 -0.5253
 6235SOL    HW120126   6.880   6.760   1.668 -0.5428  0.3793 -0.1274
 6235SOL    HW220127   6.921   6.905   1.688  3.0811 -0.7422  1.3039
 6236SOL     OW20128   4.004   0.864   0.064  0.4822  0.2180 -0.4311
 6236SOL    HW120129   4.092   0.881   0.097  0.6759  2.1458 -1.7373
 6236SOL    HW220130   3.953   0.939   0.094 -0.0901  0.3818 -1.7482
 6237SOL     OW20131   3.513   0.674   1.693  0.3553 -0.0106  0.1924
 6237SOL    HW120132   3.540   0.584   1.672  0.9225  0.4597 -1.2283
 6237SOL    HW220133   3.449   0.664   1.764 -0.7624 -1.6514 -0.9705
 6238SOL     OW20134   8.359   7.148   2.560 -0.2785  0.1466  0.1269
 6238SOL    HW120135   8.386   7.177   2.647  3.3054 -2.7410  0.2210
 6238SOL    HW220136   8.311   7.067   2.576  1.0759 -0.8134 -0.5631
 6239SOL     OW20137   5.580   1.553   7.258 -0.1714 -0.0982 -0.0072
 6239SOL    HW120138   5.503   1.594   7.218  0.3259  3.1044  1.9924
 6239SOL    HW220139   5.642   1.542   7.186 -2.0199 -1.7479 -1.4518
 6240SOL     OW20140   8.004   0.653   1.644 -0.0108  0.1864 -0.1387
 6240SOL    HW120141   7.991   0.580   1.705  1.1827 -0.0739 -0.1665
 6240SOL    HW220142   7.959   0.727   1.686 -0.2501 -0.2834  0.4569
 6241SOL     OW20143   6.382   6.620   4.049 -0.0727  0.3492  0.0011
 6241SOL    HW120144   6.436   6.557   4.097 -0.6195 -0.5715 -0.5489
 6241SOL    HW220145   6.358   6.573   3.968 -2.9731  0.1052  0.8924
 6242SOL     OW20146   0.569   1.257   7.657 -0.4996  0.2679 -0.4721
 6242SOL    HW120147   0.613   1.212   7.585 -0.8243 -1.5283  0.3882
 6242SOL    HW220148   0.484   1.281   7.622 -1.1811 -1.7819 -0.3584
 6243SOL     OW20149   6.386   1.428   7.975 -0.3720 -0.5919 -0.6292
 6243SOL    HW120150   6.455   1.460   8.033 -0.6255 -0.7874 -0.2092
 6243SOL    HW220151   6.430   1.406   7.893 -0.1838  0.8044 -0.9217
 6244SOL     OW20152   1.830   1.068   8.587 -0.1975 -0.0645  0.5162
 6244SOL    HW120153   1.825   1.039   8.678  0.3018  1.1751  0.9617
 6244SOL    HW220154   1.923   1.073   8.569 -0.2975 -1.0006 -0.3111
 6245SOL     OW20155   0.157   3.632   1.302  0.2547  0.1637 -0.0655
 6245SOL    HW120156   0.209   3.708   1.276  0.4657  0.9149  2.2666
 6245SOL    HW220157   0.066   3.661   1.296  0.3546  1.1840  2.1210
 6246SOL     OW20158   2.911   8.231   7.298 -0.6515  0.5988  0.0495
 6246SOL    HW120159   2.917   8.326   7.284 -0.4383  0.6408  0.3968
 6246SOL    HW220160   2.826   8.207   7.263 -0.1383  0.6801 -1.3170
 6247SOL     OW20161   3.115   0.968   3.278  0.5609 -0.2369 -0.2583
 6247SOL    HW120162   3.175   0.893   3.277  0.5076 -0.2834 -0.0198
 6247SOL    HW220163   3.044   0.942   3.219 -1.2998 -1.8992  2.5132
 6248SOL     OW20164   7.265   0.476   7.495 -0.1955 -0.8927 -0.1462
 6248SOL    HW120165   7.227   0.491   7.409  2.9325  3.2421 -1.1404
 6248SOL    HW220166   7.349   0.432   7.477  0.9191  0.8143  0.5626
 6249SOL     OW20167   8.119   1.769   9.268 -0.2854 -0.7098  0.0176
 6249SOL    HW120168   8.173   1.695   9.297  0.6045  0.1721  0.6980
 6249SOL    HW220169   8.053   1.779   9.337  0.6538  0.1813  0.8275
 6250SOL     OW20170   3.224   4.215   8.277  0.4533 -0.2923  0.4013
 6250SOL    HW120171   3.256   4.257   8.197  1.7293 -0.9988  0.5146
 6250SOL    HW220172   3.134   4.247   8.287  0.0587 -0.6414 -1.6397
 6251SOL     OW20173   3.980   4.179   4.143 -0.0560 -0.5059 -0.0175
 6251SOL    HW120174   3.937   4.265   4.144  1.2103  0.1904  2.6726
 6251SOL    HW220175   3.916   4.121   4.101 -2.4466  1.0255  1.2942
 6252SOL     OW20176   5.288   3.194   1.493 -0.3607  0.0122  0.2238
 6252SOL    HW120177   5.284   3.288   1.474 -2.5506  0.0003  0.3843
 6252SOL    HW220178   5.205   3.174   1.536  0.5205 -1.8086  1.2004
 6253SOL     OW20179   2.338   2.337   8.176 -0.0532  0.1035 -0.5129
 6253SOL    HW120180   2.347   2.426   8.209 -2.6016 -0.0774  0.9457
 6253SOL    HW220181   2.318   2.347   8.083 -0.4787  1.0619 -0.3286
 6254SOL     OW20182   2.367   8.194   3.464  0.0801  0.2391 -0.6864
 6254SOL    HW120183   2.445   8.173   3.515 -0.2963  0.8458  0.1591
 6254SOL    HW220184   2.376   8.141   3.385  0.9556 -0.2980 -0.2502
 6255SOL     OW20185   3.668   7.928   7.552  0.1868 -0.2366  0.6167
 6255SOL    HW120186   3.603   7.878   7.503  0.3779  1.5590 -1.6468
 6255SOL    HW220187   3.624   8.010   7.573  0.7746 -0.1917  1.7237
 6256SOL     OW20188   3.707   2.232   4.219 -0.1334 -0.1051 -0.4201
 6256SOL    HW120189   3.753   2.313   4.243  0.2463 -0.1388 -1.0172
 6256SOL    HW220190   3.705   2.181   4.300  0.2631  0.1950 -0.2172
 6257SOL     OW20191   3.497   5.478   4.393 -0.5621  0.1390 -0.0744
 6257SOL    HW120192   3.563   5.527   4.443  0.3858 -0.6008 -0.5739
 6257SOL    HW220193   3.485   5.529   4.313  1.7903 -1.2719 -1.4616
 6258SOL     OW20194   7.734   5.486   8.431 -0.5876  0.0983  0.1117
 6258SOL    HW120195   7.736   5.554   8.363  1.1877 -0.4042 -0.4039
 6258SOL    HW220196   7.801   5.424   8.404 -1.4187 -1.3012  1.1612
 6259SOL     OW20197   8.731   3.484   3.720  0.2058  0.2101 -0.0500
 6259SOL    HW120198   8.657   3.541   3.700  0.1962  0.2812  0.1799
 6259SOL    HW220199   8.802   3.545   3.744  0.7885  0.2197 -1.6657
 6260SOL     OW20200   6.157   8.317   3.169 -0.2767  0.7077  0.2410
 6260SOL    HW120201   6.115   8.231   3.170  0.2344  0.4370 -0.6009
 6260SOL    HW220202   6.103   8.369   3.109  0.3024  0.4943 -0.4836
 6261SOL     OW20203   8.306   1.232   3.242  0.0518 -0.4807  0.6661
 6261SOL    HW120204   8.375   1.219   3.177  0.7571 -0.8564  1.4778
 6261SOL    HW220205   8.335   1.306   3.294 -0.4434 -0.2698  0.6515
 6262SOL     OW20206   9.224   1.054   9.222 -0.4286  0.3737  0.0444
 6262SOL    HW120207   9.294   1.103   9.179 -0.3625 -0.1057 -0.4163
 6262SOL    HW220208   9.249   1.052   9.314  0.0994  0.3274 -0.0944
 6263SOL     OW20209   6.655   2.118   7.367  0.6916 -0.2102  0.1754
 6263SOL    HW120210   6.669   2.186   7.432  2.0645 -0.5931  0.3258
 6263SOL    HW220211   6.725   2.054   7.383 -0.0242 -1.2166 -0.5223
 6264SOL     OW20212   6.913   8.610   0.505 -0.6080 -0.1888  0.0487
 6264SOL    HW120213   6.889   8.620   0.597 -0.4859 -1.3041  0.2148
 6264SOL    HW220214   6.887   8.520   0.483  0.7795 -0.4648 -0.5647
 6265SOL     OW20215   1.192   7.452   4.916 -0.4665  0.6510  0.5336
 6265SOL    HW120216   1.200   7.410   5.002 -1.0077  1.1259  0.8191
 6265SOL    HW220217   1.172   7.379   4.856 -3.6878  0.7051  1.3782
 6266SOL     OW20218   8.885   3.291   4.224 -0.0116 -0.0060 -0.6157
 6266SOL    HW120219   8.904   3.333   4.140 -1.4395  3.8200  0.7347
 6266SOL    HW220220   8.959   3.314   4.280 -0.2135 -0.4182 -0.1683
 6267SOL     OW20221   7.375   0.579   9.177 -0.0540 -0.3509 -0.1478
 6267SOL    HW120222   7.379   0.500   9.124 -1.0519  0.1386 -0.9984
 6267SOL    HW220223   7.458   0.581   9.225  0.0305 -1.8331 -0.2014
 6268SOL     OW20224   1.729   6.795   8.206 -0.1626  0.3352 -0.0497
 6268SOL    HW120225   1.773   6.713   8.226 -0.4587  0.5030  1.4737
 6268SOL    HW220226   1.656   6.799   8.268  0.8900  2.5542  1.1812
 6269SOL     OW20227   6.706   0.330   2.003  0.4285 -0.1069 -0.1169
 6269SOL    HW120228   6.689   0.270   2.075 -1.1556  2.1038  1.4890
 6269SOL    HW220229   6.674   0.415   2.034  1.0518  1.2635 -2.8760
 6270SOL     OW20230   3.802   3.491   8.388 -0.1876  0.1160  0.0909
 6270SOL    HW120231   3.751   3.411   8.401 -1.9862  1.1609 -0.1086
 6270SOL    HW220232   3.808   3.529   8.476  0.3233 -0.0540  0.1276
 6271SOL     OW20233   7.625   5.635   4.423  0.0903 -0.1593 -0.4776
 6271SOL    HW120234   7.557   5.700   4.441  1.6589  1.6818 -0.9731
 6271SOL    HW220235   7.704   5.671   4.463  1.1130 -1.5283 -1.1938
 6272SOL     OW20236   2.350   9.242   1.773 -0.9347  0.4471 -0.2261
 6272SOL    HW120237   2.348   9.324   1.724 -0.2711 -0.2308 -1.4141
 6272SOL    HW220238   2.278   9.191   1.737  0.2186 -0.4796 -1.2935
 6273SOL     OW20239   6.012   0.606   6.135  0.8346  0.6432  0.1041
 6273SOL    HW120240   6.068   0.532   6.160  1.8221  1.1458 -0.5621
 6273SOL    HW220241   5.925   0.567   6.123  0.6193  0.1035  2.7261
 6274SOL     OW20242   1.241   3.631   3.143 -0.0515 -0.4600  0.1155
 6274SOL    HW120243   1.202   3.681   3.214 -0.5146  0.1913 -0.5800
 6274SOL    HW220244   1.181   3.641   3.069  0.0611 -1.7047 -0.1745
 6275SOL     OW20245   6.656   1.122   0.916  0.0753  0.0161 -0.3640
 6275SOL    HW120246   6.713   1.049   0.893  2.3932  1.6352 -0.0946
 6275SOL    HW220247   6.605   1.091   0.991  0.8940 -1.3593 -0.3511
 6276SOL     OW20248   4.660   5.555   3.121 -0.0855  0.0449 -0.1215
 6276SOL    HW120249   4.711   5.523   3.195 -0.8250  2.2853  1.4776
 6276SOL    HW220250   4.572   5.519   3.134 -0.1410  0.1988 -0.0607
 6277SOL     OW20251   5.206   4.111   3.581  0.1774  0.3005 -0.0661
 6277SOL    HW120252   5.160   4.185   3.621  0.0480  0.6477 -0.8386
 6277SOL    HW220253   5.167   4.103   3.494  0.3707 -0.5150 -0.0875
 6278SOL     OW20254   2.738   7.637   4.612  0.0879  0.2543  0.3270
 6278SOL    HW120255   2.676   7.672   4.676  1.5470  1.7284  1.0323
 6278SOL    HW220256   2.715   7.680   4.530 -0.3261  0.1826  0.4061
 6279SOL     OW20257   7.781   3.939   7.991  0.1949  0.7769 -0.1990
 6279SOL    HW120258   7.767   3.878   7.919 -0.7958  0.2192  0.4441
 6279SOL    HW220259   7.745   4.022   7.960  0.4999  0.7532 -0.6327
 6280SOL     OW20260   4.598   2.320   8.342  0.4722  0.2343 -0.1509
 6280SOL    HW120261   4.621   2.242   8.291 -1.4330 -0.2865 -0.3023
 6280SOL    HW220262   4.680   2.369   8.349  1.5257 -1.3368 -0.8118
 6281SOL     OW20263   8.917   6.273   0.754 -0.0530  0.0889  0.2197
 6281SOL    HW120264   8.835   6.227   0.774  0.1727 -0.1384  0.6240
 6281SOL    HW220265   8.919   6.346   0.816  0.1689 -0.0495  0.3781
 6282SOL     OW20266   1.098   6.722   6.013 -0.4588 -0.6035 -0.2810
 6282SOL    HW120267   1.049   6.728   5.931  0.3619  0.2362 -0.7316
 6282SOL    HW220268   1.190   6.728   5.987 -0.2265  1.4510  0.8257
 6283SOL     OW20269   6.994   7.749   8.369  0.3720  0.5627  0.4059
 6283SOL    HW120270   7.082   7.763   8.404  0.5014 -0.6268  0.5786
 6283SOL    HW220271   7.007   7.737   8.275  0.3750  0.5363  0.4094
 6284SOL     OW20272   1.195   4.445   2.941  0.0885  0.3630  0.3907
 6284SOL    HW120273   1.125   4.470   3.001  0.1636  2.8980 -0.4580
 6284SOL    HW220274   1.264   4.509   2.956  0.3807  0.6815 -1.9037
 6285SOL     OW20275   6.641   4.417   4.128  0.6236  0.3174  0.9809
 6285SOL    HW120276   6.547   4.400   4.132  0.7714 -1.4577 -1.1781
 6285SOL    HW220277   6.675   4.382   4.211 -0.5295  0.6054  1.6064
 6286SOL     OW20278   4.220   7.267   1.117  0.0886  0.0713  0.1296
 6286SOL    HW120279   4.261   7.189   1.153  0.9207  0.4187 -0.0416
 6286SOL    HW220280   4.225   7.331   1.188  0.4108  0.3106 -0.1101
 6287SOL     OW20281   7.046   0.375   0.108  0.4942 -0.5727 -0.5738
 6287SOL    HW120282   7.099   0.307   0.149  1.8299 -0.3923 -1.8874
 6287SOL    HW220283   7.042   0.350   0.016  2.7628  2.0625 -1.5307
 6288SOL     OW20284   0.716   2.165   1.424 -0.0828  0.0030 -0.0239
 6288SOL    HW120285   0.694   2.076   1.395  0.1183 -0.1840  0.3909
 6288SOL    HW220286   0.768   2.152   1.503 -0.2017  0.4974  0.1378
 6289SOL     OW20287   5.219   7.642   0.808 -0.0525  0.0937  0.0337
 6289SOL    HW120288   5.179   7.729   0.811 -0.9273 -0.3285  1.6571
 6289SOL    HW220289   5.258   7.638   0.721 -2.2566  1.1233 -1.1139
 6290SOL     OW20290   5.463   1.614   6.906  0.3793  0.1490 -1.0157
 6290SOL    HW120291   5.404   1.597   6.979  1.7741  0.5801  0.2548
 6290SOL    HW220292   5.437   1.700   6.874  1.6647  1.3592  0.9740
 6291SOL     OW20293   5.314   2.237   0.686 -0.2419 -0.2411  0.1436
 6291SOL    HW120294   5.387   2.182   0.715  1.5033  0.6891 -2.2153
 6291SOL    HW220295   5.307   2.220   0.592 -0.5902  2.4825 -0.3965
 6292SOL     OW20296   3.022   7.635   8.532  0.2324  0.1205 -0.4044
 6292SOL    HW120297   3.028   7.546   8.496  1.0966  0.4868 -1.2285
 6292SOL    HW220298   2.933   7.641   8.567 -0.2687 -0.6619 -1.4582
 6293SOL     OW20299   0.130   0.598   3.592 -0.0423  0.1166  0.3761
 6293SOL    HW120300   0.202   0.574   3.534 -0.0410 -2.7046  1.4079
 6293SOL    HW220301   0.135   0.535   3.664 -2.1382  1.3250  1.6804
 6294SOL     OW20302   6.467   6.602   4.813  0.1780 -0.0357  0.2008
 6294SOL    HW120303   6.434   6.573   4.728  1.5038 -0.9546 -0.0267
 6294SOL    HW220304   6.536   6.665   4.791 -0.9256  1.4053  0.6613
 6295SOL     OW20305   6.696   2.613   8.101  0.1241 -0.0544 -0.5975
 6295SOL    HW120306   6.672   2.561   8.024 -0.2900 -1.1781  0.2535
 6295SOL    HW220307   6.623   2.600   8.162 -0.2067  1.9190 -0.5066
 6296SOL     OW20308   3.959   4.834   6.128 -0.3788  0.4395 -0.3523
 6296SOL    HW120309   3.972   4.874   6.042  0.0137  0.3293 -0.3445
 6296SOL    HW220310   3.949   4.908   6.188  2.9086  0.6578  0.1029
 6297SOL     OW20311   6.035   6.405   6.461 -0.1042  0.4700 -0.1125
 6297SOL    HW120312   6.074   6.347   6.396  0.2750  0.3470  0.2184
 6297SOL    HW220313   5.968   6.351   6.505  0.5444  0.1389  0.4882
 6298SOL     OW20314   5.065   7.478   6.306  0.2615 -1.0674 -0.0499
 6298SOL    HW120315   5.135   7.433   6.353  0.5241 -1.6861 -0.9904
 6298SOL    HW220316   5.075   7.448   6.215 -0.5105 -0.2739 -0.4097
 6299SOL     OW20317   5.986   1.890   1.464  0.1757 -0.4347 -0.1132
 6299SOL    HW120318   6.004   1.845   1.546  0.8186  1.2390  0.6984
 6299SOL    HW220319   5.901   1.933   1.478  0.8479  0.8537  0.1559
 6300SOL     OW20320   6.513   2.689   0.146 -0.0973  0.0474  0.2506
 6300SOL    HW120321   6.587   2.632   0.123  0.5313  0.9885 -0.1174
 6300SOL    HW220322   6.516   2.694   0.241  0.3726  0.1496  0.2349
 6301SOL     OW20323   4.576   1.757   1.726 -0.9189  0.2400  0.0639
 6301SOL    HW120324   4.600   1.844   1.694 -1.9987  0.7533  0.6213
 6301SOL    HW220325   4.632   1.697   1.676 -0.9987  1.1654 -1.1789
 6302SOL     OW20326   2.682   1.983   6.844  0.1851  0.3374  0.2014
 6302SOL    HW120327   2.663   1.892   6.819  0.7644  0.0506  0.7823
 6302SOL    HW220328   2.634   1.995   6.926 -0.1157  0.6491 -0.0189
 6303SOL     OW20329   1.831   5.640   0.931  0.2118  0.1835  0.4870
 6303SOL    HW120330   1.877   5.559   0.951 -0.5398 -0.1236  1.0378
 6303SOL    HW220331   1.754   5.613   0.881  0.0796  0.5820  0.4673
 6304SOL     OW20332   1.762   0.079   5.601  0.0471 -0.0753  0.6164
 6304SOL    HW120333   1.780   0.147   5.667  0.5009 -0.1394  0.5595
 6304SOL    HW220334   1.667   0.070   5.603 -0.0126  0.4895  0.7008
 6305SOL     OW20335   5.364   7.932   6.798  0.0361 -0.1239  0.7337
 6305SOL    HW120336   5.312   7.879   6.858 -0.1583  0.2925  0.9340
 6305SOL    HW220337   5.375   8.016   6.842  0.5858 -0.0870  0.5433
 6306SOL     OW20338   0.221   7.147   5.314  0.3610 -0.0839  0.4109
 6306SOL    HW120339   0.201   7.088   5.387  0.3510 -1.2066 -0.4640
 6306SOL    HW220340   0.317   7.144   5.308  0.2878 -1.1952 -0.5482
 6307SOL     OW20341   8.317   0.236   2.148 -0.0025  0.7696 -0.2444
 6307SOL    HW120342   8.401   0.258   2.190  0.3235  0.4453 -0.7201
 6307SOL    HW220343   8.252   0.246   2.218  0.0915  3.4055 -0.4415
 6308SOL     OW20344   5.772   5.168   3.813  0.1005 -0.1036 -0.1083
 6308SOL    HW120345   5.680   5.196   3.810  0.1067 -0.1125 -0.4136
 6308SOL    HW220346   5.818   5.242   3.853  0.1849  0.5245 -1.3218
 6309SOL     OW20347   1.264   1.245   8.032  0.7401  0.7249 -0.4339
 6309SOL    HW120348   1.183   1.214   8.072  1.9843 -0.6449  1.1678
 6309SOL    HW220349   1.260   1.340   8.039 -0.3665  0.6340  0.3336
 6310SOL     OW20350   0.036   6.035   5.666  0.1694  0.1826 -0.1010
 6310SOL    HW120351   0.116   6.040   5.614  0.6853 -1.2930  0.5129
 6310SOL    HW220352  -0.020   5.972   5.619  0.2673 -0.4566  0.6231
 6311SOL     OW20353   8.227   1.433   4.048  0.5105 -0.4744  0.0403
 6311SOL    HW120354   8.155   1.475   4.001  1.5225  1.2727 -0.0452
 6311SOL    HW220355   8.296   1.425   3.982  1.4102  0.5827  0.8405
 6312SOL     OW20356   3.960   0.942   3.245 -0.4848 -0.3757  0.1600
 6312SOL    HW120357   4.035   0.949   3.304 -1.1152 -1.1331  1.1107
 6312SOL    HW220358   3.959   1.023   3.195  0.8569 -0.2899  0.2543
 6313SOL     OW20359   2.608   6.482   3.681  0.1035  0.1034 -0.0236
 6313SOL    HW120360   2.554   6.403   3.677 -0.5099  0.4628  0.8662
 6313SOL    HW220361   2.696   6.450   3.698  0.1140 -0.4624 -1.0329
 6314SOL     OW20362   1.832   0.516   4.917 -0.3485 -0.4131  0.6193
 6314SOL    HW120363   1.904   0.462   4.950 -1.4109 -0.3728  3.1916
 6314SOL    HW220364   1.761   0.453   4.899 -1.0520 -0.0990  2.1253
 6315SOL     OW20365   4.269   0.665   2.950 -0.0596  0.0469 -0.5799
 6315SOL    HW120366   4.322   0.658   2.871  0.3598  0.3507 -0.3322
 6315SOL    HW220367   4.218   0.745   2.937  1.4533  1.2152  0.2855
 6316SOL     OW20368   7.443   4.656   5.595 -0.2858  0.4927  0.4012
 6316SOL    HW120369   7.349   4.659   5.613 -0.1452  0.0156  1.2187
 6316SOL    HW220370   7.484   4.658   5.681  0.4017 -1.5254  0.1636
 6317SOL     OW20371   1.182   6.779   0.930  0.5111  0.4989 -0.4516
 6317SOL    HW120372   1.147   6.865   0.909  1.3584  0.8157 -0.6299
 6317SOL    HW220373   1.269   6.797   0.966  0.1172 -0.1913  0.9232
 6318SOL     OW20374   5.559   7.017   2.381  0.0608  0.3588 -0.2505
 6318SOL    HW120375   5.497   6.995   2.450 -1.0788  0.6418 -1.1583
 6318SOL    HW220376   5.617   7.082   2.421  0.0747 -0.2450  0.7476
 6319SOL     OW20377   7.107   4.204   3.277  0.4007 -0.0450  0.3210
 6319SOL    HW120378   7.024   4.156   3.280  0.4475 -0.1050  2.7719
 6319SOL    HW220379   7.095   4.268   3.207 -1.5149 -0.3980  0.2617
 6320SOL     OW20380   2.393   7.593   5.397  0.6204 -0.2196  0.6268
 6320SOL    HW120381   2.371   7.684   5.376 -1.5928 -0.8316  0.0588
 6320SOL    HW220382   2.487   7.595   5.418  0.8204  2.0263 -0.2406
 6321SOL     OW20383   5.078   5.082   1.414  0.0045  0.0608 -0.3453
 6321SOL    HW120384   5.172   5.067   1.405  0.2681  1.0009  0.6233
 6321SOL    HW220385   5.064   5.098   1.507 -1.2930 -1.1054 -0.3047
 6322SOL     OW20386   0.485   3.063   2.784  0.1417 -0.0248  0.4002
 6322SOL    HW120387   0.481   3.156   2.762 -0.5293  0.0518  0.8276
 6322SOL    HW220388   0.460   3.058   2.876  0.4987 -0.5985  0.4753
 6323SOL     OW20389   1.910   5.980   0.582 -0.3090 -0.1153  0.8217
 6323SOL    HW120390   1.992   5.974   0.632  0.3157  0.5633 -0.0891
 6323SOL    HW220391   1.889   6.073   0.582 -0.0260 -0.0256 -0.5732
 6324SOL     OW20392   8.170   9.275   4.629  0.2443 -0.3319  0.4623
 6324SOL    HW120393   8.157   9.342   4.561  0.0255 -0.1552  0.6755
 6324SOL    HW220394   8.082   9.260   4.664  0.5482  0.5974  1.6778
 6325SOL     OW20395   1.890   2.343   4.673  0.7314 -0.9653  0.0210
 6325SOL    HW120396   1.977   2.366   4.641 -0.8459  0.4808 -3.8700
 6325SOL    HW220397   1.861   2.420   4.722  0.8819 -0.5760 -0.4927
 6326SOL     OW20398   4.190   9.153   8.515  0.0060  0.4425 -0.2589
 6326SOL    HW120399   4.204   9.128   8.423  0.2352  2.5330 -0.8541
 6326SOL    HW220400   4.117   9.098   8.544 -0.2699 -0.0480 -1.7833
 6327SOL     OW20401   5.855   6.638   4.640 -0.7854  0.4419  0.1180
 6327SOL    HW120402   5.894   6.551   4.632 -2.1434 -0.0130 -3.8504
 6327SOL    HW220403   5.884   6.670   4.726  0.6349 -3.4350  1.2957
 6328SOL     OW20404   1.096   2.205   7.358  0.1807 -0.4523  0.4185
 6328SOL    HW120405   1.086   2.116   7.325 -0.9857 -0.1981  0.0580
 6328SOL    HW220406   1.028   2.215   7.424 -0.2432  0.4190 -0.1151
 6329SOL     OW20407   2.135   3.241   7.998  0.1334  0.1862  0.0961
 6329SOL    HW120408   2.196   3.177   7.961  2.2720  3.3634 -2.4455
 6329SOL    HW220409   2.072   3.258   7.928 -0.1977  1.0652  0.5897
 6330SOL     OW20410   0.051   4.836   2.408  0.4206 -0.1107  0.4051
 6330SOL    HW120411   0.058   4.831   2.503  0.7250  0.0514  0.3915
 6330SOL    HW220412  -0.042   4.855   2.392  0.6655  1.4320  0.7285
 6331SOL     OW20413   9.114   1.028   7.827 -0.3361  0.0897  0.5769
 6331SOL    HW120414   9.049   1.097   7.841  0.0665  1.1753 -2.1886
 6331SOL    HW220415   9.190   1.075   7.790  1.2551 -1.4132  1.7768
 6332SOL     OW20416   5.081   7.355   0.136  0.3642  0.2958 -0.1004
 6332SOL    HW120417   5.162   7.361   0.084  0.6495 -1.9127 -0.0338
 6332SOL    HW220418   5.096   7.280   0.193 -1.0942  0.9153  1.1400
 6333SOL     OW20419   2.775   8.516   5.042 -0.1693  0.6979  0.3173
 6333SOL    HW120420   2.733   8.505   5.128  1.0859  2.1723  1.1749
 6333SOL    HW220421   2.758   8.607   5.019 -1.4356  0.0424 -1.5809
 6334SOL     OW20422   8.863   8.645   7.691 -0.2912  0.1928  0.7014
 6334SOL    HW120423   8.804   8.680   7.625 -0.0596  1.5295  1.1854
 6334SOL    HW220424   8.819   8.566   7.723 -0.1270 -0.8366 -1.4388
 6335SOL     OW20425   2.488   1.616   2.100  0.6061 -0.3860 -0.2579
 6335SOL    HW120426   2.563   1.639   2.155 -0.7928  1.3665  1.0356
 6335SOL    HW220427   2.502   1.664   2.018  1.7206 -1.4575 -0.7306
 6336SOL     OW20428   6.183   1.654   4.483  0.2530 -0.1015  0.2982
 6336SOL    HW120429   6.135   1.721   4.435  1.3421 -1.2300 -2.6436
 6336SOL    HW220430   6.275   1.678   4.472  0.5961 -1.3851  0.2113
 6337SOL     OW20431   6.741   7.386   0.164  0.4978 -0.0217  0.3302
 6337SOL    HW120432   6.710   7.342   0.243 -0.0886  2.3982  1.5530
 6337SOL    HW220433   6.782   7.467   0.196  0.3328  0.9908 -1.8187
 6338SOL     OW20434   8.634   6.226   0.829 -0.0965 -0.1063  0.3092
 6338SOL    HW120435   8.631   6.137   0.864 -0.1004 -0.1276  0.2536
 6338SOL    HW220436   8.602   6.280   0.901  2.4997  0.1613  1.3798
 6339SOL     OW20437   2.833   4.872   2.648 -0.3271  0.1327  0.7088
 6339SOL    HW120438   2.882   4.944   2.688  0.9511  0.2041 -0.8858
 6339SOL    HW220439   2.762   4.854   2.710  1.3236  0.4439  2.7989
 6340SOL     OW20440   7.756   5.271   5.663  0.1462  0.1027  0.1735
 6340SOL    HW120441   7.746   5.298   5.755  0.7591  0.1022  0.2416
 6340SOL    HW220442   7.673   5.229   5.642  0.2834 -0.6005  0.9659
 6341SOL     OW20443   1.574   3.445   0.625 -0.0323 -0.1579  0.9933
 6341SOL    HW120444   1.542   3.417   0.540  1.9231 -0.1488  0.2068
 6341SOL    HW220445   1.516   3.516   0.651  0.3808  1.0361 -1.1585
 6342SOL     OW20446   7.059   8.356   4.374 -0.4034  0.1607 -0.0659
 6342SOL    HW120447   7.143   8.314   4.357 -0.1149  0.7391 -0.0995
 6342SOL    HW220448   7.023   8.373   4.286 -1.0419 -1.0233 -0.0509
 6343SOL     OW20449   0.997   1.225   7.836 -0.3508 -0.7884  0.0448
 6343SOL    HW120450   0.927   1.275   7.794  0.6692  1.2393  0.6030
 6343SOL    HW220451   0.960   1.200   7.921 -0.7105 -0.5467 -0.0355
 6344SOL     OW20452   6.673   2.442   7.873  0.1678 -0.1136 -0.3827
 6344SOL    HW120453   6.583   2.467   7.850 -0.2016  0.3290  1.3751
 6344SOL    HW220454   6.701   2.385   7.802 -1.5499 -0.3548 -0.9170
 6345SOL     OW20455   7.667   4.009   3.121 -0.0092  0.4488  0.1338
 6345SOL    HW120456   7.659   3.997   3.215  0.9659 -0.5319  0.1089
 6345SOL    HW220457   7.760   3.999   3.103 -0.2945 -0.3531 -1.0480
 6346SOL     OW20458   0.557   4.206   4.252  0.2063 -0.0135  0.1708
 6346SOL    HW120459   0.540   4.113   4.265 -0.0214  0.2854  2.4315
 6346SOL    HW220460   0.618   4.229   4.323  1.3304  1.2804 -1.1522
 6347SOL     OW20461   0.737   6.609   9.166 -0.5964 -0.1823  0.2195
 6347SOL    HW120462   0.668   6.672   9.146 -0.6742  0.1271  1.4028
 6347SOL    HW220463   0.702   6.525   9.136  0.0526  0.4568 -2.6444
 6348SOL     OW20464   0.167   5.470   7.609  0.2653 -0.3259  0.1012
 6348SOL    HW120465   0.241   5.494   7.664 -0.2560  2.5987 -0.3052
 6348SOL    HW220466   0.092   5.515   7.649 -0.7921 -1.0024 -1.0403
 6349SOL     OW20467   7.145   2.062   8.386  0.2921 -0.1748  0.1318
 6349SOL    HW120468   7.217   2.114   8.423 -0.1686  0.2236  0.4738
 6349SOL    HW220469   7.177   2.035   8.300  0.8081  0.0951  0.2366
 6350SOL     OW20470   5.987   6.843   5.148 -0.6774 -0.1141  0.3751
 6350SOL    HW120471   5.977   6.873   5.058  0.2198  0.4912  0.4607
 6350SOL    HW220472   6.043   6.909   5.189 -0.9808 -0.4396  1.3476
 6351SOL     OW20473   1.417   2.963   7.543 -0.0767 -0.0461 -0.3292
 6351SOL    HW120474   1.475   2.895   7.510 -1.2715 -1.8251  1.0322
 6351SOL    HW220475   1.355   2.979   7.472 -1.0772 -1.9911  0.0286
 6352SOL     OW20476   2.529   3.186   4.645  0.1086 -0.2144 -0.0109
 6352SOL    HW120477   2.606   3.152   4.691 -0.7723  0.3928  2.0128
 6352SOL    HW220478   2.493   3.111   4.598  0.5058 -1.1074  1.0781
 6353SOL     OW20479   2.011   1.730   2.978  0.1183  0.3361  0.0231
 6353SOL    HW120480   1.919   1.705   2.983 -0.1431  1.5223  1.7104
 6353SOL    HW220481   2.059   1.647   2.988 -0.7487 -0.1273  0.4011
 6354SOL     OW20482   3.107   9.255   7.585 -0.4648  0.2404  0.2074
 6354SOL    HW120483   3.055   9.310   7.644 -0.0985  0.4482  0.3410
 6354SOL    HW220484   3.084   9.166   7.611 -2.3889  0.2804 -1.1769
 6355SOL     OW20485   8.833   2.728   0.593 -0.0364  0.0499  0.2209
 6355SOL    HW120486   8.848   2.731   0.499  0.3372 -1.8783  0.1759
 6355SOL    HW220487   8.904   2.672   0.627 -0.0405  0.8761  1.6825
 6356SOL     OW20488   7.693   2.111   6.032  0.3216  0.1047 -0.1409
 6356SOL    HW120489   7.780   2.072   6.023  0.4154  0.6083 -1.6775
 6356SOL    HW220490   7.708   2.205   6.025 -0.1720  0.3154  1.2704
 6357SOL     OW20491   1.895   1.511   4.966  0.4559  0.3553  0.1803
 6357SOL    HW120492   1.802   1.498   4.985  0.0565  1.9930 -0.4926
 6357SOL    HW220493   1.901   1.511   4.871  1.2055 -0.0147  0.2148
 6358SOL     OW20494   7.753   6.890   0.426 -0.2646  0.1310 -0.1773
 6358SOL    HW120495   7.728   6.828   0.357 -1.1152  0.4540 -0.1616
 6358SOL    HW220496   7.680   6.950   0.432 -1.1331 -1.0366  2.4036
 6359SOL     OW20497   1.589   6.420   6.281  0.3022  0.6188 -0.4499
 6359SOL    HW120498   1.588   6.345   6.222 -0.4073 -0.4821  0.9080
 6359SOL    HW220499   1.630   6.387   6.361 -1.0908  1.3317  0.5987
 6360SOL     OW20500   1.293   7.016   7.207 -0.6611  0.2974  0.1535
 6360SOL    HW120501   1.329   7.105   7.200 -1.6397  0.6313 -4.8482
 6360SOL    HW220502   1.212   7.026   7.256 -1.0498  2.3434 -0.8144
 6361SOL     OW20503   0.796   3.690   3.578  0.6739  0.9620 -0.3733
 6361SOL    HW120504   0.795   3.742   3.498  3.0642  2.3430  0.4013
 6361SOL    HW220505   0.872   3.722   3.627  1.7424 -2.6149  0.5996
 6362SOL     OW20506   2.392   1.083   8.349 -0.4144  0.0427  0.3272
 6362SOL    HW120507   2.446   1.150   8.307  0.5139  0.0533  1.4637
 6362SOL    HW220508   2.330   1.056   8.282  1.0204  0.0266 -1.0412
 6363SOL     OW20509   8.799   4.558   2.221 -0.4216 -0.0706 -0.7210
 6363SOL    HW120510   8.856   4.577   2.296  0.9011 -2.2264 -1.0979
 6363SOL    HW220511   8.713   4.540   2.260 -0.5305  1.7598 -0.0178
 6364SOL     OW20512   6.168   5.978   8.626  0.4770  0.0054 -0.5553
 6364SOL    HW120513   6.151   5.887   8.652  0.0853  0.0785 -0.5489
 6364SOL    HW220514   6.212   6.016   8.701 -0.2128  0.0801 -0.1828
 6365SOL     OW20515   4.365   4.838   2.070 -1.0697  0.0799  0.1488
 6365SOL    HW120516   4.439   4.781   2.090 -0.4256  0.6430 -0.5624
 6365SOL    HW220517   4.377   4.914   2.126 -1.3161  0.0103  0.2962
 6366SOL     OW20518   0.197   3.585   8.722  0.1968 -0.1772 -0.0502
 6366SOL    HW120519   0.201   3.652   8.654 -0.0924  0.6236  0.6916
 6366SOL    HW220520   0.264   3.610   8.785 -0.5631 -0.0158  0.7187
 6367SOL     OW20521   3.124   6.474   5.970  0.0803  0.3364 -0.0261
 6367SOL    HW120522   3.169   6.404   6.017 -0.0810 -0.2764 -0.7766
 6367SOL    HW220523   3.192   6.519   5.921 -0.1412 -0.8024 -1.4303
 6368SOL     OW20524   2.853   6.440   3.975  0.0840 -0.1017 -0.2535
 6368SOL    HW120525   2.864   6.452   3.880  1.0614  0.7203 -0.0559
 6368SOL    HW220526   2.833   6.347   3.984 -1.9619  0.1772 -1.3983
 6369SOL     OW20527   5.475   1.564   8.465  0.2064  0.1847  0.6596
 6369SOL    HW120528   5.436   1.646   8.437 -0.4996 -0.6873 -1.0633
 6369SOL    HW220529   5.439   1.548   8.552 -1.2851  0.6928  0.1678
 6370SOL     OW20530   8.432   4.146   7.199 -0.2667 -0.8596 -0.0194
 6370SOL    HW120531   8.427   4.152   7.294 -2.0564  0.4791 -0.1588
 6370SOL    HW220532   8.418   4.053   7.180 -1.1138 -0.9402  0.9584
 6371SOL     OW20533   2.513   5.565   7.792 -0.1621  0.5384  0.3644
 6371SOL    HW120534   2.430   5.559   7.840 -0.2776 -0.3101  0.0818
 6371SOL    HW220535   2.500   5.635   7.728 -0.6389  0.4585  0.3731
 6372SOL     OW20536   5.916   1.509   1.519 -0.0691  0.2079  0.0619
 6372SOL    HW120537   5.866   1.428   1.509 -0.7281  0.5291  0.7237
 6372SOL    HW220538   5.921   1.545   1.431 -0.0115 -0.3999 -0.1936
 6373SOL     OW20539   7.799   0.877   7.870  0.4660 -0.5722  0.3492
 6373SOL    HW120540   7.847   0.959   7.867 -0.1229 -0.2223  0.2754
 6373SOL    HW220541   7.713   0.901   7.903 -0.3123 -0.8543 -1.3321
 6374SOL     OW20542   0.978   8.646   4.885  0.0825  0.0457  0.7948
 6374SOL    HW120543   0.974   8.697   4.965  0.2723 -0.7281  1.3054
 6374SOL    HW220544   0.887   8.638   4.856 -0.0372 -0.1428  1.2300
 6375SOL     OW20545   2.947   7.851   8.111  0.2049  0.3525 -0.5238
 6375SOL    HW120546   3.020   7.875   8.055 -0.2035  0.0541 -1.1966
 6375SOL    HW220547   2.986   7.842   8.198  0.5390  2.4544 -0.4188
 6376SOL     OW20548   2.700   6.688   5.019  0.0854  0.0733  0.1068
 6376SOL    HW120549   2.623   6.632   5.022 -1.3129  1.7327 -1.6561
 6376SOL    HW220550   2.754   6.659   5.093 -2.4913 -0.7770  1.8232
 6377SOL     OW20551   5.817   7.467   5.320 -0.1023  0.6738  0.0267
 6377SOL    HW120552   5.884   7.410   5.283  1.6157  2.2969  0.4669
 6377SOL    HW220553   5.751   7.476   5.251  0.0211 -1.0757 -0.3648
 6378SOL     OW20554   2.746   2.817   5.625  0.3740 -0.6364 -0.2798
 6378SOL    HW120555   2.671   2.857   5.669  1.8913  0.0955  1.8009
 6378SOL    HW220556   2.815   2.883   5.630  1.5048 -1.6953 -1.1615
 6379SOL     OW20557   3.882   2.342   7.274  0.2933  0.2469  0.0459
 6379SOL    HW120558   3.806   2.329   7.217  0.8984  0.6915 -0.8730
 6379SOL    HW220559   3.865   2.427   7.316 -0.3013 -0.2229  0.7806
 6380SOL     OW20560   5.305   0.645   5.088  0.2249  0.1574  0.5066
 6380SOL    HW120561   5.300   0.662   4.994  0.4271 -1.4559  0.1784
 6380SOL    HW220562   5.394   0.672   5.113  0.4935 -0.3031  0.0462
 6381SOL     OW20563   5.021   1.497   2.826 -0.1095  0.4007 -0.5893
 6381SOL    HW120564   5.012   1.462   2.737  0.7116  1.3025 -1.0455
 6381SOL    HW220565   5.007   1.592   2.816  0.6079  0.5906  0.1394
 6382SOL     OW20566   2.245   8.920   5.993 -0.0960  0.8765  0.3981
 6382SOL    HW120567   2.199   8.917   6.077  0.6144  1.9318  0.8523
 6382SOL    HW220568   2.208   8.848   5.942 -1.5381  1.0957  1.0953
 6383SOL     OW20569   1.391   8.588   3.371  0.1417 -0.3511  0.9822
 6383SOL    HW120570   1.348   8.669   3.345  1.3527 -0.0696 -0.2585
 6383SOL    HW220571   1.355   8.521   3.312  3.1996  0.3637 -2.0051
 6384SOL     OW20572   1.929   4.727   7.005  0.0861  0.0089 -0.0105
 6384SOL    HW120573   1.926   4.712   7.100 -0.1919  0.8360  0.1244
 6384SOL    HW220574   2.022   4.734   6.984  0.1280  0.8518  0.3899
 6385SOL     OW20575   1.642   3.239   7.941 -0.8024  0.0141 -0.3688
 6385SOL    HW120576   1.588   3.264   7.865 -2.7721 -0.5607  0.7748
 6385SOL    HW220577   1.630   3.144   7.949  0.0948 -0.0636  0.1390
 6386SOL     OW20578   7.239   9.205   1.286 -0.0362 -0.5284  0.1383
 6386SOL    HW120579   7.312   9.150   1.259 -0.5937 -1.0534 -0.3389
 6386SOL    HW220580   7.206   9.164   1.366 -0.0603 -0.5255  0.1303
 6387SOL     OW20581   4.174   6.675   6.575  0.5850  0.1891  0.0528
 6387SOL    HW120582   4.104   6.680   6.510 -1.2463  1.7785  2.0101
 6387SOL    HW220583   4.182   6.764   6.608  1.4125 -0.5742  2.0423
 6388SOL     OW20584   7.236   0.633   8.170 -0.6958  0.1069  0.6909
 6388SOL    HW120585   7.320   0.595   8.144 -1.2108 -0.9649  0.5130
 6388SOL    HW220586   7.173   0.563   8.155 -1.4853  0.5615  1.7561
 6389SOL     OW20587   2.885   3.331   0.910  0.2149  0.4646 -0.2482
 6389SOL    HW120588   2.900   3.316   0.816  2.3311 -1.0732  0.2602
 6389SOL    HW220589   2.829   3.258   0.937  0.2641  0.4579 -0.1640
 6390SOL     OW20590   4.451   6.033   6.420 -0.6764 -0.0618  0.7425
 6390SOL    HW120591   4.390   5.960   6.422  0.2960 -0.8952  0.9368
 6390SOL    HW220592   4.514   6.014   6.490  1.6765 -0.9261 -1.4460
 6391SOL     OW20593   7.033   5.432   7.699 -0.2778  0.3136  0.0906
 6391SOL    HW120594   7.103   5.489   7.665  1.9008 -1.1991  1.7137
 6391SOL    HW220595   7.039   5.441   7.794 -1.0380 -1.2481  0.3141
 6392SOL     OW20596   0.343   5.616   0.861  0.1274  0.3760  0.3089
 6392SOL    HW120597   0.304   5.666   0.932 -1.4251 -1.4226  0.8162
 6392SOL    HW220598   0.430   5.655   0.849 -0.6175  2.4913  1.2955
 6393SOL     OW20599   1.851   8.100   0.951 -0.8198 -0.1786 -0.4487
 6393SOL    HW120600   1.868   8.162   1.022 -0.4575 -0.8898  0.1040
 6393SOL    HW220601   1.899   8.021   0.977 -1.8380 -0.9240 -0.7841
 6394SOL     OW20602   7.425   7.899   3.628 -0.2999  0.2406  0.1484
 6394SOL    HW120603   7.506   7.944   3.653 -0.3846  0.1247  0.6400
 6394SOL    HW220604   7.440   7.871   3.538  0.3922 -0.1789  0.3822
 6395SOL     OW20605   1.685   7.099   7.824 -0.2229  0.0035 -0.2604
 6395SOL    HW120606   1.609   7.154   7.840  0.2893  1.0339 -1.2342
 6395SOL    HW220607   1.722   7.084   7.911 -1.4392 -0.3830  0.2011
 6396SOL     OW20608   1.252   7.315   5.146 -0.1334 -0.3797 -0.1953
 6396SOL    HW120609   1.300   7.355   5.218  1.5505  0.5090 -1.7426
 6396SOL    HW220610   1.303   7.237   5.123 -0.7719 -0.7744 -0.3221
 6397SOL     OW20611   5.889   6.035   3.539  0.3808 -0.0545  0.0703
 6397SOL    HW120612   5.969   6.056   3.587  0.2168  1.5801 -0.3161
 6397SOL    HW220613   5.819   6.044   3.604  0.3749 -0.1029  0.0707
 6398SOL     OW20614   1.731   2.201   6.516 -0.0157 -0.1360  0.2945
 6398SOL    HW120615   1.814   2.155   6.529  0.7349  0.2490 -2.5080
 6398SOL    HW220616   1.679   2.142   6.460 -1.0056  0.3327  0.6866
 6399SOL     OW20617   1.945   4.233   1.091 -0.6226 -0.1126 -0.0722
 6399SOL    HW120618   2.037   4.214   1.109  0.3370  3.4411 -0.5514
 6399SOL    HW220619   1.906   4.147   1.077  2.9874 -1.7196 -1.6590
 6400SOL     OW20620   4.990   3.294   8.413  0.5482  0.6408  0.8294
 6400SOL    HW120621   4.960   3.247   8.490 -0.6727 -1.6251 -0.9262
 6400SOL    HW220622   5.016   3.226   8.351 -0.7356  2.2424 -1.6491
 6401SOL     OW20623   5.983   8.598   2.384  0.4008  0.0022  0.5380
 6401SOL    HW120624   5.982   8.516   2.434  0.8978  0.3667  1.1508
 6401SOL    HW220625   5.950   8.664   2.444 -1.9164 -0.0552 -0.5690
 6402SOL     OW20626   6.800   5.037   6.218 -0.2790 -0.0639  0.3443
 6402SOL    HW120627   6.744   5.115   6.222 -0.4284 -0.1615  0.1907
 6402SOL    HW220628   6.761   4.977   6.281 -0.3966 -0.1630  0.1780
 6403SOL     OW20629   0.822   8.911   7.407 -0.5620  0.2326  0.5336
 6403SOL    HW120630   0.879   8.987   7.394  0.3782 -0.1044  2.2828
 6403SOL    HW220631   0.775   8.931   7.488 -1.2304 -0.5081  0.3416
 6404SOL     OW20632   1.511   1.397   3.784 -0.5333  0.3004  0.1985
 6404SOL    HW120633   1.522   1.383   3.690  0.6587  1.7185  0.0963
 6404SOL    HW220634   1.444   1.465   3.790 -1.4384 -0.5737  0.4569
 6405SOL     OW20635   6.175   8.509   6.268 -0.1591  0.0051 -0.3236
 6405SOL    HW120636   6.207   8.449   6.201 -0.7741 -0.5648 -0.1208
 6405SOL    HW220637   6.089   8.474   6.293 -0.7521  1.2461 -0.5481
 6406SOL     OW20638   8.493   5.121   4.374 -0.2723 -0.1804 -0.0071
 6406SOL    HW120639   8.432   5.109   4.302 -0.2061 -2.1946  0.2091
 6406SOL    HW220640   8.571   5.159   4.334 -0.8907  0.4612 -0.6364
 6407SOL     OW20641   8.638   2.096   3.654  0.4375 -0.1806 -0.1953
 6407SOL    HW120642   8.646   2.034   3.582 -0.5892 -1.0473  0.4168
 6407SOL    HW220643   8.585   2.051   3.720  0.1585  1.1198  0.5162
 6408SOL     OW20644   0.536   5.799   1.240 -0.2134 -0.4111  0.3568
 6408SOL    HW120645   0.504   5.836   1.322  0.3695 -1.3094  1.0192
 6408SOL    HW220646   0.625   5.833   1.231 -0.2352 -0.4058  0.1569
 6409SOL     OW20647   2.586   3.533   5.772 -0.4811 -0.1227  0.3436
 6409SOL    HW120648   2.569   3.626   5.787 -1.7500 -0.2541 -0.1430
 6409SOL    HW220649   2.598   3.526   5.677  2.8717  0.0008  0.6171
 6410SOL     OW20650   7.891   3.813   4.753 -0.1629  1.0731 -0.0331
 6410SOL    HW120651   7.809   3.773   4.784  0.9757 -2.3247 -1.0692
 6410SOL    HW220652   7.959   3.775   4.809  1.1300  0.4617 -1.9356
 6411SOL     OW20653   1.033   0.127   0.340 -0.0576 -0.3641  0.0179
 6411SOL    HW120654   1.029   0.219   0.366  0.0520  0.0019 -1.1977
 6411SOL    HW220655   1.127   0.107   0.335 -0.0817 -0.6821  0.7210
 6412SOL     OW20656   4.686   7.958   1.723  0.4402  0.1018 -0.1785
 6412SOL    HW120657   4.775   7.992   1.715  0.0342  0.9962 -1.1192
 6412SOL    HW220658   4.663   7.972   1.815  0.8616  0.9223 -0.1879
 6413SOL     OW20659   6.806   4.914   3.308  0.0388  0.6217  0.3285
 6413SOL    HW120660   6.847   4.866   3.236  1.4205  1.1780  0.7130
 6413SOL    HW220661   6.713   4.914   3.286 -0.1147 -2.5171  0.5052
 6414SOL     OW20662   0.763   4.573   1.440  0.2995 -0.2831 -0.1747
 6414SOL    HW120663   0.688   4.546   1.387  0.0890  0.7377 -0.4176
 6414SOL    HW220664   0.824   4.611   1.378  0.6385 -0.2999  0.1445
 6415SOL     OW20665   6.407   7.014   3.924 -0.0619 -0.1083  0.0005
 6415SOL    HW120666   6.349   7.087   3.943  1.7114  1.1908  0.7499
 6415SOL    HW220667   6.392   6.951   3.994 -1.4495 -0.4090 -0.5323
 6416SOL     OW20668   3.974   3.131   8.223  0.3662  0.3568 -0.4141
 6416SOL    HW120669   4.052   3.145   8.170 -0.5648  0.7826 -1.7217
 6416SOL    HW220670   4.006   3.132   8.313  1.9713 -0.2548 -0.9414
 6417SOL     OW20671   4.905   9.043   8.131  0.4893 -0.5080  0.3146
 6417SOL    HW120672   4.929   9.069   8.220 -1.8051  0.4286  0.7146
 6417SOL    HW220673   4.843   8.970   8.143 -2.4792  1.7293 -0.2520
 6418SOL     OW20674   8.293   7.692   2.826  0.0814 -0.2941  0.3761
 6418SOL    HW120675   8.345   7.659   2.753 -0.1375  1.1765 -0.4939
 6418SOL    HW220676   8.269   7.781   2.800 -2.0087 -0.5550  1.1838
 6419SOL     OW20677   7.170   2.091   3.341  0.8431 -0.1596  0.4040
 6419SOL    HW120678   7.178   2.019   3.279  1.0243  0.8102 -0.7220
 6419SOL    HW220679   7.121   2.158   3.295  1.4747  0.8093  1.0949
 6420SOL     OW20680   5.612   4.657   5.990 -0.3157 -0.6161  0.1590
 6420SOL    HW120681   5.607   4.580   6.048  1.1613 -0.2940  0.7509
 6420SOL    HW220682   5.681   4.635   5.928  0.0651  0.1940  0.2857
 6421SOL     OW20683   5.155   4.850   6.026 -0.1060 -0.6209 -0.7823
 6421SOL    HW120684   5.158   4.895   5.942 -0.5745  2.1446  0.5775
 6421SOL    HW220685   5.247   4.839   6.051  0.0227  0.3288 -0.7998
 6422SOL     OW20686   3.187   4.054   3.940  0.6078 -0.5425 -0.0192
 6422SOL    HW120687   3.122   3.994   3.904  2.4849 -1.6974 -1.7129
 6422SOL    HW220688   3.211   4.111   3.868  0.9952  0.3009  0.7556
 6423SOL     OW20689   6.450   5.043   5.129 -0.3815 -0.0056  0.7912
 6423SOL    HW120690   6.384   5.049   5.198  0.7737  1.4449  1.8401
 6423SOL    HW220691   6.531   5.068   5.172  0.9839 -2.1212 -0.3550
 6424SOL     OW20692   0.564   6.812   1.949  0.0221  0.0034 -0.1203
 6424SOL    HW120693   0.599   6.805   2.038  0.4575 -0.9162 -0.3518
 6424SOL    HW220694   0.603   6.892   1.914 -1.0844  1.0189  0.9111
 6425SOL     OW20695   8.056   3.078   6.321  0.0527 -0.4055 -0.6925
 6425SOL    HW120696   7.970   3.078   6.280  0.2639 -0.1298 -1.1502
 6425SOL    HW220697   8.098   3.157   6.288 -1.1650  2.0832  3.0892
 6426SOL     OW20698   5.362   2.251   1.046 -0.1866  0.4003 -0.2441
 6426SOL    HW120699   5.422   2.184   1.013  0.3655  0.1050  1.2837
 6426SOL    HW220700   5.380   2.328   0.991  1.0256  0.0714 -0.3350
 6427SOL     OW20701   3.403   3.477   2.514  0.2040 -0.3154  0.4961
 6427SOL    HW120702   3.498   3.483   2.522  0.1520 -0.5516  1.3521
 6427SOL    HW220703   3.370   3.560   2.550  0.0776 -0.2757  0.2937
 6428SOL     OW20704   0.868   0.277   6.756 -0.2070  0.2269 -0.2598
 6428SOL    HW120705   0.824   0.213   6.700 -0.9058  0.4710  0.0090
 6428SOL    HW220706   0.833   0.362   6.730 -3.0392  0.1500  2.6601
 6429SOL     OW20707   5.674   8.430   2.723 -1.0036  0.4797  0.5385
 6429SOL    HW120708   5.742   8.408   2.787 -0.9403 -0.7816  0.0568
 6429SOL    HW220709   5.596   8.382   2.753 -0.5958 -1.3069 -1.0775
 6430SOL     OW20710   2.147   2.324   7.204 -0.0939  0.2175  0.3542
 6430SOL    HW120711   2.085   2.252   7.188 -0.1508 -0.0344  1.5990
 6430SOL    HW220712   2.091   2.400   7.221 -0.1785 -0.2730  2.7428
 6431SOL     OW20713   7.857   7.343   7.065 -0.2528 -0.0277  0.0616
 6431SOL    HW120714   7.868   7.421   7.119 -1.3622 -0.1770  0.5340
 6431SOL    HW220715   7.770   7.353   7.026 -0.3575 -0.9581  0.0290
 6432SOL     OW20716   8.860   8.316   7.280  0.1786 -0.0087  0.8740
 6432SOL    HW120717   8.857   8.312   7.184 -0.9494 -1.0291  0.9333
 6432SOL    HW220718   8.946   8.353   7.299 -0.0724  1.4479 -0.5547
 6433SOL     OW20719   8.369   1.969   5.190  0.5854  0.2193  0.8723
 6433SOL    HW120720   8.297   2.029   5.208  1.2334  0.9925  0.9403
 6433SOL    HW220721   8.327   1.885   5.172 -0.2657  0.3544  2.1336
 6434SOL     OW20722   3.826   1.255   2.771  0.4430  0.3745 -0.3429
 6434SOL    HW120723   3.757   1.243   2.836  0.2009 -0.6181 -0.7742
 6434SOL    HW220724   3.783   1.302   2.699  0.6259  1.1698  0.0572
 6435SOL     OW20725   2.210   7.692   2.871 -0.4576 -0.1281 -0.1179
 6435SOL    HW120726   2.247   7.622   2.925  0.4267 -0.1773 -0.7742
 6435SOL    HW220727   2.133   7.721   2.920  0.5213  0.0883  1.3829
 6436SOL     OW20728   1.827   2.621   4.196  0.1448  0.1030 -0.4009
 6436SOL    HW120729   1.838   2.526   4.201 -1.2661 -0.0486  0.1790
 6436SOL    HW220730   1.788   2.646   4.279 -1.0608  0.9488 -1.1839
 6437SOL     OW20731   2.732   0.811   1.534  0.1869  0.2722  0.1078
 6437SOL    HW120732   2.743   0.826   1.440  0.7365 -1.0764 -0.0596
 6437SOL    HW220733   2.791   0.874   1.575 -0.1462  0.9530 -0.4418
 6438SOL     OW20734   2.460   5.180   6.600 -0.2148 -0.2638 -0.3911
 6438SOL    HW120735   2.371   5.183   6.635 -0.2977 -1.6683 -0.4239
 6438SOL    HW220736   2.504   5.256   6.639 -1.0737 -0.2636  0.6116
 6439SOL     OW20737   6.605   3.031   1.604 -0.2430 -0.2937  0.1295
 6439SOL    HW120738   6.600   3.070   1.516  0.9290 -0.1559  0.1042
 6439SOL    HW220739   6.566   2.944   1.594 -0.3580 -0.1793 -0.4648
 6440SOL     OW20740   2.009   8.542   6.106 -0.0109  0.3492 -0.2189
 6440SOL    HW120741   2.051   8.508   6.027 -0.5253 -2.1993  0.5260
 6440SOL    HW220742   1.917   8.555   6.081  0.2074  1.3785 -0.5339
 6441SOL     OW20743   1.294   4.651   4.515 -0.6125 -0.7650  0.3495
 6441SOL    HW120744   1.214   4.699   4.535 -1.6911 -2.3883  0.0841
 6441SOL    HW220745   1.325   4.619   4.600 -0.0236  0.1531  0.4966
 6442SOL     OW20746   6.515   4.496   2.973  0.1674  0.5200  0.4245
 6442SOL    HW120747   6.434   4.547   2.978  0.2711  1.0254 -1.9788
 6442SOL    HW220748   6.485   4.405   2.971 -0.5150  0.7267 -1.7997
 6443SOL     OW20749   1.056   7.597   5.636  0.3627  0.1312  0.3778
 6443SOL    HW120750   0.996   7.529   5.606 -0.1258 -0.6339  2.8198
 6443SOL    HW220751   1.006   7.647   5.701  1.3129  1.6585 -0.0062
 6444SOL     OW20752   5.740   3.334   6.766 -0.2727  0.4963 -0.2498
 6444SOL    HW120753   5.814   3.312   6.710  0.4552  3.4557 -0.6047
 6444SOL    HW220754   5.776   3.333   6.855 -1.2034 -3.2477  0.2739
 6445SOL     OW20755   6.483   8.505   2.982  0.3197 -0.0584 -0.0117
 6445SOL    HW120756   6.497   8.458   3.064  0.8522  0.2686  0.0855
 6445SOL    HW220757   6.556   8.479   2.927 -0.7789 -1.3931 -0.9146
 6446SOL     OW20758   6.316   7.600   3.182  0.2933  0.0629  0.7192
 6446SOL    HW120759   6.367   7.577   3.105  0.7134  1.5352  0.5218
 6446SOL    HW220760   6.227   7.613   3.149  0.3695  0.1946  0.5624
 6447SOL     OW20761   7.700   0.236   8.304  0.0442 -0.4330  0.2391
 6447SOL    HW120762   7.739   0.313   8.262  2.9487 -2.8743 -2.0808
 6447SOL    HW220763   7.761   0.215   8.375 -1.5966  0.1900  1.9139
 6448SOL     OW20764   6.177   5.925   7.791  0.3942 -0.7946  0.0787
 6448SOL    HW120765   6.208   5.859   7.854  2.2776  0.7009  0.8019
 6448SOL    HW220766   6.194   6.009   7.834  0.8340  0.2594 -2.0453
 6449SOL     OW20767   2.055   5.148   0.202 -0.0574  0.1229 -0.1976
 6449SOL    HW120768   2.075   5.055   0.190 -1.3399 -0.4374  1.5997
 6449SOL    HW220769   1.997   5.170   0.129  0.9736 -0.2207 -1.1452
 6450SOL     OW20770   5.021   2.152   1.451 -0.0665  0.2613 -0.2122
 6450SOL    HW120771   5.088   2.161   1.520  0.2272 -0.5485 -0.3853
 6450SOL    HW220772   5.048   2.215   1.384  0.8997 -0.5217 -0.5776
 6451SOL     OW20773   5.731   8.483   5.266 -0.0149  0.1464 -0.2826
 6451SOL    HW120774   5.675   8.418   5.308 -0.5531  0.1759 -0.9422
 6451SOL    HW220775   5.680   8.515   5.193  2.0096 -2.1846 -2.9752
 6452SOL     OW20776   3.846   4.021   0.610  0.0836 -0.3425 -0.3753
 6452SOL    HW120777   3.890   3.949   0.656  2.3221  1.1802  0.0077
 6452SOL    HW220778   3.815   4.078   0.680 -0.1248 -0.0618 -0.6974
 6453SOL     OW20779   7.580   1.386   7.403 -0.9751 -0.3605  0.1914
 6453SOL    HW120780   7.660   1.377   7.352 -1.1222 -0.6783  0.0141
 6453SOL    HW220781   7.535   1.302   7.392 -0.9841 -0.4522  0.8842
 6454SOL     OW20782   3.465   8.351   4.241  0.4052 -0.0427  0.4651
 6454SOL    HW120783   3.419   8.377   4.321 -2.2156 -0.5029 -0.8046
 6454SOL    HW220784   3.484   8.433   4.196 -1.2655  0.0994 -0.0456
 6455SOL     OW20785   0.326   6.098   0.897 -0.6188  0.6890 -0.1026
 6455SOL    HW120786   0.234   6.119   0.882 -1.0207 -1.0082 -0.2263
 6455SOL    HW220787   0.372   6.139   0.824 -1.2107  1.8923  0.1710
 6456SOL     OW20788   2.244   4.697   2.239 -0.4613  0.5163 -0.2989
 6456SOL    HW120789   2.238   4.614   2.287 -0.2504  0.2278 -0.7579
 6456SOL    HW220790   2.255   4.763   2.306 -0.1920  0.1198  0.0525
 6457SOL     OW20791   9.000   2.611   1.262  0.5478 -0.6323 -0.1753
 6457SOL    HW120792   9.066   2.645   1.322  2.9822 -0.3358 -2.8497
 6457SOL    HW220793   8.959   2.538   1.310  0.5640  1.0934  2.7210
 6458SOL     OW20794   7.212   7.522   2.015  0.3360  0.7010 -0.6999
 6458SOL    HW120795   7.135   7.523   1.958 -1.2220  1.8161  1.2943
 6458SOL    HW220796   7.215   7.433   2.051 -0.7860  0.9615  0.1095
 6459SOL     OW20797   2.729   2.618   8.978 -0.1846  0.5356 -0.1405
 6459SOL    HW120798   2.785   2.554   9.022  1.6153  2.1354  0.0281
 6459SOL    HW220799   2.647   2.571   8.962  2.0585 -2.9667 -3.0065
 6460SOL     OW20800   0.025   5.303   5.964  0.1101  0.3890 -0.1889
 6460SOL    HW120801  -0.053   5.351   5.935  0.6949  0.5821 -1.4952
 6460SOL    HW220802  -0.009   5.221   5.999 -0.6004 -0.5656 -2.8459
 6461SOL     OW20803   5.101   2.350   7.630  0.0911 -0.2252  0.3280
 6461SOL    HW120804   5.133   2.369   7.541  0.1003  0.8981  0.5579
 6461SOL    HW220805   5.050   2.270   7.620 -0.8740  0.5047 -0.9142
 6462SOL     OW20806   8.352   1.630   1.092  0.0367  0.6598  0.1870
 6462SOL    HW120807   8.421   1.567   1.115  0.5738  1.1178 -0.1372
 6462SOL    HW220808   8.306   1.646   1.175  1.6818  1.9754  0.9195
 6463SOL     OW20809   3.127   2.250   7.686 -0.0371 -0.5633 -0.1391
 6463SOL    HW120810   3.207   2.300   7.701 -1.8690  2.6816 -0.2131
 6463SOL    HW220811   3.146   2.163   7.720  2.8034  0.6677  1.7812
 6464SOL     OW20812   8.094   4.847   3.923 -0.5166  0.3082  0.4682
 6464SOL    HW120813   8.071   4.927   3.971  1.9113  1.2142  0.2268
 6464SOL    HW220814   8.103   4.780   3.991 -2.2458  0.2551  0.7021
 6465SOL     OW20815   2.620   0.365   7.163  0.2449  0.1971  0.2512
 6465SOL    HW120816   2.552   0.392   7.100  0.6583  1.8833  0.4750
 6465SOL    HW220817   2.633   0.442   7.218  1.2310 -0.6341  1.2197
 6466SOL     OW20818   5.665   8.163   7.085  0.4007  0.1596 -0.0875
 6466SOL    HW120819   5.757   8.190   7.078  0.1871  0.9732  0.0829
 6466SOL    HW220820   5.640   8.188   7.174 -0.6508  2.1902 -0.8790
 6467SOL     OW20821   7.495   1.364   6.141 -0.3493  0.3366 -0.1035
 6467SOL    HW120822   7.515   1.328   6.228  0.2917  2.1374  0.5445
 6467SOL    HW220823   7.514   1.457   6.149 -1.5583  0.7765 -1.8196
 6468SOL     OW20824   1.363   7.794   8.237  0.1450 -0.0245 -0.2752
 6468SOL    HW120825   1.319   7.865   8.283  0.2459  0.7128 -1.2690
 6468SOL    HW220826   1.426   7.838   8.180 -1.2788 -0.7156 -2.5538
 6469SOL     OW20827   2.150   3.525   4.933 -0.4916 -0.1729  0.1176
 6469SOL    HW120828   2.104   3.495   5.011  0.4335 -0.7208  0.4601
 6469SOL    HW220829   2.173   3.616   4.952 -1.5907  0.1748 -0.1420
 6470SOL     OW20830   7.473   7.029   0.105  0.0309 -0.1987 -0.2105
 6470SOL    HW120831   7.509   7.117   0.113 -0.0823 -0.0668 -1.0467
 6470SOL    HW220832   7.424   7.031   0.022 -1.9283 -0.3612  0.8845
 6471SOL     OW20833   1.601   0.022   7.408 -0.1542 -0.1951 -0.1845
 6471SOL    HW120834   1.563  -0.064   7.393 -0.9333  0.1026  0.0395
 6471SOL    HW220835   1.650   0.013   7.490 -0.5125 -0.3314  0.0126
 6472SOL     OW20836   1.028   1.404   6.939 -0.5178  0.4693 -0.3704
 6472SOL    HW120837   1.097   1.417   6.873  0.5459  0.5138  0.7147
 6472SOL    HW220838   1.018   1.309   6.945 -0.9544  0.4771 -0.9250
 6473SOL     OW20839   4.131   0.733   1.104  0.2660  0.7399  0.3948
 6473SOL    HW120840   4.188   0.668   1.063  0.4681  1.5154 -0.5826
 6473SOL    HW220841   4.113   0.797   1.035 -2.5220  0.0697  0.3653
 6474SOL     OW20842   7.101   1.996   0.518 -0.7689 -0.1929 -0.5158
 6474SOL    HW120843   7.120   2.025   0.429  1.1277  1.2964  0.3201
 6474SOL    HW220844   7.168   1.931   0.536 -0.7144  0.0320  0.0843
 6475SOL     OW20845   1.431   7.660   6.334  0.6260 -0.3240  0.1023
 6475SOL    HW120846   1.459   7.579   6.292  0.2112  0.1650 -1.1545
 6475SOL    HW220847   1.503   7.683   6.393  1.5853 -0.5985 -0.9382
 6476SOL     OW20848   8.614   4.891   6.026 -0.9066  0.0060  0.4376
 6476SOL    HW120849   8.593   4.865   6.115 -3.6332  1.2659  0.2700
 6476SOL    HW220850   8.661   4.974   6.035 -1.3600  0.2350  0.7172
 6477SOL     OW20851   3.255   8.113   2.827 -0.1606  0.2390  0.5348
 6477SOL    HW120852   3.311   8.069   2.763 -0.8439  0.7943 -0.4637
 6477SOL    HW220853   3.172   8.067   2.822 -0.7873  1.4110 -0.2977
 6478SOL     OW20854   8.953   5.290   8.439  0.4321  0.1208  0.4220
 6478SOL    HW120855   9.016   5.300   8.368 -0.1994  0.7269 -0.0649
 6478SOL    HW220856   8.912   5.205   8.424  2.4589 -1.1912  1.8435
 6479SOL     OW20857   9.209   0.703   6.011  0.3786 -0.2207  0.1008
 6479SOL    HW120858   9.159   0.778   6.043  1.1688  0.8262 -1.0687
 6479SOL    HW220859   9.144   0.648   5.967 -0.2024 -0.2529  0.9597
 6480SOL     OW20860   5.698   7.112   8.294 -0.3727  0.6722  0.4963
 6480SOL    HW120861   5.645   7.103   8.214  0.4654 -1.5810  0.1260
 6480SOL    HW220862   5.634   7.128   8.363 -1.4088 -0.3575 -0.1817
 6481SOL     OW20863   3.924   4.616   7.951 -0.5046 -0.3764 -0.1254
 6481SOL    HW120864   3.900   4.640   7.861 -0.6058  0.4167  0.1059
 6481SOL    HW220865   3.962   4.696   7.987  1.8182 -1.3723 -0.2336
 6482SOL     OW20866   7.122   4.763   1.876 -0.2230  0.3984 -0.1696
 6482SOL    HW120867   7.071   4.689   1.908 -1.6158  0.2566 -2.4434
 6482SOL    HW220868   7.197   4.724   1.832  0.9890  0.5407  1.6822
 6483SOL     OW20869   6.833   5.753   5.381 -0.3554  0.5340 -0.4958
 6483SOL    HW120870   6.770   5.752   5.309  0.9439  1.0039 -1.6675
 6483SOL    HW220871   6.918   5.764   5.339  0.7059 -1.6445  0.9356
 6484SOL     OW20872   0.376   5.904   2.290  0.0041  0.2606  0.5993
 6484SOL    HW120873   0.411   5.901   2.379  0.0936 -3.1407  0.5548
 6484SOL    HW220874   0.454   5.914   2.235  0.2409 -0.5366  0.7830
 6485SOL     OW20875   0.360   0.620   2.176 -0.5817  0.2165  0.5599
 6485SOL    HW120876   0.306   0.544   2.156 -1.0037  1.2270 -2.6495
 6485SOL    HW220877   0.297   0.689   2.198 -0.3161  0.2782  1.1649
 6486SOL     OW20878   4.009   5.732   0.219 -0.0505 -0.5530 -0.2639
 6486SOL    HW120879   3.973   5.820   0.204  2.2426  0.3935 -0.7265
 6486SOL    HW220880   4.051   5.739   0.305  3.8491  0.2811 -2.0170
 6487SOL     OW20881   6.151   3.239   5.126  1.1021  0.2119  0.1458
 6487SOL    HW120882   6.092   3.193   5.186 -1.1950 -0.2670 -2.2908
 6487SOL    HW220883   6.180   3.316   5.175 -1.3457  0.3179  1.5854
 6488SOL     OW20884   0.279   6.944   4.181  0.6522  0.0555 -0.1111
 6488SOL    HW120885   0.269   6.956   4.275  0.7947  1.3918 -0.2449
 6488SOL    HW220886   0.286   7.033   4.146  0.6840 -0.4212 -1.3754
 6489SOL     OW20887   8.315   2.050   6.548 -0.6452  0.1455  0.0179
 6489SOL    HW120888   8.226   2.018   6.561 -0.6312  0.4673  0.9818
 6489SOL    HW220889   8.370   1.986   6.593 -0.1476 -1.3837 -2.5706
 6490SOL     OW20890   6.171   4.520   5.417 -0.1224 -0.6824 -0.5949
 6490SOL    HW120891   6.204   4.609   5.401  0.1769 -0.6526  0.1235
 6490SOL    HW220892   6.220   4.465   5.357  2.8141 -0.9300  1.7892
 6491SOL     OW20893   0.922   3.437   4.329 -0.4022  0.5823  0.3832
 6491SOL    HW120894   0.910   3.348   4.294  1.6866  0.3744  0.0486
 6491SOL    HW220895   0.846   3.451   4.385 -0.0258 -2.0505  1.7117
 6492SOL     OW20896   6.564   5.738   8.815 -0.1695 -0.1429 -0.1259
 6492SOL    HW120897   6.497   5.763   8.879 -0.1918 -0.4886 -0.0114
 6492SOL    HW220898   6.565   5.810   8.752 -0.0188  0.2953  0.3618
 6493SOL     OW20899   6.787   2.345   8.120 -0.2394  0.3292 -0.4256
 6493SOL    HW120900   6.773   2.395   8.040 -0.6370  3.7347  1.5687
 6493SOL    HW220901   6.882   2.343   8.131 -0.2231  1.9018  0.0733
 6494SOL     OW20902   5.856   3.049   2.716  0.4750 -0.2347 -0.2407
 6494SOL    HW120903   5.926   2.993   2.681  0.9181  0.8866 -1.2152
 6494SOL    HW220904   5.831   3.105   2.642 -0.6673  0.1626  0.4230
 6495SOL     OW20905   8.543   1.460   8.399  0.0936  0.3073  0.5254
 6495SOL    HW120906   8.615   1.488   8.455 -0.4937  1.1281  0.8944
 6495SOL    HW220907   8.532   1.532   8.337  0.3132 -0.3045 -0.2393
 6496SOL     OW20908   6.777   7.760   9.112  0.6856 -0.1505  0.1611
 6496SOL    HW120909   6.710   7.692   9.103 -1.1436  1.3988  1.4079
 6496SOL    HW220910   6.846   7.719   9.165  0.0131 -1.2723  0.1966
 6497SOL     OW20911   4.660   4.286   2.137 -0.1786  0.1505 -0.4689
 6497SOL    HW120912   4.693   4.197   2.123 -0.4972 -0.0607  0.0779
 6497SOL    HW220913   4.686   4.334   2.059 -0.8507 -0.6779 -1.2317
 6498SOL     OW20914   2.659   4.498   6.877 -0.2185 -0.0822  0.5068
 6498SOL    HW120915   2.645   4.592   6.889  1.1216 -0.0163  1.9690
 6498SOL    HW220916   2.581   4.457   6.915 -0.7614  0.4243 -0.0461
 6499SOL     OW20917   1.195   1.095   7.055  0.1112  0.1888 -0.5865
 6499SOL    HW120918   1.203   1.041   7.134  0.1464 -0.6668 -1.1703
 6499SOL    HW220919   1.261   1.164   7.067 -1.4565  1.4661  1.2151
 6500SOL     OW20920   2.281   5.330   8.253 -0.3388  0.3113  0.8429
 6500SOL    HW120921   2.214   5.392   8.225  0.2282  0.3168 -0.6111
 6500SOL    HW220922   2.234   5.249   8.270 -0.7961  0.4937  0.4635
 6501SOL     OW20923   2.749   2.885   6.317 -0.3343  0.4977 -0.3643
 6501SOL    HW120924   2.681   2.868   6.253 -1.6077  0.2602  1.0087
 6501SOL    HW220925   2.762   2.980   6.315 -2.5724  0.9052  1.1331
 6502SOL     OW20926   6.440   9.011   9.118 -0.1201  0.2020  0.4551
 6502SOL    HW120927   6.395   8.981   9.039 -0.4343  0.6587  0.4578
 6502SOL    HW220928   6.528   8.975   9.110 -0.4525 -0.6156  0.4012
 6503SOL     OW20929   7.936   1.304   4.250  0.5109 -0.0627 -0.4112
 6503SOL    HW120930   7.888   1.255   4.183 -0.7347  1.0957 -0.4062
 6503SOL    HW220931   7.937   1.393   4.218 -0.9532  0.7346  1.5002
 6504SOL     OW20932   1.094   0.100   7.628  0.2172  0.5748  0.3353
 6504SOL    HW120933   1.144   0.042   7.685 -0.4725 -0.1758  0.1941
 6504SOL    HW220934   1.008   0.105   7.670  0.0117  0.8162 -0.1130
 6505SOL     OW20935   6.181   8.976   8.390 -0.5849  0.8807  0.2376
 6505SOL    HW120936   6.142   8.921   8.459 -0.8414  0.9117  0.1170
 6505SOL    HW220937   6.274   8.952   8.390 -0.7091  0.3909  0.1359
 6506SOL     OW20938   4.068   4.389   6.941 -0.0670 -0.0410 -0.3105
 6506SOL    HW120939   4.054   4.424   7.029  0.1060  1.2237 -0.7662
 6506SOL    HW220940   4.151   4.427   6.913  1.0587 -2.2374 -0.1829
 6507SOL     OW20941   6.676   8.885   4.364 -0.1146  0.1063  0.0139
 6507SOL    HW120942   6.592   8.907   4.325  0.3752  0.4402 -0.9117
 6507SOL    HW220943   6.667   8.793   4.391 -1.4545  0.7367  1.9098
 6508SOL     OW20944   5.030   7.617   1.449 -0.3765  0.1714  0.8569
 6508SOL    HW120945   5.030   7.690   1.511 -1.2762  0.3431  0.6651
 6508SOL    HW220946   4.945   7.575   1.461 -2.0460  2.1949 -2.5436
 6509SOL     OW20947   6.776   8.926   2.151 -0.3864  0.3765 -0.3350
 6509SOL    HW120948   6.789   9.000   2.092  1.1804  1.4968  1.3130
 6509SOL    HW220949   6.823   8.854   2.110 -0.1796  0.8473 -0.9499
 6510SOL     OW20950   6.804   1.116   0.577 -0.0948  0.0200  0.0090
 6510SOL    HW120951   6.881   1.092   0.525  0.9383  2.5204  0.2446
 6510SOL    HW220952   6.837   1.126   0.666 -0.5243  1.6997  0.0068
 6511SOL     OW20953   8.569   3.074   0.051  0.2720  0.3455  0.0884
 6511SOL    HW120954   8.526   3.143   0.000  1.4403 -0.4815 -2.1616
 6511SOL    HW220955   8.497   3.020   0.084 -0.5397  0.3116 -1.6269
 6512SOL     OW20956   3.487   8.820   6.586 -0.4048 -0.3459  0.1138
 6512SOL    HW120957   3.422   8.756   6.614 -0.5642 -0.2113  0.0517
 6512SOL    HW220958   3.566   8.797   6.636 -0.5719 -0.3522  0.3746
 6513SOL     OW20959   2.271   5.684   5.076 -0.5647 -0.1768  0.3246
 6513SOL    HW120960   2.251   5.763   5.127  3.2854 -0.3608  2.4679
 6513SOL    HW220961   2.239   5.612   5.129  0.5127 -0.2389  0.8986
 6514SOL     OW20962   6.483   5.939   6.870  0.2085  0.3598  0.1204
 6514SOL    HW120963   6.539   5.872   6.910 -0.5155  0.1673  0.8410
 6514SOL    HW220964   6.493   6.016   6.926  0.6444  0.6985 -0.4158
 6515SOL     OW20965   1.019   6.007   5.845  0.1519 -0.4188 -0.0958
 6515SOL    HW120966   1.021   5.960   5.929 -1.2987 -0.3671 -0.0112
 6515SOL    HW220967   0.990   6.095   5.867  2.6139  0.5170 -0.2935
 6516SOL     OW20968   7.247   1.350   2.942  0.7943 -0.7893 -0.8116
 6516SOL    HW120969   7.306   1.420   2.969 -0.0704 -0.1231 -0.6252
 6516SOL    HW220970   7.182   1.393   2.887  1.0889 -1.7049 -1.9191
 6517SOL     OW20971   8.769   0.474   6.671  0.1808 -0.1604 -0.1890
 6517SOL    HW120972   8.821   0.506   6.597  2.6125 -0.1847  1.3996
 6517SOL    HW220973   8.709   0.546   6.689  1.1987  0.8639 -0.6887
 6518SOL     OW20974   9.103   7.054   6.193  0.5331  0.4822  0.2910
 6518SOL    HW120975   9.161   7.071   6.119  0.5110  1.3553  0.4589
 6518SOL    HW220976   9.130   7.117   6.260  2.2714 -1.9866  2.0473
 6519SOL     OW20977   6.113   2.557   0.829 -0.9609  0.3183 -0.5049
 6519SOL    HW120978   6.141   2.474   0.866 -0.7961 -0.0284 -1.4071
 6519SOL    HW220979   6.080   2.606   0.905  0.4171  0.0614  0.2873
 6520SOL     OW20980   4.389   0.010   6.115  0.7330  0.0302 -0.2686
 6520SOL    HW120981   4.345   0.028   6.032  0.2522 -1.7427 -0.4522
 6520SOL    HW220982   4.395  -0.086   6.118 -1.3841 -0.1667  2.7522
 6521SOL     OW20983   0.888   5.929   7.635 -0.1912 -0.6039 -0.6098
 6521SOL    HW120984   0.893   6.018   7.600 -0.0504 -0.0555  0.7464
 6521SOL    HW220985   0.868   5.874   7.559 -1.3585  0.7174 -1.2887
 6522SOL     OW20986   1.642   5.042   1.687 -0.8538 -0.2743  0.2147
 6522SOL    HW120987   1.723   5.082   1.653 -0.6400 -1.0303 -0.2007
 6522SOL    HW220988   1.664   5.018   1.777 -1.6807  2.4758  1.2454
 6523SOL     OW20989   5.377   4.628   2.673 -0.5274 -0.4654  0.2085
 6523SOL    HW120990   5.289   4.661   2.653 -0.4680  0.1633  0.9437
 6523SOL    HW220991   5.376   4.613   2.768  0.5788  0.8747  0.4541
 6524SOL     OW20992   2.155   4.148   2.118 -0.5684  0.0692 -0.2455
 6524SOL    HW120993   2.129   4.191   2.036  0.9480 -1.2936 -1.5086
 6524SOL    HW220994   2.191   4.218   2.172 -1.0894  0.9011 -0.9624
 6525SOL     OW20995   1.144   1.322   1.419 -0.2988 -0.6822 -0.3743
 6525SOL    HW120996   1.196   1.400   1.437 -0.3116 -0.7384 -0.0841
 6525SOL    HW220997   1.110   1.335   1.331  2.0367 -1.6664 -1.4963
 6526SOL     OW20998   0.694   3.768   1.733  0.5957 -0.0383 -0.3444
 6526SOL    HW120999   0.672   3.742   1.823  1.5376  1.4258  0.3400
 6526SOL    HW221000   0.688   3.863   1.733 -0.3321 -0.0701 -2.1165
 6527SOL     OW21001   7.464   2.687   2.291 -0.0865  0.5284 -0.2378
 6527SOL    HW121002   7.512   2.749   2.346 -1.4952  1.1129  0.3811
 6527SOL    HW221003   7.432   2.739   2.217  0.1520  0.1627 -0.6074
 6528SOL     OW21004   4.110   6.885   0.397  0.2331 -0.5882  0.1551
 6528SOL    HW121005   4.045   6.887   0.467 -1.0439 -0.2099 -1.0017
 6528SOL    HW221006   4.156   6.969   0.405 -0.3899 -0.2344  0.1113
 6529SOL     OW21007   2.172   1.049   7.907 -0.2972  0.7830  0.0825
 6529SOL    HW121008   2.226   1.051   7.985 -1.9373 -0.7380  1.3351
 6529SOL    HW221009   2.100   0.990   7.928  0.9109 -2.5162 -3.7292
 6530SOL     OW21010   8.109   4.341   1.141 -0.2780 -0.2675 -0.6404
 6530SOL    HW121011   8.109   4.435   1.124 -2.2590  0.1133  1.0593
 6530SOL    HW221012   8.200   4.320   1.160 -0.0182  1.6919  0.6253
 6531SOL     OW21013   7.033   8.454   4.636 -0.1361 -0.0617  0.6191
 6531SOL    HW121014   7.091   8.530   4.627  1.1858 -0.7742  2.3360
 6531SOL    HW221015   7.050   8.401   4.558  0.1673  0.6327  0.2079
 6532SOL     OW21016   1.123   6.780   1.506  0.7292 -0.1721 -0.0931
 6532SOL    HW121017   1.116   6.823   1.591  2.1893  0.9007 -0.4810
 6532SOL    HW221018   1.032   6.759   1.482  0.2194  0.3288  1.2967
 6533SOL     OW21019   7.622   9.102   4.963 -0.0243 -0.5473 -0.4433
 6533SOL    HW121020   7.611   9.122   5.056  1.0084  0.8649 -0.6076
 6533SOL    HW221021   7.573   9.170   4.918 -0.3286 -1.0969 -0.9590
 6534SOL     OW21022   4.399   3.154   6.695  0.4582 -0.4351  0.2864
 6534SOL    HW121023   4.393   3.124   6.786 -1.4436 -0.9054  0.0623
 6534SOL    HW221024   4.379   3.248   6.700 -2.8598 -1.0163  0.1220
 6535SOL     OW21025   4.478   2.947   3.944 -0.2280  0.5862  0.1638
 6535SOL    HW121026   4.544   3.010   3.916  0.4802 -0.9037 -1.8420
 6535SOL    HW221027   4.512   2.911   4.026  2.2492 -1.0445 -1.4221
 6536SOL     OW21028   7.979   4.610   8.459 -0.4937  1.0548  0.2333
 6536SOL    HW121029   7.929   4.593   8.539  1.0979 -0.6492  0.9348
 6536SOL    HW221030   7.924   4.576   8.389 -1.0899  0.8463  0.7944
 6537SOL     OW21031   8.844   3.808   6.497 -0.5197 -0.0038 -0.1243
 6537SOL    HW121032   8.905   3.828   6.426 -2.4439 -0.7842 -2.0856
 6537SOL    HW221033   8.900   3.800   6.575  1.6805  0.7343 -1.5383
 6538SOL     OW21034   8.216   4.299   3.201 -0.2416 -0.6633  0.1295
 6538SOL    HW121035   8.146   4.340   3.152  0.5541 -1.0064 -1.3445
 6538SOL    HW221036   8.296   4.323   3.155  0.6156 -0.4920  1.6134
 6539SOL     OW21037   4.544   7.719   3.839  0.1446  0.1197 -0.1792
 6539SOL    HW121038   4.610   7.703   3.906 -0.8775 -1.0204  0.5933
 6539SOL    HW221039   4.594   7.739   3.760  1.3921  2.4242  1.0845
 6540SOL     OW21040   5.563   6.154   2.438  0.4337  0.1178  0.1134
 6540SOL    HW121041   5.528   6.235   2.400 -2.1489 -0.6842  0.6187
 6540SOL    HW221042   5.505   6.134   2.511  1.8448 -1.4888  0.8808
 6541SOL     OW21043   3.771   2.534   4.327 -0.6936 -0.9738 -0.0289
 6541SOL    HW121044   3.778   2.629   4.313 -3.4054 -0.7269 -0.1036
 6541SOL    HW221045   3.712   2.526   4.402 -0.5616 -2.6316 -0.0812
 6542SOL     OW21046   8.270   7.062   5.250  0.1588 -0.3124 -0.2307
 6542SOL    HW121047   8.354   7.103   5.273 -0.7742  0.9586  1.0834
 6542SOL    HW221048   8.208   7.135   5.245 -1.1617 -1.3577  0.2671
 6543SOL     OW21049   1.702   5.092   2.387  0.7883 -0.2771  0.2780
 6543SOL    HW121050   1.678   5.056   2.472  0.0200 -1.5181 -0.4439
 6543SOL    HW221051   1.682   5.023   2.324  0.9226  0.7699 -0.9728
 6544SOL     OW21052   6.749   4.573   8.366  0.2215 -0.0735  0.2116
 6544SOL    HW121053   6.686   4.601   8.300  0.4656  1.6734  0.6639
 6544SOL    HW221054   6.711   4.603   8.449  1.5812  0.9441  0.5026
 6545SOL     OW21055   7.468   3.456   0.419 -0.0886 -0.2237  0.1608
 6545SOL    HW121056   7.428   3.432   0.336  1.1419  0.8277 -0.7692
 6545SOL    HW221057   7.394   3.485   0.473 -0.6602  1.5606 -1.4689
 6546SOL     OW21058   2.677   1.463   1.865  0.3426  0.1144 -0.0407
 6546SOL    HW121059   2.700   1.373   1.887 -0.1601 -0.2013 -0.7752
 6546SOL    HW221060   2.664   1.462   1.770 -0.0491  0.8739 -0.0014
 6547SOL     OW21061   6.326   7.188   4.278 -0.1012  0.0534 -0.2539
 6547SOL    HW121062   6.374   7.257   4.324 -0.2331  1.4373 -2.0843
 6547SOL    HW221063   6.322   7.116   4.340 -0.1579  1.7648  1.8317
 6548SOL     OW21064   1.087   8.476   0.739 -0.1360  0.6610 -0.3261
 6548SOL    HW121065   0.993   8.486   0.722 -0.0475  0.5131 -0.9042
 6548SOL    HW221066   1.115   8.561   0.771 -0.0652  1.3105 -2.0355
 6549SOL     OW21067   8.250   3.443   2.185 -0.0996  0.7490  0.9057
 6549SOL    HW121068   8.281   3.456   2.095 -0.4468  1.3953  0.8736
 6549SOL    HW221069   8.176   3.384   2.176  1.3744 -1.2238  1.0322
 6550SOL     OW21070   8.982   2.463   4.776  0.9520  0.0007  0.0262
 6550SOL    HW121071   8.962   2.533   4.714 -1.7565 -0.3327  0.3682
 6550SOL    HW221072   8.941   2.385   4.738  0.6765 -0.5583  1.4003
 6551SOL     OW21073   6.212   7.231   1.321 -0.2884 -0.0510  0.1723
 6551SOL    HW121074   6.229   7.252   1.229  0.0223  1.1168  0.4732
 6551SOL    HW221075   6.119   7.206   1.323 -0.5053  0.6673 -0.3526
 6552SOL     OW21076   6.240   1.404   3.012  0.2419  0.7382 -0.1331
 6552SOL    HW121077   6.196   1.372   2.935  1.2783  0.5253 -0.6584
 6552SOL    HW221078   6.171   1.414   3.078 -0.1097 -2.8860  0.2049
 6553SOL     OW21079   7.458   6.257   7.194 -0.4879 -0.1057 -0.1318
 6553SOL    HW121080   7.507   6.316   7.250 -1.0329  0.3870 -0.1686
 6553SOL    HW221081   7.513   6.178   7.188  0.1734  0.3375  0.0257
 6554SOL     OW21082   2.742   2.239   0.910 -0.5415 -0.4775 -0.0595
 6554SOL    HW121083   2.780   2.241   0.822 -2.5506 -0.2351 -0.9659
 6554SOL    HW221084   2.650   2.218   0.897 -1.6820  2.6346  1.6695
 6555SOL     OW21085   4.829   4.357   5.299 -0.5717  0.2839  0.3961
 6555SOL    HW121086   4.812   4.291   5.231 -1.6102 -0.0685  0.9633
 6555SOL    HW221087   4.742   4.379   5.333 -0.1210  0.9046  1.1941
 6556SOL     OW21088   5.201   8.757   6.298  0.2934  0.5589  0.5372
 6556SOL    HW121089   5.116   8.727   6.331  0.4595 -1.3858 -0.6299
 6556SOL    HW221090   5.207   8.848   6.326 -2.4344  0.9449  0.1835
 6557SOL     OW21091   3.141   8.731   1.691 -0.9545 -0.0636  0.1332
 6557SOL    HW121092   3.155   8.814   1.737  0.3006 -0.3235  0.2299
 6557SOL    HW221093   3.217   8.678   1.712 -0.8604 -0.5853 -1.3874
 6558SOL     OW21094   1.682   0.159   0.995  0.5830 -0.3623 -0.6865
 6558SOL    HW121095   1.675   0.122   1.083  0.4990 -0.9610 -0.9414
 6558SOL    HW221096   1.683   0.083   0.937  0.1174  0.0465 -1.2419
 6559SOL     OW21097   6.741   0.237   9.132 -0.1138  0.0114 -0.0961
 6559SOL    HW121098   6.702   0.301   9.072  0.0415  0.6456  0.4756
 6559SOL    HW221099   6.779   0.171   9.074 -1.4379 -0.2745 -0.6817
 6560SOL     OW21100   2.358   4.074   4.583 -0.1304  0.3251  0.3986
 6560SOL    HW121101   2.314   4.118   4.656  0.7140  1.6922  0.1126
 6560SOL    HW221102   2.325   3.984   4.586 -1.3823  0.7913  1.4255
 6561SOL     OW21103   5.719   1.120   4.365 -0.5328 -1.0596 -0.1834
 6561SOL    HW121104   5.680   1.207   4.362 -1.6648 -1.5763 -1.3115
 6561SOL    HW221105   5.798   1.127   4.312  0.4013 -0.2789  1.2457
 6562SOL     OW21106   2.969   8.032   5.831 -0.0667 -0.0553 -0.4060
 6562SOL    HW121107   2.899   7.992   5.884 -0.6387  0.3905 -0.8177
 6562SOL    HW221108   3.049   7.988   5.860 -0.5056 -0.5051  0.1400
 6563SOL     OW21109   3.133   6.939   8.632 -0.7043  0.1200  0.2543
 6563SOL    HW121110   3.156   6.853   8.596  0.6766  1.3829 -2.1500
 6563SOL    HW221111   3.206   6.961   8.690  0.4391  0.8377 -1.3842
 6564SOL     OW21112   1.586   3.739   6.291 -0.2597  0.3190 -0.3314
 6564SOL    HW121113   1.501   3.699   6.310 -0.2179  0.8359  1.0874
 6564SOL    HW221114   1.589   3.816   6.347  1.1746  0.2820 -0.3144
 6565SOL     OW21115   0.357   0.521   3.442  0.3439  0.2418  0.6217
 6565SOL    HW121116   0.365   0.611   3.410  0.1138  0.2445  0.5691
 6565SOL    HW221117   0.427   0.474   3.398  1.1048  0.6066  1.4219
 6566SOL     OW21118   1.439   7.501   5.310 -0.0553  0.6445  0.8950
 6566SOL    HW121119   1.400   7.580   5.272  1.4047  0.9079 -0.1497
 6566SOL    HW221120   1.532   7.522   5.319  0.4187 -1.0441  0.3279
 6567SOL     OW21121   6.964   3.692   4.267  0.0082  0.4788  0.1454
 6567SOL    HW121122   6.944   3.720   4.178 -0.5610 -0.3702  0.0004
 6567SOL    HW221123   7.047   3.734   4.287  0.6308 -0.1016 -1.1398
 6568SOL     OW21124   7.704   7.606   4.491 -0.0646  0.1529 -0.0534
 6568SOL    HW121125   7.798   7.604   4.475 -0.1133 -2.1527 -0.4046
 6568SOL    HW221126   7.668   7.541   4.430 -2.0459  1.8085 -0.7751
 6569SOL     OW21127   4.687   9.230   4.694  0.5993 -0.3336  0.1573
 6569SOL    HW121128   4.735   9.312   4.683  0.0576  0.2613  1.8726
 6569SOL    HW221129   4.691   9.188   4.608  0.9948  1.4197 -0.7279
 6570SOL     OW21130   7.944   4.038   3.166 -0.3387  0.3494  0.6205
 6570SOL    HW121131   8.024   4.013   3.120 -0.3535 -0.3653  0.9816
 6570SOL    HW221132   7.974   4.094   3.238 -0.2424  0.7707  0.2561
 6571SOL     OW21133   0.093   6.075   6.921  0.5839 -0.5161 -0.2113
 6571SOL    HW121134   0.140   6.019   6.983 -1.0306 -1.3461  0.3098
 6571SOL    HW221135   0.092   6.024   6.839  0.5322 -0.5333 -0.2004
 6572SOL     OW21136   4.952   0.207   9.220  0.1449 -0.3125 -0.0046
 6572SOL    HW121137   4.953   0.116   9.251  0.9165 -0.1637  0.4352
 6572SOL    HW221138   4.909   0.255   9.291 -1.7074 -0.5424 -0.9108
 6573SOL     OW21139   1.686   8.544   4.594 -0.2575 -0.4592  0.3129
 6573SOL    HW121140   1.691   8.634   4.627  0.5318 -0.3310 -0.1209
 6573SOL    HW221141   1.599   8.537   4.555 -0.3019  0.1409  0.2976
 6574SOL     OW21142   5.348   2.015   8.882 -0.0457  0.3931 -0.1055
 6574SOL    HW121143   5.336   2.086   8.946 -0.2470  1.1523 -0.9593
 6574SOL    HW221144   5.381   2.059   8.803 -1.2915 -0.2793 -1.0429
 6575SOL     OW21145   1.401   7.419   8.146  0.1667 -0.3335 -0.3763
 6575SOL    HW121146   1.367   7.469   8.072  0.4270 -1.9505 -1.6627
 6575SOL    HW221147   1.357   7.334   8.139 -0.1255 -0.3810  1.6112
 6576SOL     OW21148   8.618   9.157   5.142 -0.1393 -0.1236 -0.1225
 6576SOL    HW121149   8.594   9.159   5.235  2.8789  2.3128  0.7765
 6576SOL    HW221150   8.682   9.087   5.136 -0.1417 -0.1090 -0.3077
 6577SOL     OW21151   3.619   7.173   1.190 -0.1465  0.1523 -0.2539
 6577SOL    HW121152   3.643   7.088   1.154  2.0342  0.6480 -0.0849
 6577SOL    HW221153   3.629   7.234   1.117  1.2636  0.6928  0.3625
 6578SOL     OW21154   6.367   2.260   5.296 -0.2918 -0.3756 -0.4656
 6578SOL    HW121155   6.348   2.167   5.301 -0.4823 -0.2942  1.0525
 6578SOL    HW221156   6.453   2.269   5.337 -0.1478  0.0869 -0.8596
 6579SOL     OW21157   8.314   2.400   4.096 -0.1779  0.0206 -0.3919
 6579SOL    HW121158   8.366   2.323   4.070  0.5385  0.9384 -1.8157
 6579SOL    HW221159   8.359   2.435   4.173 -0.4413 -0.8971  0.1973
 6580SOL     OW21160   4.579   7.134   4.951  0.0149 -0.6072 -0.0176
 6580SOL    HW121161   4.560   7.168   5.038 -0.7097  0.5811 -0.6114
 6580SOL    HW221162   4.640   7.197   4.914  1.1357 -1.6581 -0.0125
 6581SOL     OW21163   5.592   6.130   1.579  0.4131  0.5412 -0.0807
 6581SOL    HW121164   5.614   6.216   1.613 -0.3747  0.0744  1.7494
 6581SOL    HW221165   5.675   6.083   1.577  0.4578  0.4915  1.5833
 6582SOL     OW21166   3.090   6.646   0.318 -0.1850 -0.0295  0.0596
 6582SOL    HW121167   3.179   6.664   0.348  0.6166 -1.5474 -1.2287
 6582SOL    HW221168   3.066   6.564   0.361 -0.7141  0.0317 -0.1078
 6583SOL     OW21169   0.588   1.276   4.506 -0.1906 -0.4287 -0.4132
 6583SOL    HW121170   0.668   1.328   4.495  0.9394 -2.2573 -1.2586
 6583SOL    HW221171   0.519   1.332   4.469  0.6648  1.1758  0.2966
 6584SOL     OW21172   6.833   7.430   1.496  0.6203  0.1650  0.2793
 6584SOL    HW121173   6.794   7.395   1.576  0.1547 -0.2755 -0.1324
 6584SOL    HW221174   6.898   7.363   1.470 -0.0588 -0.2729 -0.3451
 6585SOL     OW21175   1.026   0.934   0.884 -0.3243  0.0674  0.0787
 6585SOL    HW121176   0.968   0.968   0.953 -1.1704  0.0819 -0.6250
 6585SOL    HW221177   1.074   1.012   0.854  1.2302 -0.1811  1.6950
 6586SOL     OW21178   6.534   4.961   7.456 -0.2055  0.0175  0.4856
 6586SOL    HW121179   6.565   5.038   7.503  0.8606  0.4600 -0.8865
 6586SOL    HW221180   6.574   4.887   7.503  1.2854  0.4796  0.0028
 6587SOL     OW21181   6.348   6.462   4.270  0.2663  0.0015 -0.0365
 6587SOL    HW121182   6.258   6.452   4.237  0.5408  0.7439 -1.0364
 6587SOL    HW221183   6.338   6.466   4.365 -0.8806  1.2812 -0.1889
 6588SOL     OW21184   6.037   5.422   4.836 -0.1702  0.1643  0.3221
 6588SOL    HW121185   6.034   5.408   4.742  1.9157 -0.2192  0.2716
 6588SOL    HW221186   5.984   5.501   4.850  0.0784  0.6450 -1.2471
 6589SOL     OW21187   2.260   6.585   0.854 -0.2305  0.3559  0.5611
 6589SOL    HW121188   2.309   6.666   0.841 -0.9885  0.8115  0.5038
 6589SOL    HW221189   2.311   6.536   0.918 -0.6322  1.6288  1.9019
 6590SOL     OW21190   0.630   6.933   0.026  0.5285 -0.6386  0.0222
 6590SOL    HW121191   0.559   6.981   0.069  0.5718 -1.2897  0.8449
 6590SOL    HW221192   0.641   6.855   0.079  1.8666 -0.5501 -0.0993
 6591SOL     OW21193   1.114   7.158   0.193 -0.4975  0.4148  0.4723
 6591SOL    HW121194   1.078   7.072   0.214 -1.2389  0.4671 -0.4654
 6591SOL    HW221195   1.077   7.178   0.107  0.0368  1.4677  0.4743
 6592SOL     OW21196   3.128   7.927   6.922  0.1510 -0.1566 -0.0596
 6592SOL    HW121197   3.052   7.983   6.906 -0.6433 -1.2149 -0.0690
 6592SOL    HW221198   3.091   7.842   6.945  1.2870 -0.1234  2.2237
 6593SOL     OW21199   3.151   1.853   5.249 -0.0379  0.3439  0.2668
 6593SOL    HW121200   3.128   1.858   5.156  0.4150  0.8774  0.1736
 6593SOL    HW221201   3.069   1.870   5.296  0.0025  1.4536 -0.0470
 6594SOL     OW21202   8.159   6.258   3.819 -0.2629  0.0092 -0.4755
 6594SOL    HW121203   8.096   6.310   3.867  1.1727  1.5285 -0.1508
 6594SOL    HW221204   8.217   6.222   3.886 -2.2594 -3.7408 -0.4421
 6595SOL     OW21205   1.331   0.023   9.090 -0.1175 -0.0199  0.2015
 6595SOL    HW121206   1.332  -0.014   9.002  0.6000  0.4439  0.0011
 6595SOL    HW221207   1.400   0.090   9.089  0.5108 -0.6111  1.3726
 6596SOL     OW21208   7.699   7.836   3.096  0.8811 -0.0811 -0.0997
 6596SOL    HW121209   7.746   7.836   3.013  0.4665  1.3765 -0.3717
 6596SOL    HW221210   7.615   7.796   3.077  1.0028 -0.2727 -0.2396
 6597SOL     OW21211   3.756   3.221   5.890 -0.4389  0.4851  0.0907
 6597SOL    HW121212   3.724   3.246   5.977 -0.4000 -0.6363  0.4404
 6597SOL    HW221213   3.784   3.303   5.851 -0.3815  0.9996  1.1693
 6598SOL     OW21214   0.098   9.131   4.263 -0.2595 -0.2331 -0.3298
 6598SOL    HW121215   0.133   9.070   4.328  0.1844  0.2596 -0.0971
 6598SOL    HW221216   0.084   9.212   4.312 -0.9286 -0.1691 -0.6168
 6599SOL     OW21217   3.945   1.122   0.125 -0.3829  0.4230 -0.3871
 6599SOL    HW121218   3.992   1.127   0.041  0.9941  1.3228  0.3873
 6599SOL    HW221219   3.920   1.213   0.143 -0.4725  0.2687  0.2801
 6600SOL     OW21220   5.859   0.254   9.058  0.2390 -0.2169 -0.3850
 6600SOL    HW121221   5.828   0.324   9.001 -0.5541  0.8354  1.2720
 6600SOL    HW221222   5.947   0.234   9.026  0.4237  1.4315 -1.0082
 6601SOL     OW21223   8.402   4.105   4.442  0.1887  0.0744  0.0103
 6601SOL    HW121224   8.390   4.016   4.476 -0.8567  0.6346  1.1773
 6601SOL    HW221225   8.365   4.102   4.354  2.4027 -1.2544 -0.9651
 6602SOL     OW21226   6.005   3.760   1.632 -0.3792  0.4088  0.2307
 6602SOL    HW121227   5.949   3.754   1.710  0.4899  1.5485  0.9992
 6602SOL    HW221228   6.041   3.672   1.621 -1.2258  0.0095  0.5681
 6603SOL     OW21229   7.229   1.680   2.491  0.3492 -0.1514  0.1209
 6603SOL    HW121230   7.243   1.690   2.585  1.4678  1.8950 -0.2035
 6603SOL    HW221231   7.312   1.645   2.458 -0.4823 -2.1431  0.0185
 6604SOL     OW21232   2.973   1.113   1.826 -0.4197  0.0048  0.3641
 6604SOL    HW121233   3.045   1.176   1.828  0.2444 -0.7469  0.1312
 6604SOL    HW221234   2.957   1.091   1.918  0.5740 -0.8797  0.3316
 6605SOL     OW21235   2.325   6.674   2.324  0.0460  0.4876  0.0653
 6605SOL    HW121236   2.297   6.629   2.244  0.0339  0.0433  0.3182
 6605SOL    HW221237   2.256   6.738   2.341 -3.7210 -3.8532  3.5008
 6606SOL     OW21238   8.842   0.045   7.655 -0.0813  0.0387 -0.2309
 6606SOL    HW121239   8.894   0.120   7.684 -0.9885  0.3096  0.7765
 6606SOL    HW221240   8.821   0.064   7.564  1.6828 -0.1511 -0.7138
 6607SOL     OW21241   8.303   6.284   4.660 -0.0724 -0.1475  0.7962
 6607SOL    HW121242   8.379   6.341   4.661 -0.3757  0.2929 -0.0014
 6607SOL    HW221243   8.295   6.256   4.568  0.8601 -2.5462  1.3657
 6608SOL     OW21244   0.647   5.885   6.916 -0.0563 -0.2326  0.8272
 6608SOL    HW121245   0.558   5.852   6.903  0.2083 -0.8335  0.5129
 6608SOL    HW221246   0.686   5.884   6.828  1.2523 -2.8858  1.3341
 6609SOL     OW21247   0.505   6.353   1.186  0.4948  0.3743 -0.0325
 6609SOL    HW121248   0.517   6.372   1.092 -1.3901  1.0643 -0.1702
 6609SOL    HW221249   0.476   6.262   1.188  0.3738  0.4096 -0.1356
 6610SOL     OW21250   8.484   9.108   5.600 -0.2693 -0.3405  0.4676
 6610SOL    HW121251   8.401   9.070   5.628 -0.6816  1.1591  1.4280
 6610SOL    HW221252   8.506   9.062   5.519 -0.4675 -2.8905  1.7814
 6611SOL     OW21253   8.363   5.449   4.200 -0.3157  0.3555 -0.2203
 6611SOL    HW121254   8.320   5.501   4.132  0.3394  0.8145 -0.2995
 6611SOL    HW221255   8.299   5.381   4.223 -1.4920  1.6393  0.4335
 6612SOL     OW21256   5.796   8.060   5.838 -0.3692  0.3552 -0.4789
 6612SOL    HW121257   5.770   8.033   5.926  0.2249  0.4214 -0.2750
 6612SOL    HW221258   5.881   8.102   5.850 -0.4321  0.6542 -1.0440
 6613SOL     OW21259   1.022   6.384   6.011 -0.2969 -0.2350 -0.4635
 6613SOL    HW121260   1.112   6.389   5.980 -0.9980  1.8703 -2.5290
 6613SOL    HW221261   1.028   6.392   6.106  1.7447 -2.1345 -0.3627
 6614SOL     OW21262   5.050   4.086   4.420 -0.5066 -0.1358  0.0568
 6614SOL    HW121263   5.061   3.995   4.450 -0.3936  0.5479  2.3175
 6614SOL    HW221264   5.138   4.116   4.401 -0.5341 -0.4709 -0.6094
 6615SOL     OW21265   0.448   5.174   4.696  0.9834 -0.3476 -0.3110
 6615SOL    HW121266   0.530   5.180   4.647  0.4042 -1.8539 -1.5726
 6615SOL    HW221267   0.382   5.210   4.637  0.4587 -0.9904 -0.1262
 6616SOL     OW21268   8.045   9.137   4.216  0.2280  0.0058 -0.5781
 6616SOL    HW121269   8.132   9.101   4.196  0.9573  1.3684  0.0206
 6616SOL    HW221270   8.023   9.098   4.301  1.5466  1.7739  0.6554
 6617SOL     OW21271   6.875   2.594   5.943 -0.3871 -0.1418 -0.3353
 6617SOL    HW121272   6.788   2.603   5.904 -0.5990 -0.6258  0.0176
 6617SOL    HW221273   6.906   2.508   5.915 -0.9422 -0.9260  1.3124
 6618SOL     OW21274   5.250   8.498   1.021  0.0577  0.3836  0.1996
 6618SOL    HW121275   5.342   8.471   1.026  0.0854  0.2358 -0.8601
 6618SOL    HW221276   5.250   8.574   0.963 -0.6758 -0.6919 -1.2785
 6619SOL     OW21277   6.996   8.719   5.753  0.2385 -0.1803  0.1560
 6619SOL    HW121278   6.956   8.730   5.667 -1.7473 -1.8120  0.7784
 6619SOL    HW221279   6.957   8.639   5.788  3.3354 -1.3761  1.3111
 6620SOL     OW21280   4.100   6.542   5.513  0.3734  0.4020  0.6552
 6620SOL    HW121281   4.005   6.549   5.524  0.2893  0.2159  0.0888
 6620SOL    HW221282   4.118   6.449   5.528  0.0615 -0.1761 -1.9903
 6621SOL     OW21283   1.213   1.753   9.025  0.4249  0.0546  0.2584
 6621SOL    HW121284   1.196   1.694   9.099  0.3937 -0.2407  0.0180
 6621SOL    HW221285   1.270   1.821   9.061  1.5768 -0.8480  0.2222
 6622SOL     OW21286   1.319   1.577   7.834  0.1803 -0.9892 -0.0004
 6622SOL    HW121287   1.251   1.644   7.829  0.4322 -0.5900  1.5308
 6622SOL    HW221288   1.295   1.523   7.909 -0.0811 -2.7298 -1.2776
 6623SOL     OW21289   3.332   4.482   6.344  0.0912  0.0518 -0.1104
 6623SOL    HW121290   3.323   4.428   6.422 -0.3288  0.2628 -0.0076
 6623SOL    HW221291   3.402   4.441   6.293  0.5721  0.0883  0.5192
 6624SOL     OW21292   7.719   8.310   3.723 -0.0922  0.2181  0.3602
 6624SOL    HW121293   7.805   8.347   3.743 -0.6445  2.8447 -1.5296
 6624SOL    HW221294   7.658   8.381   3.744 -1.6133 -0.8649 -0.2108
 6625SOL     OW21295   4.698   1.756   0.941 -0.3823  0.0232 -0.4602
 6625SOL    HW121296   4.624   1.782   0.997  1.3730  1.2018  1.4219
 6625SOL    HW221297   4.750   1.696   0.995  0.2468 -0.5339 -1.6385
 6626SOL     OW21298   6.778   1.096   5.844 -0.0061 -0.0819 -0.0599
 6626SOL    HW121299   6.846   1.163   5.837 -0.4266  0.4128  0.5774
 6626SOL    HW221300   6.826   1.013   5.835  0.4760  0.2973 -1.1315
 6627SOL     OW21301   2.011   6.716   3.781 -0.4693 -0.6959  0.2080
 6627SOL    HW121302   2.105   6.720   3.761 -0.6601 -0.9498 -0.7940
 6627SOL    HW221303   2.000   6.778   3.852  0.1193  0.9854 -1.0902
 6628SOL     OW21304   5.119   3.455   2.414 -0.6110 -0.5075  0.1634
 6628SOL    HW121305   5.214   3.469   2.416 -0.9427  2.1783  0.8240
 6628SOL    HW221306   5.107   3.386   2.349  1.6110  1.2080 -2.2942
 6629SOL     OW21307   3.752   2.986   3.229  0.2716  0.2402 -0.2590
 6629SOL    HW121308   3.673   2.942   3.260  0.2724  0.5407  0.1840
 6629SOL    HW221309   3.722   3.072   3.198  0.5366  0.7120  0.7507
 6630SOL     OW21310   5.437   3.198   7.081 -0.0582 -0.2616 -0.1528
 6630SOL    HW121311   5.445   3.104   7.065  0.6536 -0.3591  0.7009
 6630SOL    HW221312   5.406   3.234   6.998  1.2473 -1.0407 -1.0127
 6631SOL     OW21313   3.347   2.199   1.887  0.4277 -0.1268  0.4530
 6631SOL    HW121314   3.262   2.166   1.857  0.6373 -1.0806  0.8963
 6631SOL    HW221315   3.325   2.271   1.946 -0.0200  1.0154 -1.0145
 6632SOL     OW21316   7.538   8.780   4.644 -0.2133 -0.3166  0.4025
 6632SOL    HW121317   7.474   8.781   4.573  2.6095  0.5204 -2.2881
 6632SOL    HW221318   7.584   8.697   4.634 -0.0626 -0.4049  1.6170
 6633SOL     OW21319   2.065   7.500   8.711  0.0028  0.1381 -0.3796
 6633SOL    HW121320   2.065   7.426   8.650 -0.0458  1.9112 -2.6607
 6633SOL    HW221321   2.157   7.521   8.724  0.0274 -0.4328  0.4732
 6634SOL     OW21322   1.179   2.808   2.114  0.9823  0.4429  0.4582
 6634SOL    HW121323   1.214   2.799   2.203  1.6411 -0.3056  0.1370
 6634SOL    HW221324   1.101   2.753   2.112  0.4285  1.2070  0.8447
 6635SOL     OW21325   8.631   4.699   8.195 -0.1908  0.2123  0.0695
 6635SOL    HW121326   8.537   4.711   8.197 -0.3829 -0.9816 -0.8628
 6635SOL    HW221327   8.650   4.667   8.107  1.1423  0.7944  0.1087
 6636SOL     OW21328   9.038   2.592   0.119 -0.7131 -0.1675  0.4121
 6636SOL    HW121329   8.948   2.620   0.138 -0.7319  1.1256 -1.3669
 6636SOL    HW221330   9.031   2.546   0.035  0.2381 -0.4877  0.4971
 6637SOL     OW21331   4.041   0.711   2.646 -0.3182 -0.1435 -0.3094
 6637SOL    HW121332   4.019   0.771   2.718 -0.7445  0.6560 -1.0871
 6637SOL    HW221333   3.979   0.733   2.577  0.6399 -0.2930 -1.2478
 6638SOL     OW21334   8.413   6.420   3.453 -0.3723  0.1417  0.5055
 6638SOL    HW121335   8.365   6.354   3.504 -2.5095  1.6147  0.4833
 6638SOL    HW221336   8.421   6.381   3.366 -1.4408 -0.1627  0.5352
 6639SOL     OW21337   3.490   7.953   8.165  0.1535  0.7179 -0.3005
 6639SOL    HW121338   3.543   7.926   8.090  1.4404  2.8255 -0.2143
 6639SOL    HW221339   3.551   7.956   8.238 -1.0243 -1.0201  0.8382
 6640SOL     OW21340   5.568   6.504   2.832  0.1820  0.0866 -0.2974
 6640SOL    HW121341   5.478   6.488   2.861  0.4062 -0.0922  0.3110
 6640SOL    HW221342   5.573   6.598   2.819  0.3459  0.2988  1.1839
 6641SOL     OW21343   2.961   6.075   8.059  0.4288  0.2527 -0.0398
 6641SOL    HW121344   2.896   6.007   8.042 -1.7835  2.0029  0.8220
 6641SOL    HW221345   2.938   6.108   8.146  2.2222  1.2437  0.1015
 6642SOL     OW21346   2.499   6.554   8.365 -0.0563 -0.2825 -0.4803
 6642SOL    HW121347   2.557   6.584   8.294 -0.2072 -0.3682 -0.6396
 6642SOL    HW221348   2.449   6.482   8.327  1.6979 -2.1172  0.4686
 6643SOL     OW21349   7.513   5.140   1.546 -0.5592 -0.0464 -0.3821
 6643SOL    HW121350   7.422   5.129   1.518 -0.9084 -1.0073  1.0241
 6643SOL    HW221351   7.557   5.059   1.519 -0.2241  0.2232 -0.6587
 6644SOL     OW21352   7.689   5.281   3.554  0.8848 -0.7675  0.2121
 6644SOL    HW121353   7.780   5.249   3.553  1.0418 -0.3561  0.5413
 6644SOL    HW221354   7.638   5.206   3.583  0.9234 -1.4419 -1.3506
 6645SOL     OW21355   8.667   1.364   1.031 -0.7818 -0.3501  0.2516
 6645SOL    HW121356   8.744   1.322   1.069  0.0046  1.7247  1.1272
 6645SOL    HW221357   8.652   1.441   1.086 -1.6923  0.9063 -1.6311
 6646SOL     OW21358   1.994   7.652   1.254  0.3085 -0.3533 -0.0394
 6646SOL    HW121359   1.910   7.611   1.274 -0.4694  1.1541 -0.0421
 6646SOL    HW221360   2.049   7.632   1.329 -1.2008  1.5580  1.7287
 6647SOL     OW21361   1.066   3.302   0.982 -0.3029  0.1593 -0.8928
 6647SOL    HW121362   1.149   3.269   1.017 -1.0022 -0.0158  0.7071
 6647SOL    HW221363   1.035   3.232   0.925 -1.3140 -1.7071  1.7217
 6648SOL     OW21364   2.656   3.618   1.785  0.5651 -0.3859 -0.1110
 6648SOL    HW121365   2.617   3.550   1.730 -0.7539  2.3679 -2.8736
 6648SOL    HW221366   2.747   3.622   1.757  0.1621  0.2767 -1.3838
 6649SOL     OW21367   0.708   7.836   8.471 -0.5290 -0.0349  0.1407
 6649SOL    HW121368   0.693   7.923   8.434  3.3023  0.4235 -0.7629
 6649SOL    HW221369   0.691   7.776   8.399 -1.3403  0.1044  0.2079
 6650SOL     OW21370   0.246   6.693   8.036 -0.0636  0.4688  0.0242
 6650SOL    HW121371   0.246   6.684   8.131  1.8123  1.7696  0.1902
 6650SOL    HW221372   0.277   6.608   8.004 -0.4318  0.1231  0.5663
 6651SOL     OW21373   6.077   5.408   3.484 -0.2344  0.3213 -0.1726
 6651SOL    HW121374   6.138   5.454   3.426  0.4293  0.8319  0.9130
 6651SOL    HW221375   6.099   5.438   3.572  1.0784 -2.9429  0.7715
 6652SOL     OW21376   9.254   8.009   2.445  0.5153  0.3313  0.0447
 6652SOL    HW121377   9.332   8.063   2.452 -0.2879  1.8972 -2.1604
 6652SOL    HW221378   9.184   8.063   2.482 -0.3423  0.9950 -2.3974
 6653SOL     OW21379   8.852   1.084   5.724 -0.6702  0.2078  0.4084
 6653SOL    HW121380   8.868   1.094   5.630 -0.4074 -0.5351  0.3647
 6653SOL    HW221381   8.787   1.151   5.745 -1.4638 -0.2513 -0.5015
 6654SOL     OW21382   2.812   3.154   5.517  0.0783 -0.7642 -0.3050
 6654SOL    HW121383   2.782   3.089   5.453 -0.7590 -1.0221  0.3257
 6654SOL    HW221384   2.905   3.136   5.527  0.0183 -1.3503 -0.7356
 6655SOL     OW21385   4.128   0.004   5.473  0.0817 -0.2015  0.2706
 6655SOL    HW121386   4.141  -0.042   5.556  0.6267 -1.5062 -0.4935
 6655SOL    HW221387   4.090  -0.062   5.415  0.8129  0.3355 -0.8504
 6656SOL     OW21388   3.887   7.463   1.795  0.7871  0.4937 -0.1410
 6656SOL    HW121389   3.908   7.370   1.785 -0.3867  0.1267  0.5858
 6656SOL    HW221390   3.931   7.490   1.875 -0.6548 -0.0353  0.8713
 6657SOL     OW21391   0.628   8.701   7.148 -0.2268 -0.2421 -0.5526
 6657SOL    HW121392   0.572   8.739   7.080 -0.5815 -0.6819 -0.5123
 6657SOL    HW221393   0.713   8.692   7.106 -0.2914  0.0394 -0.7505
 6658SOL     OW21394   5.372   3.930   0.897  0.1458 -0.0885  0.0593
 6658SOL    HW121395   5.408   3.843   0.876 -0.5387 -0.2826 -0.3609
 6658SOL    HW221396   5.358   3.927   0.992  1.1174 -0.0417  0.2232
 6659SOL     OW21397   1.968   3.906   3.933 -0.0195 -0.3436  0.2722
 6659SOL    HW121398   1.889   3.937   3.978 -0.4761 -0.4137 -0.4605
 6659SOL    HW221399   2.032   3.975   3.946  0.1067 -0.6765  1.6436
 6660SOL     OW21400   6.846   7.764   3.327 -0.2113 -0.0317  0.6581
 6660SOL    HW121401   6.869   7.770   3.420 -0.1202 -0.6945  0.6882
 6660SOL    HW221402   6.773   7.702   3.325  0.5688 -0.9726  0.1800
 6661SOL     OW21403   7.837   3.913   3.955 -0.6064  0.2897  0.3235
 6661SOL    HW121404   7.838   3.818   3.946  0.3937  0.3236 -0.0738
 6661SOL    HW221405   7.888   3.931   4.033 -0.6490  0.5081  0.3023
 6662SOL     OW21406   3.925   8.714   5.423 -0.2430 -0.2455 -0.2272
 6662SOL    HW121407   3.880   8.729   5.340 -3.0534 -2.7955  0.6633
 6662SOL    HW221408   3.964   8.627   5.414  0.1168 -0.2155  0.8428
 6663SOL     OW21409   1.546   8.538   8.449  0.1471  0.0198 -0.0765
 6663SOL    HW121410   1.496   8.571   8.524 -0.8312 -2.0295  0.2289
 6663SOL    HW221411   1.637   8.549   8.475 -0.1694 -0.6633  1.4573
 6664SOL     OW21412   0.746   6.958   3.596  0.6584 -0.4273 -0.2707
 6664SOL    HW121413   0.727   6.918   3.511  1.8484 -0.4900 -0.5256
 6664SOL    HW221414   0.758   7.051   3.576  1.1653 -0.4774 -0.2178
 6665SOL     OW21415   0.322   0.348   8.577  0.0717 -0.3640  0.1524
 6665SOL    HW121416   0.417   0.353   8.563 -0.0074  0.5972 -0.1019
 6665SOL    HW221417   0.310   0.362   8.670  0.2024 -0.9096  0.2555
 6666SOL     OW21418   9.029   3.685   4.467  0.2431 -0.1694 -0.2007
 6666SOL    HW121419   9.039   3.757   4.405  1.4633  1.0915  1.3969
 6666SOL    HW221420   8.936   3.686   4.489  0.4282  1.7543  0.7156
 6667SOL     OW21421   8.383   0.276   8.210 -0.1638 -0.3306  0.0641
 6667SOL    HW121422   8.330   0.335   8.156 -0.7471 -0.4058  0.5441
 6667SOL    HW221423   8.344   0.283   8.298  0.6075 -0.4084  0.4144
 6668SOL     OW21424   6.312   1.114   7.969  0.0527 -0.4432  0.0932
 6668SOL    HW121425   6.308   1.136   8.062  0.3160  0.8195 -0.1744
 6668SOL    HW221426   6.406   1.101   7.952  0.0753  0.0260 -0.1453
 6669SOL     OW21427   2.612   7.201   0.672 -0.4798  0.2568 -0.4291
 6669SOL    HW121428   2.695   7.175   0.712 -0.9871 -1.3607 -0.3677
 6669SOL    HW221429   2.594   7.287   0.708  1.1930  0.6621 -0.4842
 6670SOL     OW21430   4.962   5.840   8.461 -0.2494  0.2420 -0.1524
 6670SOL    HW121431   5.022   5.898   8.509  0.3372 -1.3772  1.1724
 6670SOL    HW221432   4.886   5.895   8.442 -0.0214  1.2760  1.6804
 6671SOL     OW21433   4.665   7.532   3.458 -0.2158  0.0264  0.1571
 6671SOL    HW121434   4.713   7.451   3.438 -1.7851 -0.9745  0.2648
 6671SOL    HW221435   4.582   7.502   3.495 -1.0043  1.7021 -0.1659
 6672SOL     OW21436   1.087   7.296   6.441  0.4082 -0.1771  0.3228
 6672SOL    HW121437   1.011   7.239   6.454  0.9589 -1.1615 -0.6819
 6672SOL    HW221438   1.139   7.286   6.521 -0.5658  0.6191  1.0853
 6673SOL     OW21439   8.444   1.692   7.478  0.2369  0.4885 -0.0064
 6673SOL    HW121440   8.382   1.749   7.524 -0.0215 -0.1357  0.4388
 6673SOL    HW221441   8.414   1.603   7.499  0.0717  0.1841 -1.4466
 6674SOL     OW21442   9.107   8.198   2.815  0.3712  0.0185 -0.4852
 6674SOL    HW121443   9.078   8.184   2.725  2.5122 -0.5543 -1.1365
 6674SOL    HW221444   9.041   8.152   2.868  0.6582 -2.2405 -1.9376
 6675SOL     OW21445   9.098   8.074   4.933 -1.2359 -0.4311 -0.1175
 6675SOL    HW121446   9.093   8.097   4.841  2.5886 -0.7225 -0.5866
 6675SOL    HW221447   9.047   7.994   4.942 -0.2055 -1.4071 -2.4164
 6676SOL     OW21448   0.390   0.870   7.087  0.0055 -0.3200  0.1240
 6676SOL    HW121449   0.355   0.870   6.998  1.7114 -0.3227 -0.5711
 6676SOL    HW221450   0.363   0.786   7.124 -1.8825  0.2394  0.1250
 6677SOL     OW21451   2.821   0.332   7.641 -0.2753  0.3543  0.2449
 6677SOL    HW121452   2.743   0.319   7.696 -1.6333 -0.2954 -1.7385
 6677SOL    HW221453   2.798   0.293   7.557  1.7158  1.3666 -0.8383
 6678SOL     OW21454   5.161   0.347   3.470  0.3524 -0.2950  0.1597
 6678SOL    HW121455   5.092   0.409   3.495 -0.7438 -0.9501 -1.1139
 6678SOL    HW221456   5.137   0.266   3.515  0.8870 -0.2458  0.5411
 6679SOL     OW21457   2.083   7.363   6.711 -0.4929 -0.7114 -0.5199
 6679SOL    HW121458   2.171   7.369   6.750 -1.7726 -0.6567  2.6354
 6679SOL    HW221459   2.100   7.346   6.618  2.8600  0.8819 -0.3902
 6680SOL     OW21460   7.510   2.430   1.488 -1.0819  0.0414 -0.3027
 6680SOL    HW121461   7.578   2.478   1.536 -2.0170  1.4463 -0.3255
 6680SOL    HW221462   7.552   2.347   1.464  0.9041  1.1696 -1.0142
 6681SOL     OW21463   6.543   7.598   1.489 -0.4534 -0.2163 -0.7713
 6681SOL    HW121464   6.621   7.553   1.457 -0.0622 -0.0729 -0.0623
 6681SOL    HW221465   6.478   7.529   1.501 -0.1007 -0.4910 -0.3967
 6682SOL     OW21466   5.899   1.769   7.641  0.0112  1.0211  0.5610
 6682SOL    HW121467   5.873   1.859   7.661 -1.2571  0.7456  0.2316
 6682SOL    HW221468   5.892   1.763   7.546  0.2618  0.6294  0.5670
 6683SOL     OW21469   2.879   3.716   4.095 -0.5048 -0.0998  0.1074
 6683SOL    HW121470   2.840   3.728   4.009 -1.6474  1.0994  0.7453
 6683SOL    HW221471   2.907   3.804   4.122  2.9255 -0.9253 -0.3783
 6684SOL     OW21472   8.904   1.375   5.221 -0.5959  0.7177 -0.9019
 6684SOL    HW121473   8.990   1.363   5.179  0.5978 -0.9168  1.7886
 6684SOL    HW221474   8.912   1.459   5.266 -0.1039  0.2458 -0.0801
 6685SOL     OW21475   3.333   5.563   2.656 -0.1973  0.6681  0.4421
 6685SOL    HW121476   3.344   5.508   2.578 -2.3146  1.3307 -0.3696
 6685SOL    HW221477   3.367   5.509   2.728  0.9638 -0.3032 -0.7833
 6686SOL     OW21478   1.134   4.958   2.709  0.0719 -0.8338 -0.2618
 6686SOL    HW121479   1.065   4.893   2.706 -0.1436 -0.6241  0.1944
 6686SOL    HW221480   1.096   5.036   2.667 -0.4668 -0.2541  1.2559
 6687SOL     OW21481   0.923   1.927   4.354 -0.2487  0.3553 -0.0145
 6687SOL    HW121482   0.882   2.013   4.357  0.1023  0.5042  1.1328
 6687SOL    HW221483   0.873   1.878   4.289  0.4877  1.8819 -1.8032
 6688SOL     OW21484   3.045   7.627   0.943 -0.4141  0.1095 -0.0350
 6688SOL    HW121485   3.083   7.588   1.021  0.0379 -0.7539 -0.6707
 6688SOL    HW221486   3.039   7.721   0.964  0.9039  0.0846  0.5586
 6689SOL     OW21487   3.817   1.029   0.657 -0.1845  0.5228  0.1060
 6689SOL    HW121488   3.751   1.054   0.721 -1.0406  0.0347 -0.5576
 6689SOL    HW221489   3.836   1.110   0.609  1.1870  1.1155  1.5800
 6690SOL     OW21490   4.569   0.987   4.120  0.4050  0.5155 -0.1652
 6690SOL    HW121491   4.665   0.989   4.120  0.4557 -0.0815 -1.9332
 6690SOL    HW221492   4.545   0.971   4.211  2.0269 -0.4747  0.1207
 6691SOL     OW21493   3.851   7.746   3.737 -0.4556 -0.3225 -0.1395
 6691SOL    HW121494   3.927   7.761   3.682 -0.8863  1.7154 -0.2588
 6691SOL    HW221495   3.796   7.824   3.725 -0.5444  0.2918  3.1750
 6692SOL     OW21496   7.382   0.153   0.769 -0.4626  0.1912  0.2161
 6692SOL    HW121497   7.382   0.093   0.843 -1.8413 -0.2664 -0.1401
 6692SOL    HW221498   7.462   0.204   0.781  0.3325 -1.1657  0.9520
 6693SOL     OW21499   3.527   5.739   3.614  0.0714  0.5130 -0.2942
 6693SOL    HW121500   3.458   5.800   3.641  0.9165  0.5745  1.8684
 6693SOL    HW221501   3.480   5.662   3.582 -0.9862  1.2439 -0.5523
 6694SOL     OW21502   1.535   5.289   8.934 -0.3093 -0.0810  0.1334
 6694SOL    HW121503   1.521   5.284   9.028 -0.5140 -0.0751  0.1035
 6694SOL    HW221504   1.477   5.360   8.905 -0.0446  0.1010  0.0418
 6695SOL     OW21505   7.022   4.541   2.081  0.3270  0.1225  0.1004
 6695SOL    HW121506   6.955   4.557   2.147 -0.1613 -1.3663 -0.0069
 6695SOL    HW221507   6.991   4.465   2.032  2.7503 -1.5665  0.9703
 6696SOL     OW21508   5.383   2.568   5.779 -0.0436 -0.2101 -0.3326
 6696SOL    HW121509   5.367   2.659   5.805  0.2434 -0.2094 -0.1531
 6696SOL    HW221510   5.405   2.523   5.860  0.5130 -0.2857 -0.5200
 6697SOL     OW21511   0.650   5.689   0.528  0.1197  0.1654  0.5998
 6697SOL    HW121512   0.681   5.600   0.543  1.2836  0.5888  0.8370
 6697SOL    HW221513   0.560   5.679   0.498  0.5927 -1.1388 -0.4502
 6698SOL     OW21514   2.312   6.150   3.247  0.2144  0.2437  0.0100
 6698SOL    HW121515   2.219   6.149   3.267 -0.4042  0.7825 -2.4416
 6698SOL    HW221516   2.342   6.061   3.266 -1.0432 -0.2290 -0.1410
 6699SOL     OW21517   3.420   2.277   4.263 -0.4020  0.1542  0.0493
 6699SOL    HW121518   3.374   2.204   4.222 -1.9295  0.1906  1.5848
 6699SOL    HW221519   3.512   2.256   4.254 -0.7241 -0.5661 -1.9954
 6700SOL     OW21520   5.289   9.248   2.130  0.1578  0.4081  0.6683
 6700SOL    HW121521   5.368   9.265   2.079  1.8690 -0.4250  2.8776
 6700SOL    HW221522   5.301   9.160   2.165 -0.8010  1.0050  2.6570
 6701SOL     OW21523   5.494   0.993   1.682 -0.1721  0.6216  0.1221
 6701SOL    HW121524   5.507   0.928   1.751 -0.6706 -0.7521 -1.0246
 6701SOL    HW221525   5.413   1.039   1.705  0.8502  1.7644  1.6106
 6702SOL     OW21526   7.495   1.081   4.038  0.5632 -0.3494  0.1691
 6702SOL    HW121527   7.521   1.051   3.951 -0.9695  0.1807 -0.5159
 6702SOL    HW221528   7.491   1.176   4.030  1.5321 -0.2048  1.1773
 6703SOL     OW21529   1.783   2.709   6.384 -0.1398 -0.2516 -0.2611
 6703SOL    HW121530   1.719   2.670   6.443 -0.1593  1.9554  1.2957
 6703SOL    HW221531   1.748   2.796   6.363  2.3790  1.1620  0.8844
 6704SOL     OW21532   2.335   8.934   3.002 -0.1064 -0.4111 -0.0825
 6704SOL    HW121533   2.405   8.889   3.049  0.1858  0.6724  0.5681
 6704SOL    HW221534   2.255   8.897   3.037  0.1154 -1.5455 -0.7137
 6705SOL     OW21535   3.115   8.488   7.642  0.4068 -0.0654  0.7762
 6705SOL    HW121536   3.181   8.435   7.598 -0.0908  0.5833 -0.8442
 6705SOL    HW221537   3.042   8.428   7.658  0.8251 -0.4452  1.2671
 6706SOL     OW21538   6.847   0.860   8.778 -0.2014 -0.0765  0.0913
 6706SOL    HW121539   6.885   0.861   8.866 -0.8019 -0.6572  0.3694
 6706SOL    HW221540   6.846   0.767   8.754 -0.0463  0.0772 -0.5301
 6707SOL     OW21541   2.735   6.074   7.659 -0.5021  0.0232 -0.2260
 6707SOL    HW121542   2.767   6.163   7.643  0.3183  1.0172  5.0935
 6707SOL    HW221543   2.641   6.085   7.673 -0.9512 -0.5749 -2.4167
 6708SOL     OW21544   4.714   1.825   2.240 -0.0072 -0.4464  0.5440
 6708SOL    HW121545   4.780   1.796   2.178 -0.4469  0.0853 -0.1821
 6708SOL    HW221546   4.760   1.887   2.297  0.0395  0.2003 -0.1837
 6709SOL     OW21547   5.442   7.778   0.439  0.1025  0.5653  0.5376
 6709SOL    HW121548   5.523   7.829   0.444 -0.0225  0.6714  2.8217
 6709SOL    HW221549   5.467   7.692   0.476  0.8714 -2.0513 -5.0553
 6710SOL     OW21550   5.866   1.251   7.700 -0.1988  0.3313 -0.0356
 6710SOL    HW121551   5.871   1.196   7.779  0.3510 -0.7827 -0.8239
 6710SOL    HW221552   5.827   1.333   7.731 -2.1754 -0.9016  0.9578
 6711SOL     OW21553   7.465   0.946   8.268  0.3448  0.2729  0.1806
 6711SOL    HW121554   7.386   0.895   8.283  0.3666 -0.1292 -0.9771
 6711SOL    HW221555   7.494   0.973   8.355 -0.5937 -0.2865  0.6696
 6712SOL     OW21556   1.042   2.995   6.796  0.0804 -0.2932 -0.1824
 6712SOL    HW121557   1.070   2.907   6.820  0.4350  0.0882  0.8615
 6712SOL    HW221558   0.949   2.996   6.815 -0.0055 -0.5598 -0.5734
 6713SOL     OW21559   8.727   5.454   8.494 -0.0023  1.0061 -0.1187
 6713SOL    HW121560   8.739   5.546   8.517  0.0923  1.3248 -1.3672
 6713SOL    HW221561   8.813   5.425   8.462  0.4213 -0.0012  1.7850
 6714SOL     OW21562   3.938   1.742   1.985  0.1097 -0.0750  0.0407
 6714SOL    HW121563   3.900   1.719   2.069 -1.5973 -1.0731 -0.9456
 6714SOL    HW221564   3.908   1.674   1.925  1.6085  0.3736 -1.3180
 6715SOL     OW21565   2.331   8.829   0.392  0.1416 -0.2196 -0.1158
 6715SOL    HW121566   2.238   8.850   0.406  0.4607  0.8720  0.4191
 6715SOL    HW221567   2.351   8.764   0.459  0.2110  0.8643  0.9516
 6716SOL     OW21568   4.364   7.272   8.418 -0.7859  0.0188  0.4007
 6716SOL    HW121569   4.288   7.231   8.458  0.1584 -1.2287  0.9928
 6716SOL    HW221570   4.340   7.365   8.410 -2.1580 -0.2590  1.0342
 6717SOL     OW21571   1.969   6.290   8.453 -0.4783 -0.2430 -0.5372
 6717SOL    HW121572   1.948   6.291   8.360  1.0467 -0.9487 -0.9112
 6717SOL    HW221573   2.064   6.281   8.456  0.0177  3.6344  1.0401
 6718SOL     OW21574   3.905   0.553   0.130 -0.3310 -0.2448 -0.7686
 6718SOL    HW121575   3.989   0.559   0.175  0.6140 -2.3563 -2.1033
 6718SOL    HW221576   3.846   0.512   0.194 -0.4006  1.2741  0.1843
 6719SOL     OW21577   3.413   6.165   6.358  0.0843 -0.2432 -0.1393
 6719SOL    HW121578   3.434   6.257   6.347 -0.6679 -0.1037 -0.4372
 6719SOL    HW221579   3.322   6.164   6.388  0.1998 -0.8760  0.2157
 6720SOL     OW21580   7.945   0.206   7.250 -0.3558  0.3111  0.2968
 6720SOL    HW121581   7.902   0.291   7.262  2.3139  1.7240  0.5652
 6720SOL    HW221582   7.929   0.185   7.158 -0.4161  1.5185  0.0057
 6721SOL     OW21583   6.547   4.390   0.499  0.0552 -0.1616 -0.0498
 6721SOL    HW121584   6.599   4.339   0.437 -0.7704 -1.5010  0.3141
 6721SOL    HW221585   6.459   4.389   0.463 -0.2397 -0.1396  0.6495
 6722SOL     OW21586   3.248   8.819   3.864 -0.6452 -0.1223 -0.3840
 6722SOL    HW121587   3.333   8.775   3.860  0.1429  1.3511 -0.5421
 6722SOL    HW221588   3.208   8.787   3.945  0.1374 -0.6840 -0.2046
 6723SOL     OW21589   8.071   4.556   6.603  0.0466  0.0143 -0.0966
 6723SOL    HW121590   8.013   4.479   6.603 -1.3643  1.0257  0.5423
 6723SOL    HW221591   8.028   4.617   6.543  0.5506  0.7307  0.2570
 6724SOL     OW21592   5.934   7.758   7.451  0.3813 -0.6720 -0.0205
 6724SOL    HW121593   5.954   7.768   7.544 -0.5560 -0.5795  0.1752
 6724SOL    HW221594   5.997   7.692   7.420  1.4342  0.0973  0.4177
 6725SOL     OW21595   3.367   8.574   1.199  0.1290  0.4796  0.0413
 6725SOL    HW121596   3.356   8.664   1.170  0.1456  0.1484 -1.0245
 6725SOL    HW221597   3.282   8.533   1.185 -0.1826  0.5745  1.4880
 6726SOL     OW21598   2.860   8.858   3.534  0.1258 -0.3092 -0.8132
 6726SOL    HW121599   2.862   8.846   3.629  1.2667 -0.6173 -0.8635
 6726SOL    HW221600   2.783   8.913   3.518  1.3255  1.9308  0.5514
 6727SOL     OW21601   1.879   3.501   6.485  0.3291  0.0604  0.1205
 6727SOL    HW121602   1.861   3.530   6.395 -0.0047  1.5635  0.6506
 6727SOL    HW221603   1.794   3.503   6.528  0.4177 -1.0738  0.3850
 6728SOL     OW21604   7.275   5.118   6.209  0.4736 -0.3864 -0.0665
 6728SOL    HW121605   7.219   5.196   6.209  0.9677  0.0160  1.6721
 6728SOL    HW221606   7.309   5.114   6.120  1.5265  2.2402  0.1044
 6729SOL     OW21607   1.042   5.226   6.244  0.0001  0.0420 -0.3088
 6729SOL    HW121608   1.128   5.260   6.269  0.2360 -0.7898  0.0597
 6729SOL    HW221609   1.056   5.132   6.233 -0.9032 -0.1310 -0.0502
 6730SOL     OW21610   8.737   4.694   5.650 -0.6092  0.3291  0.1252
 6730SOL    HW121611   8.830   4.685   5.626 -0.9589 -3.1745 -0.4841
 6730SOL    HW221612   8.691   4.693   5.566 -1.3632 -3.0001  0.4480
 6731SOL     OW21613   0.386   7.409   8.361 -0.1233 -0.6949 -0.3169
 6731SOL    HW121614   0.398   7.501   8.335  0.7711 -0.8005 -0.2966
 6731SOL    HW221615   0.353   7.366   8.282  0.1392 -0.4975 -0.5382
 6732SOL     OW21616   3.969   4.476   2.093 -0.0530 -0.3625 -1.0271
 6732SOL    HW121617   3.995   4.567   2.105 -2.9003  0.4174  0.0622
 6732SOL    HW221618   3.950   4.470   1.999 -1.3712  0.6821 -0.8634
 6733SOL     OW21619   1.477   5.405   8.285 -0.0395  0.4169 -0.3272
 6733SOL    HW121620   1.531   5.481   8.306  0.1757  0.1452  0.1270
 6733SOL    HW221621   1.490   5.392   8.191  0.2444  0.6937 -0.3276
 6734SOL     OW21622   8.765   4.556   2.518 -0.1881 -0.2564  0.3694
 6734SOL    HW121623   8.858   4.571   2.505  0.0687 -1.5696  0.5463
 6734SOL    HW221624   8.742   4.613   2.592  0.2387  0.7812 -0.2695
 6735SOL     OW21625   3.381   3.307   5.347 -0.1217 -0.1459 -0.6623
 6735SOL    HW121626   3.417   3.290   5.259  0.8452 -0.4211 -0.2204
 6735SOL    HW221627   3.385   3.402   5.357  0.7120 -0.1898 -0.5291
 6736SOL     OW21628   2.278   4.803   2.484 -0.2467  0.6081 -0.0683
 6736SOL    HW121629   2.364   4.827   2.517 -0.1940  0.6226 -0.2157
 6736SOL    HW221630   2.227   4.783   2.563 -0.1463  0.7221  0.0261
 6737SOL     OW21631   6.707   4.670   6.016 -0.2110  0.6266 -0.1465
 6737SOL    HW121632   6.660   4.592   6.045 -0.8051  0.5533 -1.2476
 6737SOL    HW221633   6.651   4.708   5.947  0.7567  1.2210 -0.6336
 6738SOL     OW21634   1.939   9.021   6.709  0.2080 -0.2792 -0.7609
 6738SOL    HW121635   1.890   8.969   6.772 -0.5333 -1.4858 -2.2769
 6738SOL    HW221636   1.992   9.080   6.763 -0.8127 -0.8636  0.9599
 6739SOL     OW21637   3.133   2.402   5.311 -0.1788 -0.0592  0.0275
 6739SOL    HW121638   3.074   2.385   5.384  1.0515  0.9798  1.3271
 6739SOL    HW221639   3.221   2.388   5.348  0.4487 -0.8289 -1.6315
 6740SOL     OW21640   6.634   3.981   8.922 -0.0085 -0.1868 -0.3676
 6740SOL    HW121641   6.687   4.032   8.861 -0.5220  0.2621 -0.4512
 6740SOL    HW221642   6.544   3.995   8.893 -0.2567 -0.0053  0.4696
 6741SOL     OW21643   0.918   3.516   2.382 -0.7571  0.2817 -0.1743
 6741SOL    HW121644   0.932   3.566   2.462 -1.3195  1.9762 -1.0865
 6741SOL    HW221645   0.993   3.457   2.378 -1.5810 -1.1063  2.4543
 6742SOL     OW21646   6.859   7.562   6.701  0.5396 -0.4283  0.3975
 6742SOL    HW121647   6.835   7.524   6.786  1.6099 -2.0753  0.0219
 6742SOL    HW221648   6.794   7.527   6.640 -0.2519  0.7844  0.5267
 6743SOL     OW21649   0.430   2.422   4.635 -0.3533 -0.5943 -0.8442
 6743SOL    HW121650   0.360   2.418   4.700  0.2501  2.0667  0.1024
 6743SOL    HW221651   0.510   2.434   4.687  0.5618 -1.4003 -1.9942
 6744SOL     OW21652   4.913   2.842   7.804  0.0074 -0.0044  0.3444
 6744SOL    HW121653   4.938   2.930   7.778 -1.9623  1.1872  2.2198
 6744SOL    HW221654   4.818   2.840   7.795  0.0143 -1.9830  0.2592
 6745SOL     OW21655   6.624   2.039   1.927 -0.7820 -0.2102 -0.0483
 6745SOL    HW121656   6.641   1.977   1.856 -1.5920  1.1471 -1.4762
 6745SOL    HW221657   6.528   2.046   1.930 -0.7751 -0.3866  1.3307
 6746SOL     OW21658   5.798   7.204   7.774 -0.5012 -0.4270 -0.1981
 6746SOL    HW121659   5.746   7.174   7.700 -0.5644 -0.9118  0.0386
 6746SOL    HW221660   5.742   7.269   7.817 -0.8593 -0.8353 -0.0338
 6747SOL     OW21661   5.559   4.846   4.713  0.2766 -0.7059  0.4662
 6747SOL    HW121662   5.470   4.840   4.679 -0.2293 -1.2877  1.8168
 6747SOL    HW221663   5.611   4.877   4.639 -1.0866 -0.1056 -0.2802
 6748SOL     OW21664   8.296   6.217   3.584  0.4922 -0.2975  0.4692
 6748SOL    HW121665   8.229   6.233   3.651  0.0803  1.4357 -0.2845
 6748SOL    HW221666   8.260   6.147   3.530  0.2632 -0.8407  1.3037
 6749SOL     OW21667   6.810   3.765   4.968  0.0899 -0.6676 -0.2183
 6749SOL    HW121668   6.888   3.817   4.990 -0.6993  0.7438 -0.6384
 6749SOL    HW221669   6.776   3.737   5.053  1.6289 -2.2561 -0.0581
 6750SOL     OW21670   9.127   2.633   2.045  0.4031  0.2012  0.1642
 6750SOL    HW121671   9.197   2.654   2.106  0.3732  1.2122 -0.1276
 6750SOL    HW221672   9.145   2.688   1.968  2.9955 -4.0818 -2.6982
 6751SOL     OW21673   2.989   5.349   4.186 -0.0815  0.6741 -0.0078
 6751SOL    HW121674   2.965   5.257   4.176  0.5766  0.3636  1.0842
 6751SOL    HW221675   3.065   5.361   4.130 -1.4706  1.1476 -1.8921
 6752SOL     OW21676   7.835   3.377   1.322  0.0751 -0.0392  0.0744
 6752SOL    HW121677   7.770   3.446   1.309  0.8142  1.3268  2.7803
 6752SOL    HW221678   7.786   3.304   1.358 -0.4607 -0.3937 -1.3002
 6753SOL     OW21679   2.498   6.134   6.725 -0.2748  0.3598 -0.8220
 6753SOL    HW121680   2.579   6.183   6.715  0.3512 -0.4738 -0.0094
 6753SOL    HW221681   2.521   6.044   6.701 -1.4700  0.4631 -2.5904
 6754SOL     OW21682   4.002   6.141   8.505  0.6067 -0.0304  0.0181
 6754SOL    HW121683   3.922   6.111   8.550  0.3793  1.1064  0.4115
 6754SOL    HW221684   3.991   6.112   8.415 -0.6156  0.7300 -0.1090
 6755SOL     OW21685   4.227   5.065   0.334 -0.1745  0.5868 -0.4983
 6755SOL    HW121686   4.226   5.144   0.280  2.0404 -0.1989 -1.8420
 6755SOL    HW221687   4.158   5.010   0.297 -1.9065  1.9108  0.6117
 6756SOL     OW21688   2.904   5.148   2.555  0.1641  0.0170 -0.1539
 6756SOL    HW121689   2.856   5.228   2.533  0.4642  1.1628  2.9553
 6756SOL    HW221690   2.983   5.152   2.501 -0.3186  1.2640 -0.8030
 6757SOL     OW21691   4.031   5.080   5.113  0.1759 -0.0407  0.2050
 6757SOL    HW121692   4.081   5.139   5.170  1.8228 -1.9826  0.8808
 6757SOL    HW221693   4.012   5.005   5.168 -1.0956 -0.5442 -0.8938
 6758SOL     OW21694   0.305   3.585   1.697  0.3112  0.2395 -0.3747
 6758SOL    HW121695   0.395   3.569   1.727  0.4527 -0.1279 -0.9730
 6758SOL    HW221696   0.291   3.678   1.713 -0.0471 -0.1475  1.9294
 6759SOL     OW21697   2.676   8.971   4.455  1.1206  0.6340  0.4891
 6759SOL    HW121698   2.770   8.956   4.460  1.0231  0.3316  1.4922
 6759SOL    HW221699   2.647   8.981   4.546 -0.1561 -1.3787  0.3743
 6760SOL     OW21700   0.966   9.166   2.817 -0.0192 -0.0068 -0.5529
 6760SOL    HW121701   0.953   9.174   2.911 -0.2190 -0.5878 -0.5317
 6760SOL    HW221702   0.997   9.253   2.790 -1.4213  0.6348 -0.1938
 6761SOL     OW21703   5.076   8.544   3.866 -0.1972  0.1324  0.1404
 6761SOL    HW121704   5.014   8.482   3.903 -0.5106 -0.4537 -1.3064
 6761SOL    HW221705   5.103   8.598   3.941 -1.2461 -0.6009  1.0886
 6762SOL     OW21706   6.660   7.591   7.554 -0.2042  0.6315 -0.2180
 6762SOL    HW121707   6.604   7.581   7.630 -2.5055 -0.7089 -1.9654
 6762SOL    HW221708   6.700   7.505   7.541 -0.7762  0.4988 -1.1947
 6763SOL     OW21709   7.131   4.937   0.399  0.0392  0.2083  0.1670
 6763SOL    HW121710   7.214   4.975   0.426  0.2321  0.8816 -1.2760
 6763SOL    HW221711   7.123   4.960   0.306  0.2937 -3.4324 -0.9290
 6764SOL     OW21712   6.023   0.507   6.612 -0.4177  0.0540  0.2600
 6764SOL    HW121713   6.004   0.515   6.705  0.7422 -0.8650  0.5973
 6764SOL    HW221714   6.100   0.563   6.598  1.1188 -1.8688  0.4672
 6765SOL     OW21715   2.281   1.496   3.742  0.1066  0.2127  0.2247
 6765SOL    HW121716   2.307   1.405   3.759 -1.5137  0.0934  2.5846
 6765SOL    HW221717   2.309   1.512   3.653  0.3292 -2.6749 -0.3466
 6766SOL     OW21718   7.088   9.145   5.875  0.1752  0.3363 -0.0147
 6766SOL    HW121719   7.118   9.181   5.959  2.1050 -0.8887 -0.0937
 6766SOL    HW221720   7.150   9.180   5.811  0.1963 -0.6436 -0.5464
 6767SOL     OW21721   7.306   4.681   4.083  0.4037  0.2693 -0.1300
 6767SOL    HW121722   7.262   4.756   4.124 -1.8908 -0.7170 -0.6722
 6767SOL    HW221723   7.258   4.666   4.002 -0.4512 -2.9422  0.8388
 6768SOL     OW21724   4.454   4.962   4.430  0.2749 -0.0109  0.0730
 6768SOL    HW121725   4.464   4.869   4.447  0.7062  0.3291  1.8545
 6768SOL    HW221726   4.477   4.972   4.338 -0.5805 -1.7684 -0.3659
 6769SOL     OW21727   5.672   8.218   1.964 -0.0028  0.3741 -0.1370
 6769SOL    HW121728   5.702   8.285   2.026 -1.6765  1.8629 -0.8498
 6769SOL    HW221729   5.736   8.221   1.893  2.3142 -1.8045  1.6737
 6770SOL     OW21730   7.011   2.024   6.717 -0.0514 -0.4676 -1.0057
 6770SOL    HW121731   7.065   1.959   6.673  0.4042  0.4828 -1.9093
 6770SOL    HW221732   6.986   2.085   6.647 -2.0253 -0.6930 -0.5504
 6771SOL     OW21733   9.166   0.977   4.906  0.6022  0.1780 -0.2588
 6771SOL    HW121734   9.165   0.966   4.811  1.3083 -0.0878 -0.2386
 6771SOL    HW221735   9.158   0.889   4.941 -2.0459  0.4263 -0.0299
 6772SOL     OW21736   9.061   5.280   0.906 -0.8564  0.1337 -0.6227
 6772SOL    HW121737   9.102   5.358   0.868 -0.9187  0.5524  0.1620
 6772SOL    HW221738   9.030   5.231   0.830 -0.0587  0.4434 -1.1738
 6773SOL     OW21739   1.781   9.144   8.056  0.3203 -0.0805  0.0043
 6773SOL    HW121740   1.850   9.211   8.052 -0.8328  1.2826  1.6262
 6773SOL    HW221741   1.731   9.165   8.135 -1.8040 -1.1531 -0.9515
 6774SOL     OW21742   4.541   8.585   2.845 -0.0542 -0.1344  0.2511
 6774SOL    HW121743   4.558   8.508   2.791 -1.2543 -0.9137  0.9319
 6774SOL    HW221744   4.446   8.588   2.853 -0.0039  1.1976  0.5705
 6775SOL     OW21745   4.275   8.081   1.724 -0.1051 -0.5330 -0.0994
 6775SOL    HW121746   4.214   8.025   1.773  0.0083  0.2804  1.0121
 6775SOL    HW221747   4.298   8.151   1.786 -0.6607  1.0622 -1.6159
 6776SOL     OW21748   6.712   0.264   7.971  0.7029 -0.3250  0.9457
 6776SOL    HW121749   6.781   0.218   8.019 -0.2739  0.8739  3.7188
 6776SOL    HW221750   6.633   0.252   8.024 -0.6117  0.6460 -0.6797
 6777SOL     OW21751   4.676   3.234   5.054 -0.2770 -0.4211 -0.5826
 6777SOL    HW121752   4.740   3.238   4.983  0.7447 -0.8945  0.2732
 6777SOL    HW221753   4.603   3.184   5.018  0.7038 -1.6264 -0.9857
 6778SOL     OW21754   5.297   8.057   8.931  0.1002 -0.2940  0.6716
 6778SOL    HW121755   5.351   7.996   8.880 -1.5371 -0.1368 -1.3328
 6778SOL    HW221756   5.348   8.138   8.932 -0.5853  0.2777 -2.3772
 6779SOL     OW21757   3.835   3.461   9.021 -0.5268 -0.0176 -0.3375
 6779SOL    HW121758   3.806   3.377   9.058  2.0686 -0.4582  0.9473
 6779SOL    HW221759   3.806   3.526   9.084 -3.1594  0.2090 -1.6822
 6780SOL     OW21760   3.447   4.661   2.816  0.5106  0.3236  0.0097
 6780SOL    HW121761   3.452   4.749   2.855  3.2893 -0.0554  0.7346
 6780SOL    HW221762   3.456   4.676   2.722  0.8204  0.8453  0.1138
 6781SOL     OW21763   0.563   8.405   6.454  0.1988 -0.4666  0.1310
 6781SOL    HW121764   0.500   8.461   6.501  0.5928  0.6657 -0.6338
 6781SOL    HW221765   0.524   8.393   6.368  0.8383 -0.0905 -0.2155
 6782SOL     OW21766   0.690   8.615   6.728  0.1484 -0.0523 -0.0127
 6782SOL    HW121767   0.750   8.562   6.675  1.0195 -0.2465  1.1186
 6782SOL    HW221768   0.603   8.588   6.700  0.5745 -1.3972 -0.1342
 6783SOL     OW21769   3.364   0.375   3.409 -0.5498  0.1324  0.3749
 6783SOL    HW121770   3.287   0.342   3.362 -1.4828 -0.0559  1.9401
 6783SOL    HW221771   3.331   0.447   3.463  0.2592 -0.2322  1.4071
 6784SOL     OW21772   5.616   2.256   4.676  0.4814 -0.1743  0.1277
 6784SOL    HW121773   5.545   2.193   4.662  0.6050 -0.1698 -0.5566
 6784SOL    HW221774   5.655   2.230   4.759  2.5020 -2.9848 -1.5117
 6785SOL     OW21775   0.805   0.455   7.417 -0.3365 -0.3221  0.1609
 6785SOL    HW121776   0.731   0.510   7.441 -1.2345 -1.2419 -0.4394
 6785SOL    HW221777   0.812   0.464   7.322  0.8433  0.3752  0.2835
 6786SOL     OW21778   3.055   3.360   5.322  0.5287 -0.2313 -0.6206
 6786SOL    HW121779   3.090   3.337   5.236  0.6686  0.4501 -0.7531
 6786SOL    HW221780   3.118   3.323   5.384  0.2717 -0.9757 -0.7990
 6787SOL     OW21781   0.922   6.914   7.506 -0.1922  0.2879 -0.1972
 6787SOL    HW121782   1.016   6.901   7.498 -0.2598 -1.1181  0.8949
 6787SOL    HW221783   0.897   6.862   7.583 -1.8911  0.4223 -0.6182
 6788SOL     OW21784   6.499   3.114   5.435  0.2940 -0.2140  0.3803
 6788SOL    HW121785   6.506   3.027   5.475 -2.9814 -0.7514  0.0678
 6788SOL    HW221786   6.518   3.100   5.342 -1.8976 -1.0582 -0.0089
 6789SOL     OW21787   6.597   2.171   5.417  0.1190  0.3224 -0.2360
 6789SOL    HW121788   6.672   2.227   5.438  1.2184 -1.1756 -0.0145
 6789SOL    HW221789   6.620   2.129   5.335 -0.9408  0.5726 -0.6834
 6790SOL     OW21790   6.731   6.246   5.422 -0.2083 -0.2869  0.0165
 6790SOL    HW121791   6.808   6.250   5.478 -0.4882 -0.3709  0.4186
 6790SOL    HW221792   6.699   6.336   5.418 -0.2916 -0.3106  0.1409
 6791SOL     OW21793   0.376   5.937   3.389  0.0165 -0.0760  0.5021
 6791SOL    HW121794   0.344   6.016   3.345 -0.3787 -0.0161  0.8926
 6791SOL    HW221795   0.471   5.950   3.396  0.3052 -0.7163 -1.5923
 6792SOL     OW21796   5.506   4.531   8.794  0.0769  0.0030  0.6880
 6792SOL    HW121797   5.590   4.574   8.812  0.0867 -0.8665  3.1242
 6792SOL    HW221798   5.440   4.599   8.810  0.2533  0.2492  0.3743
 6793SOL     OW21799   0.030   5.882   6.701  0.7346  0.0412 -0.1259
 6793SOL    HW121800  -0.060   5.914   6.703  0.7535  0.0905  0.0674
 6793SOL    HW221801   0.047   5.862   6.610  1.5109  2.9211 -0.7292
 6794SOL     OW21802   4.267   8.390   6.455  0.0705  0.1975  0.2820
 6794SOL    HW121803   4.238   8.301   6.439  0.8127  0.1701 -1.0785
 6794SOL    HW221804   4.313   8.386   6.539 -0.3041 -0.5927  0.4551
 6795SOL     OW21805   1.182   6.395   4.181 -0.0515 -0.2547 -0.3293
 6795SOL    HW121806   1.224   6.313   4.158 -1.0230 -0.4483 -1.5199
 6795SOL    HW221807   1.184   6.447   4.101  1.5155  1.3449  0.6841
 6796SOL     OW21808   0.271   3.598   5.892  0.6938  0.1994 -0.2392
 6796SOL    HW121809   0.348   3.563   5.845  1.7068 -0.4731  1.8100
 6796SOL    HW221810   0.196   3.567   5.841  1.7242 -1.0485 -1.0727
 6797SOL     OW21811   0.132   0.731   3.214 -0.3974 -0.1963 -0.3944
 6797SOL    HW121812   0.207   0.704   3.161 -0.8654 -0.5160 -0.8974
 6797SOL    HW221813   0.155   0.818   3.246  0.7691 -0.8278  0.5717
 6798SOL     OW21814   4.164   7.123   3.606 -0.4036 -0.8173  0.1018
 6798SOL    HW121815   4.193   7.084   3.689  0.9130 -1.0110 -0.4212
 6798SOL    HW221816   4.070   7.138   3.618 -0.3650 -1.4438  1.3830
 6799SOL     OW21817   4.027   7.230   1.610  0.7173 -0.5115  0.1613
 6799SOL    HW121818   4.123   7.232   1.610  0.7430  0.3392  1.7672
 6799SOL    HW221819   4.005   7.161   1.673  0.2559 -1.3460 -0.8971
 6800SOL     OW21820   7.948   7.040   2.384  0.3717 -0.2122 -0.1023
 6800SOL    HW121821   7.942   7.135   2.377  0.8510 -0.1557  0.2406
 6800SOL    HW221822   7.879   7.016   2.445  1.2470  0.0837  1.0452
 6801SOL     OW21823   1.505   3.981   4.279  0.3295  0.0506 -0.5922
 6801SOL    HW121824   1.474   3.892   4.296 -1.0814  0.5766 -0.2646
 6801SOL    HW221825   1.425   4.031   4.261  0.9438  1.5406  0.6336
 6802SOL     OW21826   4.080   7.726   7.628  0.2429  0.0097 -0.0670
 6802SOL    HW121827   4.162   7.768   7.601 -0.1287  1.4165  0.8866
 6802SOL    HW221828   4.105   7.635   7.642  2.3857  0.8857  2.8876
 6803SOL     OW21829   3.658   5.026   2.971 -0.3443 -0.5549  0.8279
 6803SOL    HW121830   3.618   4.990   2.892  0.5724  0.3526 -0.0763
 6803SOL    HW221831   3.646   5.121   2.964 -1.4011 -0.5327  2.4404
 6804SOL     OW21832   6.774   6.894   5.422  0.2499 -0.0888 -0.4687
 6804SOL    HW121833   6.761   6.928   5.511  2.2607  0.4279 -0.3278
 6804SOL    HW221834   6.791   6.801   5.435  3.4609  0.4576  0.0768
 6805SOL     OW21835   4.948   4.487   5.602 -0.6342  0.1054 -0.4061
 6805SOL    HW121836   4.912   4.518   5.685 -0.5010 -0.7220 -0.0239
 6805SOL    HW221837   4.888   4.522   5.536  0.2515  2.2722 -0.1403
 6806SOL     OW21838   3.533   8.596   2.894  0.0633 -0.2213  0.3615
 6806SOL    HW121839   3.493   8.675   2.855  1.1346  0.6018  0.8846
 6806SOL    HW221840   3.459   8.541   2.917 -0.7000  0.4686 -0.3593
 6807SOL     OW21841   0.184   9.208   3.724 -0.1052 -0.0397  0.1368
 6807SOL    HW121842   0.277   9.200   3.744 -0.1661 -1.3033 -0.0051
 6807SOL    HW221843   0.140   9.151   3.788 -0.4535 -2.4559 -2.0678
 6808SOL     OW21844   2.924   8.493   5.670  0.0870 -0.0645  0.1268
 6808SOL    HW121845   2.929   8.538   5.755 -1.4387  0.4124 -0.0127
 6808SOL    HW221846   2.945   8.402   5.691 -1.4143 -0.1877  1.2488
 6809SOL     OW21847   8.213   1.587   8.395 -0.1651  0.6941  0.4051
 6809SOL    HW121848   8.262   1.669   8.398 -0.5038  1.0086 -1.5334
 6809SOL    HW221849   8.125   1.612   8.365 -0.3115 -0.3594 -0.1035
 6810SOL     OW21850   1.476   4.350   0.675  0.1410  0.6149  0.5327
 6810SOL    HW121851   1.513   4.438   0.689  1.8040  0.3599 -1.6387
 6810SOL    HW221852   1.387   4.356   0.709  0.3509  3.0235  0.8771
 6811SOL     OW21853   3.820   4.017   9.064 -0.0906 -0.4103 -0.1118
 6811SOL    HW121854   3.867   3.989   9.142 -2.1022 -5.1530 -0.2743
 6811SOL    HW221855   3.888   4.052   9.006  2.4080 -2.1035  1.6100
 6812SOL     OW21856   0.864   0.409   0.174 -1.2684  0.1264  0.4196
 6812SOL    HW121857   0.889   0.453   0.094 -1.0870  1.2147  1.0608
 6812SOL    HW221858   0.805   0.470   0.218 -2.0055 -0.7941  0.7420
 6813SOL     OW21859   1.129   3.590   8.824  0.0004 -0.0845  0.3027
 6813SOL    HW121860   1.183   3.524   8.868 -1.5531 -0.5012  1.6556
 6813SOL    HW221861   1.104   3.548   8.741  0.2051 -0.6171  0.5075
 6814SOL     OW21862   0.271   3.770   7.837 -0.1059 -0.1779 -0.2275
 6814SOL    HW121863   0.305   3.770   7.747  0.5224 -1.0972 -0.0095
 6814SOL    HW221864   0.179   3.794   7.828 -0.4994 -1.9265 -1.3137
 6815SOL     OW21865   1.399   2.805   5.395 -0.4949 -0.3559  0.0564
 6815SOL    HW121866   1.465   2.761   5.341 -0.9523  0.1947 -0.9808
 6815SOL    HW221867   1.367   2.737   5.454 -1.7141 -1.6707 -1.9873
 6816SOL     OW21868   3.790   6.705   4.201  0.4462  0.0740 -0.8073
 6816SOL    HW121869   3.734   6.629   4.182  0.3608  0.1482 -0.8479
 6816SOL    HW221870   3.739   6.758   4.261  0.2142  0.4571 -1.3358
 6817SOL     OW21871   7.860   4.725   4.421 -1.0476  0.3441 -0.0597
 6817SOL    HW121872   7.853   4.679   4.505 -0.0646  0.3493  0.0315
 6817SOL    HW221873   7.870   4.817   4.445  1.2467  0.1593 -0.0769
 6818SOL     OW21874   6.509   2.698   0.450  0.2913 -0.2037 -0.0521
 6818SOL    HW121875   6.452   2.621   0.449  0.1208 -0.1067  1.0762
 6818SOL    HW221876   6.476   2.752   0.521  0.7543  0.6648 -0.4718
 6819SOL     OW21877   2.060   2.697   5.066  0.5535 -0.1478  0.1837
 6819SOL    HW121878   2.140   2.716   5.115  0.1404 -1.8559  1.6326
 6819SOL    HW221879   1.994   2.755   5.103  0.0575 -1.9495  2.3319
 6820SOL     OW21880   0.476   1.794   3.300 -0.0098 -0.4006  0.1045
 6820SOL    HW121881   0.539   1.764   3.365 -2.5573 -2.0492  1.9775
 6820SOL    HW221882   0.487   1.734   3.226  1.2900  0.0080 -0.0554
 6821SOL     OW21883   2.834   5.852   1.375 -0.8539 -0.4843 -0.5055
 6821SOL    HW121884   2.883   5.802   1.310 -0.5126 -0.4579 -0.2712
 6821SOL    HW221885   2.833   5.795   1.452  0.5948  0.3464  0.1773
 6822SOL     OW21886   3.535   0.934   2.128 -0.1573 -0.6033 -0.1416
 6822SOL    HW121887   3.487   0.877   2.188  0.5090  0.1850  1.1872
 6822SOL    HW221888   3.596   0.875   2.083 -0.5342 -1.1795  0.0848
 6823SOL     OW21889   1.236   8.065   7.167 -0.5559  0.2844 -0.6147
 6823SOL    HW121890   1.319   8.017   7.165 -0.5919 -0.0727  2.3518
 6823SOL    HW221891   1.236   8.116   7.086  2.6926  0.5402 -0.5839
 6824SOL     OW21892   0.695   4.743   6.827  0.2106 -0.4377  0.1010
 6824SOL    HW121893   0.721   4.694   6.905  1.0069 -0.3574 -0.0995
 6824SOL    HW221894   0.636   4.810   6.859 -1.0000 -1.5958  0.3628
 6825SOL     OW21895   5.394   6.964   4.224  0.0655  0.3344  0.1009
 6825SOL    HW121896   5.412   6.982   4.316  1.2836 -2.5315  0.5333
 6825SOL    HW221897   5.479   6.970   4.181 -0.0920 -0.6023 -0.3699
 6826SOL     OW21898   8.273   3.580   5.448  0.8084  0.1829  0.2134
 6826SOL    HW121899   8.262   3.579   5.543 -0.5639 -2.8744  0.1442
 6826SOL    HW221900   8.197   3.628   5.416 -1.0008 -2.2187  0.6099
 6827SOL     OW21901   7.301   7.186   7.651 -0.5535  0.0257  0.2391
 6827SOL    HW121902   7.223   7.242   7.645 -1.8634 -1.2939  3.0898
 6827SOL    HW221903   7.374   7.247   7.644 -1.7456  1.3408 -2.2682
 6828SOL     OW21904   7.231   0.254   7.701 -0.4464 -0.4361  0.4615
 6828SOL    HW121905   7.267   0.330   7.656 -1.5721 -1.2125 -1.9550
 6828SOL    HW221906   7.222   0.281   7.792  1.3186  1.4937  0.1175
 6829SOL     OW21907   1.679   6.778   4.134  0.0821 -0.5470  0.4311
 6829SOL    HW121908   1.695   6.777   4.039 -0.6423 -1.0355  0.3130
 6829SOL    HW221909   1.594   6.737   4.145 -0.6928  1.1548  1.1476
 6830SOL     OW21910   8.244   4.306   5.316  0.3919 -0.6297 -0.0983
 6830SOL    HW121911   8.319   4.341   5.365  0.4469  1.4121 -1.5333
 6830SOL    HW221912   8.170   4.313   5.377  1.1384 -1.8361  1.0172
 6831SOL     OW21913   2.200   3.565   6.182  0.5948 -0.0544  0.4132
 6831SOL    HW121914   2.289   3.594   6.165  0.4178  1.1310  1.3892
 6831SOL    HW221915   2.162   3.633   6.237 -0.4330 -1.2808  1.2845
 6832SOL     OW21916   8.982   5.921   7.517  0.9992  0.3026 -0.2851
 6832SOL    HW121917   9.005   5.964   7.435 -0.6003 -0.7960 -1.3721
 6832SOL    HW221918   9.023   5.975   7.585  3.2143  0.6697 -1.8134
 6833SOL     OW21919   8.699   1.065   0.925  0.1762  0.4692 -0.1985
 6833SOL    HW121920   8.727   1.009   0.998  0.9123  0.5409 -0.4170
 6833SOL    HW221921   8.644   1.131   0.965 -2.5824 -1.6597 -0.1935
 6834SOL     OW21922   6.615   0.555   7.481  0.4623  0.6682  0.5843
 6834SOL    HW121923   6.705   0.585   7.473  0.4680  0.1969 -2.0235
 6834SOL    HW221924   6.603   0.539   7.574  2.4930  2.4102  1.2198
 6835SOL     OW21925   5.461   4.445   0.360 -0.9304  0.2091 -0.4232
 6835SOL    HW121926   5.376   4.436   0.317 -1.3852 -1.2062  0.6923
 6835SOL    HW221927   5.516   4.380   0.318 -1.2367 -0.8383  0.7470
 6836SOL     OW21928   5.578   3.679   3.030 -0.8185  0.0397 -0.4609
 6836SOL    HW121929   5.598   3.763   3.071 -1.2861  0.5533 -1.2475
 6836SOL    HW221930   5.563   3.701   2.938  1.4878 -1.2562 -1.2124
 6837SOL     OW21931   2.460   7.113   0.431 -0.0692  0.1750  0.5579
 6837SOL    HW121932   2.509   7.186   0.468  1.5312  0.2330 -1.4705
 6837SOL    HW221933   2.379   7.110   0.481 -0.5337  3.8041  0.2682
 6838SOL     OW21934   1.726   0.798   4.156  0.1711  0.6057  0.5264
 6838SOL    HW121935   1.695   0.713   4.125 -2.6620 -0.0967  4.5021
 6838SOL    HW221936   1.706   0.858   4.085 -1.4960 -1.4591 -0.8790
 6839SOL     OW21937   0.018   5.546   2.663  0.0694  0.2534 -0.3962
 6839SOL    HW121938   0.053   5.537   2.751  0.6600 -1.0453 -0.7370
 6839SOL    HW221939   0.094   5.537   2.605 -0.3595  0.7092 -1.0590
 6840SOL     OW21940   7.760   1.711   2.238 -0.9100 -0.6437 -0.2256
 6840SOL    HW121941   7.754   1.690   2.145 -0.7722 -1.7705 -0.0026
 6840SOL    HW221942   7.740   1.629   2.282 -2.1743  0.1690  0.7736
 6841SOL     OW21943   2.238   2.565   1.614 -0.1607 -0.3083 -0.5230
 6841SOL    HW121944   2.330   2.585   1.594  0.8356 -2.8790  1.0025
 6841SOL    HW221945   2.230   2.581   1.708 -0.0020 -3.9283  0.2414
 6842SOL     OW21946   3.528   8.886   5.399 -0.2146  0.0472 -0.1528
 6842SOL    HW121947   3.446   8.931   5.418 -1.1437 -1.2178 -1.0864
 6842SOL    HW221948   3.538   8.892   5.304 -0.7313 -2.3038 -0.3963
 6843SOL     OW21949   0.624   2.295   5.724  0.0776  1.0797  0.3227
 6843SOL    HW121950   0.620   2.214   5.673 -0.8660 -0.4979  2.7225
 6843SOL    HW221951   0.534   2.328   5.724  0.5554  2.5077 -1.0983
 6844SOL     OW21952   3.974   3.425   8.189 -0.2538 -0.2631 -0.7905
 6844SOL    HW121953   3.974   3.344   8.241  2.5707  0.4763  0.5967
 6844SOL    HW221954   3.924   3.487   8.242 -0.9899 -0.6317 -1.0417
 6845SOL     OW21955   5.589   2.744   6.608  0.4883  0.0237  0.0463
 6845SOL    HW121956   5.681   2.762   6.590  0.4891  0.5464  0.5451
 6845SOL    HW221957   5.583   2.736   6.703 -0.0705  0.5615  0.0682
 6846SOL     OW21958   0.198   4.862   3.112  0.2902 -0.6524  0.6959
 6846SOL    HW121959   0.293   4.860   3.115  0.2934 -0.8577  3.2620
 6846SOL    HW221960   0.171   4.781   3.156 -1.0208  0.1978  1.5481
 6847SOL     OW21961   5.419   0.425   9.084 -0.3049 -0.2653 -0.1817
 6847SOL    HW121962   5.347   0.386   9.035 -0.2792 -1.3567  0.6224
 6847SOL    HW221963   5.428   0.370   9.162  0.0662  1.0477  0.7482
 6848SOL     OW21964   8.067   3.844   8.423  0.0858 -0.2882  0.1488
 6848SOL    HW121965   7.986   3.885   8.454 -0.0703 -1.2241  1.0105
 6848SOL    HW221966   8.041   3.794   8.346  0.1521  0.6712 -0.5129
 6849SOL     OW21967   4.650   0.548   1.548  0.7480  0.7121 -0.4288
 6849SOL    HW121968   4.599   0.471   1.571  1.7925  0.4996  1.4750
 6849SOL    HW221969   4.620   0.573   1.461 -0.1326 -1.3990 -0.7837
 6850SOL     OW21970   2.521   5.982   8.273  0.1491  0.1237  0.3989
 6850SOL    HW121971   2.555   6.071   8.282 -0.8468  0.5293  0.2714
 6850SOL    HW221972   2.455   5.974   8.342  0.5108 -0.6636  0.6687
 6851SOL     OW21973   0.401   6.497   5.977 -0.0382  0.2404 -0.2361
 6851SOL    HW121974   0.337   6.561   5.945  0.6158  0.9136 -0.2203
 6851SOL    HW221975   0.482   6.547   5.986  0.1135 -0.2210  1.2599
 6852SOL     OW21976   8.658   1.462   7.307  0.5502 -0.2148  0.4447
 6852SOL    HW121977   8.567   1.440   7.289 -0.1419  1.6397  1.4004
 6852SOL    HW221978   8.707   1.382   7.289 -1.4156 -1.6329  1.1311
 6853SOL     OW21979   5.881   2.088   8.578  0.3068  0.0271 -0.3450
 6853SOL    HW121980   5.969   2.126   8.569 -0.1861  1.0082 -1.1895
 6853SOL    HW221981   5.871   2.034   8.500  0.3694 -0.5311  0.0321
 6854SOL     OW21982   4.793   0.736   3.952  0.4704 -0.1183 -0.2482
 6854SOL    HW121983   4.703   0.704   3.957  0.7228 -0.8675 -0.4420
 6854SOL    HW221984   4.789   0.810   3.891  0.3330 -1.4452 -1.9262
 6855SOL     OW21985   5.691   6.358   1.737  0.2423 -0.8333  0.5925
 6855SOL    HW121986   5.643   6.414   1.799  0.4080  0.2211 -0.2205
 6855SOL    HW221987   5.691   6.272   1.780  0.3415 -0.1455  2.0602
 6856SOL     OW21988   8.789   6.033   6.547  0.0274  0.2758 -0.0920
 6856SOL    HW121989   8.817   6.110   6.596 -1.6425  1.9265 -1.5755
 6856SOL    HW221990   8.725   5.990   6.603 -1.6996  2.0197 -0.6495
 6857SOL     OW21991   9.102   5.972   9.034  0.4239 -0.2022 -0.4445
 6857SOL    HW121992   9.166   5.901   9.027  1.3714  0.4512  1.1498
 6857SOL    HW221993   9.052   5.951   9.113 -0.6705 -0.1573 -1.1094
 6858SOL     OW21994   4.237   2.756   2.320  0.0448 -0.1146  0.5250
 6858SOL    HW121995   4.328   2.730   2.336  0.0478  0.5939  1.8681
 6858SOL    HW221996   4.185   2.699   2.377 -0.0770  1.4645  2.0997
 6859SOL     OW21997   2.760   2.774   6.722  0.0952 -0.3946  0.4133
 6859SOL    HW121998   2.816   2.851   6.713 -1.5126  0.8721  0.7858
 6859SOL    HW221999   2.754   2.760   6.816  0.0545 -0.7239  0.3613
 6860SOL     OW22000   0.073   0.110   4.383 -0.9186  0.3251  0.1464
 6860SOL    HW122001   0.035   0.181   4.333  0.2740  0.8302 -0.0736
 6860SOL    HW222002   0.037   0.121   4.471 -0.6932  1.2513  0.1327
 6861SOL     OW22003   2.221   2.126   6.811  0.1115  0.6075 -0.1061
 6861SOL    HW122004   2.210   2.074   6.731  0.4658 -3.1315  2.0214
 6861SOL    HW222005   2.132   2.137   6.844  0.1609 -0.9287  0.6449
 6862SOL     OW22006   4.231   6.544   2.635 -0.7059  0.4256  0.3371
 6862SOL    HW122007   4.246   6.474   2.699  0.2035 -0.2621 -0.5926
 6862SOL    HW222008   4.153   6.589   2.667 -1.7069 -1.4233  0.6121
 6863SOL     OW22009   5.598   6.306   8.253  0.3591 -0.5009 -0.4161
 6863SOL    HW122010   5.667   6.268   8.308  1.5464 -0.0159 -1.5413
 6863SOL    HW222011   5.524   6.246   8.265  1.4151 -1.8452 -0.2684
 6864SOL     OW22012   1.704   1.528   6.191  0.5850 -0.8799 -0.2691
 6864SOL    HW122013   1.658   1.596   6.143 -0.2288 -0.8942  0.4586
 6864SOL    HW222014   1.637   1.463   6.211  0.4171  0.0077  2.5002
 6865SOL     OW22015   8.250   2.391   6.876  0.0505 -0.6719  0.1762
 6865SOL    HW122016   8.312   2.458   6.845 -0.7332 -0.1932 -0.3827
 6865SOL    HW222017   8.296   2.308   6.861  0.9399 -0.2888  0.6629
 6866SOL     OW22018   5.201   2.829   1.629 -0.1007 -0.0597 -0.0028
 6866SOL    HW122019   5.252   2.784   1.696  1.0358 -0.3865 -1.0448
 6866SOL    HW222020   5.207   2.772   1.552 -2.8182 -0.5572  0.0657
 6867SOL     OW22021   4.977   8.489   3.327 -0.1554  0.5508  0.0591
 6867SOL    HW122022   4.948   8.542   3.402 -1.1966 -0.6490  0.5336
 6867SOL    HW222023   4.955   8.399   3.351 -0.0597  0.0871 -1.4867
 6868SOL     OW22024   4.467   2.118   7.998  0.4220 -0.0072 -0.2137
 6868SOL    HW122025   4.459   2.210   7.971  1.1755  0.4350  0.9856
 6868SOL    HW222026   4.379   2.095   8.027  0.0344  0.0684 -1.2819
 6869SOL     OW22027   6.023   6.328   8.064  0.5130  0.0244  0.6001
 6869SOL    HW122028   6.103   6.325   8.011 -1.1647  2.1504 -2.3820
 6869SOL    HW222029   6.028   6.411   8.111  0.0083  0.2688  0.2335
 6870SOL     OW22030   6.231   2.110   5.840 -0.8438  0.6215 -0.1224
 6870SOL    HW122031   6.313   2.131   5.795  0.0469  0.6978  1.4909
 6870SOL    HW222032   6.188   2.047   5.782 -0.3086  1.6120 -1.6550
 6871SOL     OW22033   0.508   7.494   1.569  0.3325  0.4539  0.1545
 6871SOL    HW122034   0.553   7.518   1.650 -0.7875  0.4212  0.8044
 6871SOL    HW222035   0.422   7.463   1.597 -0.0442  0.3440 -1.0453
 6872SOL     OW22036   5.772   5.894   6.638  0.7980 -0.2883  0.1365
 6872SOL    HW122037   5.768   5.861   6.728 -0.2444  1.7946  0.9397
 6872SOL    HW222038   5.768   5.816   6.583 -0.3053 -1.5371  1.8826
 6873SOL     OW22039   3.041   6.841   2.532  0.7466  0.1001 -0.1979
 6873SOL    HW122040   2.955   6.820   2.494  0.3598 -0.3580  0.8941
 6873SOL    HW222041   3.066   6.761   2.578  2.7233 -0.5117 -2.1871
 6874SOL     OW22042   2.182   4.859   4.213 -0.2046 -0.2544 -0.6734
 6874SOL    HW122043   2.123   4.864   4.138 -0.3683 -1.4654 -0.6474
 6874SOL    HW222044   2.256   4.807   4.183  0.0669 -0.1483 -0.2060
 6875SOL     OW22045   7.324   1.619   1.437 -0.2724 -0.0774 -0.0606
 6875SOL    HW122046   7.269   1.619   1.359 -0.9347  0.5398  0.3865
 6875SOL    HW222047   7.262   1.635   1.509  0.6458  2.1254  0.3184
 6876SOL     OW22048   2.656   3.689   3.496 -0.5422  0.7699 -0.2477
 6876SOL    HW122049   2.657   3.764   3.555 -1.0733  0.7841 -0.2476
 6876SOL    HW222050   2.577   3.641   3.521  0.9981 -1.0812  1.3559
 6877SOL     OW22051   9.035   3.685   7.315  0.4448  0.2475 -0.0124
 6877SOL    HW122052   9.088   3.614   7.352 -0.5177 -1.5817 -1.8847
 6877SOL    HW222053   9.086   3.764   7.331  1.8479 -0.9234  1.6804
 6878SOL     OW22054   0.316   5.837   1.035  0.1051  0.1330 -0.3201
 6878SOL    HW122055   0.352   5.837   1.124  1.4965  0.6369 -0.8442
 6878SOL    HW222056   0.315   5.929   1.009  2.0796 -0.1448 -1.6676
 6879SOL     OW22057   8.075   6.403   3.353  0.4597 -0.5972 -0.0460
 6879SOL    HW122058   8.135   6.330   3.334  0.6108 -0.2728 -0.8670
 6879SOL    HW222059   8.023   6.372   3.427  0.5957 -1.4955 -0.3082
 6880SOL     OW22060   3.478   6.851   5.688 -0.0656 -0.3210  0.7092
 6880SOL    HW122061   3.558   6.881   5.731  0.8391  0.4086 -1.3300
 6880SOL    HW222062   3.509   6.794   5.617 -1.2103  0.8744 -0.8357
 6881SOL     OW22063   4.516   7.897   7.346 -0.1866  0.3394 -0.2564
 6881SOL    HW122064   4.523   7.993   7.348 -1.2541  0.4444 -0.8062
 6881SOL    HW222065   4.508   7.875   7.253  2.4644 -0.5212 -0.3783
 6882SOL     OW22066   0.756   7.954   5.813 -0.4596  0.4228 -0.1210
 6882SOL    HW122067   0.814   7.877   5.812  0.2364  0.9420 -1.2973
 6882SOL    HW222068   0.744   7.974   5.906 -1.0353 -1.3811  0.2334
 6883SOL     OW22069   5.112   4.078   5.680  0.7705 -0.0731  0.4894
 6883SOL    HW122070   5.045   4.073   5.749  0.4962  0.1958  0.2490
 6883SOL    HW222071   5.064   4.112   5.604  0.4092 -2.8739 -0.6567
 6884SOL     OW22072   6.943   0.391   6.151  0.1183  0.5072  0.3189
 6884SOL    HW122073   6.863   0.357   6.110 -0.2031  1.7275 -0.1338
 6884SOL    HW222074   6.964   0.328   6.219 -0.8451 -0.1964 -0.0095
 6885SOL     OW22075   1.783   1.594   2.195 -0.1684  0.0668  0.0022
 6885SOL    HW122076   1.862   1.595   2.249  0.2568  1.2542 -0.6033
 6885SOL    HW222077   1.715   1.557   2.252 -0.0672  2.5025  1.8402
 6886SOL     OW22078   2.063   6.448   3.874 -0.3704 -0.2075  0.2335
 6886SOL    HW122079   2.004   6.390   3.827 -0.8533  0.3740  0.1059
 6886SOL    HW222080   2.028   6.536   3.859  0.9426  0.2344 -0.4500
 6887SOL     OW22081   0.619   4.160   1.357  1.0645 -0.4429  0.1825
 6887SOL    HW122082   0.554   4.091   1.352  1.4277 -0.8433  0.8804
 6887SOL    HW222083   0.686   4.134   1.293  0.5814 -0.0553 -0.5000
 6888SOL     OW22084   2.043   0.360   4.957 -0.4934  0.2515 -0.3747
 6888SOL    HW122085   2.010   0.295   5.019 -2.4606  2.3298  0.9192
 6888SOL    HW222086   2.039   0.318   4.872 -0.3447 -1.7602  0.5630
 6889SOL     OW22087   6.826   7.881   8.023 -0.7961  0.2570 -0.5243
 6889SOL    HW122088   6.846   7.791   7.998  1.3730  0.8370 -1.0266
 6889SOL    HW222089   6.738   7.876   8.061 -0.2963 -2.2521  0.4940
 6890SOL     OW22090   0.696   5.611   3.536  0.1792  0.8230 -0.3267
 6890SOL    HW122091   0.659   5.602   3.624  1.5555  2.1204  0.4473
 6890SOL    HW222092   0.736   5.526   3.518 -0.6294  0.3582  0.0496
 6891SOL     OW22093   6.210   7.729   6.772  0.3548  0.0841 -0.2058
 6891SOL    HW122094   6.286   7.772   6.811  0.4595 -0.2820 -0.0019
 6891SOL    HW222095   6.244   7.647   6.736 -0.1778 -0.7777  1.1498
 6892SOL     OW22096   8.908   1.393   3.159 -0.6206 -0.6396  0.1260
 6892SOL    HW122097   8.930   1.434   3.243 -1.3076 -2.0375  1.0211
 6892SOL    HW222098   8.989   1.399   3.108 -0.1991  0.2483  0.8639
 6893SOL     OW22099   3.379   0.892   0.025  0.4797  0.3739  0.5087
 6893SOL    HW122100   3.308   0.948   0.055 -0.5257  0.3564 -1.6624
 6893SOL    HW222101   3.453   0.951   0.014  0.1800  0.7966  0.7528
 6894SOL     OW22102   7.598   6.631   5.871 -0.7489 -0.6283 -0.1996
 6894SOL    HW122103   7.511   6.653   5.904  0.0035  2.8738 -0.2073
 6894SOL    HW222104   7.645   6.596   5.947 -0.7481  2.0597  1.1447
 6895SOL     OW22105   8.161   5.561   8.626  0.6552  0.0745 -0.1946
 6895SOL    HW122106   8.132   5.627   8.563  1.8952  0.5201 -0.3295
 6895SOL    HW222107   8.191   5.488   8.573 -2.2303 -1.3613 -0.0376
 6896SOL     OW22108   8.281   2.724   0.702 -0.0455  0.6335  0.3637
 6896SOL    HW122109   8.333   2.657   0.747  0.3028  0.4824 -0.2537
 6896SOL    HW222110   8.293   2.705   0.609 -0.8587  0.8602  0.1994
 6897SOL     OW22111   6.892   6.286   2.837  0.3357 -0.1911 -0.1874
 6897SOL    HW122112   6.879   6.376   2.807 -0.9587 -0.0975  0.5501
 6897SOL    HW222113   6.830   6.276   2.909  1.7433 -1.1131  0.9559
 6898SOL     OW22114   4.066   0.306   7.567 -0.3543  0.7586 -0.3015
 6898SOL    HW122115   3.979   0.319   7.605 -0.4212  1.1541 -0.5897
 6898SOL    HW222116   4.074   0.211   7.559  0.0919  0.5844  1.6906
 6899SOL     OW22117   7.662   1.410   2.859  0.3767 -0.3769  0.1017
 6899SOL    HW122118   7.643   1.467   2.934 -0.4336  0.2838 -0.5880
 6899SOL    HW222119   7.756   1.416   2.848  0.3801  0.3213  0.4483
 6900SOL     OW22120   4.906   7.560   3.091 -0.3274  0.3448  0.2240
 6900SOL    HW122121   4.866   7.605   3.017 -0.0720  1.5477  0.7818
 6900SOL    HW222122   5.000   7.561   3.072 -0.3022  0.2335  0.3377
 6901SOL     OW22123   9.258   6.679   2.054  0.5811 -0.3032 -0.5496
 6901SOL    HW122124   9.266   6.764   2.010  1.5817 -1.9389 -3.7954
 6901SOL    HW222125   9.347   6.645   2.056 -0.0058 -1.9004 -0.5998
 6902SOL     OW22126   4.390   6.631   4.794  0.0350  0.1277 -0.5793
 6902SOL    HW122127   4.415   6.539   4.799 -0.8478 -0.0784  0.1436
 6902SOL    HW222128   4.467   6.674   4.758  0.8511 -0.7272  0.0967
 6903SOL     OW22129   5.768   7.288   0.444 -0.0131 -0.0482  0.2953
 6903SOL    HW122130   5.757   7.232   0.521 -1.2587  1.3130  1.1492
 6903SOL    HW222131   5.722   7.241   0.374  2.2262 -1.9402 -0.0399
 6904SOL     OW22132   0.616   4.098   6.219 -0.4819  0.1998  0.4230
 6904SOL    HW122133   0.535   4.065   6.182 -1.9572  2.4639  1.4465
 6904SOL    HW222134   0.659   4.021   6.256 -2.3429 -0.9839  0.2221
 6905SOL     OW22135   5.099   2.871   0.207 -0.0923 -0.6051  0.0122
 6905SOL    HW122136   5.175   2.919   0.173  1.0932 -1.3547  1.4605
 6905SOL    HW222137   5.039   2.939   0.237  1.5939  0.0745  2.1164
 6906SOL     OW22138   0.536   8.131   0.201 -0.3363 -0.7336  0.6736
 6906SOL    HW122139   0.613   8.074   0.196 -0.2646 -0.5403 -0.8989
 6906SOL    HW222140   0.549   8.183   0.281  1.0425 -0.8645  0.5543
 6907SOL     OW22141   8.141   2.045   0.245  0.4304  0.4903  0.9278
 6907SOL    HW122142   8.073   2.107   0.219  1.3565  0.4286 -2.0262
 6907SOL    HW222143   8.218   2.100   0.262  0.2501  0.3974  2.1071
 6908SOL     OW22144   7.730   8.928   8.763  0.1794  0.5679  0.3988
 6908SOL    HW122145   7.825   8.924   8.769  0.1268  0.0744  0.9338
 6908SOL    HW222146   7.699   8.919   8.853 -0.3198  2.5487  0.4815
 6909SOL     OW22147   1.129   1.305   6.700  0.2440  0.1629 -0.1732
 6909SOL    HW122148   1.223   1.320   6.714  0.1565  1.3555 -0.6747
 6909SOL    HW222149   1.108   1.359   6.624 -0.8619 -0.0671 -0.0457
 6910SOL     OW22150   3.284   8.118   8.124 -0.7212  0.0232  0.6725
 6910SOL    HW122151   3.294   8.194   8.181 -0.4885  2.1217 -1.9500
 6910SOL    HW222152   3.357   8.061   8.147 -1.6003 -0.0993  3.5602
 6911SOL     OW22153   3.881   4.546   5.192 -0.1247 -0.2641 -0.3512
 6911SOL    HW122154   3.802   4.512   5.149 -0.9759  0.2959  0.7325
 6911SOL    HW222155   3.915   4.611   5.130 -1.2489  0.4252 -0.2602
 6912SOL     OW22156   7.258   7.256   2.338  0.4078  0.2431 -0.3684
 6912SOL    HW122157   7.178   7.259   2.286  1.2846 -0.3611 -1.8234
 6912SOL    HW222158   7.284   7.163   2.337  0.7983  0.3293  0.6044
 6913SOL     OW22159   7.702   5.431   6.404  0.4506  0.3043 -0.4629
 6913SOL    HW122160   7.739   5.407   6.320  0.0403  0.6595 -0.7544
 6913SOL    HW222161   7.607   5.435   6.388  0.3885  0.6013 -0.0483
 6914SOL     OW22162   4.693   7.034   3.364  0.0075 -0.0098  0.2590
 6914SOL    HW122163   4.771   7.000   3.407 -0.6634  0.5344  2.0061
 6914SOL    HW222164   4.674   6.970   3.295  2.2163  0.0861 -0.5252
 6915SOL     OW22165   6.697   3.790   2.289  0.4096  0.0214  0.3016
 6915SOL    HW122166   6.650   3.716   2.326  0.5160  0.0431  0.4804
 6915SOL    HW222167   6.701   3.771   2.195 -1.0056  0.5954  0.0895
 6916SOL     OW22168   8.418   4.966   0.770  0.2546  0.2879  0.3163
 6916SOL    HW122169   8.342   5.023   0.784 -0.8621 -1.0427 -0.1494
 6916SOL    HW222170   8.413   4.942   0.678  1.0246 -0.1402  0.3820
 6917SOL     OW22171   5.210   6.884   1.162 -0.0827  0.0918  0.5762
 6917SOL    HW122172   5.300   6.860   1.139  0.0035 -0.5131  1.5073
 6917SOL    HW222173   5.177   6.808   1.210 -1.3713 -0.0374 -0.4529
 6918SOL     OW22174   2.930   0.398   9.245  0.2710  0.3281 -0.0797
 6918SOL    HW122175   2.991   0.376   9.175  1.0133  0.0376  0.6546
 6918SOL    HW222176   2.921   0.318   9.297 -0.7104  0.3723 -0.1521
 6919SOL     OW22177   9.097   0.279   4.220  0.5481 -0.1416 -0.1982
 6919SOL    HW122178   9.089   0.362   4.173 -2.5850  0.2770  0.8395
 6919SOL    HW222179   9.089   0.212   4.152  0.3996  0.4143 -0.7342
 6920SOL     OW22180   0.791   5.359   1.937  0.4038 -0.0254 -0.9728
 6920SOL    HW122181   0.720   5.296   1.949  1.2259 -0.7534  0.2271
 6920SOL    HW222182   0.765   5.435   1.989  1.3409 -1.0218  1.0587
 6921SOL     OW22183   1.080   8.852   0.309 -0.3272 -0.0128 -0.0053
 6921SOL    HW122184   1.150   8.855   0.244  1.3987 -1.0464  1.7020
 6921SOL    HW222185   1.000   8.867   0.259  1.0602  0.9887 -2.0779
 6922SOL     OW22186   4.122   2.774   4.838  0.2823  0.1298 -0.0899
 6922SOL    HW122187   4.124   2.761   4.743  1.7027  1.4221 -0.2711
 6922SOL    HW222188   4.157   2.692   4.874  2.0938  0.5388 -0.8279
 6923SOL     OW22189   6.214   0.480   3.929 -0.0527 -0.0770  0.1217
 6923SOL    HW122190   6.163   0.448   4.002  2.4792 -0.6729  1.7482
 6923SOL    HW222191   6.215   0.408   3.866 -1.0258 -0.1151  0.1426
 6924SOL     OW22192   5.322   9.132   6.900  0.3614 -0.5430  0.4552
 6924SOL    HW122193   5.347   9.224   6.909  1.4215 -0.8170  0.5017
 6924SOL    HW222194   5.335   9.114   6.807 -2.9845  0.1892 -0.2782
 6925SOL     OW22195   0.448   7.844   0.579 -0.5611  0.3837  0.3906
 6925SOL    HW122196   0.543   7.836   0.585 -0.4650  1.3372  0.2904
 6925SOL    HW222197   0.428   7.930   0.615 -1.1639  1.1405 -1.6336
 6926SOL     OW22198   0.708   6.600   3.222  0.1028 -0.2293  0.5058
 6926SOL    HW122199   0.732   6.678   3.273 -0.0934 -0.1472  0.4734
 6926SOL    HW222200   0.626   6.570   3.261  0.1119 -0.3447  0.4355
 6927SOL     OW22201   4.653   6.669   8.580  0.2875 -0.1920 -0.1543
 6927SOL    HW122202   4.702   6.725   8.641  0.7238 -0.4968 -0.2217
 6927SOL    HW222203   4.719   6.611   8.542  0.1811  0.5119 -1.5118
 6928SOL     OW22204   2.676   7.701   6.303  0.3532  0.1156 -0.0675
 6928SOL    HW122205   2.590   7.721   6.265  0.4741  1.6373  0.3655
 6928SOL    HW222206   2.685   7.606   6.296 -0.2660  0.1781 -2.4677
 6929SOL     OW22207   8.846   7.872   1.279  0.4463 -0.0056  0.1204
 6929SOL    HW122208   8.822   7.931   1.208  0.3401  0.7251  0.7447
 6929SOL    HW222209   8.936   7.847   1.260  0.2565 -0.2224 -0.5343
 6930SOL     OW22210   1.203   5.693   0.699  0.1456  0.0735 -0.1523
 6930SOL    HW122211   1.127   5.682   0.757 -0.0628  2.1430  0.0478
 6930SOL    HW222212   1.278   5.702   0.758  0.1941  0.3859 -0.2581
 6931SOL     OW22213   7.102   1.872   0.831  0.0173 -0.6397  0.4735
 6931SOL    HW122214   7.157   1.861   0.754  0.8339 -1.6452  1.1701
 6931SOL    HW222215   7.130   1.955   0.869  0.7594 -0.9307  0.5774
 6932SOL     OW22216   1.603   6.737   3.118 -0.0072  0.5322  0.0750
 6932SOL    HW122217   1.618   6.714   3.026  2.0793 -0.4223  0.5973
 6932SOL    HW222218   1.666   6.684   3.167 -0.6385  1.4786  2.0222
 6933SOL     OW22219   4.133   2.170   1.631 -0.7931  0.0857  0.0880
 6933SOL    HW122220   4.181   2.242   1.671  0.7725 -1.8377  1.8868
 6933SOL    HW222221   4.118   2.108   1.702  0.7292 -2.7930 -1.8820
 6934SOL     OW22222   8.957   9.126   6.935 -0.3673 -0.5399  0.1472
 6934SOL    HW122223   8.965   9.066   7.009 -0.9562  0.0032  0.6471
 6934SOL    HW222224   8.864   9.128   6.915 -0.3375  0.1110  0.0509
 6935SOL     OW22225   9.182   1.321   0.150  0.0897 -0.1304  0.6887
 6935SOL    HW122226   9.192   1.351   0.060  0.2957  1.8857  1.3378
 6935SOL    HW222227   9.272   1.311   0.182  0.0221 -1.2267  0.5803
 6936SOL     OW22228   7.840   1.660   6.625  0.2959  0.5628  0.1707
 6936SOL    HW122229   7.827   1.746   6.585 -0.2293  0.4072  0.0037
 6936SOL    HW222230   7.932   1.640   6.610  0.3444  0.9603 -0.0582
 6937SOL     OW22231   5.622   3.814   0.624 -0.5115 -0.0687 -0.0988
 6937SOL    HW122232   5.678   3.820   0.546 -1.2269  1.4387 -0.5181
 6937SOL    HW222233   5.617   3.903   0.657  0.2665 -0.7597  2.0690
 6938SOL     OW22234   5.593   2.584   8.464 -0.2702 -0.2789 -0.3907
 6938SOL    HW122235   5.595   2.591   8.560  1.6337 -1.6937 -0.2690
 6938SOL    HW222236   5.647   2.657   8.434 -1.6782  0.7709 -0.4879
 6939SOL     OW22237   1.445   8.969   1.811 -0.4845  0.1583  0.4054
 6939SOL    HW122238   1.424   8.940   1.722 -0.1025 -1.1407  0.7221
 6939SOL    HW222239   1.419   9.061   1.813  1.3238  0.8011 -1.6812
 6940SOL     OW22240   3.100   8.787   8.359  0.3517 -0.4954  0.1634
 6940SOL    HW122241   3.077   8.879   8.353  0.0843 -0.4419  1.6585
 6940SOL    HW222242   3.020   8.740   8.336  0.8126 -0.4077 -1.8115
 6941SOL     OW22243   4.193   8.000   4.626  0.3741 -0.7829  0.2118
 6941SOL    HW122244   4.222   7.910   4.608  1.4522 -0.4661  0.3173
 6941SOL    HW222245   4.100   8.000   4.604  0.3092 -1.9892  0.4364
 6942SOL     OW22246   5.976   1.919   8.792  0.1203 -0.2267  0.4195
 6942SOL    HW122247   5.985   1.824   8.800  1.0013 -0.3231 -1.2789
 6942SOL    HW222248   5.975   1.935   8.697 -2.0960  1.2863  0.6265
 6943SOL     OW22249   1.094   9.049   1.318 -0.0854  0.3987 -0.0798
 6943SOL    HW122250   1.170   9.087   1.275  0.5672  2.1072  2.3748
 6943SOL    HW222251   1.086   8.961   1.281  2.0790  0.7715 -1.5710
 6944SOL     OW22252   8.178   7.417   3.902  0.6532  0.1526 -0.7115
 6944SOL    HW122253   8.259   7.379   3.934  0.3341  0.7864  0.9286
 6944SOL    HW222254   8.132   7.344   3.860 -0.2468 -1.5327  2.8740
 6945SOL     OW22255   4.698   4.345   2.424 -0.4708 -0.2647 -0.5971
 6945SOL    HW122256   4.690   4.311   2.334 -1.4313 -0.9189 -0.2875
 6945SOL    HW222257   4.612   4.327   2.463 -0.4847  1.1315  0.0804
 6946SOL     OW22258   7.311   0.440   3.860  0.2042 -0.4979  0.1819
 6946SOL    HW122259   7.284   0.380   3.929  0.6451 -1.2801 -0.2983
 6946SOL    HW222260   7.247   0.427   3.790 -0.2468  0.2963  0.4343
 6947SOL     OW22261   1.911   4.621   9.248  0.1893 -0.2750  0.2759
 6947SOL    HW122262   1.839   4.614   9.185  1.3747  0.4104 -1.2284
 6947SOL    HW222263   1.911   4.713   9.273  0.6310 -0.2349  0.1341
 6948SOL     OW22264   6.286   7.255   1.064  0.3632 -0.4403 -0.0183
 6948SOL    HW122265   6.285   7.322   0.995 -0.8572 -0.1349  0.2798
 6948SOL    HW222266   6.207   7.204   1.049  1.0331 -1.5223  0.0597
 6949SOL     OW22267   4.741   3.813   6.339  0.1066  0.5187  0.9585
 6949SOL    HW122268   4.766   3.721   6.343 -3.2481 -0.8133 -2.5611
 6949SOL    HW222269   4.690   3.828   6.419 -0.7793 -1.2658  0.7848
 6950SOL     OW22270   6.281   8.462   4.096 -0.0247 -0.4892  0.1654
 6950SOL    HW122271   6.322   8.377   4.108 -2.9981 -1.7601  2.9642
 6950SOL    HW222272   6.323   8.519   4.160 -0.1431 -0.7586  0.4849
 6951SOL     OW22273   7.883   2.151   2.226 -0.7607  0.0996 -0.4235
 6951SOL    HW122274   7.866   2.066   2.265  1.0793  0.3666  1.1834
 6951SOL    HW222275   7.820   2.210   2.268 -0.9381 -0.1818 -0.2940
 6952SOL     OW22276   1.727   6.244   0.861  0.0917  0.0397 -0.6190
 6952SOL    HW122277   1.647   6.201   0.894 -0.1994  1.0214  0.0247
 6952SOL    HW222278   1.718   6.335   0.891  2.0014 -0.0823  0.4797
 6953SOL     OW22279   2.478   5.526   0.617  1.0527 -0.1067  0.1678
 6953SOL    HW122280   2.464   5.435   0.644  0.1164  0.5669  2.1688
 6953SOL    HW222281   2.404   5.546   0.559 -0.0570  0.0419  1.5941
 6954SOL     OW22282   0.819   8.654   6.974  0.4045  0.1637  0.2102
 6954SOL    HW122283   0.898   8.708   6.966  0.6164 -0.0826  0.6040
 6954SOL    HW222284   0.808   8.615   6.887  0.5859  0.3791  0.0890
 6955SOL     OW22285   6.035   8.541   0.000 -0.0183  0.8462 -0.2771
 6955SOL    HW122286   6.016   8.590  -0.080 -0.7449  0.1311 -0.5516
 6955SOL    HW222287   6.113   8.584   0.036 -0.0845  1.6024 -1.0053
 6956SOL     OW22288   3.513   0.536   4.596 -0.0456 -0.5936 -0.6336
 6956SOL    HW122289   3.456   0.495   4.661  1.3741 -2.2094 -0.3305
 6956SOL    HW222290   3.539   0.464   4.538  0.1345  0.4792 -1.9359
 6957SOL     OW22291   3.766   0.427   0.320 -0.1248 -0.1820 -0.0972
 6957SOL    HW122292   3.782   0.389   0.406 -0.4026 -0.4622 -0.1658
 6957SOL    HW222293   3.671   0.437   0.315 -0.3729 -2.4564 -1.3120
 6958SOL     OW22294   3.551   3.243   4.390  0.1455  0.3317  0.3239
 6958SOL    HW122295   3.494   3.177   4.351 -0.2562  0.3913  0.8033
 6958SOL    HW222296   3.568   3.305   4.319  0.7888 -0.4539 -0.2163
 6959SOL     OW22297   7.156   5.368   3.053 -0.3450  0.3424 -0.1722
 6959SOL    HW122298   7.080   5.425   3.063 -0.9358 -0.3384 -0.7862
 6959SOL    HW222299   7.122   5.287   3.017  0.2381 -1.0487  2.1664
 6960SOL     OW22300   8.609   0.878   6.864 -0.5427 -0.2151  0.2874
 6960SOL    HW122301   8.522   0.870   6.903 -1.4249  0.9269 -1.3618
 6960SOL    HW222302   8.663   0.911   6.936 -1.5280 -0.6038  1.2427
 6961SOL     OW22303   6.251   6.860   4.117 -0.5544  0.3448  0.1068
 6961SOL    HW122304   6.284   6.778   4.080 -0.9597  0.4499 -0.5060
 6961SOL    HW222305   6.299   6.871   4.198  0.6000  0.2743 -0.5484
 6962SOL     OW22306   0.066   3.207   4.858 -0.0579  0.2107  0.5513
 6962SOL    HW122307   0.081   3.136   4.796 -0.0432  0.2250  0.5387
 6962SOL    HW222308   0.069   3.286   4.805 -1.9349  0.1162  0.2400
 6963SOL     OW22309   7.879   8.990   3.639 -0.2346 -0.6690 -0.4441
 6963SOL    HW122310   7.871   8.969   3.732 -0.1261 -0.7900 -0.4622
 6963SOL    HW222311   7.967   8.961   3.615  0.0044  0.0107 -0.4147
 6964SOL     OW22312   2.668   4.685   5.778 -0.0921  0.1782  0.4162
 6964SOL    HW122313   2.594   4.631   5.805 -0.1973 -1.5221 -2.7621
 6964SOL    HW222314   2.633   4.741   5.708  1.6708 -1.1982 -1.6941
 6965SOL     OW22315   3.385   7.608   0.540 -0.3798 -0.8454 -0.8428
 6965SOL    HW122316   3.475   7.614   0.510  0.3960 -2.8139  0.7965
 6965SOL    HW222317   3.363   7.695   0.572  1.3662 -0.6031 -0.2323
 6966SOL     OW22318   1.938   8.982   1.697  0.1509 -0.1236 -0.2343
 6966SOL    HW122319   1.997   8.961   1.769  0.3630  0.9481 -0.0717
 6966SOL    HW222320   1.851   8.964   1.731  0.3056 -0.5764 -0.0660
 6967SOL     OW22321   8.741   1.268   3.810  0.3974 -0.3271  0.3386
 6967SOL    HW122322   8.667   1.278   3.750  0.5658  0.0973  0.1993
 6967SOL    HW222323   8.757   1.356   3.844 -0.7723 -0.8357  2.3194
 6968SOL     OW22324   9.012   4.563   4.001  0.1089  0.2590  0.0637
 6968SOL    HW122325   9.004   4.508   4.079 -1.0433  0.5147  0.1411
 6968SOL    HW222326   8.922   4.585   3.977  0.4715  0.6772 -0.9929
 6969SOL     OW22327   7.005   8.085   3.188  0.0831 -0.5514  0.6102
 6969SOL    HW122328   7.068   8.013   3.199 -0.1882 -0.7606  0.8187
 6969SOL    HW222329   6.921   8.046   3.211 -0.0236 -0.0746  1.0307
 6970SOL     OW22330   0.887   6.260   2.137 -0.0499  0.8672  0.3518
 6970SOL    HW122331   0.874   6.336   2.081  0.8353  0.3916 -0.5176
 6970SOL    HW222332   0.868   6.185   2.081  0.7995  0.3820  0.6964
 6971SOL     OW22333   5.881   3.141   4.981  0.4841  0.3278 -0.1612
 6971SOL    HW122334   5.966   3.184   4.982  2.7336 -3.6254 -1.6307
 6971SOL    HW222335   5.862   3.124   5.073  3.7975 -2.8309  0.1592
 6972SOL     OW22336   3.310   6.940   1.321  0.1313  0.2978  0.0619
 6972SOL    HW122337   3.341   6.891   1.245  0.8251  1.0104 -0.1325
 6972SOL    HW222338   3.332   6.886   1.396 -0.1684 -0.2147 -0.2174
 6973SOL     OW22339   5.756   3.619   4.522 -0.2635 -0.0640  0.3568
 6973SOL    HW122340   5.713   3.655   4.444  0.2918  0.6096  0.3595
 6973SOL    HW222341   5.759   3.525   4.505 -0.3861  0.0448 -0.3172
 6974SOL     OW22342   2.818   4.443   9.113 -0.4860  0.2298  0.3531
 6974SOL    HW122343   2.871   4.429   9.034  0.6916 -0.6855  1.2688
 6974SOL    HW222344   2.857   4.520   9.154 -1.3393  0.9340 -0.1375
 6975SOL     OW22345   1.059   1.028   6.702  0.7091 -0.0090  0.0284
 6975SOL    HW122346   1.001   1.012   6.777  1.0349  0.0245  0.2880
 6975SOL    HW222347   1.077   1.122   6.706  0.1924  0.1162 -0.4819
 6976SOL     OW22348   4.117   6.905   7.328  0.0047  0.3784  0.2121
 6976SOL    HW122349   4.177   6.916   7.402 -0.7651 -0.6011  1.0194
 6976SOL    HW222350   4.040   6.862   7.366 -0.8201  0.7479 -0.9795
 6977SOL     OW22351   8.103   5.578   7.050 -0.5813  0.3313  0.3107
 6977SOL    HW122352   8.106   5.632   6.971 -0.8027  0.1360  0.1687
 6977SOL    HW222353   8.020   5.531   7.045 -0.8691  0.7555  0.9511
 6978SOL     OW22354   0.838   8.092   0.679 -0.5481  0.3182 -0.5699
 6978SOL    HW122355   0.759   8.136   0.711  0.2838  1.8050 -0.4527
 6978SOL    HW222356   0.904   8.110   0.747 -0.3253 -1.7136 -0.1929
 6979SOL     OW22357   2.997   4.597   0.054  0.4660 -0.0660  0.5744
 6979SOL    HW122358   2.960   4.685   0.047  1.9660  0.6841  1.6345
 6979SOL    HW222359   3.008   4.583   0.148 -0.7671 -1.8649  0.5102
 6980SOL     OW22360   3.514   4.798   6.702  0.5431  0.1863 -0.7571
 6980SOL    HW122361   3.452   4.863   6.733  0.3447  0.0597 -0.8850
 6980SOL    HW222362   3.541   4.752   6.782  1.3890  1.0259 -0.5435
 6981SOL     OW22363   6.026   7.899   2.102  0.2454  0.5194 -0.1637
 6981SOL    HW122364   5.954   7.851   2.062  0.5393  1.6754 -2.2159
 6981SOL    HW222365   6.099   7.838   2.101  0.3806  0.6470 -1.9415
 6982SOL     OW22366   5.484   6.091   9.044  0.4241  0.0064  0.2523
 6982SOL    HW122367   5.461   6.075   9.136 -1.5188 -1.3441 -0.3947
 6982SOL    HW222368   5.463   6.183   9.030  0.4180  0.1416  1.0902
 6983SOL     OW22369   8.676   4.430   3.628  0.0680  0.3219  0.1242
 6983SOL    HW122370   8.673   4.352   3.683  2.0635  0.6462  0.7820
 6983SOL    HW222371   8.769   4.439   3.604 -0.5260  0.9979 -2.1528
 6984SOL     OW22372   8.576   6.356   0.595  0.0988  0.0356 -0.1535
 6984SOL    HW122373   8.660   6.362   0.549  0.1005 -0.3919 -0.2093
 6984SOL    HW222374   8.591   6.292   0.665  0.1622  0.8519  0.5980
 6985SOL     OW22375   7.090   4.379   4.507  0.3907 -0.2457  0.3860
 6985SOL    HW122376   7.030   4.413   4.573  0.2861 -0.1441  0.2399
 6985SOL    HW222377   7.033   4.358   4.433  0.5045 -0.3818  0.3378
 6986SOL     OW22378   1.404   2.824   6.760 -0.2401  0.3617 -0.2558
 6986SOL    HW122379   1.409   2.732   6.733  0.5666  0.3740 -0.1947
 6986SOL    HW222380   1.323   2.831   6.810  0.5015 -0.7242  1.1706
 6987SOL     OW22381   7.779   3.231   8.510 -0.3048  0.1391 -0.6073
 6987SOL    HW122382   7.771   3.201   8.419  1.1460 -2.5146  0.0348
 6987SOL    HW222383   7.712   3.298   8.519 -2.1188 -1.1952 -2.9866
 6988SOL     OW22384   4.675   0.926   7.441 -0.3714 -0.0600 -0.4666
 6988SOL    HW122385   4.740   0.977   7.489  2.0798 -1.7329 -1.7845
 6988SOL    HW222386   4.629   0.876   7.508  1.1349 -0.3738  0.3696
 6989SOL     OW22387   5.440   6.801   3.366 -0.0499  0.2792  0.3665
 6989SOL    HW122388   5.505   6.866   3.341  1.5554 -1.5827 -0.5556
 6989SOL    HW222389   5.411   6.762   3.284 -1.5401  0.3228  0.8407
 6990SOL     OW22390   4.519   4.254   4.000  0.2492 -0.0661  0.1547
 6990SOL    HW122391   4.496   4.163   3.982  1.3827 -0.4425  0.5163
 6990SOL    HW222392   4.610   4.250   4.029  0.3598  1.2011  0.0337
 6991SOL     OW22393   9.045   7.956   7.906  0.3767  0.6040 -0.6704
 6991SOL    HW122394   8.960   7.915   7.913 -0.1930  1.9298  0.9607
 6991SOL    HW222395   9.038   8.013   7.829  0.5741 -0.9284 -1.8578
 6992SOL     OW22396   5.709   9.202   2.224 -0.0968 -0.4035 -0.0636
 6992SOL    HW122397   5.696   9.269   2.158  1.8542 -0.0608 -0.1728
 6992SOL    HW222398   5.804   9.201   2.239 -0.2441 -2.0406  1.0839
 6993SOL     OW22399   1.630   5.651   4.801  0.4558 -0.6157 -0.2890
 6993SOL    HW122400   1.706   5.612   4.759 -0.5681 -0.5121 -2.3801
 6993SOL    HW222401   1.583   5.577   4.840  1.0343 -0.8091  0.0562
 6994SOL     OW22402   5.907   1.526   0.451 -0.0542 -0.3074 -0.8102
 6994SOL    HW122403   5.948   1.583   0.516  0.4550  1.5097 -2.5923
 6994SOL    HW222404   5.951   1.442   0.461  2.5588  0.9103 -1.0774
 6995SOL     OW22405   7.095   1.818   6.561 -0.1419 -0.0046  0.4883
 6995SOL    HW122406   7.107   1.853   6.473 -0.3217 -0.0237  0.4564
 6995SOL    HW222407   7.084   1.723   6.548  0.5703 -0.1047  0.5931
 6996SOL     OW22408   0.513   4.222   0.583  0.3834  0.2279 -0.0343
 6996SOL    HW122409   0.432   4.247   0.539  0.5976  1.6729  0.3388
 6996SOL    HW222410   0.582   4.241   0.519  0.4516 -0.8950 -0.3120
 6997SOL     OW22411   1.397   1.352   3.201 -0.0343  0.1847 -0.3739
 6997SOL    HW122412   1.386   1.431   3.149  1.9706  0.4998 -0.3953
 6997SOL    HW222413   1.473   1.308   3.162  0.1645 -0.6854  0.9352
 6998SOL     OW22414   2.106   2.175   2.631 -0.0533 -0.0778  0.0685
 6998SOL    HW122415   2.049   2.108   2.669 -0.5989  0.7600  0.7665
 6998SOL    HW222416   2.188   2.167   2.681  0.0100 -0.4466 -0.0889
 6999SOL     OW22417   1.401   3.880   7.252  0.6493 -0.0329  0.4328
 6999SOL    HW122418   1.487   3.839   7.239  1.4159  1.2905  1.1187
 6999SOL    HW222419   1.370   3.900   7.164  1.1875 -0.2320  0.1935
 7000SOL     OW22420   7.685   0.274   6.589  0.3997  0.0551 -0.6964
 7000SOL    HW122421   7.675   0.297   6.681 -1.1110  0.0094 -0.8219
 7000SOL    HW222422   7.711   0.182   6.589 -1.2453 -0.4434 -0.3144
 7001SOL     OW22423   7.259   8.808   5.656  0.2556 -0.0279  0.4262
 7001SOL    HW122424   7.188   8.750   5.685 -1.1987  0.6555 -1.5316
 7001SOL    HW222425   7.216   8.893   5.643  1.4671  0.4462 -0.6334
 7002SOL     OW22426   0.977   8.735   6.575  0.9402  0.4114  0.7128
 7002SOL    HW122427   0.933   8.656   6.546 -1.2110  2.1934 -1.2691
 7002SOL    HW222428   0.910   8.784   6.623  1.4338  2.1047 -0.2362
 7003SOL     OW22429   4.503   4.429   1.803  0.1730  0.1727 -0.0892
 7003SOL    HW122430   4.591   4.430   1.842 -0.4797 -0.7946  1.4999
 7003SOL    HW222431   4.516   4.389   1.717  1.3582  0.5370 -0.1059
 7004SOL     OW22432   4.995   3.143   0.266 -0.1752  0.4942  0.5790
 7004SOL    HW122433   5.020   3.195   0.342  0.1589  0.8921  0.2016
 7004SOL    HW222434   4.995   3.205   0.193 -0.9809  0.2203  0.3357
 7005SOL     OW22435   0.550   2.229   1.851 -0.0897  0.4960  0.7969
 7005SOL    HW122436   0.593   2.144   1.867 -0.1787  0.1798 -0.5586
 7005SOL    HW222437   0.584   2.286   1.921  0.5632 -0.4411  1.2729
 7006SOL     OW22438   1.166   1.274   8.530  0.2339  0.1218  0.1471
 7006SOL    HW122439   1.231   1.328   8.485 -0.6933  2.2316  1.2411
 7006SOL    HW222440   1.088   1.328   8.536 -0.3370 -0.8270  2.4450
 7007SOL     OW22441   3.559   5.365   3.910 -0.3746 -0.4167  0.4957
 7007SOL    HW122442   3.614   5.366   3.988 -0.8851  0.7983  0.8620
 7007SOL    HW222443   3.476   5.326   3.938  0.0278 -1.6015  0.1118
 7008SOL     OW22444   0.263   2.996   6.510  0.3597 -0.6030  0.2347
 7008SOL    HW122445   0.208   2.926   6.545  0.1994  0.3828  2.0377
 7008SOL    HW222446   0.322   2.951   6.449 -0.6991 -2.0708  0.2305
 7009SOL     OW22447   2.020   6.450   6.869  0.1612 -0.3492  0.5613
 7009SOL    HW122448   2.096   6.448   6.810 -0.4299 -0.6674 -0.2162
 7009SOL    HW222449   2.051   6.411   6.950  0.8067 -0.5732  0.2122
 7010SOL     OW22450   5.584   3.204   4.789  0.1941  1.0550 -0.5109
 7010SOL    HW122451   5.578   3.128   4.731 -0.2457 -1.9220  3.0627
 7010SOL    HW222452   5.675   3.233   4.782  1.1493 -1.5903 -0.0173
 7011SOL     OW22453   6.363   0.777   6.436  0.2006  0.2015  0.3621
 7011SOL    HW122454   6.419   0.783   6.514  0.8249  0.3026 -0.0820
 7011SOL    HW222455   6.275   0.764   6.470  0.4120  0.6448  1.0943
 7012SOL     OW22456   7.322   4.590   6.500  0.4007 -0.2077  0.3350
 7012SOL    HW122457   7.267   4.624   6.571 -1.7387 -1.8234 -0.4462
 7012SOL    HW222458   7.327   4.662   6.437 -1.4767 -0.1991  0.1151
 7013SOL     OW22459   7.445   2.956   8.534 -0.5643  0.6233  0.3709
 7013SOL    HW122460   7.377   2.907   8.580 -0.0249  0.8042  1.3873
 7013SOL    HW222461   7.485   3.012   8.602  0.8641  0.2249 -0.1038
 7014SOL     OW22462   7.880   5.794   3.353  0.2172  0.2961  0.6638
 7014SOL    HW122463   7.974   5.774   3.357  0.1888 -0.0985 -0.3547
 7014SOL    HW222464   7.840   5.713   3.322  0.0296  1.5980 -3.0747
 7015SOL     OW22465   5.023   6.781   0.629 -0.0788 -0.0518 -0.4404
 7015SOL    HW122466   4.972   6.858   0.655 -0.2544 -0.8914  1.9492
 7015SOL    HW222467   5.110   6.816   0.611 -1.0454  1.1948 -3.1892
 7016SOL     OW22468   7.112   8.855   7.125  0.3809  0.3002 -0.7729
 7016SOL    HW122469   7.045   8.858   7.194 -0.4527  0.7216 -1.5763
 7016SOL    HW222470   7.114   8.944   7.090  0.6451  0.0421 -1.4350
 7017SOL     OW22471   2.616   2.110   8.732 -0.9695  0.3242  0.3368
 7017SOL    HW122472   2.671   2.035   8.709 -1.9861 -0.4668  0.3954
 7017SOL    HW222473   2.613   2.163   8.652 -2.6411 -1.2395 -0.7266
 7018SOL     OW22474   1.242   8.883   1.646 -0.3479 -0.4889 -0.1827
 7018SOL    HW122475   1.149   8.906   1.640 -0.2229  0.1176  0.1191
 7018SOL    HW222476   1.257   8.824   1.573 -1.1731 -1.2723  0.2679
 7019SOL     OW22477   7.714   8.431   7.229  0.0100  0.1961 -0.5862
 7019SOL    HW122478   7.628   8.391   7.214  1.2532 -1.6364 -3.5868
 7019SOL    HW222479   7.758   8.373   7.291 -1.0334  1.5285  1.5451
 7020SOL     OW22480   3.443   1.646   0.018  0.3884 -0.2490 -0.1710
 7020SOL    HW122481   3.500   1.612   0.087  1.4766  0.8254 -0.4983
 7020SOL    HW222482   3.499   1.647  -0.060  0.3446  1.9774 -0.2317
 7021SOL     OW22483   8.483   5.904   7.995 -0.2844  0.7089  0.0125
 7021SOL    HW122484   8.477   5.899   7.899  1.7153 -0.3673 -0.1197
 7021SOL    HW222485   8.407   5.854   8.026 -0.4029  0.1983 -1.0334
 7022SOL     OW22486   1.376   6.072   0.184  0.1768 -0.0808 -0.2004
 7022SOL    HW122487   1.429   6.049   0.107  0.8659 -2.1928  0.7955
 7022SOL    HW222488   1.407   6.159   0.210  0.9128  0.0664 -1.5035
 7023SOL     OW22489   1.360   8.381   4.789  0.4824  0.3511 -0.5417
 7023SOL    HW122490   1.428   8.406   4.853  0.1079 -0.1326  0.0624
 7023SOL    HW222491   1.399   8.308   4.741 -0.4286 -1.5789  1.4216
 7024SOL     OW22492   0.327   5.355   7.284 -0.1206 -0.6200  0.1129
 7024SOL    HW122493   0.295   5.443   7.264  0.1625 -0.7953 -1.2045
 7024SOL    HW222494   0.401   5.370   7.344  0.5440  0.1138 -0.8629
 7025SOL     OW22495   8.362   5.923   5.010  0.0477 -0.3281  0.0038
 7025SOL    HW122496   8.443   5.958   5.048 -0.3854  1.4551 -0.6179
 7025SOL    HW222497   8.293   5.954   5.068 -0.3495 -0.2302 -0.5180
 7026SOL     OW22498   0.909   5.959   2.834  0.1691 -0.0215  0.1701
 7026SOL    HW122499   0.948   5.871   2.831  1.9902  0.7647 -2.2600
 7026SOL    HW222500   0.984   6.018   2.840 -0.9309  1.4434 -0.0213
 7027SOL     OW22501   8.442   1.654   4.235 -0.2258  0.2411 -0.0463
 7027SOL    HW122502   8.371   1.716   4.222 -1.6269 -1.4721 -1.0041
 7027SOL    HW222503   8.401   1.578   4.276  1.5027  0.0165  1.4427
 7028SOL     OW22504   7.999   4.633   4.971  0.1282  0.0393  1.0898
 7028SOL    HW122505   7.908   4.612   4.991 -0.7967 -0.9496 -3.2323
 7028SOL    HW222506   8.049   4.563   5.013 -1.4109 -1.1787  1.0072
 7029SOL     OW22507   0.994   5.349   2.320 -0.0457 -0.5401 -0.8962
 7029SOL    HW122508   0.927   5.285   2.297  0.0207 -0.7299 -0.5645
 7029SOL    HW222509   1.071   5.297   2.341 -0.4559 -0.4418  0.9823
 7030SOL     OW22510   8.788   3.706   4.101  0.1165  0.0672 -0.2001
 7030SOL    HW122511   8.843   3.648   4.048  0.5529  1.5424 -1.4546
 7030SOL    HW222512   8.713   3.725   4.044  0.1860  1.0342  0.0192
 7031SOL     OW22513   0.190   4.809   8.029 -0.7723 -0.0840  0.3123
 7031SOL    HW122514   0.098   4.828   8.013 -0.9019 -2.0290 -1.7483
 7031SOL    HW222515   0.226   4.791   7.942  1.6353  0.8755  1.0415
 7032SOL     OW22516   8.645   0.222   3.539 -0.0470  0.2706  0.0316
 7032SOL    HW122517   8.630   0.133   3.572 -0.8525  0.0685 -0.8518
 7032SOL    HW222518   8.613   0.279   3.610  1.5227 -0.1031  1.0914
 7033SOL     OW22519   0.687   4.440   7.851  0.2095 -0.0494 -0.0110
 7033SOL    HW122520   0.606   4.393   7.831  0.0144  0.1826  0.2106
 7033SOL    HW222521   0.756   4.386   7.815 -0.0858  0.0332 -0.7179
 7034SOL     OW22522   3.634   5.056   4.804  0.3873  0.1438  0.5346
 7034SOL    HW122523   3.699   5.096   4.862  0.8664 -1.3971  1.1052
 7034SOL    HW222524   3.679   5.049   4.720  0.9485 -0.8130  0.8984
 7035SOL     OW22525   3.520   0.128   2.564  0.1913 -0.3151  0.3817
 7035SOL    HW122526   3.528   0.178   2.645  2.6475 -0.8357  0.5519
 7035SOL    HW222527   3.533   0.192   2.494 -0.5233 -0.0997  0.4415
 7036SOL     OW22528   2.294   1.991   1.797  0.2696 -0.0342  0.3473
 7036SOL    HW122529   2.343   2.022   1.872  1.1622 -0.4283 -0.0642
 7036SOL    HW222530   2.238   2.065   1.772 -0.1033  0.0709  1.4321
 7037SOL     OW22531   2.088   8.503   5.847  0.3079  0.3069  0.2219
 7037SOL    HW122532   2.158   8.438   5.855 -0.9431 -1.0188  1.1446
 7037SOL    HW222533   2.124   8.572   5.792  2.4383 -0.1636  0.9428
 7038SOL     OW22534   9.174   5.356   3.801  0.1556  0.6577 -0.7689
 7038SOL    HW122535   9.113   5.298   3.846 -1.7705  1.0369 -2.6926
 7038SOL    HW222536   9.175   5.436   3.853 -1.5114  0.8548 -0.9679
 7039SOL     OW22537   1.370   9.013   4.043 -0.2237  0.2029 -0.0126
 7039SOL    HW122538   1.392   8.923   4.023 -2.1493 -0.2547 -0.2771
 7039SOL    HW222539   1.438   9.065   4.000 -0.6183 -1.0124 -2.2635
 7040SOL     OW22540   5.505   7.446   4.788 -0.0264 -0.5017 -0.0542
 7040SOL    HW122541   5.420   7.487   4.772 -0.3242  0.3300  2.9112
 7040SOL    HW222542   5.484   7.357   4.817  0.1253 -0.4950  0.0822
 7041SOL     OW22543   5.978   8.634   7.824  0.8053  0.3001  0.2346
 7041SOL    HW122544   6.020   8.596   7.901  1.2617  0.5040  0.0911
 7041SOL    HW222545   6.038   8.703   7.796  0.1264  0.9428  0.3266
 7042SOL     OW22546   8.560   8.320   0.055  0.2621  0.0534  0.0333
 7042SOL    HW122547   8.607   8.402   0.074  0.4218  0.4039 -1.7165
 7042SOL    HW222548   8.612   8.279  -0.015 -1.5194  0.0078 -1.3237
 7043SOL     OW22549   4.548   8.485   4.546  0.5298  0.2600  0.1680
 7043SOL    HW122550   4.461   8.475   4.508  0.2302  2.9780 -0.0071
 7043SOL    HW222551   4.584   8.396   4.546 -2.6184 -1.1438  1.2931
 7044SOL     OW22552   2.282   4.003   3.832 -0.0703 -0.3656  0.1084
 7044SOL    HW122553   2.336   4.078   3.855 -1.8824  1.5033 -1.3040
 7044SOL    HW222554   2.192   4.037   3.833 -0.9676 -2.5322 -0.5632
 7045SOL     OW22555   3.622   3.317   9.132  0.6355 -0.5898 -0.0202
 7045SOL    HW122556   3.643   3.256   9.203  0.9423 -0.7528 -0.2479
 7045SOL    HW222557   3.599   3.260   9.058  0.2075 -0.4190 -0.0168
 7046SOL     OW22558   0.221   8.989   1.099 -0.3248  0.0368 -0.2625
 7046SOL    HW122559   0.226   9.084   1.093 -1.0331  0.0182 -1.5324
 7046SOL    HW222560   0.266   8.967   1.180  0.3140  1.4087 -0.2301
 7047SOL     OW22561   1.192   8.650   2.871  0.1700  0.4683  0.3955
 7047SOL    HW122562   1.165   8.559   2.876  0.0703  0.4797  0.0662
 7047SOL    HW222563   1.280   8.647   2.833  0.3348  0.4821  0.7700
 7048SOL     OW22564   8.816   5.937   5.688  0.4700 -0.0650  0.3016
 7048SOL    HW122565   8.812   5.842   5.677 -0.5471  0.1567 -1.6549
 7048SOL    HW222566   8.832   5.949   5.782 -2.3814 -2.1405  1.1924
 7049SOL     OW22567   4.277   4.931   3.720  0.7918 -0.7488  0.1326
 7049SOL    HW122568   4.260   4.868   3.790 -2.3985  1.1345  1.2689
 7049SOL    HW222569   4.199   4.927   3.664  0.5065  2.0201  0.2072
 7050SOL     OW22570   1.471   0.369   8.771 -0.0905  0.0689  0.9702
 7050SOL    HW122571   1.461   0.365   8.866  0.4726  0.7519  1.0675
 7050SOL    HW222572   1.530   0.443   8.756 -0.0976 -0.0890  0.0934
 7051SOL     OW22573   5.221   3.414   3.524 -0.8858  0.4117 -0.0294
 7051SOL    HW122574   5.251   3.364   3.449 -0.6534 -0.1697  0.4494
 7051SOL    HW222575   5.222   3.505   3.494  1.7908  0.4978  0.0956
 7052SOL     OW22576   1.810   1.345   7.589 -0.2812  0.1555  0.3332
 7052SOL    HW122577   1.720   1.346   7.558  0.1333 -0.2978 -0.9417
 7052SOL    HW222578   1.863   1.362   7.511  0.7143  1.2070  1.1999
 7053SOL     OW22579   5.222   3.052   5.152 -0.1495  1.2049  0.6238
 7053SOL    HW122580   5.191   3.121   5.094 -1.1805  0.7205  0.5829
 7053SOL    HW222581   5.143   3.008   5.183  0.4939 -1.5658 -1.3016
 7054SOL     OW22582   6.189   1.726   6.745  0.1419 -0.3173  0.0336
 7054SOL    HW122583   6.195   1.809   6.698 -0.3800 -0.9508 -1.1944
 7054SOL    HW222584   6.109   1.686   6.712  0.0916 -1.0569  1.0311
 7055SOL     OW22585   6.271   8.936   3.614 -0.4893  0.1119  0.1506
 7055SOL    HW122586   6.355   8.956   3.572 -1.2423  0.8661 -1.0488
 7055SOL    HW222587   6.236   9.021   3.640 -0.9037 -0.1919  0.5923
 7056SOL     OW22588   9.034   3.175   3.948  0.0988 -0.0527  0.1728
 7056SOL    HW122589   9.004   3.264   3.966 -1.5930 -0.8666  1.7730
 7056SOL    HW222590   9.027   3.165   3.853  1.2586  1.7830 -0.1554
 7057SOL     OW22591   3.111   8.076   0.619 -0.0414  0.9145 -0.0927
 7057SOL    HW122592   3.061   7.995   0.631  1.7668 -0.0917  1.2809
 7057SOL    HW222593   3.135   8.076   0.527  2.8670 -2.0897  0.4547
 7058SOL     OW22594   4.684   6.292   8.515 -0.0405  0.8366 -0.5387
 7058SOL    HW122595   4.590   6.290   8.494 -0.1987 -0.6824  0.1524
 7058SOL    HW222596   4.687   6.308   8.609  0.2617 -1.3845 -0.1183
 7059SOL     OW22597   8.528   6.340   3.183 -0.5024 -0.4417 -0.7128
 7059SOL    HW122598   8.491   6.363   3.098  0.0476 -1.8311 -1.3712
 7059SOL    HW222599   8.572   6.256   3.167  0.2586 -0.3483  0.7656
 7060SOL     OW22600   8.956   4.971   4.186 -0.0629 -0.1628  0.0357
 7060SOL    HW122601   9.042   5.004   4.212 -1.0323  1.8294  0.9440
 7060SOL    HW222602   8.914   5.046   4.143 -2.1361 -0.3345  1.6008
 7061SOL     OW22603   3.798   3.730   4.748  0.2842 -0.8426  0.8023
 7061SOL    HW122604   3.839   3.669   4.809 -1.3599 -2.2773  0.5690
 7061SOL    HW222605   3.744   3.787   4.804  2.2716  0.8792  1.0828
 7062SOL     OW22606   2.190   5.568   0.355  0.2915 -0.3797  0.2440
 7062SOL    HW122607   2.161   5.625   0.284  3.3934  0.5800 -0.4314
 7062SOL    HW222608   2.131   5.494   0.352 -2.2257  1.5204 -0.6345
 7063SOL     OW22609   6.344   4.214   6.917 -0.0859 -0.1874 -0.6153
 7063SOL    HW122610   6.388   4.281   6.866 -0.4645 -1.0649 -2.1598
 7063SOL    HW222611   6.281   4.262   6.971 -0.8932  0.6482 -2.2443
 7064SOL     OW22612   4.636   0.353   4.423 -0.3453 -0.6631 -0.1692
 7064SOL    HW122613   4.608   0.380   4.510  0.3162 -0.9310  0.1333
 7064SOL    HW222614   4.601   0.419   4.364  0.4128  0.3144  0.4465
 7065SOL     OW22615   3.253   7.895   3.295 -0.0553  0.1832  0.0260
 7065SOL    HW122616   3.205   7.817   3.323 -0.0419 -0.2118 -1.0025
 7065SOL    HW222617   3.230   7.962   3.359  0.5181 -0.8532  1.3717
 7066SOL     OW22618   4.307   4.584   0.730 -0.0174  0.4562 -0.3131
 7066SOL    HW122619   4.227   4.615   0.772 -0.1938  0.9929 -1.0073
 7066SOL    HW222620   4.347   4.664   0.695  0.0857  0.0294 -1.1977
 7067SOL     OW22621   5.572   5.127   1.213 -0.0458 -0.1588 -0.0295
 7067SOL    HW122622   5.651   5.168   1.175 -1.8181  1.1732 -2.5957
 7067SOL    HW222623   5.540   5.192   1.275  0.3716 -0.3194  0.3634
 7068SOL     OW22624   3.014   6.051   3.633 -0.5423  0.1304  0.4470
 7068SOL    HW122625   3.020   6.050   3.537 -1.2181  0.0167  0.3988
 7068SOL    HW222626   3.050   5.967   3.660 -1.6209 -0.4297  0.1949
 7069SOL     OW22627   6.400   9.039   3.950 -0.3637  0.1027  0.0002
 7069SOL    HW122628   6.354   8.964   3.913 -1.6797  0.3287  1.1170
 7069SOL    HW222629   6.486   9.037   3.908  0.8733 -3.8655  2.1692
 7070SOL     OW22630   6.921   4.610   0.721  0.5841 -0.0565  0.1354
 7070SOL    HW122631   6.846   4.551   0.707  0.0535  0.8955 -1.2075
 7070SOL    HW222632   6.962   4.577   0.801  0.7744 -2.7294 -0.9758
 7071SOL     OW22633   1.916   6.526   2.123  0.0213 -0.2628  0.1456
 7071SOL    HW122634   1.920   6.530   2.027 -2.2293 -2.6629 -0.1549
 7071SOL    HW222635   1.823   6.537   2.144  0.3337 -0.7703  1.9797
 7072SOL     OW22636   1.230   4.469   0.173  0.0062  0.9236 -0.3083
 7072SOL    HW122637   1.207   4.538   0.235 -1.0307  1.2230 -0.9962
 7072SOL    HW222638   1.228   4.512   0.088  0.5162  0.3082 -0.6333
 7073SOL     OW22639   2.489   2.369   3.147 -0.1769 -0.0076 -0.2621
 7073SOL    HW122640   2.581   2.369   3.177 -0.3717  1.5089  0.4089
 7073SOL    HW222641   2.488   2.427   3.071 -0.7216  0.6724  0.2522
 7074SOL     OW22642   9.078   1.672   4.313  0.7036  0.1600 -0.6075
 7074SOL    HW122643   9.144   1.630   4.258  1.2335  0.3841 -0.1567
 7074SOL    HW222644   9.123   1.689   4.396  0.0751  0.3100 -0.2892
 7075SOL     OW22645   2.464   6.700   0.008  0.2090  0.0505 -0.0606
 7075SOL    HW122646   2.526   6.710   0.080  0.9173 -2.0806 -0.3042
 7075SOL    HW222647   2.511   6.730  -0.070 -0.3703  1.8421  0.2361
 7076SOL     OW22648   8.932   2.514   6.708  0.1288  0.6952  0.4772
 7076SOL    HW122649   8.980   2.486   6.630 -1.1163 -1.9971  0.5659
 7076SOL    HW222650   8.999   2.531   6.773  1.1502  2.1505 -0.8923
 7077SOL     OW22651   4.820   3.440   3.426 -0.0426 -0.0627  0.0974
 7077SOL    HW122652   4.849   3.353   3.453 -0.4809 -0.1733  0.2229
 7077SOL    HW222653   4.901   3.490   3.413  0.2033  0.0151  1.6917
 7078SOL     OW22654   4.407   1.018   1.999  0.0695  0.7733 -0.0572
 7078SOL    HW122655   4.368   0.939   1.963  1.7409 -0.1601  0.0886
 7078SOL    HW222656   4.489   1.029   1.951  0.1207  2.1298  0.2926
 7079SOL     OW22657   5.063   8.371   6.479  0.0423 -0.4059 -0.3540
 7079SOL    HW122658   5.005   8.443   6.454  1.4145  1.2327  0.9010
 7079SOL    HW222659   5.011   8.292   6.467 -1.5294  0.7910 -1.7967
 7080SOL     OW22660   4.578   4.469   0.560 -0.2919 -0.2611  0.0295
 7080SOL    HW122661   4.633   4.546   0.553  0.5725 -0.6962  1.5445
 7080SOL    HW222662   4.521   4.473   0.484  0.6930  1.1018 -0.6736
 7081SOL     OW22663   6.759   6.941   0.908 -0.0017 -0.0395 -0.2413
 7081SOL    HW122664   6.802   6.905   0.986  1.0005  0.1015 -0.7160
 7081SOL    HW222665   6.820   6.923   0.836 -0.0662  1.4500 -0.7075
 7082SOL     OW22666   4.404   3.465   1.779  0.3995 -0.2195 -0.5193
 7082SOL    HW122667   4.354   3.539   1.743 -1.1584 -1.1336 -0.3241
 7082SOL    HW222668   4.387   3.393   1.718  0.3969 -0.9073  0.2768
 7083SOL     OW22669   4.513   6.618   6.038  0.4883  0.4803 -0.9971
 7083SOL    HW122670   4.546   6.616   5.949  2.5249  2.7514 -0.4039
 7083SOL    HW222671   4.495   6.711   6.055 -1.3635 -0.0756  0.4623
 7084SOL     OW22672   2.367   8.556   1.496 -0.3704 -0.3754  0.1367
 7084SOL    HW122673   2.418   8.551   1.577 -0.0808  2.2943  0.2201
 7084SOL    HW222674   2.342   8.648   1.489  1.1589 -0.0485 -3.7053
 7085SOL     OW22675   6.791   1.178   4.413  0.0806 -0.4582 -0.0210
 7085SOL    HW122676   6.831   1.098   4.381 -0.6389 -1.0069  0.4215
 7085SOL    HW222677   6.835   1.248   4.366  0.8039 -1.1083 -0.3181
 7086SOL     OW22678   3.779   4.617   0.018  0.5964 -0.2853 -0.4606
 7086SOL    HW122679   3.753   4.538  -0.029 -0.5800 -1.0956  1.4216
 7086SOL    HW222680   3.838   4.586   0.087  0.6990  0.5765 -0.1467
 7087SOL     OW22681   1.616   7.135   3.874  0.0519 -0.1435 -0.1557
 7087SOL    HW122682   1.681   7.084   3.826  0.4873  0.9733 -0.7950
 7087SOL    HW222683   1.665   7.180   3.942  0.1969  1.5279 -1.2883
 7088SOL     OW22684   6.320   3.039   5.028 -0.0801 -0.3070 -0.8257
 7088SOL    HW122685   6.390   3.091   4.989  1.4212 -1.3520  0.3256
 7088SOL    HW222686   6.263   3.103   5.071  0.8390  0.4887 -0.7634
 7089SOL     OW22687   4.997   0.682   1.651 -0.0146 -0.2209 -0.5106
 7089SOL    HW122688   4.943   0.756   1.680 -0.4000 -0.9393  0.7092
 7089SOL    HW222689   5.087   0.714   1.657 -0.1229 -0.1242  0.9472
 7090SOL     OW22690   2.812   8.306   3.741 -0.3329 -0.2343 -0.1754
 7090SOL    HW122691   2.747   8.363   3.699  0.6152  0.0884 -1.2542
 7090SOL    HW222692   2.784   8.301   3.832 -0.3795  2.0939  0.0023
 7091SOL     OW22693   4.463   3.013   1.643  0.0237 -0.1181 -0.0923
 7091SOL    HW122694   4.437   2.930   1.602 -1.7261  0.3900 -0.0950
 7091SOL    HW222695   4.495   2.987   1.730 -1.9619 -0.7388  0.5260
 7092SOL     OW22696   7.532   4.368   1.123  0.2638 -0.1363  0.3509
 7092SOL    HW122697   7.521   4.292   1.181 -1.2136 -0.1697  0.0667
 7092SOL    HW222698   7.595   4.424   1.169  0.1689 -0.7962  1.3208
 7093SOL     OW22699   9.059   8.155   6.730 -0.0753 -0.2891  0.3831
 7093SOL    HW122700   9.151   8.138   6.747 -0.0509 -1.1686 -0.5487
 7093SOL    HW222701   9.043   8.119   6.642 -1.1325  0.4800  0.2371
 7094SOL     OW22702   6.474   4.835   5.890  0.6402  0.7666  0.2169
 7094SOL    HW122703   6.511   4.813   5.805  2.5064  1.7437  0.7341
 7094SOL    HW222704   6.381   4.812   5.882  1.2684 -1.6799 -1.1856
 7095SOL     OW22705   2.316   6.900   6.420 -0.2103  0.3583  0.2960
 7095SOL    HW122706   2.224   6.879   6.406 -0.4626  0.5301  1.5678
 7095SOL    HW222707   2.342   6.949   6.342 -1.3699  0.8513  0.2021
 7096SOL     OW22708   4.367   6.737   1.990 -0.0103 -0.4457  0.1936
 7096SOL    HW122709   4.327   6.790   1.921  2.2905 -0.5515 -1.3529
 7096SOL    HW222710   4.305   6.665   2.005  0.1759 -1.4754 -3.1863
 7097SOL     OW22711   1.194   0.235   3.493  0.1523  0.2351 -0.1236
 7097SOL    HW122712   1.109   0.191   3.494  1.2499 -2.0224  0.1662
 7097SOL    HW222713   1.252   0.175   3.446  1.4816  1.9742 -0.8076
 7098SOL     OW22714   4.357   7.588   0.237  0.2039  0.5343  0.2882
 7098SOL    HW122715   4.278   7.560   0.283 -0.5314  1.0269 -0.6227
 7098SOL    HW222716   4.428   7.573   0.299 -0.6070  0.0991  1.1370
 7099SOL     OW22717   6.920   6.651   6.249  0.6522  0.5888 -0.3676
 7099SOL    HW122718   7.013   6.667   6.262  1.0446  1.9886 -3.8397
 7099SOL    HW222719   6.914   6.558   6.227  1.3122  0.5689 -0.4892
 7100SOL     OW22720   8.199   0.514   5.121 -0.6810 -0.4905 -0.2668
 7100SOL    HW122721   8.275   0.546   5.169 -0.9533 -0.7060  0.3317
 7100SOL    HW222722   8.209   0.548   5.033 -0.3093  0.1548  0.0208
 7101SOL     OW22723   8.303   4.673   1.520 -0.6499  0.2252 -0.7030
 7101SOL    HW122724   8.363   4.629   1.460 -0.6144  0.1741 -0.6314
 7101SOL    HW222725   8.314   4.626   1.603 -0.8946  0.1248 -0.7287
 7102SOL     OW22726   8.481   8.893   4.763 -0.5555 -0.4193  0.1321
 7102SOL    HW122727   8.432   8.956   4.711 -0.3151 -0.6221 -0.3433
 7102SOL    HW222728   8.452   8.908   4.853 -0.5123  0.3581  0.0238
 7103SOL     OW22729   8.274   1.678   5.007 -0.1994 -0.4916  0.3628
 7103SOL    HW122730   8.351   1.660   4.953 -0.3046 -1.8283  0.6057
 7103SOL    HW222731   8.216   1.728   4.950 -0.2194 -1.6869 -0.7318
 7104SOL     OW22732   3.095   8.227   3.204  0.2243 -0.5289  0.2294
 7104SOL    HW122733   3.146   8.180   3.138 -0.1889 -0.1725 -0.3424
 7104SOL    HW222734   3.120   8.185   3.287  2.6932  0.6851  0.1965
 7105SOL     OW22735   8.493   1.112   2.086 -0.1365 -0.3219 -0.0303
 7105SOL    HW122736   8.406   1.099   2.049  0.4760 -1.2011 -1.2526
 7105SOL    HW222737   8.495   1.056   2.164 -0.0092 -1.9701 -1.1545
 7106SOL     OW22738   6.339   5.174   5.806 -0.2882 -0.1723  0.1325
 7106SOL    HW122739   6.284   5.245   5.838  1.6357  1.6176 -0.2957
 7106SOL    HW222740   6.278   5.104   5.785 -2.6424  2.2482 -1.9119
 7107SOL     OW22741   3.691   5.707   1.575 -0.1441 -0.4590  0.0800
 7107SOL    HW122742   3.608   5.697   1.528  1.1367 -0.1883 -2.3589
 7107SOL    HW222743   3.735   5.623   1.565 -0.4604 -0.9567  2.2393
 7108SOL     OW22744   8.924   6.730   5.032  0.7285  0.0440  0.4618
 7108SOL    HW122745   8.990   6.800   5.034  1.2741 -0.4710  2.1358
 7108SOL    HW222746   8.957   6.667   4.968  0.5575  0.9871 -0.5788
 7109SOL     OW22747   8.012   7.809   5.818 -0.2020 -0.4559 -0.6979
 7109SOL    HW122748   7.963   7.805   5.901 -1.4989 -0.7107 -1.4490
 7109SOL    HW222749   7.953   7.770   5.754  0.6112  0.1352 -1.8301
 7110SOL     OW22750   3.981   8.137   2.408 -0.5700  0.2650  0.1891
 7110SOL    HW122751   4.021   8.149   2.494 -1.0229 -0.4718  0.5106
 7110SOL    HW222752   4.054   8.116   2.350 -0.1330  1.7102  0.1792
 7111SOL     OW22753   2.536   1.778   3.635 -0.0586 -0.2621  0.5540
 7111SOL    HW122754   2.573   1.734   3.711  2.5026  2.3731  1.0130
 7111SOL    HW222755   2.443   1.786   3.655 -0.1009 -2.7430  1.7215
 7112SOL     OW22756   7.741   5.801   6.462 -0.5126 -0.0075  1.0436
 7112SOL    HW122757   7.663   5.763   6.501 -0.3255 -0.8436  0.6306
 7112SOL    HW222758   7.756   5.749   6.383  0.8196 -0.2778  1.4487
 7113SOL     OW22759   6.262   4.186   8.089 -0.1872  0.8720 -0.0761
 7113SOL    HW122760   6.180   4.236   8.091 -0.9611 -0.3021 -0.9231
 7113SOL    HW222761   6.265   4.142   8.174 -0.7297  0.4827 -0.2548
 7114SOL     OW22762   7.600   1.255   8.068 -0.0962 -0.1709 -0.1441
 7114SOL    HW122763   7.512   1.218   8.058 -0.3011  0.6569 -1.5947
 7114SOL    HW222764   7.626   1.229   8.156 -1.4415 -1.1731 -0.0037
 7115SOL     OW22765   7.735   3.238   0.837 -0.6415  0.1321  0.0052
 7115SOL    HW122766   7.768   3.222   0.926  1.0106  0.8005 -0.4522
 7115SOL    HW222767   7.812   3.234   0.782 -1.3282  1.7195 -1.1558
 7116SOL     OW22768   5.630   5.242   6.228  0.4633  0.1257  0.0209
 7116SOL    HW122769   5.586   5.247   6.313  1.4546  0.2372  0.5558
 7116SOL    HW222770   5.693   5.171   6.238  1.2613  0.7612 -0.2753
 7117SOL     OW22771   5.886   2.605   0.633  0.5278 -0.2366  0.0819
 7117SOL    HW122772   5.958   2.632   0.575  1.6068  1.9488  2.2387
 7117SOL    HW222773   5.924   2.538   0.689 -0.0787 -1.2775 -0.7122
 7118SOL     OW22774   4.771   1.938   6.082 -0.0281  0.1116  0.6652
 7118SOL    HW122775   4.721   1.863   6.051  0.2978  1.1370 -2.7286
 7118SOL    HW222776   4.707   2.009   6.088  0.1559  0.2399  1.1658
 7119SOL     OW22777   6.770   2.065   6.068  0.0751 -0.4049 -0.5921
 7119SOL    HW122778   6.729   1.978   6.063  0.3207 -0.6137  0.6997
 7119SOL    HW222779   6.700   2.122   6.101 -0.3439  0.1039 -2.2266
 7120SOL     OW22780   4.838   3.941   1.736  0.3953 -0.5213 -0.1754
 7120SOL    HW122781   4.838   3.879   1.663  1.0661 -0.5362 -0.1658
 7120SOL    HW222782   4.748   3.939   1.769  0.6057 -2.1650  0.4049
 7121SOL     OW22783   3.197   8.726   0.205  0.0940  0.0112 -0.4512
 7121SOL    HW122784   3.201   8.821   0.219 -1.3389 -0.2839  3.1375
 7121SOL    HW222785   3.268   8.691   0.259 -0.8546 -1.0452  0.1446
 7122SOL     OW22786   1.377   2.029   8.122  0.9642  0.6020 -0.0301
 7122SOL    HW122787   1.415   2.009   8.037 -0.2296  2.0641 -0.9533
 7122SOL    HW222788   1.325   2.108   8.108 -1.8405 -0.8652  1.2932
 7123SOL     OW22789   7.752   7.715   4.116  0.1667 -0.5817 -0.2444
 7123SOL    HW122790   7.727   7.735   4.206 -0.4504 -2.8213  0.1328
 7123SOL    HW222791   7.843   7.686   4.122 -0.0613 -1.3064 -0.2462
 7124SOL     OW22792   6.985   3.049   3.239 -0.5346  0.3241  0.4588
 7124SOL    HW122793   6.960   3.122   3.183 -2.0053 -1.5636 -1.4976
 7124SOL    HW222794   7.017   2.981   3.180  2.2592 -0.1850  2.3230
 7125SOL     OW22795   3.303   5.520   8.495  0.0924  0.5774 -0.7720
 7125SOL    HW122796   3.381   5.483   8.536 -0.2913  0.8263  0.2191
 7125SOL    HW222797   3.334   5.599   8.451  0.4398  0.5353 -0.6068
 7126SOL     OW22798   1.323   4.367   1.696 -0.9780  0.4081 -0.2042
 7126SOL    HW122799   1.331   4.427   1.622  1.2212 -1.1552 -1.3397
 7126SOL    HW222800   1.315   4.424   1.772 -0.5700  2.1145 -1.3833
 7127SOL     OW22801   0.555   0.111   4.880  0.0903  0.2242 -0.2916
 7127SOL    HW122802   0.645   0.143   4.886 -0.1417  1.0627 -1.1619
 7127SOL    HW222803   0.502   0.189   4.865 -0.7461 -0.3051 -0.1519
 7128SOL     OW22804   5.788   0.747   9.035  0.6300 -0.2367  0.0312
 7128SOL    HW122805   5.752   0.713   9.117  0.4722  0.6043  0.3163
 7128SOL    HW222806   5.711   0.779   8.987  0.9952  2.2309  0.9478
 7129SOL     OW22807   6.041   1.253   7.197  0.0260  0.2300 -0.2850
 7129SOL    HW122808   6.024   1.324   7.135  0.7620  0.3425 -0.3631
 7129SOL    HW222809   6.123   1.277   7.239  0.3363 -0.6347 -0.3948
 7130SOL     OW22810   7.398   7.367   5.652  0.3607 -0.0580 -0.1650
 7130SOL    HW122811   7.415   7.362   5.746  0.5887 -1.4187 -0.2586
 7130SOL    HW222812   7.482   7.394   5.614  0.3560  0.1761 -0.0125
 7131SOL     OW22813   3.249   3.434   0.843 -0.3654 -0.6266  0.1704
 7131SOL    HW122814   3.259   3.340   0.860 -1.8003 -0.6575  0.9209
 7131SOL    HW222815   3.190   3.465   0.911  1.9223  1.3288  1.4511
 7132SOL     OW22816   0.999   2.919   5.510 -0.0107  0.0513  0.0972
 7132SOL    HW122817   1.048   2.999   5.491  2.0611 -0.7323  1.7842
 7132SOL    HW222818   0.927   2.948   5.565  0.2481  0.8622  0.0243
 7133SOL     OW22819   5.428   1.847   7.711 -0.0848  0.5698 -0.1857
 7133SOL    HW122820   5.455   1.861   7.620 -1.5569 -0.7158 -0.8549
 7133SOL    HW222821   5.347   1.797   7.705  0.0240  0.0608  1.8592
 7134SOL     OW22822   7.207   8.016   2.189  0.0309 -0.7342 -0.2864
 7134SOL    HW122823   7.137   7.993   2.127  0.1323 -0.5184 -0.4845
 7134SOL    HW222824   7.164   8.021   2.274 -0.5339  0.9978 -0.6324
 7135SOL     OW22825   7.774   3.436   3.328 -0.2362 -0.1263  0.1326
 7135SOL    HW122826   7.692   3.437   3.278 -0.0185  2.0384 -0.2700
 7135SOL    HW222827   7.816   3.353   3.305 -0.4712  0.4769 -2.7533
 7136SOL     OW22828   9.181   2.934   3.680 -0.3071  0.2124  0.1069
 7136SOL    HW122829   9.220   3.017   3.706 -0.1713  0.6048 -1.2974
 7136SOL    HW222830   9.239   2.867   3.718 -0.5220  0.7313  1.4010
 7137SOL     OW22831   5.441   7.287   3.934  0.3999 -0.1969 -0.0867
 7137SOL    HW122832   5.534   7.269   3.918  0.2033 -0.3322 -1.1280
 7137SOL    HW222833   5.401   7.284   3.848 -0.2602  1.6902  0.1102
 7138SOL     OW22834   7.316   4.179   5.781 -0.1769  0.0022  0.3610
 7138SOL    HW122835   7.339   4.104   5.836 -0.9029 -0.4182  0.1044
 7138SOL    HW222836   7.253   4.144   5.719  1.1369  0.2834 -1.2138
 7139SOL     OW22837   7.706   0.708   7.354  0.4793 -0.0637  0.1447
 7139SOL    HW122838   7.748   0.626   7.330  0.1752  0.0156 -0.6651
 7139SOL    HW222839   7.638   0.721   7.288  0.2280  0.6114  0.5262
 7140SOL     OW22840   8.636   2.858   2.800  0.0327  0.7081  0.3000
 7140SOL    HW122841   8.665   2.792   2.863 -0.7038  1.1583  1.1335
 7140SOL    HW222842   8.708   2.864   2.736  0.0499 -0.9892  0.1168
 7141SOL     OW22843   2.065   6.081   8.734  0.1290 -0.2549 -0.0920
 7141SOL    HW122844   2.103   6.169   8.731  0.2559 -0.1802  2.0232
 7141SOL    HW222845   2.118   6.034   8.798 -1.1678 -1.2366  0.3125
 7142SOL     OW22846   2.622   6.451   1.012  0.2838  0.2328 -0.1609
 7142SOL    HW122847   2.692   6.486   1.068  1.8615 -0.5665 -1.5446
 7142SOL    HW222848   2.660   6.373   0.973 -2.6628 -2.4471  1.8492
 7143SOL     OW22849   4.263   7.648   6.532  0.1535  0.2359 -0.1709
 7143SOL    HW122850   4.205   7.706   6.482 -1.5282 -0.8626  0.4118
 7143SOL    HW222851   4.328   7.618   6.468 -0.2675  1.0468 -1.0011
 7144SOL     OW22852   8.844   1.663   4.702 -0.1393 -0.3645  0.3071
 7144SOL    HW122853   8.852   1.735   4.640  2.0060 -0.6764  0.1139
 7144SOL    HW222854   8.830   1.705   4.787 -0.0385  0.2179  0.0360
 7145SOL     OW22855   1.164   0.756   5.575  0.2562 -0.3036 -0.4964
 7145SOL    HW122856   1.219   0.703   5.517 -0.6137 -0.4956 -1.1747
 7145SOL    HW222857   1.202   0.843   5.571  0.6527 -0.4869 -0.7742
 7146SOL     OW22858   1.916   8.377   3.757  0.1260  0.3192  0.5249
 7146SOL    HW122859   1.921   8.446   3.691  0.0293  1.1008  1.3230
 7146SOL    HW222860   2.007   8.356   3.778  0.1539  0.2929  0.3803
 7147SOL     OW22861   4.161   1.354   3.901  0.7260 -0.0369 -0.0512
 7147SOL    HW122862   4.135   1.277   3.851  1.4833 -1.5030  1.6674
 7147SOL    HW222863   4.109   1.348   3.981  0.6683  1.3593  0.0267
 7148SOL     OW22864   7.205   1.569   3.622  0.4355 -0.2617 -0.1767
 7148SOL    HW122865   7.252   1.503   3.674  1.3176  1.1853  0.9516
 7148SOL    HW222866   7.263   1.586   3.548  0.5598 -0.2402 -0.0767
 7149SOL     OW22867   2.924   5.059   4.296 -0.2886 -0.0559 -0.1257
 7149SOL    HW122868   2.953   5.039   4.207 -1.2502  2.0788 -0.9986
 7149SOL    HW222869   2.836   5.094   4.285 -0.6626 -0.3072  1.7581
 7150SOL     OW22870   1.558   2.321   7.397  0.4667  0.7786  0.5936
 7150SOL    HW122871   1.596   2.403   7.365 -1.7459  1.4723 -0.4300
 7150SOL    HW222872   1.478   2.348   7.442 -0.7616 -0.8610 -0.4932
 7151SOL     OW22873   0.162   2.519   7.049 -0.2715 -0.7235 -0.1548
 7151SOL    HW122874   0.086   2.466   7.027 -1.5104  1.2353 -0.8499
 7151SOL    HW222875   0.126   2.595   7.094  1.2395  0.3759 -0.7210
 7152SOL     OW22876   2.012   3.483   4.292  0.1163 -0.1180 -0.6213
 7152SOL    HW122877   2.045   3.536   4.220  1.8411 -0.5958 -0.2281
 7152SOL    HW222878   2.046   3.525   4.371 -1.2701  0.0696 -0.0793
 7153SOL     OW22879   9.003   0.447   6.473  0.2345  0.5976 -0.0278
 7153SOL    HW122880   9.059   0.483   6.405 -0.1053  1.1535 -0.0223
 7153SOL    HW222881   9.058   0.385   6.521  0.4792  0.2180 -0.7927
 7154SOL     OW22882   1.507   0.317   4.302  0.0297 -0.2496  0.1883
 7154SOL    HW122883   1.420   0.295   4.336  0.0197  1.5282  1.5031
 7154SOL    HW222884   1.491   0.349   4.214 -0.5567 -0.6499  0.1471
 7155SOL     OW22885   0.481   5.465   4.103  0.0520 -0.0798  0.0903
 7155SOL    HW122886   0.533   5.403   4.052 -0.6067  0.6465 -1.5056
 7155SOL    HW222887   0.408   5.413   4.137 -0.3014 -0.2741 -0.9354
 7156SOL     OW22888   2.070   4.628   6.052 -0.0384 -0.0268  0.5147
 7156SOL    HW122889   1.982   4.616   6.017 -0.0532  3.0590 -0.8164
 7156SOL    HW222890   2.120   4.553   6.019 -1.5513 -0.4518 -0.9352
 7157SOL     OW22891   5.303   0.547   4.298  0.0035  0.4581  0.2132
 7157SOL    HW122892   5.375   0.586   4.346  1.7077  0.8819 -2.4934
 7157SOL    HW222893   5.268   0.618   4.244 -1.3541 -0.1618  0.2130
 7158SOL     OW22894   5.047   6.282   0.588 -0.2975  0.0592  0.2124
 7158SOL    HW122895   5.030   6.283   0.494  0.6641 -2.4121 -0.0578
 7158SOL    HW222896   5.138   6.312   0.597 -0.7679  1.4932  0.5216
 7159SOL     OW22897   3.012   1.815   1.776 -0.2100  0.1562 -0.4608
 7159SOL    HW122898   3.045   1.897   1.812 -1.5257 -0.3463  2.1559
 7159SOL    HW222899   2.931   1.840   1.731  0.5114  0.5420 -1.5937
 7160SOL     OW22900   0.757   9.030   5.475 -0.1717 -0.0507  0.2313
 7160SOL    HW122901   0.663   9.009   5.477  0.1695 -1.7654 -0.3006
 7160SOL    HW222902   0.779   9.050   5.566 -1.0378  0.2940  0.3727
 7161SOL     OW22903   7.024   2.437   4.709 -0.0878  0.3433  0.3458
 7161SOL    HW122904   7.079   2.363   4.682  0.0476  1.1475 -1.7523
 7161SOL    HW222905   6.937   2.400   4.720 -0.0990 -0.1091 -1.0596
 7162SOL     OW22906   2.102   0.792   2.937 -0.5075 -0.2104  0.0316
 7162SOL    HW122907   2.055   0.745   2.868 -1.3026 -1.0950  1.1308
 7162SOL    HW222908   2.191   0.757   2.935 -0.0290  0.9931 -1.6267
 7163SOL     OW22909   8.116   5.080   4.662  0.1930 -0.0019 -0.1395
 7163SOL    HW122910   8.080   5.145   4.723 -1.5382  0.5958 -1.7061
 7163SOL    HW222911   8.070   4.999   4.682  0.8715 -0.2555  0.4493
 7164SOL     OW22912   0.471   6.124   0.216 -0.2617 -0.1897 -0.2911
 7164SOL    HW122913   0.382   6.098   0.192 -1.5259  3.7901 -0.7871
 7164SOL    HW222914   0.526   6.090   0.146 -1.5053 -1.9984 -0.4461
 7165SOL     OW22915   0.762   8.797   3.424  0.3200  0.1994 -0.6911
 7165SOL    HW122916   0.771   8.821   3.332 -0.3690  0.4710 -0.6911
 7165SOL    HW222917   0.791   8.875   3.472 -0.9384  0.6758 -0.6878
 7166SOL     OW22918   6.664   7.796   7.002 -0.2242  0.1025 -0.1668
 7166SOL    HW122919   6.674   7.723   7.063 -1.2026  0.7405  0.7837
 7166SOL    HW222920   6.754   7.824   6.984  0.0750  0.4900  1.7227
 7167SOL     OW22921   7.485   8.222   6.556 -0.2857  0.7548 -0.3171
 7167SOL    HW122922   7.393   8.200   6.545 -0.2248 -0.2443  0.9326
 7167SOL    HW222923   7.497   8.231   6.651  0.8168  1.2386 -0.4812
 7168SOL     OW22924   5.345   4.664   0.452 -0.4607  0.4286  0.4731
 7168SOL    HW122925   5.283   4.657   0.380 -0.7407  0.6736  0.6896
 7168SOL    HW222926   5.405   4.590   0.439  1.4969  2.2536 -1.9003
 7169SOL     OW22927   5.671   4.310   3.355  0.2075 -0.5876 -0.0157
 7169SOL    HW122928   5.610   4.300   3.282 -0.3268  2.0063 -0.0186
 7169SOL    HW222929   5.627   4.269   3.429 -1.8316  1.6251  0.0875
 7170SOL     OW22930   4.498   5.429   8.554  0.8145 -0.5523  0.5865
 7170SOL    HW122931   4.413   5.462   8.585  1.6467 -0.2655  2.7664
 7170SOL    HW222932   4.500   5.452   8.462 -0.4031  1.7781  1.0467
 7171SOL     OW22933   8.796   2.833   2.591  0.8902 -0.3967 -0.1974
 7171SOL    HW122934   8.836   2.781   2.521  1.3169 -0.4349  0.0696
 7171SOL    HW222935   8.818   2.924   2.569  0.2385 -0.3341 -0.6042
 7172SOL     OW22936   3.623   2.548   4.568 -0.1740  0.1034 -0.3620
 7172SOL    HW122937   3.568   2.621   4.598 -0.7115 -0.5352  0.2468
 7172SOL    HW222938   3.702   2.553   4.622  0.2823  0.8949 -1.0881
 7173SOL     OW22939   8.793   8.526   6.347 -0.2630  0.3169 -0.0591
 7173SOL    HW122940   8.824   8.616   6.358 -1.6250  0.7092  0.7339
 7173SOL    HW222941   8.830   8.479   6.422 -0.6971  0.5333  0.2904
 7174SOL     OW22942   3.080   4.370   2.652  0.0524 -0.0578 -0.5519
 7174SOL    HW122943   3.059   4.297   2.593  1.5922 -0.1598 -1.0211
 7174SOL    HW222944   3.116   4.437   2.594  1.3793 -0.0700  0.2204
 7175SOL     OW22945   8.601   5.566   7.910 -0.0214 -0.2037 -0.4354
 7175SOL    HW122946   8.556   5.495   7.863  0.1315 -0.2329 -0.5378
 7175SOL    HW222947   8.560   5.567   7.997 -0.0729 -0.3713 -0.4575
 7176SOL     OW22948   8.130   8.335   0.523  0.4807  0.5382 -0.2930
 7176SOL    HW122949   8.112   8.327   0.617 -0.5728  1.7225 -0.3725
 7176SOL    HW222950   8.043   8.335   0.482  0.7093  3.2907 -0.9728
 7177SOL     OW22951   0.919   5.509   8.504  0.7067 -0.0716  0.1798
 7177SOL    HW122952   0.897   5.427   8.460  1.6892 -0.2097 -0.0763
 7177SOL    HW222953   0.894   5.577   8.442  1.0906 -0.2273 -0.1509
 7178SOL     OW22954   8.904   0.061   1.904  0.1018  0.5963 -0.0325
 7178SOL    HW122955   8.872  -0.029   1.894 -1.9515  1.4351 -1.8415
 7178SOL    HW222956   8.946   0.080   1.820  0.0641  1.5013  0.1488
 7179SOL     OW22957   2.997   1.500   9.005 -0.3133 -0.3385  0.6860
 7179SOL    HW122958   3.073   1.520   9.060  0.2852 -1.9643  0.4944
 7179SOL    HW222959   3.023   1.423   8.955 -1.6395 -0.1680 -0.3229
 7180SOL     OW22960   0.656   8.550   9.141 -0.3592 -0.1537  0.3271
 7180SOL    HW122961   0.699   8.629   9.174  0.0401 -0.3310  0.2453
 7180SOL    HW222962   0.722   8.482   9.151 -0.6343 -0.4368  0.2158
 7181SOL     OW22963   8.664   6.886   2.787  0.4505  0.1275  0.1018
 7181SOL    HW122964   8.757   6.865   2.798  0.4194  0.4567  1.0990
 7181SOL    HW222965   8.631   6.897   2.876 -0.8813 -1.3553 -0.1626
 7182SOL     OW22966   5.867   1.123   7.942 -0.3860 -0.3721 -0.0716
 7182SOL    HW122967   5.937   1.077   7.987  0.0174  1.1553  0.9609
 7182SOL    HW222968   5.819   1.167   8.012 -0.0714  1.6458 -1.0495
 7183SOL     OW22969   9.130   8.760   1.654  0.5211 -0.0419  0.0617
 7183SOL    HW122970   9.193   8.827   1.629 -0.2222 -0.2029 -2.5036
 7183SOL    HW222971   9.044   8.800   1.636  0.0657 -1.9672 -2.7248
 7184SOL     OW22972   0.672   7.474   1.360 -0.3340 -0.7890 -0.2773
 7184SOL    HW122973   0.672   7.563   1.325 -0.9220 -0.1602  1.2592
 7184SOL    HW222974   0.616   7.478   1.438  0.8466 -2.1651  0.6962
 7185SOL     OW22975   0.209   2.573   8.262 -0.1228 -0.0421 -0.2999
 7185SOL    HW122976   0.148   2.647   8.257 -0.4114  0.5311  5.2545
 7185SOL    HW222977   0.152   2.496   8.269 -0.2736  0.2203  2.1879
 7186SOL     OW22978   1.403   4.051   3.573  0.2206 -0.0160 -0.0722
 7186SOL    HW122979   1.480   4.037   3.627 -0.6003 -0.6969  0.9556
 7186SOL    HW222980   1.329   4.029   3.629 -0.6769 -0.5797 -1.4021
 7187SOL     OW22981   5.663   6.607   6.699  0.2086  0.4761 -0.0309
 7187SOL    HW122982   5.702   6.606   6.612  1.2631  2.3982  0.3617
 7187SOL    HW222983   5.581   6.654   6.688 -0.9087 -1.4490 -0.3971
 7188SOL     OW22984   6.875   0.139   8.760 -0.5580  0.1659  0.0533
 7188SOL    HW122985   6.892   0.217   8.706  0.2377  0.0183  0.0822
 7188SOL    HW222986   6.962   0.107   8.785 -0.8511 -1.1099 -0.4856
 7189SOL     OW22987   5.112   8.814   1.252  0.1629 -0.1443 -0.6667
 7189SOL    HW122988   5.039   8.782   1.201  0.0310 -0.3090 -0.3789
 7189SOL    HW222989   5.141   8.738   1.303 -2.0166  0.7892  2.2640
 7190SOL     OW22990   7.948   0.621   9.012  0.4708  0.0961  0.7649
 7190SOL    HW122991   7.854   0.627   9.030  0.8027 -0.2768  2.8288
 7190SOL    HW222992   7.987   0.601   9.096  2.0816 -3.4686 -0.6336
 7191SOL     OW22993   6.340   2.765   1.718  0.2549 -0.4566 -0.1960
 7191SOL    HW122994   6.418   2.713   1.735  0.1012 -0.8827 -0.7782
 7191SOL    HW222995   6.302   2.781   1.804  1.8775  1.1784  0.3055
 7192SOL     OW22996   4.598   2.897   5.842 -0.3669 -0.3316  0.8385
 7192SOL    HW122997   4.678   2.904   5.790 -0.4628  0.4494  0.7872
 7192SOL    HW222998   4.627   2.907   5.932 -0.2833 -1.0469  0.8959
 7193SOL     OW22999   2.613   4.644   7.582  0.4332 -0.7333 -0.2882
 7193SOL    HW123000   2.651   4.731   7.596  0.4872 -0.9729  1.1555
 7193SOL    HW223001   2.527   4.661   7.542  0.8315 -0.0740 -0.8934
 7194SOL     OW23002   5.799   7.167   4.215  0.0126 -0.1535 -0.1722
 7194SOL    HW123003   5.756   7.103   4.159  0.6053 -0.2321 -0.5442
 7194SOL    HW223004   5.732   7.234   4.230  0.2440  0.5824 -2.1289
 7195SOL     OW23005   4.921   4.583   5.053 -0.1703  0.6690  0.5452
 7195SOL    HW123006   4.923   4.578   4.958 -1.4983 -0.8563  0.5515
 7195SOL    HW223007   4.857   4.652   5.072  1.5221  2.3561  0.3795
 7196SOL     OW23008   5.366   9.198   5.376 -0.1145 -0.2355 -1.0399
 7196SOL    HW123009   5.310   9.275   5.373  0.6061  0.2870 -1.3926
 7196SOL    HW223010   5.362   9.162   5.287  0.8961  0.3879 -1.3492
 7197SOL     OW23011   5.518   5.546   1.454 -0.2128 -0.1365 -0.4704
 7197SOL    HW123012   5.604   5.585   1.468 -0.9965  1.4026  0.2083
 7197SOL    HW223013   5.489   5.579   1.369  0.5485 -2.0449 -1.5554
 7198SOL     OW23014   0.817   8.874   2.296  0.2058 -0.0574 -0.6896
 7198SOL    HW123015   0.900   8.921   2.291 -0.2350  0.7617 -0.2927
 7198SOL    HW223016   0.752   8.935   2.262 -0.4038 -0.2994  0.0105
 7199SOL     OW23017   3.436   8.595   8.067  0.4499  0.8735 -0.0226
 7199SOL    HW123018   3.366   8.529   8.062  0.7162  0.3938  1.7879
 7199SOL    HW223019   3.499   8.568   8.000  0.0553 -0.0967 -0.0266
 7200SOL     OW23020   7.341   5.938   1.583 -0.1860  0.1697  0.3575
 7200SOL    HW123021   7.299   5.871   1.529 -0.0046 -0.3513  0.8534
 7200SOL    HW223022   7.408   5.976   1.527  0.3165 -0.6878  0.3674
 7201SOL     OW23023   9.249   5.631   7.693  0.3777 -0.5728 -0.2170
 7201SOL    HW123024   9.251   5.694   7.766  0.5220  1.4746 -1.8860
 7201SOL    HW223025   9.172   5.577   7.711 -1.0870  1.5060  0.2381
 7202SOL     OW23026   7.588   6.752   5.626 -0.2856 -0.5549 -0.0155
 7202SOL    HW123027   7.621   6.709   5.705 -0.6704 -0.9759 -0.0752
 7202SOL    HW223028   7.511   6.801   5.656  0.8165  1.0589  0.2709
 7203SOL     OW23029   3.636   6.206   6.958  0.0638  0.4717 -0.1795
 7203SOL    HW123030   3.703   6.182   6.893 -0.8289 -0.1832 -0.8814
 7203SOL    HW223031   3.669   6.170   7.040  1.6071  2.0014 -0.0574
 7204SOL     OW23032   6.121   2.614   1.598  0.0300  0.0837  0.0021
 7204SOL    HW123033   6.192   2.675   1.620 -0.6474  0.8137  0.2346
 7204SOL    HW223034   6.075   2.600   1.681 -0.5831  0.2654 -0.3021
 7205SOL     OW23035   4.646   0.930   1.558 -1.0220 -0.5357  0.0692
 7205SOL    HW123036   4.675   0.868   1.624 -0.1921  0.7278  0.9368
 7205SOL    HW223037   4.702   0.912   1.482  0.1979  0.0428  0.7953
 7206SOL     OW23038   8.780   2.938   6.453 -0.4012 -0.5897  0.4920
 7206SOL    HW123039   8.824   2.902   6.376  1.2746 -0.4480  1.3446
 7206SOL    HW223040   8.695   2.894   6.454  0.3617 -2.1823 -0.2481
 7207SOL     OW23041   3.556   1.932   1.577  0.1016 -0.5139 -0.5267
 7207SOL    HW123042   3.545   2.017   1.534  0.3128 -0.6904 -0.9326
 7207SOL    HW223043   3.501   1.872   1.526 -0.9081 -0.4123  0.4059
 7208SOL     OW23044   9.243   4.951   2.948  0.2713  0.4653 -0.0411
 7208SOL    HW123045   9.328   4.920   2.980 -0.5553  0.1707  2.0598
 7208SOL    HW223046   9.228   5.033   2.995 -0.7204  0.3455 -0.1288
 7209SOL     OW23047   8.870   6.581   1.229 -0.1238  0.1157  0.2752
 7209SOL    HW123048   8.962   6.558   1.242 -0.5228 -0.6565  1.9917
 7209SOL    HW223049   8.821   6.511   1.272 -1.5022  0.9580  0.1452
 7210SOL     OW23050   5.842   5.333   0.172  0.1128 -0.0372  0.4099
 7210SOL    HW123051   5.809   5.244   0.173  0.1014 -0.0271  1.1926
 7210SOL    HW223052   5.863   5.350   0.080  0.6167 -1.0283  0.3332
 7211SOL     OW23053   4.080   0.871   0.364  0.1622 -0.2994 -0.6566
 7211SOL    HW123054   4.108   0.792   0.317  0.6584 -1.4254  1.4360
 7211SOL    HW223055   4.148   0.936   0.343  1.9446 -1.6254  0.6503
 7212SOL     OW23056   3.239   3.473   6.472  0.5121  0.0552  0.1782
 7212SOL    HW123057   3.226   3.491   6.565 -1.7216  0.0916 -0.0869
 7212SOL    HW223058   3.326   3.433   6.467 -0.0950 -1.8178  2.5659
 7213SOL     OW23059   1.461   2.972   5.043  0.0569  0.2373 -0.0048
 7213SOL    HW123060   1.494   2.893   5.085 -1.7677  0.4959  2.1184
 7213SOL    HW223061   1.503   2.973   4.957  1.8262 -1.8310  0.7502
 7214SOL     OW23062   8.696   2.831   1.741 -0.0340  0.0002  0.6548
 7214SOL    HW123063   8.603   2.836   1.721 -0.1360  1.4389  1.3490
 7214SOL    HW223064   8.739   2.830   1.656 -0.6764 -1.0494  0.3231
 7215SOL     OW23065   5.779   8.015   4.516 -0.8528  0.5346 -0.3846
 7215SOL    HW123066   5.814   7.942   4.465  0.7111  2.8384 -2.9318
 7215SOL    HW223067   5.691   8.029   4.480 -1.0459  0.0857 -0.0884
 7216SOL     OW23068   7.724   8.185   8.249 -0.2950  0.5061  0.5687
 7216SOL    HW123069   7.775   8.197   8.169 -1.6627  0.1552 -0.3665
 7216SOL    HW223070   7.786   8.146   8.311  0.1867 -1.3381 -1.0148
 7217SOL     OW23071   4.499   6.425   6.384 -0.5224 -0.0994 -0.2303
 7217SOL    HW123072   4.406   6.425   6.361 -0.9108  4.0187  0.5187
 7217SOL    HW223073   4.501   6.387   6.472 -1.5016 -0.1673 -0.2238
 7218SOL     OW23074   2.850   1.718   4.874  0.0184 -0.3679  0.1374
 7218SOL    HW123075   2.903   1.735   4.796 -0.8122 -1.0272 -0.5964
 7218SOL    HW223076   2.831   1.625   4.870  0.2070 -0.4681  1.3051
 7219SOL     OW23077   5.723   3.012   0.406  0.0798 -0.0830  0.5128
 7219SOL    HW123078   5.688   2.987   0.321  1.6706  0.0464 -0.2159
 7219SOL    HW223079   5.763   3.098   0.392  1.1759 -0.4616  1.1361
 7220SOL     OW23080   7.981   0.507   3.360 -0.2661 -0.4172 -0.2640
 7220SOL    HW123081   7.923   0.447   3.314  0.4742 -1.6224  0.3189
 7220SOL    HW223082   8.068   0.488   3.325  0.2009 -0.8219  1.0266
 7221SOL     OW23083   3.564   7.118   0.160  0.4042  0.4942  0.0145
 7221SOL    HW123084   3.540   7.032   0.125  0.0565  0.6906 -0.2449
 7221SOL    HW223085   3.568   7.174   0.082  0.6724  0.7010  0.1778
 7222SOL     OW23086   2.375   4.444   8.417  0.1629  0.2153  0.1808
 7222SOL    HW123087   2.364   4.384   8.490  1.4536  2.0120  1.9609
 7222SOL    HW223088   2.372   4.388   8.339  2.6782 -2.4140  1.7607
 7223SOL     OW23089   8.471   9.049   2.100  0.5806  0.2848 -0.3355
 7223SOL    HW123090   8.425   9.011   2.175  0.2961 -0.9513 -1.1062
 7223SOL    HW223091   8.420   9.021   2.024 -0.2116  3.0862 -0.9213
 7224SOL     OW23092   5.334   3.393   8.023  0.6172  0.1343  0.0244
 7224SOL    HW123093   5.385   3.460   7.978  0.9909  0.1559  0.4756
 7224SOL    HW223094   5.320   3.427   8.111 -3.0033  1.6436 -0.9535
 7225SOL     OW23095   7.918   1.463   2.846 -0.0450  0.4105  0.1521
 7225SOL    HW123096   7.965   1.530   2.795 -1.3200  1.9138  0.8519
 7225SOL    HW223097   7.963   1.463   2.931  0.7983 -0.6225 -0.2781
 7226SOL     OW23098   3.601   0.801   4.601  0.0686 -0.3741 -0.5575
 7226SOL    HW123099   3.545   0.872   4.634  1.8112  0.3806  0.9345
 7226SOL    HW223100   3.571   0.723   4.646 -1.6327 -0.5780 -1.9445
 7227SOL     OW23101   3.521   5.696   6.424  0.1469 -0.1134  0.3884
 7227SOL    HW123102   3.514   5.734   6.511 -0.8757 -1.6194  0.9932
 7227SOL    HW223103   3.431   5.687   6.393  0.5137  1.1375 -1.1851
 7228SOL     OW23104   8.733   7.469   8.516  0.1683 -0.2105 -0.5395
 7228SOL    HW123105   8.757   7.556   8.487  0.1489  0.5055  1.4607
 7228SOL    HW223106   8.637   7.469   8.516  0.1683 -0.2293 -0.5249
 7229SOL     OW23107   2.724   2.194   0.445  0.1963  0.3537 -0.5427
 7229SOL    HW123108   2.770   2.111   0.436 -2.3325 -1.4888  1.7562
 7229SOL    HW223109   2.755   2.231   0.527 -0.8620  0.1127 -0.0152
 7230SOL     OW23110   8.021   9.169   6.534 -0.0029 -0.7338 -0.3560
 7230SOL    HW123111   7.940   9.146   6.489 -0.1882  0.8727 -0.9243
 7230SOL    HW223112   8.028   9.106   6.605 -2.9428  0.3646  1.1123
 7231SOL     OW23113   4.939   4.068   7.536  0.6851 -0.1004 -0.7328
 7231SOL    HW123114   4.996   4.110   7.601  0.2829  1.9384 -1.6028
 7231SOL    HW223115   4.913   4.140   7.478  1.6931 -1.9414 -3.6799
 7232SOL     OW23116   8.588   6.052   2.218  0.3773 -0.1713 -0.3919
 7232SOL    HW123117   8.609   5.959   2.210 -0.2940 -0.4296  0.6793
 7232SOL    HW223118   8.500   6.054   2.254 -1.5632  0.8620 -4.5232
 7233SOL     OW23119   1.041   0.245   7.241 -0.0940 -0.3975  0.1419
 7233SOL    HW123120   0.977   0.175   7.235 -0.8043  0.2539 -0.0705
 7233SOL    HW223121   1.010   0.300   7.313 -1.2125  1.2928 -1.5192
 7234SOL     OW23122   7.936   8.099   1.332  0.0377 -0.2603  0.3104
 7234SOL    HW123123   7.843   8.120   1.337  0.2454  0.7403  0.2520
 7234SOL    HW223124   7.943   8.009   1.365 -1.0150 -0.5654 -0.2538
 7235SOL     OW23125   4.508   7.994   5.439  0.0432  0.1191 -0.0639
 7235SOL    HW123126   4.596   8.018   5.469 -0.0757  1.5326 -0.7367
 7235SOL    HW223127   4.521   7.918   5.383  0.8549  0.3996 -0.2638
 7236SOL     OW23128   3.712   7.343   2.105 -0.1281 -0.3702 -0.2710
 7236SOL    HW123129   3.659   7.416   2.074 -0.6437 -0.1661  1.0021
 7236SOL    HW223130   3.656   7.299   2.170  1.2718 -0.0631  1.2149
 7237SOL     OW23131   9.183   7.695   8.256  0.0638  0.2433  0.4538
 7237SOL    HW123132   9.256   7.693   8.318  1.1662 -2.4380 -0.7414
 7237SOL    HW223133   9.173   7.604   8.228 -1.0254  1.1482 -2.5389
 7238SOL     OW23134   4.946   7.402   7.256 -0.1513  0.0813  0.0853
 7238SOL    HW123135   4.969   7.419   7.165 -1.3605  1.2516 -0.0246
 7238SOL    HW223136   4.876   7.337   7.252  0.2602 -0.3809  0.2301
 7239SOL     OW23137   8.403   1.542   1.408 -0.1562 -0.1659 -0.1004
 7239SOL    HW123138   8.365   1.544   1.495 -0.7629  0.3353 -0.3733
 7239SOL    HW223139   8.498   1.548   1.423 -0.1264 -1.7034  0.5935
 7240SOL     OW23140   0.929   0.285   3.268 -0.0022 -0.7761  0.1066
 7240SOL    HW123141   0.893   0.358   3.318 -1.1920 -1.7348  0.6950
 7240SOL    HW223142   0.967   0.226   3.334 -0.3508 -1.3783 -0.2166
 7241SOL     OW23143   4.560   3.897   4.848  0.2439 -0.5218  0.1960
 7241SOL    HW123144   4.503   3.943   4.787  0.7531 -0.3952 -0.1945
 7241SOL    HW223145   4.570   3.957   4.922  1.4914  0.3307 -0.6319
 7242SOL     OW23146   0.875   5.074   4.787 -0.1073 -0.2372  0.0289
 7242SOL    HW123147   0.937   5.142   4.810  2.0550 -1.6301 -1.3134
 7242SOL    HW223148   0.824   5.060   4.867 -0.9729  3.1588  0.2169
 7243SOL     OW23149   6.968   0.323   1.185  0.2538 -0.2195 -0.0001
 7243SOL    HW123150   6.953   0.233   1.158 -0.9084 -0.0478  0.0229
 7243SOL    HW223151   7.041   0.318   1.247  0.6340 -1.0492 -0.5024
 7244SOL     OW23152   8.413   3.533   8.728  0.4367 -0.1348  0.0612
 7244SOL    HW123153   8.399   3.597   8.798 -0.1900  1.2170 -1.2290
 7244SOL    HW223154   8.358   3.565   8.656  0.8353 -1.6367 -0.9466
 7245SOL     OW23155   7.730   6.448   4.250 -0.3732  0.1047  0.7039
 7245SOL    HW123156   7.740   6.498   4.169  2.6524 -1.6535 -0.1808
 7245SOL    HW223157   7.636   6.449   4.267 -0.8438  2.6532 -1.4183
 7246SOL     OW23158   0.943   5.305   1.447  0.0775 -0.2957  0.2107
 7246SOL    HW123159   0.926   5.350   1.364  1.5953 -1.3814 -0.7396
 7246SOL    HW223160   0.866   5.324   1.501 -0.0947  1.9904 -0.7412
 7247SOL     OW23161   4.159   7.332   8.960  0.0017 -0.6722 -0.2648
 7247SOL    HW123162   4.144   7.350   9.053  0.0360 -0.2436 -0.3398
 7247SOL    HW223163   4.235   7.274   8.959 -1.2255 -2.3570  0.0838
 7248SOL     OW23164   7.143   5.968   0.028  0.5091  0.0729  0.8050
 7248SOL    HW123165   7.057   5.928   0.012  1.2665 -0.5594 -2.3095
 7248SOL    HW223166   7.142   6.048  -0.025  1.9877 -0.1326  0.4399
 7249SOL     OW23167   1.084   1.971   5.653 -0.3023 -0.0201  0.2592
 7249SOL    HW123168   1.118   2.057   5.628 -0.5970  0.0470  0.0958
 7249SOL    HW223169   1.161   1.924   5.686  0.0837 -0.1010 -0.7306
 7250SOL     OW23170   4.564   7.844   1.278  0.0320  0.0210  0.0945
 7250SOL    HW123171   4.569   7.939   1.285 -0.1334 -0.0914  3.0607
 7250SOL    HW223172   4.629   7.812   1.341  2.2409 -1.9486 -2.8993
 7251SOL     OW23173   3.951   6.664   9.256  0.3905 -0.6128  0.0237
 7251SOL    HW123174   3.929   6.734   9.195 -0.6513  1.2091  2.3374
 7251SOL    HW223175   4.032   6.626   9.221  1.1166  1.8759 -1.2353
 7252SOL     OW23176   7.414   2.415   1.145 -0.1271  0.3621 -0.0982
 7252SOL    HW123177   7.421   2.403   1.050  1.3175  2.1434 -0.2792
 7252SOL    HW223178   7.486   2.362   1.181 -0.6820 -0.3226  0.0320
 7253SOL     OW23179   0.479   0.926   0.651 -0.7888 -0.9811 -0.2108
 7253SOL    HW123180   0.416   0.991   0.623 -0.5459  0.0605  1.4916
 7253SOL    HW223181   0.467   0.920   0.746  0.3435 -2.1878 -0.1052
 7254SOL     OW23182   3.504   5.705   6.093  0.2480 -0.0134 -0.1121
 7254SOL    HW123183   3.412   5.699   6.068  0.8107  0.6541 -2.6102
 7254SOL    HW223184   3.509   5.784   6.146 -0.5298  0.2188 -0.3747
 7255SOL     OW23185   4.692   8.784   9.266 -0.0595  0.1168  1.1420
 7255SOL    HW123186   4.704   8.879   9.263 -1.9388  0.3760 -0.3086
 7255SOL    HW223187   4.652   8.763   9.182  1.9576 -2.2640  0.6557
 7256SOL     OW23188   8.660   4.792   4.479  0.0242  0.6892  0.2610
 7256SOL    HW123189   8.678   4.773   4.571 -0.7579  0.8860  0.4673
 7256SOL    HW223190   8.675   4.708   4.434 -1.8061 -0.0501  0.9224
 7257SOL     OW23191   1.446   8.025   8.860  1.0206 -0.1415  0.1339
 7257SOL    HW123192   1.394   8.079   8.800 -2.2988 -1.8563  1.2505
 7257SOL    HW223193   1.440   7.936   8.824 -0.1051 -1.0162  2.3377
 7258SOL     OW23194   0.008   7.865   1.074 -0.0047 -0.7985 -0.6405
 7258SOL    HW123195  -0.008   7.921   0.998  0.3455 -1.1971 -1.0133
 7258SOL    HW223196   0.102   7.846   1.070  0.5351  1.0781  1.2075
 7259SOL     OW23197   1.444   1.350   6.210 -0.3680  0.3589  0.2500
 7259SOL    HW123198   1.433   1.405   6.287 -0.3186 -0.3226  0.7490
 7259SOL    HW223199   1.401   1.398   6.139 -3.5554 -0.6069  1.3782
 7260SOL     OW23200   9.006   1.808   1.005  0.0607  0.4124  0.4312
 7260SOL    HW123201   9.054   1.780   0.927 -1.4475 -3.8147  0.7556
 7260SOL    HW223202   8.928   1.851   0.970  0.3586  0.3598 -0.3358
 7261SOL     OW23203   4.243   6.772   8.050 -0.6157 -0.9842  0.3574
 7261SOL    HW123204   4.220   6.778   8.143 -0.2309 -0.1866  0.4086
 7261SOL    HW223205   4.328   6.729   8.049 -1.0604 -1.8776  0.3080
 7262SOL     OW23206   4.659   1.195   3.367  0.2207 -0.2721  0.0137
 7262SOL    HW123207   4.632   1.109   3.336 -1.1946 -0.0521  0.5422
 7262SOL    HW223208   4.683   1.182   3.459 -0.1578 -0.0785  0.1426
 7263SOL     OW23209   6.563   1.519   0.447 -0.3427  0.2978  0.1963
 7263SOL    HW123210   6.504   1.535   0.521 -1.3865 -0.2464 -0.4928
 7263SOL    HW223211   6.644   1.487   0.487 -0.4671  1.1508  1.1650
 7264SOL     OW23212   5.336   9.068   6.114  0.2977 -0.6400  0.3588
 7264SOL    HW123213   5.348   9.032   6.026 -2.4203 -1.3310  0.1849
 7264SOL    HW223214   5.418   9.047   6.159  1.7163 -0.3781 -1.9234
 7265SOL     OW23215   4.693   2.928   9.067 -0.1238 -0.1047  0.0699
 7265SOL    HW123216   4.660   2.966   8.986 -2.3995 -1.1156  0.4683
 7265SOL    HW223217   4.773   2.881   9.041 -1.0915 -0.8548 -1.6995
 7266SOL     OW23218   7.990   1.313   4.759  0.0393 -0.1297  0.0032
 7266SOL    HW123219   7.902   1.350   4.752  0.1839  0.2390  0.1454
 7266SOL    HW223220   7.995   1.281   4.850  0.0196 -0.2392 -0.0337
 7267SOL     OW23221   6.564   1.927   8.379 -0.4880  0.2008  0.0445
 7267SOL    HW123222   6.595   1.841   8.352 -0.0520  0.6571 -0.9808
 7267SOL    HW223223   6.627   1.988   8.340 -0.3451  0.9575  1.3878
 7268SOL     OW23224   9.272   7.543   9.258 -0.8377 -0.3284  1.3064
 7268SOL    HW123225   9.196   7.485   9.249 -0.6311 -0.4498  0.2802
 7268SOL    HW223226   9.329   7.521   9.184 -0.2962  0.4984  1.4592
 7269SOL     OW23227   8.692   0.513   2.090 -0.2723  0.1208  0.0080
 7269SOL    HW123228   8.727   0.424   2.082 -2.0515 -0.6789  0.3969
 7269SOL    HW223229   8.737   0.549   2.166  0.6047 -0.3794 -0.2603
 7270SOL     OW23230   6.089   3.253   7.309  0.4015  0.5880 -0.3699
 7270SOL    HW123231   6.002   3.285   7.331  0.6897  1.5204 -0.5521
 7270SOL    HW223232   6.075   3.188   7.240 -0.3121 -0.7326  0.9516
 7271SOL     OW23233   8.503   7.742   3.543 -0.3511  0.1120  0.1164
 7271SOL    HW123234   8.516   7.727   3.449 -0.2056 -1.3060  0.3309
 7271SOL    HW223235   8.411   7.766   3.551 -0.5961 -0.6432 -0.3118
 7272SOL     OW23236   6.728   6.769   8.864 -0.0761  0.0564  0.4084
 7272SOL    HW123237   6.805   6.724   8.829 -0.6351  0.2406 -1.1238
 7272SOL    HW223238   6.763   6.849   8.904  0.4629  0.5568 -1.0163
 7273SOL     OW23239   5.527   6.625   0.978  0.1704 -0.4093 -0.1932
 7273SOL    HW123240   5.536   6.697   1.040  1.0115  0.5283 -1.3688
 7273SOL    HW223241   5.439   6.635   0.941 -0.3170 -0.9466  0.7781
 7274SOL     OW23242   4.316   7.708   3.686  0.6274  0.3037 -0.2753
 7274SOL    HW123243   4.339   7.758   3.608  1.5488 -0.2843 -0.3979
 7274SOL    HW223244   4.394   7.712   3.742 -0.3463  1.5109  1.0604
 7275SOL     OW23245   8.892   1.583   7.228 -0.4007 -0.1951  0.1972
 7275SOL    HW123246   8.915   1.548   7.142 -0.1821 -0.4941  0.3780
 7275SOL    HW223247   8.815   1.533   7.256 -1.2931  0.7950 -0.3999
 7276SOL     OW23248   7.343   1.119   0.024 -0.5953 -0.1076  0.1398
 7276SOL    HW123249   7.431   1.154   0.009 -1.3028  2.0256  0.6075
 7276SOL    HW223250   7.323   1.069  -0.055  1.6235 -2.0138  0.7009
 7277SOL     OW23251   2.768   5.282   6.423  0.5944  0.3258  0.4006
 7277SOL    HW123252   2.812   5.317   6.501  0.5067 -0.9051  1.0171
 7277SOL    HW223253   2.794   5.190   6.420 -1.2707 -0.2279  0.3088
 7278SOL     OW23254   1.838   6.734   8.911 -0.0979  0.3834  0.0265
 7278SOL    HW123255   1.851   6.640   8.904  0.5702  0.5270 -0.8838
 7278SOL    HW223256   1.840   6.765   8.820  2.2973  1.5822  0.4119
 7279SOL     OW23257   5.657   0.167   2.076  0.5820  0.4915  0.1310
 7279SOL    HW123258   5.584   0.141   2.020  0.9168  1.1792 -0.6520
 7279SOL    HW223259   5.635   0.256   2.104 -0.1226 -0.2365  2.0332
 7280SOL     OW23260   2.635   1.445   2.649  0.2874 -0.3374  0.0998
 7280SOL    HW123261   2.708   1.508   2.650  0.5780 -0.6691  0.4874
 7280SOL    HW223262   2.619   1.428   2.556 -0.0966  0.6473 -0.0205
 7281SOL     OW23263   6.498   3.139   0.786 -0.2563  0.1134 -0.1298
 7281SOL    HW123264   6.432   3.161   0.852  0.3935  0.9451  0.2567
 7281SOL    HW223265   6.581   3.140   0.834  0.1192 -0.2001 -0.7684
 7282SOL     OW23266   4.796   7.012   5.363 -0.1871  0.1385  0.5086
 7282SOL    HW123267   4.774   6.960   5.440  0.7122 -1.3208 -0.1602
 7282SOL    HW223268   4.891   7.026   5.370  0.1071 -0.9170 -0.8038
 7283SOL     OW23269   6.460   3.143   6.778 -1.1776  0.2746 -0.3543
 7283SOL    HW123270   6.483   3.195   6.855 -0.3054 -1.4023  0.5634
 7283SOL    HW223271   6.374   3.107   6.798 -1.8164  1.3370 -1.0240
 7284SOL     OW23272   6.796   6.803   0.521 -0.5255 -0.2871  0.3518
 7284SOL    HW123273   6.731   6.862   0.560 -0.0526  0.8084 -0.4675
 7284SOL    HW223274   6.787   6.818   0.426 -0.0439 -1.1711  0.1611
 7285SOL     OW23275   4.857   1.936   2.428  0.0695 -0.0625  0.1526
 7285SOL    HW123276   4.906   1.908   2.506  0.2702 -1.9503 -0.5849
 7285SOL    HW223277   4.920   1.988   2.378  1.2901 -2.1019 -0.5737
 7286SOL     OW23278   0.140   8.239   2.425  0.0289  0.4900 -0.1565
 7286SOL    HW123279   0.052   8.277   2.419 -1.5430 -2.8022 -0.0648
 7286SOL    HW223280   0.169   8.234   2.334 -0.9470 -0.5800 -0.4325
 7287SOL     OW23281   2.289   6.387   2.641 -0.1931 -0.0098  0.2669
 7287SOL    HW123282   2.292   6.328   2.715 -1.1702  0.4665  0.7108
 7287SOL    HW223283   2.331   6.467   2.672 -1.0653  0.3755  0.5150
 7288SOL     OW23284   4.285   2.421   2.123  0.3574  0.1003 -0.7211
 7288SOL    HW123285   4.239   2.338   2.110 -1.1014  0.5792  0.9545
 7288SOL    HW223286   4.302   2.424   2.217 -1.7216  2.6858 -0.3081
 7289SOL     OW23287   9.032   7.295   5.005  0.3141  0.2199  0.0834
 7289SOL    HW123288   9.023   7.332   5.093  1.4491  0.8325 -0.0460
 7289SOL    HW223289   8.999   7.364   4.947  2.5090  1.1213 -0.1650
 7290SOL     OW23290   5.151   6.742   4.202  0.1062  0.0275  0.1658
 7290SOL    HW123291   5.183   6.703   4.284  2.3372  0.5584 -0.3831
 7290SOL    HW223292   5.135   6.834   4.224  1.2676  0.3096 -0.0897
 7291SOL     OW23293   6.135   5.535   7.278 -0.2451 -0.0947  0.1330
 7291SOL    HW123294   6.201   5.470   7.302  0.8794  0.7603 -0.5426
 7291SOL    HW223295   6.092   5.498   7.201  1.0816  0.3872 -0.8695
 7292SOL     OW23296   6.370   1.619   5.737 -0.0602  0.2895 -0.1796
 7292SOL    HW123297   6.413   1.606   5.653  0.0305 -0.0907 -0.0748
 7292SOL    HW223298   6.418   1.690   5.778  1.8413 -1.4866  0.8458
 7293SOL     OW23299   5.805   3.509   3.851 -0.2401  0.5227  0.8474
 7293SOL    HW123300   5.899   3.513   3.835  0.0742 -2.1788  1.6445
 7293SOL    HW223301   5.792   3.555   3.934  0.5048  0.2217  1.1327
 7294SOL     OW23302   6.252   1.354   0.460  0.3894 -0.0421 -0.3555
 7294SOL    HW123303   6.274   1.268   0.424 -0.0264 -0.2685 -0.0758
 7294SOL    HW223304   6.165   1.342   0.498  0.2900  0.5276 -0.4009
 7295SOL     OW23305   5.319   7.933   1.636 -0.3041  0.1937 -0.7677
 7295SOL    HW123306   5.271   7.868   1.687 -0.8570  0.4154 -0.9838
 7295SOL    HW223307   5.352   7.995   1.700 -1.6766  0.9114 -0.7180
 7296SOL     OW23308   3.146   4.232   6.117 -0.3241  0.1079 -0.0027
 7296SOL    HW123309   3.212   4.175   6.158 -0.5042  1.4129  2.3007
 7296SOL    HW223310   3.065   4.182   6.123 -0.6460  0.7864  2.7507
 7297SOL     OW23311   1.045   8.275   0.174 -0.2879 -0.6131  0.4327
 7297SOL    HW123312   1.120   8.256   0.118  1.6993  1.8386  2.0353
 7297SOL    HW223313   1.037   8.197   0.229  1.4557 -0.7354  0.5799
 7298SOL     OW23314   1.437   2.439   2.039  0.1374 -0.6085 -0.2706
 7298SOL    HW123315   1.456   2.370   2.102 -0.6048  0.4649  1.1818
 7298SOL    HW223316   1.462   2.402   1.954 -0.3046 -2.6592  0.4543
 7299SOL     OW23317   1.873   7.992   9.031 -0.1266  0.2409 -0.3783
 7299SOL    HW123318   1.889   7.898   9.024 -0.7851  0.1626 -0.9005
 7299SOL    HW223319   1.849   8.005   9.123  0.4315 -0.0216 -0.1900
 7300SOL     OW23320   4.090   7.229   2.679  0.4047 -0.1750  0.7047
 7300SOL    HW123321   4.074   7.172   2.603 -0.6011  0.5173  0.3738
 7300SOL    HW223322   4.136   7.305   2.643 -1.8141  1.1041  0.3556
 7301SOL     OW23323   6.024   0.788   5.944 -0.5104 -0.2504 -0.1360
 7301SOL    HW123324   6.114   0.811   5.967 -0.1963 -1.4502 -0.1190
 7301SOL    HW223325   5.998   0.722   6.008 -2.0093  1.2498  0.8913
 7302SOL     OW23326   3.054   3.546   1.027 -0.1459 -0.5060 -0.1475
 7302SOL    HW123327   2.996   3.477   0.994 -1.2348  0.6796 -0.8026
 7302SOL    HW223328   2.995   3.604   1.076  0.5424  0.5504 -0.5454
 7303SOL     OW23329   5.503   6.547   1.573 -0.9265  0.4088  0.6008
 7303SOL    HW123330   5.563   6.597   1.630 -0.0254  0.0013  0.0246
 7303SOL    HW223331   5.560   6.509   1.506 -1.6189 -1.2019  0.8839
 7304SOL     OW23332   5.240   0.221   3.204  0.3843  0.1405 -0.3673
 7304SOL    HW123333   5.162   0.164   3.199 -0.3310  0.9702  0.7447
 7304SOL    HW223334   5.224   0.275   3.282  2.7015 -0.5875  0.6944
 7305SOL     OW23335   3.593   1.250   2.945 -0.3256  0.2567  0.0335
 7305SOL    HW123336   3.550   1.165   2.939  1.8874 -0.8896 -0.4256
 7305SOL    HW223337   3.529   1.312   2.909 -1.3976 -1.4209 -1.0580
 7306SOL     OW23338   4.185   3.115   8.071 -0.3688  0.4269 -0.5902
 7306SOL    HW123339   4.245   3.189   8.078  1.2219 -0.5704 -2.7329
 7306SOL    HW223340   4.241   3.038   8.071 -1.6761 -0.5826 -1.8057
 7307SOL     OW23341   4.297   4.924   3.017  0.1802 -0.0846  0.0434
 7307SOL    HW123342   4.310   4.914   2.923 -3.7031 -1.4840 -0.5036
 7307SOL    HW223343   4.312   5.017   3.033  1.0225  0.1660 -1.9068
 7308SOL     OW23344   2.967   5.035   4.832 -0.3695 -0.4830 -0.3497
 7308SOL    HW123345   2.924   4.950   4.836 -1.4005 -0.0346 -1.5175
 7308SOL    HW223346   2.971   5.056   4.738  0.4772  0.4532 -0.1247
 7309SOL     OW23347   3.947   3.089   8.914 -0.7695  0.3599  0.3723
 7309SOL    HW123348   3.955   3.169   8.862  1.7604  0.5933  0.9864
 7309SOL    HW223349   3.971   3.019   8.854 -1.7892  0.1682  0.1699
 7310SOL     OW23350   0.027   3.487   7.118 -0.2638 -0.4537 -1.1565
 7310SOL    HW123351   0.030   3.430   7.041 -2.5722  1.2287 -2.6454
 7310SOL    HW223352  -0.051   3.541   7.104 -0.9165 -0.2342  2.5344
 7311SOL     OW23353   4.232   3.348   4.310 -0.3637  0.2148 -0.3296
 7311SOL    HW123354   4.160   3.386   4.359 -0.6492 -1.1906  0.3897
 7311SOL    HW223355   4.288   3.422   4.288 -1.5900  1.2118 -0.1703
 7312SOL     OW23356   4.364   4.185   7.509  0.6161 -0.6582  0.3198
 7312SOL    HW123357   4.329   4.207   7.423  1.0088  0.3308  0.4059
 7312SOL    HW223358   4.374   4.089   7.506  2.2892 -0.4802 -1.3651
 7313SOL     OW23359   5.520   2.957   3.101  0.6249  0.4207 -0.0244
 7313SOL    HW123360   5.494   2.944   3.192 -0.2020  0.1402 -0.2893
 7313SOL    HW223361   5.493   3.047   3.081 -0.0027  0.1840 -0.2524
 7314SOL     OW23362   0.238   2.591   2.367  0.3550  0.3567  0.7604
 7314SOL    HW123363   0.283   2.636   2.438  0.5706  1.4009 -0.0090
 7314SOL    HW223364   0.156   2.560   2.406  0.9091  0.0285  1.7050
 7315SOL     OW23365   1.177   8.329   2.268  0.3382 -0.2828 -0.6332
 7315SOL    HW123366   1.239   8.290   2.206 -0.9651 -2.4054 -0.6828
 7315SOL    HW223367   1.210   8.418   2.281  2.5270 -0.8440 -1.7954
 7316SOL     OW23368   5.805   8.697   4.511  0.0837 -0.3870  0.0106
 7316SOL    HW123369   5.843   8.758   4.574  0.2997 -0.0549 -0.4363
 7316SOL    HW223370   5.801   8.613   4.558  1.4422 -0.4549  0.0461
 7317SOL     OW23371   5.888   6.882   1.434  0.0180 -0.3353  0.5337
 7317SOL    HW123372   5.799   6.903   1.461 -0.8417 -1.4714 -1.2444
 7317SOL    HW223373   5.925   6.966   1.406 -0.5141  0.1290  1.1966
 7318SOL     OW23374   5.942   3.136   3.590  0.5813  0.1783 -0.6962
 7318SOL    HW123375   5.871   3.144   3.526  0.9453 -0.9085 -1.2653
 7318SOL    HW223376   5.955   3.225   3.622 -0.4611  0.5361 -1.2089
 7319SOL     OW23377   0.537   6.686   3.015 -0.7119 -0.0514 -0.2905
 7319SOL    HW123378   0.603   6.657   3.077  0.5913  3.0716 -0.0251
 7319SOL    HW223379   0.461   6.707   3.069 -1.8428 -3.1138 -0.5367
 7320SOL     OW23380   1.581   3.177   7.365  0.0716  0.2325  0.0977
 7320SOL    HW123381   1.676   3.187   7.371  0.3595 -2.2266  0.9563
 7320SOL    HW223382   1.569   3.097   7.313 -1.4454 -0.5957  1.6274
 7321SOL     OW23383   4.778   0.024   0.255  0.4543 -0.1021  0.1509
 7321SOL    HW123384   4.853   0.014   0.196 -0.2054  0.1402 -0.7472
 7321SOL    HW223385   4.713   0.072   0.203 -0.3862 -0.4511  0.8589
 7322SOL     OW23386   7.923   3.930   4.245 -0.0306 -0.0374 -0.2800
 7322SOL    HW123387   7.850   3.939   4.307  0.1315 -1.2292  0.1121
 7322SOL    HW223388   7.988   3.992   4.277 -0.2107 -0.1694  0.3736
 7323SOL     OW23389   8.880   4.537   0.245  0.4003  0.1994  0.0342
 7323SOL    HW123390   8.909   4.549   0.335  0.0242 -1.6001  0.4377
 7323SOL    HW223391   8.958   4.555   0.192  1.2490 -0.8918  0.8648
 7324SOL     OW23392   8.404   2.068   5.854 -0.0994 -0.7822  0.1818
 7324SOL    HW123393   8.492   2.055   5.888 -0.1703  2.7611  2.1020
 7324SOL    HW223394   8.370   1.979   5.842  3.1641 -2.2447  0.7730
 7325SOL     OW23395   5.899   6.244   9.104  0.2460  0.8175 -0.4931
 7325SOL    HW123396   5.922   6.183   9.174 -2.4976 -0.8002 -0.8474
 7325SOL    HW223397   5.863   6.320   9.150 -2.2348 -0.5401 -0.0390
 7326SOL     OW23398   4.818   1.227   8.359 -0.1369 -0.4468  0.0396
 7326SOL    HW123399   4.790   1.221   8.451 -1.1462  0.9842 -0.1430
 7326SOL    HW223400   4.889   1.163   8.352  1.1147  0.5734  2.2452
 7327SOL     OW23401   0.141   7.695   6.412  0.7285 -0.1415  0.7719
 7327SOL    HW123402   0.129   7.650   6.329  0.8806  0.0248  0.6612
 7327SOL    HW223403   0.061   7.747   6.422  1.5154  1.2936 -0.1700
 7328SOL     OW23404   2.117   9.172   1.655 -0.2385  0.1555 -0.6510
 7328SOL    HW123405   2.044   9.224   1.621 -0.3179 -0.5363 -1.5707
 7328SOL    HW223406   2.076   9.095   1.694 -0.0958  0.5747  0.3421
 7329SOL     OW23407   9.093   8.725   2.764 -0.5163  0.1499  0.2858
 7329SOL    HW123408   9.173   8.675   2.783  0.4541  1.7815  0.7069
 7329SOL    HW223409   9.077   8.776   2.844  1.0653  3.7375 -1.4427
 7330SOL     OW23410   5.123   5.815   1.285 -0.6223 -0.3858 -0.0336
 7330SOL    HW123411   5.147   5.894   1.334  0.3663 -0.5165 -0.2787
 7330SOL    HW223412   5.171   5.744   1.327 -0.4161 -0.6314 -0.6714
 7331SOL     OW23413   7.985   5.899   5.614  0.1705  0.6547  0.9367
 7331SOL    HW123414   8.041   5.948   5.673  2.8302 -0.9566 -0.0755
 7331SOL    HW223415   8.033   5.894   5.532 -1.3139 -1.0843  0.0800
 7332SOL     OW23416   8.945   7.534   1.483 -0.1748  1.0833  0.2638
 7332SOL    HW123417   8.958   7.627   1.503  2.6136  0.6406  0.9038
 7332SOL    HW223418   8.984   7.488   1.558 -1.1269 -0.6104 -0.2377
 7333SOL     OW23419   2.870   7.147   0.746  0.1390  0.3037 -0.4757
 7333SOL    HW123420   2.891   7.230   0.789  0.7389  0.5630 -1.2356
 7333SOL    HW223421   2.932   7.142   0.673 -0.9237 -0.0606 -1.3815
 7334SOL     OW23422   5.610   5.335   7.807 -0.1946 -0.0579 -0.3252
 7334SOL    HW123423   5.542   5.274   7.837 -0.5040  0.6388  0.4246
 7334SOL    HW223424   5.576   5.370   7.725 -0.5159 -0.1037 -0.2160
 7335SOL     OW23425   5.227   1.766   3.725 -0.2797 -0.2091  0.0683
 7335SOL    HW123426   5.212   1.672   3.735  3.3823 -0.8388  0.7671
 7335SOL    HW223427   5.285   1.773   3.650 -1.7671  1.7124 -0.9776
 7336SOL     OW23428   5.375   4.150   5.784 -0.0249 -0.1222 -0.6395
 7336SOL    HW123429   5.280   4.140   5.778 -0.0013 -0.7534 -0.0594
 7336SOL    HW223430   5.387   4.231   5.834 -0.3040 -1.2204  1.3252
 7337SOL     OW23431   2.165   0.545   5.101 -0.0277  0.4201 -0.0746
 7337SOL    HW123432   2.132   0.465   5.059 -0.1722  0.6620 -0.4203
 7337SOL    HW223433   2.198   0.515   5.186 -0.1814  0.0085 -0.1576
 7338SOL     OW23434   8.048   2.798   5.478  0.0224  0.1392  0.4554
 7338SOL    HW123435   7.973   2.770   5.426 -0.0666 -1.2231  1.2849
 7338SOL    HW223436   8.117   2.812   5.413 -1.4716  3.6601 -0.6069
 7339SOL     OW23437   0.856   3.711   7.579  0.6531 -0.0479  0.3670
 7339SOL    HW123438   0.883   3.681   7.666  2.3471  1.7395  0.5246
 7339SOL    HW223439   0.929   3.688   7.522 -0.2084 -0.7049 -0.4993
 7340SOL     OW23440   8.239   4.710   0.851  0.3889  0.1281 -0.0350
 7340SOL    HW123441   8.182   4.718   0.775 -0.2890  0.6585  0.5134
 7340SOL    HW223442   8.306   4.778   0.839  0.6131 -0.1596 -0.4279
 7341SOL     OW23443   9.179   4.776   4.006  0.3877  0.4140 -0.2954
 7341SOL    HW123444   9.127   4.696   4.010  0.0045  0.6151 -1.1067
 7341SOL    HW223445   9.119   4.845   4.036  0.1047  0.6738 -1.3982
 7342SOL     OW23446   8.988   4.988   8.291 -0.4766  0.2169  0.1970
 7342SOL    HW123447   9.005   4.894   8.302 -0.7816  0.2243  0.7452
 7342SOL    HW223448   8.966   4.997   8.198  0.0664 -0.1723  0.0252
 7343SOL     OW23449   1.286   3.056   2.705  0.0861 -0.3878  0.0246
 7343SOL    HW123450   1.376   3.039   2.733  0.9322  1.1095 -1.6221
 7343SOL    HW223451   1.242   3.089   2.784  1.3150  0.0426  0.5463
 7344SOL     OW23452   7.198   7.851   1.088  0.0032 -0.3213 -0.0459
 7344SOL    HW123453   7.120   7.905   1.102  0.9007  0.4465  2.5791
 7344SOL    HW223454   7.238   7.843   1.175  2.2994 -1.5665 -1.1206
 7345SOL     OW23455   6.464   5.411   6.418 -0.0518 -0.4616  0.0786
 7345SOL    HW123456   6.553   5.438   6.395 -0.2692 -0.6673 -1.0474
 7345SOL    HW223457   6.408   5.469   6.366 -0.6448  0.9336  2.1336
 7346SOL     OW23458   3.684   2.427   8.102 -0.3458  0.0360 -0.2831
 7346SOL    HW123459   3.667   2.333   8.098  0.0702 -0.0008 -2.4125
 7346SOL    HW223460   3.772   2.434   8.139 -0.2774 -0.4302 -0.3504
 7347SOL     OW23461   5.074   1.839   4.022  0.1394  0.4873 -0.6670
 7347SOL    HW123462   4.985   1.809   4.009 -0.6853  2.5284 -0.2127
 7347SOL    HW223463   5.081   1.917   3.967  1.5961  0.4491 -0.5790
 7348SOL     OW23464   7.061   3.411   5.849 -0.0365  0.2028 -0.4158
 7348SOL    HW123465   7.137   3.442   5.898 -2.4634  1.3020  3.0188
 7348SOL    HW223466   7.059   3.317   5.864  1.2679 -0.0358 -1.5876
 7349SOL     OW23467   6.052   1.441   6.226 -0.0864 -0.0521 -0.2928
 7349SOL    HW123468   6.089   1.436   6.315  0.0407  0.3803 -0.3200
 7349SOL    HW223469   6.119   1.485   6.175  0.6904 -2.0359 -1.0674
 7350SOL     OW23470   3.868   6.820   2.329  0.0483 -0.3718  0.1209
 7350SOL    HW123471   3.907   6.749   2.278  4.6708  0.2235  2.3185
 7350SOL    HW223472   3.844   6.886   2.264 -4.8841 -3.7733 -2.0453
 7351SOL     OW23473   1.978   1.343   4.118 -0.7329 -0.3175  0.1491
 7351SOL    HW123474   1.952   1.258   4.155  0.4377 -1.9022 -2.3636
 7351SOL    HW223475   2.073   1.339   4.114 -0.7122  0.7017 -0.8717
 7352SOL     OW23476   4.603   1.061   1.184  0.1638 -0.3356 -0.0103
 7352SOL    HW123477   4.539   1.080   1.254  1.0155  0.6032  0.5417
 7352SOL    HW223478   4.557   1.083   1.103 -0.1803  0.4457  0.3869
 7353SOL     OW23479   0.632   6.631   6.035  0.1164  0.1858 -0.4286
 7353SOL    HW123480   0.614   6.609   6.127 -0.8525 -1.0466 -0.8839
 7353SOL    HW223481   0.598   6.720   6.025 -0.8547 -0.1053  0.1290
 7354SOL     OW23482   6.143   8.072   6.186 -0.4947  0.4179 -0.2940
 7354SOL    HW123483   6.126   8.145   6.126  0.6635  0.4644 -0.5889
 7354SOL    HW223484   6.058   8.054   6.226 -1.8837 -1.1446 -3.5827
 7355SOL     OW23485   5.737   0.770   1.547  0.0708  0.2400 -0.6786
 7355SOL    HW123486   5.741   0.734   1.636  1.4027  0.8164 -0.4866
 7355SOL    HW223487   5.643   0.777   1.528 -0.2351 -1.3244  0.0793
 7356SOL     OW23488   0.984   8.603   2.138  0.5839 -0.1923  0.7112
 7356SOL    HW123489   0.956   8.583   2.227  1.2939  2.8454  1.7283
 7356SOL    HW223490   1.080   8.605   2.143  0.6147  0.5093  0.0166
 7357SOL     OW23491   0.159   6.937   0.110  0.8459 -0.1216 -0.2342
 7357SOL    HW123492   0.072   6.921   0.148  0.8662 -2.6520 -1.0934
 7357SOL    HW223493   0.155   6.899   0.023  2.6906  0.1158 -0.4641
 7358SOL     OW23494   5.585   0.741   5.054  0.6952 -0.5487  0.2584
 7358SOL    HW123495   5.653   0.721   5.119  3.0047  1.3958 -1.4029
 7358SOL    HW223496   5.602   0.681   4.981 -0.7651 -1.4833  0.6307
 7359SOL     OW23497   6.358   6.651   6.276 -0.9714 -0.0434  0.4946
 7359SOL    HW123498   6.369   6.741   6.307  0.9905 -0.0302 -0.1168
 7359SOL    HW223499   6.447   6.620   6.260 -1.5053 -2.4624  1.6528
 7360SOL     OW23500   5.228   3.952   8.661  0.7157 -0.3964 -0.0492
 7360SOL    HW123501   5.161   3.939   8.593 -0.2236 -1.5248  1.0415
 7360SOL    HW223502   5.267   3.865   8.673  1.5205 -0.0078  0.2087
 7361SOL     OW23503   7.186   7.210   8.585 -0.5238  0.1834 -0.5242
 7361SOL    HW123504   7.146   7.169   8.661 -0.7473  0.2243 -0.6183
 7361SOL    HW223505   7.150   7.161   8.510 -2.5879  1.9683 -0.8075
 7362SOL     OW23506   6.727   6.201   8.245  0.4508  0.2967 -0.0532
 7362SOL    HW123507   6.807   6.253   8.255  1.4026 -1.3408  1.6030
 7362SOL    HW223508   6.668   6.235   8.313  0.9872 -0.5980  0.8787
 7363SOL     OW23509   1.144   5.925   5.312 -0.4699  0.1257  0.4069
 7363SOL    HW123510   1.224   5.922   5.365  1.9349 -0.3391 -2.8876
 7363SOL    HW223511   1.113   5.834   5.310  0.9492 -0.3839 -0.9260
 7364SOL     OW23512   1.292   3.770   5.043 -0.2468 -0.0970 -0.3480
 7364SOL    HW123513   1.224   3.837   5.050 -0.3022 -0.2045  0.1801
 7364SOL    HW223514   1.300   3.735   5.132  2.1263  1.4932  0.1586
 7365SOL     OW23515   9.243   2.124   0.775 -0.0260 -0.3279 -0.2938
 7365SOL    HW123516   9.246   2.136   0.680 -0.5024 -0.9291 -0.3888
 7365SOL    HW223517   9.329   2.089   0.797  0.0269 -0.3485 -0.5295
 7366SOL     OW23518   7.941   8.757   2.519  0.5172  0.0495 -0.0613
 7366SOL    HW123519   7.874   8.709   2.568  1.4973  0.1974  1.4826
 7366SOL    HW223520   7.950   8.708   2.437 -2.8519  1.1264 -1.2620
 7367SOL     OW23521   1.873   2.678   5.635  0.7392 -0.4426  0.5812
 7367SOL    HW123522   1.827   2.760   5.652  0.2511 -0.3494 -0.9751
 7367SOL    HW223523   1.919   2.693   5.552  2.5167 -0.9974  1.4332
 7368SOL     OW23524   6.703   8.693   3.518  0.2587  0.2447 -0.0611
 7368SOL    HW123525   6.716   8.598   3.527  0.6172  0.4007  1.4995
 7368SOL    HW223526   6.657   8.704   3.435 -0.1894 -1.3393 -0.0562
 7369SOL     OW23527   4.994   3.712   8.125  0.3408  0.1628  0.5268
 7369SOL    HW123528   4.927   3.665   8.174 -0.7459  0.2258 -0.8238
 7369SOL    HW223529   4.945   3.763   8.061  1.7119 -0.6954 -1.2967
 7370SOL     OW23530   8.832   3.152   6.955  0.0764  0.1171 -0.0696
 7370SOL    HW123531   8.898   3.164   7.023  0.4764 -0.8645 -0.2688
 7370SOL    HW223532   8.767   3.221   6.973  0.7484  0.6011  0.5972
 7371SOL     OW23533   1.084   2.084   4.064 -0.1219 -0.1734  0.5853
 7371SOL    HW123534   1.062   2.112   3.975  1.4270 -1.3695 -0.2263
 7371SOL    HW223535   1.027   2.135   4.120 -2.2588 -0.4864 -1.1653
 7372SOL     OW23536   5.354   1.944   3.886 -0.1991 -0.1946  0.2105
 7372SOL    HW123537   5.310   1.872   3.841 -1.5663  0.7806 -0.0736
 7372SOL    HW223538   5.323   2.023   3.841 -1.5926  0.8314  2.7771
 7373SOL     OW23539   5.529   0.040   1.679 -0.3493  0.3123 -0.3776
 7373SOL    HW123540   5.455  -0.019   1.663  0.3413 -0.7087  0.1392
 7373SOL    HW223541   5.585   0.030   1.602 -0.2181  0.2814 -0.2778
 7374SOL     OW23542   8.398   6.848   9.271 -0.4832  0.3398  0.7132
 7374SOL    HW123543   8.359   6.921   9.320 -0.0279  0.2536  1.2162
 7374SOL    HW223544   8.490   6.874   9.260 -0.5108  0.2109  0.1837
 7375SOL     OW23545   5.329   8.327   1.716 -0.3446  0.1323 -0.7621
 7375SOL    HW123546   5.353   8.419   1.725  1.1898 -0.2411 -0.7250
 7375SOL    HW223547   5.326   8.294   1.806  0.6252 -0.1950 -0.8375
 7376SOL     OW23548   7.983   2.647   6.835  0.3063  0.3897 -0.0738
 7376SOL    HW123549   7.898   2.693   6.835  0.1148  0.0386 -0.0198
 7376SOL    HW223550   8.029   2.682   6.760 -0.5714 -0.6720 -1.1457
 7377SOL     OW23551   6.428   4.133   6.045  0.1929  0.3503  0.2198
 7377SOL    HW123552   6.364   4.101   5.981  1.9382 -2.7406 -0.1755
 7377SOL    HW223553   6.419   4.228   6.043 -1.9917  0.1971 -2.2824
 7378SOL     OW23554   1.729   3.133   1.384 -0.6164  0.5563  0.0611
 7378SOL    HW123555   1.789   3.195   1.424 -1.3363  2.1460 -1.2058
 7378SOL    HW223556   1.654   3.131   1.443 -0.2694  0.2689  0.5015
 7379SOL     OW23557   0.304   3.678   6.527 -0.2994 -0.6177  0.1671
 7379SOL    HW123558   0.336   3.590   6.550  1.3164  0.0207  0.5060
 7379SOL    HW223559   0.381   3.723   6.493 -1.2292  0.5215 -0.4777
 7380SOL     OW23560   0.035   0.067   3.936  0.0433  0.0903 -0.2600
 7380SOL    HW123561   0.005   0.003   4.000 -0.8085 -1.1248 -1.8197
 7380SOL    HW223562   0.127   0.044   3.920  0.1223  0.1082  0.1499
 7381SOL     OW23563   6.502   3.549   4.113  0.0808  0.1785  0.5150
 7381SOL    HW123564   6.435   3.598   4.065 -0.6938 -0.8800  0.4805
 7381SOL    HW223565   6.573   3.611   4.125 -0.5578  1.0738 -0.2066
 7382SOL     OW23566   4.250   5.352   3.201 -0.2820 -0.1138 -0.3790
 7382SOL    HW123567   4.196   5.337   3.278 -1.1994  2.0302 -0.5317
 7382SOL    HW223568   4.325   5.401   3.233 -0.6399  0.7387 -0.8265
 7383SOL     OW23569   6.252   2.612   5.908 -0.3769 -0.1178 -0.3367
 7383SOL    HW123570   6.285   2.576   5.990  0.4898  0.3683 -0.4601
 7383SOL    HW223571   6.314   2.682   5.886 -1.1326  0.3813 -0.9170
 7384SOL     OW23572   1.608   1.685   4.483  0.1675 -0.7213  0.2701
 7384SOL    HW123573   1.598   1.709   4.575  0.5658 -0.2338  0.1906
 7384SOL    HW223574   1.565   1.755   4.435  1.6479  0.0591  0.0216
 7385SOL     OW23575   1.525   6.462   5.806 -0.2533  0.5940  0.4628
 7385SOL    HW123576   1.591   6.447   5.739 -0.8265 -2.2920  0.4280
 7385SOL    HW223577   1.450   6.498   5.759  0.2472  1.0680  0.0162
 7386SOL     OW23578   5.767   6.230   4.193 -0.1529 -0.1717  0.2004
 7386SOL    HW123579   5.817   6.163   4.238  0.2680  0.9478  1.4749
 7386SOL    HW223580   5.700   6.258   4.255 -1.4963 -0.6504 -0.9702
 7387SOL     OW23581   5.404   8.867   0.153  0.4505 -0.3576 -0.3106
 7387SOL    HW123582   5.346   8.821   0.213  2.7778 -2.0994  0.7753
 7387SOL    HW223583   5.384   8.960   0.167 -1.0840 -0.8297  0.9831
 7388SOL     OW23584   3.787   2.146   6.942 -0.6797  0.4613 -0.4993
 7388SOL    HW123585   3.741   2.063   6.926 -0.0378 -0.3577  1.5611
 7388SOL    HW223586   3.867   2.120   6.988 -0.9674  2.3065  1.1596
 7389SOL     OW23587   4.406   2.960   9.153 -0.2599 -0.3150 -0.2378
 7389SOL    HW123588   4.499   2.956   9.133 -0.4622 -0.2150 -1.2678
 7389SOL    HW223589   4.393   2.896   9.224  0.7257  0.3011  0.5174
 7390SOL     OW23590   3.422   8.633   8.544 -0.4082 -0.0536 -0.3962
 7390SOL    HW123591   3.371   8.552   8.544 -0.0270 -0.3721 -3.0853
 7390SOL    HW223592   3.509   8.606   8.575 -0.6234 -0.4175 -0.0969
 7391SOL     OW23593   5.081   6.025   6.525 -0.4283 -0.5883 -0.0132
 7391SOL    HW123594   5.039   6.058   6.445 -0.2909  1.1466  0.6016
 7391SOL    HW223595   5.115   5.939   6.500 -3.6850 -1.8040 -0.7617
 7392SOL     OW23596   2.943   2.624   8.291  0.4429  0.3281 -0.1756
 7392SOL    HW123597   2.930   2.588   8.203  0.7805  1.9242 -0.9263
 7392SOL    HW223598   2.855   2.631   8.327  0.0248  1.9647 -1.3914
 7393SOL     OW23599   8.457   0.876   6.558  0.4518  0.5838  0.4519
 7393SOL    HW123600   8.404   0.955   6.570  0.5858  0.8564 -0.6758
 7393SOL    HW223601   8.394   0.804   6.552  0.2540  0.7856  0.0830
 7394SOL     OW23602   6.695   4.685   9.263  0.4759 -0.4119 -0.3605
 7394SOL    HW123603   6.759   4.701   9.332  0.4626 -0.1382 -0.4119
 7394SOL    HW223604   6.748   4.661   9.187  0.4997 -0.5091 -0.3147
 7395SOL     OW23605   8.861   3.453   1.304 -0.5297 -0.2265 -0.3900
 7395SOL    HW123606   8.818   3.533   1.273  0.3421  0.2599 -0.3693
 7395SOL    HW223607   8.855   3.393   1.230 -3.0440 -0.9271  0.2736
 7396SOL     OW23608   7.179   1.156   7.526 -0.4970  0.3311  0.4860
 7396SOL    HW123609   7.243   1.176   7.457  0.6653  0.6415  1.6286
 7396SOL    HW223610   7.211   1.075   7.566 -1.7860 -0.4749 -0.0369
 7397SOL     OW23611   8.480   2.240   1.647 -0.4846 -0.3744 -0.2029
 7397SOL    HW123612   8.397   2.225   1.693 -0.0914 -2.3652 -0.0516
 7397SOL    HW223613   8.523   2.155   1.647  1.9861  0.7840  0.5086
 7398SOL     OW23614   6.596   5.840   4.893  0.1814  0.0995 -0.0325
 7398SOL    HW123615   6.513   5.810   4.930  0.7715 -0.3560  0.9560
 7398SOL    HW223616   6.579   5.930   4.866 -0.1453  0.6516  1.8551
 7399SOL     OW23617   7.610   2.872   4.874  0.9222  0.2154  0.0201
 7399SOL    HW123618   7.652   2.945   4.828  0.7727  1.7445  2.1854
 7399SOL    HW223619   7.564   2.912   4.947  0.7016 -2.0486  1.2198
 7400SOL     OW23620   6.028   2.594   4.753 -0.0789 -0.2689 -0.1311
 7400SOL    HW123621   5.988   2.626   4.672 -0.9742 -2.6784 -0.7550
 7400SOL    HW223622   6.111   2.555   4.724 -1.0172 -2.3738 -0.2301
 7401SOL     OW23623   8.151   5.707   1.241 -0.7474  0.0509 -0.0681
 7401SOL    HW123624   8.121   5.640   1.180 -1.7572  0.1638  0.2906
 7401SOL    HW223625   8.087   5.778   1.233 -0.9049  0.0668  1.1129
 7402SOL     OW23626   2.095   7.368   9.102  0.4959 -0.9814  0.0976
 7402SOL    HW123627   2.062   7.365   9.192 -2.1784  0.5627 -0.7363
 7402SOL    HW223628   2.037   7.429   9.057  2.1558 -1.2135 -2.5471
 7403SOL     OW23629   7.848   4.260   1.062 -0.3045 -0.0487 -0.2663
 7403SOL    HW123630   7.858   4.180   1.010  0.8262 -0.5345  0.6673
 7403SOL    HW223631   7.936   4.296   1.067 -0.2758 -0.2976  1.7391
 7404SOL     OW23632   4.909   0.261   1.815 -0.8351 -0.7192 -0.3787
 7404SOL    HW123633   4.946   0.176   1.790 -0.1035 -0.1564 -1.3160
 7404SOL    HW223634   4.915   0.313   1.735 -1.0424  0.2864  0.2486
 7405SOL     OW23635   1.021   3.173   5.791  0.0071 -0.3137  0.3292
 7405SOL    HW123636   0.942   3.137   5.751 -0.0962  0.1766  0.0905
 7405SOL    HW223637   1.019   3.140   5.881 -0.3818 -0.4375  0.2781
 7406SOL     OW23638   2.289   9.138   8.680 -0.1110 -0.3925  0.3329
 7406SOL    HW123639   2.282   9.093   8.764  0.8101 -0.6727  0.2738
 7406SOL    HW223640   2.252   9.076   8.617  0.7219 -0.8936  0.3163
 7407SOL     OW23641   7.664   1.229   1.841  0.4171  0.2995 -0.5734
 7407SOL    HW123642   7.617   1.305   1.807 -0.5983 -0.6741 -1.4378
 7407SOL    HW223643   7.713   1.195   1.766 -0.3062 -0.7331 -0.6064
 7408SOL     OW23644   3.636   7.902   0.822  0.6348  0.2512 -0.2814
 7408SOL    HW123645   3.626   7.858   0.907  1.1597  1.6494  0.5337
 7408SOL    HW223646   3.548   7.929   0.799  0.5382  0.1705 -0.0156
 7409SOL     OW23647   7.872   4.258   3.501  0.4622  0.2923 -0.0400
 7409SOL    HW123648   7.820   4.198   3.555 -1.2770 -0.1119 -2.0103
 7409SOL    HW223649   7.885   4.211   3.419  0.3904  1.9907 -1.0755
 7410SOL     OW23650   2.399   6.760   4.522 -0.7201 -0.3554 -0.1227
 7410SOL    HW123651   2.392   6.696   4.593  2.6199 -1.3428 -0.4940
 7410SOL    HW223652   2.470   6.819   4.549 -0.1819 -0.0337 -2.0649
 7411SOL     OW23653   5.851   7.184   2.209 -0.0898 -0.4464 -0.4071
 7411SOL    HW123654   5.886   7.269   2.184  2.3353 -1.3840 -0.4275
 7411SOL    HW223655   5.756   7.193   2.198  0.1679  1.9737 -1.1626
 7412SOL     OW23656   8.315   4.555   8.345 -0.6500  0.0314 -0.4103
 7412SOL    HW123657   8.260   4.477   8.351 -1.7871  0.6313 -2.2015
 7412SOL    HW223658   8.268   4.622   8.394 -0.0629 -0.1802  0.4645
 7413SOL     OW23659   7.762   3.828   6.135 -0.0692 -0.8225 -0.3148
 7413SOL    HW123660   7.709   3.842   6.213 -2.6454  1.5953 -2.2975
 7413SOL    HW223661   7.810   3.909   6.123  3.1379 -2.4298  0.5838
 7414SOL     OW23662   6.919   1.469   0.062  0.2013  0.6387 -0.1970
 7414SOL    HW123663   6.986   1.428   0.117 -1.8824 -2.3401  0.3802
 7414SOL    HW223664   6.884   1.540   0.116  1.4362  0.8584  0.3388
 7415SOL     OW23665   1.273   7.494   5.765  0.5439  0.5617 -0.1664
 7415SOL    HW123666   1.193   7.523   5.722  0.9050 -0.2917 -1.4823
 7415SOL    HW223667   1.337   7.485   5.693  1.2162 -0.7552  0.5605
 7416SOL     OW23668   1.780   3.691   2.239  0.4195  0.0944 -0.4750
 7416SOL    HW123669   1.822   3.650   2.164  1.1720 -0.6111  0.3106
 7416SOL    HW223670   1.693   3.717   2.207 -0.5937 -3.1950 -0.7404
 7417SOL     OW23671   1.812   3.472   3.100 -0.4021 -0.2419  0.4288
 7417SOL    HW123672   1.862   3.456   3.180  0.8713  0.7574 -0.1461
 7417SOL    HW223673   1.806   3.567   3.093  1.3251 -0.1999 -1.7155
 7418SOL     OW23674   9.119   8.452   3.735 -0.2896 -0.2833 -0.1349
 7418SOL    HW123675   9.066   8.404   3.799 -2.1661  2.9026  0.9062
 7418SOL    HW223676   9.207   8.453   3.772 -0.0555 -3.1478 -0.4170
 7419SOL     OW23677   7.731   6.275   7.561  0.2302 -0.3565  0.2216
 7419SOL    HW123678   7.734   6.336   7.488  2.2464 -1.8254 -1.0470
 7419SOL    HW223679   7.810   6.294   7.611  0.3416 -1.2028  0.3890
 7420SOL     OW23680   2.432   8.617   5.990  0.0490  0.0546  0.0929
 7420SOL    HW123681   2.459   8.700   6.031 -1.1399 -0.5377  2.2335
 7420SOL    HW223682   2.380   8.644   5.914 -1.1392  1.3325  1.2989
 7421SOL     OW23683   8.286   1.037   6.208  0.1275  0.0290  0.0191
 7421SOL    HW123684   8.241   0.964   6.251 -0.4393 -0.0999 -0.7696
 7421SOL    HW223685   8.265   1.113   6.262 -2.1502  0.2165 -0.9959
 7422SOL     OW23686   6.531   9.143   7.670 -0.1646 -0.6709 -0.0870
 7422SOL    HW123687   6.619   9.105   7.664  0.2210  0.3505 -2.0704
 7422SOL    HW223688   6.482   9.101   7.599 -0.4535  0.6388 -0.7100
 7423SOL     OW23689   7.594   2.228   0.841 -0.3248  0.0072 -0.2744
 7423SOL    HW123690   7.627   2.274   0.918  0.5042  1.4399 -1.4234
 7423SOL    HW223691   7.641   2.145   0.840  1.2277  0.8397 -0.3314
 7424SOL     OW23692   7.821   3.217   1.097 -0.0933 -0.7217 -0.0900
 7424SOL    HW123693   7.877   3.145   1.128  1.6293  0.3102 -0.6918
 7424SOL    HW223694   7.850   3.293   1.146  0.1816  0.1892 -1.6075
 7425SOL     OW23695   8.682   2.487   4.742 -0.2392  0.0546  0.2594
 7425SOL    HW123696   8.613   2.470   4.805  0.3195 -0.4607  0.7478
 7425SOL    HW223697   8.715   2.400   4.719 -0.1514  0.2624 -0.4155
 7426SOL     OW23698   2.725   8.694   1.591 -0.1885  0.5561 -0.2487
 7426SOL    HW123699   2.762   8.706   1.503 -1.1811  1.0073 -0.6097
 7426SOL    HW223700   2.687   8.779   1.613 -1.8534 -0.1465 -0.2913
 7427SOL     OW23701   3.877   1.560   5.121 -0.9554  0.3145 -0.5894
 7427SOL    HW123702   3.906   1.518   5.202  0.3496 -1.5103 -1.9342
 7427SOL    HW223703   3.820   1.631   5.150 -2.9845 -2.1005  1.8845
 7428SOL     OW23704   6.159   3.836   2.356 -0.2509  0.2768 -0.3553
 7428SOL    HW123705   6.211   3.841   2.277  0.5192 -0.8055  0.0626
 7428SOL    HW223706   6.223   3.837   2.428 -0.9199  1.0511  0.2489
 7429SOL     OW23707   3.819   2.701   8.543 -0.0044  0.4851 -0.9605
 7429SOL    HW123708   3.732   2.706   8.583  1.0499 -1.2407  1.8609
 7429SOL    HW223709   3.831   2.608   8.523  1.6392  0.4672 -0.0675
 7430SOL     OW23710   7.004   9.260   1.703  0.0723 -0.0309 -0.0370
 7430SOL    HW123711   6.911   9.261   1.726 -0.3963 -2.7390 -1.2965
 7430SOL    HW223712   7.029   9.352   1.700 -2.2089  0.7472  1.6357
 7431SOL     OW23713   6.897   3.594   7.804 -0.1801 -0.9453  0.8902
 7431SOL    HW123714   6.912   3.636   7.719 -3.4523  2.7504  1.8390
 7431SOL    HW223715   6.964   3.631   7.861  1.2077 -2.4322  0.2856
 7432SOL     OW23716   3.116   6.042   7.477  0.3182  0.2012  0.0475
 7432SOL    HW123717   3.099   6.119   7.531 -0.4581 -0.1095  0.2559
 7432SOL    HW223718   3.030   6.018   7.442  0.6444 -0.2440 -0.4555
 7433SOL     OW23719   2.945   3.609   7.130  0.9442 -0.4060  0.1804
 7433SOL    HW123720   2.874   3.673   7.126  1.1507 -0.1925 -0.0949
 7433SOL    HW223721   2.942   3.575   7.220 -0.6047 -1.6388 -0.2732
 7434SOL     OW23722   1.843   1.961   6.867  0.2524 -0.0840  0.1896
 7434SOL    HW123723   1.755   1.956   6.905  0.4270 -0.9266  0.4966
 7434SOL    HW223724   1.848   1.886   6.808  1.1136 -0.6404  0.9408
 7435SOL     OW23725   4.126   7.188   7.424 -0.4177 -0.1172 -0.2105
 7435SOL    HW123726   4.184   7.213   7.352  1.7362  2.7326  2.2887
 7435SOL    HW223727   4.170   7.113   7.464 -0.0809  0.1081 -0.1535
 7436SOL     OW23728   3.139   8.495   4.229  0.4084  0.5157  0.3585
 7436SOL    HW123729   3.058   8.491   4.280  0.3670 -0.7801  0.2174
 7436SOL    HW223730   3.123   8.565   4.166 -1.0714 -0.4617 -0.4146
 7437SOL     OW23731   9.276   6.858   5.842 -0.4931  0.5028  0.0536
 7437SOL    HW123732   9.254   6.921   5.774 -0.4603  0.7029  0.2267
 7437SOL    HW223733   9.286   6.911   5.922 -0.5603  0.2690  0.2195
 7438SOL     OW23734   0.043   1.210   7.706 -0.6350  0.9890 -0.3467
 7438SOL    HW123735   0.036   1.158   7.626 -0.3200  1.9496 -1.0123
 7438SOL    HW223736   0.010   1.296   7.682 -1.1783  1.0996  0.7536
 7439SOL     OW23737   8.688   2.992   3.484 -0.4927  0.4946 -0.2309
 7439SOL    HW123738   8.767   3.040   3.456  0.6186 -0.7213  0.6715
 7439SOL    HW223739   8.624   3.061   3.504  0.6596  1.5675 -0.0859
 7440SOL     OW23740   7.045   8.355   3.080 -0.1614 -0.0044  1.3924
 7440SOL    HW123741   7.022   8.263   3.093 -1.3842  0.4474  2.7386
 7440SOL    HW223742   7.010   8.400   3.157 -0.4049  1.7287  0.3359
 7441SOL     OW23743   4.265   7.766   6.030 -0.1068  0.8207  0.1536
 7441SOL    HW123744   4.354   7.731   6.034 -1.3085 -2.6431 -0.1466
 7441SOL    HW223745   4.236   7.750   5.940 -1.6942 -0.1295  0.7823
 7442SOL     OW23746   8.460   4.637   1.146 -0.1186 -0.2081 -0.5275
 7442SOL    HW123747   8.498   4.557   1.110 -1.1393 -0.2106 -1.6387
 7442SOL    HW223748   8.536   4.687   1.177  0.5078 -1.7432  0.5548
 7443SOL     OW23749   4.352   5.536   7.233  0.5934  0.1895 -0.4593
 7443SOL    HW123750   4.439   5.573   7.216  1.4034 -1.6796 -0.6990
 7443SOL    HW223751   4.335   5.479   7.158 -0.2719 -0.4323  0.1873
 7444SOL     OW23752   8.365   0.403   6.747 -0.0056 -0.0742 -0.4760
 7444SOL    HW123753   8.461   0.399   6.749 -0.0535 -2.0095  1.1003
 7444SOL    HW223754   8.340   0.344   6.676 -0.0387  1.2252 -1.5706
 7445SOL     OW23755   3.605   7.562   2.485 -0.0708  0.8275 -0.1712
 7445SOL    HW123756   3.688   7.524   2.513 -0.8663 -3.0001 -2.2652
 7445SOL    HW223757   3.629   7.628   2.420  1.3388  0.7781  0.2690
 7446SOL     OW23758   0.681   0.935   6.778  0.5670  0.0572  0.0139
 7446SOL    HW123759   0.701   1.013   6.726 -1.7084  0.6256 -0.1013
 7446SOL    HW223760   0.624   0.883   6.722 -0.4264 -0.2116  1.2441
 7447SOL     OW23761   4.178   1.106   9.183  0.2913 -0.0464  0.4625
 7447SOL    HW123762   4.114   1.060   9.128  0.4107 -1.0701  1.1506
 7447SOL    HW223763   4.219   1.169   9.124 -1.4729  0.7709  0.0462
 7448SOL     OW23764   2.261   2.575   0.229 -0.8107 -0.0247  0.2288
 7448SOL    HW123765   2.182   2.628   0.241 -0.5136  0.7379 -1.0395
 7448SOL    HW223766   2.276   2.536   0.315 -1.7717  0.9241  0.8599
 7449SOL     OW23767   7.318   0.391   7.131  0.4570  0.7951  0.0309
 7449SOL    HW123768   7.236   0.409   7.084 -1.0411 -0.8738  1.8116
 7449SOL    HW223769   7.362   0.325   7.077 -1.3186 -1.2199  0.8956
 7450SOL     OW23770   8.426   7.436   3.769 -0.6345 -0.2403 -0.0079
 7450SOL    HW123771   8.461   7.488   3.696  2.5376  0.6861  1.9672
 7450SOL    HW223772   8.461   7.348   3.754 -1.5865 -0.5471 -0.5427
 7451SOL     OW23773   7.007   0.471   1.479 -0.2715  0.1310 -0.1631
 7451SOL    HW123774   6.941   0.407   1.507  0.1449 -0.7889 -1.2091
 7451SOL    HW223775   7.040   0.508   1.561 -1.3309 -0.1618  0.4183
 7452SOL     OW23776   4.556   8.757   9.019  0.2070  0.4105  0.3867
 7452SOL    HW123777   4.468   8.796   9.024 -0.5949 -1.3989  3.2046
 7452SOL    HW223778   4.541   8.669   8.985  1.2094  0.6231 -0.6678
 7453SOL     OW23779   2.013   9.278   4.485  0.1373 -0.4315  0.6264
 7453SOL    HW123780   2.093   9.328   4.499 -0.3243 -0.0928  2.2079
 7453SOL    HW223781   1.976   9.314   4.404  1.0088  0.1626  0.4795
 7454SOL     OW23782   5.762   5.807   6.904 -0.7804  0.0500 -0.2463
 7454SOL    HW123783   5.826   5.861   6.951 -1.5743 -0.6769  1.8017
 7454SOL    HW223784   5.694   5.788   6.970 -2.6181 -0.0128 -2.0619
 7455SOL     OW23785   1.822   5.194   9.262  0.3034 -0.1288  0.7867
 7455SOL    HW123786   1.898   5.238   9.224  1.0545 -1.2582  0.9293
 7455SOL    HW223787   1.748   5.248   9.235  1.0596  0.4851 -0.1640
 7456SOL     OW23788   0.034   0.839   2.667 -0.0575 -0.2152 -0.2215
 7456SOL    HW123789   0.092   0.899   2.620  0.6470 -0.8688 -0.2026
 7456SOL    HW223790   0.028   0.876   2.755 -1.0135  0.7634 -0.6789
 7457SOL     OW23791   3.021   4.575   0.306 -0.1715 -0.1335 -0.5496
 7457SOL    HW123792   2.958   4.509   0.333  0.9760 -0.7754  0.6880
 7457SOL    HW223793   2.988   4.657   0.343 -1.8378  0.1403 -2.4708
 7458SOL     OW23794   0.261   3.737   8.479 -0.5506  0.1114 -0.7022
 7458SOL    HW123795   0.340   3.789   8.462 -0.1870 -0.0963  0.2640
 7458SOL    HW223796   0.273   3.657   8.427 -0.2936  0.2389 -0.8382
 7459SOL     OW23797   3.726   6.423   0.906 -1.0148 -0.4989 -0.6372
 7459SOL    HW123798   3.805   6.376   0.936 -0.5809  0.4555 -0.2487
 7459SOL    HW223799   3.655   6.361   0.920 -0.4330 -1.0990 -0.2637
 7460SOL     OW23800   4.367   2.694   6.335  0.1724  0.0974  0.2370
 7460SOL    HW123801   4.273   2.673   6.338  0.0572  0.6014  0.2139
 7460SOL    HW223802   4.374   2.780   6.377  0.4584  0.6393 -0.8896
 7461SOL     OW23803   9.241   7.066   4.650 -0.2355  0.1300  0.4662
 7461SOL    HW123804   9.312   7.112   4.694  0.1512 -0.1242  0.1150
 7461SOL    HW223805   9.186   7.135   4.614  0.8979  0.3398 -0.9653
 7462SOL     OW23806   7.917   6.451   7.704  0.2930 -0.2266 -0.0127
 7462SOL    HW123807   7.935   6.536   7.743  0.9949 -0.3571 -0.0449
 7462SOL    HW223808   7.915   6.390   7.778 -0.3129 -0.1727  0.0227
 7463SOL     OW23809   1.025   6.693   3.400  0.5176  0.4741 -0.3119
 7463SOL    HW123810   1.020   6.750   3.324  3.7420  0.1982 -0.8940
 7463SOL    HW223811   1.059   6.610   3.366 -0.1927 -0.4377  1.0999
 7464SOL     OW23812   4.425   7.403   9.049 -0.2291 -0.5792  0.4618
 7464SOL    HW123813   4.392   7.420   9.137 -0.8070 -1.6312  0.4697
 7464SOL    HW223814   4.414   7.486   9.002 -1.0298 -0.3524  1.0428
 7465SOL     OW23815   8.521   5.636   0.124 -0.4114 -0.2754 -0.2261
 7465SOL    HW123816   8.481   5.719   0.148  1.1979  0.5672 -0.3428
 7465SOL    HW223817   8.552   5.648   0.034  0.4893 -0.7274  0.0046
 7466SOL     OW23818   7.035   4.006   8.560 -0.2805  0.4489  0.1661
 7466SOL    HW123819   7.025   4.053   8.642 -0.7167  0.1169  0.3024
 7466SOL    HW223820   7.127   3.980   8.558 -0.2720  0.4557  0.5479
 7467SOL     OW23821   3.608   5.779   2.754  0.2300  0.2294  0.2656
 7467SOL    HW123822   3.647   5.693   2.741 -0.3433 -0.0750  0.5083
 7467SOL    HW223823   3.515   5.761   2.771  0.3636  0.7964  1.7526
 7468SOL     OW23824   9.251   3.505   2.671 -0.1279 -0.3471 -0.0252
 7468SOL    HW123825   9.186   3.542   2.610 -0.4558 -2.5635 -1.1438
 7468SOL    HW223826   9.301   3.443   2.617  0.1238 -1.7846  1.7779
 7469SOL     OW23827   0.782   4.054   7.425  0.0140  0.6020 -0.3108
 7469SOL    HW123828   0.871   4.073   7.395  1.1284 -2.2889  0.8023
 7469SOL    HW223829   0.734   4.033   7.345  1.0034 -0.1059 -0.7433
 7470SOL     OW23830   7.782   2.771   1.195  0.0105 -1.0302 -0.4638
 7470SOL    HW123831   7.727   2.744   1.268  1.0753 -2.2111 -0.0565
 7470SOL    HW223832   7.734   2.842   1.153  0.1254  0.9308  2.4079
 7471SOL     OW23833   8.120   1.368   1.794  0.1151  0.4045  0.1231
 7471SOL    HW123834   8.097   1.347   1.704  0.0613  0.2839  0.1645
 7471SOL    HW223835   8.196   1.426   1.787 -0.7101  1.5023 -0.0392
 7472SOL     OW23836   8.825   2.990   1.264 -0.2925 -0.1656 -0.2770
 7472SOL    HW123837   8.913   2.953   1.269 -0.3597 -0.3211 -0.2438
 7472SOL    HW223838   8.835   3.079   1.296 -0.2689 -0.3859  0.3407
 7473SOL     OW23839   6.161   0.807   8.214 -0.0742  0.2213  0.4868
 7473SOL    HW123840   6.135   0.890   8.254 -0.2015  0.7689 -0.6993
 7473SOL    HW223841   6.111   0.740   8.262 -0.1823  0.8513  1.2602
 7474SOL     OW23842   2.126   6.835   0.211  0.2989  0.4312  0.0422
 7474SOL    HW123843   2.220   6.852   0.202  0.2457  1.4462  1.2510
 7474SOL    HW223844   2.107   6.772   0.142  1.7182  0.7903 -0.7137
 7475SOL     OW23845   6.105   6.546   2.821 -0.3964  0.5419 -0.0482
 7475SOL    HW123846   6.147   6.632   2.811  2.3272 -0.8333 -1.7536
 7475SOL    HW223847   6.073   6.526   2.733  0.3631 -0.7700 -0.0580
 7476SOL     OW23848   1.428   6.147   3.952  0.5742  0.4320 -0.3867
 7476SOL    HW123849   1.463   6.227   3.912  0.8345 -0.0600 -1.1643
 7476SOL    HW223850   1.393   6.097   3.878 -1.3018  0.6587  0.2968
 7477SOL     OW23851   1.817   0.516   0.747 -0.1038  0.0920  0.6859
 7477SOL    HW123852   1.898   0.471   0.720 -1.0809 -0.5868 -1.3480
 7477SOL    HW223853   1.781   0.461   0.817  0.7401 -0.0743  1.0014
 7478SOL     OW23854   0.253   8.483   5.871 -0.7970  0.0731  0.2200
 7478SOL    HW123855   0.336   8.512   5.831 -1.4168  0.3767 -0.8978
 7478SOL    HW223856   0.188   8.544   5.837 -1.3671  0.3655  1.7777
 7479SOL     OW23857   2.980   0.047   0.592  0.0406  0.0941  0.2180
 7479SOL    HW123858   3.002   0.039   0.684 -0.0099 -0.7192  0.1702
 7479SOL    HW223859   2.938   0.133   0.584 -1.1924 -0.3793  1.2172
 7480SOL     OW23860   3.627   3.220   3.185  0.1731  0.1522 -0.2475
 7480SOL    HW123861   3.537   3.203   3.213  0.1644  0.8943  0.2071
 7480SOL    HW223862   3.619   3.243   3.093  0.0199 -0.7678 -0.4768
 7481SOL     OW23863   7.905   5.813   7.957 -0.0507  0.8459  0.2108
 7481SOL    HW123864   7.813   5.839   7.956 -0.5596 -0.7568 -1.6900
 7481SOL    HW223865   7.950   5.884   7.911 -0.7634  0.4473 -1.1588
 7482SOL     OW23866   8.383   0.463   3.625  0.6278  0.5101 -0.1453
 7482SOL    HW123867   8.364   0.390   3.684 -3.0055  1.3219 -0.1079
 7482SOL    HW223868   8.461   0.504   3.662  0.1740 -0.7266  2.3940
 7483SOL     OW23869   8.352   5.926   3.707 -0.4213  0.3771  0.4478
 7483SOL    HW123870   8.321   5.985   3.638 -2.2590 -0.5239  0.4532
 7483SOL    HW223871   8.336   5.975   3.788 -0.1077  0.6450  0.3510
 7484SOL     OW23872   6.146   7.022   5.270 -0.0064 -0.0058 -0.9799
 7484SOL    HW123873   6.192   7.029   5.353 -1.0545 -0.0629 -0.3735
 7484SOL    HW223874   6.174   7.099   5.220 -0.7508  1.0245  0.1404
 7485SOL     OW23875   8.236   3.332   4.558 -0.1276 -1.1355 -0.3111
 7485SOL    HW123876   8.194   3.374   4.633  2.0316 -1.3822  1.1229
 7485SOL    HW223877   8.212   3.387   4.483  1.8866  2.2937  1.3449
 7486SOL     OW23878   8.028   7.058   4.550 -0.0190  0.4333 -0.5731
 7486SOL    HW123879   7.941   7.097   4.542 -0.2035 -0.0229 -0.7938
 7486SOL    HW223880   8.087   7.133   4.563 -0.5093  0.7040  0.1336
 7487SOL     OW23881   0.479   1.388   7.236 -0.1545 -0.1178  0.2927
 7487SOL    HW123882   0.473   1.455   7.169  0.0418 -0.1095  0.2854
 7487SOL    HW223883   0.538   1.322   7.200 -1.4889 -1.0323 -0.3398
 7488SOL     OW23884   8.134   8.920   2.058 -0.1614  0.7738  0.0328
 7488SOL    HW123885   8.169   8.932   1.970 -1.1924 -0.1837 -0.5317
 7488SOL    HW223886   8.040   8.933   2.049 -0.9511 -3.3990  0.0520
 7489SOL     OW23887   5.017   7.687   8.541 -0.4557  0.3114 -0.4670
 7489SOL    HW123888   5.020   7.774   8.582  1.7500 -0.2111  0.6584
 7489SOL    HW223889   4.982   7.630   8.609  2.5018 -0.4263  0.5774
 7490SOL     OW23890   7.315   1.524   4.960 -0.3788 -0.0859  0.1741
 7490SOL    HW123891   7.384   1.477   4.913 -0.1362  0.1442  0.3009
 7490SOL    HW223892   7.286   1.462   5.028 -1.4576 -0.8303 -0.9179
 7491SOL     OW23893   3.032   0.140   0.080 -0.2412  0.7070 -0.6500
 7491SOL    HW123894   3.087   0.202   0.128  0.6919 -0.2295 -0.4727
 7491SOL    HW223895   3.026   0.063   0.137  1.1775 -0.5746 -2.1141
 7492SOL     OW23896   3.942   2.814   6.306  0.3497 -0.3286  0.4718
 7492SOL    HW123897   3.982   2.795   6.221 -1.6987 -0.0134 -0.6135
 7492SOL    HW223898   3.970   2.741   6.362  1.3996 -0.7663 -0.5851
 7493SOL     OW23899   6.273   8.703   6.432 -0.4879  0.2468  0.2352
 7493SOL    HW123900   6.262   8.625   6.377 -0.7021 -0.3008  1.0444
 7493SOL    HW223901   6.342   8.753   6.389  0.6046 -1.0414  0.4236
 7494SOL     OW23902   7.733   2.793   6.825 -0.3340 -0.4623 -0.0674
 7494SOL    HW123903   7.718   2.846   6.747  1.1169  0.2638  0.1078
 7494SOL    HW223904   7.667   2.823   6.887 -0.5555 -0.0015 -0.5136
 7495SOL     OW23905   3.478   3.630   6.018 -0.3283 -0.4579  0.0922
 7495SOL    HW123906   3.457   3.655   5.929 -0.2214  0.7929  0.4081
 7495SOL    HW223907   3.400   3.582   6.048 -1.4779  1.3586  0.1789
 7496SOL     OW23908   0.994   4.658   1.795 -0.2905  0.1889 -0.0733
 7496SOL    HW123909   0.913   4.660   1.745 -0.5844  0.8013  0.4184
 7496SOL    HW223910   1.002   4.746   1.832  0.2050 -0.0941  0.5078
 7497SOL     OW23911   6.397   7.904   0.745 -0.0816  0.0666  0.1165
 7497SOL    HW123912   6.489   7.896   0.720  0.2846 -0.1599  1.4613
 7497SOL    HW223913   6.372   7.991   0.716  0.8229  0.4799  0.5427
 7498SOL     OW23914   0.954   4.478   0.031 -0.1686 -0.5474  0.2022
 7498SOL    HW123915   0.972   4.501   0.122 -0.5013 -1.2532  0.4518
 7498SOL    HW223916   1.017   4.530  -0.019 -0.7032  0.6811  0.7573
 7499SOL     OW23917   2.821   7.354   9.126  0.4162 -0.1239 -0.0725
 7499SOL    HW123918   2.889   7.383   9.187 -1.5042  0.7940  1.7592
 7499SOL    HW223919   2.787   7.273   9.165  1.0618 -1.1019 -1.4810
 7500SOL     OW23920   9.188   9.092   7.523 -0.4154  0.1168  0.3808
 7500SOL    HW123921   9.186   9.079   7.618  1.0232 -1.0511  0.2975
 7500SOL    HW223922   9.169   9.005   7.487 -1.5017  0.6638 -0.4281
 7501SOL     OW23923   5.251   9.271   3.914  0.2233  0.1615  0.0103
 7501SOL    HW123924   5.231   9.276   3.820  2.3296 -1.7612 -0.6193
 7501SOL    HW223925   5.173   9.230   3.953  0.4062 -1.6359 -1.3840
 7502SOL     OW23926   2.562   7.787   0.329 -0.2475 -0.4850  0.4480
 7502SOL    HW123927   2.617   7.832   0.393 -1.2691  1.6971 -0.0970
 7502SOL    HW223928   2.488   7.754   0.380  0.1891 -1.0164  0.7523
 7503SOL     OW23929   2.437   1.971   4.344  0.3503  0.6865  0.3804
 7503SOL    HW123930   2.418   2.029   4.270  0.9907  1.0089  0.4658
 7503SOL    HW223931   2.520   2.003   4.379  1.3866 -1.0622 -0.3536
 7504SOL     OW23932   0.245   9.220   7.781 -0.4968  0.3167  0.0728
 7504SOL    HW123933   0.283   9.167   7.851 -0.7678 -0.2445 -0.2053
 7504SOL    HW223934   0.155   9.236   7.808 -0.1337  1.5106  0.6522
 7505SOL     OW23935   0.952   9.222   4.228 -0.2048 -0.4842 -0.5331
 7505SOL    HW123936   0.918   9.201   4.315  0.3592 -0.6402 -0.3415
 7505SOL    HW223937   0.875   9.224   4.172 -0.7810  1.1526  0.2530
 7506SOL     OW23938   8.072   2.990   1.813  0.4559 -0.2084 -0.3503
 7506SOL    HW123939   8.160   3.030   1.811  0.3322  0.3339  2.0771
 7506SOL    HW223940   8.014   3.062   1.837 -0.3579 -1.0084  0.1090
 7507SOL     OW23941   0.052   2.211   2.343  0.0782 -0.0644 -0.2626
 7507SOL    HW123942   0.011   2.283   2.390  1.0188 -0.2901  0.9433
 7507SOL    HW223943   0.138   2.200   2.384  0.6654 -0.7159 -1.5972
 7508SOL     OW23944   9.216   9.267   5.394  0.7700 -0.2657  0.0054
 7508SOL    HW123945   9.243   9.259   5.485  1.1521 -0.7172 -0.1453
 7508SOL    HW223946   9.205   9.177   5.364 -3.1804 -0.2014  0.7190
 7509SOL     OW23947   6.516   8.380   6.250  0.0308 -0.3812 -0.3490
 7509SOL    HW123948   6.483   8.402   6.337 -0.4077 -0.7077 -0.4234
 7509SOL    HW223949   6.588   8.440   6.235  0.7336 -0.9600  0.6309
 7510SOL     OW23950   4.866   7.625   1.094  0.4820 -0.3792  0.3631
 7510SOL    HW123951   4.952   7.656   1.122  0.4053 -1.6234  2.1405
 7510SOL    HW223952   4.885   7.557   1.028  0.9540 -1.4277  1.5335
 7511SOL     OW23953   5.307   7.688   6.380  0.3164 -0.0489 -0.0303
 7511SOL    HW123954   5.218   7.707   6.409  0.2975 -1.6656  1.1463
 7511SOL    HW223955   5.335   7.766   6.331 -1.6797  0.5291 -0.3148
 7512SOL     OW23956   1.906   3.224   6.520 -0.1206 -0.0740 -0.0887
 7512SOL    HW123957   1.830   3.192   6.569 -1.2115 -1.5842 -2.5780
 7512SOL    HW223958   1.889   3.318   6.508 -0.7540 -0.0653  0.7804
 7513SOL     OW23959   1.854   6.251   3.713 -0.1807  0.1095  0.1668
 7513SOL    HW123960   1.863   6.182   3.647 -0.2804 -0.3412  0.6185
 7513SOL    HW223961   1.839   6.204   3.795 -0.0335  0.6642  0.5175
 7514SOL     OW23962   6.989   0.638   4.440 -0.0596 -0.4506 -0.0466
 7514SOL    HW123963   6.960   0.701   4.506  1.3650  1.0721 -0.8065
 7514SOL    HW223964   7.055   0.585   4.484  0.2337 -0.0378  0.0112
 7515SOL     OW23965   7.403   9.265   0.979 -0.1781  0.1302 -0.8853
 7515SOL    HW123966   7.397   9.338   1.040  0.8081  0.9909 -1.8057
 7515SOL    HW223967   7.495   9.239   0.980 -0.6907 -1.8914  0.3004
 7516SOL     OW23968   3.515   2.144   3.821  0.6352 -0.2116 -0.3556
 7516SOL    HW123969   3.479   2.149   3.732 -1.0011  0.7182  0.3255
 7516SOL    HW223970   3.481   2.062   3.856 -0.6994  0.5431  0.1971
 7517SOL     OW23971   4.463   0.625   1.849  0.0423 -0.5420 -0.1513
 7517SOL    HW123972   4.421   0.574   1.780 -0.0696  0.1680 -0.6102
 7517SOL    HW223973   4.405   0.699   1.864  0.6664 -0.0480 -0.1426
 7518SOL     OW23974   5.466   8.058   4.814 -0.2747  0.2968 -0.3943
 7518SOL    HW123975   5.556   8.091   4.818 -0.7993  2.3325 -2.5841
 7518SOL    HW223976   5.447   8.054   4.720 -2.2370 -0.8141  0.0028
 7519SOL     OW23977   5.140   5.981   2.314  0.0560 -0.3078 -0.1853
 7519SOL    HW123978   5.052   6.012   2.296  0.0128  0.0976  0.6620
 7519SOL    HW223979   5.193   6.060   2.319  0.6867 -0.5963 -1.6900
 7520SOL     OW23980   2.521   7.795   4.753  0.0991  0.0219  0.7139
 7520SOL    HW123981   2.473   7.833   4.679  0.1590 -1.9447 -0.4114
 7520SOL    HW223982   2.456   7.788   4.823 -0.3397  0.6029  0.3716
 7521SOL     OW23983   0.699   4.561   0.190  0.1713  0.5033 -0.4469
 7521SOL    HW123984   0.609   4.574   0.161  0.4312 -0.8580 -1.9584
 7521SOL    HW223985   0.750   4.554   0.110  1.2428 -1.3084  0.3247
 7522SOL     OW23986   7.612   1.195   4.645 -0.6345  0.0671  0.0125
 7522SOL    HW123987   7.528   1.182   4.600 -1.6510  2.5364  1.0207
 7522SOL    HW223988   7.663   1.249   4.586 -0.3623 -0.1139  0.0809
 7523SOL     OW23989   8.379   3.197   3.051 -0.3903 -0.2517  0.8627
 7523SOL    HW123990   8.430   3.258   2.998 -0.6033 -0.1764  0.7452
 7523SOL    HW223991   8.377   3.117   2.998  0.2498 -0.5016  1.2027
 7524SOL     OW23992   8.722   2.847   5.621  0.0062  0.1675 -0.0703
 7524SOL    HW123993   8.680   2.891   5.547 -0.1572  0.5000  0.2119
 7524SOL    HW223994   8.654   2.789   5.656 -0.1525  0.5419  0.2520
 7525SOL     OW23995   3.584   4.160   7.963  0.0248 -0.3096 -0.2858
 7525SOL    HW123996   3.623   4.087   8.011  0.5711 -0.9773 -1.7125
 7525SOL    HW223997   3.647   4.182   7.895 -1.4142 -0.4600 -1.7414
 7526SOL     OW23998   8.100   5.636   2.372  0.7413 -0.2484 -0.3969
 7526SOL    HW123999   8.092   5.544   2.395 -0.7163  0.3073  1.6544
 7526SOL    HW224000   8.010   5.663   2.350  1.2068  0.5977 -1.3645
 7527SOL     OW24001   8.448   2.387   6.531  0.4568 -0.3457  0.4269
 7527SOL    HW124002   8.454   2.311   6.588 -0.1621  0.3484  1.4622
 7527SOL    HW224003   8.538   2.420   6.526  0.4215  0.0155  1.6470
 7528SOL     OW24004   2.070   4.174   7.292 -0.3381 -0.2428 -0.2289
 7528SOL    HW124005   2.161   4.201   7.280  0.0096 -0.7909  0.9889
 7528SOL    HW224006   2.025   4.204   7.213  1.1899 -1.2877 -1.5466
 7529SOL     OW24007   5.253   4.958   5.777 -0.3819 -0.1106 -0.2143
 7529SOL    HW124008   5.321   5.024   5.783 -0.8549  0.3459  0.2612
 7529SOL    HW224009   5.294   4.885   5.731  0.5641 -0.0336  0.4973
 7530SOL     OW24010   3.413   1.605   0.946  0.0707 -0.5605 -0.2462
 7530SOL    HW124011   3.419   1.549   0.868 -1.7717 -0.8907 -0.1976
 7530SOL    HW224012   3.485   1.668   0.936  0.1677 -0.8950 -1.9810
 7531SOL     OW24013   8.770   1.521   2.582 -0.3770  0.1735  0.1396
 7531SOL    HW124014   8.866   1.530   2.582 -0.3960  0.3774  0.0046
 7531SOL    HW224015   8.743   1.552   2.668 -0.2621 -0.5408  0.4417
 7532SOL     OW24016   6.968   8.532   0.942  0.3711  0.0311  0.5763
 7532SOL    HW124017   6.953   8.462   0.878  1.8645 -1.3657  1.6544
 7532SOL    HW224018   6.884   8.540   0.989 -0.5318  0.6231 -1.0743
 7533SOL     OW24019   5.519   2.239   3.106  0.0440 -0.3118  0.3043
 7533SOL    HW124020   5.575   2.317   3.106 -0.6790  0.2106  0.2463
 7533SOL    HW224021   5.464   2.248   3.183 -0.5147 -0.4207 -0.0776
 7534SOL     OW24022   5.882   5.159   3.443 -0.0969 -0.5363 -0.4407
 7534SOL    HW124023   5.934   5.133   3.367 -0.3221 -1.4551 -0.2910
 7534SOL    HW224024   5.921   5.241   3.472  0.7936 -0.8365 -0.7782
 7535SOL     OW24025   1.845   3.769   3.417  0.4202 -0.2629 -0.5248
 7535SOL    HW124026   1.831   3.843   3.477  0.3759  0.8913 -1.8947
 7535SOL    HW224027   1.757   3.740   3.395  0.4166 -0.1549 -0.6546
 7536SOL     OW24028   6.633   5.263   4.338 -0.2384 -0.5184 -0.1634
 7536SOL    HW124029   6.582   5.270   4.257  0.2684 -1.8055 -0.6143
 7536SOL    HW224030   6.585   5.202   4.393  0.1919 -0.8100 -0.1016
 7537SOL     OW24031   1.011   3.596   7.838 -0.1422 -0.3793 -0.4384
 7537SOL    HW124032   1.023   3.691   7.835 -0.5605 -0.2647  0.9897
 7537SOL    HW224033   1.084   3.564   7.891 -1.8955 -0.4358  2.1148
 7538SOL     OW24034   6.239   2.445   1.237 -0.2534  0.2625 -0.0235
 7538SOL    HW124035   6.297   2.455   1.312  1.1711 -1.0676 -0.9014
 7538SOL    HW224036   6.238   2.351   1.220 -0.2064  0.5748 -1.9275
 7539SOL     OW24037   8.577   1.730   9.086  0.4320 -0.1748 -0.0647
 7539SOL    HW124038   8.557   1.788   9.160 -3.5918 -0.2309 -0.9013
 7539SOL    HW224039   8.557   1.642   9.119 -0.8140 -0.2575 -0.9877
 7540SOL     OW24040   3.450   4.941   7.330 -0.0203 -0.4004 -0.1310
 7540SOL    HW124041   3.525   4.905   7.377 -0.3554  0.9819  1.5674
 7540SOL    HW224042   3.403   4.992   7.396 -1.1436  0.7146 -1.7215
 7541SOL     OW24043   2.526   1.612   1.212 -0.5145  0.8611 -0.9945
 7541SOL    HW124044   2.498   1.703   1.216 -2.9541  0.1822 -1.4278
 7541SOL    HW224045   2.556   1.600   1.122  1.8490  1.7138 -0.4041
 7542SOL     OW24046   1.840   4.282   8.673 -0.8694 -0.2408  0.4588
 7542SOL    HW124047   1.822   4.206   8.618 -0.9771 -0.4505  0.7770
 7542SOL    HW224048   1.875   4.245   8.754  2.2056  0.1964 -0.5511
 7543SOL     OW24049   4.271   1.713   3.863  0.5732  0.2162  0.1561
 7543SOL    HW124050   4.302   1.706   3.953  1.7035 -1.8174 -0.3261
 7543SOL    HW224051   4.350   1.705   3.809 -0.2897 -0.8805 -1.0286
 7544SOL     OW24052   0.972   4.210   8.560 -0.2223 -0.6442 -0.3225
 7544SOL    HW124053   1.018   4.161   8.492 -0.0969 -0.2961 -0.4904
 7544SOL    HW224054   0.906   4.261   8.513  0.0676 -0.1690 -0.2208
 7545SOL     OW24055   1.050   5.832   1.131  0.0938  0.1332 -0.2339
 7545SOL    HW124056   1.114   5.903   1.134  0.7011 -0.4007 -0.1795
 7545SOL    HW224057   1.094   5.758   1.175 -1.5638  0.5320  2.3413
 7546SOL     OW24058   5.272   2.661   2.589 -0.2264  0.7025 -0.2761
 7546SOL    HW124059   5.321   2.664   2.507  1.8644 -1.6722  0.7523
 7546SOL    HW224060   5.322   2.718   2.648  0.2015 -0.1631  0.2204
 7547SOL     OW24061   0.510   7.238   8.538  0.0226 -0.1027 -0.1651
 7547SOL    HW124062   0.475   7.316   8.496  0.5413 -0.1673 -0.7288
 7547SOL    HW224063   0.492   7.167   8.476  0.4206 -0.2690 -0.0940
 7548SOL     OW24064   4.535   3.591   4.013 -0.0371  0.0499  0.3755
 7548SOL    HW124065   4.576   3.505   4.011  1.3140  0.6736 -0.4872
 7548SOL    HW224066   4.492   3.599   3.928 -0.6183  0.0293  0.6627
 7549SOL     OW24067   1.199   9.041   5.928  0.3460 -0.0288 -0.0917
 7549SOL    HW124068   1.122   9.054   5.983  1.4686  2.9600  0.9989
 7549SOL    HW224069   1.180   9.093   5.849  0.1565 -1.5439 -1.0830
 7550SOL     OW24070   1.732   8.343   1.862 -0.1603  0.0808  0.4088
 7550SOL    HW124071   1.774   8.295   1.933  0.9969  0.3852 -0.0489
 7550SOL    HW224072   1.724   8.279   1.791  0.2672  0.2365  0.2193
 7551SOL     OW24073   7.054   8.993   1.893 -0.0496 -0.8059  0.4335
 7551SOL    HW124074   7.138   9.039   1.893 -0.6678  0.3775  1.3475
 7551SOL    HW224075   7.076   8.901   1.908  1.1476 -0.6783 -0.4369
 7552SOL     OW24076   8.433   7.253   8.136 -0.5742 -0.2048  0.0255
 7552SOL    HW124077   8.388   7.200   8.070 -0.9493  0.1324  0.0066
 7552SOL    HW224078   8.482   7.189   8.188  1.0015 -0.3137 -1.5374
 7553SOL     OW24079   0.249   7.446   7.283  0.9498  0.1560  0.0582
 7553SOL    HW124080   0.295   7.511   7.230  1.2581  1.3370  1.7087
 7553SOL    HW224081   0.270   7.469   7.373 -3.3555  1.1944  1.0116
 7554SOL     OW24082   2.888   7.288   4.729  0.0221  0.3685  0.4497
 7554SOL    HW124083   2.876   7.343   4.652 -2.5246 -1.0977 -0.3195
 7554SOL    HW224084   2.872   7.347   4.803  0.7994  1.4107 -0.1892
 7555SOL     OW24085   0.891   4.259   7.756 -0.1964  0.6368 -0.1055
 7555SOL    HW124086   0.838   4.182   7.735 -0.0652  0.4131  0.3688
 7555SOL    HW224087   0.979   4.225   7.769 -0.4209  0.6154  1.6646
 7556SOL     OW24088   7.500   1.716   1.843  0.3216  0.4284 -0.0199
 7556SOL    HW124089   7.425   1.704   1.900 -0.1618 -1.1151 -0.9081
 7556SOL    HW224090   7.462   1.737   1.758  0.7853 -1.3440 -0.7233
 7557SOL     OW24091   7.867   0.427   1.778  0.0389 -0.4045  0.2521
 7557SOL    HW124092   7.796   0.474   1.734 -0.6429 -1.2461  0.4231
 7557SOL    HW224093   7.849   0.439   1.871 -0.3404 -1.2735  0.3007
 7558SOL     OW24094   6.309   3.419   8.315  0.2396  0.6754 -0.2858
 7558SOL    HW124095   6.291   3.337   8.269  0.9176  0.5439 -0.3344
 7558SOL    HW224096   6.392   3.402   8.361 -0.4344  0.7938  1.0129
 7559SOL     OW24097   3.684   3.763   6.145  0.2404 -0.4402  0.8378
 7559SOL    HW124098   3.607   3.732   6.097 -1.0253  1.8898  1.2053
 7559SOL    HW224099   3.650   3.783   6.233  1.2953  0.4947  1.0501
 7560SOL     OW24100   3.178   9.073   3.533 -0.0954  0.0446 -0.1689
 7560SOL    HW124101   3.242   9.005   3.555  0.6301  0.4266 -1.0356
 7560SOL    HW224102   3.114   9.070   3.605  2.3969  1.5474  2.3079
 7561SOL     OW24103   1.216   1.201   5.864  0.7489  0.2150  0.2443
 7561SOL    HW124104   1.227   1.296   5.865  0.2834  0.2734 -0.0611
 7561SOL    HW224105   1.302   1.167   5.890  1.1724  0.6937 -0.4884
 7562SOL     OW24106   5.154   7.366   2.773  0.0829  0.3560 -0.1097
 7562SOL    HW124107   5.186   7.404   2.855  0.8967  1.1130 -0.7576
 7562SOL    HW224108   5.151   7.439   2.712  0.1888 -0.3358 -0.9658
 7563SOL     OW24109   3.185   8.743   2.200 -0.5365 -0.0743 -0.4712
 7563SOL    HW124110   3.126   8.753   2.125  0.6249  1.4417 -1.2286
 7563SOL    HW224111   3.189   8.830   2.240  0.8302 -0.2465 -0.1697
 7564SOL     OW24112   1.871   4.376   6.391  0.1479  0.0894 -0.5290
 7564SOL    HW124113   1.940   4.415   6.444 -0.3511  0.6620 -0.2867
 7564SOL    HW224114   1.820   4.450   6.358  0.4818 -0.2561 -1.8771
 7565SOL     OW24115   7.017   2.864   6.335  0.1992 -0.2803 -0.7203
 7565SOL    HW124116   6.964   2.840   6.411  1.0095  0.5738  0.1403
 7565SOL    HW224117   7.020   2.784   6.282  0.2807 -1.1444  0.5370
 7566SOL     OW24118   7.954   2.015   1.281  1.0236 -0.1208 -0.5749
 7566SOL    HW124119   7.941   2.102   1.243  0.9980  0.8904  1.5828
 7566SOL    HW224120   8.049   2.002   1.279  0.9004 -1.1458 -3.0649
 7567SOL     OW24121   7.449   6.937   2.556  0.0490 -0.0452 -0.0579
 7567SOL    HW124122   7.472   6.850   2.588  1.1814 -0.3650 -1.5954
 7567SOL    HW224123   7.426   6.987   2.634 -1.4070 -1.9195  0.7929
 7568SOL     OW24124   2.604   8.375   3.237  0.2475  0.2269  0.3054
 7568SOL    HW124125   2.690   8.403   3.205  0.3629 -1.0201 -0.5567
 7568SOL    HW224126   2.583   8.297   3.185 -0.7834 -0.3106  1.4655
 7569SOL     OW24127   6.127   8.930   1.527  0.0061  0.7735 -0.5924
 7569SOL    HW124128   6.037   8.900   1.514 -0.0626  0.8059 -0.2137
 7569SOL    HW224129   6.171   8.912   1.444 -0.4574  1.1377 -0.9222
 7570SOL     OW24130   4.488   0.296   7.915  0.1868  0.1932 -0.0838
 7570SOL    HW124131   4.526   0.341   7.990  0.8265 -1.9213  0.9295
 7570SOL    HW224132   4.562   0.277   7.858  0.0928 -0.5172  0.0252
 7571SOL     OW24133   4.077   3.645   2.439 -0.0622 -0.4259  0.3960
 7571SOL    HW124134   4.172   3.654   2.429 -0.1240  1.8795  1.2134
 7571SOL    HW224135   4.040   3.690   2.363 -0.5959 -3.2847 -1.1800
 7572SOL     OW24136   6.549   8.544   5.517  0.7574 -0.1573  0.5101
 7572SOL    HW124137   6.615   8.522   5.452 -0.4728  1.0031 -1.2154
 7572SOL    HW224138   6.595   8.538   5.601  3.2327  1.1474 -0.6402
 7573SOL     OW24139   3.066   7.478   5.589 -0.3145  0.2028  0.3359
 7573SOL    HW124140   3.013   7.413   5.634 -2.0778  0.5376 -1.1218
 7573SOL    HW224141   3.066   7.554   5.647 -0.4615 -0.1901  0.8567
 7574SOL     OW24142   5.773   9.220   1.905 -0.0502 -0.0517 -0.0326
 7574SOL    HW124143   5.770   9.295   1.965  2.0940 -0.2664  0.4333
 7574SOL    HW224144   5.713   9.156   1.944  0.3798  0.2826  1.2360
 7575SOL     OW24145   4.387   4.891   2.721  0.4610  0.1206 -0.0550
 7575SOL    HW124146   4.304   4.915   2.679 -1.5650  0.5657  3.6932
 7575SOL    HW224147   4.445   4.965   2.706 -0.8838  1.1620 -0.3256
 7576SOL     OW24148   4.197   4.674   3.797 -0.2392 -0.2864 -0.6493
 7576SOL    HW124149   4.101   4.672   3.797 -0.4505  0.9891  3.1938
 7576SOL    HW224150   4.222   4.616   3.869  1.8174  0.3279 -0.7938
 7577SOL     OW24151   9.117   1.786   5.646  0.3748  0.2076  0.2853
 7577SOL    HW124152   9.076   1.872   5.632  0.3363  0.3672  1.2797
 7577SOL    HW224153   9.139   1.786   5.739  2.7014  0.1374 -0.2236
 7578SOL     OW24154   7.099   5.257   8.856  0.8043  0.3693 -0.2902
 7578SOL    HW124155   7.171   5.278   8.916 -0.0788  1.4605  0.4365
 7578SOL    HW224156   7.103   5.324   8.788  2.1221 -1.1659 -1.8114
 7579SOL     OW24157   8.491   7.501   8.205 -0.1568  0.0935 -0.7063
 7579SOL    HW124158   8.470   7.518   8.296  0.1576  0.0476 -0.6250
 7579SOL    HW224159   8.453   7.415   8.187 -0.1285  0.0566 -0.5906
 7580SOL     OW24160   4.780   3.854   2.906 -0.0701 -0.5552 -0.0026
 7580SOL    HW124161   4.827   3.891   2.831  1.3332 -0.5313  0.8555
 7580SOL    HW224162   4.792   3.918   2.976  0.0274 -1.3425  0.7111
 7581SOL     OW24163   8.917   0.233   3.488 -0.2283  0.2034 -0.0461
 7581SOL    HW124164   8.959   0.259   3.570  2.3334  0.7983 -1.4168
 7581SOL    HW224165   8.828   0.267   3.495  0.4109  1.7070  1.8216
 7582SOL     OW24166   7.482   5.140   4.408  0.7669 -0.0730 -0.7590
 7582SOL    HW124167   7.437   5.208   4.358 -0.5273 -0.0341  0.3986
 7582SOL    HW224168   7.429   5.061   4.394 -0.5007  0.2612  1.6599
 7583SOL     OW24169   5.113   8.635   4.841  0.0745 -0.6397 -0.2839
 7583SOL    HW124170   5.157   8.551   4.831 -0.7220 -0.9488 -1.5115
 7583SOL    HW224171   5.020   8.614   4.832 -0.3780 -0.0030  2.2086
 7584SOL     OW24172   8.196   2.841   4.033  0.0716  0.0504  0.5485
 7584SOL    HW124173   8.100   2.846   4.029  0.1422  3.1025 -2.7336
 7584SOL    HW224174   8.221   2.904   4.101 -0.2485  0.4888  0.2659
 7585SOL     OW24175   1.634   1.409   3.525  0.2066 -0.0406 -0.0882
 7585SOL    HW124176   1.672   1.433   3.440 -0.5657 -0.2006 -0.4853
 7585SOL    HW224177   1.645   1.314   3.530  0.7231  0.0320  0.2299
 7586SOL     OW24178   3.645   3.017   8.410  0.1287  0.5006 -0.7060
 7586SOL    HW124179   3.661   3.070   8.331  1.1764 -0.1084 -0.9171
 7586SOL    HW224180   3.585   2.949   8.381 -1.4081  1.6559 -0.3816
 7587SOL     OW24181   1.655   8.587   3.213 -0.3761 -0.4341 -0.0820
 7587SOL    HW124182   1.655   8.575   3.118 -0.3858 -1.2734  0.0167
 7587SOL    HW224183   1.586   8.651   3.229 -1.5935 -1.5984 -0.4884
 7588SOL     OW24184   4.326   6.283   1.051 -0.5343  0.4099  0.4006
 7588SOL    HW124185   4.274   6.210   1.016  0.5808 -0.7248  1.0071
 7588SOL    HW224186   4.406   6.283   0.998 -1.0100  1.9993 -0.3862
 7589SOL     OW24187   3.390   5.171   2.994  0.2401 -0.0304  0.2410
 7589SOL    HW124188   3.421   5.255   2.960  1.1088 -0.2876  0.3729
 7589SOL    HW224189   3.308   5.155   2.947  1.1949 -0.1826 -1.4662
 7590SOL     OW24190   0.738   4.443   1.692  0.0145  0.1839  0.5321
 7590SOL    HW124191   0.722   4.493   1.771  2.4714 -0.3766  1.4804
 7590SOL    HW224192   0.720   4.504   1.620 -1.8569  0.8211  1.4870
 7591SOL     OW24193   8.961   8.899   2.087 -0.2156  0.2412 -0.4560
 7591SOL    HW124194   8.971   8.918   2.180 -0.3423 -0.4787 -0.2822
 7591SOL    HW224195   9.050   8.887   2.054 -0.1076  1.5911 -0.6821
 7592SOL     OW24196   4.412   8.029   8.234 -0.5212  0.1925 -0.0067
 7592SOL    HW124197   4.477   8.084   8.278 -1.1204 -0.2145  1.4504
 7592SOL    HW224198   4.381   8.082   8.162  0.9504  0.6468 -0.3483
 7593SOL     OW24199   8.934   5.394   6.195 -0.2483  0.2107  0.2714
 7593SOL    HW124200   8.903   5.358   6.278 -0.6783  0.8382  0.3910
 7593SOL    HW224201   8.939   5.488   6.210  2.3857  0.1020  0.4492
 7594SOL     OW24202   7.867   1.147   7.676 -0.3761  0.3839 -0.2198
 7594SOL    HW124203   7.822   1.133   7.760 -2.0993 -1.3776 -1.3653
 7594SOL    HW224204   7.798   1.138   7.610  1.1196  0.7229 -1.8983
 7595SOL     OW24205   3.648   8.751   8.136 -0.5510  0.2092 -0.1417
 7595SOL    HW124206   3.570   8.709   8.099  0.9272 -1.0838 -1.9599
 7595SOL    HW224207   3.620   8.781   8.222 -3.0372 -0.2554 -0.7086
 7596SOL     OW24208   3.302   7.547   6.752  0.2327  0.9793  0.5367
 7596SOL    HW124209   3.365   7.587   6.812  2.4014  1.8463 -2.1263
 7596SOL    HW224210   3.262   7.621   6.707  0.1183  0.3154 -0.4771
 7597SOL     OW24211   2.696   3.999   1.873 -0.5951 -0.0009 -0.3292
 7597SOL    HW124212   2.641   4.077   1.873 -0.5930  0.0014 -0.5752
 7597SOL    HW224213   2.644   3.933   1.920 -1.3560 -0.3813 -1.6651
 7598SOL     OW24214   5.676   1.356   2.188 -0.3025  0.1109  0.7320
 7598SOL    HW124215   5.598   1.410   2.196 -0.2185  0.0800  1.9504
 7598SOL    HW224216   5.701   1.362   2.096 -2.3863 -0.8114  0.0517
 7599SOL     OW24217   3.192   7.627   4.240 -0.0110 -0.1963 -0.4636
 7599SOL    HW124218   3.220   7.718   4.224 -0.5271  0.1574  0.5308
 7599SOL    HW224219   3.273   7.580   4.259  0.1742  0.2339 -0.1808
 7600SOL     OW24220   2.818   5.470   9.197  0.3551 -0.1023  0.0502
 7600SOL    HW124221   2.851   5.546   9.244  1.2988 -0.1624 -0.4814
 7600SOL    HW224222   2.751   5.433   9.255  0.1990  0.8623  0.5118
 7601SOL     OW24223   1.314   1.558   4.766  0.1375 -0.1333 -0.1448
 7601SOL    HW124224   1.240   1.618   4.765  0.0519 -0.2410 -0.5154
 7601SOL    HW224225   1.391   1.614   4.752  0.1954  0.0616  0.8914
 7602SOL     OW24226   1.737   1.681   2.994 -0.1891  0.7594  0.7257
 7602SOL    HW124227   1.694   1.685   3.079  1.7718 -1.2262  1.9032
 7602SOL    HW224228   1.666   1.666   2.932 -1.2825 -4.1114  2.7204
 7603SOL     OW24229   3.029   6.872   0.493  0.2194 -0.4932 -0.4593
 7603SOL    HW124230   3.053   6.816   0.418  0.8144  0.5661 -1.0777
 7603SOL    HW224231   3.100   6.858   0.556 -0.1621 -1.2085 -0.1766
 7604SOL     OW24232   1.911   0.698   1.622 -0.6211  0.6860 -0.5899
 7604SOL    HW124233   1.884   0.615   1.583  1.5191 -0.8821  1.0701
 7604SOL    HW224234   1.949   0.748   1.550  0.2287 -0.7624 -1.1730
 7605SOL     OW24235   6.220   5.728   3.924 -0.3279  0.6568 -0.0401
 7605SOL    HW124236   6.304   5.769   3.900  0.9678 -0.8991  1.6010
 7605SOL    HW224237   6.217   5.648   3.872 -1.7373  1.5598 -1.4596
 7606SOL     OW24238   6.955   3.964   9.057 -0.5340 -0.3511  0.7209
 7606SOL    HW124239   6.941   3.993   9.147 -0.9334 -1.1376  0.9204
 7606SOL    HW224240   6.873   3.986   9.012  0.0738  1.0726  0.2553
 7607SOL     OW24241   7.691   6.116   4.305 -0.4371  0.1291  0.4469
 7607SOL    HW124242   7.773   6.126   4.354  1.6474  0.4595 -2.7985
 7607SOL    HW224243   7.666   6.206   4.282  0.8571 -0.1080 -2.2679
 7608SOL     OW24244   2.266   2.829   6.991  0.0138  0.1580 -0.2027
 7608SOL    HW124245   2.183   2.802   6.952  0.5001  1.1306 -2.0161
 7608SOL    HW224246   2.258   2.806   7.084 -1.1293 -2.4788 -0.8544
 7609SOL     OW24247   4.554   4.915   6.851 -0.0877 -0.1048  0.0172
 7609SOL    HW124248   4.472   4.935   6.896 -0.2068  0.2274 -0.3410
 7609SOL    HW224249   4.614   4.985   6.878 -0.4493  0.6650 -1.0900
 7610SOL     OW24250   6.322   7.103   7.837  0.0078 -0.2867 -0.8968
 7610SOL    HW124251   6.384   7.106   7.910 -0.5241 -0.9059 -0.4124
 7610SOL    HW224252   6.245   7.059   7.872 -1.6335  2.4359 -0.8018
 7611SOL     OW24253   6.816   2.759   3.258 -0.6975 -0.8545  0.4553
 7611SOL    HW124254   6.881   2.797   3.199 -1.0873  0.0965  0.6086
 7611SOL    HW224255   6.814   2.666   3.236  0.8872 -0.9473  0.6222
 7612SOL     OW24256   7.558   1.914   3.106  0.2147  0.1621 -0.0854
 7612SOL    HW124257   7.527   1.967   3.032 -0.5056 -1.3705 -0.9386
 7612SOL    HW224258   7.479   1.892   3.154  0.1076 -2.1738 -1.1785
 7613SOL     OW24259   4.467   8.617   2.275  0.2885  0.4480  0.9994
 7613SOL    HW124260   4.395   8.680   2.280  1.1702  1.5210  0.5524
 7613SOL    HW224261   4.456   8.561   2.352 -0.6629  0.9744  1.2620
 7614SOL     OW24262   6.230   6.348   7.493 -0.5277 -0.4889 -1.3445
 7614SOL    HW124263   6.206   6.256   7.477 -1.7283 -0.2037 -1.3198
 7614SOL    HW224264   6.165   6.398   7.443 -1.1370  0.3674  0.2442
 7615SOL     OW24265   8.346   5.451   7.163  0.5172  0.1942 -0.0411
 7615SOL    HW124266   8.366   5.474   7.253 -0.3745  0.2620  0.1547
 7615SOL    HW224267   8.261   5.493   7.146  0.6569  0.1573 -0.8990
 7616SOL     OW24268   6.176   3.297   6.855  0.1419 -0.2508 -0.3288
 7616SOL    HW124269   6.242   3.302   6.924 -0.6248 -0.7441  0.4550
 7616SOL    HW224270   6.119   3.226   6.882 -1.4573  0.9789 -0.3539
 7617SOL     OW24271   5.882   8.248   4.475 -0.4349 -0.7968 -0.5088
 7617SOL    HW124272   5.955   8.255   4.413 -0.2553 -0.1053 -0.2294
 7617SOL    HW224273   5.841   8.163   4.455 -0.7158 -0.3500 -1.9461
 7618SOL     OW24274   7.888   8.611   4.683 -0.1318 -0.3910  0.2351
 7618SOL    HW124275   7.905   8.681   4.746  1.2022 -1.3964  1.0654
 7618SOL    HW224276   7.971   8.599   4.637 -0.5946 -0.8270 -0.5148
 7619SOL     OW24277   3.322   6.169   1.842  0.5623 -0.4258  0.1437
 7619SOL    HW124278   3.320   6.231   1.770  0.0735  0.6709  1.0664
 7619SOL    HW224279   3.408   6.183   1.883 -0.1625  0.8330  1.3183
 7620SOL     OW24280   5.175   4.175   6.679 -0.1895 -0.4225  0.0073
 7620SOL    HW124281   5.190   4.097   6.625 -1.2879 -1.9764  1.7945
 7620SOL    HW224282   5.185   4.144   6.769 -0.0132  1.6836  0.7709
 7621SOL     OW24283   8.821   0.914   2.648  0.2507  0.1220 -0.1395
 7621SOL    HW124284   8.765   0.957   2.584  0.6877  0.4137 -0.3268
 7621SOL    HW224285   8.762   0.894   2.721 -0.5094 -1.2426 -1.0801
 7622SOL     OW24286   3.735   8.578   2.026 -0.6572 -0.6292  0.1865
 7622SOL    HW124287   3.685   8.579   2.107 -0.2103  1.1398  0.4702
 7622SOL    HW224288   3.815   8.531   2.048 -0.2716  0.3614  0.9597
 7623SOL     OW24289   7.609   4.282   5.736  0.0118  0.7446  0.0836
 7623SOL    HW124290   7.665   4.205   5.740 -1.0808 -0.2230 -1.8797
 7623SOL    HW224291   7.532   4.258   5.789 -0.1510  0.6238 -0.2031
 7624SOL     OW24292   1.364   0.221   2.806 -0.3982  0.2301 -0.2637
 7624SOL    HW124293   1.392   0.312   2.820  1.6751 -0.5603  1.3173
 7624SOL    HW224294   1.436   0.181   2.757  0.1087 -1.2172  1.5314
 7625SOL     OW24295   5.122   0.456   0.543  0.0200 -0.1911  0.3078
 7625SOL    HW124296   5.180   0.407   0.601 -0.2354 -1.2689 -0.3233
 7625SOL    HW224297   5.048   0.480   0.599  0.9267  0.9700  1.0516
 7626SOL     OW24298   7.094   4.661   6.680 -0.3187  0.1868  0.2724
 7626SOL    HW124299   7.025   4.724   6.704 -0.7559 -0.7060  1.4887
 7626SOL    HW224300   7.127   4.630   6.764  2.4682  1.4795 -0.2507
 7627SOL     OW24301   4.483   7.070   6.931 -0.3589  0.2773 -0.1151
 7627SOL    HW124302   4.398   7.029   6.918  0.4226 -1.3054 -0.5361
 7627SOL    HW224303   4.464   7.151   6.977 -2.0152 -0.4808  0.6234
 7628SOL     OW24304   4.537   6.717   0.706 -0.1387  0.2111  0.2574
 7628SOL    HW124305   4.578   6.677   0.783 -0.7118  1.0170  1.0089
 7628SOL    HW224306   4.560   6.660   0.633  2.8048  0.9020  0.5169
 7629SOL     OW24307   5.813   2.269   2.913  0.4927 -0.0856 -0.5149
 7629SOL    HW124308   5.838   2.296   3.002  1.2978  1.3045 -1.1193
 7629SOL    HW224309   5.832   2.176   2.909 -1.5990 -0.6775  1.4412
 7630SOL     OW24310   4.530   7.441   6.190 -0.1410 -0.0961  0.1834
 7630SOL    HW124311   4.611   7.393   6.171  0.0677  0.1258  0.4842
 7630SOL    HW224312   4.527   7.446   6.285 -0.0529  0.6543  0.1539
 7631SOL     OW24313   4.000   3.468   2.009  0.0142 -0.1012  0.7397
 7631SOL    HW124314   4.091   3.450   2.033 -0.1484 -0.0947  1.3539
 7631SOL    HW224315   3.950   3.398   2.050 -0.1017 -1.0802 -0.9539
 7632SOL     OW24316   3.884   9.079   7.030 -0.0727 -0.3845 -0.9384
 7632SOL    HW124317   3.855   9.158   7.075 -0.4364 -1.4243  0.7456
 7632SOL    HW224318   3.966   9.104   6.987 -0.2751  0.9291 -0.5929
 7633SOL     OW24319   3.721   4.365   8.963 -0.2522  0.5377 -0.4814
 7633SOL    HW124320   3.672   4.447   8.957  0.0044  0.7530  0.2022
 7633SOL    HW224321   3.699   4.318   8.883  0.2991  1.6589 -1.3231
 7634SOL     OW24322   4.295   7.151   1.539  0.3734  0.0205 -0.5251
 7634SOL    HW124323   4.383   7.125   1.512  0.5340 -1.0373  0.8849
 7634SOL    HW224324   4.242   7.071   1.528  0.0532  0.0739  0.4840
 7635SOL     OW24325   1.418   7.806   6.603  0.4391 -0.1236  0.2039
 7635SOL    HW124326   1.331   7.779   6.573  1.4243 -1.5861 -1.5761
 7635SOL    HW224327   1.446   7.736   6.662  1.1652 -0.6945 -0.7888
 7636SOL     OW24328   1.982   9.037   4.608 -0.5862 -0.1138  0.4699
 7636SOL    HW124329   1.985   9.119   4.559 -0.8856 -0.4317 -0.0816
 7636SOL    HW224330   1.959   8.971   4.544 -0.6686 -0.5868  0.9783
 7637SOL     OW24331   8.585   5.124   1.954  0.1981  0.1598  0.1785
 7637SOL    HW124332   8.672   5.101   1.987  0.2238  0.7443  0.5320
 7637SOL    HW224333   8.600   5.153   1.864 -0.0806 -3.1121 -1.0607
 7638SOL     OW24334   2.337   5.006   3.574  0.4512  0.0225  0.5600
 7638SOL    HW124335   2.252   4.997   3.618  0.7516  0.8615  1.3300
 7638SOL    HW224336   2.400   5.013   3.645  0.8476  2.3946  0.0347
 7639SOL     OW24337   7.103   8.267   0.147  0.0702 -0.0721  0.4832
 7639SOL    HW124338   7.179   8.260   0.204  0.7574  1.1833 -0.2313
 7639SOL    HW224339   7.072   8.177   0.138  3.1695 -1.1414 -1.4372
 7640SOL     OW24340   6.500   4.656   0.680 -0.4455 -0.0269 -0.0949
 7640SOL    HW124341   6.414   4.691   0.655 -0.4363  0.7975  0.9275
 7640SOL    HW224342   6.549   4.650   0.598 -1.5690 -0.7892 -0.7298
 7641SOL     OW24343   4.551   7.746   4.246  0.1415  0.1104 -0.4464
 7641SOL    HW124344   4.518   7.833   4.224 -1.9619 -0.7504 -0.9034
 7641SOL    HW224345   4.579   7.754   4.337  1.5468  1.6542 -0.9489
 7642SOL     OW24346   7.584   5.368   2.681 -0.8038 -0.2365  0.5514
 7642SOL    HW124347   7.676   5.370   2.709 -0.8934 -0.3447  0.8517
 7642SOL    HW224348   7.534   5.368   2.762 -1.0482 -1.8358  0.4309
 7643SOL     OW24349   3.718   2.417   9.042  0.1659 -0.0598 -0.2671
 7643SOL    HW124350   3.653   2.444   9.107  0.2361  0.4227 -0.3971
 7643SOL    HW224351   3.801   2.416   9.090  0.2587  0.5432 -0.4049
 7644SOL     OW24352   4.898   6.818   8.468  0.6464 -0.1424 -0.0619
 7644SOL    HW124353   4.907   6.900   8.419 -1.5713  0.7415  0.8507
 7644SOL    HW224354   4.892   6.750   8.401 -1.0247  0.8870 -1.0322
 7645SOL     OW24355   7.386   5.729   2.447 -0.4101  0.2764 -0.8488
 7645SOL    HW124356   7.293   5.744   2.468 -0.0564  0.7585  0.5122
 7645SOL    HW224357   7.389   5.726   2.351 -1.6401  1.6482 -0.9784
 7646SOL     OW24358   3.840   3.926   5.116 -0.2747  0.1583  0.4174
 7646SOL    HW124359   3.796   3.915   5.031  0.2860 -1.5661  0.3151
 7646SOL    HW224360   3.923   3.969   5.094  0.2534 -1.0688 -0.0385
 7647SOL     OW24361   7.541   0.387   4.952 -0.6390  0.2003 -0.1001
 7647SOL    HW124362   7.503   0.318   5.007 -1.9810  0.5938 -0.5011
 7647SOL    HW224363   7.628   0.355   4.930 -0.8042 -0.8291  0.6950
 7648SOL     OW24364   6.652   0.027   2.679  0.0557 -0.2301  0.1145
 7648SOL    HW124365   6.706  -0.006   2.607  0.6915 -1.0397  0.9313
 7648SOL    HW224366   6.715   0.058   2.744 -0.4501 -0.8176  0.9144
 7649SOL     OW24367   6.802   9.249   6.904  0.5943  0.6717  0.3896
 7649SOL    HW124368   6.796   9.155   6.922 -1.7849  0.9362  1.3024
 7649SOL    HW224369   6.844   9.287   6.981  1.3757  0.4038  0.1047
 7650SOL     OW24370   0.217   0.465   0.865  0.3267 -0.6253  0.4895
 7650SOL    HW124371   0.176   0.392   0.912 -1.2905  0.3796  0.7147
 7650SOL    HW224372   0.300   0.429   0.834 -2.0810 -4.0168 -3.0512
 7651SOL     OW24373   7.480   0.001   6.113  0.5290 -0.2778  0.3292
 7651SOL    HW124374   7.521  -0.024   6.031 -0.6536 -0.9110 -0.0808
 7651SOL    HW224375   7.504   0.094   6.124 -0.0362  0.0759 -1.1758
 7652SOL     OW24376   3.795   2.830   0.222  0.6071 -0.5624  0.3876
 7652SOL    HW124377   3.758   2.888   0.289  2.1723 -0.5469  1.2778
 7652SOL    HW224378   3.870   2.878   0.186  0.0756 -0.7641 -1.0846
 7653SOL     OW24379   1.512   7.960   6.023  0.2813  0.1810  0.3961
 7653SOL    HW124380   1.446   7.962   6.093  0.3659  0.4132  0.4698
 7653SOL    HW224381   1.596   7.954   6.068  0.2782 -0.9981  0.2853
 7654SOL     OW24382   3.583   9.047   1.889 -0.6857  0.0930 -0.0190
 7654SOL    HW124383   3.539   9.101   1.954 -1.9106  0.9717 -1.5097
 7654SOL    HW224384   3.595   9.105   1.813 -0.5196 -1.2519 -1.0609
 7655SOL     OW24385   0.673   3.922   2.219  0.0247 -0.1096 -0.2661
 7655SOL    HW124386   0.641   3.955   2.135 -0.4145  0.9383  0.2863
 7655SOL    HW224387   0.766   3.905   2.204 -0.0500  0.0585 -0.9634
 7656SOL     OW24388   7.660   7.297   8.253  0.0644  0.0114  0.6441
 7656SOL    HW124389   7.751   7.289   8.283  0.1211 -0.2099  0.4192
 7656SOL    HW224390   7.668   7.319   8.160 -0.1082 -1.3657  0.2807
 7657SOL     OW24391   6.881   4.355   8.298  0.4116 -0.0389 -0.4742
 7657SOL    HW124392   6.951   4.370   8.361  0.4118 -1.2683 -0.1684
 7657SOL    HW224393   6.819   4.426   8.315  0.1021 -0.6839  1.3530
 7658SOL     OW24394   8.970   2.107   2.844 -0.2419 -0.4041  0.2636
 7658SOL    HW124395   8.895   2.108   2.783 -1.0223  2.0313  1.1228
 7658SOL    HW224396   8.930   2.111   2.931  0.8352  1.5516  0.7246
 7659SOL     OW24397   4.777   2.747   5.351  0.1353 -0.0915  0.3825
 7659SOL    HW124398   4.708   2.802   5.388  0.0745 -0.1620  0.3738
 7659SOL    HW224399   4.750   2.732   5.260 -0.7408 -1.5663  0.8498
 7660SOL     OW24400   6.533   8.938   4.634 -0.4422  0.0192  0.0047
 7660SOL    HW124401   6.597   8.895   4.690  0.5667  0.4650 -0.7735
 7660SOL    HW224402   6.571   8.933   4.546 -1.4874  0.2793 -0.4802
 7661SOL     OW24403   5.536   1.809   8.874  0.3743  0.2047  0.1045
 7661SOL    HW124404   5.622   1.850   8.884  0.2648  0.6465 -0.6851
 7661SOL    HW224405   5.475   1.882   8.864 -0.3357 -0.0486  2.2096
 7662SOL     OW24406   5.290   6.746   7.005  0.5240 -0.1239  0.7147
 7662SOL    HW124407   5.325   6.683   7.069  2.3702  1.3242  1.2218
 7662SOL    HW224408   5.346   6.823   7.015  0.1446  0.5597 -1.8884
 7663SOL     OW24409   5.380   7.260   1.812 -0.3550  0.2144 -0.0877
 7663SOL    HW124410   5.445   7.191   1.828 -0.4417  0.0937 -0.2670
 7663SOL    HW224411   5.432   7.335   1.782 -0.3273  0.0256 -0.5158
 7664SOL     OW24412   2.798   4.583   4.879  0.6128  0.1138 -0.2047
 7664SOL    HW124413   2.831   4.496   4.861  0.8316  0.2138 -0.2870
 7664SOL    HW224414   2.717   4.568   4.928  0.1313 -0.1532 -1.0734
 7665SOL     OW24415   7.690   0.161   7.374  0.2247 -0.1510  0.3679
 7665SOL    HW124416   7.785   0.149   7.370  0.5762  1.9045  1.2930
 7665SOL    HW224417   7.667   0.193   7.287  0.4385 -0.3464  0.2377
 7666SOL     OW24418   9.071   2.628   7.341  0.0884 -0.0676 -0.1241
 7666SOL    HW124419   9.101   2.642   7.251  0.0352  1.5114  0.0835
 7666SOL    HW224420   8.982   2.663   7.343 -0.2381 -0.8868  0.3399
 7667SOL     OW24421   7.420   8.053   6.816 -0.5289  0.0578 -0.0143
 7667SOL    HW124422   7.429   8.114   6.888 -0.9374  0.9746 -0.7132
 7667SOL    HW224423   7.325   8.038   6.809 -0.3788 -1.6892  0.9593
 7668SOL     OW24424   4.946   8.509   1.497 -0.2869 -0.2183 -0.0657
 7668SOL    HW124425   4.903   8.456   1.430 -0.0428  1.1255 -1.3187
 7668SOL    HW224426   4.906   8.595   1.490  0.9845  0.4345  0.3007
 7669SOL     OW24427   3.407   0.530   6.565 -0.1103 -0.3413 -0.4396
 7669SOL    HW124428   3.398   0.614   6.611 -1.5559 -0.2296 -0.8706
 7669SOL    HW224429   3.323   0.518   6.521 -0.2838 -2.4615  0.3625
 7670SOL     OW24430   1.403   3.354   9.174  0.5873  0.1304 -0.2606
 7670SOL    HW124431   1.458   3.424   9.210 -1.4286  1.7998 -0.2385
 7670SOL    HW224432   1.369   3.309   9.251 -1.0200  1.5462 -0.0651
 7671SOL     OW24433   5.710   6.765   8.196 -0.2640  0.6693 -0.0900
 7671SOL    HW124434   5.759   6.810   8.265  0.0239  0.5425 -0.2090
 7671SOL    HW224435   5.632   6.731   8.241 -1.2321  2.4843 -0.2695
 7672SOL     OW24436   2.666   2.423   8.168 -0.3482  0.5073  0.1029
 7672SOL    HW124437   2.707   2.350   8.215 -0.4747  0.5911  0.3474
 7672SOL    HW224438   2.666   2.397   8.076 -0.3465  0.2232  0.1858
 7673SOL     OW24439   3.592   7.476   0.678 -0.1651  0.2044 -0.3008
 7673SOL    HW124440   3.504   7.501   0.651 -1.3944 -2.6359  0.6839
 7673SOL    HW224441   3.600   7.385   0.650  1.2927 -0.5303  2.2268
 7674SOL     OW24442   3.928   6.594   8.105  0.9293 -0.0628 -0.6274
 7674SOL    HW124443   3.972   6.527   8.157  1.0502 -1.1798 -2.0804
 7674SOL    HW224444   3.860   6.628   8.162  1.6311 -0.5938  0.5551
 7675SOL     OW24445   3.188   5.076   2.021  0.1890 -0.5407 -0.3320
 7675SOL    HW124446   3.221   5.103   2.107  0.2618 -0.1622 -0.4769
 7675SOL    HW224447   3.108   5.127   2.008  0.1969 -0.5701 -0.5046
 7676SOL     OW24448   8.008   0.591   5.954 -0.0881 -0.1360 -0.1937
 7676SOL    HW124449   8.008   0.512   6.009 -0.2192  0.0178  0.0291
 7676SOL    HW224450   7.918   0.622   5.957  0.0933  0.3693  0.2204
 7677SOL     OW24451   3.668   3.897   2.653 -0.4212 -0.2320  0.1687
 7677SOL    HW124452   3.616   3.905   2.733 -0.1200 -2.2410  0.6042
 7677SOL    HW224453   3.659   3.982   2.610 -2.7783 -0.0004  0.9973
 7678SOL     OW24454   1.146   7.417   8.375  0.1725  0.0796  0.2065
 7678SOL    HW124455   1.094   7.437   8.298  1.9812 -1.4073 -1.5105
 7678SOL    HW224456   1.213   7.485   8.377  0.6876 -0.4050 -0.1216
 7679SOL     OW24457   5.791   8.718   1.923  0.3096 -0.1458  0.0221
 7679SOL    HW124458   5.861   8.743   1.863  0.7374 -0.3986  0.4058
 7679SOL    HW224459   5.713   8.759   1.888  0.7832  0.7520 -0.0014
 7680SOL     OW24460   9.161   3.922   3.222 -0.5302 -0.0544  0.0909
 7680SOL    HW124461   9.163   4.016   3.241  1.0487 -0.4225  2.0540
 7680SOL    HW224462   9.253   3.896   3.220 -0.9633 -1.7677  0.7824
 7681SOL     OW24463   0.504   2.144   6.636  0.4127  0.5197 -0.4123
 7681SOL    HW124464   0.597   2.142   6.660  0.5165 -1.8943 -0.7669
 7681SOL    HW224465   0.459   2.163   6.719  1.1109 -0.9177  0.3434
 7682SOL     OW24466   7.965   3.521   6.810  0.2421  0.6539 -0.1706
 7682SOL    HW124467   7.942   3.549   6.899 -0.3635  0.7342 -0.3484
 7682SOL    HW224468   7.883   3.487   6.774  0.5001  0.5681 -0.6804
 7683SOL     OW24469   6.220   6.233   4.635  0.6515 -0.0909 -0.2760
 7683SOL    HW124470   6.303   6.186   4.629  0.7700  0.3446 -2.7815
 7683SOL    HW224471   6.226   6.302   4.569 -0.8262  1.4032  1.0431
 7684SOL     OW24472   0.670   7.133   1.915 -0.0039  0.6420  0.1181
 7684SOL    HW124473   0.737   7.128   1.846 -0.4115  1.4502 -0.3477
 7684SOL    HW224474   0.714   7.173   1.989 -0.1552  1.9103 -0.4497
 7685SOL     OW24475   6.772   1.453   3.546  0.3418  0.1036  0.4587
 7685SOL    HW124476   6.736   1.365   3.558 -0.2282  0.3110  0.2873
 7685SOL    HW224477   6.792   1.458   3.453  0.4762  0.1221  0.4876
 7686SOL     OW24478   7.327   5.347   8.977 -0.4753  0.0012  0.6811
 7686SOL    HW124479   7.333   5.359   9.071 -0.8416 -2.5459  1.1011
 7686SOL    HW224480   7.384   5.272   8.959  0.5571  1.1773 -1.3432
 7687SOL     OW24481   8.198   4.881   8.829 -0.4559 -0.3456  0.1542
 7687SOL    HW124482   8.154   4.961   8.800 -0.1011 -0.4209 -0.6115
 7687SOL    HW224483   8.137   4.810   8.808 -0.7992 -0.2775  0.8914
 7688SOL     OW24484   1.889   1.890   0.586  0.1074  0.1424 -0.5804
 7688SOL    HW124485   1.860   1.877   0.676  0.0454 -0.7222 -0.7139
 7688SOL    HW224486   1.833   1.960   0.552 -1.2485 -0.8797 -0.5575
 7689SOL     OW24487   7.718   7.957   4.995 -0.1889 -0.9790  0.2548
 7689SOL    HW124488   7.789   7.994   5.048  0.0990 -1.5989  0.3148
 7689SOL    HW224489   7.638   7.981   5.041  0.0140 -0.8009  0.5198
 7690SOL     OW24490   7.325   2.046   2.457  1.0455 -0.1430  0.0527
 7690SOL    HW124491   7.375   2.103   2.516  0.9717 -1.3369  1.3256
 7690SOL    HW224492   7.236   2.048   2.492  0.8998 -0.5248 -0.2851
 7691SOL     OW24493   6.615   7.351   1.367  0.0269 -0.5846 -0.3143
 7691SOL    HW124494   6.640   7.292   1.297  1.7128 -0.4672  0.1444
 7691SOL    HW224495   6.697   7.392   1.395 -0.9616  1.4017 -0.0940
 7692SOL     OW24496   6.985   1.304   3.665  0.0474  0.0461 -0.5877
 7692SOL    HW124497   7.039   1.339   3.737 -1.4468 -0.2167  0.7058
 7692SOL    HW224498   6.933   1.378   3.636 -1.1930 -0.4325  0.3507
 7693SOL     OW24499   0.444   1.136   5.630 -0.0113  0.1757  0.1887
 7693SOL    HW124500   0.505   1.075   5.672 -1.2030 -0.6876  0.7081
 7693SOL    HW224501   0.445   1.110   5.538 -0.2947 -0.4532  0.3586
 7694SOL     OW24502   3.961   8.467   6.675  0.4902  0.4248  0.0153
 7694SOL    HW124503   4.039   8.478   6.729  0.4239  0.5287  0.0884
 7694SOL    HW224504   3.888   8.470   6.737  0.5593 -2.6428  0.3824
 7695SOL     OW24505   3.606   7.614   5.421  0.2360  0.0408  0.3465
 7695SOL    HW124506   3.670   7.662   5.369 -0.1005  0.8962  0.7003
 7695SOL    HW224507   3.576   7.544   5.364 -0.0704  0.9150 -0.5901
 7696SOL     OW24508   3.488   0.011   5.064 -0.0762  0.0967  0.3951
 7696SOL    HW124509   3.404   0.011   5.110 -0.5854  1.3520 -0.4703
 7696SOL    HW224510   3.466  -0.014   4.975  0.4771  0.3239  0.1891
 7697SOL     OW24511   0.596   3.484   6.745 -0.3556 -0.0460  0.1079
 7697SOL    HW124512   0.600   3.441   6.831 -0.8477  0.6576  0.4971
 7697SOL    HW224513   0.502   3.498   6.730 -0.1616  1.9680  0.5596
 7698SOL     OW24514   3.923   0.415   5.448  0.0825 -0.2927  0.7587
 7698SOL    HW124515   3.951   0.462   5.370 -0.6572  1.1902  1.3563
 7698SOL    HW224516   4.004   0.394   5.495  0.4170  3.8295  2.4305
 7699SOL     OW24517   5.331   0.586   3.915  0.7201  0.1421 -0.8729
 7699SOL    HW124518   5.378   0.668   3.925  0.1677  0.6545 -2.1760
 7699SOL    HW224519   5.241   0.612   3.896 -0.2548 -0.8161  1.9301
 7700SOL     OW24520   5.647   5.340   1.790  0.1131 -0.2358 -0.4876
 7700SOL    HW124521   5.594   5.264   1.816 -0.5037  0.5016  0.4577
 7700SOL    HW224522   5.680   5.317   1.703  1.7917 -2.5348  0.6458
 7701SOL     OW24523   5.792   6.159   5.063  0.0713 -0.1548  0.1148
 7701SOL    HW124524   5.885   6.157   5.043  0.0773  0.1790  0.1066
 7701SOL    HW224525   5.749   6.160   4.977 -0.0126 -2.4369  0.0551
 7702SOL     OW24526   0.316   0.113   7.287  0.4309 -0.2271  0.5244
 7702SOL    HW124527   0.248   0.069   7.338 -0.3349  1.6689  1.2362
 7702SOL    HW224528   0.326   0.199   7.329  0.3492  1.1121 -1.9861
 7703SOL     OW24529   5.413   4.031   3.720 -0.4144  0.1573  0.1411
 7703SOL    HW124530   5.329   4.060   3.684 -0.4201  2.5034  1.8053
 7703SOL    HW224531   5.412   4.061   3.811  0.9460 -2.6126  1.1954
 7704SOL     OW24532   5.033   3.273   3.678  0.1391 -0.5134  0.9148
 7704SOL    HW124533   4.981   3.256   3.599 -0.2537 -0.4440  1.1530
 7704SOL    HW224534   5.120   3.293   3.645  0.0835 -0.8949  0.5187
 7705SOL     OW24535   6.614   4.653   6.528 -0.1875 -0.2338 -0.0580
 7705SOL    HW124536   6.619   4.633   6.435  1.2854 -0.4195  0.0260
 7705SOL    HW224537   6.610   4.567   6.571  2.4567 -0.3623  0.1427
 7706SOL     OW24538   0.167   5.807   4.855 -0.1930  0.4500 -0.0584
 7706SOL    HW124539   0.159   5.743   4.784  0.2577  0.0920  0.2099
 7706SOL    HW224540   0.258   5.837   4.851 -0.5222  1.4548 -0.4957
 7707SOL     OW24541   5.644   4.138   6.584  0.0153  0.3723 -0.1165
 7707SOL    HW124542   5.714   4.085   6.545 -0.2729 -1.5789  1.7932
 7707SOL    HW224543   5.689   4.193   6.649 -0.2034 -1.4927  1.7213
 7708SOL     OW24544   7.497   2.087   6.244 -0.3288  0.0070  0.4885
 7708SOL    HW124545   7.554   2.125   6.177  1.5213  0.2211  2.0870
 7708SOL    HW224546   7.415   2.134   6.236 -0.2068 -0.0369 -1.6534
 7709SOL     OW24547   4.796   8.846   6.195  0.0354  0.1153  0.5164
 7709SOL    HW124548   4.856   8.799   6.253  0.7307 -0.4975 -0.6568
 7709SOL    HW224549   4.836   8.933   6.185 -0.2091  0.3060  1.1077
 7710SOL     OW24550   5.126   1.282   4.057  0.2365 -0.1049  0.4665
 7710SOL    HW124551   5.172   1.366   4.059  1.2206 -0.6371  1.8068
 7710SOL    HW224552   5.073   1.286   3.978  2.2091  0.7673 -0.9083
 7711SOL     OW24553   2.767   1.376   1.565  0.3053  0.4559  0.8092
 7711SOL    HW124554   2.853   1.407   1.535  0.6604 -0.1056  1.2151
 7711SOL    HW224555   2.705   1.438   1.528  0.9318  1.2065  0.9766
 7712SOL     OW24556   6.743   1.288   9.269 -0.0084  0.9600 -0.2166
 7712SOL    HW124557   6.811   1.342   9.308  1.2654 -0.4828 -0.3487
 7712SOL    HW224558   6.765   1.199   9.295 -0.2787  0.1452 -2.5137
 7713SOL     OW24559   7.922   1.398   5.356 -0.3709  0.2661 -0.5403
 7713SOL    HW124560   7.850   1.418   5.416  0.9179 -0.0958  1.2083
 7713SOL    HW224561   7.895   1.317   5.312 -0.6552 -0.3868  0.7800
 7714SOL     OW24562   5.681   7.655   6.253  0.1716 -0.2174  0.0414
 7714SOL    HW124563   5.748   7.635   6.187  0.2055 -0.7759  0.2452
 7714SOL    HW224564   5.626   7.577   6.256 -0.1997  0.0506  0.2304
 7715SOL     OW24565   3.035   0.679   0.810 -0.1708  0.1022 -0.0801
 7715SOL    HW124566   3.066   0.697   0.721  0.5172 -1.2711 -0.1497
 7715SOL    HW224567   2.964   0.742   0.824  0.9400  1.5976 -0.8826
 7716SOL     OW24568   1.816   0.124   3.446  0.3943 -0.2124 -0.2711
 7716SOL    HW124569   1.882   0.194   3.450  2.6091 -2.0661 -1.6615
 7716SOL    HW224570   1.803   0.099   3.537 -0.0990  1.6420  0.2134
 7717SOL     OW24571   3.224   2.232   2.529  0.1137  0.3525 -0.7256
 7717SOL    HW124572   3.313   2.202   2.548 -0.2720 -0.2717  0.1535
 7717SOL    HW224573   3.177   2.219   2.610  0.2184  4.6522  0.2591
 7718SOL     OW24574   7.366   0.888   1.575 -0.3524 -0.0387  0.0895
 7718SOL    HW124575   7.300   0.857   1.513 -0.2115  0.6511 -0.4186
 7718SOL    HW224576   7.332   0.972   1.606 -0.2801 -0.2424  0.7322
 7719SOL     OW24577   7.271   2.368   0.604 -0.4927  0.6127 -0.1784
 7719SOL    HW124578   7.285   2.429   0.676 -0.0649 -0.9018  1.0634
 7719SOL    HW224579   7.242   2.288   0.645 -0.4731 -0.2268 -1.7191
 7720SOL     OW24580   6.193   1.302   8.852 -0.0291  0.8219 -0.2588
 7720SOL    HW124581   6.235   1.387   8.866 -1.2423  1.1290  1.9086
 7720SOL    HW224582   6.105   1.324   8.822 -0.1503  0.3076 -0.2850
 7721SOL     OW24583   5.634   2.961   1.563 -0.0934  0.1473 -0.5835
 7721SOL    HW124584   5.629   2.910   1.481  1.5066  0.6670 -1.0450
 7721SOL    HW224585   5.723   2.944   1.595 -0.1582  1.2381  0.1944
 7722SOL     OW24586   8.875   7.682   8.866 -0.2783  0.7097 -0.4232
 7722SOL    HW124587   8.938   7.652   8.800 -1.4903 -1.1682 -0.8188
 7722SOL    HW224588   8.790   7.649   8.835 -1.0433  0.7432  1.4919
 7723SOL     OW24589   2.817   1.462   4.848 -0.2005 -0.3401 -0.3549
 7723SOL    HW124590   2.794   1.427   4.762 -0.3691 -0.4573 -0.2621
 7723SOL    HW224591   2.774   1.404   4.911 -0.0362 -0.2854 -0.1894
 7724SOL     OW24592   8.994   6.445   6.174 -0.0132 -0.1806 -0.6172
 7724SOL    HW124593   8.954   6.509   6.234  1.6035  0.7848 -0.5128
 7724SOL    HW224594   9.053   6.498   6.119  2.9253 -1.7821  0.7763
 7725SOL     OW24595   8.230   0.140   1.170 -0.0220  0.7109  0.8445
 7725SOL    HW124596   8.183   0.170   1.248  1.3239 -0.3254  2.1155
 7725SOL    HW224597   8.313   0.187   1.172  1.3128 -1.5110  1.8093
 7726SOL     OW24598   3.716   3.196   8.219 -0.0036 -0.0822 -0.3890
 7726SOL    HW124599   3.809   3.177   8.213  0.0969  0.7148 -1.5136
 7726SOL    HW224600   3.688   3.210   8.129 -1.5407 -1.7838 -0.2338
 7727SOL     OW24601   2.082   5.332   9.188 -0.5363 -0.0761  0.1077
 7727SOL    HW124602   2.080   5.410   9.244 -0.5997 -0.3597  0.5048
 7727SOL    HW224603   2.175   5.315   9.174 -0.4992  1.3724 -1.8312
 7728SOL     OW24604   5.841   8.877   1.263 -0.3250 -0.6297  0.1153
 7728SOL    HW124605   5.758   8.915   1.235 -0.7133 -0.8672  0.8855
 7728SOL    HW224606   5.831   8.868   1.358  0.6777 -0.4407  0.2423
 7729SOL     OW24607   7.677   7.079   6.901 -0.0093 -0.3840 -0.3151
 7729SOL    HW124608   7.647   7.170   6.911 -0.1843 -0.2921 -1.4569
 7729SOL    HW224609   7.635   7.031   6.972 -0.5742  0.2769 -0.1944
 7730SOL     OW24610   3.972   5.204   3.201 -0.4324 -0.3599  0.0501
 7730SOL    HW124611   3.934   5.116   3.197 -3.6521  0.6433  3.1938
 7730SOL    HW224612   4.026   5.203   3.280 -0.7227  0.5338  0.2719
 7731SOL     OW24613   0.199   2.527   3.610 -0.0423  0.0675  0.2306
 7731SOL    HW124614   0.218   2.462   3.677  1.4451 -0.4719 -0.6746
 7731SOL    HW224615   0.264   2.596   3.625  3.4715 -2.0705 -3.2636
 7732SOL     OW24616   8.231   1.321   2.125  0.3011 -0.4498 -0.1645
 7732SOL    HW124617   8.272   1.312   2.212  0.5509  1.1000 -0.0903
 7732SOL    HW224618   8.302   1.349   2.068  0.1347 -1.4540 -0.8874
 7733SOL     OW24619   4.702   6.753   1.467 -0.2610  0.4168 -0.5185
 7733SOL    HW124620   4.644   6.692   1.513  1.5919 -1.2259 -0.2255
 7733SOL    HW224621   4.786   6.746   1.513  0.7859  1.0946 -2.2107
 7734SOL     OW24622   2.266   0.200   4.742 -0.3368 -0.1476 -0.0640
 7734SOL    HW124623   2.292   0.172   4.655  1.2706  0.9290  0.0443
 7734SOL    HW224624   2.241   0.118   4.787 -3.3061 -0.5214 -2.1186
 7735SOL     OW24625   4.789   6.662   5.396 -0.4345 -0.2527  0.1098
 7735SOL    HW124626   4.737   6.719   5.454  0.6649 -1.6915  2.7012
 7735SOL    HW224627   4.879   6.695   5.406 -0.2423 -0.4140 -0.9881
 7736SOL     OW24628   8.380   6.724   4.379 -0.0955  0.6218  0.8951
 7736SOL    HW124629   8.319   6.653   4.399 -2.3465  1.8880 -1.0183
 7736SOL    HW224630   8.328   6.803   4.388  0.7594  1.6788 -2.2597
 7737SOL     OW24631   0.311   7.340   1.686  0.0549 -0.5385 -0.0871
 7737SOL    HW124632   0.321   7.257   1.639 -1.6595 -1.4975  1.1114
 7737SOL    HW224633   0.344   7.322   1.774 -1.1327 -0.2402  0.4392
 7738SOL     OW24634   8.596   7.579   9.117  0.3083 -0.1769 -0.6462
 7738SOL    HW124635   8.531   7.546   9.179 -1.0878  1.8767 -0.9184
 7738SOL    HW224636   8.576   7.534   9.035 -0.8986  0.5231 -0.7620
 7739SOL     OW24637   3.821   8.359   4.387 -0.5308  0.2538  0.3723
 7739SOL    HW124638   3.783   8.446   4.395 -2.1961 -0.2830 -1.1316
 7739SOL    HW224639   3.897   8.370   4.330  0.7053  1.0614  2.0834
 7740SOL     OW24640   4.765   5.977   4.679 -0.4398  0.0915  0.1332
 7740SOL    HW124641   4.718   5.894   4.673  0.7328 -0.4841 -2.1425
 7740SOL    HW224642   4.843   5.956   4.731  0.7021 -0.7256 -1.8151
 7741SOL     OW24643   0.027   2.520   4.032 -0.2156  0.0766  0.7483
 7741SOL    HW124644   0.037   2.434   4.075 -0.2920  0.0717  0.7579
 7741SOL    HW224645  -0.061   2.516   3.993  0.1078 -0.1614  0.0333
 7742SOL     OW24646   4.316   2.065   0.456 -0.0803  0.2075 -0.0249
 7742SOL    HW124647   4.255   2.133   0.485  0.1730  0.7641 -0.7737
 7742SOL    HW224648   4.373   2.050   0.532 -1.1732 -0.3621  0.7035
 7743SOL     OW24649   2.526   2.754   4.785 -0.8025 -0.5040 -0.2542
 7743SOL    HW124650   2.604   2.770   4.838 -0.6127  0.8221 -0.8755
 7743SOL    HW224651   2.557   2.757   4.695 -1.3143 -1.5862 -0.4824
 7744SOL     OW24652   1.686   1.053   0.902  0.0507  0.2737 -0.2763
 7744SOL    HW124653   1.662   1.125   0.960 -1.6643  0.3022 -0.9594
 7744SOL    HW224654   1.730   1.095   0.828 -1.6394  0.7738 -1.0548
 7745SOL     OW24655   6.323   7.867   7.701 -0.1403 -0.1939 -0.2650
 7745SOL    HW124656   6.313   7.851   7.608 -1.3269 -0.0599 -0.1713
 7745SOL    HW224657   6.239   7.843   7.740  0.2738 -0.0857  0.7478
 7746SOL     OW24658   6.995   7.587   9.211  0.2176  0.1472 -0.3738
 7746SOL    HW124659   6.946   7.505   9.198  0.1751 -0.5549  3.0701
 7746SOL    HW224660   7.077   7.574   9.164 -0.6649 -0.9286 -1.7022
 7747SOL     OW24661   4.738   8.941   4.636 -0.0576  0.2640  0.2077
 7747SOL    HW124662   4.709   8.871   4.694 -0.6888  0.1188 -0.2761
 7747SOL    HW224663   4.719   9.022   4.684  2.4079  0.1251  1.5970
 7748SOL     OW24664   7.590   3.864   9.056 -0.1085 -0.1427 -0.4797
 7748SOL    HW124665   7.621   3.928   9.119  0.3344 -1.6486  0.9037
 7748SOL    HW224666   7.612   3.901   8.971  0.3117  1.4157  0.2745
 7749SOL     OW24667   6.214   3.655   8.420 -0.5558  0.4336  0.1335
 7749SOL    HW124668   6.285   3.700   8.374 -1.6040  0.8302 -1.1912
 7749SOL    HW224669   6.235   3.562   8.413  1.0082  0.6049  1.8323
 7750SOL     OW24670   9.251   1.209   6.215 -0.2879 -0.0609 -0.4080
 7750SOL    HW124671   9.256   1.207   6.119 -0.2380 -0.1407 -0.4034
 7750SOL    HW224672   9.328   1.160   6.244  0.8264  1.6741 -0.3026
 7751SOL     OW24673   7.492   9.114   2.028 -0.0236 -0.4704  0.1551
 7751SOL    HW124674   7.569   9.169   2.010  1.2519 -1.7791  1.4169
 7751SOL    HW224675   7.494   9.047   1.960 -0.9340  0.3368 -0.7013
 7752SOL     OW24676   2.070   3.673   1.349 -0.0921  0.5295 -0.0674
 7752SOL    HW124677   2.160   3.683   1.379 -0.2144  1.8437 -0.0781
 7752SOL    HW224678   2.021   3.646   1.427 -0.0511  1.9440  0.4886
 7753SOL     OW24679   4.602   8.045   8.634 -0.1935  0.4732  0.4337
 7753SOL    HW124680   4.556   8.120   8.672 -1.1657 -0.1224  0.4537
 7753SOL    HW224681   4.583   7.972   8.693 -1.9905 -0.5391 -1.3102
 7754SOL     OW24682   1.688   2.656   4.415  0.5279 -0.4330  0.5680
 7754SOL    HW124683   1.628   2.582   4.425 -2.7689  1.6430 -1.6600
 7754SOL    HW224684   1.644   2.728   4.462  2.9743  0.5120  1.6008
 7755SOL     OW24685   7.080   4.919   5.935  0.1845  0.5215  0.1984
 7755SOL    HW124686   6.998   4.962   5.959 -0.5208  0.5521 -2.0249
 7755SOL    HW224687   7.054   4.831   5.906  1.2482 -0.3258  1.6747
 7756SOL     OW24688   4.543   7.407   0.684  0.1901 -0.5085 -0.1753
 7756SOL    HW124689   4.487   7.330   0.679 -0.5917  0.0451 -0.0263
 7756SOL    HW224690   4.604   7.387   0.755 -1.8960  0.1973  1.9421
 7757SOL     OW24691   3.937   8.949   1.079  0.6555 -0.0052 -0.1398
 7757SOL    HW124692   3.923   8.937   1.173  2.9709 -1.7189  0.0838
 7757SOL    HW224693   3.866   8.900   1.038 -0.4637  0.8727  0.6676
 7758SOL     OW24694   2.692   4.853   4.856 -0.5341  0.3383  0.2220
 7758SOL    HW124695   2.732   4.766   4.846  1.1854  1.1850 -0.8366
 7758SOL    HW224696   2.713   4.879   4.946 -0.8312 -0.2236  0.4578
 7759SOL     OW24697   6.233   3.277   3.648  0.9572  0.4543 -0.4647
 7759SOL    HW124698   6.159   3.335   3.629  1.2970  0.4618 -1.8329
 7759SOL    HW224699   6.236   3.217   3.574  0.8289 -1.1169  0.7507
 7760SOL     OW24700   6.984   6.100   3.773  0.0851  0.0655 -0.1180
 7760SOL    HW124701   6.980   6.047   3.693  1.8201 -3.9186  2.1370
 7760SOL    HW224702   6.893   6.105   3.803 -0.2184 -0.9536 -0.8178
 7761SOL     OW24703   3.029   7.971   2.826  0.2011  0.1185 -0.0933
 7761SOL    HW124704   3.071   7.904   2.880 -0.1827  0.4262  0.6027
 7761SOL    HW224705   2.985   7.921   2.756  1.8365 -0.1943 -0.9475
 7762SOL     OW24706   1.722   4.671   5.736 -0.1578 -0.0080 -0.3574
 7762SOL    HW124707   1.660   4.743   5.750 -2.0189 -1.5345 -0.2761
 7762SOL    HW224708   1.756   4.685   5.648  0.2857  1.4825  0.0203
 7763SOL     OW24709   8.657   8.079   7.557 -0.3243  0.0543  0.0886
 7763SOL    HW124710   8.662   8.173   7.574  0.4373  0.0304  0.0553
 7763SOL    HW224711   8.643   8.039   7.643  0.9060  0.1056  0.3346
 7764SOL     OW24712   3.696   3.230   6.906  0.0081  0.7105 -0.5574
 7764SOL    HW124713   3.646   3.148   6.911 -1.5219  1.6674  0.9613
 7764SOL    HW224714   3.767   3.219   6.969 -0.7167  0.8463  0.3072
 7765SOL     OW24715   8.104   4.971   4.403  0.2689  0.1149  0.6201
 7765SOL    HW124716   8.121   5.015   4.486  1.3110 -0.4529  0.7199
 7765SOL    HW224717   8.009   4.967   4.398  0.1804 -0.2887  2.0306
 7766SOL     OW24718   0.631   8.499   1.413 -0.4680 -0.0054 -0.2279
 7766SOL    HW124719   0.667   8.411   1.423  1.6051  0.6989 -1.1616
 7766SOL    HW224720   0.679   8.552   1.477 -0.7836  0.7092 -0.5737
 7767SOL     OW24721   0.263   4.605   5.360  0.1476  0.0454 -0.0435
 7767SOL    HW124722   0.222   4.560   5.434 -1.7297  2.8807  0.7649
 7767SOL    HW224723   0.197   4.603   5.291  0.9762 -0.4582 -0.8536
 7768SOL     OW24724   6.197   9.248   3.995 -0.0549  0.1714  0.0251
 7768SOL    HW124725   6.267   9.185   3.974 -0.1556  0.0674  0.0016
 7768SOL    HW224726   6.242   9.333   3.996 -0.0194  0.1675 -0.4941
 7769SOL     OW24727   0.483   5.603   4.574 -0.2127 -0.1142  0.0197
 7769SOL    HW124728   0.555   5.636   4.629 -0.3454  0.8718 -0.3696
 7769SOL    HW224729   0.521   5.600   4.486 -0.0501 -1.5299  0.1274
 7770SOL     OW24730   2.778   7.356   1.864  0.2844  0.2272  0.2767
 7770SOL    HW124731   2.804   7.328   1.777  2.2115 -0.4940  1.0387
 7770SOL    HW224732   2.719   7.287   1.894 -0.3666  0.4657 -0.4245
 7771SOL     OW24733   9.066   3.068   4.278 -0.5117  0.3266  0.1809
 7771SOL    HW124734   9.029   3.051   4.192 -1.7393  0.9849  0.5636
 7771SOL    HW224735   9.119   3.147   4.266 -0.3657  0.1975 -0.0407
 7772SOL     OW24736   4.451   6.954   7.829  0.3442 -0.3915 -0.2351
 7772SOL    HW124737   4.446   6.869   7.873  1.9328  0.7148  2.3209
 7772SOL    HW224738   4.521   6.944   7.764 -0.4894 -1.4062 -1.0166
 7773SOL     OW24739   2.197   4.218   3.521  0.0992  0.1671  0.2576
 7773SOL    HW124740   2.163   4.200   3.609  0.0772  0.9050  0.4019
 7773SOL    HW224741   2.131   4.275   3.481 -0.2763 -0.7750 -0.5279
 7774SOL     OW24742   9.042   5.615   4.056  0.0405 -0.1586 -0.2002
 7774SOL    HW124743   8.974   5.641   3.994 -0.0847 -1.9682 -0.8982
 7774SOL    HW224744   9.124   5.644   4.015 -0.2509  1.8619  0.5545
 7775SOL     OW24745   3.161   3.248   7.508  0.4723  0.3952  0.5163
 7775SOL    HW124746   3.131   3.182   7.571  0.3389 -0.0453 -0.0026
 7775SOL    HW224747   3.165   3.329   7.559  0.9387 -0.0703  1.2381
 7776SOL     OW24748   6.780   1.454   8.915 -0.0448  0.4563  0.0531
 7776SOL    HW124749   6.690   1.469   8.944 -0.9474 -4.3084  0.4817
 7776SOL    HW224750   6.781   1.483   8.824 -1.3967  2.2849  0.5640
 7777SOL     OW24751   5.129   5.369   8.382 -1.0357 -0.4925 -0.0970
 7777SOL    HW124752   5.143   5.424   8.305 -3.2976  1.7023  0.9317
 7777SOL    HW224753   5.056   5.311   8.357 -1.2954 -0.2707  0.1412
 7778SOL     OW24754   7.166   4.730   0.089 -0.1484  0.4322  0.7398
 7778SOL    HW124755   7.231   4.659   0.084  0.1652  0.6239  1.7944
 7778SOL    HW224756   7.188   4.787   0.015 -0.1289 -0.3286  0.1396
 7779SOL     OW24757   6.012   6.515   5.834  0.7418 -0.5054  0.2641
 7779SOL    HW124758   6.099   6.541   5.802  0.1926  0.2034 -0.6828
 7779SOL    HW224759   5.975   6.595   5.870  0.6747 -0.9269  1.1754
 7780SOL     OW24760   4.853   5.779   0.834 -0.2644 -0.1137 -0.1090
 7780SOL    HW124761   4.822   5.706   0.780  1.0879  0.2343 -1.4281
 7780SOL    HW224762   4.901   5.736   0.906 -1.4682 -0.5601  0.4555
 7781SOL     OW24763   5.709   1.965   2.302 -0.2417  0.2661  0.6478
 7781SOL    HW124764   5.641   1.903   2.274 -0.7200  0.3539  1.5670
 7781SOL    HW224765   5.672   2.051   2.283  0.8771  0.3234 -1.6855
 7782SOL     OW24766   8.423   2.838   8.567 -0.2706 -0.3690 -0.3731
 7782SOL    HW124767   8.453   2.921   8.528  1.4108 -1.4731 -1.5838
 7782SOL    HW224768   8.443   2.848   8.660 -0.9129  0.9090 -0.3434
 7783SOL     OW24769   4.280   3.530   1.158 -0.2517  0.3346 -0.5681
 7783SOL    HW124770   4.357   3.587   1.167 -1.3103  2.0956 -1.9744
 7783SOL    HW224771   4.249   3.547   1.069 -1.0881 -1.9128 -0.7628
 7784SOL     OW24772   5.859   4.777   4.804  0.3339 -0.5749  0.7159
 7784SOL    HW124773   5.770   4.761   4.773 -0.6871  2.0262  2.0021
 7784SOL    HW224774   5.916   4.745   4.734 -1.6273 -1.1518 -0.6840
 7785SOL     OW24775   1.446   0.997   6.430 -0.2813 -0.1299  0.3667
 7785SOL    HW124776   1.440   0.903   6.441 -0.5074 -0.1177  0.3422
 7785SOL    HW224777   1.478   1.029   6.515  1.8769 -0.4370 -0.2747
 7786SOL     OW24778   0.860   2.333   5.862  0.2618  0.0436 -0.2008
 7786SOL    HW124779   0.863   2.239   5.881  2.1704 -0.2498 -1.6096
 7786SOL    HW224780   0.780   2.344   5.810 -0.9973 -0.4219  1.5526
 7787SOL     OW24781   7.748   2.991   8.665  0.2125 -0.2296 -0.7511
 7787SOL    HW124782   7.730   3.073   8.619 -0.0697 -1.3564 -2.7583
 7787SOL    HW224783   7.733   2.923   8.599 -0.9853 -2.0113  1.2493
 7788SOL     OW24784   3.666   3.410   0.688 -0.7642 -0.1602  0.0973
 7788SOL    HW124785   3.680   3.501   0.661 -0.8581  0.2980  1.5182
 7788SOL    HW224786   3.625   3.417   0.774  0.1138 -1.5502  0.6509
 7789SOL     OW24787   3.448   6.596   1.245  0.3686  0.2325 -0.1052
 7789SOL    HW124788   3.394   6.592   1.166  1.0673  0.0329 -0.5839
 7789SOL    HW224789   3.491   6.510   1.249 -1.0498 -0.4698  1.5138
 7790SOL     OW24790   7.007   6.213   5.272  0.4718  0.4129 -0.3674
 7790SOL    HW124791   7.023   6.288   5.215  1.6467  0.1125 -0.4561
 7790SOL    HW224792   6.954   6.154   5.219  2.4239 -0.3389 -1.6052
 7791SOL     OW24793   7.155   8.684   4.597  0.7950  0.5085 -0.2367
 7791SOL    HW124794   7.088   8.739   4.556 -1.2395 -1.9093 -0.4560
 7791SOL    HW224795   7.237   8.712   4.557 -0.6021  0.9234 -3.1108
 7792SOL     OW24796   2.406   3.972   1.067  0.4608  0.0006 -0.1725
 7792SOL    HW124797   2.409   4.067   1.079 -3.0409 -0.0301  2.3905
 7792SOL    HW224798   2.334   3.957   1.007  0.2769 -1.0577  0.2853
 7793SOL     OW24799   7.608   7.364   4.115 -0.2329 -0.1069  0.2039
 7793SOL    HW124800   7.673   7.308   4.073 -1.0280 -0.4241 -0.6381
 7793SOL    HW224801   7.586   7.429   4.049  0.0980  0.7340  0.9005
 7794SOL     OW24802   1.391   6.465   5.408  0.2369  0.2272 -0.4699
 7794SOL    HW124803   1.311   6.434   5.449  1.1911 -0.9708  0.5477
 7794SOL    HW224804   1.420   6.392   5.353 -0.2465  1.2720 -2.1825
 7795SOL     OW24805   3.082   2.076   1.862 -0.4013  0.2858 -0.5027
 7795SOL    HW124806   3.086   2.094   1.956 -1.3604 -0.5143 -0.2886
 7795SOL    HW224807   3.021   2.141   1.828  0.0928  0.6994 -0.6206
 7796SOL     OW24808   4.671   0.939   4.571  0.0640  0.5347  0.1110
 7796SOL    HW124809   4.606   0.973   4.633 -0.5359 -1.2177  0.4990
 7796SOL    HW224810   4.712   0.865   4.616  1.0493  0.4698 -0.8299
 7797SOL     OW24811   6.575   1.413   5.797  0.7146  0.4680 -0.1060
 7797SOL    HW124812   6.661   1.453   5.808  0.4718  1.0505 -0.2809
 7797SOL    HW224813   6.514   1.487   5.796  0.2866  0.1140 -0.7544
 7798SOL     OW24814   6.270   8.074   7.489  0.1758 -0.4705 -0.9139
 7798SOL    HW124815   6.359   8.109   7.481  0.4762 -1.1114 -0.4175
 7798SOL    HW224816   6.214   8.152   7.494  0.8436 -0.0461  0.2549
 7799SOL     OW24817   3.995   3.679   4.224 -0.5330 -0.5784  0.1203
 7799SOL    HW124818   3.992   3.590   4.259  0.6173 -1.2736 -1.4033
 7799SOL    HW224819   3.956   3.672   4.137  0.5421  0.1561 -0.4458
 7800SOL     OW24820   6.951   6.002   5.623  0.2391 -0.3142  0.1233
 7800SOL    HW124821   6.952   5.914   5.586 -0.4541 -0.9027  1.4327
 7800SOL    HW224822   6.880   6.001   5.686  0.9197  0.8480  0.9551
 7801SOL     OW24823   3.261   2.713   7.241  0.1242  0.1684 -0.5661
 7801SOL    HW124824   3.337   2.733   7.295  1.2762 -1.2014 -1.6059
 7801SOL    HW224825   3.212   2.648   7.292  0.4671 -0.0873 -0.5623
 7802SOL     OW24826   1.283   2.093   1.060 -0.1836  0.6125  0.5137
 7802SOL    HW124827   1.207   2.113   1.005 -0.5962  0.6696  1.1044
 7802SOL    HW224828   1.247   2.080   1.147  0.2620 -1.0913  0.4722
 7803SOL     OW24829   4.970   6.421   4.180  0.0551  0.0957 -0.3241
 7803SOL    HW124830   4.949   6.446   4.269  0.2619 -1.0401  0.0643
 7803SOL    HW224831   4.893   6.445   4.129  0.6863  2.5929 -0.2421
 7804SOL     OW24832   8.575   5.896   1.458 -0.2657 -0.2290 -0.3017
 7804SOL    HW124833   8.570   5.923   1.550 -1.6214  0.1037 -0.4511
 7804SOL    HW224834   8.613   5.809   1.461  1.7893  0.6357  0.3923
 7805SOL     OW24835   7.268   5.038   3.008  0.0242 -0.5372  0.6140
 7805SOL    HW124836   7.319   4.995   3.076 -1.0703 -1.4134  0.9126
 7805SOL    HW224837   7.283   4.984   2.930  0.6306 -0.0017  0.3515
 7806SOL     OW24838   0.494   8.377   3.759  0.5159 -0.4145 -0.0345
 7806SOL    HW124839   0.406   8.383   3.720  0.1805  4.5903  0.8617
 7806SOL    HW224840   0.478   8.357   3.851  0.4564 -0.6728 -0.0979
 7807SOL     OW24841   0.243   0.253   3.032 -0.3405 -0.7300 -0.6020
 7807SOL    HW124842   0.282   0.181   3.082  0.7495 -0.0472 -0.4495
 7807SOL    HW224843   0.311   0.279   2.970  1.0051  2.9512  2.0742
 7808SOL     OW24844   3.155   6.676   0.061 -0.0631  0.1578 -0.2424
 7808SOL    HW124845   3.123   6.658   0.150  0.7855 -0.1456  0.0175
 7808SOL    HW224846   3.176   6.769   0.062  2.0592 -0.2616  0.6204
 7809SOL     OW24847   8.299   7.089   0.124 -0.2695 -0.3183 -0.5443
 7809SOL    HW124848   8.294   7.080   0.219  0.9614 -2.5114 -0.6215
 7809SOL    HW224849   8.211   7.114   0.097 -0.9471 -0.8620  1.0695
 7810SOL     OW24850   4.322   7.752   5.588 -0.2037 -0.7584 -0.1043
 7810SOL    HW124851   4.278   7.773   5.506  0.4555  0.8703 -0.0787
 7810SOL    HW224852   4.372   7.831   5.609 -0.8313 -0.8916  2.1672
 7811SOL     OW24853   4.583   0.628   1.294 -0.8920  0.0712 -0.2319
 7811SOL    HW124854   4.548   0.543   1.267  2.5283 -1.4392 -0.4104
 7811SOL    HW224855   4.600   0.673   1.212  1.3373 -0.9427 -0.3943
 7812SOL     OW24856   0.450   0.069   3.177  0.1872  0.5687 -0.7065
 7812SOL    HW124857   0.450   0.014   3.098  0.0949  2.0422 -1.7732
 7812SOL    HW224858   0.540   0.100   3.184  0.5236 -0.5855  0.5625
 7813SOL     OW24859   8.745   0.575   8.218 -0.2517  0.0670  0.5312
 7813SOL    HW124860   8.720   0.486   8.195  1.4059 -0.9265  2.2767
 7813SOL    HW224861   8.841   0.576   8.210 -0.3149  2.1137 -0.7384
 7814SOL     OW24862   0.798   3.030   5.656  0.2236  0.1674  0.5889
 7814SOL    HW124863   0.762   3.106   5.610  0.6129 -0.3115 -0.5547
 7814SOL    HW224864   0.721   2.983   5.688 -0.4149 -1.4239 -2.7439
 7815SOL     OW24865   7.792   6.396   6.722  0.2233  0.7354 -0.3691
 7815SOL    HW124866   7.766   6.309   6.752  0.6564  0.5721 -0.4630
 7815SOL    HW224867   7.783   6.452   6.798  1.3152  0.3276  0.0823
 7816SOL     OW24868   9.035   6.830   1.856 -0.3896  0.1694 -0.0508
 7816SOL    HW124869   9.096   6.865   1.792  0.5653  0.8612  1.1925
 7816SOL    HW224870   9.062   6.870   1.939 -0.4029 -2.1135  1.1205
 7817SOL     OW24871   4.850   5.356   5.888 -0.1990  0.3447  0.4288
 7817SOL    HW124872   4.942   5.351   5.916  0.2249  0.1631 -0.9442
 7817SOL    HW224873   4.812   5.426   5.941  0.9812  1.0742  0.3374
 7818SOL     OW24874   1.938   3.282   2.950  0.0885  0.1684  0.1782
 7818SOL    HW124875   1.879   3.342   2.996  0.9582  0.9747  0.2858
 7818SOL    HW224876   2.025   3.303   2.985  0.5280 -0.5013 -0.4817
 7819SOL     OW24877   8.774   6.319   0.265 -0.6402  0.1548 -0.8151
 7819SOL    HW124878   8.841   6.336   0.200  0.4541  0.9628  0.4728
 7819SOL    HW224879   8.768   6.401   0.315 -3.3096  0.4904 -1.4978
 7820SOL     OW24880   9.090   3.835   6.987  0.3922 -0.3540 -0.0247
 7820SOL    HW124881   9.011   3.787   7.014  0.6406 -1.4471 -1.1283
 7820SOL    HW224882   9.082   3.920   7.030 -2.0425  0.0520 -1.0494
 7821SOL     OW24883   0.725   2.499   7.139  0.3204 -0.5777  0.1131
 7821SOL    HW124884   0.738   2.484   7.046  0.6257 -0.9666  0.2123
 7821SOL    HW224885   0.650   2.558   7.145  1.8228  1.5053 -0.4989
 7822SOL     OW24886   5.082   1.290   3.068  0.0811 -0.4715 -0.4152
 7822SOL    HW124887   5.061   1.383   3.056  0.9297 -0.2017  0.1382
 7822SOL    HW224888   5.037   1.266   3.149  1.8689  0.1286  0.8167
 7823SOL     OW24889   0.526   4.524   1.331 -0.4419  0.2656 -0.0776
 7823SOL    HW124890   0.470   4.454   1.365  1.3833 -1.0657  0.3347
 7823SOL    HW224891   0.546   4.497   1.241 -1.8442  1.6514 -0.8605
 7824SOL     OW24892   4.163   6.175   4.121  0.1470  0.2647  0.6054
 7824SOL    HW124893   4.150   6.099   4.064  2.5525 -1.2376  1.8588
 7824SOL    HW224894   4.142   6.142   4.209 -0.4591  1.5953  0.9753
 7825SOL     OW24895   6.506   1.503   2.018  0.4138 -0.2183 -0.0163
 7825SOL    HW124896   6.549   1.425   2.054  2.7282  1.5983  1.5293
 7825SOL    HW224897   6.451   1.535   2.090  2.0728  1.3043  0.6768
 7826SOL     OW24898   0.388   3.379   9.069  0.2114 -0.0990 -0.3815
 7826SOL    HW124899   0.472   3.405   9.107  0.1702 -1.5306  0.7650
 7826SOL    HW224900   0.349   3.461   9.040  2.2107  0.5587 -1.4091
 7827SOL     OW24901   6.541   6.852   2.530 -0.0377  0.5773 -0.1429
 7827SOL    HW124902   6.612   6.830   2.469 -1.0293 -0.8522 -0.8275
 7827SOL    HW224903   6.569   6.815   2.614  0.2154  0.3919 -0.3070
 7828SOL     OW24904   1.927   2.416   6.492 -0.0440  0.6897 -0.2477
 7828SOL    HW124905   1.849   2.365   6.473  0.8146 -0.8317  0.1083
 7828SOL    HW224906   1.986   2.398   6.418  0.8589 -0.0998  0.6356
 7829SOL     OW24907   0.174   8.239   3.202  0.7017  0.0752  0.8909
 7829SOL    HW124908   0.261   8.233   3.162  0.4576  0.8558  0.2069
 7829SOL    HW224909   0.164   8.158   3.251  0.8280 -1.1361 -1.0116
 7830SOL     OW24910   0.935   4.765   6.672  0.5605 -0.0363  0.3073
 7830SOL    HW124911   0.847   4.769   6.709  0.5250 -1.2451  0.3794
 7830SOL    HW224912   0.991   4.800   6.741  0.3568 -1.1830  1.0783
 7831SOL     OW24913   2.438   0.272   1.574  0.0484  0.4257 -0.2189
 7831SOL    HW124914   2.446   0.215   1.497  0.7188 -0.0097  0.1595
 7831SOL    HW224915   2.529   0.287   1.602  0.0255  3.0098 -1.2491
 7832SOL     OW24916   5.271   1.319   2.630  0.0534 -0.0562 -0.0190
 7832SOL    HW124917   5.286   1.269   2.710  1.5210 -0.7060 -0.6590
 7832SOL    HW224918   5.250   1.407   2.661  0.7088 -0.2629  1.0882
 7833SOL     OW24919   7.145   2.442   3.742 -0.3071  0.9519 -0.4739
 7833SOL    HW124920   7.096   2.498   3.682  0.2284  1.4391 -0.4610
 7833SOL    HW224921   7.121   2.474   3.829 -0.6863  0.5780 -0.4358
 7834SOL     OW24922   0.696   1.918   0.933 -0.0130  0.2828  0.5178
 7834SOL    HW124923   0.700   1.824   0.948 -1.5699  0.0653 -0.2539
 7834SOL    HW224924   0.605   1.942   0.953  0.3817  1.6429  0.7953
 7835SOL     OW24925   7.679   9.206   7.935  0.3214  0.7555 -0.7083
 7835SOL    HW124926   7.761   9.159   7.920  1.2971  1.4568  1.8811
 7835SOL    HW224927   7.626   9.144   7.986  0.4373  1.3463  0.1505
 7836SOL     OW24928   6.665   5.805   1.128 -0.2952 -0.9982  0.1449
 7836SOL    HW124929   6.605   5.797   1.054  0.2458  0.4632 -0.4855
 7836SOL    HW224930   6.752   5.816   1.089  0.1166 -1.0746  1.0010
 7837SOL     OW24931   1.058   6.070   8.487 -0.4477  0.2999  0.1145
 7837SOL    HW124932   1.100   6.054   8.402  1.4048 -0.4186  1.1088
 7837SOL    HW224933   0.966   6.084   8.465  0.1855  1.5920 -2.1642
 7838SOL     OW24934   4.429   6.656   4.178  0.6858 -0.4940  0.1470
 7838SOL    HW124935   4.416   6.648   4.272 -3.9604 -0.1794 -0.2369
 7838SOL    HW224936   4.454   6.567   4.149  1.0985 -0.8346  1.5006
 7839SOL     OW24937   2.524   1.486   2.393  0.5668  0.5377  0.4702
 7839SOL    HW124938   2.548   1.456   2.306  2.6666  2.5742  0.2537
 7839SOL    HW224939   2.447   1.541   2.380  1.5904  1.8500 -0.3720
 7840SOL     OW24940   1.568   2.262   2.487  0.0330  0.1637 -0.4337
 7840SOL    HW124941   1.615   2.257   2.571 -0.4822  1.3523 -0.0565
 7840SOL    HW224942   1.545   2.354   2.478 -0.6207 -0.0928 -1.5052
 7841SOL     OW24943   0.392   5.522   7.735  0.3422 -0.2127  0.1283
 7841SOL    HW124944   0.396   5.489   7.825 -0.7154  0.5017  0.4571
 7841SOL    HW224945   0.478   5.561   7.720  0.2839  0.3320  1.1049
 7842SOL     OW24946   4.181   8.184   6.046  0.0094 -0.2999 -0.8110
 7842SOL    HW124947   4.113   8.250   6.063  1.1139  0.4320  1.1070
 7842SOL    HW224948   4.135   8.100   6.051 -0.8068  0.1880  0.3435
 7843SOL     OW24949   7.832   5.317   1.801 -0.4641  0.2039  0.9604
 7843SOL    HW124950   7.913   5.360   1.827 -0.1694  0.7586 -0.7212
 7843SOL    HW224951   7.859   5.231   1.770 -0.2938  0.8245 -0.7529
 7844SOL     OW24952   8.907   8.784   6.353 -0.1556 -0.1684  0.1790
 7844SOL    HW124953   8.879   8.860   6.405 -1.0606 -0.0805 -0.4100
 7844SOL    HW224954   8.953   8.823   6.278 -2.1195 -0.0673 -1.0393
 7845SOL     OW24955   7.581   8.751   1.523  0.2639  0.1451  0.1427
 7845SOL    HW124956   7.671   8.726   1.499  0.4570 -0.7643  1.7219
 7845SOL    HW224957   7.592   8.833   1.571  0.0885  0.7862 -0.8788
 7846SOL     OW24958   2.853   5.462   1.471  0.3688  0.0784 -0.5539
 7846SOL    HW124959   2.863   5.552   1.502 -2.6501 -0.2453  1.7663
 7846SOL    HW224960   2.863   5.408   1.549  0.1308 -1.4627 -1.5331
 7847SOL     OW24961   5.644   0.760   3.835 -0.1853  0.0119  0.1473
 7847SOL    HW124962   5.587   0.710   3.777  0.0927  1.5930 -1.5724
 7847SOL    HW224963   5.728   0.713   3.833 -0.5126 -0.5865  0.2053
 7848SOL     OW24964   2.362   8.177   2.393  0.2759  0.0116 -0.4717
 7848SOL    HW124965   2.362   8.215   2.305 -0.1366 -2.0328 -1.3994
 7848SOL    HW224966   2.421   8.102   2.387 -0.3786 -0.6411  0.7707
 7849SOL     OW24967   5.516   2.912   8.147 -0.1752  0.5326  0.5655
 7849SOL    HW124968   5.560   2.962   8.078 -0.1487 -1.0918 -0.6732
 7849SOL    HW224969   5.433   2.958   8.162  0.8791  2.2980  1.2554
 7850SOL     OW24970   8.304   5.691   5.343  0.0390  0.4539  0.6285
 7850SOL    HW124971   8.374   5.690   5.277  0.3534  2.0280  0.9013
 7850SOL    HW224972   8.233   5.640   5.303  0.4018  0.9708 -0.7364
 7851SOL     OW24973   5.591   6.932   1.458 -0.0415 -0.0047 -0.6309
 7851SOL    HW124974   5.567   7.024   1.456  0.9413  0.2573 -0.9519
 7851SOL    HW224975   5.594   6.909   1.550 -0.2125  0.2977 -0.5496
 7852SOL     OW24976   1.277   4.123   3.136  0.4398  0.1253 -1.0644
 7852SOL    HW124977   1.324   4.073   3.070  2.9118 -2.4025  2.2442
 7852SOL    HW224978   1.346   4.170   3.184 -1.0141  0.6909  0.6160
 7853SOL     OW24979   2.426   8.157   1.898  0.4616 -0.8010  0.2972
 7853SOL    HW124980   2.476   8.077   1.879 -0.2751 -1.1283 -0.3508
 7853SOL    HW224981   2.335   8.128   1.895  0.1891  0.0738  0.0613
 7854SOL     OW24982   5.813   1.176   0.397  0.1309  0.2775 -0.3629
 7854SOL    HW124983   5.879   1.173   0.466  1.8587 -1.1640 -1.9832
 7854SOL    HW224984   5.729   1.177   0.444  1.2352 -0.3857  1.7487
 7855SOL     OW24985   6.765   9.004   0.318  0.3605  0.0999 -0.1241
 7855SOL    HW124986   6.787   8.929   0.374 -0.6918 -0.3241 -0.2521
 7855SOL    HW224987   6.702   9.055   0.369 -1.1987 -0.6951 -1.1768
 7856SOL     OW24988   7.946   4.973   6.790  0.1662 -0.1856  0.0312
 7856SOL    HW124989   7.970   5.034   6.721  0.1379  0.2753  0.4292
 7856SOL    HW224990   7.862   5.005   6.823 -0.9284 -1.6233 -1.1654
 7857SOL     OW24991   1.038   5.781   2.384 -0.6064  0.0311  0.4615
 7857SOL    HW124992   1.031   5.708   2.323 -1.1080 -0.8717  1.5590
 7857SOL    HW224993   0.953   5.825   2.379 -0.3955  0.4035 -0.0028
 7858SOL     OW24994   2.087   6.166   1.961 -0.2447  0.4241  0.8355
 7858SOL    HW124995   2.051   6.083   1.995  0.6922  0.0740  0.9909
 7858SOL    HW224996   2.012   6.226   1.961 -0.6464 -0.0496  1.9578
 7859SOL     OW24997   0.765   4.493   6.418 -0.1391  0.5280 -0.0557
 7859SOL    HW124998   0.741   4.556   6.486  2.6997  0.4365  1.1649
 7859SOL    HW224999   0.858   4.509   6.401 -0.0268 -1.4393 -1.7804
 7860SOL     OW25000   6.171   5.912   0.078  0.4196  0.5574 -0.3636
 7860SOL    HW125001   6.247   5.940   0.027  0.2731 -0.8597 -1.4297
 7860SOL    HW225002   6.113   5.989   0.079  1.6010  1.4674 -0.0229
 7861SOL     OW25003   8.670   8.363   5.494  0.0849 -0.2227 -0.3414
 7861SOL    HW125004   8.748   8.414   5.517 -0.2357  0.5674 -0.9547
 7861SOL    HW225005   8.704   8.279   5.464  0.6792  0.0039 -0.3082
 7862SOL     OW25006   0.146   4.223   2.408  0.2674 -0.5242  0.0252
 7862SOL    HW125007   0.135   4.316   2.428 -0.3296 -0.7234  0.7112
 7862SOL    HW225008   0.178   4.185   2.490  1.5569 -0.7507 -0.5752
 7863SOL     OW25009   3.780   9.075   4.064  0.0616 -0.4088  0.0786
 7863SOL    HW125010   3.685   9.081   4.060  0.0219 -1.4821 -1.5608
 7863SOL    HW225011   3.811   9.154   4.019 -0.0523 -0.2605  0.2588
 7864SOL     OW25012   6.311   3.216   8.922 -0.2281 -0.3000  0.6590
 7864SOL    HW125013   6.286   3.129   8.954 -1.7561  0.3713  1.4166
 7864SOL    HW225014   6.271   3.222   8.835 -0.0061 -0.4011  0.5490
 7865SOL     OW25015   3.959   4.156   2.007 -0.1207 -0.2987 -0.0375
 7865SOL    HW125016   3.904   4.080   2.027 -0.6140  0.1214  0.2428
 7865SOL    HW225017   3.917   4.228   2.055 -0.7369  0.5366 -1.7451
 7866SOL     OW25018   6.815   1.930   0.829 -0.0210  0.2492 -0.1159
 7866SOL    HW125019   6.752   2.002   0.830  0.7998  0.9869 -0.4381
 7866SOL    HW225020   6.887   1.961   0.884  0.9342  0.2352 -1.3239
 7867SOL     OW25021   4.701   5.176   3.128 -0.2451  0.7470 -0.2125
 7867SOL    HW125022   4.721   5.203   3.218 -0.6587  0.0375  0.0958
 7867SOL    HW225023   4.607   5.157   3.129  0.2520 -2.1949  0.0049
 7868SOL     OW25024   0.869   6.646   0.475  0.0462 -0.0964 -0.0097
 7868SOL    HW125025   0.938   6.633   0.411 -1.0187  3.5185 -2.1734
 7868SOL    HW225026   0.909   6.699   0.544 -0.2121  0.9292 -0.6339
 7869SOL     OW25027   6.057   5.226   1.811 -0.4036 -0.4514 -0.0639
 7869SOL    HW125028   5.988   5.228   1.877  0.1098  0.6225  0.4671
 7869SOL    HW225029   6.125   5.284   1.845  0.4142 -0.8421 -0.9605
 7870SOL     OW25030   0.285   5.330   8.792 -0.5207  0.1265  0.2584
 7870SOL    HW125031   0.251   5.328   8.703 -0.3330  1.2082  0.1458
 7870SOL    HW225032   0.226   5.390   8.838 -0.6351 -0.4474  0.8718
 7871SOL     OW25033   0.456   9.101   3.696 -0.0126  0.0068 -0.2289
 7871SOL    HW125034   0.500   9.017   3.706  1.3224  0.6963 -0.1068
 7871SOL    HW225035   0.495   9.139   3.617 -0.6191  0.5094 -0.2914
 7872SOL     OW25036   5.563   4.323   7.713 -0.3887 -0.3500 -0.3949
 7872SOL    HW125037   5.656   4.314   7.736  0.0549 -0.4738 -2.1237
 7872SOL    HW225038   5.529   4.233   7.714  0.2153 -0.6459 -2.4253
 7873SOL     OW25039   4.683   2.936   4.174 -0.0849 -0.0109 -0.2497
 7873SOL    HW125040   4.692   3.030   4.190 -0.0048 -0.1975  0.8923
 7873SOL    HW225041   4.749   2.917   4.107  1.1772  0.4347  0.8304
 7874SOL     OW25042   0.798   9.003   0.586 -0.0879 -0.2831  0.1837
 7874SOL    HW125043   0.794   8.909   0.565 -0.0619 -0.8641  2.5194
 7874SOL    HW225044   0.769   9.046   0.506 -2.7705 -2.3764 -0.1145
 7875SOL     OW25045   3.924   2.572   2.806  0.3024  0.3852  0.2944
 7875SOL    HW125046   3.858   2.606   2.866 -0.0921  0.3619 -0.1206
 7875SOL    HW225047   4.000   2.554   2.861  0.1802  1.0167  0.6779
 7876SOL     OW25048   8.766   3.765   4.500  0.0019 -0.6095  0.2187
 7876SOL    HW125049   8.797   3.811   4.578 -1.3664  0.0189  0.4101
 7876SOL    HW225050   8.757   3.833   4.434 -2.1408 -0.5388  0.5361
 7877SOL     OW25051   2.433   3.467   3.498 -0.1953  0.0191  0.4205
 7877SOL    HW125052   2.395   3.462   3.410  1.2806 -0.8285 -0.2059
 7877SOL    HW225053   2.359   3.485   3.555 -1.4718 -1.2216 -0.7848
 7878SOL     OW25054   7.220   3.148   4.894  0.0605  0.3263  0.0348
 7878SOL    HW125055   7.166   3.227   4.899  1.3949  1.2827 -0.1978
 7878SOL    HW225056   7.266   3.155   4.811 -0.1477 -0.9465 -0.2103
 7879SOL     OW25057   1.264   3.791   7.684  0.5362  0.5009  0.0552
 7879SOL    HW125058   1.308   3.852   7.743  0.2498  0.6503  0.1205
 7879SOL    HW225059   1.178   3.831   7.669  0.0864 -0.2411  0.6437
 7880SOL     OW25060   3.591   4.725   1.307  0.0077  0.0843 -0.6138
 7880SOL    HW125061   3.541   4.797   1.345  0.2317  0.4118 -0.9378
 7880SOL    HW225062   3.618   4.757   1.221  0.0187 -0.4254 -0.8026
 7881SOL     OW25063   0.621   5.187   8.982  0.2619 -0.2539  0.9525
 7881SOL    HW125064   0.641   5.240   8.906  0.5154  0.9099  1.8046
 7881SOL    HW225065   0.525   5.188   8.988  0.1828 -1.2125  0.0731
 7882SOL     OW25066   4.079   0.354   4.764 -0.5719 -0.0015  0.8633
 7882SOL    HW125067   4.095   0.392   4.677 -2.4812 -0.1002  0.4247
 7882SOL    HW225068   4.079   0.430   4.823  1.7155 -0.0275  1.0034
 7883SOL     OW25069   4.782   4.197   7.332  0.4004 -0.3016 -0.6332
 7883SOL    HW125070   4.796   4.199   7.238 -1.0206  0.3727 -0.8518
 7883SOL    HW225071   4.774   4.288   7.358 -1.2601 -0.5280 -0.2214
 7884SOL     OW25072   8.529   2.087   1.252 -0.2585 -0.0906  0.0323
 7884SOL    HW125073   8.538   1.999   1.288 -0.7597  1.2921  4.0457
 7884SOL    HW225074   8.619   2.116   1.237 -0.0366 -0.8780 -0.2066
 7885SOL     OW25075   1.847   6.310   6.164  0.3312 -0.4757  0.5108
 7885SOL    HW125076   1.873   6.229   6.209 -0.0594 -0.9705 -0.1257
 7885SOL    HW225077   1.834   6.283   6.073  2.6359  0.7886 -0.2907
 7886SOL     OW25078   2.767   4.062   8.986  0.4246 -0.0663  0.4053
 7886SOL    HW125079   2.737   4.013   8.910  0.8168 -0.7296  0.6739
 7886SOL    HW225080   2.817   3.999   9.038  0.7875  0.5682  0.8443
 7887SOL     OW25081   7.300   8.444   5.838 -0.3444 -0.1788  0.0687
 7887SOL    HW125082   7.375   8.385   5.832 -0.5241 -0.3144 -1.0306
 7887SOL    HW225083   7.243   8.403   5.903  0.6404  0.0661  1.1225
 7888SOL     OW25084   4.085   3.212   5.891 -0.2142 -0.2284 -0.0600
 7888SOL    HW125085   4.084   3.308   5.897 -0.6804 -0.3477  2.4316
 7888SOL    HW225086   4.178   3.190   5.886 -0.0057  0.2849  1.2445
 7889SOL     OW25087   7.037   1.387   2.762 -0.1374 -0.2355  0.2063
 7889SOL    HW125088   7.015   1.460   2.820  1.6954  0.1858  0.4051
 7889SOL    HW225089   7.058   1.427   2.678  1.8729 -0.3804  0.5860
 7890SOL     OW25090   4.385   1.631   3.084  0.5448 -0.6323 -0.1702
 7890SOL    HW125091   4.369   1.554   3.029  0.3178  0.3433 -1.5106
 7890SOL    HW225092   4.454   1.679   3.039  0.5117  0.0874  0.5209
 7891SOL     OW25093   7.217   5.373   2.613 -0.0898  0.0281 -0.2476
 7891SOL    HW125094   7.252   5.302   2.559 -0.2419  0.1765 -0.5432
 7891SOL    HW225095   7.163   5.329   2.679  0.6324 -0.2038  0.2044
 7892SOL     OW25096   6.682   4.687   8.608 -0.0564 -0.1115 -0.4903
 7892SOL    HW125097   6.655   4.630   8.680 -0.8182 -0.6230 -1.1583
 7892SOL    HW225098   6.655   4.775   8.636  2.2851  0.1979  1.1233
 7893SOL     OW25099   2.068   7.911   4.588 -0.5418  0.2906  0.1855
 7893SOL    HW125100   2.078   7.971   4.514 -0.3356  0.4953  0.3780
 7893SOL    HW225101   2.029   7.964   4.657  0.3073  0.3953  0.5936
 7894SOL     OW25102   6.100   4.989   1.345  0.0684 -0.2766 -0.3611
 7894SOL    HW125103   6.045   4.962   1.419  2.3042 -0.5329  1.3014
 7894SOL    HW225104   6.067   4.938   1.271 -0.6469 -1.9129  1.0152
 7895SOL     OW25105   3.548   1.277   7.429 -0.0625 -0.0499 -0.0081
 7895SOL    HW125106   3.463   1.321   7.433  0.7974  1.8309 -1.0042
 7895SOL    HW225107   3.563   1.264   7.335  2.3762  3.2280 -0.2593
 7896SOL     OW25108   3.844   6.028   4.731 -0.3523  0.4672  0.2994
 7896SOL    HW125109   3.936   6.009   4.716 -0.3626  0.2082  0.5771
 7896SOL    HW225110   3.843   6.093   4.801 -0.2382  2.6256 -1.5530
 7897SOL     OW25111   0.772   2.421   4.059  0.0014  0.3027 -0.3567
 7897SOL    HW125112   0.766   2.358   4.131 -2.0402  1.3951  0.5331
 7897SOL    HW225113   0.690   2.470   4.064  0.2147  1.0658 -2.8675
 7898SOL     OW25114   7.495   7.993   5.878  0.2909 -0.1939  0.1384
 7898SOL    HW125115   7.536   8.051   5.942 -0.8949 -0.5424  1.2614
 7898SOL    HW225116   7.421   8.044   5.844  0.1269 -0.5010  0.0284
 7899SOL     OW25117   1.121   6.996   6.071 -0.4954 -0.0405  0.4647
 7899SOL    HW125118   1.117   6.973   6.163 -1.0803 -0.5688  0.3154
 7899SOL    HW225119   1.110   6.912   6.025 -1.0182  0.3183 -0.0804
 7900SOL     OW25120   3.122   7.953   6.277  0.1016 -0.1778  0.4115
 7900SOL    HW125121   3.211   7.946   6.311  0.4130  0.3479 -0.2672
 7900SOL    HW225122   3.131   8.006   6.197 -0.9695  0.9169  0.9760
 7901SOL     OW25123   7.109   5.392   8.552  0.4449 -0.2625  0.0999
 7901SOL    HW125124   7.154   5.476   8.562  1.5047 -0.9591  1.4139
 7901SOL    HW225125   7.016   5.415   8.549  0.7845  1.1419 -1.9143
 7902SOL     OW25126   6.410   1.831   2.467 -0.1988  0.6680 -0.1185
 7902SOL    HW125127   6.479   1.817   2.532  0.0103 -0.0942 -0.4876
 7902SOL    HW225128   6.360   1.749   2.468 -0.4062  0.7838 -0.6664
 7903SOL     OW25129   8.483   5.195   6.880  0.7327 -0.3835  0.0572
 7903SOL    HW125130   8.537   5.142   6.939  1.3810  0.1162 -0.0814
 7903SOL    HW225131   8.393   5.179   6.909  0.8658 -1.9898 -0.3217
 7904SOL     OW25132   4.767   8.702   5.722  0.0010  0.1979 -0.5349
 7904SOL    HW125133   4.697   8.637   5.718  0.3155 -0.1401 -0.5765
 7904SOL    HW225134   4.811   8.696   5.638 -1.1436  1.8081 -1.2989
 7905SOL     OW25135   3.623   1.585   1.350  0.0930 -0.4037  0.6626
 7905SOL    HW125136   3.691   1.528   1.384  0.0157 -0.4335  0.7683
 7905SOL    HW225137   3.567   1.604   1.426 -1.0790 -1.8657  0.2052
 7906SOL     OW25138   8.686   9.269   3.282  0.0370 -0.6977 -0.0010
 7906SOL    HW125139   8.669   9.300   3.371 -0.6580 -1.1956  0.0483
 7906SOL    HW225140   8.756   9.204   3.292  0.9889  0.3118 -0.0133
 7907SOL     OW25141   6.017   0.345   2.497 -0.0401 -0.9254  0.0545
 7907SOL    HW125142   6.015   0.269   2.555 -0.1557  0.5506  2.0597
 7907SOL    HW225143   5.926   0.358   2.471 -0.1026 -1.1233  0.1749
 7908SOL     OW25144   9.081   9.242   8.110 -0.3233  0.8715 -0.6052
 7908SOL    HW125145   9.052   9.152   8.093  0.7315  0.5763 -0.9400
 7908SOL    HW225146   9.005   9.296   8.093 -1.8229 -0.1364  2.1835
 7909SOL     OW25147   6.690   3.615   8.453 -0.5131 -0.2674 -0.0745
 7909SOL    HW125148   6.682   3.693   8.508  0.5734  0.1408 -0.4614
 7909SOL    HW225149   6.782   3.615   8.425 -0.5882 -1.4954 -0.3672
 7910SOL     OW25150   4.674   6.606   7.688  0.3963  0.0032  0.1716
 7910SOL    HW125151   4.739   6.597   7.758  0.3506 -0.7156  0.1286
 7910SOL    HW225152   4.607   6.541   7.710  0.7113 -0.7125 -0.8859
 7911SOL     OW25153   8.077   7.591   0.599 -0.9861 -0.3356  0.2545
 7911SOL    HW125154   8.052   7.668   0.652  0.9568 -0.1022  0.9221
 7911SOL    HW225155   8.028   7.601   0.518 -2.6281  0.3044  1.2637
 7912SOL     OW25156   2.920   4.803   0.492  0.0138 -0.1276 -0.2447
 7912SOL    HW125157   3.012   4.823   0.512 -0.4955  1.1476  1.0073
 7912SOL    HW225158   2.893   4.872   0.432 -1.0620  1.6982  2.1636
 7913SOL     OW25159   6.818   8.087   0.635  0.2626 -0.2863  0.6336
 7913SOL    HW125160   6.802   8.053   0.548 -2.0074 -0.5091  1.0774
 7913SOL    HW225161   6.847   8.178   0.621 -0.2293 -0.2728 -0.3367
 7914SOL     OW25162   6.072   5.257   7.171 -0.3359  0.2851 -0.5963
 7914SOL    HW125163   6.080   5.319   7.098  1.8699  2.1150  1.0609
 7914SOL    HW225164   6.147   5.198   7.161  0.1705  0.7545  0.3394
 7915SOL     OW25165   0.554   3.946   7.788 -0.3681 -0.0009  0.0681
 7915SOL    HW125166   0.525   4.014   7.848  0.7690  0.0327  0.6204
 7915SOL    HW225167   0.558   3.867   7.842 -2.1639 -0.6530 -0.6861
 7916SOL     OW25168   0.843   6.978   2.912  0.4176 -0.4366 -0.4200
 7916SOL    HW125169   0.819   6.891   2.878 -1.9939  0.3718 -0.9525
 7916SOL    HW225170   0.780   6.995   2.982 -0.3760  1.6350 -1.5522
 7917SOL     OW25171   6.203   3.925   0.196  0.1540 -0.3650 -0.6943
 7917SOL    HW125172   6.270   3.910   0.129  1.5780 -1.3106  0.8773
 7917SOL    HW225173   6.250   3.921   0.279 -1.5867  0.6293  0.4107
 7918SOL     OW25174   3.144   7.830   1.871  0.2721  0.1291 -0.1491
 7918SOL    HW125175   3.214   7.767   1.856 -0.1632 -0.6170  0.8467
 7918SOL    HW225176   3.082   7.814   1.800  1.0113  0.7022 -0.9569
 7919SOL     OW25177   8.980   9.256   1.366 -0.7270  0.5273  0.2131
 7919SOL    HW125178   8.970   9.165   1.392 -1.8471  0.3517 -0.7663
 7919SOL    HW225179   8.904   9.274   1.310 -0.0265  1.7811 -0.3782
 7920SOL     OW25180   6.469   6.057   3.669 -0.0644  0.2042 -0.6679
 7920SOL    HW125181   6.545   6.021   3.623  0.4061 -0.2996  0.4672
 7920SOL    HW225182   6.496   6.146   3.693 -0.3339  0.4894 -1.4071
 7921SOL     OW25183   1.799   5.496   2.275  0.3886  0.7237  0.3560
 7921SOL    HW125184   1.870   5.432   2.274 -0.9593 -0.8543 -0.0774
 7921SOL    HW225185   1.772   5.499   2.367 -0.8352 -0.9107  0.0954
 7922SOL     OW25186   7.226   5.564   0.307 -0.2284 -1.0233  0.1058
 7922SOL    HW125187   7.207   5.556   0.213 -0.0740 -1.6621  0.1209
 7922SOL    HW225188   7.169   5.499   0.348 -1.0266 -0.0673  0.5680
 7923SOL     OW25189   2.935   7.462   4.501 -0.2115 -0.2774 -0.1101
 7923SOL    HW125190   3.025   7.477   4.530 -0.1841 -0.5244 -0.0656
 7923SOL    HW225191   2.883   7.526   4.549 -0.0246  0.0588 -0.3495
 7924SOL     OW25192   4.169   4.081   0.329 -0.1294  0.4987  0.3937
 7924SOL    HW125193   4.185   4.077   0.423  1.0008  0.5344  0.2194
 7924SOL    HW225194   4.105   4.012   0.312 -1.6257  1.5583  1.4078
 7925SOL     OW25195   3.208   7.837   3.038 -0.1896  0.4881 -0.5066
 7925SOL    HW125196   3.232   7.876   3.122  1.0378  0.5082 -0.8474
 7925SOL    HW225197   3.289   7.795   3.007 -0.9336 -0.5517 -1.1198
 7926SOL     OW25198   6.113   2.378   3.548 -0.0893 -0.1434  0.2578
 7926SOL    HW125199   6.142   2.320   3.478  0.1428 -1.4615  1.4127
 7926SOL    HW225200   6.074   2.320   3.613  0.5056  0.9428  1.6333
 7927SOL     OW25201   6.631   1.886   1.399 -0.2554  0.3847 -0.5264
 7927SOL    HW125202   6.614   1.792   1.409  1.4041  0.0181 -0.8085
 7927SOL    HW225203   6.687   1.908   1.473 -0.8710  1.2376 -0.2961
 7928SOL     OW25204   6.907   0.277   0.594 -0.3001 -0.1556  0.1862
 7928SOL    HW125205   6.976   0.213   0.613 -0.2237 -0.1374 -0.0367
 7928SOL    HW225206   6.943   0.332   0.525  0.0270  0.7558  1.0627
 7929SOL     OW25207   3.548   3.688   6.617 -0.6449  0.2202 -0.6631
 7929SOL    HW125208   3.604   3.612   6.631 -0.6653  0.0853 -1.2592
 7929SOL    HW225209   3.514   3.710   6.704 -1.0386 -0.7668 -0.5467
 7930SOL     OW25210   7.016   6.668   2.381  0.0124  0.6643  0.2439
 7930SOL    HW125211   6.967   6.601   2.430  2.6847 -0.0739  2.1579
 7930SOL    HW225212   7.043   6.731   2.448 -0.1749  2.2651 -1.1219
 7931SOL     OW25213   5.149   9.192   2.851  0.4613 -0.1526 -0.3611
 7931SOL    HW125214   5.207   9.175   2.777  2.4558  1.7852  0.6473
 7931SOL    HW225215   5.179   9.275   2.887 -1.8696  0.0835  1.3069
 7932SOL     OW25216   3.612   6.430   2.492 -0.4980  0.1305 -0.0950
 7932SOL    HW125217   3.650   6.408   2.577 -0.5688 -0.7607 -0.2786
 7932SOL    HW225218   3.629   6.523   2.480 -0.3131  0.2135  0.8070
 7933SOL     OW25219   1.365   2.550   5.263 -0.4304  0.5266 -0.8277
 7933SOL    HW125220   1.287   2.576   5.213 -0.2399  1.1650 -0.8066
 7933SOL    HW225221   1.333   2.541   5.353 -0.7213 -0.3759 -1.0119
 7934SOL     OW25222   5.428   8.295   4.392  0.0692 -0.2071 -0.0121
 7934SOL    HW125223   5.363   8.270   4.458  0.5816  0.1528  0.6326
 7934SOL    HW225224   5.463   8.379   4.423  2.2538 -1.3083  0.6973
 7935SOL     OW25225   2.483   5.046   9.222  0.9432  0.2691 -0.0671
 7935SOL    HW125226   2.511   4.959   9.251  2.9708  0.3100 -1.6343
 7935SOL    HW225227   2.414   5.028   9.158 -0.1508 -0.0336  1.1487
 7936SOL     OW25228   6.302   8.352   4.427  0.8087 -0.2836 -0.2011
 7936SOL    HW125229   6.271   8.278   4.478 -0.6362 -1.5604 -2.7802
 7936SOL    HW225230   6.238   8.421   4.443  1.0937 -0.2033  0.6736
 7937SOL     OW25231   8.277   3.759   2.698  0.4254  0.2107  0.1776
 7937SOL    HW125232   8.346   3.820   2.724  1.4561 -1.1854  0.8284
 7937SOL    HW225233   8.262   3.705   2.776 -1.6441  0.6764  0.1623
 7938SOL     OW25234   2.091   8.928   7.393 -0.0821 -0.1390  0.3464
 7938SOL    HW125235   2.156   8.992   7.421 -1.3201  0.3682  2.2738
 7938SOL    HW225236   2.078   8.872   7.469 -0.6605 -1.3051 -0.5718
 7939SOL     OW25237   6.539   1.152   0.439  0.3097 -0.4644 -0.3064
 7939SOL    HW125238   6.630   1.180   0.433  0.7054 -0.6919  3.0731
 7939SOL    HW225239   6.539   1.064   0.402  1.3622 -0.3572 -0.5996
 7940SOL     OW25240   2.099   6.660   7.228  0.1186 -0.0137  0.1986
 7940SOL    HW125241   2.131   6.666   7.138  0.4200 -0.7569  0.2486
 7940SOL    HW225242   2.118   6.570   7.254  0.2735  0.2684  1.0968
 7941SOL     OW25243   6.818   4.824   0.436 -0.4465  0.0302 -0.5346
 7941SOL    HW125244   6.749   4.765   0.465 -0.0588 -0.4874 -0.6469
 7941SOL    HW225245   6.850   4.785   0.355  1.3811 -0.9128  0.5508
 7942SOL     OW25246   6.483   1.276   3.138 -0.3361 -0.2084 -0.2317
 7942SOL    HW125247   6.440   1.334   3.075 -0.0647 -0.2392 -0.4485
 7942SOL    HW225248   6.427   1.279   3.215 -1.2983 -1.0619 -0.8697
 7943SOL     OW25249   4.499   6.112   5.895  0.0253 -0.1871 -0.1037
 7943SOL    HW125250   4.499   6.111   5.990 -1.3647 -0.2490 -0.0741
 7943SOL    HW225251   4.569   6.052   5.870  0.5248 -0.0321  0.8671
 7944SOL     OW25252   7.799   0.558   5.397 -0.6366 -0.4739 -0.7193
 7944SOL    HW125253   7.832   0.567   5.486 -3.8244 -0.1748  0.5607
 7944SOL    HW225254   7.790   0.464   5.383  1.2386 -0.5983 -1.3545
 7945SOL     OW25255   4.617   0.333   8.790  0.4168 -0.0272  0.3613
 7945SOL    HW125256   4.678   0.401   8.761 -0.3063  0.1029 -0.8993
 7945SOL    HW225257   4.654   0.251   8.758  0.7093 -0.1250  0.9264
 7946SOL     OW25258   3.424   5.149   8.376 -0.2616 -0.5626  0.2590
 7946SOL    HW125259   3.444   5.061   8.343  1.1630  0.0044 -0.4862
 7946SOL    HW225260   3.438   5.143   8.470 -0.0841 -1.1143  0.2024
 7947SOL     OW25261   7.081   4.738   2.479  0.6905  0.5137  0.4259
 7947SOL    HW125262   7.115   4.655   2.512 -0.5350  0.0196  0.5116
 7947SOL    HW225263   6.992   4.743   2.514  0.6433  1.7300  0.1794
 7948SOL     OW25264   3.504   0.021   2.051 -0.0499  0.1281 -0.9522
 7948SOL    HW125265   3.546   0.085   1.993 -1.3527  0.0619 -1.9976
 7948SOL    HW225266   3.411   0.043   2.048 -0.1871  0.0147  1.0105
 7949SOL     OW25267   8.096   1.064   3.825 -0.3983 -0.0888 -0.2065
 7949SOL    HW125268   8.173   1.041   3.877 -0.7508 -0.8510 -0.0015
 7949SOL    HW225269   8.127   1.130   3.763 -0.0483  1.0953  1.1839
 7950SOL     OW25270   7.105   0.555   0.457  0.4297  0.1095 -1.1129
 7950SOL    HW125271   7.174   0.502   0.417  1.2324  1.0381 -1.0025
 7950SOL    HW225272   7.103   0.527   0.548  0.7738  0.1951 -1.0794
 7951SOL     OW25273   8.025   5.004   5.912 -0.1988  0.5629  0.0349
 7951SOL    HW125274   8.020   5.098   5.898  0.4911  0.5288 -0.4557
 7951SOL    HW225275   8.097   4.993   5.975 -0.9336  0.4381  0.8662
 7952SOL     OW25276   5.383   0.865   8.366 -0.5413 -0.1997  0.0944
 7952SOL    HW125277   5.403   0.906   8.451 -0.2824  2.3922 -1.1257
 7952SOL    HW225278   5.380   0.938   8.305  1.8936 -2.1747 -2.6595
 7953SOL     OW25279   4.664   3.483   0.568 -0.4779  0.2069  0.3166
 7953SOL    HW125280   4.666   3.459   0.476  0.4552 -0.0767  0.4070
 7953SOL    HW225281   4.634   3.404   0.613  0.8974 -0.2711  0.4357
 7954SOL     OW25282   1.850   0.273   4.540 -0.2207 -0.6704  0.2575
 7954SOL    HW125283   1.902   0.227   4.606  1.7205 -0.4526 -1.0423
 7954SOL    HW225284   1.888   0.247   4.456  0.7366  2.8645 -0.5918
 7955SOL     OW25285   4.536   6.698   6.437 -0.7660 -0.1168 -0.0111
 7955SOL    HW125286   4.591   6.753   6.381  2.8415 -1.6468  1.7060
 7955SOL    HW225287   4.540   6.611   6.397  0.3390 -0.8191  1.5391
 7956SOL     OW25288   8.650   2.713   5.113 -0.4147  0.1745  0.2030
 7956SOL    HW125289   8.706   2.701   5.189 -0.1304  2.5286  0.4363
 7956SOL    HW225290   8.565   2.737   5.149 -1.1704 -1.7101 -0.1998
 7957SOL     OW25291   1.546   0.265   3.123  0.2714 -0.1973  0.2696
 7957SOL    HW125292   1.480   0.293   3.187 -1.5555 -2.4049 -0.5017
 7957SOL    HW225293   1.569   0.345   3.076 -0.4120  0.9799  1.8370
 7958SOL     OW25294   3.266   7.259   5.796 -0.1764  0.0098 -0.0960
 7958SOL    HW125295   3.253   7.325   5.863  0.1577 -0.5871  0.5714
 7958SOL    HW225296   3.298   7.307   5.720  0.5192  0.5570  0.5353
 7959SOL     OW25297   1.862   8.034   3.516 -0.2653 -0.5175 -0.4221
 7959SOL    HW125298   1.944   8.066   3.480 -0.1633 -0.2443  0.0598
 7959SOL    HW225299   1.863   7.940   3.497 -1.0209 -0.1249 -2.7379
 7960SOL     OW25300   8.852   2.692   6.105  0.0067 -1.0810 -0.1389
 7960SOL    HW125301   8.851   2.774   6.056 -0.1967 -0.8965  0.1714
 7960SOL    HW225302   8.890   2.629   6.045 -0.8803 -1.0146 -0.7751
 7961SOL     OW25303   1.456   1.147   5.671 -0.5238  0.6988  0.6696
 7961SOL    HW125304   1.438   1.236   5.640  0.1740  0.5013 -0.3527
 7961SOL    HW225305   1.389   1.094   5.629  0.7998  0.3363 -1.1044
 7962SOL     OW25306   8.024   7.503   5.591  0.3708  0.0314  0.8925
 7962SOL    HW125307   8.102   7.550   5.619  2.1819 -1.0609 -1.8992
 7962SOL    HW225308   7.971   7.569   5.546 -0.1885  0.6841  2.4399
 7963SOL     OW25309   4.861   6.998   6.674 -0.2025  0.1727  0.1201
 7963SOL    HW125310   4.904   7.026   6.755 -0.7877 -0.0542  0.5086
 7963SOL    HW225311   4.774   7.036   6.677 -0.2498  0.1217 -0.3812
 7964SOL     OW25312   0.083   3.205   5.120 -0.2280 -0.0703  0.9015
 7964SOL    HW125313   0.093   3.189   5.026 -0.0514  0.2529  0.8635
 7964SOL    HW225314  -0.004   3.244   5.128 -0.2118 -0.0258  0.8632
 7965SOL     OW25315   6.737   1.108   8.445 -0.1349 -0.0660  0.5245
 7965SOL    HW125316   6.671   1.060   8.494  1.8003 -2.0413  1.3445
 7965SOL    HW225317   6.752   1.188   8.496 -1.0037 -0.1756  0.9665
 7966SOL     OW25318   7.302   0.717   1.270 -0.2872  0.3596  0.2902
 7966SOL    HW125319   7.299   0.636   1.320  1.0602  0.2465  0.2202
 7966SOL    HW225320   7.294   0.786   1.336 -2.2758  0.2031  0.2754
 7967SOL     OW25321   9.028   1.049   5.161 -0.1498 -0.7223  0.0065
 7967SOL    HW125322   9.062   1.139   5.166 -1.4073 -0.2075 -0.3692
 7967SOL    HW225323   9.006   1.037   5.069 -2.0230 -0.6269  0.4113
 7968SOL     OW25324   4.238   2.802   3.171 -0.2726 -0.2136  0.0051
 7968SOL    HW125325   4.277   2.866   3.232 -1.3970  0.7039 -0.1996
 7968SOL    HW225326   4.145   2.802   3.193 -0.8190  0.6128 -2.0981
 7969SOL     OW25327   6.614   7.454   0.432  0.2590  0.4635 -0.0729
 7969SOL    HW125328   6.592   7.362   0.446 -0.3761  0.7817  1.1747
 7969SOL    HW225329   6.532   7.501   0.448  0.5899  1.2552 -0.6300
 7970SOL     OW25330   1.468   5.686   2.559  0.1292  0.2691 -0.5668
 7970SOL    HW125331   1.378   5.716   2.572 -0.7474 -2.5513  0.5693
 7970SOL    HW225332   1.521   5.747   2.611 -1.2243  1.2201 -0.2322
 7971SOL     OW25333   1.653   2.154   0.024 -0.1742 -0.5605  0.2489
 7971SOL    HW125334   1.696   2.115   0.100  2.7054 -0.7977 -1.3535
 7971SOL    HW225335   1.666   2.091  -0.046 -0.8865  0.5964 -0.9714
 7972SOL     OW25336   5.560   0.210   6.015  0.1229 -0.2538  0.0747
 7972SOL    HW125337   5.494   0.142   6.002  0.2548 -0.0297 -2.0241
 7972SOL    HW225338   5.615   0.205   5.937  0.3901  1.9942  0.0638
 7973SOL     OW25339   7.264   5.166   2.445  0.4375  0.3004  0.2329
 7973SOL    HW125340   7.263   5.213   2.362  1.2992  1.6976  0.9707
 7973SOL    HW225341   7.322   5.091   2.430 -2.3354 -1.6775 -1.4795
 7974SOL     OW25342   7.017   0.428   3.475 -0.1673 -0.1416  0.2794
 7974SOL    HW125343   6.994   0.377   3.398  1.3915 -0.3913 -0.0668
 7974SOL    HW225344   6.933   0.454   3.513 -0.9727 -1.0396 -0.8068
 7975SOL     OW25345   1.964   8.344   5.100  0.0776 -0.0389 -0.2645
 7975SOL    HW125346   2.044   8.293   5.094  0.3705  0.4009 -0.1041
 7975SOL    HW225347   1.991   8.428   5.136 -0.8257 -0.7935  2.4007
 7976SOL     OW25348   7.696   4.362   6.052  0.0811  0.2121 -0.3001
 7976SOL    HW125349   7.753   4.382   6.127 -0.2740 -1.1985  0.3846
 7976SOL    HW225350   7.746   4.390   5.975  1.2905 -0.1141  0.3508
 7977SOL     OW25351   6.206   5.352   1.301  0.4601  0.7261  0.6473
 7977SOL    HW125352   6.260   5.279   1.270 -0.9180  0.5064 -1.4108
 7977SOL    HW225353   6.204   5.414   1.228 -1.3193  1.1264  0.9921
 7978SOL     OW25354   6.242   1.566   1.067 -0.9653  0.9975 -0.1353
 7978SOL    HW125355   6.326   1.521   1.068 -0.2477  2.2850  0.5531
 7978SOL    HW225356   6.243   1.620   1.146 -2.5453  0.8689  0.0025
 7979SOL     OW25357   4.679   7.913   3.416 -0.2211 -0.5811  0.5766
 7979SOL    HW125358   4.729   7.856   3.358 -3.8983 -1.3821 -2.1853
 7979SOL    HW225359   4.682   7.999   3.374  1.3233  0.2330  2.1704
 7980SOL     OW25360   5.382   1.070   4.474 -0.2239 -0.2452 -0.4983
 7980SOL    HW125361   5.348   0.988   4.509 -3.4237  1.9554  2.1471
 7980SOL    HW225362   5.470   1.077   4.512 -0.6181 -1.5846  0.7585
 7981SOL     OW25363   2.315   4.371   2.654 -0.1372  0.6127 -0.1554
 7981SOL    HW125364   2.267   4.361   2.736  2.7188 -3.1207  1.3548
 7981SOL    HW225365   2.385   4.433   2.675  0.1141  0.2789  0.0026
 7982SOL     OW25366   8.051   1.408   7.279 -0.3498 -0.1245 -0.3359
 7982SOL    HW125367   8.061   1.356   7.199 -0.2656 -0.1147 -0.3321
 7982SOL    HW225368   8.060   1.344   7.350  1.2697  0.1133 -0.2938
 7983SOL     OW25369   7.651   6.385   6.507 -0.4533 -0.1651 -0.4320
 7983SOL    HW125370   7.671   6.455   6.446 -0.3294  0.7288  0.5924
 7983SOL    HW225371   7.701   6.407   6.586 -0.5481 -1.3152 -0.0274
 7984SOL     OW25372   1.201   5.357   1.393 -0.1766  0.2477 -0.4171
 7984SOL    HW125373   1.244   5.347   1.478 -0.4516  1.4190 -0.1242
 7984SOL    HW225374   1.108   5.344   1.411 -0.0816 -1.0822 -0.8335
 7985SOL     OW25375   7.425   3.397   1.052  0.3438 -0.2205  0.0846
 7985SOL    HW125376   7.518   3.378   1.039 -0.1556 -1.8927 -1.4303
 7985SOL    HW225377   7.380   3.348   0.983 -1.5216  2.5318 -0.8429
 7986SOL     OW25378   3.995   3.436   0.158 -0.3015  0.0865 -0.1983
 7986SOL    HW125379   4.042   3.410   0.237 -2.9739  2.0154  2.2584
 7986SOL    HW225380   4.062   3.474   0.101  1.7583 -1.5435  0.9977
 7987SOL     OW25381   6.950   2.658   5.600  0.2145 -0.2252 -0.4850
 7987SOL    HW125382   6.965   2.579   5.548  0.8125 -0.3997 -0.0502
 7987SOL    HW225383   6.917   2.626   5.683  0.3772 -0.0159 -0.3386
 7988SOL     OW25384   4.926   4.735   7.347 -0.2696  0.3213  0.0321
 7988SOL    HW125385   4.894   4.817   7.308  0.9478  0.8314  0.0350
 7988SOL    HW225386   5.021   4.749   7.355 -0.0265 -1.1543 -0.0975
 7989SOL     OW25387   1.140   1.872   5.185  0.3784 -0.1009 -0.3556
 7989SOL    HW125388   1.046   1.861   5.203  0.1489  0.2441 -1.3118
 7989SOL    HW225389   1.148   1.963   5.158  0.6190 -0.6992 -2.4474
 7990SOL     OW25390   8.989   7.233   7.103  0.0885 -0.3657  0.3880
 7990SOL    HW125391   8.893   7.233   7.103  0.0847 -0.7121  0.6947
 7990SOL    HW225392   9.013   7.232   7.010 -0.2122 -0.8450  0.3097
 7991SOL     OW25393   7.514   0.027   8.246 -0.1891  0.0069 -0.0548
 7991SOL    HW125394   7.551   0.109   8.212 -0.3401  1.2050  2.4914
 7991SOL    HW225395   7.581  -0.007   8.305  0.4196 -2.4740 -2.0240
 7992SOL     OW25396   2.933   3.902   5.256 -0.0168  0.4810 -0.0249
 7992SOL    HW125397   2.934   3.811   5.285  0.8694  0.2693 -0.6887
 7992SOL    HW225398   2.862   3.906   5.191 -0.4185  0.4009  0.4042
 7993SOL     OW25399   5.380   1.318   5.051  0.5316  0.1352  0.1610
 7993SOL    HW125400   5.419   1.257   5.113  0.1841 -0.0294  0.2204
 7993SOL    HW225401   5.449   1.335   4.987  1.0883  0.7395  0.8974
 7994SOL     OW25402   7.026   6.242   8.109  0.1019 -0.3934 -0.3031
 7994SOL    HW125403   6.958   6.290   8.061  2.9571  1.7737 -2.6034
 7994SOL    HW225404   7.092   6.222   8.042  1.6538 -2.5977  1.7391
 7995SOL     OW25405   5.640   3.637   8.156  0.1855  0.2133 -0.2173
 7995SOL    HW125406   5.726   3.613   8.121  0.8597  1.5794  0.4304
 7995SOL    HW225407   5.649   3.729   8.181 -1.8325  0.7375 -1.2187
 7996SOL     OW25408   0.299   7.279   2.420 -0.2609  0.0833 -0.0331
 7996SOL    HW125409   0.213   7.238   2.417 -0.3298  0.2596 -1.1916
 7996SOL    HW225410   0.322   7.292   2.328  1.1226 -0.2009  0.2540
 7997SOL     OW25411   9.209   8.724   4.446 -0.2180  0.7972 -0.1429
 7997SOL    HW125412   9.155   8.764   4.379  0.3576 -0.4028 -1.3684
 7997SOL    HW225413   9.257   8.655   4.401  0.8487  0.5208  1.3191
 7998SOL     OW25414   8.828   5.518   6.527  0.0454  0.1592 -0.0353
 7998SOL    HW125415   8.886   5.442   6.528  1.8017  1.4575  0.2883
 7998SOL    HW225416   8.838   5.557   6.614 -1.1904  0.5442 -0.0400
 7999SOL     OW25417   5.034   1.551   7.980 -0.6486  0.0874 -0.3489
 7999SOL    HW125418   4.962   1.524   7.923 -0.9658  0.3034 -0.0481
 7999SOL    HW225419   5.010   1.518   8.067 -0.0823 -0.3939 -0.3674
 8000SOL     OW25420   8.346   3.038   7.372  0.2727  0.9541  0.0174
 8000SOL    HW125421   8.393   2.977   7.315  4.9876  3.8305  0.3522
 8000SOL    HW225422   8.305   3.100   7.312 -1.5554 -0.4151 -0.2337
 8001SOL     OW25423   1.872   1.848   4.629  0.3906  0.0346 -0.1341
 8001SOL    HW125424   1.844   1.764   4.594  0.0562 -0.4683  1.2728
 8001SOL    HW225425   1.922   1.826   4.708 -0.1245  1.1569  0.5395
 8002SOL     OW25426   4.999   3.159   9.087 -0.3488 -0.0086 -0.1808
 8002SOL    HW125427   5.022   3.068   9.107 -1.4929 -0.3705 -0.4427
 8002SOL    HW225428   5.044   3.211   9.153  1.7720 -0.6055 -1.0697
 8003SOL     OW25429   5.036   2.235   2.724  0.3476 -0.6273 -0.6076
 8003SOL    HW125430   5.112   2.268   2.677  0.4558 -1.2733 -0.8974
 8003SOL    HW225431   5.070   2.209   2.810  0.3784 -0.5612 -0.5999
 8004SOL     OW25432   5.289   3.805   2.230 -0.0822  0.5592 -0.3155
 8004SOL    HW125433   5.248   3.778   2.148  0.5156  1.5490 -0.9682
 8004SOL    HW225434   5.359   3.864   2.203  1.2143 -0.4037  0.8176
 8005SOL     OW25435   1.858   2.725   2.360  0.2256  0.3073  0.2722
 8005SOL    HW125436   1.819   2.713   2.273  2.7506  1.0009 -1.0573
 8005SOL    HW225437   1.951   2.736   2.343  0.9538 -0.5583  3.2101
 8006SOL     OW25438   7.376   0.493   5.930  0.7327  0.0987  0.4048
 8006SOL    HW125439   7.310   0.494   5.999  0.3245 -1.6265  0.0738
 8006SOL    HW225440   7.459   0.503   5.977  0.5687 -2.3364  1.3464
 8007SOL     OW25441   2.898   7.349   7.286  0.3117  0.2731  0.2718
 8007SOL    HW125442   2.838   7.281   7.317  1.1756 -0.4363  0.4351
 8007SOL    HW225443   2.866   7.371   7.199 -1.1482  1.0921  0.9787
 8008SOL     OW25444   5.987   1.980   3.668  0.2424  0.1135  0.6464
 8008SOL    HW125445   6.010   1.953   3.757  2.2696  1.7983  0.6854
 8008SOL    HW225446   6.036   1.920   3.611 -0.5481 -0.5435  0.6304
 8009SOL     OW25447   3.163   7.335   7.180 -0.4479  0.2874 -0.0556
 8009SOL    HW125448   3.080   7.378   7.203 -0.7119 -0.3375  0.1837
 8009SOL    HW225449   3.148   7.243   7.200 -0.5860 -0.2622 -2.4371
 8010SOL     OW25450   8.631   0.625   4.403  0.0349 -0.3795  0.2612
 8010SOL    HW125451   8.697   0.692   4.386  1.1879 -1.4141  0.4773
 8010SOL    HW225452   8.677   0.542   4.388 -0.6295 -1.1965  2.4297
 8011SOL     OW25453   7.797   8.902   1.826 -0.3461 -0.1769  0.1386
 8011SOL    HW125454   7.730   8.965   1.799 -0.3178 -0.4568 -0.6041
 8011SOL    HW225455   7.820   8.929   1.915  0.6025  1.6711 -0.6228
 8012SOL     OW25456   4.091   8.907   3.228 -0.1270 -0.5295 -0.2203
 8012SOL    HW125457   4.093   9.003   3.220  1.2232 -0.6313 -1.5793
 8012SOL    HW225458   3.999   8.884   3.215 -0.1545  0.4599 -2.1694
 8013SOL     OW25459   8.828   3.192   8.512  0.3258 -0.5296 -0.4751
 8013SOL    HW125460   8.924   3.190   8.505  0.4335 -0.5348  0.8100
 8013SOL    HW225461   8.811   3.219   8.602 -0.9043  0.9701 -1.1113
 8014SOL     OW25462   7.653   9.131   0.378  0.1906  0.1370  0.1232
 8014SOL    HW125463   7.558   9.123   0.370  0.3939 -0.9689 -1.5935
 8014SOL    HW225464   7.684   9.041   0.377  1.2239  0.4401  1.7140
 8015SOL     OW25465   1.224   4.022   3.789  0.8083  0.0148  0.3288
 8015SOL    HW125466   1.129   4.023   3.801  0.7618 -1.4505  0.2719
 8015SOL    HW225467   1.255   3.950   3.844  2.0239  1.1003  1.1296
 8016SOL     OW25468   1.586   7.210   8.201 -0.2604  0.7906 -0.0766
 8016SOL    HW125469   1.541   7.295   8.208  2.1286  2.0193  2.6469
 8016SOL    HW225470   1.674   7.233   8.170 -0.0532 -0.9760 -0.9240
 8017SOL     OW25471   8.839   5.783   7.699 -0.2862 -0.5602  0.0779
 8017SOL    HW125472   8.816   5.860   7.752 -1.4540 -0.4123 -0.6231
 8017SOL    HW225473   8.901   5.816   7.634  0.9413 -0.6854  1.1224
 8018SOL     OW25474   6.302   5.403   8.047 -0.1752 -0.0983  0.2421
 8018SOL    HW125475   6.345   5.464   7.987 -1.2887  0.3230 -0.1449
 8018SOL    HW225476   6.372   5.343   8.074  0.1845 -0.9002 -2.2214
 8019SOL     OW25477   7.313   7.610   2.385 -0.4701  0.4859 -0.3065
 8019SOL    HW125478   7.311   7.639   2.294 -3.3358 -0.2165 -0.5640
 8019SOL    HW225479   7.375   7.538   2.387 -0.3131  0.5709 -1.6953
 8020SOL     OW25480   8.017   5.036   8.530 -0.0327  0.2664 -0.3081
 8020SOL    HW125481   8.058   5.073   8.608 -1.0984  0.4555  0.1723
 8020SOL    HW225482   8.083   5.047   8.461  1.0146 -0.1021  0.5987
 8021SOL     OW25483   1.115   4.248   1.460 -0.4806  0.0023 -0.4414
 8021SOL    HW125484   1.097   4.257   1.553  1.6141 -0.1905  0.0416
 8021SOL    HW225485   1.063   4.173   1.432 -0.2156 -0.6972  0.8756
 8022SOL     OW25486   8.761   0.518   3.248  0.1204  0.2905 -0.5319
 8022SOL    HW125487   8.696   0.456   3.281 -0.1039 -0.4362 -2.2144
 8022SOL    HW225488   8.710   0.592   3.214  0.3611  1.1667  0.9461
 8023SOL     OW25489   3.195   2.028   7.810 -0.6904  0.3290  0.0688
 8023SOL    HW125490   3.111   1.982   7.814 -0.6115  0.2701  1.3852
 8023SOL    HW225491   3.221   2.039   7.901  0.6320  0.5515 -0.3140
 8024SOL     OW25492   1.803   0.866   5.472 -0.0034 -0.0272  0.4549
 8024SOL    HW125493   1.844   0.939   5.426 -0.0735  0.0556  0.5234
 8024SOL    HW225494   1.754   0.907   5.544  0.0009 -0.1454  0.5256
 8025SOL     OW25495   2.163   1.699   4.575  0.5925 -0.3624  0.3686
 8025SOL    HW125496   2.210   1.764   4.523  1.1454 -1.2898 -0.3172
 8025SOL    HW225497   2.230   1.661   4.632  0.7163 -1.6967 -0.6207
 8026SOL     OW25498   2.177   4.213   0.360 -0.9128  0.7019 -0.3466
 8026SOL    HW125499   2.198   4.204   0.453 -1.7591 -1.6612 -0.3068
 8026SOL    HW225500   2.197   4.304   0.339  1.6443  0.6807  1.5377
 8027SOL     OW25501   1.320   4.255   6.167 -0.2904 -0.4418 -0.1299
 8027SOL    HW125502   1.341   4.162   6.172  0.9357 -0.3062 -1.7882
 8027SOL    HW225503   1.399   4.295   6.130 -0.4786  1.3985  1.2961
 8028SOL     OW25504   6.227   4.461   8.701 -0.1444 -0.2089 -0.3200
 8028SOL    HW125505   6.264   4.381   8.663 -0.1217 -0.2283 -0.2580
 8028SOL    HW225506   6.289   4.484   8.771  0.5105  0.5408 -1.1232
 8029SOL     OW25507   5.014   7.651   5.441  0.1680 -0.1880  0.5241
 8029SOL    HW125508   4.919   7.656   5.452  0.2295  0.9590  0.5910
 8029SOL    HW225509   5.032   7.701   5.362  0.7892  0.2231  0.9170
 8030SOL     OW25510   5.789   1.420   9.053  0.1818  0.0168  0.1640
 8030SOL    HW125511   5.741   1.338   9.046 -0.7697  0.6178 -0.6980
 8030SOL    HW225512   5.852   1.417   8.981 -0.3333  0.3267 -0.3120
 8031SOL     OW25513   5.069   6.618   5.978  0.5650 -0.0253  0.1008
 8031SOL    HW125514   5.065   6.697   6.032  0.9247 -0.1910  0.3696
 8031SOL    HW225515   5.156   6.620   5.938  0.1573  0.3063 -0.7999
 8032SOL     OW25516   0.552   1.855   8.522  0.6827  0.3117 -0.7496
 8032SOL    HW125517   0.581   1.765   8.536  1.0235  0.4227 -0.7247
 8032SOL    HW225518   0.503   1.852   8.440 -0.7072 -0.2024  0.0559
 8033SOL     OW25519   5.026   5.893   2.014  0.3270  0.8315 -0.2039
 8033SOL    HW125520   5.028   5.949   2.091 -1.8715  0.1400  0.4333
 8033SOL    HW225521   5.039   5.953   1.940  0.2570  1.8235  0.5682
 8034SOL     OW25522   5.236   4.436   5.137 -0.4684 -0.0674 -0.1572
 8034SOL    HW125523   5.240   4.361   5.196  0.5733  0.4081  0.4085
 8034SOL    HW225524   5.323   4.439   5.096 -0.5499  0.7312 -0.2967
 8035SOL     OW25525   4.958   5.083   0.213  0.6713  0.5137 -0.7085
 8035SOL    HW125526   4.882   5.126   0.250  1.3144  1.1147 -0.0662
 8035SOL    HW225527   4.966   5.001   0.261  0.5707  0.5595 -0.6158
 8036SOL     OW25528   1.140   6.256   4.773 -0.5087 -0.5063  0.0269
 8036SOL    HW125529   1.226   6.220   4.749 -0.7047  0.5719 -2.5787
 8036SOL    HW225530   1.161   6.336   4.821  0.0064  0.1336 -1.2047
 8037SOL     OW25531   7.126   0.093   5.522  0.4825 -0.0066 -0.0179
 8037SOL    HW125532   7.098   0.168   5.469 -0.7713 -1.1431 -1.0395
 8037SOL    HW225533   7.182   0.041   5.464 -1.1727 -1.4387 -0.4187
 8038SOL     OW25534   1.933   3.535   2.670 -0.3118 -0.5766  0.0533
 8038SOL    HW125535   1.956   3.471   2.737  1.8421 -0.3197 -0.3650
 8038SOL    HW225536   1.945   3.620   2.712  0.2788 -0.4229 -0.4167
 8039SOL     OW25537   4.083   1.771   0.656 -0.2883  0.4909  0.0274
 8039SOL    HW125538   4.026   1.842   0.686 -1.2938  0.2313 -1.1939
 8039SOL    HW225539   4.028   1.720   0.597  0.6927 -0.7992  0.1910
 8040SOL     OW25540   5.351   8.225   6.882 -0.0953  0.0779 -0.0118
 8040SOL    HW125541   5.301   8.261   6.808 -1.1537  0.3051  0.7914
 8040SOL    HW225542   5.380   8.302   6.931 -0.9139 -0.0908  0.7709
 8041SOL     OW25543   3.949   4.748   1.697 -0.5237  0.0978 -0.4187
 8041SOL    HW125544   4.030   4.727   1.651  0.6862 -0.2250  1.7411
 8041SOL    HW225545   3.911   4.663   1.719 -1.5140  0.2436 -1.4309
 8042SOL     OW25546   0.784   9.248   7.628  0.4202 -0.2219  0.8150
 8042SOL    HW125547   0.739   9.289   7.554 -0.2925  0.5170  1.6282
 8042SOL    HW225548   0.781   9.314   7.697 -0.4635 -1.4872  2.0556
 8043SOL     OW25549   4.866   0.623   3.139 -0.8032 -0.2393  0.5471
 8043SOL    HW125550   4.795   0.573   3.099  0.5530 -1.8853  0.0586
 8043SOL    HW225551   4.851   0.614   3.234 -0.0712 -2.4581  0.4973
 8044SOL     OW25552   3.507   4.741   8.500 -0.1471 -0.4424  0.6103
 8044SOL    HW125553   3.592   4.702   8.521 -0.1293 -0.6376  0.1879
 8044SOL    HW225554   3.443   4.675   8.527 -0.1454 -0.4566  0.5808
 8045SOL     OW25555   2.421   7.352   4.770 -0.0703 -0.0695  0.3521
 8045SOL    HW125556   2.334   7.351   4.812  0.3044 -0.6536  1.1411
 8045SOL    HW225557   2.414   7.421   4.704 -1.1100 -0.0429  0.4609
 8046SOL     OW25558   7.759   1.914   2.552 -1.2652 -0.8454  0.1074
 8046SOL    HW125559   7.831   1.893   2.494 -2.3649 -3.2221 -0.5006
 8046SOL    HW225560   7.698   1.964   2.498 -0.5811  0.2605  0.3327
 8047SOL     OW25561   6.299   2.687   5.033  0.0997 -0.1897  0.1286
 8047SOL    HW125562   6.357   2.726   5.098  1.9156 -0.7552 -1.0670
 8047SOL    HW225563   6.291   2.595   5.060 -3.1371  0.5279  2.2174
 8048SOL     OW25564   4.571   4.143   3.592 -0.3590 -0.2423 -0.1238
 8048SOL    HW125565   4.531   4.198   3.524  1.9318 -0.2451 -1.6031
 8048SOL    HW225566   4.508   4.071   3.604 -0.7776 -0.3658 -2.4543
 8049SOL     OW25567   4.154   8.761   6.810  0.3356  0.0961 -0.5164
 8049SOL    HW125568   4.189   8.783   6.723  0.3967  2.8820  0.1209
 8049SOL    HW225569   4.217   8.800   6.871 -0.6145 -0.3165  0.7580
 8050SOL     OW25570   5.365   4.997   7.709 -0.6077 -0.0131 -0.2146
 8050SOL    HW125571   5.425   4.943   7.657 -0.2108  2.7651 -2.8455
 8050SOL    HW225572   5.301   5.030   7.647 -2.9617 -0.1671  1.9538
 8051SOL     OW25573   4.351   1.207   3.487  0.6064 -0.3171  0.0436
 8051SOL    HW125574   4.353   1.221   3.393  2.5300 -0.6136 -0.0128
 8051SOL    HW225575   4.293   1.275   3.521  0.9487  0.6515 -1.2328
 8052SOL     OW25576   2.478   7.350   7.353 -0.4523 -0.4918 -0.4059
 8052SOL    HW125577   2.480   7.381   7.262  0.6298  0.5776 -0.0511
 8052SOL    HW225578   2.499   7.428   7.405 -0.3810 -1.2376  0.7123
 8053SOL     OW25579   2.263   8.405   8.812 -0.4965 -0.1130 -0.4691
 8053SOL    HW125580   2.350   8.371   8.796 -0.6017 -0.5870 -0.0604
 8053SOL    HW225581   2.261   8.490   8.768  1.0614  1.1396  1.6795
 8054SOL     OW25582   6.598   1.520   2.629 -0.0204  0.1413 -0.2062
 8054SOL    HW125583   6.518   1.479   2.660  1.2107 -1.2087  1.2826
 8054SOL    HW225584   6.663   1.504   2.697  2.1315 -0.7263 -2.2845
 8055SOL     OW25585   4.607   2.453   4.641  0.0395  0.0469 -0.1400
 8055SOL    HW125586   4.626   2.422   4.552  0.1019 -0.2090 -0.0389
 8055SOL    HW225587   4.558   2.534   4.629  2.5485  1.6157 -0.4494
 8056SOL     OW25588   0.479   8.300   5.256  0.5358  0.3829 -0.0271
 8056SOL    HW125589   0.407   8.360   5.239 -0.5675 -0.6863  0.7224
 8056SOL    HW225590   0.517   8.283   5.170 -1.1533 -0.3009 -0.6721
 8057SOL     OW25591   1.984   6.899   8.529  0.1994 -0.7689 -0.0057
 8057SOL    HW125592   2.024   6.919   8.613 -1.4733  1.1348  0.4036
 8057SOL    HW225593   1.996   6.979   8.477 -0.2709 -1.3098 -0.9752
 8058SOL     OW25594   5.917   3.728   6.701 -0.3858 -0.0208 -0.2947
 8058SOL    HW125595   5.836   3.775   6.719 -1.0025 -1.0994 -0.1589
 8058SOL    HW225596   5.890   3.654   6.647  0.4210 -0.6994  0.2119
 8059SOL     OW25597   5.449   3.064   0.665 -0.3904  0.3682  0.6265
 8059SOL    HW125598   5.523   3.096   0.717  0.0600 -0.1540  0.3167
 8059SOL    HW225599   5.432   2.976   0.699 -0.0008 -0.0323 -0.1956
 8060SOL     OW25600   3.793   8.078   1.281 -0.2431 -1.0060  0.2564
 8060SOL    HW125601   3.709   8.033   1.288 -1.7756  1.4867 -0.6054
 8060SOL    HW225602   3.785   8.153   1.341  1.2466 -0.5632 -0.0577
 8061SOL     OW25603   6.642   2.638   7.017  0.2559 -0.7467  0.0482
 8061SOL    HW125604   6.586   2.685   7.079  0.9291  0.4175 -0.1918
 8061SOL    HW225605   6.583   2.617   6.944  0.4862  2.5013 -1.2740
 8062SOL     OW25606   8.040   2.804   7.795  0.1231 -0.3788 -0.2022
 8062SOL    HW125607   8.074   2.714   7.786  0.2137 -0.4665  0.8447
 8062SOL    HW225608   7.975   2.797   7.865 -0.1454  0.3011 -0.3868
 8063SOL     OW25609   6.249   1.091   6.046  1.1241 -0.3352 -0.7365
 8063SOL    HW125610   6.258   1.168   5.990  1.4421 -1.0720 -1.7267
 8063SOL    HW225611   6.298   1.112   6.125 -0.9348  1.5192  0.1609
 8064SOL     OW25612   1.179   1.948   8.639  0.0345  0.4459  0.5374
 8064SOL    HW125613   1.223   1.930   8.556  1.0978  0.9641  0.9685
 8064SOL    HW225614   1.115   2.016   8.618 -0.2250  0.0351 -0.0037
 8065SOL     OW25615   1.241   8.046   7.776 -0.1692  0.3534  0.0304
 8065SOL    HW125616   1.242   8.043   7.871  0.3441 -1.6639  0.0088
 8065SOL    HW225617   1.259   7.956   7.749 -1.5320  0.6023 -1.9649
 8066SOL     OW25618   4.885   1.772   7.621  0.1947  0.5786  0.0294
 8066SOL    HW125619   4.830   1.849   7.612 -0.3648  0.1699 -0.1147
 8066SOL    HW225620   4.867   1.720   7.542 -1.3974 -0.9251  1.3078
 8067SOL     OW25621   8.897   5.131   3.789 -0.1750 -0.1734 -0.2470
 8067SOL    HW125622   8.805   5.110   3.777  0.0670 -1.5884  0.2424
 8067SOL    HW225623   8.905   5.156   3.881 -0.4849  2.4187 -0.8396
 8068SOL     OW25624   8.318   3.369   1.379 -0.1385  0.3032  0.2775
 8068SOL    HW125625   8.248   3.401   1.437  0.2275 -1.5110  1.8343
 8068SOL    HW225626   8.274   3.308   1.320 -0.0910  0.1379  0.4114
 8069SOL     OW25627   1.881   7.992   8.651 -0.1057 -0.3960  0.0207
 8069SOL    HW125628   1.947   7.937   8.694  2.3234  1.7099 -0.7420
 8069SOL    HW225629   1.826   8.024   8.723 -0.0496 -1.8650  0.7481
 8070SOL     OW25630   3.741   4.500   3.192  0.0902 -0.3000 -0.1262
 8070SOL    HW125631   3.674   4.435   3.215 -0.4976  0.3360 -0.0282
 8070SOL    HW225632   3.779   4.526   3.276 -2.3553  2.3475  0.3118
 8071SOL     OW25633   2.495   8.188   5.546 -0.0605  0.3015 -0.5084
 8071SOL    HW125634   2.482   8.240   5.466 -0.4319  0.2425 -0.4862
 8071SOL    HW225635   2.590   8.184   5.556 -0.0218  1.0471 -0.4717
 8072SOL     OW25636   2.761   3.169   7.312 -0.1090 -0.3976  0.5190
 8072SOL    HW125637   2.752   3.091   7.258  0.3933 -0.3095  0.2996
 8072SOL    HW225638   2.854   3.190   7.309 -0.3415  0.6348 -0.0359
 8073SOL     OW25639   1.245   6.987   8.306 -0.3390 -0.0712  0.6221
 8073SOL    HW125640   1.230   6.897   8.276 -0.3076  0.4642 -1.1037
 8073SOL    HW225641   1.168   7.035   8.276  0.1795  0.7145  0.5244
 8074SOL     OW25642   7.703   2.964   2.142  0.0429  0.7304 -0.3577
 8074SOL    HW125643   7.649   2.981   2.220  1.2961  0.3081  0.6408
 8074SOL    HW225644   7.787   3.006   2.161  0.0255  1.5714 -1.9830
 8075SOL     OW25645   6.715   5.580   7.341 -0.3124 -0.2416 -0.0631
 8075SOL    HW125646   6.645   5.579   7.406  0.6281  1.9947  1.1079
 8075SOL    HW225647   6.682   5.638   7.272  0.0692  0.2577  0.1620
 8076SOL     OW25648   7.772   3.922   1.658  0.0222 -0.1970  0.0261
 8076SOL    HW125649   7.865   3.898   1.664  0.3210  0.8384 -0.2557
 8076SOL    HW225650   7.759   3.942   1.565 -0.2260  0.6568  0.2425
 8077SOL     OW25651   2.882   8.481   2.925 -0.6003  0.4393 -0.7420
 8077SOL    HW125652   2.881   8.391   2.894  0.1080  0.3755 -0.6000
 8077SOL    HW225653   2.872   8.474   3.020  1.8413  0.3292 -0.4172
 8078SOL     OW25654   8.526   8.587   6.663  0.5051 -0.2108 -0.7285
 8078SOL    HW125655   8.547   8.509   6.716  0.7415 -0.4262 -1.1364
 8078SOL    HW225656   8.517   8.553   6.574  1.8614  0.4223 -1.1233
 8079SOL     OW25657   9.159   4.582   7.793 -0.4415 -0.3260 -0.5749
 8079SOL    HW125658   9.108   4.559   7.715 -1.0842  3.1276 -1.3267
 8079SOL    HW225659   9.242   4.614   7.758 -0.2940  0.1838  0.2280
 8080SOL     OW25660   0.922   4.187   2.138  0.6584 -0.5247 -0.1124
 8080SOL    HW125661   0.929   4.223   2.227  1.5433 -1.3111  0.1456
 8080SOL    HW225662   0.857   4.243   2.095  0.2339 -0.1137  1.0183
 8081SOL     OW25663   2.838   0.446   4.626  0.0236  0.1810  0.1356
 8081SOL    HW125664   2.928   0.479   4.617 -0.3403  1.6191  1.3022
 8081SOL    HW225665   2.842   0.387   4.701 -0.3277  1.7008  1.4041
 8082SOL     OW25666   0.572   2.762   0.655  0.3443 -0.0699  1.1938
 8082SOL    HW125667   0.569   2.673   0.620  1.0231  1.1261 -2.2908
 8082SOL    HW225668   0.487   2.773   0.698 -0.1893 -2.0436  0.7568
 8083SOL     OW25669   0.150   4.243   8.078 -0.4357  0.5407  0.3295
 8083SOL    HW125670   0.069   4.277   8.040 -0.3550 -0.3621 -0.6938
 8083SOL    HW225671   0.127   4.223   8.169 -1.5054 -0.1363 -0.0724
 8084SOL     OW25672   6.767   5.478   0.018  0.7247 -0.2304  0.6311
 8084SOL    HW125673   6.732   5.525   0.094 -0.0302  0.5768 -0.1929
 8084SOL    HW225674   6.856   5.512   0.008  0.5154  0.3197  0.6163
 8085SOL     OW25675   7.719   5.563   7.137  0.3157  0.2319  0.1715
 8085SOL    HW125676   7.662   5.635   7.165 -0.0007  0.8035 -1.8090
 8085SOL    HW225677   7.695   5.547   7.046  1.1923 -1.6254  0.2171
 8086SOL     OW25678   2.307   6.350   6.223  0.6324  0.6866 -0.5132
 8086SOL    HW125679   2.321   6.281   6.158  1.2071  0.9476 -0.6683
 8086SOL    HW225680   2.359   6.424   6.191 -0.1816  1.2836 -0.4864
 8087SOL     OW25681   0.473   7.960   9.254  0.3495 -0.1852  0.1677
 8087SOL    HW125682   0.493   8.041   9.208 -1.4307  0.7530  0.9428
 8087SOL    HW225683   0.492   7.979   9.345 -1.6878 -0.0057  0.6021
 8088SOL     OW25684   7.535   3.013   7.602 -0.0771  0.2628  0.2873
 8088SOL    HW125685   7.606   3.070   7.634 -0.3758 -0.3802  2.2133
 8088SOL    HW225686   7.579   2.951   7.543  0.6313  1.0356 -0.0128
 8089SOL     OW25687   6.816   8.036   6.055 -0.7591  1.3888 -0.4126
 8089SOL    HW125688   6.756   8.051   6.127 -2.1653 -0.8791 -0.9904
 8089SOL    HW225689   6.793   8.102   5.990 -0.5909  2.4045  0.5304
 8090SOL     OW25690   1.688   3.449   7.110  0.3027 -0.0479  0.1334
 8090SOL    HW125691   1.671   3.515   7.177  0.6905  1.2437 -1.0096
 8090SOL    HW225692   1.676   3.495   7.027  0.7267 -1.3787 -0.6939
 8091SOL     OW25693   5.858   3.901   8.743 -0.3157 -0.4638 -0.1494
 8091SOL    HW125694   5.781   3.927   8.794  0.5722  1.1911  0.4353
 8091SOL    HW225695   5.924   3.880   8.809  0.2074 -0.3423 -0.6332
 8092SOL     OW25696   1.231   1.141   2.036 -0.3934  0.9235  0.2239
 8092SOL    HW125697   1.259   1.055   2.066  0.9725  1.3172  0.1230
 8092SOL    HW225698   1.178   1.124   1.959  0.3938  0.1979 -0.1693
 8093SOL     OW25699   3.997   3.253   6.967 -0.0155  0.2932 -0.3992
 8093SOL    HW125700   4.046   3.277   7.046  0.7801  2.6768 -1.5222
 8093SOL    HW225701   4.006   3.158   6.962  0.3052  0.1123  2.0919
 8094SOL     OW25702   0.713   1.883   5.861 -0.0445 -0.0367  0.1099
 8094SOL    HW125703   0.663   1.937   5.801 -0.6576 -0.5235  0.1726
 8094SOL    HW225704   0.802   1.918   5.858  0.4402 -1.2528 -2.5682
 8095SOL     OW25705   6.289   2.833   8.242  0.4688  0.2242  0.8186
 8095SOL    HW125706   6.263   2.823   8.151 -0.1228  0.2582  0.9802
 8095SOL    HW225707   6.230   2.774   8.290 -0.6132  1.7093  1.4042
 8096SOL     OW25708   2.295   1.096   1.157 -0.1120  0.2423  0.0813
 8096SOL    HW125709   2.263   1.021   1.107 -1.7400  0.9119  0.0643
 8096SOL    HW225710   2.229   1.111   1.225 -0.1687  2.0459 -0.3104
 8097SOL     OW25711   8.409   2.980   7.742  0.1079  0.3951 -0.3935
 8097SOL    HW125712   8.341   2.962   7.677 -1.5637  1.1554  1.0706
 8097SOL    HW225713   8.371   2.953   7.825  1.4979  1.0926  0.5084
 8098SOL     OW25714   7.907   9.087   3.064  0.5541 -0.2952  0.1087
 8098SOL    HW125715   7.946   9.175   3.059  0.4731 -0.1714  1.4028
 8098SOL    HW225716   7.959   9.041   3.130 -1.1104 -0.3058  1.4871
 8099SOL     OW25717   2.060   4.319   7.791 -0.7837  0.0830  0.1772
 8099SOL    HW125718   2.037   4.411   7.781 -0.1612  0.1665 -0.5459
 8099SOL    HW225719   2.033   4.297   7.880 -3.1756  0.3027 -0.4272
 8100SOL     OW25720   1.126   0.676   1.973  0.5579  0.5281  0.7347
 8100SOL    HW125721   1.156   0.589   1.948 -0.7913  0.7431 -1.9960
 8100SOL    HW225722   1.053   0.660   2.033  0.9148 -0.1805  0.9829
 8101SOL     OW25723   6.269   4.612   1.980 -0.5345  0.1662  0.2267
 8101SOL    HW125724   6.347   4.661   1.953  0.5992 -1.0413  1.1929
 8101SOL    HW225725   6.281   4.525   1.942 -1.7410  0.1251 -0.1239
 8102SOL     OW25726   1.838   6.632   0.864  0.1543 -0.2112  0.6593
 8102SOL    HW125727   1.897   6.703   0.889  0.6548 -0.7011  0.9173
 8102SOL    HW225728   1.891   6.553   0.874 -1.2903 -0.9539  3.4636
 8103SOL     OW25729   8.826   5.575   5.112  0.4112  0.4472  0.4457
 8103SOL    HW125730   8.883   5.592   5.188 -0.0449 -0.0114  0.8936
 8103SOL    HW225731   8.854   5.489   5.081 -0.9060 -0.3841  1.4731
 8104SOL     OW25732   6.658   9.259   8.584  0.3124  0.1367  0.3076
 8104SOL    HW125733   6.614   9.226   8.662  0.2178 -1.3071 -0.3403
 8104SOL    HW225734   6.681   9.181   8.534 -1.0973  1.0499 -1.9201
 8105SOL     OW25735   1.276   2.985   8.482  0.3177  0.1075 -0.1862
 8105SOL    HW125736   1.283   3.073   8.519 -0.9053  0.1436  0.0243
 8105SOL    HW225737   1.246   3.000   8.392 -0.0241 -0.0922 -0.1073
 8106SOL     OW25738   3.178   4.831   0.609  0.2335  0.1654  0.2433
 8106SOL    HW125739   3.229   4.835   0.528  0.2918  1.0885  0.3094
 8106SOL    HW225740   3.206   4.908   0.658 -0.0760 -0.1849  0.9794
 8107SOL     OW25741   3.743   6.939   7.905 -0.1542 -0.4279 -0.1629
 8107SOL    HW125742   3.747   6.844   7.891 -3.2054 -0.9177  1.5091
 8107SOL    HW225743   3.754   6.950   7.999 -1.3792  0.7307 -0.1254
 8108SOL     OW25744   2.050   4.863   4.931 -0.4247  0.2695 -0.0343
 8108SOL    HW125745   1.980   4.808   4.967 -0.8939 -0.4126 -1.8585
 8108SOL    HW225746   2.004   4.924   4.873  0.3917  0.6689 -0.2735
 8109SOL     OW25747   7.598   4.524   7.468  0.0864  0.3890 -0.3019
 8109SOL    HW125748   7.575   4.590   7.533  0.0283  0.0375  0.0426
 8109SOL    HW225749   7.547   4.447   7.494 -0.1068  0.3144 -0.8983
 8110SOL     OW25750   6.261   7.326   8.437  0.2356 -0.1638 -0.5308
 8110SOL    HW125751   6.274   7.266   8.510 -2.3570  0.7599  0.7999
 8110SOL    HW225752   6.208   7.276   8.375  0.7438 -0.2754 -0.8815
 8111SOL     OW25753   1.541   2.312   8.589 -0.8709 -0.2491  0.9256
 8111SOL    HW125754   1.519   2.350   8.674  0.7391  0.3975  1.0968
 8111SOL    HW225755   1.597   2.237   8.610 -0.1092  0.1740  0.4453
 8112SOL     OW25756   3.419   2.953   6.229  0.2096 -0.1570  0.2573
 8112SOL    HW125757   3.373   3.006   6.294 -0.0696  1.5018 -1.2150
 8112SOL    HW225758   3.503   2.933   6.270 -0.5288 -0.4311  1.6979
 8113SOL     OW25759   8.557   8.320   5.163  0.2072  0.2105 -0.6895
 8113SOL    HW125760   8.628   8.270   5.123 -0.1136  0.8682 -2.1081
 8113SOL    HW225761   8.596   8.404   5.186  0.5113 -0.3152  0.8778
 8114SOL     OW25762   1.816   6.078   3.504 -0.1268 -0.0215  0.2003
 8114SOL    HW125763   1.767   5.999   3.527  1.0979 -1.0937 -0.7749
 8114SOL    HW225764   1.759   6.125   3.443 -0.8435 -0.1501  0.7572
 8115SOL     OW25765   1.855   4.743   2.221 -0.6595 -0.4092  0.1727
 8115SOL    HW125766   1.776   4.795   2.234  0.0409  0.3681  1.5398
 8115SOL    HW225767   1.920   4.806   2.188 -0.2732 -0.7859  0.2033
 8116SOL     OW25768   1.347   0.881   3.776  0.3626 -0.2475 -0.1983
 8116SOL    HW125769   1.315   0.931   3.850 -0.7954  0.1125 -0.9163
 8116SOL    HW225770   1.274   0.879   3.714  0.7133 -1.9942 -0.6110
 8117SOL     OW25771   4.290   8.871   0.212 -0.7439  0.3510 -0.2675
 8117SOL    HW125772   4.302   8.945   0.271 -0.8354 -0.4486  0.7950
 8117SOL    HW225773   4.263   8.910   0.129 -0.5726  1.5128  0.2049
 8118SOL     OW25774   4.737   5.745   4.209 -0.4476  0.0558 -0.6286
 8118SOL    HW125775   4.735   5.806   4.282 -0.9545 -0.5050 -0.1577
 8118SOL    HW225776   4.816   5.693   4.223  0.6353  1.3542 -1.6821
 8119SOL     OW25777   2.763   7.887   0.174  0.0885 -0.2145 -0.3931
 8119SOL    HW125778   2.783   7.801   0.136 -0.5335 -0.3598 -0.4046
 8119SOL    HW225779   2.686   7.872   0.229  1.2631 -0.1163  1.3565
 8120SOL     OW25780   4.706   6.847   2.713 -0.0639  0.2542  0.4951
 8120SOL    HW125781   4.627   6.893   2.685  0.8049  1.7002  0.2954
 8120SOL    HW225782   4.740   6.807   2.633 -0.7928 -0.7073  0.6568
 8121SOL     OW25783   1.796   5.226   3.982  0.3201  0.1768  0.5485
 8121SOL    HW125784   1.746   5.218   3.901  1.9254  0.5625 -0.5215
 8121SOL    HW225785   1.768   5.310   4.019  1.8674  1.6243 -1.3184
 8122SOL     OW25786   0.112   0.365   9.099 -0.7108  0.4042  0.0516
 8122SOL    HW125787   0.075   0.300   9.159 -0.2769  0.0033 -0.1031
 8122SOL    HW225788   0.152   0.313   9.029  1.4142  0.7294  0.9350
 8123SOL     OW25789   8.514   5.173   0.221 -0.0463  0.1802 -0.0226
 8123SOL    HW125790   8.450   5.219   0.275 -1.1051 -0.4229 -0.7365
 8123SOL    HW225791   8.548   5.104   0.278  1.5029  1.7303  1.0358
 8124SOL     OW25792   4.415   8.820   5.918  0.1736 -0.1478 -0.5676
 8124SOL    HW125793   4.508   8.803   5.930  0.2768 -0.0845 -1.2248
 8124SOL    HW225794   4.386   8.756   5.853 -0.3323 -0.4263 -0.0782
 8125SOL     OW25795   4.308   4.575   8.652  0.4825 -0.4058  0.2437
 8125SOL    HW125796   4.340   4.604   8.566  2.6140  0.1662  1.1415
 8125SOL    HW225797   4.386   4.580   8.708 -1.4037  2.0358  2.9185
 8126SOL     OW25798   5.727   0.481   5.717  0.5652  0.8558 -0.0325
 8126SOL    HW125799   5.760   0.433   5.793 -0.4801 -0.4092 -0.3446
 8126SOL    HW225800   5.793   0.467   5.649 -0.5551 -1.7999 -0.7069
 8127SOL     OW25801   0.697   4.175   1.666 -0.4375  0.4870 -0.1383
 8127SOL    HW125802   0.611   4.162   1.626 -1.2574  1.5404  1.1816
 8127SOL    HW225803   0.705   4.270   1.676  0.1294  0.3235  1.3010
 8128SOL     OW25804   4.679   8.805   2.749 -0.0029  0.3769 -0.6236
 8128SOL    HW125805   4.616   8.737   2.774 -0.0544  0.5436 -0.2996
 8128SOL    HW225806   4.699   8.851   2.830 -0.1218  0.8808 -0.8755
 8129SOL     OW25807   3.228   0.291   4.419 -0.3175  0.0713 -0.1697
 8129SOL    HW125808   3.253   0.382   4.408 -4.0783  1.4543  1.2156
 8129SOL    HW225809   3.296   0.254   4.476  1.1173  2.0447 -0.5165
 8130SOL     OW25810   2.446   3.542   7.520 -0.1349  0.0511 -0.0670
 8130SOL    HW125811   2.522   3.599   7.525 -0.8182  0.8482  1.8757
 8130SOL    HW225812   2.414   3.535   7.610 -1.6771 -1.2122 -0.6595
 8131SOL     OW25813   4.650   8.997   2.307 -0.2974 -0.9993 -0.0442
 8131SOL    HW125814   4.616   9.001   2.396  1.6687  0.7317  0.6974
 8131SOL    HW225815   4.604   9.066   2.259  2.3255  1.8098  1.1314
 8132SOL     OW25816   9.255   7.953   4.093  0.0061 -0.0544  0.3248
 8132SOL    HW125817   9.205   7.874   4.116 -0.0053  0.3329  1.7001
 8132SOL    HW225818   9.188   8.020   4.078  0.0760  0.2060  1.1656
 8133SOL     OW25819   1.862   3.513   5.795  0.1805 -0.3549 -0.7715
 8133SOL    HW125820   1.889   3.569   5.867 -0.1198 -0.7559 -0.3411
 8133SOL    HW225821   1.876   3.424   5.827 -2.8377 -0.6537  0.0133
 8134SOL     OW25822   4.261   9.091   8.959  0.3101  0.0857 -0.2615
 8134SOL    HW125823   4.315   9.153   9.008  1.2315 -0.9133  0.0060
 8134SOL    HW225824   4.322   9.048   8.899 -0.5291  0.2311 -1.2491
 8135SOL     OW25825   7.166   1.233   4.140  0.0631  0.1015  0.2957
 8135SOL    HW125826   7.097   1.167   4.128 -1.9088  1.4732  3.1148
 8135SOL    HW225827   7.234   1.187   4.190  0.1456 -0.5932 -0.4257
 8136SOL     OW25828   8.995   6.936   4.736  0.2176 -0.3690  0.0367
 8136SOL    HW125829   9.033   6.973   4.656  0.1838 -1.2679 -0.4199
 8136SOL    HW225830   8.906   6.912   4.711  0.2188 -0.6879  0.3260
 8137SOL     OW25831   0.370   5.402   8.139 -0.2805  0.2595  0.1658
 8137SOL    HW125832   0.382   5.314   8.103 -0.8736  0.1571  0.2079
 8137SOL    HW225833   0.289   5.433   8.098 -0.1500  0.7295  0.2618
 8138SOL     OW25834   4.908   6.035   1.441  0.5400  0.1715 -0.2161
 8138SOL    HW125835   4.925   5.955   1.490  0.3986 -0.2350 -0.8197
 8138SOL    HW225836   4.982   6.093   1.463  2.5228 -1.3485 -2.3184
 8139SOL     OW25837   0.231   8.544   8.365 -0.1238 -0.0717 -0.4788
 8139SOL    HW125838   0.285   8.622   8.347  0.3424 -0.2150  0.2313
 8139SOL    HW225839   0.205   8.555   8.456  0.9192 -1.3160 -0.0055
 8140SOL     OW25840   3.767   3.531   4.995 -0.3814  0.7255  0.1351
 8140SOL    HW125841   3.676   3.554   4.975 -0.3088  1.2450  0.3856
 8140SOL    HW225842   3.796   3.480   4.919 -0.9673  0.3034  0.1807
 8141SOL     OW25843   4.325   7.819   0.084 -0.4395 -0.4098 -0.2121
 8141SOL    HW125844   4.342   7.734   0.122 -1.2831 -0.4146  0.1788
 8141SOL    HW225845   4.355   7.882   0.149  0.6630 -0.3930 -0.7183
 8142SOL     OW25846   6.696   8.542   8.461 -0.3636 -0.0106 -0.0214
 8142SOL    HW125847   6.682   8.579   8.374  0.0543  1.4313  0.4939
 8142SOL    HW225848   6.784   8.504   8.458  0.5314  1.8933  0.3354
 8143SOL     OW25849   1.741   4.947   2.868  0.2876 -0.1470  0.1154
 8143SOL    HW125850   1.741   4.852   2.877  0.3186 -0.3181 -1.3171
 8143SOL    HW225851   1.697   4.962   2.784  0.0523  1.1218  0.4421
 8144SOL     OW25852   2.162   7.625   1.475 -0.5934  0.1230 -0.5543
 8144SOL    HW125853   2.188   7.561   1.541 -1.2900 -0.3214 -0.6987
 8144SOL    HW225854   2.241   7.642   1.425 -0.7675 -2.0164 -1.6763
 8145SOL     OW25855   2.498   2.114   3.250  0.0336 -0.2462  0.4705
 8145SOL    HW125856   2.590   2.136   3.233 -0.0919 -0.8672 -1.3398
 8145SOL    HW225857   2.451   2.197   3.241  0.5420  0.3799  2.9710
 8146SOL     OW25858   6.188   3.797   1.167  0.0658 -1.1213  0.5897
 8146SOL    HW125859   6.100   3.798   1.129 -0.1290 -1.5725  1.0141
 8146SOL    HW225860   6.247   3.795   1.092 -0.1779  1.8788  0.1801
 8147SOL     OW25861   6.138   1.241   7.661 -0.0401 -0.2420 -0.4776
 8147SOL    HW125862   6.043   1.239   7.649 -0.0833 -0.3403 -0.1197
 8147SOL    HW225863   6.165   1.150   7.648 -0.0281 -0.2633 -0.3002
 8148SOL     OW25864   2.681   2.136   1.815 -0.1313  0.3260  0.1140
 8148SOL    HW125865   2.699   2.116   1.907 -2.3486  0.3369  0.6125
 8148SOL    HW225866   2.643   2.225   1.817 -0.5965  0.1582 -0.7362
 8149SOL     OW25867   3.971   6.193   2.045 -0.3045  0.4085 -0.0577
 8149SOL    HW125868   4.066   6.184   2.044 -0.2760  0.6890 -1.2394
 8149SOL    HW225869   3.953   6.255   2.115  0.2454 -0.8398  1.2425
 8150SOL     OW25870   5.171   4.528   6.579 -0.0098  0.0444  0.1562
 8150SOL    HW125871   5.179   4.595   6.512 -0.7776  0.3258  0.3361
 8150SOL    HW225872   5.258   4.489   6.584  0.4855  1.1049  0.1378
 8151SOL     OW25873   1.323   5.805   4.352  0.0557  0.2304 -0.1500
 8151SOL    HW125874   1.347   5.784   4.442 -0.0286 -1.0847 -0.4175
 8151SOL    HW225875   1.230   5.782   4.346 -0.3493  1.7192 -0.1831
 8152SOL     OW25876   0.567   0.158   4.195 -0.5755 -0.1706 -0.4248
 8152SOL    HW125877   0.556   0.067   4.167 -1.2540  0.2432 -1.5728
 8152SOL    HW225878   0.482   0.183   4.230 -0.2419 -0.1244  0.3720
 8153SOL     OW25879   2.806   0.410   4.328 -0.0084  0.1363 -0.2126
 8153SOL    HW125880   2.813   0.385   4.420  0.7911  0.9200 -0.0411
 8153SOL    HW225881   2.715   0.437   4.317  0.2349  1.4128  0.7335
 8154SOL     OW25882   0.821   4.129   3.237 -0.0746 -0.3065 -0.0971
 8154SOL    HW125883   0.732   4.156   3.211  0.0290  0.1227 -0.0121
 8154SOL    HW225884   0.821   4.135   3.332 -0.6008 -2.3368  0.0699
 8155SOL     OW25885   0.249   1.737   3.597  0.1031  0.5384  0.7152
 8155SOL    HW125886   0.238   1.666   3.535  0.8096  1.7306 -0.8388
 8155SOL    HW225887   0.200   1.709   3.675  2.3795 -2.7530  1.1677
 8156SOL     OW25888   2.502   8.790   6.621  0.6849 -0.2103  0.1314
 8156SOL    HW125889   2.476   8.863   6.676 -0.7512 -0.8994  0.4209
 8156SOL    HW225890   2.470   8.712   6.667 -0.5145 -0.8263 -1.5888
 8157SOL     OW25891   5.165   3.590   1.310  0.0787 -0.0285  0.2513
 8157SOL    HW125892   5.089   3.647   1.317  0.4515  0.6916 -1.2506
 8157SOL    HW225893   5.178   3.577   1.216  1.7541 -0.2113  0.4681
 8158SOL     OW25894   3.871   4.274   6.798  0.0225 -0.5609  0.6001
 8158SOL    HW125895   3.812   4.290   6.872 -0.1824 -0.5993  0.4432
 8158SOL    HW225896   3.957   4.300   6.831 -0.1904  0.1945  0.5862
 8159SOL     OW25897   3.640   8.601   7.884  0.3590 -0.3912  0.2694
 8159SOL    HW125898   3.627   8.570   7.794 -1.1024  0.8612  0.0131
 8159SOL    HW225899   3.652   8.695   7.875  1.9859 -0.4863  1.2621
 8160SOL     OW25900   3.803   3.643   9.238 -0.0949  0.3373  0.7565
 8160SOL    HW125901   3.840   3.622   9.324  0.6204  0.9770  0.6132
 8160SOL    HW225902   3.748   3.720   9.254 -0.0893  0.3604  0.6599
 8161SOL     OW25903   3.682   8.263   1.044  0.0900 -0.5631 -0.8556
 8161SOL    HW125904   3.676   8.181   1.093  0.5141 -0.8598 -1.2827
 8161SOL    HW225905   3.688   8.331   1.111 -0.6302 -0.8454 -0.4950
 8162SOL     OW25906   5.329   0.155   6.422  0.0508 -0.4154 -0.6751
 8162SOL    HW125907   5.407   0.168   6.476 -0.5174  0.3208 -0.0011
 8162SOL    HW225908   5.281   0.237   6.429 -0.0097 -0.2867 -2.3930
 8163SOL     OW25909   4.268   6.979   7.553  0.1312  0.0576 -0.1840
 8163SOL    HW125910   4.303   6.964   7.641  0.5577  2.7142  0.1725
 8163SOL    HW225911   4.341   6.957   7.494 -0.4460 -2.6531 -0.0498
 8164SOL     OW25912   2.600   5.350   2.453 -0.3074  0.7641 -0.2153
 8164SOL    HW125913   2.538   5.369   2.523 -0.8309 -0.7997 -0.2138
 8164SOL    HW225914   2.653   5.429   2.446 -3.1850  2.7710 -1.2069
 8165SOL     OW25915   0.958   9.170   1.721 -0.7783 -0.2514 -0.3431
 8165SOL    HW125916   1.051   9.152   1.734 -0.6970  0.0836 -0.4266
 8165SOL    HW225917   0.929   9.211   1.803 -0.6619  0.3521 -0.5945
 8166SOL     OW25918   5.643   8.889   8.299  0.0511 -0.6595  0.1328
 8166SOL    HW125919   5.593   8.957   8.345 -2.0933 -0.8944 -1.6748
 8166SOL    HW225920   5.590   8.810   8.309  0.3101 -1.0513 -1.4178
 8167SOL     OW25921   0.902   7.178   8.594  0.0420  0.2878 -0.5513
 8167SOL    HW125922   0.857   7.201   8.512 -1.1762  0.0973  0.0362
 8167SOL    HW225923   0.855   7.101   8.625 -0.0863  0.8789  0.7735
 8168SOL     OW25924   0.548   2.834   7.019 -0.3078  0.2213 -0.4146
 8168SOL    HW125925   0.531   2.755   6.968 -1.2939 -0.2877  0.6658
 8168SOL    HW225926   0.603   2.888   6.962 -0.4139 -0.8254 -1.5423
 8169SOL     OW25927   5.637   8.322   1.064 -0.0085 -0.4233 -0.1670
 8169SOL    HW125928   5.708   8.375   1.029 -1.0469  0.6641 -0.6591
 8169SOL    HW225929   5.630   8.248   1.004  1.4157 -1.1561  0.5025
 8170SOL     OW25930   6.103   5.767   1.868 -0.3549  0.1760 -0.1687
 8170SOL    HW125931   6.021   5.723   1.890  0.8220 -2.3435 -0.4742
 8170SOL    HW225932   6.123   5.736   1.779  1.9212 -0.9167  0.6653
 8171SOL     OW25933   6.484   5.587   3.165 -0.2799 -0.1558  0.1158
 8171SOL    HW125934   6.553   5.585   3.231  0.5962 -0.2247 -0.7742
 8171SOL    HW225935   6.515   5.529   3.095 -0.6905  0.7138 -0.8216
 8172SOL     OW25936   8.151   9.177   0.763  0.5580 -0.8129  0.0871
 8172SOL    HW125937   8.233   9.222   0.743 -0.1061  0.9711  1.0710
 8172SOL    HW225938   8.162   9.089   0.727  2.5340 -0.3465 -0.5947
 8173SOL     OW25939   0.601   2.184   1.099 -0.3266 -1.0408 -0.0164
 8173SOL    HW125940   0.508   2.197   1.116  0.1652  0.0669  2.1186
 8173SOL    HW225941   0.614   2.090   1.113 -0.6577 -0.7824  2.5624
 8174SOL     OW25942   1.961   5.374   4.952 -0.0570  0.2099 -0.4878
 8174SOL    HW125943   1.914   5.334   5.025 -1.9565  1.6159 -0.8720
 8174SOL    HW225944   1.969   5.466   4.975 -1.1651  0.8046 -2.2239
 8175SOL     OW25945   7.629   8.080   3.632 -0.3949  0.8834  0.2568
 8175SOL    HW125946   7.670   8.154   3.678  0.3230  1.0656 -0.6415
 8175SOL    HW225947   7.702   8.039   3.584 -0.9272  0.0469  0.1564
 8176SOL     OW25948   5.055   8.854   8.433  0.1509  0.3421 -0.7795
 8176SOL    HW125949   5.065   8.841   8.339  0.2697 -0.9071 -0.6128
 8176SOL    HW225950   5.096   8.777   8.472 -2.7145 -0.8602  0.1846
 8177SOL     OW25951   8.675   2.220   8.345  0.1089 -0.1727 -0.1104
 8177SOL    HW125952   8.663   2.170   8.426  0.8939 -0.8444 -0.3996
 8177SOL    HW225953   8.766   2.249   8.347  0.3247 -0.7287 -1.0399
 8178SOL     OW25954   6.141   8.565   8.405 -0.3339  0.0691  0.3168
 8178SOL    HW125955   6.200   8.562   8.481 -1.1523  0.1784  0.9757
 8178SOL    HW225956   6.166   8.490   8.352 -0.4572 -0.6509  1.2453
 8179SOL     OW25957   2.015   3.274   3.570  0.2820  0.5294  0.3390
 8179SOL    HW125958   1.953   3.205   3.546  3.4017 -2.3250 -0.1845
 8179SOL    HW225959   2.025   3.326   3.490  0.2288 -0.3788 -0.2729
 8180SOL     OW25960   6.338   7.597   6.577 -0.0386 -0.2289 -0.0724
 8180SOL    HW125961   6.400   7.665   6.553 -1.4749  0.6655 -1.3807
 8180SOL    HW225962   6.343   7.534   6.505 -1.2975  0.3263 -0.6647
 8181SOL     OW25963   6.322   4.274   2.543  0.6032  0.2177  0.0541
 8181SOL    HW125964   6.279   4.356   2.567  2.1991  1.0625  0.1405
 8181SOL    HW225965   6.333   4.278   2.448 -0.4507 -0.4926 -0.1163
 8182SOL     OW25966   1.437   8.154   4.696 -0.1217  0.7231 -0.1239
 8182SOL    HW125967   1.401   8.123   4.613  0.0019 -0.2054  0.1622
 8182SOL    HW225968   1.506   8.091   4.717 -0.5727  0.5787  1.0006
 8183SOL     OW25969   9.208   1.664   8.355  0.3974 -0.9923  0.5013
 8183SOL    HW125970   9.273   1.728   8.385  1.1477 -1.6885  0.3992
 8183SOL    HW225971   9.252   1.580   8.365 -0.6192 -1.5055  0.7484
 8184SOL     OW25972   3.191   4.963   4.295 -0.3126  0.0066  0.2384
 8184SOL    HW125973   3.121   5.026   4.279 -0.1431  0.0287 -0.4434
 8184SOL    HW225974   3.258   5.012   4.342 -0.2458  0.3062 -0.1601
 8185SOL     OW25975   7.239   4.392   1.359  0.3845  0.6871  0.5243
 8185SOL    HW125976   7.250   4.297   1.370 -0.3269  0.6168  0.7047
 8185SOL    HW225977   7.235   4.426   1.449 -0.4256  0.7456  0.4768
 8186SOL     OW25978   1.043   4.035   8.788 -0.4624 -0.4878 -0.7863
 8186SOL    HW125979   0.990   3.967   8.747 -1.4808  1.1390 -2.3245
 8186SOL    HW225980   1.016   4.116   8.744  2.0634  0.6645 -0.3919
 8187SOL     OW25981   1.325   3.174   1.042  0.1145 -0.4482  0.1990
 8187SOL    HW125982   1.343   3.227   0.965  1.1152  1.7041  1.8139
 8187SOL    HW225983   1.410   3.162   1.084 -0.7947  2.4190  3.3359
 8188SOL     OW25984   7.025   3.229   0.167  0.3163  0.1262  0.2864
 8188SOL    HW125985   6.972   3.188   0.235  0.2214  0.3909  0.3720
 8188SOL    HW225986   7.116   3.214   0.194  0.2814 -0.0740  0.2900
 8189SOL     OW25987   8.483   0.200   0.329 -0.3315 -0.3991 -0.5311
 8189SOL    HW125988   8.546   0.254   0.377 -1.5756 -0.1919  0.9245
 8189SOL    HW225989   8.513   0.110   0.341  0.0448 -0.2530 -0.3822
 8190SOL     OW25990   6.356   1.737   2.028 -0.3354 -0.5012 -0.1318
 8190SOL    HW125991   6.451   1.745   2.032 -0.2662 -1.1652 -0.2116
 8190SOL    HW225992   6.339   1.700   1.942 -0.6605 -0.4385 -0.0955
 8191SOL     OW25993   2.400   1.556   4.602 -0.2245 -0.1759  0.6123
 8191SOL    HW125994   2.454   1.481   4.576 -1.1979 -0.3324 -1.0564
 8191SOL    HW225995   2.452   1.632   4.578  0.7144 -0.2469  2.1999
 8192SOL     OW25996   0.577   1.086   2.392 -0.0525 -0.1872  0.2054
 8192SOL    HW125997   0.593   1.059   2.483  0.5213 -0.7976 -0.0645
 8192SOL    HW225998   0.500   1.142   2.397  0.7510  0.8829  1.2483
 8193SOL     OW25999   2.005   7.103   6.331 -0.4168 -0.2818 -0.2041
 8193SOL    HW126000   2.042   7.016   6.345  0.2568  0.3529  2.6761
 8193SOL    HW226001   1.911   7.089   6.325 -0.1628 -1.4273 -2.7286
 8194SOL     OW26002   8.745   6.685   0.248  0.2129  0.1284  0.0462
 8194SOL    HW126003   8.662   6.639   0.257  1.0755 -1.2977  1.0742
 8194SOL    HW226004   8.740   6.757   0.311  0.2324 -0.7254  1.0572
 8195SOL     OW26005   2.329   2.985   3.905 -0.3028  0.3953 -0.2778
 8195SOL    HW126006   2.238   3.008   3.889 -0.6021  0.0410  0.8669
 8195SOL    HW226007   2.325   2.909   3.963  0.7142 -0.1792 -0.9325
 8196SOL     OW26008   5.070   4.426   8.284  0.4745 -0.2232  0.3900
 8196SOL    HW126009   5.109   4.510   8.261 -2.3329  0.7929 -1.2130
 8196SOL    HW226010   5.054   4.383   8.199 -0.3404 -1.2694  1.0342
 8197SOL     OW26011   4.909   2.342   3.916 -0.1835  0.4584 -0.4686
 8197SOL    HW126012   4.901   2.366   4.008 -1.1635 -0.8395 -0.1930
 8197SOL    HW226013   4.832   2.380   3.875  1.5343  3.3475 -1.3508
 8198SOL     OW26014   5.453   2.892   6.432 -0.2213  0.3954  0.5942
 8198SOL    HW126015   5.521   2.841   6.477 -0.7014 -1.7385 -0.9112
 8198SOL    HW226016   5.419   2.951   6.499  0.6119 -1.0476  2.3929
 8199SOL     OW26017   0.072   3.336   7.347  0.2505  0.0134 -0.0335
 8199SOL    HW126018   0.141   3.388   7.387  1.9853 -1.9139 -0.3261
 8199SOL    HW226019   0.043   3.387   7.272  0.0032  1.7031  1.1710
 8200SOL     OW26020   2.850   8.365   8.053  0.4885  0.3394  0.3561
 8200SOL    HW126021   2.858   8.269   8.058 -1.9774  0.1033  1.0663
 8200SOL    HW226022   2.933   8.397   8.087  1.1893 -1.5557  0.5961
 8201SOL     OW26023   4.761   5.304   2.902  0.2338 -0.0119 -0.4134
 8201SOL    HW126024   4.732   5.262   2.983 -2.2568  1.5120 -0.4039
 8201SOL    HW226025   4.783   5.394   2.929 -0.0886  0.3498 -1.3105
 8202SOL     OW26026   3.674   3.230   0.991  0.0029  0.2570  0.4406
 8202SOL    HW126027   3.597   3.242   1.047 -1.1374  1.3047 -1.2626
 8202SOL    HW226028   3.640   3.187   0.913  1.2138  0.4450 -0.2066
 8203SOL     OW26029   8.918   8.479   4.485  0.2719 -0.2606 -0.0908
 8203SOL    HW126030   8.835   8.447   4.521 -0.0283 -0.3144 -0.8044
 8203SOL    HW226031   8.924   8.436   4.399 -0.6826  2.3874 -1.5953
 8204SOL     OW26032   8.900   8.497   2.386 -0.2552 -0.6887  0.2938
 8204SOL    HW126033   8.885   8.503   2.292  2.1670  1.1025 -0.0671
 8204SOL    HW226034   8.890   8.404   2.406 -1.2202 -1.0427 -1.6214
 8205SOL     OW26035   2.061   8.978   8.533  0.0679  0.7232  0.2391
 8205SOL    HW126036   1.994   9.018   8.588 -0.6606 -1.0223  0.6903
 8205SOL    HW226037   2.017   8.958   8.451  1.0934  3.0974 -0.9932
 8206SOL     OW26038   7.028   4.909   9.087 -0.8439  0.5257  0.1515
 8206SOL    HW126039   7.025   4.942   8.997 -1.0713  0.1398  0.0184
 8206SOL    HW226040   7.105   4.952   9.125 -1.0357  1.0853 -0.0704
 8207SOL     OW26041   3.189   6.875   0.967  0.1184 -0.6951  0.7112
 8207SOL    HW126042   3.094   6.876   0.959  0.2066  0.8050 -0.5206
 8207SOL    HW226043   3.213   6.966   0.987  1.4400 -0.4813 -1.4519
 8208SOL     OW26044   3.932   8.139   5.765  0.7309  0.2187  0.2653
 8208SOL    HW126045   4.024   8.154   5.746  1.6284 -2.2685  2.1391
 8208SOL    HW226046   3.903   8.220   5.807  2.3032  0.6950  0.5024
 8209SOL     OW26047   8.688   3.311   5.445 -0.1014 -0.3722  0.7369
 8209SOL    HW126048   8.716   3.221   5.457 -1.0664 -0.7415  0.2452
 8209SOL    HW226049   8.673   3.344   5.534 -0.3139 -0.8770  0.8880
 8210SOL     OW26050   1.553   6.635   7.063  0.1680  0.3072 -0.4096
 8210SOL    HW126051   1.517   6.574   6.998 -1.9292  1.6298 -0.5874
 8210SOL    HW226052   1.566   6.716   7.014  0.0911  0.8577  0.4645
 8211SOL     OW26053   6.786   3.328   5.321  0.6268 -0.1634  0.2602
 8211SOL    HW126054   6.881   3.321   5.318  0.7589  0.7913  1.5295
 8211SOL    HW226055   6.761   3.287   5.405 -0.2531 -1.8183 -0.7424
 8212SOL     OW26056   2.682   3.254   2.899  0.0787 -0.3535 -0.2716
 8212SOL    HW126057   2.626   3.331   2.891 -0.2972 -0.7115 -1.2655
 8212SOL    HW226058   2.634   3.185   2.852  0.9874 -0.8642 -0.4615
 8213SOL     OW26059   7.035   0.502   5.376  0.3034 -0.8511  0.2133
 8213SOL    HW126060   7.120   0.485   5.335  0.1962 -0.8514 -0.0072
 8213SOL    HW226061   6.994   0.416   5.383  0.0020 -0.7590 -0.3771
 8214SOL     OW26062   5.937   0.939   7.402 -0.0446  0.2199  0.5767
 8214SOL    HW126063   5.915   0.998   7.330 -0.0390 -0.8675 -0.3577
 8214SOL    HW226064   6.028   0.960   7.424  0.7962 -1.0084 -1.3996
 8215SOL     OW26065   0.917   8.872   0.968  0.3915 -1.1320 -0.2545
 8215SOL    HW126066   0.849   8.923   1.011  1.2955 -0.3935  0.3334
 8215SOL    HW226067   0.975   8.843   1.039  0.6490 -1.8103 -0.7314
 8216SOL     OW26068   0.501   8.951   5.466  0.3873 -0.1929  0.2661
 8216SOL    HW126069   0.422   8.999   5.442 -0.9600 -1.9714  0.8871
 8216SOL    HW226070   0.540   8.926   5.383  0.6806  1.2626 -0.0517
 8217SOL     OW26071   9.070   2.437   9.015 -0.3506 -0.5621  0.0798
 8217SOL    HW126072   8.994   2.434   9.072 -0.0898  2.0330  0.6777
 8217SOL    HW226073   9.133   2.492   9.061  0.4234  0.4326 -2.0261
 8218SOL     OW26074   5.512   1.647   4.095  0.0710 -0.1444  0.0513
 8218SOL    HW126075   5.601   1.674   4.121 -0.4665  2.7230 -0.6722
 8218SOL    HW226076   5.458   1.724   4.114 -2.0784 -1.4175 -0.6009
 8219SOL     OW26077   0.020   0.860   3.519  0.0330 -0.4991  0.3870
 8219SOL    HW126078   0.074   0.926   3.563 -0.5191 -0.8807  1.7196
 8219SOL    HW226079   0.064   0.777   3.538 -1.9346 -1.0632  3.2340
 8220SOL     OW26080   4.593   7.146   5.252 -0.4228  0.1681 -0.3855
 8220SOL    HW126081   4.667   7.090   5.274 -0.6875 -0.4634 -1.0763
 8220SOL    HW226082   4.570   7.189   5.335  0.1246 -0.3223  0.0293
 8221SOL     OW26083   1.333   4.713   3.304 -0.0666 -0.0891  0.2760
 8221SOL    HW126084   1.270   4.763   3.355 -0.7104  0.3839 -0.9338
 8221SOL    HW226085   1.299   4.623   3.305  0.6310 -0.3650  1.7362
 8222SOL     OW26086   5.400   7.997   4.555  0.1157  0.1370  0.5277
 8222SOL    HW126087   5.451   7.966   4.480 -2.1081 -1.3016 -0.5110
 8222SOL    HW226088   5.335   7.928   4.569  1.7338 -0.8356  5.2672
 8223SOL     OW26089   2.452   2.227   6.603  0.6801  0.1047  0.2446
 8223SOL    HW126090   2.429   2.242   6.695 -0.7478  0.4542 -0.1424
 8223SOL    HW226091   2.533   2.276   6.589 -0.3476  2.0202  0.7170
 8224SOL     OW26092   8.086   4.061   2.623  0.3401  0.1701 -0.3191
 8224SOL    HW126093   7.992   4.074   2.619 -0.0333 -2.0510 -0.4512
 8224SOL    HW226094   8.108   4.066   2.716 -0.2180 -0.8680 -0.1116
 8225SOL     OW26095   1.451   6.913   8.964 -0.0339 -0.1635  0.2924
 8225SOL    HW126096   1.523   6.975   8.954  1.6047 -1.9216  0.6385
 8225SOL    HW226097   1.493   6.831   8.990 -2.1977 -1.1979  0.7721
 8226SOL     OW26098   3.914   2.781   0.697 -0.5711  0.3901 -0.0280
 8226SOL    HW126099   3.907   2.853   0.634 -1.0558  1.4182  1.1694
 8226SOL    HW226100   3.829   2.738   0.694  0.7400 -2.4154 -3.2881
 8227SOL     OW26101   6.889   2.882   6.950  0.5915  0.5038  0.0282
 8227SOL    HW126102   6.844   2.887   7.034 -1.1909  0.3747 -0.8874
 8227SOL    HW226103   6.829   2.921   6.887  2.7329  2.4916 -0.9199
 8228SOL     OW26104   2.494   7.893   6.824 -0.3312 -0.3123 -0.0418
 8228SOL    HW126105   2.473   7.933   6.739  2.4565 -1.4973 -1.4343
 8228SOL    HW226106   2.484   7.799   6.809 -0.2183 -0.5124  1.0631
 8229SOL     OW26107   7.475   1.654   6.182  0.3825 -0.2313  0.0679
 8229SOL    HW126108   7.487   1.684   6.273 -0.1198 -1.2531  0.4874
 8229SOL    HW226109   7.491   1.732   6.129  2.4694 -0.0286  0.9137
 8230SOL     OW26110   2.708   1.267   1.255 -0.3495  0.2651 -0.3961
 8230SOL    HW126111   2.625   1.265   1.209 -1.3473  0.7776  1.2876
 8230SOL    HW226112   2.685   1.251   1.347  1.3825  0.6089  0.1400
 8231SOL     OW26113   7.807   4.092   2.601 -0.1324 -0.2329  0.2095
 8231SOL    HW126114   7.786   4.153   2.672  0.1193  0.8995 -0.6492
 8231SOL    HW226115   7.729   4.038   2.591 -1.6596  2.0413 -1.0565
 8232SOL     OW26116   6.930   1.038   7.501 -0.3083  0.2095  0.5615
 8232SOL    HW126117   7.018   1.070   7.484 -0.0356 -0.9928 -0.4747
 8232SOL    HW226118   6.875   1.116   7.499  0.2425  0.6331 -2.3933
 8233SOL     OW26119   4.178   3.018   1.197  0.4748 -0.0498  0.0421
 8233SOL    HW126120   4.260   3.028   1.244 -0.2644 -1.6430  1.8214
 8233SOL    HW226121   4.128   3.097   1.218  0.7536 -0.0395  0.6941
 8234SOL     OW26122   1.223   1.924   1.319  0.2410 -0.6150 -0.2619
 8234SOL    HW126123   1.188   1.851   1.268 -1.8666  0.3680 -0.3337
 8234SOL    HW226124   1.147   1.980   1.336  1.5723  0.9723  0.7885
 8235SOL     OW26125   8.968   3.437   4.017  0.3449 -0.2342  0.2774
 8235SOL    HW126126   8.994   3.477   3.935 -1.3275 -1.9073 -1.1410
 8235SOL    HW226127   9.028   3.476   4.082  3.2997 -0.5529 -2.0214
 8236SOL     OW26128   2.936   1.605   4.192 -0.1383  0.3190 -0.5157
 8236SOL    HW126129   2.970   1.556   4.267  0.9626  0.4016 -0.9354
 8236SOL    HW226130   2.976   1.692   4.200 -1.3734  0.8944 -0.2607
 8237SOL     OW26131   4.071   3.376   6.726  0.5871 -0.1544 -0.0498
 8237SOL    HW126132   4.132   3.436   6.769 -0.7204  0.5591  0.8617
 8237SOL    HW226133   4.048   3.312   6.794 -3.1771  2.2157  1.1921
 8238SOL     OW26134   8.220   8.677   6.398 -0.6029  0.0041  0.6064
 8238SOL    HW126135   8.198   8.683   6.491 -0.6860  0.2333  0.5749
 8238SOL    HW226136   8.144   8.633   6.359  0.0013 -1.2923  0.8411
 8239SOL     OW26137   5.135   4.679   4.831  0.2249 -0.5569  0.1008
 8239SOL    HW126138   5.175   4.610   4.779 -0.0647 -0.0926 -0.7663
 8239SOL    HW226139   5.139   4.647   4.922  1.1716 -1.1672 -0.1441
 8240SOL     OW26140   8.368   5.153   1.293 -0.3080 -0.0178 -0.0966
 8240SOL    HW126141   8.334   5.203   1.368 -0.9712  2.0191 -1.6471
 8240SOL    HW226142   8.431   5.212   1.252 -2.3556  0.4018 -2.9921
 8241SOL     OW26143   9.253   8.210   6.331  0.1586  0.1435 -0.0314
 8241SOL    HW126144   9.298   8.290   6.358 -0.3424  0.5251 -0.3153
 8241SOL    HW226145   9.321   8.156   6.291  0.8212 -0.2416  1.5673
 8242SOL     OW26146   7.953   6.355   3.988  0.1840  0.2055 -0.5456
 8242SOL    HW126147   7.977   6.350   4.081  1.8195 -1.6995 -0.9999
 8242SOL    HW226148   7.901   6.434   3.981  1.1647  1.1477  1.7599
 8243SOL     OW26149   7.476   8.265   3.433 -0.4381 -0.1228 -0.0133
 8243SOL    HW126150   7.516   8.199   3.490 -1.1693  0.1871  0.8915
 8243SOL    HW226151   7.422   8.215   3.372  0.7166 -0.4912 -0.7608
 8244SOL     OW26152   1.269   2.480   8.199  0.0685  0.2563  0.2876
 8244SOL    HW126153   1.337   2.540   8.169 -0.7613  1.7414  1.2588
 8244SOL    HW226154   1.271   2.408   8.136  0.1729  1.9632 -1.7681
 8245SOL     OW26155   1.023   7.910   4.450 -0.1335  0.1737 -0.0616
 8245SOL    HW126156   0.967   7.857   4.507  4.1427 -2.7293  2.0129
 8245SOL    HW226157   1.071   7.846   4.397  2.2965  2.2679 -0.5966
 8246SOL     OW26158   1.184   6.885   7.509 -0.2287  0.1785 -0.8005
 8246SOL    HW126159   1.171   6.899   7.603 -1.6290  0.0506 -0.9588
 8246SOL    HW226160   1.277   6.862   7.501  0.0034  0.5696  0.5000
 8247SOL     OW26161   6.260   9.171   3.077 -0.2100  0.0844  0.4132
 8247SOL    HW126162   6.308   9.240   3.122  1.5315 -0.0466 -1.1184
 8247SOL    HW226163   6.285   9.090   3.122  0.8809  0.0459 -0.2181
 8248SOL     OW26164   1.292   3.264   8.558 -0.0342 -0.0345 -0.0818
 8248SOL    HW126165   1.229   3.332   8.584 -0.4438 -0.2942 -0.3994
 8248SOL    HW226166   1.312   3.283   8.467 -0.4581 -0.5823 -0.2911
 8249SOL     OW26167   8.785   9.140   8.579 -1.1500  0.3877 -0.0038
 8249SOL    HW126168   8.699   9.155   8.617 -2.3791  0.2232 -2.5068
 8249SOL    HW226169   8.789   9.045   8.567  0.6267  0.0087  2.5985
 8250SOL     OW26170   0.025   4.196   7.386 -0.2019  0.5569  0.5173
 8250SOL    HW126171   0.102   4.249   7.410 -0.9183  1.1772  1.5241
 8250SOL    HW226172   0.062   4.111   7.361  0.9562  1.4081 -0.8651
 8251SOL     OW26173   3.390   6.042   8.262 -0.5033 -0.2272  0.4060
 8251SOL    HW126174   3.474   6.066   8.303  1.4578 -0.0058 -3.3480
 8251SOL    HW226175   3.331   6.114   8.285  1.4744  1.5975  0.0839
 8252SOL     OW26176   4.108   5.882   1.606  0.1157  0.0028 -0.1929
 8252SOL    HW126177   4.100   5.822   1.532  0.1620  0.5294 -0.6333
 8252SOL    HW226178   4.182   5.938   1.584 -0.5081  0.8327 -0.2401
 8253SOL     OW26179   1.299   0.028   3.315 -0.0531  0.3584  0.0682
 8253SOL    HW126180   1.394   0.035   3.325  0.1627  1.0225 -1.9468
 8253SOL    HW226181   1.280   0.075   3.234 -1.6278 -2.8910 -1.6644
 8254SOL     OW26182   1.197   4.129   5.479 -0.3669 -0.5004  0.1073
 8254SOL    HW126183   1.110   4.108   5.447 -0.3027  0.4286 -0.7170
 8254SOL    HW226184   1.196   4.224   5.493 -0.2193 -0.7663  2.3784
 8255SOL     OW26185   0.470   1.565   3.140  0.5137 -0.4766  0.0100
 8255SOL    HW126186   0.405   1.495   3.138  1.1737 -1.0928 -0.6196
 8255SOL    HW226187   0.489   1.582   3.048  1.6927 -0.7440  0.1885
 8256SOL     OW26188   5.564   9.182   6.603 -0.1470 -0.2970  0.0556
 8256SOL    HW126189   5.627   9.116   6.577 -0.0606 -0.1339 -0.1449
 8256SOL    HW226190   5.479   9.146   6.579  0.0038  0.4336 -1.7448
 8257SOL     OW26191   2.107   8.258   9.256  0.1034 -0.3489  0.0311
 8257SOL    HW126192   2.096   8.275   9.350  1.5147 -0.6835  0.2904
 8257SOL    HW226193   2.192   8.297   9.235 -0.1357 -0.4029 -1.0753
 8258SOL     OW26194   3.572   0.274   1.203 -0.3628 -0.5333  0.3613
 8258SOL    HW126195   3.617   0.225   1.134 -1.5864 -0.1865 -0.7360
 8258SOL    HW226196   3.505   0.214   1.236 -0.7072 -0.2222  0.2449
 8259SOL     OW26197   3.457   9.063   3.628 -0.1561 -0.1015 -0.3886
 8259SOL    HW126198   3.497   9.071   3.541  0.0075 -1.9630 -0.5282
 8259SOL    HW226199   3.506   8.993   3.671 -2.3075 -1.5163 -0.0389
 8260SOL     OW26200   0.704   5.219   8.100 -0.0551  0.4829  0.5916
 8260SOL    HW126201   0.794   5.246   8.117  0.7490  0.1830 -2.5220
 8260SOL    HW226202   0.699   5.210   8.005 -3.1994 -0.2205  0.7000
 8261SOL     OW26203   2.444   8.248   7.133 -0.3872 -0.4054 -0.1953
 8261SOL    HW126204   2.431   8.327   7.185 -0.2565 -1.3945  1.4293
 8261SOL    HW226205   2.355   8.220   7.108 -0.4277  0.2679 -0.8248
 8262SOL     OW26206   2.235   7.845   2.355  0.1074  0.5804 -0.6282
 8262SOL    HW126207   2.156   7.895   2.378  0.6963  1.4984 -0.5399
 8262SOL    HW226208   2.279   7.830   2.438 -1.3089 -2.3889 -0.2676
 8263SOL     OW26209   2.475   2.599   6.941 -0.0557  0.3618  0.5377
 8263SOL    HW126210   2.401   2.659   6.949 -0.2217 -0.0471  2.4163
 8263SOL    HW226211   2.441   2.513   6.965  0.6369 -0.1663 -0.2633
 8264SOL     OW26212   8.664   5.618   2.906 -0.3909  0.2220 -0.2818
 8264SOL    HW126213   8.641   5.599   2.996 -0.3683 -0.3783 -0.3973
 8264SOL    HW226214   8.720   5.695   2.911 -0.0353 -0.0635  0.2566
 8265SOL     OW26215   0.199   8.041   5.430 -0.0193 -0.4502 -0.0264
 8265SOL    HW126216   0.239   7.966   5.472  2.9553  1.1879  0.3280
 8265SOL    HW226217   0.139   8.077   5.496 -0.0647 -1.4121  0.4669
 8266SOL     OW26218   3.103   6.619   1.922  0.5004  0.5740  0.5354
 8266SOL    HW126219   3.038   6.643   1.856  0.5338  0.2177  0.3667
 8266SOL    HW226220   3.075   6.664   2.001 -1.0294 -1.0148  0.9784
 8267SOL     OW26221   2.803   5.695   1.630 -0.6950 -0.4684  0.6896
 8267SOL    HW126222   2.850   5.683   1.712  0.1040  1.3799  0.5492
 8267SOL    HW226223   2.713   5.669   1.650 -0.3380 -0.8224  1.9129
 8268SOL     OW26224   5.366   2.599   6.568  0.5346 -0.0963  0.0585
 8268SOL    HW126225   5.441   2.655   6.587 -0.1756  2.2505 -3.1065
 8268SOL    HW226226   5.401   2.510   6.572  2.9124  0.7868  0.7879
 8269SOL     OW26227   0.049   2.760   7.558  0.1782 -0.7872  0.5274
 8269SOL    HW126228   0.019   2.761   7.468  0.2561  0.3459  0.4983
 8269SOL    HW226229  -0.012   2.817   7.604  1.2272  0.1296  0.8146
 8270SOL     OW26230   6.224   4.396   0.997  0.3427  0.3733 -0.3766
 8270SOL    HW126231   6.227   4.472   1.055  0.9732  0.0179  0.0696
 8270SOL    HW226232   6.295   4.410   0.934  0.5509  0.0862 -0.2055
 8271SOL     OW26233   1.474   5.827   6.977  0.0957  0.6325  0.0779
 8271SOL    HW126234   1.496   5.865   6.892  2.0396  1.5337  0.9185
 8271SOL    HW226235   1.486   5.899   7.039  0.3677 -0.4459  1.3171
 8272SOL     OW26236   5.708   7.173   3.913  0.3022 -0.0534 -0.2404
 8272SOL    HW126237   5.741   7.149   3.826  1.9592 -0.9982  0.6154
 8272SOL    HW226238   5.712   7.092   3.964  0.6834  0.7941  1.1175
 8273SOL     OW26239   8.863   6.219   8.219 -0.4171  0.0113  0.4635
 8273SOL    HW126240   8.910   6.201   8.139 -1.2784 -1.8256  0.3124
 8273SOL    HW226241   8.898   6.156   8.283 -2.1933 -1.0199  0.4931
 8274SOL     OW26242   1.186   7.531   7.408  0.2978 -0.2126 -0.2389
 8274SOL    HW126243   1.268   7.574   7.384  0.5366 -1.3790 -1.6746
 8274SOL    HW226244   1.214   7.452   7.456 -0.0416  0.0542  0.4050
 8275SOL     OW26245   5.922   2.178   2.486  0.2475 -0.2412 -0.2383
 8275SOL    HW126246   5.860   2.220   2.546  1.0357  0.4860  0.0880
 8275SOL    HW226247   6.005   2.178   2.534  0.1772 -2.6970  0.0080
 8276SOL     OW26248   4.234   3.480   6.455 -0.3967 -0.0858  0.0113
 8276SOL    HW126249   4.225   3.464   6.361 -1.3131  1.4570 -0.1982
 8276SOL    HW226250   4.162   3.539   6.476  0.4010  0.4032  1.4914
 8277SOL     OW26251   4.528   7.099   1.273 -0.5505 -0.0232 -0.2019
 8277SOL    HW126252   4.438   7.079   1.251 -1.1928  1.2541  1.0471
 8277SOL    HW226253   4.532   7.195   1.271  0.2876  0.0109  1.4288
 8278SOL     OW26254   6.853   0.332   5.649 -0.0908 -0.4938 -0.2484
 8278SOL    HW126255   6.759   0.325   5.661 -0.0306  0.2853  0.8510
 8278SOL    HW226256   6.890   0.266   5.709  0.1019  0.8601  1.2118
 8279SOL     OW26257   2.353   1.040   4.003 -0.6010 -0.4044  0.0774
 8279SOL    HW126258   2.313   1.103   4.062  1.6555  0.4614  0.7602
 8279SOL    HW226259   2.383   0.969   4.060 -0.8693 -0.9036 -0.3867
 8280SOL     OW26260   6.266   4.972   7.385 -0.5964  0.3558  0.0663
 8280SOL    HW126261   6.359   4.973   7.404 -0.6096 -2.0252  0.4767
 8280SOL    HW226262   6.261   4.956   7.291 -0.6196  1.7913 -0.2004
 8281SOL     OW26263   1.133   2.254   5.719 -0.3228 -0.0411 -0.1334
 8281SOL    HW126264   1.204   2.231   5.779 -0.1524 -0.3310 -0.4484
 8281SOL    HW226265   1.076   2.312   5.771 -0.1350 -0.2268  0.2829
 8282SOL     OW26266   5.047   6.081   1.807  0.2694  0.1430 -0.2906
 8282SOL    HW126267   5.058   6.131   1.727  2.8828  1.2610  0.6680
 8282SOL    HW226268   5.135   6.049   1.829 -0.7892 -2.3650  0.7645
 8283SOL     OW26269   6.407   5.471   6.030 -0.7097  0.4216  0.3494
 8283SOL    HW126270   6.403   5.515   6.115 -1.3661  1.5378 -0.2497
 8283SOL    HW226271   6.492   5.426   6.031 -1.2923 -0.7743  2.1564
 8284SOL     OW26272   8.362   8.132   0.088 -0.6220 -0.7495  0.1572
 8284SOL    HW126273   8.445   8.084   0.087  0.0238  0.1161 -3.4648
 8284SOL    HW226274   8.384   8.215   0.130 -0.6055 -1.7740  2.3104
 8285SOL     OW26275   8.510   8.579   7.469  0.0961 -0.0336  0.0494
 8285SOL    HW126276   8.559   8.497   7.473 -0.9553 -0.6301  1.6033
 8285SOL    HW226277   8.465   8.576   7.384 -0.7451 -1.5710  0.5185
 8286SOL     OW26278   5.704   6.885   6.517  0.4187 -0.1450  0.0523
 8286SOL    HW126279   5.727   6.792   6.522  0.1984 -0.1347  1.7344
 8286SOL    HW226280   5.767   6.928   6.575 -0.0442  0.6419 -0.0176
 8287SOL     OW26281   3.299   2.867   6.001  0.4330 -0.1021  0.2461
 8287SOL    HW126282   3.338   2.911   6.076  0.9292  1.1244 -0.6856
 8287SOL    HW226283   3.359   2.794   5.982  0.4908 -0.2064  0.8124
 8288SOL     OW26284   4.157   3.576   9.257 -0.1539 -0.5055 -0.1512
 8288SOL    HW126285   4.179   3.570   9.164  1.1683  0.3824  0.0843
 8288SOL    HW226286   4.183   3.664   9.282 -0.7567 -0.6453  1.0067
 8289SOL     OW26287   4.209   6.497   4.340  0.0391 -0.2153  0.2826
 8289SOL    HW126288   4.187   6.589   4.353  3.1220  1.3961 -3.5605
 8289SOL    HW226289   4.151   6.468   4.269  0.7012 -0.3881 -0.2040
 8290SOL     OW26290   3.004   8.224   5.637  0.4717 -0.3048 -0.3048
 8290SOL    HW126291   2.988   8.164   5.710  0.5785 -1.5540 -1.2842
 8290SOL    HW226292   3.095   8.208   5.612 -0.1807 -1.4842 -2.0934
 8291SOL     OW26293   7.880   4.221   2.134  0.9120 -0.2192  0.2158
 8291SOL    HW126294   7.856   4.287   2.069 -0.6317 -1.2969 -0.3437
 8291SOL    HW226295   7.955   4.175   2.095 -0.5543 -1.4492 -1.2749
 8292SOL     OW26296   2.718   2.941   1.264  0.0154  0.1482 -0.0040
 8292SOL    HW126297   2.776   2.871   1.293  1.2861  1.3840  0.5588
 8292SOL    HW226298   2.666   2.902   1.194 -0.0175 -1.6242  0.9471
 8293SOL     OW26299   3.075   0.337   9.018  0.1435 -0.3370 -0.4535
 8293SOL    HW126300   3.125   0.265   8.980 -0.0925  0.5286 -2.5774
 8293SOL    HW226301   3.128   0.415   9.000 -0.4481  0.2276  0.1948
 8294SOL     OW26302   0.439   4.779   2.369  0.4679 -0.0689  0.1543
 8294SOL    HW126303   0.504   4.710   2.367  0.0023 -0.5681  1.4795
 8294SOL    HW226304   0.358   4.737   2.341  0.3726  0.1642  0.0711
 8295SOL     OW26305   2.577   5.740   4.630 -0.3868  0.0779  0.2069
 8295SOL    HW126306   2.572   5.834   4.613 -0.4696 -0.1436 -1.1576
 8295SOL    HW226307   2.486   5.713   4.645 -0.5876 -0.0282 -1.0400
 8296SOL     OW26308   7.621   5.904   2.425  0.4003  0.7607 -0.0579
 8296SOL    HW126309   7.650   5.943   2.508  0.9702 -0.5596  0.3903
 8296SOL    HW226310   7.532   5.874   2.444  0.7103  0.0027  0.2617
 8297SOL     OW26311   7.233   3.653   1.095 -0.2908 -0.1710  0.8005
 8297SOL    HW126312   7.286   3.577   1.071 -0.0774  0.1295  0.3078
 8297SOL    HW226313   7.144   3.629   1.069  0.3048  1.3757 -3.5373
 8298SOL     OW26314   0.881   3.021   9.189 -0.1888  0.3106 -0.5247
 8298SOL    HW126315   0.863   2.944   9.136  0.9885  1.1856 -2.3008
 8298SOL    HW226316   0.810   3.082   9.169 -1.6275 -0.5657  1.5691
 8299SOL     OW26317   8.923   2.002   9.160  0.8165  0.1574 -0.2382
 8299SOL    HW126318   8.854   1.963   9.213  0.1808  0.2166 -1.0123
 8299SOL    HW226319   8.966   2.064   9.219 -0.0074  0.3749  0.1496
 8300SOL     OW26320   5.700   6.506   6.163  0.0991  0.2896 -0.1475
 8300SOL    HW126321   5.715   6.414   6.144 -0.7268  0.1474 -0.1104
 8300SOL    HW226322   5.610   6.511   6.194  0.3464  1.0097  0.5135
 8301SOL     OW26323   2.503   0.353   8.649  0.1862  0.5375 -0.1829
 8301SOL    HW126324   2.445   0.277   8.650  1.8998 -0.8291  0.0665
 8301SOL    HW226325   2.504   0.385   8.739  1.5179 -0.8289  0.3228
 8302SOL     OW26326   2.510   0.493   8.885 -0.5363 -0.0568  0.3379
 8302SOL    HW126327   2.529   0.413   8.933 -0.6699 -0.6815 -0.6093
 8302SOL    HW226328   2.592   0.542   8.885 -0.6163  0.1008  1.4387
 8303SOL     OW26329   2.157   4.563   3.434  1.0808  0.5222 -0.4495
 8303SOL    HW126330   2.189   4.652   3.418 -0.7955  1.7365  1.9383
 8303SOL    HW226331   2.078   4.575   3.487  2.1836 -2.6469  2.2478
 8304SOL     OW26332   2.000   1.185   0.324 -0.5509 -0.3023  0.0783
 8304SOL    HW126333   2.008   1.251   0.256 -0.5896 -0.9368 -0.5577
 8304SOL    HW226334   1.966   1.108   0.279  0.6221 -1.1385  0.5528
 8305SOL     OW26335   0.308   5.586   2.865 -0.0248  0.1960 -0.3322
 8305SOL    HW126336   0.342   5.595   2.955  1.3609  1.4275 -0.9331
 8305SOL    HW226337   0.214   5.599   2.874  0.0571  0.0957  0.9706
 8306SOL     OW26338   2.858   5.162   8.886  0.0176  0.3840 -0.6352
 8306SOL    HW126339   2.946   5.151   8.849  0.7318  1.6258  0.5453
 8306SOL    HW226340   2.799   5.140   8.815  1.2955 -0.0044 -1.6268
 8307SOL     OW26341   0.419   4.517   0.362 -0.1112  0.1451 -0.3561
 8307SOL    HW126342   0.429   4.514   0.267 -0.5030 -0.5587 -0.3825
 8307SOL    HW226343   0.388   4.430   0.385 -1.8283  0.8734  0.2170
 8308SOL     OW26344   0.259   8.679   9.035 -0.8165  0.6188  0.3665
 8308SOL    HW126345   0.273   8.713   8.946  1.7934 -2.8055 -0.7577
 8308SOL    HW226346   0.320   8.730   9.089  0.0260  0.5149 -0.4559
 8309SOL     OW26347   0.058   5.759   2.240  0.6255  0.0612 -0.5267
 8309SOL    HW126348  -0.006   5.703   2.283 -0.3151  0.2517 -1.6509
 8309SOL    HW226349   0.013   5.843   2.229  0.9945  0.1393 -1.5023
 8310SOL     OW26350   1.165   1.834   7.856 -0.9657  0.4568 -0.5771
 8310SOL    HW126351   1.152   1.918   7.812 -1.6253  0.5275 -0.2518
 8310SOL    HW226352   1.077   1.798   7.866 -1.0161  1.1024  2.0021
 8311SOL     OW26353   1.483   5.199   5.704  0.8248 -0.3060  0.6870
 8311SOL    HW126354   1.421   5.268   5.680 -1.1400 -2.7042 -1.6631
 8311SOL    HW226355   1.441   5.154   5.777  1.0113 -0.4507  0.7047
 8312SOL     OW26356   0.904   1.117   7.292 -0.8355 -0.1688  0.5638
 8312SOL    HW126357   0.943   1.031   7.273 -0.2681 -0.2971  2.1286
 8312SOL    HW226358   0.978   1.178   7.287 -0.4757 -0.3235  2.9330
 8313SOL     OW26359   6.903   3.302   2.552 -0.1259 -0.1595  0.4472
 8313SOL    HW126360   6.931   3.393   2.554 -0.0172 -0.1843  0.1731
 8313SOL    HW226361   6.853   3.294   2.471  1.0431 -0.6691 -0.2557
 8314SOL     OW26362   8.268   2.554   5.981 -0.0627 -0.3887 -0.3398
 8314SOL    HW126363   8.340   2.617   5.982  0.0737 -0.5518  0.4046
 8314SOL    HW226364   8.306   2.475   5.943  0.2245 -0.5535  0.2766
 8315SOL     OW26365   0.118   2.274   4.148 -0.0798  0.2352  0.1166
 8315SOL    HW126366   0.119   2.271   4.244 -1.6599 -0.1586  0.1518
 8315SOL    HW226367   0.094   2.185   4.122  0.7227  0.2349 -0.6831
 8316SOL     OW26368   5.650   3.074   4.254 -0.2161  0.3611  0.1468
 8316SOL    HW126369   5.697   3.031   4.326 -0.5809  0.3310  0.3657
 8316SOL    HW226370   5.715   3.135   4.217  0.4427 -0.6485 -0.4238
 8317SOL     OW26371   9.220   1.921   1.143  0.0511 -0.3488  0.3994
 8317SOL    HW126372   9.142   1.880   1.107 -0.1718 -0.8938  1.4637
 8317SOL    HW226373   9.237   1.996   1.086 -0.2922 -1.1702 -0.8061
 8318SOL     OW26374   4.534   2.293   3.648  0.1882  0.1118  0.2772
 8318SOL    HW126375   4.459   2.289   3.588  1.4171  0.1139 -1.3198
 8318SOL    HW226376   4.536   2.207   3.690 -0.7423  0.1428  0.4066
 8319SOL     OW26377   8.939   7.334   4.302 -0.2164 -0.0824 -1.0681
 8319SOL    HW126378   9.024   7.307   4.268  0.4836  0.1342  0.4527
 8319SOL    HW226379   8.950   7.426   4.326 -0.4261 -0.4167  0.4237
 8320SOL     OW26380   4.363   5.176   9.052  0.3652  0.0450  0.2278
 8320SOL    HW126381   4.445   5.142   9.017  0.8686  1.8859 -0.5362
 8320SOL    HW226382   4.296   5.143   8.992  1.0717  2.0356 -1.8187
 8321SOL     OW26383   5.950   4.507   8.686 -0.5214  0.4564  0.3810
 8321SOL    HW126384   6.045   4.508   8.700 -0.2001  1.1182 -1.5061
 8321SOL    HW226385   5.940   4.488   8.593 -2.3442 -1.9478  0.9725
 8322SOL     OW26386   3.785   3.667   2.059  0.0304 -0.0512 -0.5244
 8322SOL    HW126387   3.869   3.622   2.062  0.1362  0.1686  0.9171
 8322SOL    HW226388   3.730   3.620   2.122 -0.4604  0.6688 -0.3923
 8323SOL     OW26389   9.072   6.020   2.984  0.5073  0.3981 -0.2130
 8323SOL    HW126390   9.162   6.004   2.958  0.4706  0.1363 -0.1835
 8323SOL    HW226391   9.058   6.114   2.969  1.5235  0.9682  2.0188
 8324SOL     OW26392   4.599   7.941   6.024  0.3020 -0.6452 -0.0039
 8324SOL    HW126393   4.680   7.979   6.058 -0.0791  1.0145 -0.8810
 8324SOL    HW226394   4.535   7.957   6.093  0.2863 -0.2567 -0.1081
 8325SOL     OW26395   8.947   7.042   3.317  0.5234 -0.3343  0.5208
 8325SOL    HW126396   8.857   7.018   3.292  1.4619 -1.9575 -1.5885
 8325SOL    HW226397   8.953   7.016   3.409 -0.7346 -1.5574  0.2995
 8326SOL     OW26398   3.993   8.703   1.863  0.6116  0.1541  0.5136
 8326SOL    HW126399   3.976   8.650   1.941 -2.1483 -0.3900 -0.3464
 8326SOL    HW226400   3.930   8.775   1.869 -0.6856 -0.6833 -1.8383
 8327SOL     OW26401   2.227   8.002   1.181  0.2820  0.1824 -0.2130
 8327SOL    HW126402   2.234   8.075   1.120 -2.7374  1.1043  0.3254
 8327SOL    HW226403   2.215   7.925   1.125  0.7883  0.5155 -0.7890
 8328SOL     OW26404   0.394   6.819   4.891 -0.2708  0.0696 -0.3918
 8328SOL    HW126405   0.419   6.896   4.941 -1.2781 -1.7137  3.1515
 8328SOL    HW226406   0.474   6.766   4.888 -0.4733 -0.2674  0.2021
 8329SOL     OW26407   4.252   8.625   5.674  0.3447 -0.2026  0.5107
 8329SOL    HW126408   4.219   8.545   5.714  0.2404 -0.1485  0.5308
 8329SOL    HW226409   4.346   8.624   5.692  0.6394 -1.1660 -0.9269
 8330SOL     OW26410   8.947   5.558   5.472 -0.0081 -0.2179 -0.2869
 8330SOL    HW126411   8.924   5.614   5.546  0.6122  1.3629 -1.2368
 8330SOL    HW226412   9.037   5.581   5.451 -0.2512 -0.4277 -1.6891
 8331SOL     OW26413   0.042   1.574   0.665  0.6060 -0.1529 -0.3725
 8331SOL    HW126414   0.105   1.544   0.600 -0.8059 -1.9944 -0.9736
 8331SOL    HW226415   0.018   1.495   0.715  0.3488  0.8875  1.2504
 8332SOL     OW26416   5.461   1.064   9.111 -0.0102 -0.1262  0.0742
 8332SOL    HW126417   5.436   1.027   9.196 -2.3162 -1.3010 -1.0117
 8332SOL    HW226418   5.381   1.105   9.078  1.0563  1.0368 -1.2013
 8333SOL     OW26419   1.310   1.137   0.058  0.2114 -0.6277 -0.2777
 8333SOL    HW126420   1.402   1.148   0.034 -0.0995 -0.9333 -1.7028
 8333SOL    HW226421   1.281   1.061   0.008 -0.2940 -1.8713  1.7591
 8334SOL     OW26422   7.551   7.937   7.270  0.4593 -0.0969 -0.3623
 8334SOL    HW126423   7.528   7.898   7.186 -0.1491 -1.4998  0.4026
 8334SOL    HW226424   7.498   8.016   7.276  1.3584  0.6486 -1.7667
 8335SOL     OW26425   7.830   7.464   3.039  0.3206 -0.2394  0.3500
 8335SOL    HW126426   7.796   7.537   2.987 -0.5968 -1.5900 -1.0030
 8335SOL    HW226427   7.852   7.396   2.975  1.6931 -0.9679  1.5331
 8336SOL     OW26428   9.088   6.059   6.645 -0.0721  0.1653  0.0871
 8336SOL    HW126429   9.092   6.109   6.563  0.2537 -0.4310 -0.2683
 8336SOL    HW226430   9.067   6.124   6.712  0.1577  0.7456 -0.3975
 8337SOL     OW26431   8.428   3.996   6.003 -0.1443 -0.6181 -0.4482
 8337SOL    HW126432   8.456   4.032   5.919  0.5308  1.0901  0.4497
 8337SOL    HW226433   8.500   4.016   6.063 -1.0940 -0.7482  0.7922
 8338SOL     OW26434   1.906   1.433   7.018  0.2668 -0.2597  0.0352
 8338SOL    HW126435   1.943   1.473   7.097  1.3534  1.3714 -1.2364
 8338SOL    HW226436   1.975   1.375   6.986 -0.2193 -1.0131  0.3119
 8339SOL     OW26437   7.226   2.294   7.124 -0.2202 -0.2089  0.3455
 8339SOL    HW126438   7.266   2.349   7.191 -1.3099 -0.7856  1.5056
 8339SOL    HW226439   7.138   2.329   7.113  0.3525  0.7518 -1.8470
 8340SOL     OW26440   6.626   7.540   9.063 -0.1361 -0.6904 -0.1757
 8340SOL    HW126441   6.596   7.546   8.972  2.3597  1.1021 -0.9833
 8340SOL    HW226442   6.684   7.464   9.064  2.9968  1.4964 -1.2349
 8341SOL     OW26443   0.015   8.658   0.214 -0.3198 -0.0780  0.0069
 8341SOL    HW126444   0.063   8.631   0.136 -1.1418 -0.8289 -0.2599
 8341SOL    HW226445  -0.052   8.590   0.226  0.1788 -0.3220  1.7381
 8342SOL     OW26446   5.689   9.274   1.431  0.0847  0.0651  0.3912
 8342SOL    HW126447   5.729   9.360   1.420 -1.5152  0.7105 -0.7509
 8342SOL    HW226448   5.752   9.225   1.485  1.9639  1.2781 -0.5877
 8343SOL     OW26449   7.845   3.656   1.853  0.0063 -0.1300 -1.1720
 8343SOL    HW126450   7.760   3.615   1.836  0.9759 -1.8464 -2.1567
 8343SOL    HW226451   7.888   3.656   1.767  1.2274  0.1712 -0.5725
 8344SOL     OW26452   0.874   0.972   7.566  0.1057  0.3624  0.0604
 8344SOL    HW126453   0.938   0.913   7.527  1.0798 -0.5342  2.7583
 8344SOL    HW226454   0.882   1.053   7.516  2.2785 -0.2397 -0.6546
 8345SOL     OW26455   1.410   7.196   1.202  0.0330 -0.1721  0.8678
 8345SOL    HW126456   1.341   7.262   1.203 -0.3579 -0.2313 -3.8861
 8345SOL    HW226457   1.370   7.118   1.240 -1.7995  0.3954  0.1533
 8346SOL     OW26458   1.900   7.480   4.917  0.4617  0.3086 -0.5530
 8346SOL    HW126459   1.835   7.442   4.976 -1.6290  1.3701 -1.9922
 8346SOL    HW226460   1.904   7.573   4.942 -1.9943  1.2657 -3.1415
 8347SOL     OW26461   3.739   4.645   6.053  0.2472  0.2540 -0.0844
 8347SOL    HW126462   3.727   4.611   6.142 -1.8829  3.3741  0.9735
 8347SOL    HW226463   3.812   4.706   6.059  1.3520 -0.9215 -0.9962
 8348SOL     OW26464   3.645   5.611   7.783  0.0927  0.0872 -0.7059
 8348SOL    HW126465   3.657   5.659   7.702 -1.5598 -0.0991 -1.1118
 8348SOL    HW226466   3.611   5.676   7.845 -0.5603 -0.1815 -0.7702
 8349SOL     OW26467   1.210   6.491   7.371 -0.2336 -0.2664  0.4492
 8349SOL    HW126468   1.222   6.555   7.441  1.1939  1.0070 -0.8899
 8349SOL    HW226469   1.231   6.539   7.291 -2.5708 -1.4401 -0.9813
 8350SOL     OW26470   6.412   3.941   9.178  0.1154 -0.0844 -0.4468
 8350SOL    HW126471   6.468   3.880   9.130  1.5836  0.8546  0.0143
 8350SOL    HW226472   6.470   4.012   9.204 -1.2219  0.7513  0.3960
 8351SOL     OW26473   7.622   1.861   4.878 -0.3136  0.0060 -0.0158
 8351SOL    HW126474   7.559   1.799   4.916 -1.5331  1.3493  0.2563
 8351SOL    HW226475   7.642   1.922   4.949 -1.0693  1.3610 -0.9062
 8352SOL     OW26476   5.777   1.645   0.782  0.0844 -0.1926 -0.3855
 8352SOL    HW126477   5.722   1.610   0.711  1.2904 -0.9241 -0.9930
 8352SOL    HW226478   5.852   1.684   0.736  0.5915 -0.1476  0.4675
 8353SOL     OW26479   8.901   4.718   6.107 -0.3010 -0.1788 -0.3378
 8353SOL    HW126480   8.964   4.676   6.166 -0.6349 -0.3862 -0.1244
 8353SOL    HW226481   8.891   4.656   6.034 -0.0366 -0.0123 -0.5146
 8354SOL     OW26482   4.968   9.137   9.072  0.0214  0.1040 -0.2248
 8354SOL    HW126483   4.920   9.204   9.024  1.0771 -0.1301 -1.6923
 8354SOL    HW226484   4.943   9.055   9.029 -0.7633 -0.3882  1.1325
 8355SOL     OW26485   1.194   2.470   2.434  0.9043 -0.2863 -0.5435
 8355SOL    HW126486   1.149   2.546   2.470 -1.3383 -0.9033 -1.7940
 8355SOL    HW226487   1.173   2.399   2.495  0.5142 -0.4823 -0.8965
 8356SOL     OW26488   3.033   5.126   4.538 -0.0596 -0.6932  0.8142
 8356SOL    HW126489   2.986   5.093   4.461 -0.5298  0.9560  0.3520
 8356SOL    HW226490   3.093   5.193   4.502 -0.2517  0.0594  1.8613
 8357SOL     OW26491   0.205   1.622   5.686  0.2667  0.0917 -0.9818
 8357SOL    HW126492   0.299   1.637   5.696  0.2541 -0.7306  0.6231
 8357SOL    HW226493   0.164   1.706   5.708  0.5549 -0.0847  0.3147
 8358SOL     OW26494   6.191   0.963   5.696 -0.0085 -0.3692 -0.4031
 8358SOL    HW126495   6.250   1.018   5.748  0.8934  0.2985 -2.0678
 8358SOL    HW226496   6.221   0.874   5.711 -0.1401 -0.2533  0.6571
 8359SOL     OW26497   7.173   1.170   0.616  0.0852 -0.4797  0.1170
 8359SOL    HW126498   7.210   1.120   0.688 -0.3015  0.4088  0.9649
 8359SOL    HW226499   7.122   1.239   0.659 -0.5712 -0.2341 -1.0077
 8360SOL     OW26500   6.643   1.879   1.692  0.0321  0.3532 -0.5269
 8360SOL    HW126501   6.587   1.955   1.674  0.8172  0.8577 -0.8813
 8360SOL    HW226502   6.584   1.804   1.686 -0.1210  0.5889 -3.6931
 8361SOL     OW26503   4.696   6.014   2.716  0.0707 -0.9644  0.1742
 8361SOL    HW126504   4.604   5.988   2.715  0.1498 -1.3176  1.0601
 8361SOL    HW226505   4.732   5.973   2.795  1.7784 -3.6519 -1.7842
 8362SOL     OW26506   2.539   0.813   1.985 -0.9140 -0.5681 -0.1257
 8362SOL    HW126507   2.625   0.772   1.974  0.7221  1.8713  2.3594
 8362SOL    HW226508   2.523   0.858   1.902  0.4412 -0.6530 -0.4447
 8363SOL     OW26509   7.245   0.869   4.012  0.0539  0.4254  0.2733
 8363SOL    HW126510   7.307   0.923   4.061 -2.2871  1.8115  1.8933
 8363SOL    HW226511   7.237   0.789   4.063 -0.0124  0.5505  0.4606
 8364SOL     OW26512   3.122   3.077   8.930 -0.3526 -0.0555  1.0234
 8364SOL    HW126513   3.100   3.003   8.874  1.1878 -0.4388  0.8839
 8364SOL    HW226514   3.112   3.154   8.874  0.4024 -0.3699  0.4449
 8365SOL     OW26515   8.487   6.088   3.422 -0.0480 -0.3279 -0.1126
 8365SOL    HW126516   8.470   6.123   3.334  1.9388 -0.0465 -0.4163
 8365SOL    HW226517   8.435   6.143   3.480 -0.4310  0.2648 -0.9983
 8366SOL     OW26518   1.615   0.767   5.289 -0.0478  0.2931 -0.2286
 8366SOL    HW126519   1.657   0.830   5.231  0.1354 -0.3733 -0.8350
 8366SOL    HW226520   1.676   0.757   5.362  0.0436  0.6182 -0.2601
 8367SOL     OW26521   3.588   8.317   8.257  0.1840  0.2813  0.5399
 8367SOL    HW126522   3.651   8.378   8.295  1.0295 -0.1643 -0.1184
 8367SOL    HW226523   3.627   8.291   8.173 -1.3168  0.7054 -0.3168
 8368SOL     OW26524   5.831   3.073   3.308 -0.1145 -0.2417 -0.1685
 8368SOL    HW126525   5.765   3.143   3.302 -0.3585 -0.5314 -0.9692
 8368SOL    HW226526   5.900   3.100   3.247 -0.1309 -0.6141 -0.3531
 8369SOL     OW26527   7.913   3.911   2.421 -0.5193 -0.1961  0.2687
 8369SOL    HW126528   7.852   3.976   2.454  0.1342  0.6535 -0.1648
 8369SOL    HW226529   7.941   3.863   2.499 -1.4754 -0.3842  0.5097
 8370SOL     OW26530   4.071   9.014   3.707  0.2245 -0.1213 -0.4830
 8370SOL    HW126531   3.983   9.008   3.744  0.4089 -2.9536 -0.2663
 8370SOL    HW226532   4.063   9.079   3.637 -1.4960  1.2127  0.8604
 8371SOL     OW26533   5.770   2.148   7.924  0.6268 -0.2751 -0.5877
 8371SOL    HW126534   5.748   2.242   7.921  0.9828 -0.2233 -2.2276
 8371SOL    HW226535   5.834   2.142   7.995  1.0198  0.8264 -0.8167
 8372SOL     OW26536   7.446   5.422   1.927  0.2041  0.3410 -0.0627
 8372SOL    HW126537   7.535   5.393   1.948 -0.7345 -1.5197  1.6757
 8372SOL    HW226538   7.453   5.458   1.839  2.6810  0.2803  0.0401
 8373SOL     OW26539   5.327   5.873   0.093 -0.0555  0.1715  0.3002
 8373SOL    HW126540   5.382   5.810   0.047  2.2158 -0.1013  3.1043
 8373SOL    HW226541   5.382   5.951   0.104 -1.1988  0.9417  0.8268
 8374SOL     OW26542   4.494   7.033   3.907  0.4557  0.4239  0.1322
 8374SOL    HW126543   4.400   7.027   3.890 -0.3261  1.9698  3.2759
 8374SOL    HW226544   4.534   7.008   3.824 -2.6969 -0.3642 -1.3145
 8375SOL     OW26545   3.447   3.253   1.120  0.3215  0.0814 -0.6744
 8375SOL    HW126546   3.388   3.328   1.111  0.3247  0.0827 -0.6835
 8375SOL    HW226547   3.389   3.180   1.142  0.3516  0.1560 -0.3382
 8376SOL     OW26548   1.883   0.869   7.243  0.2340  0.0885  0.1849
 8376SOL    HW126549   1.943   0.795   7.233 -0.2998 -0.3276 -0.0193
 8376SOL    HW226550   1.912   0.933   7.178 -0.7280 -0.9207 -1.2944
 8377SOL     OW26551   4.875   5.576   7.750  0.6565  0.0639  0.4587
 8377SOL    HW126552   4.843   5.629   7.823 -0.2821  0.2979 -0.1115
 8377SOL    HW226553   4.815   5.502   7.746 -0.4424  0.9979 -1.2252
 8378SOL     OW26554   6.665   0.277   6.083  0.5268 -0.0531  0.4218
 8378SOL    HW126555   6.688   0.233   6.001 -2.6418 -0.4561 -0.3532
 8378SOL    HW226556   6.604   0.346   6.057 -1.6036 -1.0185  2.4864
 8379SOL     OW26557   1.828   4.550   5.963  0.5607  0.6032 -0.1132
 8379SOL    HW126558   1.768   4.586   5.897  1.1523  0.7672 -0.5727
 8379SOL    HW226559   1.830   4.456   5.944 -0.8665  0.3131  0.9911
 8380SOL     OW26560   1.470   8.790   3.117  0.3146 -0.0052 -0.2106
 8380SOL    HW126561   1.453   8.867   3.062 -0.0901  1.6364  2.0453
 8380SOL    HW226562   1.395   8.786   3.176  1.0625 -1.2614  0.6946
 8381SOL     OW26563   6.622   9.103   7.176 -0.7219 -0.3600  0.3167
 8381SOL    HW126564   6.598   9.011   7.188 -0.6078 -0.4321  0.0103
 8381SOL    HW226565   6.714   9.108   7.201 -1.2492  0.0855  2.3138
 8382SOL     OW26566   7.471   0.246   1.583 -0.3692 -0.1086  0.2444
 8382SOL    HW126567   7.494   0.335   1.557  0.2578 -0.0498  0.9865
 8382SOL    HW226568   7.380   0.253   1.614 -0.9455 -0.0783 -1.3472
 8383SOL     OW26569   2.375   8.512   0.236 -0.4986 -0.2324 -0.0454
 8383SOL    HW126570   2.385   8.478   0.325  1.3984 -0.5495 -0.3376
 8383SOL    HW226571   2.453   8.566   0.222 -1.3965  0.8658 -1.0857
 8384SOL     OW26572   7.713   1.370   4.459  0.0381 -0.0455 -0.6586
 8384SOL    HW126573   7.760   1.317   4.394 -0.0300  0.5964 -1.2359
 8384SOL    HW226574   7.779   1.432   4.492  0.9103 -2.1841  2.0399
 8385SOL     OW26575   9.156   6.855   0.150 -0.2456  0.5404  0.3724
 8385SOL    HW126576   9.124   6.766   0.161  1.1866  0.0062  0.4117
 8385SOL    HW226577   9.109   6.906   0.216 -2.4104  0.2029 -0.8130
 8386SOL     OW26578   8.290   0.429   5.562  0.3402 -0.3240  1.0414
 8386SOL    HW126579   8.380   0.396   5.572  0.9463  0.7918 -0.3355
 8386SOL    HW226580   8.252   0.372   5.495  1.0840  1.0909 -0.6577
 8387SOL     OW26581   0.261   2.308   3.748  0.4196  0.1993  0.3968
 8387SOL    HW126582   0.340   2.263   3.717 -1.2848 -4.2429  1.6992
 8387SOL    HW226583   0.189   2.264   3.703 -1.4569  2.9544  0.5080
 8388SOL     OW26584   1.988   4.609   4.582  0.2520  0.5442  0.1692
 8388SOL    HW126585   2.067   4.556   4.578 -0.0356  0.1486 -0.3534
 8388SOL    HW226586   1.917   4.548   4.561 -0.1584  0.9683  0.3004
 8389SOL     OW26587   7.869   5.735   1.828  0.4663 -0.5140  0.1916
 8389SOL    HW126588   7.800   5.685   1.785 -0.1091 -0.2620  0.8096
 8389SOL    HW226589   7.900   5.677   1.898  0.5443 -0.4322  0.2244
 8390SOL     OW26590   3.231   9.256   3.982  0.4751  0.5939 -0.2631
 8390SOL    HW126591   3.314   9.289   3.947  0.3748  0.5760 -0.5217
 8390SOL    HW226592   3.209   9.317   4.053  0.2776  1.1066 -0.7592
 8391SOL     OW26593   1.112   0.982   5.320  0.0684  0.5851 -0.0110
 8391SOL    HW126594   1.039   1.015   5.268 -1.2948 -1.7689  0.2378
 8391SOL    HW226595   1.144   0.906   5.270  0.5332 -0.0429  1.1985
 8392SOL     OW26596   2.681   0.626   4.024 -0.3558 -0.2830  0.1529
 8392SOL    HW126597   2.765   0.641   3.980 -0.8634 -1.3162 -1.2250
 8392SOL    HW226598   2.676   0.697   4.089  1.1358  0.3619 -0.3769
 8393SOL     OW26599   0.518   5.027   8.573  0.1584 -0.1289  0.7419
 8393SOL    HW126600   0.489   4.957   8.514  1.1319 -0.0342  0.1385
 8393SOL    HW226601   0.610   5.040   8.552 -0.5204  2.9704 -0.8808
 8394SOL     OW26602   0.746   8.564   4.143  0.8625 -0.3121 -0.1496
 8394SOL    HW126603   0.803   8.585   4.070  0.8600  0.1292 -0.0262
 8394SOL    HW226604   0.688   8.640   4.152  0.8402 -0.3749  0.2849
 8395SOL     OW26605   3.272   0.712   3.209  0.0894 -0.2210 -0.3316
 8395SOL    HW126606   3.240   0.681   3.293 -1.3940  0.0737 -0.7572
 8395SOL    HW226607   3.300   0.633   3.162  2.5448 -0.2439  1.0332
 8396SOL     OW26608   2.078   8.790   7.150 -0.2561  0.0482  0.2992
 8396SOL    HW126609   2.001   8.737   7.130  1.2522 -2.3906  0.6051
 8396SOL    HW226610   2.060   8.830   7.235 -2.0853  1.4212 -0.6701
 8397SOL     OW26611   0.574   8.002   4.346  0.3219  0.3828  0.4965
 8397SOL    HW126612   0.590   8.002   4.441 -0.1432 -1.9198  0.6315
 8397SOL    HW226613   0.479   8.014   4.338  0.4293  1.1120  0.2887
 8398SOL     OW26614   6.912   6.333   3.158 -0.2110  0.0872 -0.3593
 8398SOL    HW126615   6.847   6.347   3.090  0.1515  0.1211 -0.7059
 8398SOL    HW226616   6.873   6.268   3.217 -0.0651 -0.8266 -1.2465
 8399SOL     OW26617   3.418   5.405   0.260 -0.1857 -0.1008 -0.2828
 8399SOL    HW126618   3.352   5.452   0.210  0.0419 -0.2230 -0.7006
 8399SOL    HW226619   3.370   5.334   0.303 -0.0128 -1.4768 -2.2441
 8400SOL     OW26620   2.790   1.359   4.596 -0.5322 -0.5765  0.0192
 8400SOL    HW126621   2.816   1.267   4.589  1.9753  0.1602 -2.1349
 8400SOL    HW226622   2.709   1.365   4.546 -1.5024 -1.8276  1.3680
 8401SOL     OW26623   7.738   3.191   1.511 -0.4752 -0.3403 -0.1058
 8401SOL    HW126624   7.774   3.254   1.573  1.5877 -0.2195 -1.3164
 8401SOL    HW226625   7.648   3.177   1.539 -0.4120  1.7295  1.2895
 8402SOL     OW26626   1.921   3.781   4.657  0.0601 -0.6245  0.3382
 8402SOL    HW126627   1.979   3.706   4.639 -0.5659 -0.6699 -1.7291
 8402SOL    HW226628   1.919   3.787   4.753  2.7638 -1.1729  0.5282
 8403SOL     OW26629   0.764   2.932   7.490  0.3047  0.1381 -0.3994
 8403SOL    HW126630   0.750   2.924   7.395  1.5211  2.3088 -0.8266
 8403SOL    HW226631   0.692   2.882   7.529  1.2259 -3.0857 -2.4103
 8404SOL     OW26632   8.131   5.880   7.492 -0.0892  0.4846 -0.4581
 8404SOL    HW126633   8.189   5.956   7.485  1.1814 -0.4687 -0.6904
 8404SOL    HW226634   8.150   5.829   7.414 -2.4089  0.8839 -1.3507
 8405SOL     OW26635   1.841   6.482   3.542  0.2196  0.4112  0.0793
 8405SOL    HW126636   1.836   6.418   3.613 -0.4054  0.2351 -0.1206
 8405SOL    HW226637   1.922   6.460   3.496 -0.9510 -1.5570 -1.2088
 8406SOL     OW26638   7.431   2.974   2.638  0.4158 -0.3672  0.2965
 8406SOL    HW126639   7.391   3.060   2.625  1.1593 -0.0935 -0.2415
 8406SOL    HW226640   7.359   2.918   2.667 -0.3182  0.1550 -0.4797
 8407SOL     OW26641   2.741   8.127   5.614  0.2610  0.0828 -0.2374
 8407SOL    HW126642   2.812   8.187   5.636  0.3516 -0.0717 -0.1043
 8407SOL    HW226643   2.685   8.127   5.692  0.4089 -0.2165 -0.1278
 8408SOL     OW26644   7.030   3.319   8.451  0.3911  0.2769 -0.0571
 8408SOL    HW126645   7.110   3.333   8.501  0.2015 -0.9578  0.6310
 8408SOL    HW226646   6.977   3.260   8.505 -0.3582 -0.1017 -1.1501
 8409SOL     OW26647   5.848   4.518   2.833 -0.4830  0.0377 -0.0735
 8409SOL    HW126648   5.833   4.603   2.872 -1.7944 -0.4980  0.6499
 8409SOL    HW226649   5.811   4.525   2.745  1.1703  0.7874 -0.7613
 8410SOL     OW26650   0.946   7.868   1.269  0.1434 -0.2507  0.4309
 8410SOL    HW126651   0.956   7.954   1.310 -0.8693  0.3172 -0.4652
 8410SOL    HW226652   0.854   7.845   1.283  0.6889 -1.8092  1.7942
 8411SOL     OW26653   8.468   6.095   8.919 -0.2663  0.0969  0.1797
 8411SOL    HW126654   8.487   6.052   9.003 -3.1176  2.2118  2.1480
 8411SOL    HW226655   8.528   6.169   8.916  0.9902 -0.9266 -0.5336
 8412SOL     OW26656   2.480   8.618   1.158 -0.4996  0.0408 -0.0430
 8412SOL    HW126657   2.441   8.692   1.204 -0.1949 -0.6050  1.2904
 8412SOL    HW226658   2.515   8.657   1.077 -2.0952  0.9746 -0.3353
 8413SOL     OW26659   4.806   3.928   3.807  0.3527 -0.2522  0.4364
 8413SOL    HW126660   4.809   3.854   3.746  2.4483 -0.4542  0.6856
 8413SOL    HW226661   4.787   3.888   3.892  2.7143 -0.7668  0.7995
 8414SOL     OW26662   1.100   6.339   6.560 -0.2633  0.4041  0.6539
 8414SOL    HW126663   1.181   6.388   6.576 -1.0560  1.6157  1.0783
 8414SOL    HW226664   1.087   6.286   6.638  1.3865 -1.7340 -0.3923
 8415SOL     OW26665   6.098   4.664   3.171  0.2443  0.4268 -0.5728
 8415SOL    HW126666   6.154   4.695   3.100  1.0918  0.5112  0.1032
 8415SOL    HW226667   6.159   4.622   3.232 -0.8075 -2.3784 -1.3191
 8416SOL     OW26668   4.161   6.301   6.990  0.4934 -0.3555 -0.1646
 8416SOL    HW126669   4.113   6.383   6.977  0.2747  0.0553  2.5464
 8416SOL    HW226670   4.237   6.308   6.933 -0.4973  0.8591 -1.4013
 8417SOL     OW26671   6.334   6.136   8.218 -0.1991 -0.1788 -0.2849
 8417SOL    HW126672   6.370   6.111   8.132 -2.0131 -0.0428 -1.1256
 8417SOL    HW226673   6.243   6.160   8.200 -0.6959 -0.3821  1.7330
 8418SOL     OW26674   3.530   8.087   1.876 -0.2501  0.2664 -0.1277
 8418SOL    HW126675   3.593   8.155   1.899  0.0416  0.6192 -1.8693
 8418SOL    HW226676   3.450   8.113   1.922  0.7071 -0.0053  1.8391
 8419SOL     OW26677   2.656   7.731   7.397 -0.1993 -0.0569 -0.3337
 8419SOL    HW126678   2.663   7.773   7.483  1.3295 -0.9490  0.0183
 8419SOL    HW226679   2.716   7.657   7.402 -1.9866 -1.6505 -1.3354
 8420SOL     OW26680   1.501   4.117   3.303 -0.0449 -0.2694 -0.1978
 8420SOL    HW126681   1.492   4.091   3.395  1.5071 -0.5871 -0.1043
 8420SOL    HW226682   1.534   4.207   3.307  0.8244 -0.5660 -0.4098
 8421SOL     OW26683   3.389   7.517   2.176  0.1296  0.2648  0.4141
 8421SOL    HW126684   3.405   7.611   2.182  1.4950  0.0829 -0.1529
 8421SOL    HW226685   3.422   7.482   2.259  1.9893 -0.0080 -0.4135
 8422SOL     OW26686   8.327   3.553   5.742 -0.0043  0.2271  0.0826
 8422SOL    HW126687   8.293   3.613   5.808 -0.7128 -0.1843  0.1050
 8422SOL    HW226688   8.288   3.468   5.764 -0.2985  0.0986 -0.8873
 8423SOL     OW26689   8.868   5.608   7.944 -1.0714 -0.7183  0.1554
 8423SOL    HW126690   8.914   5.624   7.861  0.5672  0.2534  1.1784
 8423SOL    HW226691   8.775   5.615   7.923 -0.7214  3.7970 -0.8987
 8424SOL     OW26692   8.922   1.168   0.818 -0.3549 -0.2217  0.1281
 8424SOL    HW126693   8.893   1.132   0.734  1.0019  0.5433 -0.7005
 8424SOL    HW226694   8.860   1.132   0.882 -0.7079 -1.7706 -1.0232
 8425SOL     OW26695   3.387   0.247   3.908  0.2738 -0.0662 -0.1873
 8425SOL    HW126696   3.345   0.316   3.960  0.3721 -0.7735  0.8508
 8425SOL    HW226697   3.474   0.282   3.887  0.8103 -0.3707  1.4298
 8426SOL     OW26698   6.865   5.307   4.753 -0.1029  0.0948 -0.0872
 8426SOL    HW126699   6.877   5.395   4.717  0.3928 -0.6203 -1.7947
 8426SOL    HW226700   6.915   5.250   4.694 -1.2505 -1.4605  0.3632
 8427SOL     OW26701   8.742   7.622   8.144 -0.5328 -0.0273 -0.1672
 8427SOL    HW126702   8.658   7.607   8.188 -0.6949 -0.1224 -0.5067
 8427SOL    HW226703   8.807   7.604   8.212 -0.5855 -4.4282 -0.9748
 8428SOL     OW26704   2.138   1.867   5.203 -0.5030  0.5062  0.2121
 8428SOL    HW126705   2.126   1.774   5.183  0.5920  0.5176 -0.5851
 8428SOL    HW226706   2.056   1.908   5.174 -0.6905 -0.1098 -0.1452
 8429SOL     OW26707   2.920   5.582   0.913  0.3523 -0.0620 -0.1464
 8429SOL    HW126708   2.956   5.537   0.990 -1.6439 -2.1557 -0.2994
 8429SOL    HW226709   2.830   5.602   0.938  0.1133  0.5336 -1.4430
 8430SOL     OW26710   9.269   7.146   3.236 -0.1260  0.1582 -1.0100
 8430SOL    HW126711   9.360   7.121   3.219  1.1677  1.8106  2.5071
 8430SOL    HW226712   9.221   7.063   3.236  1.6821 -0.9455 -1.3835
 8431SOL     OW26713   7.526   7.902   0.467 -0.3784 -0.2551 -0.0565
 8431SOL    HW126714   7.553   7.962   0.398 -0.9990 -1.2061 -1.1631
 8431SOL    HW226715   7.491   7.959   0.536 -0.7176  0.6565 -0.9624
 8432SOL     OW26716   6.861   0.884   4.309 -0.0082 -0.2175 -0.4498
 8432SOL    HW126717   6.943   0.928   4.284 -0.3891  1.5751  1.2211
 8432SOL    HW226718   6.889   0.815   4.369  0.3005  0.8037  0.6416
 8433SOL     OW26719   6.049   6.753   6.729 -0.2540 -0.7900 -0.2172
 8433SOL    HW126720   6.120   6.726   6.670 -0.4823 -1.8449 -0.0315
 8433SOL    HW226721   6.021   6.671   6.771 -0.4076 -0.1213  1.0120
 8434SOL     OW26722   3.436   3.962   3.785 -0.2174 -0.4019  0.2916
 8434SOL    HW126723   3.369   3.897   3.809  0.7857 -1.6053 -0.0681
 8434SOL    HW226724   3.437   3.961   3.689 -2.0496  2.1475  0.1403
 8435SOL     OW26725   8.240   7.370   1.384  0.3670  0.0729 -0.6558
 8435SOL    HW126726   8.168   7.432   1.393  1.4078  1.2890 -0.4693
 8435SOL    HW226727   8.299   7.411   1.322  1.6117 -0.2138  0.3117
 8436SOL     OW26728   3.637   8.597   0.672 -0.1304 -0.5317  0.2192
 8436SOL    HW126729   3.623   8.549   0.755  2.6124 -0.2968  0.9032
 8436SOL    HW226730   3.585   8.677   0.682  1.8185  0.5685  2.7700
 8437SOL     OW26731   2.704   6.025   5.565  0.1390  0.5293 -0.3421
 8437SOL    HW126732   2.726   6.001   5.475 -3.4764 -2.8151 -0.6234
 8437SOL    HW226733   2.768   5.979   5.619  0.1417 -0.5051 -1.2018
 8438SOL     OW26734   3.001   1.391   4.027 -0.1726  0.6988 -0.2549
 8438SOL    HW126735   2.934   1.322   4.026  0.9737 -0.4335 -0.2192
 8438SOL    HW226736   2.971   1.451   4.096 -0.8664 -0.0769  0.1455
 8439SOL     OW26737   0.843   5.318   4.970 -0.2030  0.0468  0.3381
 8439SOL    HW126738   0.750   5.313   4.950 -0.1925  0.7095  0.1116
 8439SOL    HW226739   0.851   5.278   5.057 -0.8102  0.6578  0.6886
 8440SOL     OW26740   3.807   5.580   5.485 -0.3038  0.0121 -0.2127
 8440SOL    HW126741   3.722   5.620   5.499  0.8277  2.5644 -0.1657
 8440SOL    HW226742   3.795   5.525   5.407 -1.9277  0.4331 -0.2872
 8441SOL     OW26743   8.472   5.155   2.384 -0.1414  0.2506 -0.9154
 8441SOL    HW126744   8.399   5.151   2.445 -0.6909  0.9635 -1.5058
 8441SOL    HW226745   8.498   5.247   2.382  0.8413 -0.0052 -0.6433
 8442SOL     OW26746   9.057   4.043   5.750  0.4416 -0.2144  0.0373
 8442SOL    HW126747   9.117   4.098   5.800 -0.5608  0.2011  0.8230
 8442SOL    HW226748   9.102   4.027   5.668  1.4778  0.3685  0.4692
 8443SOL     OW26749   3.359   1.832   1.830 -0.3912 -0.0379  0.1548
 8443SOL    HW126750   3.448   1.831   1.793  1.3796  2.0570  3.7442
 8443SOL    HW226751   3.312   1.897   1.778  1.5085  1.7086  0.4772
 8444SOL     OW26752   8.876   0.224   0.494  0.1527 -0.5908  0.0918
 8444SOL    HW126753   8.928   0.217   0.414 -1.4363 -1.8711 -0.9094
 8444SOL    HW226754   8.917   0.162   0.555  0.7185 -0.4360 -0.1297
 8445SOL     OW26755   3.503   2.439   5.423  0.4144  0.4577  0.3843
 8445SOL    HW126756   3.454   2.520   5.411 -0.1985 -0.1964 -1.9226
 8445SOL    HW226757   3.444   2.382   5.471  0.2926  0.8567  0.7177
 8446SOL     OW26758   0.146   8.649   8.598  0.6237  0.2843 -0.1578
 8446SOL    HW126759   0.146   8.731   8.647 -1.8492  0.0834  0.2978
 8446SOL    HW226760   0.084   8.663   8.527  0.9126 -0.8669 -0.6612
 8447SOL     OW26761   3.609   4.689   3.063 -0.3278  0.3302 -0.5174
 8447SOL    HW126762   3.674   4.640   3.114 -2.2547  1.2401  3.1674
 8447SOL    HW226763   3.586   4.631   2.991  0.5374 -2.4047  1.2560
 8448SOL     OW26764   8.437   1.680   6.940  0.0554 -0.4163  0.2227
 8448SOL    HW126765   8.351   1.674   6.983 -0.0829  0.4048  0.0676
 8448SOL    HW226766   8.480   1.754   6.983 -0.0614  0.3843 -1.0011
 8449SOL     OW26767   1.481   5.626   4.191  0.5714 -0.1148  0.0418
 8449SOL    HW126768   1.481   5.686   4.116 -1.8800  0.6778  0.5913
 8449SOL    HW226769   1.473   5.683   4.267 -0.0465 -1.0504  0.6996
 8450SOL     OW26770   2.218   5.763   4.816 -0.4533  0.1909  0.4140
 8450SOL    HW126771   2.143   5.813   4.847  0.4666  0.9854  1.4371
 8450SOL    HW226772   2.241   5.706   4.889  0.7106  0.8781  0.6076
 8451SOL     OW26773   4.849   8.095   6.036  0.1166  0.4560 -0.4223
 8451SOL    HW126774   4.845   8.185   6.066  0.6962  0.5312 -0.5709
 8451SOL    HW226775   4.859   8.101   5.941  0.9109  0.2457 -0.3570
 8452SOL     OW26776   8.566   8.247   7.803  0.1122  0.1241 -0.6809
 8452SOL    HW126777   8.553   8.196   7.883  0.5109 -0.3842 -0.9365
 8452SOL    HW226778   8.489   8.304   7.798 -0.1732 -0.2176 -0.2172
 8453SOL     OW26779   0.668   0.272   6.473  0.2995  0.8289 -0.2681
 8453SOL    HW126780   0.663   0.235   6.561  0.8715  0.2765 -0.4667
 8453SOL    HW226781   0.725   0.349   6.482  0.3622  0.7692 -0.1596
 8454SOL     OW26782   8.008   6.873   0.328  0.4515  0.3718  0.4335
 8454SOL    HW126783   7.918   6.900   0.344  0.5627  1.0928 -0.1019
 8454SOL    HW226784   8.012   6.783   0.360 -0.2162  0.6309  1.2654
 8455SOL     OW26785   1.617   2.819   8.538 -0.6095 -0.5583 -0.3348
 8455SOL    HW126786   1.569   2.741   8.565  0.3600 -0.4962  1.8001
 8455SOL    HW226787   1.587   2.888   8.597  1.1294 -0.2229  0.2294
 8456SOL     OW26788   2.507   7.245   2.712 -0.3975 -0.3423  0.3210
 8456SOL    HW126789   2.569   7.251   2.785  1.1542 -1.6271 -0.8199
 8456SOL    HW226790   2.422   7.266   2.751  0.7738  1.9601  1.8485
 8457SOL     OW26791   4.565   3.478   7.355  0.1996 -0.6331 -0.0799
 8457SOL    HW126792   4.476   3.485   7.390 -0.4841  1.0881 -1.9799
 8457SOL    HW226793   4.608   3.558   7.385  0.8095 -1.0062  0.0385
 8458SOL     OW26794   3.217   4.907   6.206 -0.2125 -0.7800 -0.3975
 8458SOL    HW126795   3.160   4.865   6.140 -1.0354 -0.2735 -0.0259
 8458SOL    HW226796   3.241   4.990   6.166  1.6445 -1.6723 -1.2502
 8459SOL     OW26797   4.483   2.681   9.070  0.6482 -0.1195  0.6993
 8459SOL    HW126798   4.527   2.766   9.065 -0.0266  0.3841  2.5425
 8459SOL    HW226799   4.548   2.619   9.036  0.8938  1.1591 -1.3727
 8460SOL     OW26800   6.232   4.772   5.393  0.1422  0.2457 -1.0339
 8460SOL    HW126801   6.230   4.861   5.356 -1.0785  0.9170  0.5331
 8460SOL    HW226802   6.325   4.751   5.399  0.4254  0.6598 -3.0706
 8461SOL     OW26803   8.556   6.771   8.341  0.1723  1.1752  0.6857
 8461SOL    HW126804   8.541   6.683   8.305  3.0691  1.4355 -1.5262
 8461SOL    HW226805   8.607   6.755   8.421  1.8719  0.8376 -0.4363
 8462SOL     OW26806   7.922   4.844   1.337  0.4023  0.0106 -0.4308
 8462SOL    HW126807   8.014   4.867   1.340  1.2249 -2.7358 -1.5993
 8462SOL    HW226808   7.910   4.801   1.252 -1.8053 -0.2954 -0.0406
 8463SOL     OW26809   4.146   0.093   8.265 -0.0091 -0.0410 -0.2213
 8463SOL    HW126810   4.053   0.080   8.284 -0.7748  2.6197 -1.6395
 8463SOL    HW226811   4.185   0.107   8.351 -1.1346 -0.1134  0.3251
 8464SOL     OW26812   2.799   9.047   0.055 -0.1773 -0.5109 -0.2691
 8464SOL    HW126813   2.725   9.013   0.004  1.9273 -0.8577 -3.4006
 8464SOL    HW226814   2.821   9.130   0.012  0.4106  0.2962  1.5118
 8465SOL     OW26815   4.436   6.873   2.237 -0.0372 -0.1388  0.1879
 8465SOL    HW126816   4.417   6.833   2.152 -0.7105  0.1567  0.1897
 8465SOL    HW226817   4.367   6.939   2.248  0.7377  0.6474  0.4272
 8466SOL     OW26818   6.662   0.567   1.739  0.5243 -0.0171  0.0857
 8466SOL    HW126819   6.680   0.661   1.730 -0.5876  0.3260  1.1905
 8466SOL    HW226820   6.642   0.555   1.832  0.1274 -1.2620 -0.1412
 8467SOL     OW26821   8.547   1.852   1.608 -0.5734  0.3721  0.3286
 8467SOL    HW126822   8.576   1.792   1.677  0.9075  1.7079  0.9302
 8467SOL    HW226823   8.620   1.853   1.546 -1.2714  0.3353 -0.5167
 8468SOL     OW26824   7.507   6.162   2.080 -0.5105  0.1211  0.0850
 8468SOL    HW126825   7.501   6.136   1.988 -1.0072 -0.4809  0.2809
 8468SOL    HW226826   7.422   6.203   2.099 -1.1505 -1.4256  0.7657
 8469SOL     OW26827   5.134   7.341   6.056  0.2581 -0.2616  0.5289
 8469SOL    HW126828   5.221   7.304   6.070 -0.1101 -0.9857  0.9657
 8469SOL    HW226829   5.138   7.379   5.968  0.9693 -0.4114  0.4924
 8470SOL     OW26830   3.140   3.353   0.240  0.1226 -1.2226 -0.1688
 8470SOL    HW126831   3.126   3.445   0.220  0.8775 -1.3675 -1.5455
 8470SOL    HW226832   3.054   3.320   0.265 -0.1762 -0.1722  0.2178
 8471SOL     OW26833   5.036   4.820   6.655 -0.2455  0.0482  0.1432
 8471SOL    HW126834   4.971   4.783   6.596  1.0482  1.2136 -2.1293
 8471SOL    HW226835   5.019   4.915   6.652  1.4669  0.3623 -0.4306
 8472SOL     OW26836   7.553   2.748   3.684  0.3522 -0.7368  0.7587
 8472SOL    HW126837   7.548   2.825   3.740  2.5071 -1.4030  1.9754
 8472SOL    HW226838   7.597   2.682   3.737  2.6443 -1.3877 -1.6962
 8473SOL     OW26839   5.217   2.003   4.489  0.1233 -0.5130 -0.4218
 8473SOL    HW126840   5.234   1.909   4.475 -2.3644 -1.1470  0.2805
 8473SOL    HW226841   5.145   2.023   4.428  0.6694  0.9756 -0.5990
 8474SOL     OW26842   8.326   8.054   0.615 -0.5654  0.4733 -0.3911
 8474SOL    HW126843   8.307   8.048   0.522  0.1064  0.3423 -0.5206
 8474SOL    HW226844   8.341   8.147   0.631 -0.1940  0.4360 -0.5134
 8475SOL     OW26845   8.000   8.366   2.750 -0.3315  0.3460 -0.1690
 8475SOL    HW126846   8.062   8.372   2.677  0.9986 -0.5113  0.8278
 8475SOL    HW226847   8.022   8.440   2.807 -0.8612  0.5817 -0.2665
 8476SOL     OW26848   6.367   6.899   6.400 -0.2859 -0.4538 -0.1658
 8476SOL    HW126849   6.397   6.978   6.356  0.3461  0.7075  2.2015
 8476SOL    HW226850   6.274   6.913   6.415 -0.1800 -0.1580  0.2272
 8477SOL     OW26851   7.912   4.503   6.196 -0.3941  0.0368  0.0104
 8477SOL    HW126852   7.933   4.595   6.176  0.1445 -0.0012  0.3836
 8477SOL    HW226853   7.997   4.463   6.214 -0.6739 -0.4284  0.2921
 8478SOL     OW26854   5.648   7.449   6.611  0.7628  0.2879  0.2046
 8478SOL    HW126855   5.595   7.380   6.650 -1.1932  1.9318  0.6118
 8478SOL    HW226856   5.733   7.408   6.594 -0.4461 -2.2895  0.0440
 8479SOL     OW26857   4.591   0.909   2.548  0.2696 -0.3533  0.6326
 8479SOL    HW126858   4.519   0.846   2.554  0.6987 -0.8943  0.1580
 8479SOL    HW226859   4.654   0.879   2.614 -1.2237  1.8636  3.2785
 8480SOL     OW26860   1.851   1.706   6.783 -0.2162 -0.3698 -0.3085
 8480SOL    HW126861   1.793   1.662   6.720 -2.6860  0.9833  0.8600
 8480SOL    HW226862   1.842   1.655   6.863 -0.1022  0.0829 -0.0064
 8481SOL     OW26863   0.360   1.499   1.581 -0.0379  0.8553  0.0139
 8481SOL    HW126864   0.428   1.552   1.622  0.5147 -1.6094  2.5749
 8481SOL    HW226865   0.342   1.430   1.644 -3.5247  0.2294 -1.4570
 8482SOL     OW26866   7.504   2.601   7.029  0.6830 -0.0207 -0.1634
 8482SOL    HW126867   7.431   2.581   7.088  1.8989 -0.4194  1.2603
 8482SOL    HW226868   7.554   2.520   7.024 -0.0077 -0.3585 -2.7184
 8483SOL     OW26869   6.499   6.513   3.308  0.0240 -0.0131 -0.1695
 8483SOL    HW126870   6.491   6.521   3.213  0.3910  0.9809 -0.1242
 8483SOL    HW226871   6.557   6.438   3.320 -0.6278 -0.6250 -0.7025
 8484SOL     OW26872   2.910   7.394   0.848  0.6101 -0.2400 -0.7893
 8484SOL    HW126873   2.976   7.455   0.881  0.2193 -0.3713  0.2681
 8484SOL    HW226874   2.827   7.440   0.860  0.1989 -1.4100  1.1157
 8485SOL     OW26875   6.931   4.480   4.252  0.0992 -0.3662  0.6456
 8485SOL    HW126876   6.890   4.525   4.326 -1.9693  0.0318 -0.6836
 8485SOL    HW226877   6.897   4.523   4.174  2.7497 -0.3186 -0.6161
 8486SOL     OW26878   2.133   8.271   7.022 -0.2153 -0.2072 -0.3294
 8486SOL    HW126879   2.106   8.255   7.113 -0.7468  1.3412 -0.1989
 8486SOL    HW226880   2.158   8.184   6.990  0.7392 -0.6832  1.5306
 8487SOL     OW26881   7.974   5.650   0.601  0.2566  0.7313 -0.0004
 8487SOL    HW126882   8.061   5.622   0.629  0.2740  1.5224  0.7721
 8487SOL    HW226883   7.960   5.605   0.518  0.3391 -1.4248  1.0988
 8488SOL     OW26884   5.083   5.059   1.045 -0.5785 -0.0951 -0.2570
 8488SOL    HW126885   5.173   5.068   1.077 -0.8371 -1.9382  1.2191
 8488SOL    HW226886   5.093   5.033   0.953  0.4127 -0.3052 -0.1065
 8489SOL     OW26887   0.041   2.494   5.049  0.4103  0.1439  1.1114
 8489SOL    HW126888  -0.040   2.457   5.082  0.5172  0.2637  1.5169
 8489SOL    HW226889   0.080   2.425   4.996 -0.4251  0.4157  0.1097
 8490SOL     OW26890   7.915   6.906   4.337  0.1072 -0.2121 -0.2125
 8490SOL    HW126891   7.923   6.995   4.372  2.5362 -0.4470 -0.0086
 8490SOL    HW226892   7.863   6.916   4.258  0.7957  1.4923 -0.4894
 8491SOL     OW26893   9.153   2.889   8.061 -0.1047 -0.6451 -0.7340
 8491SOL    HW126894   9.070   2.876   8.108  0.9780 -1.2706  1.1085
 8491SOL    HW226895   9.127   2.893   7.969 -2.3197  0.4462 -0.1613
 8492SOL     OW26896   2.994   4.836   7.169  0.2092  0.0630  0.3572
 8492SOL    HW126897   2.913   4.817   7.216 -0.8293  0.4521 -1.1745
 8492SOL    HW226898   3.047   4.758   7.179 -1.3202 -1.1320 -0.5074
 8493SOL     OW26899   4.038   6.548   4.124  0.0020 -0.3272 -0.2101
 8493SOL    HW126900   4.001   6.518   4.041  1.6408 -1.6896 -0.5046
 8493SOL    HW226901   3.985   6.624   4.148 -1.7259 -1.0521 -1.5238
 8494SOL     OW26902   3.062   5.838   2.294 -0.2895 -0.4244 -0.0448
 8494SOL    HW126903   3.146   5.859   2.254 -0.8391 -0.6602 -1.3797
 8494SOL    HW226904   2.997   5.867   2.230 -1.1724 -1.9545  0.0921
 8495SOL     OW26905   8.276   0.727   1.592 -0.3979  0.7624  0.8734
 8495SOL    HW126906   8.188   0.693   1.609 -0.0424 -1.2096 -0.8914
 8495SOL    HW226907   8.306   0.680   1.515  1.6484  2.4996  0.5120
 8496SOL     OW26908   6.855   1.774   7.843  0.2537  0.1047  0.2125
 8496SOL    HW126909   6.943   1.780   7.879  0.8939  1.3936 -1.3902
 8496SOL    HW226910   6.797   1.770   7.919  1.6499  0.2455  1.3092
 8497SOL     OW26911   6.243   8.038   4.895  0.3922  0.0021 -0.2819
 8497SOL    HW126912   6.167   8.017   4.841 -0.3830  1.9323 -0.0337
 8497SOL    HW226913   6.211   8.035   4.984  1.3978 -2.0914  0.0628
 8498SOL     OW26914   6.959   2.242   8.455 -0.0833 -0.3793  0.1574
 8498SOL    HW126915   6.931   2.258   8.545 -1.2778 -1.6598  0.0464
 8498SOL    HW226916   7.011   2.161   8.460 -0.3911 -0.6116 -0.3402
 8499SOL     OW26917   7.200   0.877   8.328 -0.4974 -0.3971 -0.3610
 8499SOL    HW126918   7.166   0.896   8.240  0.7024  1.9607 -0.4088
 8499SOL    HW226919   7.162   0.944   8.384 -1.4377 -2.0192  1.0378
 8500SOL     OW26920   5.204   1.811   1.209 -0.4193  0.2416 -0.1024
 8500SOL    HW126921   5.175   1.839   1.296 -0.2356 -1.2542  0.4882
 8500SOL    HW226922   5.278   1.753   1.227  0.6243  1.1284 -1.3668
 8501SOL     OW26923   1.882   6.340   6.524 -0.4000  0.5167 -0.1708
 8501SOL    HW126924   1.869   6.433   6.507 -0.3547  0.4188 -0.7460
 8501SOL    HW226925   1.973   6.323   6.500  0.3183  0.8035  2.1152
 8502SOL     OW26926   1.262   0.391   0.551  0.1383 -0.1849  0.2528
 8502SOL    HW126927   1.187   0.417   0.497  0.6890  0.0187 -0.4288
 8502SOL    HW226928   1.231   0.399   0.641  0.0945  2.3783  0.0786
 8503SOL     OW26929   2.516   6.513   2.097 -0.0770  0.7701  0.5096
 8503SOL    HW126930   2.446   6.534   2.035 -0.0525  1.6692  0.7627
 8503SOL    HW226931   2.472   6.513   2.182  0.4640  2.9335  0.8676
 8504SOL     OW26932   1.004   7.604   1.711  0.0167  0.4890  0.8923
 8504SOL    HW126933   1.057   7.539   1.665 -0.4987  0.8854 -0.2873
 8504SOL    HW226934   1.065   7.647   1.770  1.8477  3.0390 -2.5337
 8505SOL     OW26935   8.978   5.105   8.994 -0.0575 -0.1688  0.0091
 8505SOL    HW126936   8.938   5.027   8.955 -0.0158  0.3714 -1.1415
 8505SOL    HW226937   9.024   5.147   8.922  0.1154  0.8050  0.6699
 8506SOL     OW26938   1.655   0.950   5.691 -0.6262 -0.0404  0.0906
 8506SOL    HW126939   1.570   0.993   5.682 -0.2228  0.8438  0.3513
 8506SOL    HW226940   1.678   0.963   5.783  1.0667  2.2326 -0.5768
 8507SOL     OW26941   8.172   7.237   1.865 -0.1592 -0.7252  0.0002
 8507SOL    HW126942   8.122   7.315   1.839 -0.5156 -0.9412  0.0306
 8507SOL    HW226943   8.136   7.214   1.951  0.1936 -0.7116  0.1513
 8508SOL     OW26944   2.920   4.139   2.451 -0.3267  0.5814  0.5697
 8508SOL    HW126945   2.879   4.145   2.537 -0.3211  1.1664  0.5365
 8508SOL    HW226946   2.899   4.223   2.409  0.1129  0.5083  0.1993
 8509SOL     OW26947   1.234   2.453   3.144 -0.3525 -0.1620  0.3114
 8509SOL    HW126948   1.180   2.519   3.189  0.5594 -0.0760  1.3192
 8509SOL    HW226949   1.195   2.369   3.170 -0.8348 -0.0585 -0.0712
 8510SOL     OW26950   2.223   5.272   5.001 -0.0895  0.6548 -0.0625
 8510SOL    HW126951   2.128   5.284   5.007 -0.4041 -1.8918  1.4358
 8510SOL    HW226952   2.233   5.196   4.943  0.9240 -0.0254  0.9739
 8511SOL     OW26953   0.234   8.244   0.417 -0.0376 -0.5035  0.2958
 8511SOL    HW126954   0.253   8.337   0.408 -1.5088 -0.2812 -1.1799
 8511SOL    HW226955   0.223   8.213   0.327  1.6123 -2.4014  0.6917
 8512SOL     OW26956   8.101   1.620   2.689 -0.2181 -0.2938 -0.5008
 8512SOL    HW126957   8.086   1.660   2.604 -1.3096  0.1432 -0.1224
 8512SOL    HW226958   8.196   1.623   2.701 -0.2550  2.5727 -0.3226
 8513SOL     OW26959   7.510   4.233   7.599  0.1034 -0.4036  0.1700
 8513SOL    HW126960   7.517   4.150   7.552 -0.0871  0.5470 -1.6393
 8513SOL    HW226961   7.435   4.222   7.658 -1.6618 -0.6582 -2.0024
 8514SOL     OW26962   0.011   8.360   0.037 -0.0333 -0.3039 -0.3273
 8514SOL    HW126963   0.043   8.440  -0.004 -1.3449 -0.2334 -1.2672
 8514SOL    HW226964  -0.050   8.390   0.103 -2.0539 -0.5131 -2.0041
 8515SOL     OW26965   6.947   9.150   8.211  0.1369 -0.6072 -0.5871
 8515SOL    HW126966   6.964   9.063   8.173 -0.1704 -0.6061 -0.7231
 8515SOL    HW226967   6.999   9.151   8.291  1.0123 -0.5130 -1.1385
 8516SOL     OW26968   6.368   2.549   6.956 -0.3147 -0.1195  0.0746
 8516SOL    HW126969   6.274   2.532   6.952 -0.3254 -0.4721  1.3569
 8516SOL    HW226970   6.382   2.589   7.042  0.6496  0.3240 -0.2705
 8517SOL     OW26971   1.026   2.517   4.462 -0.5373  0.4484  0.2865
 8517SOL    HW126972   1.042   2.565   4.381  0.2284  2.3985  1.5082
 8517SOL    HW226973   0.978   2.439   4.435 -1.6152  1.7613 -1.8659
 8518SOL     OW26974   5.862   7.322   0.837  0.3253  0.2916 -0.1550
 8518SOL    HW126975   5.955   7.325   0.814  0.2397 -1.5921 -0.9176
 8518SOL    HW226976   5.826   7.403   0.800  1.6303  1.0594  0.1618
 8519SOL     OW26977   0.142   7.263   8.462  0.4896 -0.1956  0.0407
 8519SOL    HW126978   0.215   7.311   8.422  0.8679 -0.4147  0.4627
 8519SOL    HW226979   0.129   7.305   8.546 -0.9446  0.8989 -0.6748
 8520SOL     OW26980   1.239   0.814   0.963  0.2170 -0.3602  0.0378
 8520SOL    HW126981   1.253   0.749   0.894  0.5477  0.6099 -0.8499
 8520SOL    HW226982   1.164   0.866   0.932  0.0416 -0.2316  0.6639
 8521SOL     OW26983   1.346   1.978   3.811  0.7412 -0.1950  0.0675
 8521SOL    HW126984   1.399   1.961   3.734  1.6406  0.2024  0.5870
 8521SOL    HW226985   1.262   1.936   3.792  0.7160  0.4655 -1.4000
 8522SOL     OW26986   1.787   1.807   3.660  0.1236  0.0517 -0.5128
 8522SOL    HW126987   1.750   1.846   3.738 -0.5845 -2.0282  0.2642
 8522SOL    HW226988   1.838   1.877   3.619 -0.5797  1.5493  1.0786
 8523SOL     OW26989   3.157   3.989   4.379  0.1174  0.0088 -0.1260
 8523SOL    HW126990   3.210   4.021   4.452  1.3937  0.1749 -1.0679
 8523SOL    HW226991   3.149   3.895   4.394  0.1162  0.0844  0.3681
 8524SOL     OW26992   7.427   5.377   3.810 -0.0807  0.0170 -0.6062
 8524SOL    HW126993   7.456   5.418   3.729 -0.2449  0.0076 -0.6694
 8524SOL    HW226994   7.345   5.333   3.787 -0.1541  0.0572 -0.4241
 8525SOL     OW26995   7.326   3.099   3.331  0.1242 -0.0168 -0.6097
 8525SOL    HW126996   7.270   3.022   3.321 -0.2105  0.1098  0.1860
 8525SOL    HW226997   7.387   3.095   3.257  1.0037 -1.7855  0.1461
 8526SOL     OW26998   2.986   8.956   1.110 -0.9244 -0.2072  0.6064
 8526SOL    HW126999   3.055   9.002   1.158  0.5568 -0.4798 -1.1641
 8526SOL    HW227000   2.931   8.917   1.178 -0.6648  1.8900  2.1142
 8527SOL     OW27001   5.694   6.102   7.756 -0.0082  0.4524  0.1334
 8527SOL    HW127002   5.670   6.182   7.803  0.6367  0.5661  0.2787
 8527SOL    HW227003   5.730   6.045   7.824  2.0496  1.0667 -0.3894
 8528SOL     OW27004   4.342   6.826   3.516  0.1524 -0.2754 -0.2037
 8528SOL    HW127005   4.284   6.898   3.491  0.6963  0.0572 -0.5173
 8528SOL    HW227006   4.298   6.786   3.591 -1.2181 -0.9418 -1.3064
 8529SOL     OW27007   1.743   0.291   6.889  0.4154  0.0786  0.4925
 8529SOL    HW127008   1.703   0.311   6.804  2.5813 -2.4643 -1.2913
 8529SOL    HW227009   1.762   0.376   6.928 -2.9179  1.3582 -0.3263
 8530SOL     OW27010   6.160   9.033   0.345 -0.6579  0.1156  0.1665
 8530SOL    HW127011   6.082   8.995   0.305  1.5525 -1.9172 -2.6972
 8530SOL    HW227012   6.167   8.990   0.430 -1.2253 -1.8361 -0.7134
 8531SOL     OW27013   8.788   0.871   8.452 -0.2465  0.5015 -0.1846
 8531SOL    HW127014   8.751   0.790   8.416 -1.8299  0.1850  1.9276
 8531SOL    HW227015   8.841   0.843   8.526  2.1388  1.2019 -1.5169
 8532SOL     OW27016   0.549   5.658   4.281  0.0390 -0.7831 -0.3422
 8532SOL    HW127017   0.482   5.721   4.256  0.9179  0.3903  0.1928
 8532SOL    HW227018   0.542   5.589   4.215 -0.7078  0.0338 -1.1475
 8533SOL     OW27019   1.357   8.474   7.732 -0.3496  0.0748  0.4264
 8533SOL    HW127020   1.423   8.523   7.782  1.5596 -1.8631 -0.0314
 8533SOL    HW227021   1.372   8.383   7.756 -1.1033 -0.6749 -1.7150
 8534SOL     OW27022   5.969   7.254   6.851  0.1613  0.2317  0.7430
 8534SOL    HW127023   6.027   7.252   6.927 -0.9734  0.6445  1.6504
 8534SOL    HW227024   5.987   7.339   6.810 -0.2996  0.6829  1.4445
 8535SOL     OW27025   0.325   6.972   7.733 -0.0999  0.3306  0.2431
 8535SOL    HW127026   0.263   6.915   7.687  0.2197 -0.2553  0.5299
 8535SOL    HW227027   0.300   7.060   7.706 -1.0924  0.1084  0.3884
 8536SOL     OW27028   8.136   9.244   7.601  0.4136  0.3598 -0.5787
 8536SOL    HW127029   8.117   9.192   7.523  1.1406 -2.7612  1.1579
 8536SOL    HW227030   8.050   9.261   7.641  0.2223 -0.7133 -0.5032
 8537SOL     OW27031   1.071   4.537   7.937  0.0697  0.2973  0.0537
 8537SOL    HW127032   1.047   4.558   7.847  0.1822  1.7499  0.3450
 8537SOL    HW227033   1.103   4.619   7.973 -0.3404 -0.1710  1.5405
 8538SOL     OW27034   8.675   5.554   0.761 -0.1519 -0.3172 -0.1766
 8538SOL    HW127035   8.733   5.619   0.800 -0.8965  0.1402  0.1992
 8538SOL    HW227036   8.696   5.472   0.806  0.9504 -0.4062 -0.8127
 8539SOL     OW27037   4.202   8.593   1.180  0.2854 -0.3272 -0.2734
 8539SOL    HW127038   4.111   8.596   1.149  0.2925 -1.4121 -0.4434
 8539SOL    HW227039   4.245   8.530   1.121  0.1172 -3.1017  2.3220
 8540SOL     OW27040   4.314   9.182   2.844 -0.0899  0.2076 -0.7017
 8540SOL    HW127041   4.326   9.240   2.769 -0.0945  1.3150  0.1289
 8540SOL    HW227042   4.403   9.160   2.872 -0.0156  1.8603  0.4964
 8541SOL     OW27043   2.915   3.211   3.162  0.3656 -0.7175 -0.9056
 8541SOL    HW127044   2.846   3.224   3.098 -0.2511 -1.4244 -0.4067
 8541SOL    HW227045   2.873   3.225   3.247  0.5285 -2.2586 -0.5328
 8542SOL     OW27046   8.886   7.139   7.520 -0.4232 -0.3442 -0.3082
 8542SOL    HW127047   8.961   7.099   7.474  0.1242  0.8904 -0.5286
 8542SOL    HW227048   8.887   7.098   7.607 -0.2796 -1.2710 -0.7326
 8543SOL     OW27049   7.941   4.462   0.139  0.1698 -0.1234 -0.3406
 8543SOL    HW127050   8.020   4.439   0.090 -0.3676  0.0566 -1.3124
 8543SOL    HW227051   7.887   4.511   0.077 -1.7158 -2.1815 -0.4877
 8544SOL     OW27052   0.820   9.130   3.430  0.1780 -0.0728  0.3415
 8544SOL    HW127053   0.851   9.107   3.518 -0.0982 -0.5474  0.3188
 8544SOL    HW227054   0.885   9.193   3.397  1.2975 -1.2829  0.1616
 8545SOL     OW27055   6.614   8.745   6.462 -0.0226 -0.2755  0.5100
 8545SOL    HW127056   6.584   8.800   6.534  1.4402  1.9457 -0.4970
 8545SOL    HW227057   6.704   8.720   6.486  0.4372  0.3831 -0.4607
 8546SOL     OW27058   0.267   8.238   2.193  0.0977  0.0575  0.0979
 8546SOL    HW127059   0.264   8.333   2.181  0.6766 -0.2401 -3.4378
 8546SOL    HW227060   0.360   8.218   2.203  0.2805 -0.3021 -1.9139
 8547SOL     OW27061   1.908   5.653   6.017 -0.0837  0.5041 -0.0823
 8547SOL    HW127062   1.820   5.618   6.030 -0.0031 -0.1933 -1.3263
 8547SOL    HW227063   1.966   5.584   6.049  0.0298  1.3190  1.5742
 8548SOL     OW27064   0.165   0.832   6.121  0.0171  0.0102  0.1746
 8548SOL    HW127065   0.160   0.815   6.215  0.5691 -1.5982 -0.0502
 8548SOL    HW227066   0.182   0.925   6.114 -1.7604  0.5060  1.6120
 8549SOL     OW27067   5.464   3.849   4.349  0.0072  0.3912  0.3350
 8549SOL    HW127068   5.488   3.895   4.269  0.1000  0.2857  0.3022
 8549SOL    HW227069   5.468   3.756   4.325 -0.5830  0.3737  0.2823
 8550SOL     OW27070   4.795   7.413   2.840  0.8299 -0.3420  0.1616
 8550SOL    HW127071   4.826   7.354   2.909  0.8315 -1.1895 -0.5395
 8550SOL    HW227072   4.834   7.378   2.759 -0.6384 -0.4836 -0.5192
 8551SOL     OW27073   2.136   5.560   1.852  0.2160  0.0119 -0.4576
 8551SOL    HW127074   2.083   5.621   1.801 -0.5275  0.6284  0.9913
 8551SOL    HW227075   2.192   5.517   1.787 -2.2289 -0.8914 -2.1213
 8552SOL     OW27076   6.227   1.975   0.651 -0.2092  0.4687  0.0344
 8552SOL    HW127077   6.271   1.935   0.576 -0.6213  0.4126 -0.1754
 8552SOL    HW227078   6.274   1.940   0.727  0.3252  0.6661 -0.1991
 8553SOL     OW27079   2.198   7.206   3.555  0.0323 -0.8642  0.3559
 8553SOL    HW127080   2.123   7.206   3.615 -1.4162 -0.8466 -1.3822
 8553SOL    HW227081   2.214   7.114   3.536  1.2355 -0.9461  1.5952
 8554SOL     OW27082   6.441   8.402   0.945  0.7904 -0.0124 -0.2152
 8554SOL    HW127083   6.443   8.336   1.014 -1.6651 -0.7199 -0.7524
 8554SOL    HW227084   6.501   8.368   0.878  2.9954  0.5581  1.3552
 8555SOL     OW27085   7.436   1.369   8.768  0.8551 -0.3510  0.4408
 8555SOL    HW127086   7.358   1.414   8.799  1.5739 -0.0336  1.8856
 8555SOL    HW227087   7.472   1.327   8.846  2.2619 -0.2720 -0.1269
 8556SOL     OW27088   8.871   4.731   3.650  0.5958 -0.1939 -0.2241
 8556SOL    HW127089   8.823   4.743   3.568  1.4994  0.6401 -0.6500
 8556SOL    HW227090   8.909   4.644   3.644  3.5052  1.0569 -2.2835
 8557SOL     OW27091   1.577   4.563   0.243 -0.2725 -0.1234  0.2701
 8557SOL    HW127092   1.497   4.509   0.238 -0.1856 -0.1977 -0.5776
 8557SOL    HW227093   1.648   4.502   0.224 -0.3545  0.6771 -3.3390
 8558SOL     OW27094   8.545   7.619   3.999 -0.0610  0.0814 -0.3058
 8558SOL    HW127095   8.493   7.585   3.926  0.8970  1.2596 -1.5970
 8558SOL    HW227096   8.588   7.541   4.035 -1.8247 -0.7476  0.0932
 8559SOL     OW27097   2.661   0.563   6.271 -0.0068 -0.3726  0.7894
 8559SOL    HW127098   2.693   0.524   6.190 -1.4861  0.1166 -0.0652
 8559SOL    HW227099   2.661   0.657   6.254  1.2053 -0.1243  1.9625
 8560SOL     OW27100   1.307   5.755   3.715 -0.3846  0.6241  0.5032
 8560SOL    HW127101   1.283   5.818   3.648  1.6522 -0.9793 -1.9261
 8560SOL    HW227102   1.230   5.699   3.724 -1.3401  1.9559  0.9287
 8561SOL     OW27103   0.648   1.310   3.007 -0.0038  0.3040  0.0104
 8561SOL    HW127104   0.733   1.345   3.034  0.1408  0.6786 -0.8788
 8561SOL    HW227105   0.638   1.340   2.917 -0.9750  0.0529  0.0286
 8562SOL     OW27106   4.602   8.113   8.969 -0.4428  0.2136 -0.1861
 8562SOL    HW127107   4.637   8.120   9.057  0.4264 -0.8486 -0.4336
 8562SOL    HW227108   4.636   8.191   8.923  0.6025 -0.1733 -0.0850
 8563SOL     OW27109   0.523   2.842   8.619  0.1666 -0.0343  0.0967
 8563SOL    HW127110   0.585   2.840   8.692 -1.2622 -0.5682  1.3296
 8563SOL    HW227111   0.574   2.810   8.544  1.2257 -0.9957  1.1897
 8564SOL     OW27112   0.982   8.738   7.226 -0.4132  0.2240  0.2818
 8564SOL    HW127113   1.013   8.795   7.156  1.4655  2.9029  3.0900
 8564SOL    HW227114   0.933   8.795   7.284  1.0246 -1.0817  2.9431
 8565SOL     OW27115   6.710   1.013   4.130 -0.0389  0.5896 -0.2361
 8565SOL    HW127116   6.765   0.957   4.184  0.4258  1.1733 -0.0927
 8565SOL    HW227117   6.715   0.974   4.042 -0.0949  0.1455 -0.0458
 8566SOL     OW27118   0.540   1.652   0.491  0.4482 -0.0902  0.1824
 8566SOL    HW127119   0.548   1.557   0.499  2.1797 -0.3641 -3.0302
 8566SOL    HW227120   0.624   1.686   0.522  0.4585  0.2444 -0.2046
 8567SOL     OW27121   2.193   2.599   9.187  0.7912 -0.3130 -0.1465
 8567SOL    HW127122   2.187   2.678   9.240 -0.3366 -0.3541 -0.1797
 8567SOL    HW227123   2.281   2.566   9.203  1.2114  0.8347  0.0229
 8568SOL     OW27124   0.433   9.091   2.702 -0.3533 -0.2822 -0.3369
 8568SOL    HW127125   0.527   9.110   2.691 -0.3046  0.2783  0.8971
 8568SOL    HW227126   0.417   9.015   2.646  0.5638  0.3635 -1.5304
 8569SOL     OW27127   5.713   0.169   4.375  0.1604 -0.4158  0.1814
 8569SOL    HW127128   5.765   0.092   4.351  1.1962 -0.0130  1.0565
 8569SOL    HW227129   5.626   0.134   4.393  0.7499 -1.4933  1.0965
 8570SOL     OW27130   0.907   2.424   3.225  0.2648 -0.3072 -0.5031
 8570SOL    HW127131   0.965   2.350   3.243  1.6379  0.5412 -1.2144
 8570SOL    HW227132   0.828   2.385   3.188  0.5914 -1.4690 -0.0067
 8571SOL     OW27133   5.853   8.880   1.551  0.0222  0.1635 -0.3904
 8571SOL    HW127134   5.809   8.829   1.619 -1.4498  0.4642 -1.0901
 8571SOL    HW227135   5.842   8.971   1.578 -0.4418  0.2779 -0.9543
 8572SOL     OW27136   7.429   1.761   0.890 -0.0584 -0.6171 -0.0468
 8572SOL    HW127137   7.496   1.716   0.839 -0.0303 -1.5042  0.7428
 8572SOL    HW227138   7.412   1.702   0.964 -0.7324  0.2271  0.4845
 8573SOL     OW27139   4.375   0.661   8.824  0.1282 -0.4667  0.1104
 8573SOL    HW127140   4.327   0.578   8.814 -1.7714  0.5938 -0.0938
 8573SOL    HW227141   4.412   0.677   8.737  0.0903 -0.8621  0.0194
 8574SOL     OW27142   5.984   1.263   3.979  0.8370  0.2937  0.7484
 8574SOL    HW127143   5.948   1.249   3.891  1.1162 -0.5820  0.7619
 8574SOL    HW227144   6.066   1.310   3.965  0.4289  0.9830  0.6149
 8575SOL     OW27145   2.963   0.761   2.388 -0.1955  0.0316 -0.3171
 8575SOL    HW127146   2.967   0.816   2.309 -4.0198  0.6966 -0.2329
 8575SOL    HW227147   2.953   0.672   2.354  0.8535 -0.0310 -0.5027
 8576SOL     OW27148   4.941   7.680   7.357 -0.2106  0.0430 -0.0108
 8576SOL    HW127149   4.988   7.729   7.289 -0.1060  3.1700  2.1359
 8576SOL    HW227150   4.940   7.590   7.324  2.3111  0.8511 -2.7883
 8577SOL     OW27151   8.107   8.719   6.662 -0.4848 -0.1655 -0.1002
 8577SOL    HW127152   8.022   8.737   6.622 -0.6390 -1.9216 -0.6546
 8577SOL    HW227153   8.124   8.795   6.718 -0.5148  2.1689 -3.0235
 8578SOL     OW27154   7.336   2.690   8.906 -0.4137  0.0963 -0.0063
 8578SOL    HW127155   7.307   2.742   8.831  1.7715  1.2312 -0.1302
 8578SOL    HW227156   7.354   2.604   8.870 -2.1783 -0.2451 -0.1764
 8579SOL     OW27157   1.193   1.010   6.246  0.3936  0.3234  0.2736
 8579SOL    HW127158   1.269   1.050   6.288  0.7053 -0.6794  0.7111
 8579SOL    HW227159   1.231   0.952   6.180  0.0316 -0.4673  0.7497
 8580SOL     OW27160   7.441   5.509   6.345 -0.0157  0.0878  0.2947
 8580SOL    HW127161   7.466   5.524   6.253 -2.1204  2.7975  0.0587
 8580SOL    HW227162   7.348   5.486   6.341  0.2804 -1.5657  1.7009
 8581SOL     OW27163   1.036   5.849   0.508 -0.3789  0.1259  0.1758
 8581SOL    HW127164   1.075   5.815   0.589 -0.5253  0.4693  0.3922
 8581SOL    HW227165   1.091   5.923   0.484 -0.4035  0.0948  0.0238
 8582SOL     OW27166   1.804   7.566   0.450  0.3519  0.4389 -0.0471
 8582SOL    HW127167   1.858   7.571   0.371  1.0995 -0.0119  0.4316
 8582SOL    HW227168   1.762   7.480   0.445  0.3437  0.4393  0.0136
 8583SOL     OW27169   8.646   0.883   9.005 -0.3169  0.2628 -0.3764
 8583SOL    HW127170   8.649   0.860   8.912 -2.2640 -1.0972 -0.1754
 8583SOL    HW227171   8.554   0.907   9.021 -0.3463 -0.8112  1.4418
 8584SOL     OW27172   4.887   6.035   2.239  0.6525  0.5136  0.4753
 8584SOL    HW127173   4.815   6.059   2.181  1.3805  2.0361  0.1501
 8584SOL    HW227174   4.844   5.998   2.317 -0.3867 -0.1821 -0.4036
 8585SOL     OW27175   4.048   7.309   9.197  0.0035  0.3710 -0.6332
 8585SOL    HW127176   4.030   7.242   9.263 -1.3589  1.2563 -0.0638
 8585SOL    HW227177   4.035   7.392   9.242  0.0526  1.0088 -1.7547
 8586SOL     OW27178   2.862   6.204   4.808 -0.1435 -0.6939  0.5019
 8586SOL    HW127179   2.884   6.165   4.724  0.2758  1.8375 -0.6393
 8586SOL    HW227180   2.832   6.130   4.861  1.8433 -2.7659 -1.0415
 8587SOL     OW27181   8.556   8.432   4.444  0.0751  0.2269 -0.4878
 8587SOL    HW127182   8.604   8.505   4.406 -0.1104  1.5173  1.6150
 8587SOL    HW227183   8.471   8.469   4.468 -0.8165 -1.2325 -1.2787
 8588SOL     OW27184   3.227   2.324   4.478  0.2535  1.0026 -0.3596
 8588SOL    HW127185   3.319   2.337   4.452  0.6707  0.4993  0.8093
 8588SOL    HW227186   3.209   2.232   4.457  0.0945  1.0320 -0.3536
 8589SOL     OW27187   7.924   2.334   7.197  0.2076 -0.5555 -0.1755
 8589SOL    HW127188   7.909   2.352   7.104 -2.3028  0.5228  0.3572
 8589SOL    HW227189   7.982   2.405   7.225  0.3610 -0.4485 -0.7405
 8590SOL     OW27190   1.463   2.909   1.201  0.1328 -0.0061  0.0627
 8590SOL    HW127191   1.453   2.952   1.286  0.0175  0.7373 -0.3167
 8590SOL    HW227192   1.376   2.871   1.183  0.0398  0.1913  0.0905
 8591SOL     OW27193   7.014   6.142   2.212  0.3415  0.0028 -0.0559
 8591SOL    HW127194   7.076   6.089   2.262  0.8301  0.6606  0.0475
 8591SOL    HW227195   6.928   6.107   2.236  0.6595 -0.7696 -0.0316
 8592SOL     OW27196   9.114   5.544   1.142 -0.0756  0.0178  0.0405
 8592SOL    HW127197   9.172   5.477   1.107  1.0367  0.5011  0.8957
 8592SOL    HW227198   9.039   5.545   1.082  0.7546 -0.6783 -1.0417
 8593SOL     OW27199   6.711   0.403   0.743 -0.2656  0.4104 -0.2724
 8593SOL    HW127200   6.755   0.459   0.807 -0.6275  0.1736  0.1823
 8593SOL    HW227201   6.779   0.342   0.714 -0.4452 -0.3596  0.8866
 8594SOL     OW27202   8.821   5.831   2.964 -0.1528 -0.4748 -0.1902
 8594SOL    HW127203   8.776   5.890   2.903  0.1232 -0.9194 -0.8419
 8594SOL    HW227204   8.852   5.888   3.034  0.3897  0.2134 -0.9619
 8595SOL     OW27205   3.674   3.438   2.208  0.1316 -0.1813  0.2419
 8595SOL    HW127206   3.609   3.375   2.241  0.4813 -0.4946  0.3356
 8595SOL    HW227207   3.754   3.416   2.255  0.1921  0.5096  0.4699
 8596SOL     OW27208   6.862   0.299   7.081  0.0959  0.1916  0.6185
 8596SOL    HW127209   6.798   0.335   7.020  0.9392  0.6086 -0.0414
 8596SOL    HW227210   6.820   0.308   7.167 -0.9733 -0.1114  0.1485
 8597SOL     OW27211   0.749   3.000   2.217  0.3836  0.5276 -0.1450
 8597SOL    HW127212   0.804   3.036   2.287  1.9161  0.9695 -1.5006
 8597SOL    HW227213   0.746   2.906   2.234  0.9093  0.6089  0.4189
 8598SOL     OW27214   1.963   7.656   0.006 -0.3522  0.4682  0.2442
 8598SOL    HW127215   1.872   7.665   0.034 -0.8111 -3.4093  0.5111
 8598SOL    HW227216   1.957   7.624  -0.084  0.7871  0.7793  0.0469
 8599SOL     OW27217   6.427   5.294   0.398  0.1558 -0.0086  0.7310
 8599SOL    HW127218   6.402   5.248   0.478  1.1220 -1.0334  0.4649
 8599SOL    HW227219   6.376   5.251   0.329  0.0938  0.1961  0.6466
 8600SOL     OW27220   8.287   7.980   1.217  0.2315  0.1362  0.2901
 8600SOL    HW127221   8.290   8.074   1.235  0.2197  0.0752  0.6138
 8600SOL    HW227222   8.229   7.972   1.141 -2.4545  0.1077  2.2051
 8601SOL     OW27223   2.745   2.913   2.688  0.3263  0.2064  0.4928
 8601SOL    HW127224   2.811   2.928   2.620  1.6175 -1.6283  1.2587
 8601SOL    HW227225   2.795   2.903   2.769 -0.7512 -2.1620  0.9606
 8602SOL     OW27226   8.502   3.610   7.284  0.8870 -0.6692  0.1804
 8602SOL    HW127227   8.502   3.672   7.210 -1.1060 -0.7345  0.0618
 8602SOL    HW227228   8.586   3.625   7.328  0.8518  1.5076 -0.3608
 8603SOL     OW27229   0.813   5.757   9.000  0.0411  0.0588  0.0467
 8603SOL    HW127230   0.893   5.731   9.046  1.0262  0.6494 -1.2595
 8603SOL    HW227231   0.835   5.750   8.907 -2.0903 -1.7589 -0.4255
 8604SOL     OW27232   4.015   1.690   0.375  0.1522  0.3408 -0.0970
 8604SOL    HW127233   4.106   1.710   0.353  0.2867 -1.0310 -0.9165
 8604SOL    HW227234   3.965   1.762   0.337  0.9937  2.0956  1.9601
 8605SOL     OW27235   5.764   0.993   3.910  0.2849 -0.3132  0.1784
 8605SOL    HW127236   5.706   0.919   3.889  1.8125 -1.7875  0.9352
 8605SOL    HW227237   5.811   0.965   3.988  2.6910  0.4040 -0.9147
 8606SOL     OW27238   6.252   4.052   8.321 -0.1538  0.0357 -0.5006
 8606SOL    HW127239   6.337   4.021   8.353 -0.0612  0.6338 -0.1619
 8606SOL    HW227240   6.214   3.975   8.278  0.9279 -0.0306 -1.4226
 8607SOL     OW27241   5.396   7.437   5.481 -0.0160  0.1215 -0.4408
 8607SOL    HW127242   5.359   7.431   5.392 -1.6041  0.1858  0.1737
 8607SOL    HW227243   5.342   7.503   5.524  0.6416 -0.0194  0.6160
 8608SOL     OW27244   2.130   1.986   4.446  0.0812 -0.4415 -0.3393
 8608SOL    HW127245   2.224   1.993   4.433  0.3699 -2.4388  0.3842
 8608SOL    HW227246   2.114   2.027   4.531  0.2336  0.1220 -0.5742
 8609SOL     OW27247   4.008   2.430   4.435 -0.0975  0.2821  0.4819
 8609SOL    HW127248   4.055   2.393   4.360  0.5974 -0.7067  1.3794
 8609SOL    HW227249   3.923   2.455   4.399  0.8272  1.4576 -1.0183
 8610SOL     OW27250   3.222   3.129   2.589  0.4805  0.3624  0.3975
 8610SOL    HW127251   3.253   3.146   2.500  2.3514 -1.0154  0.7261
 8610SOL    HW227252   3.281   3.178   2.646 -0.7811  1.3414  0.9150
 8611SOL     OW27253   1.618   7.818   3.982  0.4728 -0.0533 -0.4400
 8611SOL    HW127254   1.648   7.869   4.058  1.7828 -1.7896  0.2576
 8611SOL    HW227255   1.698   7.790   3.938 -0.2597  0.9091 -2.5201
 8612SOL     OW27256   7.917   1.009   5.655 -0.0816 -0.0444  0.0080
 8612SOL    HW127257   7.838   1.063   5.664 -0.1320 -0.2844  1.2154
 8612SOL    HW227258   7.982   1.069   5.619 -1.0096 -0.0586 -1.7891
 8613SOL     OW27259   6.542   3.601   2.647  0.4729  0.2805 -0.0384
 8613SOL    HW127260   6.558   3.569   2.735  0.2971  3.1985  1.1676
 8613SOL    HW227261   6.629   3.617   2.611  0.5660  1.5458  0.6660
 8614SOL     OW27262   0.482   1.081   7.255 -0.4509 -0.2423  0.1972
 8614SOL    HW127263   0.400   1.124   7.278 -0.2662  0.6007 -0.6761
 8614SOL    HW227264   0.460   1.026   7.180 -0.1958  0.0845 -0.1194
 8615SOL     OW27265   9.178   8.118   0.070  0.0045 -0.2004 -0.1580
 8615SOL    HW127266   9.255   8.071   0.100 -0.1680  0.1296  0.8729
 8615SOL    HW227267   9.210   8.206   0.049 -0.3407  0.4917  1.9787
 8616SOL     OW27268   1.310   5.988   2.582  0.1152  0.3570 -0.4378
 8616SOL    HW127269   1.302   5.985   2.487 -1.5080 -0.3431 -0.3021
 8616SOL    HW227270   1.292   5.899   2.611 -0.2193  0.7351  0.5810
 8617SOL     OW27271   0.922   8.657   7.568 -0.4787 -0.0595 -0.3250
 8617SOL    HW127272   0.952   8.748   7.559  1.1116 -0.5655 -0.4613
 8617SOL    HW227273   0.992   8.613   7.617 -0.7653 -1.4159 -1.0698
 8618SOL     OW27274   7.428   5.873   0.279 -0.0067  0.3037  0.3740
 8618SOL    HW127275   7.339   5.877   0.313 -0.7211  0.5729 -1.3860
 8618SOL    HW227276   7.478   5.827   0.346 -1.7883 -1.1466  0.7650
 8619SOL     OW27277   9.182   8.569   5.580 -0.6112  0.2452  0.1181
 8619SOL    HW127278   9.141   8.652   5.555 -0.8726 -0.0128 -0.3037
 8619SOL    HW227279   9.187   8.574   5.676  1.5084  1.7704  0.0171
 8620SOL     OW27280   2.325   2.590   8.257  0.1644  0.2842  0.0351
 8620SOL    HW127281   2.298   2.621   8.170  1.4511 -1.3392 -1.0128
 8620SOL    HW227282   2.272   2.640   8.318 -2.8076 -0.4431 -1.7530
 8621SOL     OW27283   1.982   0.591   1.861 -0.0972 -0.1341  0.3711
 8621SOL    HW127284   1.968   0.640   1.779 -0.0292 -0.5167  0.1265
 8621SOL    HW227285   2.073   0.609   1.883  0.3442 -1.2456 -0.4652
 8622SOL     OW27286   6.613   0.582   0.551  0.1131 -0.2040  0.0672
 8622SOL    HW127287   6.664   0.506   0.580 -1.1381 -0.9103  0.5069
 8622SOL    HW227288   6.575   0.554   0.468  1.9214  1.0161 -1.2554
 8623SOL     OW27289   6.787   8.456   3.252  0.3170  0.3312 -0.0261
 8623SOL    HW127290   6.849   8.523   3.280 -0.9235  0.6009  2.3338
 8623SOL    HW227291   6.728   8.446   3.327 -2.1450 -0.2961 -1.9316
 8624SOL     OW27292   4.760   7.067   2.473  0.0583  0.4316  0.7527
 8624SOL    HW127293   4.786   7.064   2.381  0.0772  1.4036  0.7168
 8624SOL    HW227294   4.764   6.976   2.502 -2.3872 -0.2774 -0.8680
 8625SOL     OW27295   3.266   8.224   9.208  0.0390  0.2902  0.4789
 8625SOL    HW127296   3.285   8.252   9.298 -0.4816  0.2659  0.6010
 8625SOL    HW227297   3.275   8.304   9.156  0.3567  0.3015  0.5541
 8626SOL     OW27298   4.355   6.880   0.166 -1.0070 -0.0084 -0.2351
 8626SOL    HW127299   4.314   6.832   0.095 -0.1074 -1.1208 -0.0478
 8626SOL    HW227300   4.307   6.852   0.244  1.3912 -3.2006  0.3481
 8627SOL     OW27301   1.580   2.466   1.581  0.0785 -0.3816 -0.2653
 8627SOL    HW127302   1.671   2.486   1.559 -0.0465 -0.5090 -0.9135
 8627SOL    HW227303   1.552   2.404   1.514 -0.1647 -1.1824  0.5531
 8628SOL     OW27304   8.351   4.180   0.936 -0.1582  0.0331 -0.3441
 8628SOL    HW127305   8.300   4.203   0.858 -1.4859  0.4994  0.6273
 8628SOL    HW227306   8.435   4.150   0.901 -1.0423 -0.6613 -1.9955
 8629SOL     OW27307   3.155   6.240   2.674  0.2231 -0.1138  0.3870
 8629SOL    HW127308   3.219   6.242   2.745 -0.5425  0.3340  1.0936
 8629SOL    HW227309   3.083   6.187   2.708 -0.4215  0.6092  0.1939
 8630SOL     OW27310   4.109   2.352   4.158 -0.8140  0.2181  0.4601
 8630SOL    HW127311   4.182   2.339   4.098 -1.7684 -1.8268 -0.3370
 8630SOL    HW227312   4.090   2.446   4.153  0.4981  0.4498 -0.7878
 8631SOL     OW27313   4.811   8.157   3.089  0.4269 -0.1344  0.2931
 8631SOL    HW127314   4.776   8.159   3.178  2.0525 -1.7336  1.0551
 8631SOL    HW227315   4.767   8.082   3.049  1.4701 -0.9567  0.6223
 8632SOL     OW27316   1.298   4.747   7.196 -0.0654 -0.0129  0.3560
 8632SOL    HW127317   1.279   4.837   7.168 -1.2824 -0.5084 -0.4824
 8632SOL    HW227318   1.391   4.749   7.220 -0.0433  1.4412  0.2644
 8633SOL     OW27319   8.579   7.036   8.250 -0.5492 -0.1791  0.1702
 8633SOL    HW127320   8.570   7.053   8.343  0.5430 -0.7201  0.3806
 8633SOL    HW227321   8.569   6.941   8.241  1.1874 -0.3655 -0.0187
 8634SOL     OW27322   6.061   0.224   0.777  0.0945 -0.0460 -0.1515
 8634SOL    HW127323   6.139   0.179   0.743  1.2241  0.3810  1.7230
 8634SOL    HW227324   6.026   0.164   0.843 -0.6602  0.1712 -0.3429
 8635SOL     OW27325   6.361   3.616   1.513 -0.2050  0.2661  0.3397
 8635SOL    HW127326   6.440   3.631   1.566 -0.9905  0.8607  1.3760
 8635SOL    HW227327   6.359   3.522   1.500  0.8408  0.2697  0.0407
 8636SOL     OW27328   5.946   3.567   5.534 -0.1853 -0.0997 -0.0719
 8636SOL    HW127329   5.945   3.483   5.578 -1.7048 -0.5635 -0.9050
 8636SOL    HW227330   5.931   3.631   5.604  1.0012 -0.4948  0.5652
 8637SOL     OW27331   0.753   3.373   8.097 -0.1432  0.6350 -0.0825
 8637SOL    HW127332   0.800   3.306   8.047 -0.2902  1.4929 -1.4029
 8637SOL    HW227333   0.713   3.324   8.169  3.9973  0.0653  2.1001
 8638SOL     OW27334   4.518   2.497   7.410  0.3680 -0.0164  1.3698
 8638SOL    HW127335   4.530   2.419   7.357 -0.5682 -0.4979  1.8274
 8638SOL    HW227336   4.603   2.511   7.452  0.6140 -0.6490  1.1007
 8639SOL     OW27337   0.037   5.525   8.354  0.2617 -0.0757 -0.0276
 8639SOL    HW127338   0.114   5.581   8.364  0.1832 -0.1364  1.0198
 8639SOL    HW227339  -0.028   5.564   8.412 -0.6585  0.2246 -1.2249
 8640SOL     OW27340   3.687   2.640   6.498 -0.2264  0.4082  0.1992
 8640SOL    HW127341   3.650   2.639   6.586 -0.8883  1.1913 -0.0660
 8640SOL    HW227342   3.632   2.580   6.448 -0.6695  0.9911 -0.0100
 8641SOL     OW27343   2.604   3.882   2.334  0.5540 -0.3741 -0.3839
 8641SOL    HW127344   2.538   3.880   2.265  1.0655 -0.1983 -0.8816
 8641SOL    HW227345   2.619   3.975   2.351  0.2964 -0.4193  0.0921
 8642SOL     OW27346   5.592   0.396   4.604 -0.1501  0.0443 -0.1462
 8642SOL    HW127347   5.592   0.474   4.549  0.3712 -0.5963 -1.1013
 8642SOL    HW227348   5.685   0.373   4.611  0.1840  1.8735  3.6584
 8643SOL     OW27349   4.459   3.942   8.807 -0.3520 -0.2812 -0.4738
 8643SOL    HW127350   4.401   4.014   8.834 -0.4093 -0.7255  0.6203
 8643SOL    HW227351   4.518   3.929   8.881 -0.4348 -1.4590 -0.5950
 8644SOL     OW27352   8.490   3.686   5.167 -0.1316 -0.4640 -0.4507
 8644SOL    HW127353   8.513   3.607   5.119  1.9481  0.5488 -1.2722
 8644SOL    HW227354   8.541   3.682   5.247  0.2614  0.1752 -0.6540
 8645SOL     OW27355   8.634   5.082   2.825  0.0743 -0.1188 -0.5033
 8645SOL    HW127356   8.596   5.169   2.836  1.1185  0.6604 -2.5622
 8645SOL    HW227357   8.702   5.077   2.892  0.9105  1.2306 -1.2040
 8646SOL     OW27358   4.177   0.016   2.041 -0.1775  0.0075  0.0092
 8646SOL    HW127359   4.092  -0.027   2.033  0.2439 -0.8903  0.1601
 8646SOL    HW227360   4.233  -0.050   2.082  0.4991  0.7124  0.2375
 8647SOL     OW27361   7.589   7.872   8.289 -0.1944 -0.3070 -0.2313
 8647SOL    HW127362   7.674   7.899   8.324 -0.1795 -0.4590 -0.1479
 8647SOL    HW227363   7.589   7.777   8.297 -0.4557 -0.2933 -0.0383
 8648SOL     OW27364   2.406   1.932   3.890 -0.0409  0.1798  0.2617
 8648SOL    HW127365   2.413   2.027   3.886  2.3870  0.0343 -0.5353
 8648SOL    HW227366   2.492   1.902   3.919 -0.8201 -1.7794  0.7431
 8649SOL     OW27367   2.004   4.875   3.384 -0.3812 -0.4972 -0.5631
 8649SOL    HW127368   1.993   4.968   3.407 -1.6817 -0.9563  0.8173
 8649SOL    HW227369   2.098   4.865   3.370  0.0032  0.6690  0.9466
 8650SOL     OW27370   2.671   0.647   2.742 -0.6530  0.9696  0.5319
 8650SOL    HW127371   2.595   0.617   2.692 -1.8855  2.0812  1.6674
 8650SOL    HW227372   2.699   0.727   2.698  0.7478 -0.1097 -0.6731
 8651SOL     OW27373   4.041   5.683   7.803  0.4218  0.7149 -0.7516
 8651SOL    HW127374   4.083   5.599   7.785  0.2846  0.6613 -0.8290
 8651SOL    HW227375   4.049   5.731   7.720  2.9985  1.8881  0.0866
 8652SOL     OW27376   6.097   7.803   4.765 -0.1771 -0.1981  0.6913
 8652SOL    HW127377   6.041   7.737   4.805 -1.0513 -0.3142 -0.6680
 8652SOL    HW227378   6.147   7.756   4.698  0.4507  0.2020  0.8579
 8653SOL     OW27379   4.585   4.717   2.644 -0.0097 -0.0010 -0.5485
 8653SOL    HW127380   4.525   4.778   2.687 -0.2343 -0.1462 -0.6566
 8653SOL    HW227381   4.623   4.666   2.716 -2.5403 -2.2474 -0.6701
 8654SOL     OW27382   3.761   8.719   1.578 -0.1492 -0.1638 -0.3032
 8654SOL    HW127383   3.746   8.666   1.656  1.1841 -1.4363 -0.8530
 8654SOL    HW227384   3.683   8.774   1.571 -1.0833 -1.2438  0.9485
 8655SOL     OW27385   2.621   1.582   1.459  0.6933  0.3279 -0.0455
 8655SOL    HW127386   2.684   1.654   1.466  0.0727  0.8072  0.9136
 8655SOL    HW227387   2.611   1.567   1.365  2.2011  0.2598 -0.2081
 8656SOL     OW27388   2.222   9.178   1.428  0.2196 -0.2682  0.4234
 8656SOL    HW127389   2.314   9.192   1.448  0.2616 -1.4206  1.1773
 8656SOL    HW227390   2.178   9.181   1.513 -0.5192  0.7637  0.0174
 8657SOL     OW27391   7.798   3.683   0.054  0.7429  0.1224 -0.3446
 8657SOL    HW127392   7.845   3.604   0.082  0.3371 -0.4663 -1.2740
 8657SOL    HW227393   7.864   3.752   0.056  1.2199 -0.3380  0.0362
 8658SOL     OW27394   0.721   4.885   7.940  0.6263  0.1567  0.7867
 8658SOL    HW127395   0.660   4.918   8.007  0.1685  0.0580  0.4244
 8658SOL    HW227396   0.740   4.795   7.967  1.3539  0.4822  1.4116
 8659SOL     OW27397   7.941   6.634   6.147 -0.2020 -0.0849  0.2741
 8659SOL    HW127398   7.967   6.601   6.233 -1.6400 -3.8491 -0.5461
 8659SOL    HW227399   7.860   6.587   6.127 -0.3997  1.3457 -2.7559
 8660SOL     OW27400   1.468   0.789   4.272  0.3164 -0.3709  0.7333
 8660SOL    HW127401   1.561   0.801   4.253 -0.2302 -0.7847 -3.1441
 8660SOL    HW227402   1.425   0.860   4.225 -1.4657 -2.3157 -0.7624
 8661SOL     OW27403   0.967   5.689   5.295  0.4690  0.0825 -0.1201
 8661SOL    HW127404   0.918   5.768   5.270 -0.3820 -0.3273  0.2013
 8661SOL    HW227405   0.900   5.621   5.302  1.1542 -0.5981 -0.0847
 8662SOL     OW27406   4.842   4.473   6.422 -0.1828 -0.3162 -0.0507
 8662SOL    HW127407   4.848   4.553   6.369 -2.5570  0.1245  0.2609
 8662SOL    HW227408   4.824   4.404   6.359  1.1344 -0.5104 -0.2370
 8663SOL     OW27409   3.525   6.940   1.645  0.1574  0.2712 -0.0691
 8663SOL    HW127410   3.460   7.009   1.657 -0.2996 -0.0032 -0.8947
 8663SOL    HW227411   3.529   6.928   1.551  1.0942 -0.0238  0.0001
 8664SOL     OW27412   3.716   6.872   5.855  0.7315  0.6759 -0.5111
 8664SOL    HW127413   3.794   6.909   5.814  1.0410  0.8326  0.1959
 8664SOL    HW227414   3.748   6.836   5.938  0.2480 -0.2588 -0.7203
 8665SOL     OW27415   0.242   5.687   8.439 -0.1320  0.0422 -0.7088
 8665SOL    HW127416   0.236   5.782   8.450 -2.0953  0.1235 -1.9054
 8665SOL    HW227417   0.294   5.675   8.359 -0.3299  0.1604 -0.8587
 8666SOL     OW27418   2.159   6.177   1.647  0.1170 -0.1357 -0.4258
 8666SOL    HW127419   2.188   6.093   1.613  1.0486  0.0927 -0.2422
 8666SOL    HW227420   2.075   6.159   1.688  0.1498 -0.9073 -0.6831
 8667SOL     OW27421   2.931   5.700   1.942 -0.5456 -0.2973 -0.3203
 8667SOL    HW127422   2.939   5.795   1.947  0.4278 -0.3789 -0.1576
 8667SOL    HW227423   2.847   5.681   1.983 -1.0278  0.5342 -0.8860
 8668SOL     OW27424   8.918   3.361   2.277 -0.1955  0.4409 -0.6983
 8668SOL    HW127425   9.014   3.362   2.275 -0.1577  1.4270  0.2699
 8668SOL    HW227426   8.892   3.314   2.198  1.1018 -1.2066 -0.2061
 8669SOL     OW27427   3.075   5.040   1.096  0.4089  0.0927 -0.1262
 8669SOL    HW127428   3.155   5.087   1.121  1.2963 -0.6569 -1.4539
 8669SOL    HW227429   3.043   5.003   1.178  1.2111  0.7125  0.4874
 8670SOL     OW27430   4.160   0.128   8.549  0.1232 -0.6401  0.4299
 8670SOL    HW127431   4.180   0.034   8.546 -1.5218 -1.0495  1.1176
 8670SOL    HW227432   4.075   0.133   8.593  0.7176  1.2772  1.4662
 8671SOL     OW27433   0.372   8.369   0.701 -0.2797 -0.2494 -0.4609
 8671SOL    HW127434   0.299   8.408   0.653 -0.3929 -0.4173 -0.4302
 8671SOL    HW227435   0.350   8.383   0.793  0.2656  0.6629 -0.4623
 8672SOL     OW27436   5.326   1.422   4.648 -0.1504  0.0693 -0.2276
 8672SOL    HW127437   5.287   1.399   4.564  1.5380 -0.9881 -0.7663
 8672SOL    HW227438   5.284   1.363   4.711 -0.4671 -0.0563 -0.5524
 8673SOL     OW27439   1.196   4.614   2.700  0.4025 -0.1867 -0.3764
 8673SOL    HW127440   1.245   4.680   2.749 -2.3905  0.4606  1.7388
 8673SOL    HW227441   1.186   4.540   2.760 -1.3813 -0.1890 -0.6087
 8674SOL     OW27442   2.601   6.126   3.514  0.3612  0.0614  0.2769
 8674SOL    HW127443   2.546   6.169   3.580 -0.4929  0.1941 -0.5086
 8674SOL    HW227444   2.652   6.063   3.565 -0.9898 -0.5369  0.9590
 8675SOL     OW27445   8.759   1.116   0.017  0.3138  0.6346  0.7231
 8675SOL    HW127446   8.681   1.169  -0.002  0.0550 -0.2220 -0.7095
 8675SOL    HW227447   8.828   1.154  -0.037  0.2907 -0.0672  0.1880
 8676SOL     OW27448   0.022   3.758   6.575 -0.1860  0.4154  0.2974
 8676SOL    HW127449   0.043   3.849   6.592  0.1946  0.4621 -0.3755
 8676SOL    HW227450   0.102   3.721   6.537 -0.6068  0.0254 -0.2349
 8677SOL     OW27451   0.725   6.891   8.506 -0.4204  0.0302 -0.0415
 8677SOL    HW127452   0.704   6.803   8.537  0.1818 -0.3298 -0.6368
 8677SOL    HW227453   0.691   6.949   8.574 -0.2039 -0.6908  0.6998
 8678SOL     OW27454   0.600   1.467   2.402  0.0376  0.5215  0.1053
 8678SOL    HW127455   0.604   1.534   2.470 -1.5458  0.5276  0.2319
 8678SOL    HW227456   0.587   1.515   2.321 -0.9035  0.4035  0.1721
 8679SOL     OW27457   0.461   9.217   5.080 -0.2596 -0.2323  0.6080
 8679SOL    HW127458   0.495   9.260   5.002  1.4574 -1.8194  0.4031
 8679SOL    HW227459   0.494   9.270   5.153  0.3263 -0.1830  0.3111
 8680SOL     OW27460   4.705   6.473   3.735 -0.6644 -0.3467  0.1939
 8680SOL    HW127461   4.662   6.542   3.683 -0.3747 -0.3483 -0.0495
 8680SOL    HW227462   4.633   6.432   3.783 -0.6236  1.3253  1.7920
 8681SOL     OW27463   7.306   9.216   8.414 -0.3443 -0.1219 -0.6219
 8681SOL    HW127464   7.375   9.232   8.349  1.2819 -4.0097 -0.1354
 8681SOL    HW227465   7.236   9.174   8.365 -0.4028 -0.3593 -0.3361
 8682SOL     OW27466   1.389   5.998   8.315  0.5594 -0.3846 -0.6930
 8682SOL    HW127467   1.421   6.083   8.285 -0.2814  0.0744 -0.3119
 8682SOL    HW227468   1.294   6.002   8.302  0.3730 -0.8214  0.4124
 8683SOL     OW27469   8.799   2.249   4.696 -0.3651  0.0137  0.3380
 8683SOL    HW127470   8.806   2.179   4.762 -0.2119 -0.9605 -0.6783
 8683SOL    HW227471   8.731   2.218   4.636  0.4617  0.2121 -0.7334
 8684SOL     OW27472   8.595   3.384   2.203  0.2683 -0.3930  0.0359
 8684SOL    HW127473   8.594   3.389   2.107  0.0715  0.0713  0.0635
 8684SOL    HW227474   8.524   3.440   2.231 -0.5392 -1.5631  0.4133
 8685SOL     OW27475   3.487   7.736   3.178  0.7327  0.2409  0.3734
 8685SOL    HW127476   3.433   7.811   3.201  1.0778  0.0699  1.8587
 8685SOL    HW227477   3.432   7.660   3.199  0.6468  0.0666 -0.4538
 8686SOL     OW27478   8.197   9.089   7.920 -0.2557  0.0640 -0.5874
 8686SOL    HW127479   8.123   9.084   7.859 -0.0440 -0.9269 -0.7670
 8686SOL    HW227480   8.192   9.178   7.955 -0.2045  0.7551 -2.2617
 8687SOL     OW27481   5.358   3.546   4.255  0.0743 -0.2067  0.3671
 8687SOL    HW127482   5.439   3.551   4.204  0.6550 -0.7921  1.1889
 8687SOL    HW227483   5.353   3.454   4.282 -0.7573 -0.1287  0.5127
 8688SOL     OW27484   3.000   1.178   2.808 -0.0718 -1.0103  0.0916
 8688SOL    HW127485   2.981   1.272   2.807  1.4685 -0.6606  0.0394
 8688SOL    HW227486   3.017   1.156   2.717  0.6372 -1.0764  0.2316
 8689SOL     OW27487   7.207   5.805   1.817 -0.2332  0.7069 -0.6312
 8689SOL    HW127488   7.233   5.841   1.732  0.2447  3.9347  0.7246
 8689SOL    HW227489   7.175   5.881   1.866 -1.4554 -1.2020  1.7551
 8690SOL     OW27490   4.571   8.805   5.488 -0.7165  0.4481  0.3884
 8690SOL    HW127491   4.543   8.774   5.403  2.7993  2.5982 -1.8129
 8690SOL    HW227492   4.643   8.747   5.513  1.0530  2.2425 -0.2636
 8691SOL     OW27493   5.941   3.910   9.111 -0.4173 -0.0146 -0.3079
 8691SOL    HW127494   5.953   3.953   9.196 -0.5540 -0.5418 -0.0184
 8691SOL    HW227495   5.861   3.858   9.121 -0.7751  0.3893 -0.9588
 8692SOL     OW27496   8.821   1.877   2.185  0.5025  0.3308 -0.0403
 8692SOL    HW127497   8.913   1.903   2.181  0.3515  0.7738 -0.8446
 8692SOL    HW227498   8.785   1.901   2.100 -0.4180  0.3605  0.3390
 8693SOL     OW27499   8.924   3.736   0.478 -0.2800  0.2473 -0.0599
 8693SOL    HW127500   8.959   3.686   0.404 -0.1184  0.8527 -0.4068
 8693SOL    HW227501   8.877   3.809   0.437  1.3891  1.6720  0.4010
 8694SOL     OW27502   1.481   0.084   6.809 -0.4516 -0.4032  0.1610
 8694SOL    HW127503   1.443   0.170   6.831 -1.3940 -0.6475 -0.4539
 8694SOL    HW227504   1.501   0.091   6.716 -1.2948 -1.1218 -0.0831
 8695SOL     OW27505   6.750   7.121   8.876 -0.2341 -0.3505 -0.4518
 8695SOL    HW127506   6.678   7.093   8.932  0.6379  0.5549  1.2045
 8695SOL    HW227507   6.712   7.186   8.817 -0.8701 -0.2226  0.0915
 8696SOL     OW27508   7.189   5.967   5.882  0.2966 -0.2986 -0.8628
 8696SOL    HW127509   7.168   6.061   5.877  2.4670  0.2758 -0.2717
 8696SOL    HW227510   7.252   5.952   5.812 -1.4590 -1.8063 -2.2050
 8697SOL     OW27511   8.756   8.884   3.580  0.2069  0.1285  0.4072
 8697SOL    HW127512   8.670   8.898   3.619 -1.0309  0.1121 -2.1206
 8697SOL    HW227513   8.779   8.795   3.603  0.0760  0.4759  2.0041
 8698SOL     OW27514   3.607   0.760   1.448  0.3700 -0.0745  0.3903
 8698SOL    HW127515   3.694   0.800   1.459 -0.8904  2.5228  1.6228
 8698SOL    HW227516   3.593   0.712   1.529 -0.0499  1.0127  0.9777
 8699SOL     OW27517   6.047   0.061   6.794  0.3994  0.3729 -0.3155
 8699SOL    HW127518   6.023  -0.013   6.848  1.7198  0.6327  0.6802
 8699SOL    HW227519   6.122   0.030   6.742  0.9538  0.9835  0.1023
 8700SOL     OW27520   5.054   7.842   5.819 -0.2461 -0.1504 -0.4143
 8700SOL    HW127521   5.069   7.876   5.907 -0.8703 -0.9823  0.0300
 8700SOL    HW227522   4.999   7.908   5.777  1.0654  0.8501 -0.6172
 8701SOL     OW27523   1.708   5.287   5.953 -0.5749  0.0946  0.1149
 8701SOL    HW127524   1.776   5.221   5.946  0.6578  1.1740  1.2568
 8701SOL    HW227525   1.722   5.343   5.877 -0.8247 -0.2466 -0.1836
 8702SOL     OW27526   0.271   3.435   6.309  0.3411  0.7137  0.2465
 8702SOL    HW127527   0.266   3.367   6.377 -0.0377 -0.9997 -1.4101
 8702SOL    HW227528   0.358   3.425   6.272  0.0629  0.7020 -0.4170
 8703SOL     OW27529   5.970   4.231   6.536 -0.2275 -0.5728 -0.3258
 8703SOL    HW127530   5.926   4.150   6.510 -0.7498 -0.3444 -0.1482
 8703SOL    HW227531   6.063   4.215   6.516 -0.5020 -0.6990 -1.5970
 8704SOL     OW27532   2.455   4.364   8.811 -0.0421  0.0372 -0.0977
 8704SOL    HW127533   2.547   4.386   8.800 -0.2436 -0.0807 -2.5966
 8704SOL    HW227534   2.410   4.449   8.809 -0.1013  0.0045 -0.1316
 8705SOL     OW27535   1.934   6.503   1.722  0.5315  0.0531  0.5819
 8705SOL    HW127536   1.985   6.575   1.759  0.7657  1.8371 -2.7987
 8705SOL    HW227537   1.993   6.460   1.661 -0.8627 -0.2705 -0.5951
 8706SOL     OW27538   4.668   1.284   8.975 -0.0888  0.6060 -0.0733
 8706SOL    HW127539   4.728   1.314   9.043 -0.4516  3.0256 -0.7116
 8706SOL    HW227540   4.695   1.195   8.955 -1.2933 -1.1138  4.7160
 8707SOL     OW27541   8.817   4.291   0.354  0.0522  0.1536  0.4855
 8707SOL    HW127542   8.836   4.368   0.301 -0.5119 -0.6081 -0.8939
 8707SOL    HW227543   8.903   4.255   0.376  0.3031  0.4095 -0.0525
 8708SOL     OW27544   0.381   0.622   7.201  0.1128 -0.0598 -0.8591
 8708SOL    HW127545   0.386   0.543   7.147 -0.8273 -0.4387 -0.4146
 8708SOL    HW227546   0.404   0.593   7.289 -0.9619 -0.0189 -0.5412
 8709SOL     OW27547   5.562   5.464   6.106 -0.0218  0.2947 -0.1186
 8709SOL    HW127548   5.635   5.518   6.137 -0.0818  0.5918 -0.4945
 8709SOL    HW227549   5.580   5.378   6.143 -0.4432  0.7930  1.3229
 8710SOL     OW27550   3.638   7.547   1.933 -0.8375  0.6653  0.7968
 8710SOL    HW127551   3.721   7.521   1.892 -0.9779 -3.8106  2.8456
 8710SOL    HW227552   3.632   7.641   1.915  2.3130  0.3638 -3.4362
 8711SOL     OW27553   4.608   0.317   0.826 -0.3003  0.2287  0.2330
 8711SOL    HW127554   4.637   0.405   0.850  0.1332  1.2825 -3.5277
 8711SOL    HW227555   4.665   0.258   0.875  0.9367  2.0931  1.1269
 8712SOL     OW27556   6.113   1.076   1.702  0.4282 -0.0050 -0.0614
 8712SOL    HW127557   6.093   1.068   1.608  0.0763 -0.1127  0.0213
 8712SOL    HW227558   6.049   1.020   1.745  0.5947  0.0380  0.2463
 8713SOL     OW27559   8.125   1.721   7.011  0.0771 -0.2314 -0.1894
 8713SOL    HW127560   8.069   1.796   7.030  0.2210  0.0315 -0.7916
 8713SOL    HW227561   8.171   1.703   7.093 -0.4689 -0.0974  0.1490
 8714SOL     OW27562   1.442   8.982   7.014 -0.4609  0.5515 -0.5014
 8714SOL    HW127563   1.399   8.918   6.957 -0.1319 -0.2027  0.0832
 8714SOL    HW227564   1.500   9.031   6.956  0.6161 -0.8661 -0.6588
 8715SOL     OW27565   2.265   5.841   5.473 -0.4098  0.5347 -0.1775
 8715SOL    HW127566   2.294   5.770   5.416 -3.1175 -1.1967  0.4469
 8715SOL    HW227567   2.333   5.846   5.540  0.5812 -0.4199 -1.0705
 8716SOL     OW27568   6.822   6.660   3.117  0.1653 -0.6002  0.1950
 8716SOL    HW127569   6.907   6.698   3.097  1.1791 -3.6871 -2.0702
 8716SOL    HW227570   6.840   6.593   3.183 -0.4092 -1.5307 -0.5655
 8717SOL     OW27571   6.454   6.189   7.118  0.3053  0.4300 -0.0643
 8717SOL    HW127572   6.387   6.257   7.112 -0.2833 -0.0104  1.2678
 8717SOL    HW227573   6.531   6.228   7.076  0.1983  2.1838  1.2531
 8718SOL     OW27574   5.997   6.538   0.207 -0.4556  0.5671 -0.2770
 8718SOL    HW127575   6.036   6.622   0.187 -1.1027  0.8430 -0.4110
 8718SOL    HW227576   5.953   6.511   0.126  0.1669 -0.1406 -0.3932
 8719SOL     OW27577   3.565   5.765   0.395  1.0241 -0.0670 -0.6374
 8719SOL    HW127578   3.578   5.859   0.399  0.0416  0.0875 -0.9426
 8719SOL    HW227579   3.477   5.751   0.428  0.9032 -0.8072 -1.2428
 8720SOL     OW27580   4.718   7.092   2.208  0.1916 -0.2985 -0.1178
 8720SOL    HW127581   4.633   7.048   2.216 -0.2520  0.3685 -1.0163
 8720SOL    HW227582   4.697   7.181   2.182  1.2137 -0.6085 -2.2581
 8721SOL     OW27583   4.381   2.361   5.927  0.0833 -0.2528 -0.0922
 8721SOL    HW127584   4.300   2.356   5.978  0.0125  0.8880 -0.0642
 8721SOL    HW227585   4.413   2.450   5.942  1.3164 -0.6631 -0.1550
 8722SOL     OW27586   3.241   6.277   6.117 -0.0469  0.2234 -0.3603
 8722SOL    HW127587   3.214   6.187   6.098 -0.9438  0.4450 -0.1818
 8722SOL    HW227588   3.240   6.282   6.213 -0.4012  0.5353 -0.3766
 8723SOL     OW27589   7.685   8.338   8.589  0.0464  0.1194  0.1801
 8723SOL    HW127590   7.750   8.273   8.615  0.3760  0.5600  0.4804
 8723SOL    HW227591   7.725   8.384   8.516 -0.3224 -0.2275 -0.2434
 8724SOL     OW27592   1.299   4.236   4.469 -0.3235  0.0527  0.5023
 8724SOL    HW127593   1.262   4.178   4.403 -0.8463 -2.3625  2.7493
 8724SOL    HW227594   1.392   4.216   4.469 -0.4195 -0.4335  0.8836
 8725SOL     OW27595   2.974   5.318   5.671  0.0991 -0.5817 -0.4989
 8725SOL    HW127596   3.051   5.322   5.727 -0.5236  0.1848  0.3293
 8725SOL    HW227597   3.005   5.349   5.585  0.7598 -0.4882 -0.2276
 8726SOL     OW27598   1.595   3.899   5.279 -0.2524  0.4586 -0.0913
 8726SOL    HW127599   1.509   3.935   5.303  0.4999  1.4653  1.2497
 8726SOL    HW227600   1.645   3.975   5.249  0.5120  0.0771  0.1910
 8727SOL     OW27601   1.936   3.277   2.075 -0.2362 -0.2163 -0.0960
 8727SOL    HW127602   1.878   3.204   2.055  0.2338 -0.2866 -1.2946
 8727SOL    HW227603   2.024   3.245   2.052 -0.1885  1.2073 -2.2036
 8728SOL     OW27604   5.978   2.602   1.252 -0.2209 -0.1443 -0.1897
 8728SOL    HW127605   6.055   2.553   1.283  0.2100  1.9460  2.4231
 8728SOL    HW227606   5.923   2.612   1.330 -1.6894  1.0187 -1.3103
 8729SOL     OW27607   6.119   3.808   4.032  0.0257 -0.4197  0.0176
 8729SOL    HW127608   6.164   3.800   4.116 -0.2227  0.0928  0.2100
 8729SOL    HW227609   6.187   3.797   3.966  0.1603 -1.1965  0.2770
 8730SOL     OW27610   0.997   7.459   8.631  0.6117  0.0977 -0.2321
 8730SOL    HW127611   1.061   7.455   8.559  0.4898 -2.3830 -0.2741
 8730SOL    HW227612   0.956   7.373   8.631 -0.3137  0.4860  2.0088
 8731SOL     OW27613   7.522   9.204   3.707 -0.0351  0.3840  0.3370
 8731SOL    HW127614   7.589   9.150   3.749  0.3088  0.3794 -0.2056
 8731SOL    HW227615   7.452   9.211   3.772 -0.8422 -2.0940 -0.1552
 8732SOL     OW27616   8.295   0.586   1.854 -0.1841  0.4832 -0.1738
 8732SOL    HW127617   8.349   0.561   1.929  1.0822 -0.4104 -1.3509
 8732SOL    HW227618   8.228   0.518   1.849 -0.3331  0.5999  0.1901
 8733SOL     OW27619   2.922   6.228   1.586 -0.8290 -0.0694  0.0294
 8733SOL    HW127620   3.010   6.265   1.593 -0.1538 -1.4827 -0.5880
 8733SOL    HW227621   2.917   6.195   1.496 -2.4246  1.0039 -0.3081
 8734SOL     OW27622   6.825   0.025   1.127  0.0420 -0.1770  0.1318
 8734SOL    HW127623   6.767   0.073   1.185 -3.4834 -2.4142 -1.1930
 8734SOL    HW227624   6.796   0.048   1.039  0.8135 -1.7324 -0.5846
 8735SOL     OW27625   7.621   0.588   1.184 -0.1435  1.0178 -0.3728
 8735SOL    HW127626   7.649   0.677   1.167 -0.5353  1.2513  0.1726
 8735SOL    HW227627   7.606   0.550   1.098 -0.8196  1.7544 -0.5894
 8736SOL     OW27628   1.888   3.635   1.664  0.2380 -0.0110 -0.1285
 8736SOL    HW127629   1.907   3.722   1.629 -1.8989  1.6160  2.3222
 8736SOL    HW227630   1.930   3.634   1.750  1.2518 -1.9377 -0.6028
 8737SOL     OW27631   6.504   2.767   7.202 -0.2814  0.7247 -0.4837
 8737SOL    HW127632   6.531   2.725   7.284  0.7580  1.7179 -0.2952
 8737SOL    HW227633   6.476   2.855   7.227 -2.0464  0.3319 -0.9367
 8738SOL     OW27634   3.849   6.202   6.781 -0.3781  0.0824 -0.4384
 8738SOL    HW127635   3.916   6.267   6.759  1.1166 -0.5543  1.8493
 8738SOL    HW227636   3.877   6.123   6.735  0.3376 -0.0927  0.2560
 8739SOL     OW27637   7.591   5.199   1.808 -0.0160 -0.2505 -0.6037
 8739SOL    HW127638   7.678   5.238   1.797  0.2631 -0.7537 -0.2125
 8739SOL    HW227639   7.557   5.191   1.719  0.6211 -0.6892 -0.8135
 8740SOL     OW27640   1.222   2.249   1.507  0.0494  0.3321 -0.3785
 8740SOL    HW127641   1.181   2.211   1.430  0.4793 -1.2200  0.1062
 8740SOL    HW227642   1.160   2.234   1.578  0.4579  0.0426 -0.0741
 8741SOL     OW27643   1.936   2.304   2.443 -0.1863 -0.0522  0.5723
 8741SOL    HW127644   1.884   2.295   2.363 -0.8514 -1.4762  1.1388
 8741SOL    HW227645   1.993   2.227   2.444  1.0476  0.8322  0.6177
 8742SOL     OW27646   9.043   1.621   3.293  0.5203 -0.5981  0.3001
 8742SOL    HW127647   9.137   1.637   3.294  0.1431  2.1137  0.9145
 8742SOL    HW227648   9.006   1.697   3.247 -1.3091 -2.1395 -0.9374
 8743SOL     OW27649   6.504   7.053   8.983  0.3709 -0.6871  0.2507
 8743SOL    HW127650   6.476   6.982   8.926  1.0943 -1.8191  1.2454
 8743SOL    HW227651   6.456   7.039   9.065  1.5949 -0.9245  0.9585
 8744SOL     OW27652   9.106   6.027   7.254 -0.1200  0.1981  0.3680
 8744SOL    HW127653   9.197   6.051   7.269  0.8356 -0.7650 -2.8703
 8744SOL    HW227654   9.111   5.942   7.210 -2.5402  0.3002 -0.2583
 8745SOL     OW27655   7.603   9.054   2.973 -0.2593 -0.0212 -0.0959
 8745SOL    HW127656   7.542   9.123   2.998 -1.8449 -2.0239  1.9717
 8745SOL    HW227657   7.679   9.067   3.030 -0.6715 -0.1189  0.4879
 8746SOL     OW27658   3.680   8.248   7.990 -0.0039  0.3894  0.6353
 8746SOL    HW127659   3.677   8.154   7.971  1.1624  0.3285  0.6779
 8746SOL    HW227660   3.633   8.288   7.917  2.1290 -0.0387 -1.0761
 8747SOL     OW27661   6.255   2.394   2.363 -0.5092  0.1960 -0.0335
 8747SOL    HW127662   6.308   2.467   2.332  0.0538  0.1176  0.6875
 8747SOL    HW227663   6.240   2.340   2.286  0.5179  0.2031 -0.2622
 8748SOL     OW27664   2.146   4.898   0.201 -0.7117 -0.1932  0.3290
 8748SOL    HW127665   2.223   4.906   0.257 -0.9310 -0.9285  0.7545
 8748SOL    HW227666   2.181   4.880   0.114 -0.4085 -0.9983  0.6108
 8749SOL     OW27667   6.360   3.514   6.108 -0.1208 -0.0417 -0.0553
 8749SOL    HW127668   6.326   3.449   6.047  0.5550  0.8819 -1.4879
 8749SOL    HW227669   6.299   3.513   6.181 -1.5477 -0.4876 -1.2107
 8750SOL     OW27670   2.541   8.600   2.899  0.1928 -0.0754 -0.1695
 8750SOL    HW127671   2.537   8.688   2.938  0.0859 -0.3678  0.4936
 8750SOL    HW227672   2.606   8.609   2.829 -0.3186  0.6982 -0.5605
 8751SOL     OW27673   1.944   3.501   3.744  0.6111  0.2379 -0.4113
 8751SOL    HW127674   2.009   3.440   3.708  0.2991 -0.0861 -0.4267
 8751SOL    HW227675   1.925   3.466   3.832  0.4657  0.3377 -0.4030
 8752SOL     OW27676   5.577   1.782   2.754 -0.0858 -0.0142  0.2422
 8752SOL    HW127677   5.625   1.864   2.745  1.9818 -1.3074 -1.3019
 8752SOL    HW227678   5.608   1.728   2.681 -1.6749 -2.0328  0.9789
 8753SOL     OW27679   7.182   8.377   9.169 -0.9306 -0.4939  0.1005
 8753SOL    HW127680   7.145   8.308   9.115 -1.1807 -0.5436  0.3338
 8753SOL    HW227681   7.138   8.369   9.253  0.7506 -1.5905  0.9362
 8754SOL     OW27682   9.045   5.323   6.573 -0.1773 -0.2268 -0.7980
 8754SOL    HW127683   9.047   5.314   6.669  0.5171  2.3984 -0.4968
 8754SOL    HW227684   9.103   5.254   6.541  0.6725 -0.2843  0.7713
 8755SOL     OW27685   0.283   3.353   5.289 -0.1216  0.3219 -0.3804
 8755SOL    HW127686   0.254   3.327   5.202 -0.0504  1.1154 -0.6456
 8755SOL    HW227687   0.364   3.303   5.303 -1.4394 -1.7675  0.2914
 8756SOL     OW27688   3.437   5.811   6.682 -0.5480 -0.3532  0.0101
 8756SOL    HW127689   3.399   5.834   6.767  0.5174  0.4167  0.2985
 8756SOL    HW227690   3.368   5.829   6.619 -1.3220 -0.8497  0.6928
 8757SOL     OW27691   8.629   5.444   3.747 -0.0821 -0.2578  0.6445
 8757SOL    HW127692   8.555   5.419   3.692  0.8197 -2.2950  0.2513
 8757SOL    HW227693   8.695   5.475   3.686  0.6360 -1.7975  0.5732
 8758SOL     OW27694   9.082   6.319   4.425  0.1350 -0.3789  0.0049
 8758SOL    HW127695   9.052   6.229   4.429 -0.4223 -0.1478  1.4270
 8758SOL    HW227696   9.150   6.325   4.492  0.6496  0.0919 -0.5436
 8759SOL     OW27697   2.207   5.946   8.480  0.1589  0.2089  0.0347
 8759SOL    HW127698   2.242   5.858   8.494  1.5795  0.4700 -1.5670
 8759SOL    HW227699   2.141   5.957   8.548  2.1464 -0.9215  2.3068
 8760SOL     OW27700   5.257   5.065   4.527 -0.4754  0.4294 -0.3785
 8760SOL    HW127701   5.302   4.995   4.574 -1.2168  0.5645  0.5746
 8760SOL    HW227702   5.166   5.034   4.520 -0.6289  0.9386 -0.6698
 8761SOL     OW27703   5.015   5.742   5.637 -0.3405  0.1726  0.1361
 8761SOL    HW127704   4.925   5.709   5.640 -0.5907  0.8714  0.5244
 8761SOL    HW227705   5.046   5.735   5.727  0.1868 -0.5637 -0.0921
 8762SOL     OW27706   5.815   5.189   5.281 -0.2543  0.2138 -0.1218
 8762SOL    HW127707   5.872   5.147   5.345  0.5840  1.9037  0.2839
 8762SOL    HW227708   5.874   5.240   5.225 -1.1963  0.6113 -0.7884
 8763SOL     OW27709   1.633   9.167   2.164  0.2497  0.5394 -0.1176
 8763SOL    HW127710   1.721   9.182   2.129  0.2906  0.3106 -0.1110
 8763SOL    HW227711   1.642   9.090   2.219  0.5714  1.8418  1.7659
 8764SOL     OW27712   3.713   2.090   7.251 -0.6662 -0.5984 -0.4890
 8764SOL    HW127713   3.671   2.170   7.220 -0.7780 -0.9237 -1.1840
 8764SOL    HW227714   3.793   2.120   7.293 -1.3225 -0.0143  0.4000
 8765SOL     OW27715   5.344   6.746   3.100 -0.1145  0.1710  0.8786
 8765SOL    HW127716   5.376   6.834   3.082 -0.7310  0.7800  2.6204
 8765SOL    HW227717   5.257   6.759   3.136 -1.3433 -1.3185 -1.2939
 8766SOL     OW27718   3.689   1.183   8.370  0.9111 -0.2847  0.1008
 8766SOL    HW127719   3.697   1.088   8.376 -0.6033 -0.6353 -2.1589
 8766SOL    HW227720   3.731   1.205   8.287 -3.2516  0.2207 -2.1123
 8767SOL     OW27721   8.910   2.495   5.908  0.5134  0.9181 -0.0135
 8767SOL    HW127722   8.885   2.403   5.920 -3.0012  1.7076 -0.2904
 8767SOL    HW227723   9.006   2.494   5.914  0.5519 -2.4930  1.6514
 8768SOL     OW27724   8.920   6.322   3.914 -0.4606 -0.1606 -0.0696
 8768SOL    HW127725   8.884   6.402   3.876 -1.1009 -0.1209  0.5906
 8768SOL    HW227726   8.945   6.348   4.003  3.1404  0.3630 -1.0709
 8769SOL     OW27727   8.395   0.148   5.244  0.6713 -0.2394  0.4268
 8769SOL    HW127728   8.436   0.200   5.176  0.0545 -0.2140  0.0595
 8769SOL    HW227729   8.467   0.114   5.296  1.4180 -2.7015 -1.9640
 8770SOL     OW27730   2.352   1.249   3.344 -0.1564 -1.1470 -0.2201
 8770SOL    HW127731   2.294   1.179   3.314 -0.4480 -1.0743  0.1599
 8770SOL    HW227732   2.428   1.243   3.287  0.2891 -2.4440  0.4644
 8771SOL     OW27733   0.927   1.830   0.391  0.3991 -0.1799 -0.0454
 8771SOL    HW127734   0.872   1.908   0.398  0.0960 -0.4945  1.3814
 8771SOL    HW227735   1.014   1.858   0.420  0.4991 -0.1671 -0.3557
 8772SOL     OW27736   4.679   5.823   3.298 -0.0459  0.6428  0.4960
 8772SOL    HW127737   4.743   5.851   3.364 -0.2269  0.9554  0.5424
 8772SOL    HW227738   4.730   5.771   3.235  0.4197  1.5425  0.1048
 8773SOL     OW27739   5.148   8.685   5.362  0.3562  0.6776 -0.4118
 8773SOL    HW127740   5.235   8.659   5.331 -0.0229 -2.5126  0.8668
 8773SOL    HW227741   5.158   8.694   5.457 -0.7614 -0.1442 -0.1971
 8774SOL     OW27742   5.713   8.894   2.899 -0.6981 -0.3165  0.4334
 8774SOL    HW127743   5.695   8.915   2.990 -0.8616  2.1176 -0.0830
 8774SOL    HW227744   5.648   8.828   2.876 -1.6310  0.1250  1.6920
 8775SOL     OW27745   6.437   4.444   0.830  0.5716  0.0204  0.3145
 8775SOL    HW127746   6.470   4.493   0.755  0.9728 -2.4610 -1.2399
 8775SOL    HW227747   6.501   4.460   0.899  0.7627  1.4988 -0.1644
 8776SOL     OW27748   2.336   4.018   1.812 -0.2562 -0.1109 -0.5819
 8776SOL    HW127749   2.352   3.924   1.823 -0.1607 -0.0148  0.1686
 8776SOL    HW227750   2.240   4.025   1.807 -0.4835 -0.0150  2.1790
 8777SOL     OW27751   8.100   0.350   7.013  1.1647  0.1217 -0.4371
 8777SOL    HW127752   8.090   0.390   6.927  0.3833 -0.2951 -0.5490
 8777SOL    HW227753   8.026   0.384   7.064  0.9191 -0.5839 -0.3118
 8778SOL     OW27754   5.589   1.098   1.097 -0.6405 -0.0102 -0.3540
 8778SOL    HW127755   5.501   1.066   1.118 -0.4097  0.0188  0.7708
 8778SOL    HW227756   5.644   1.020   1.104 -0.6132 -0.0850 -1.3495
 8779SOL     OW27757   7.693   0.602   3.354  0.3983  0.2672  0.1050
 8779SOL    HW127758   7.724   0.522   3.311 -0.1308  0.6063 -0.9376
 8779SOL    HW227759   7.601   0.585   3.371  0.7288 -0.1021  1.7143
 8780SOL     OW27760   5.937   6.988   6.634  0.2706 -0.8122 -0.1694
 8780SOL    HW127761   5.965   7.063   6.687 -3.2020  0.5503 -0.0352
 8780SOL    HW227762   5.951   6.912   6.691  0.4862  0.1535  1.1151
 8781SOL     OW27763   0.676   2.039   8.374  0.5185  0.1406  0.2145
 8781SOL    HW127764   0.752   1.986   8.348 -0.0853 -0.2337 -0.8628
 8781SOL    HW227765   0.629   1.984   8.437 -0.5909 -1.0492 -1.5739
 8782SOL     OW27766   2.316   3.295   9.218  0.5039 -0.2513 -0.3962
 8782SOL    HW127767   2.254   3.225   9.239  1.4449 -0.6944  1.0457
 8782SOL    HW227768   2.355   3.268   9.135 -1.9336  0.5616 -1.9135
 8783SOL     OW27769   5.252   7.535   4.719  0.3336  0.2653 -0.2339
 8783SOL    HW127770   5.176   7.528   4.778 -0.1468 -0.4578 -0.9280
 8783SOL    HW227771   5.219   7.584   4.644  0.6939  0.3783 -0.3182
 8784SOL     OW27772   1.776   0.685   5.706 -0.4478 -0.2296  0.6221
 8784SOL    HW127773   1.760   0.777   5.689 -0.5180 -0.6582 -2.2326
 8784SOL    HW227774   1.820   0.653   5.627  1.4742 -2.2213  2.3502
 8785SOL     OW27775   3.363   0.997   0.364 -0.3352  0.2794 -0.2631
 8785SOL    HW127776   3.364   0.905   0.338  1.2405  0.6781 -1.8057
 8785SOL    HW227777   3.444   1.009   0.415 -1.5368  0.3883  1.7386
 8786SOL     OW27778   1.017   8.119   4.825  0.2053  0.1537 -0.0539
 8786SOL    HW127779   1.001   8.201   4.872  0.8590 -0.1359  0.6886
 8786SOL    HW227780   1.045   8.147   4.738  0.6786  0.7386  0.2750
 8787SOL     OW27781   6.590   5.910   2.115 -0.2037  0.0577  0.3377
 8787SOL    HW127782   6.513   5.901   2.060  0.3118  0.5418 -0.4921
 8787SOL    HW227783   6.590   5.832   2.171  0.0808 -1.2442 -1.4002
 8788SOL     OW27784   2.686   3.680   8.084  0.1463  0.0492  0.1991
 8788SOL    HW127785   2.776   3.707   8.105  0.0521  0.2019  0.4058
 8788SOL    HW227786   2.684   3.675   7.988  0.9469 -1.8909  0.2202
 8789SOL     OW27787   7.014   0.463   3.780 -0.2273  0.4100  0.1917
 8789SOL    HW127788   6.937   0.492   3.829 -0.6402  1.0159 -0.7815
 8789SOL    HW227789   7.063   0.544   3.763 -0.9136  0.4627 -1.7480
 8790SOL     OW27790   6.713   2.584   0.662 -0.6959 -0.3815 -0.2674
 8790SOL    HW127791   6.650   2.602   0.731 -1.6902 -0.4772 -1.1273
 8790SOL    HW227792   6.668   2.523   0.603 -0.1506  0.2343 -1.3658
 8791SOL     OW27793   2.768   3.613   6.004  0.2764 -0.6032 -0.1071
 8791SOL    HW127794   2.849   3.572   6.034 -0.7779 -1.8842  1.1636
 8791SOL    HW227795   2.732   3.552   5.940 -0.8670 -1.3411  1.1556
 8792SOL     OW27796   0.780   7.254   9.268 -0.0098  0.1110  0.0709
 8792SOL    HW127797   0.700   7.279   9.313  0.5827  1.2599  0.5297
 8792SOL    HW227798   0.778   7.158   9.265 -1.5983  0.1310 -0.3279
 8793SOL     OW27799   9.109   6.658   4.045 -0.3564 -0.1542 -0.1897
 8793SOL    HW127800   9.025   6.625   4.015 -2.2078  4.1205 -0.4573
 8793SOL    HW227801   9.149   6.697   3.967 -1.3533  3.6139  0.9397
 8794SOL     OW27802   5.145   3.725   7.499  0.5008  0.8218  0.3510
 8794SOL    HW127803   5.078   3.726   7.568  0.2993 -0.8886  0.2086
 8794SOL    HW227804   5.191   3.642   7.511  2.4856  1.8691  0.3023
 8795SOL     OW27805   1.592   1.032   8.838 -0.1280 -0.5165 -0.2106
 8795SOL    HW127806   1.591   1.102   8.772  0.3066  0.0241  0.3371
 8795SOL    HW227807   1.500   1.009   8.849 -0.4238  0.8574  0.4941
 8796SOL     OW27808   1.669   3.645   4.445  0.0789 -0.5891  0.2732
 8796SOL    HW127809   1.677   3.589   4.522 -1.1406 -0.1515  0.7393
 8796SOL    HW227810   1.688   3.733   4.478 -2.6248 -0.0695  0.6088
 8797SOL     OW27811   4.279   1.922   2.863 -0.5149 -0.0277  0.3080
 8797SOL    HW127812   4.209   1.881   2.914 -0.6972 -0.5122 -0.3190
 8797SOL    HW227813   4.326   1.848   2.823  0.0516  0.3151  0.3348
 8798SOL     OW27814   3.909   3.110   1.010  0.2714 -0.2845 -0.1045
 8798SOL    HW127815   3.831   3.165   1.010 -0.0246 -0.6957  0.2102
 8798SOL    HW227816   3.875   3.021   1.019  0.5998 -0.7521 -2.6977
 8799SOL     OW27817   3.053   1.908   4.973  0.0674 -0.6584  0.2660
 8799SOL    HW127818   2.970   1.951   4.955 -0.3005 -1.5141 -0.1262
 8799SOL    HW227819   3.056   1.833   4.913  0.8729 -0.9535  0.6485
 8800SOL     OW27820   7.163   8.022   6.887 -0.0390 -0.5078 -0.2325
 8800SOL    HW127821   7.149   7.928   6.897 -0.9828 -0.3157  0.4471
 8800SOL    HW227822   7.113   8.061   6.960 -1.0680  0.6092 -1.4839
 8801SOL     OW27823   3.531   4.115   5.454  0.3421  0.3388  0.2539
 8801SOL    HW127824   3.554   4.123   5.362 -2.5281  2.6799 -0.4189
 8801SOL    HW227825   3.584   4.182   5.498 -1.2637  2.1352 -0.4403
 8802SOL     OW27826   0.154   6.370   7.009  0.3979 -0.2228  0.3881
 8802SOL    HW127827   0.073   6.420   7.013  0.2957 -0.1589 -1.4909
 8802SOL    HW227828   0.126   6.281   6.985  0.8446 -0.2533 -0.0454
 8803SOL     OW27829   0.197   4.137   1.187 -0.3545  0.4507  0.4042
 8803SOL    HW127830   0.114   4.177   1.210  0.0501  1.1420  0.6898
 8803SOL    HW227831   0.200   4.140   1.091 -1.4115 -1.1520  0.2780
 8804SOL     OW27832   4.509   5.003   1.738 -0.4486 -0.3962  0.4090
 8804SOL    HW127833   4.517   5.081   1.792  0.4711 -1.9232  2.6352
 8804SOL    HW227834   4.422   4.969   1.758  0.1409 -1.3225  1.5214
 8805SOL     OW27835   3.096   8.310   2.527  0.2646  0.2568  0.0789
 8805SOL    HW127836   3.068   8.220   2.510  1.1145 -0.0489  0.2615
 8805SOL    HW227837   3.127   8.341   2.442 -1.2389  0.8424 -0.2957
 8806SOL     OW27838   8.170   6.660   0.633  0.0209  0.0804  0.4464
 8806SOL    HW127839   8.083   6.686   0.602 -0.3605 -0.1849  1.2656
 8806SOL    HW227840   8.176   6.700   0.720 -0.8022 -2.9103  2.0063
 8807SOL     OW27841   7.426   8.811   5.254 -0.4909  0.3382  0.0381
 8807SOL    HW127842   7.343   8.814   5.206  0.3470 -1.6242 -1.7163
 8807SOL    HW227843   7.409   8.751   5.326 -1.0749  1.3638  0.7716
 8808SOL     OW27844   5.655   4.293   3.841 -0.1798 -0.2930 -0.4750
 8808SOL    HW127845   5.688   4.372   3.798 -1.4309 -0.1740 -1.2727
 8808SOL    HW227846   5.640   4.319   3.932 -0.3477  0.3209 -0.6754
 8809SOL     OW27847   8.914   6.219   7.409  0.2029 -0.2971 -0.1507
 8809SOL    HW127848   8.937   6.260   7.492  1.1932 -0.4894 -0.3178
 8809SOL    HW227849   8.986   6.242   7.350  0.0721 -1.1034 -0.6427
 8810SOL     OW27850   5.438   3.689   0.784  0.3567 -0.3856 -0.3571
 8810SOL    HW127851   5.365   3.688   0.722 -1.0250 -1.3557  1.1868
 8810SOL    HW227852   5.516   3.697   0.729 -0.8759  0.4419 -2.0858
 8811SOL     OW27853   0.612   6.739   0.201 -0.3651  0.1318  0.3736
 8811SOL    HW127854   0.597   6.720   0.293  1.1073 -2.9121  0.1340
 8811SOL    HW227855   0.530   6.714   0.158 -0.3816 -0.4025  0.6984
 8812SOL     OW27856   4.328   7.271   5.099 -0.4399 -0.4216  0.5498
 8812SOL    HW127857   4.331   7.321   5.181  2.7343 -0.1354  0.3668
 8812SOL    HW227858   4.317   7.180   5.127  1.9104 -0.4882  1.4743
 8813SOL     OW27859   1.368   6.702   5.974  0.4614 -0.1606 -0.8274
 8813SOL    HW127860   1.409   6.645   5.908 -3.4732 -0.8269 -3.0872
 8813SOL    HW227861   1.385   6.658   6.057  3.9196 -0.4185 -1.5139
 8814SOL     OW27862   8.377   0.864   3.576 -0.0123  0.1503 -0.0454
 8814SOL    HW127863   8.316   0.919   3.528  0.0711 -0.2811 -0.6567
 8814SOL    HW227864   8.322   0.810   3.633 -0.0423  1.4877  1.2468
 8815SOL     OW27865   7.631   0.826   4.951 -0.3203 -0.0430  0.4247
 8815SOL    HW127866   7.669   0.780   5.025  1.6055  0.9004  0.0839
 8815SOL    HW227867   7.622   0.917   4.981  1.5159  0.5979 -0.7845
 8816SOL     OW27868   6.229   2.238   4.857  0.2715 -0.2098  0.7790
 8816SOL    HW127869   6.280   2.266   4.781 -0.1191 -1.3428  0.0881
 8816SOL    HW227870   6.185   2.158   4.829 -1.3518  0.3489  1.5729
 8817SOL     OW27871   7.969   8.219   5.836  0.4016 -0.4610  0.1282
 8817SOL    HW127872   8.022   8.141   5.854  1.0231 -0.3231 -1.0697
 8817SOL    HW227873   8.019   8.269   5.773 -0.4756  0.4164  0.1011
 8818SOL     OW27874   5.859   8.331   3.313  0.1699  0.0448  0.0699
 8818SOL    HW127875   5.862   8.425   3.330  0.5260  0.0713 -0.1259
 8818SOL    HW227876   5.810   8.294   3.386  0.2052  0.3600  0.2512
 8819SOL     OW27877   7.173   0.352   8.285  0.0670 -0.1633  0.1484
 8819SOL    HW127878   7.229   0.355   8.362 -0.2735  2.2481  0.3599
 8819SOL    HW227879   7.086   0.374   8.317 -0.5850 -1.5033 -0.5821
 8820SOL     OW27880   5.398   4.636   2.958 -0.2459  0.3300  0.3905
 8820SOL    HW127881   5.488   4.666   2.947 -0.1765  0.0965  0.3020
 8820SOL    HW227882   5.396   4.600   3.047  0.1468 -0.9895 -0.1063
 8821SOL     OW27883   3.428   7.153   8.516  0.4554 -0.3707  0.3728
 8821SOL    HW127884   3.436   7.057   8.514 -0.3207 -0.4449  0.6473
 8821SOL    HW227885   3.357   7.172   8.455  0.3376  0.0044  0.6257
 8822SOL     OW27886   5.562   0.102   4.646 -0.2551  0.2745 -0.3321
 8822SOL    HW127887   5.569   0.197   4.646 -0.3217  0.2801 -0.7255
 8822SOL    HW227888   5.499   0.082   4.577 -0.0349 -0.0678 -0.4413
 8823SOL     OW27889   1.904   5.998   1.745  0.4334  0.3151 -0.2767
 8823SOL    HW127890   1.832   5.936   1.738  0.5652  0.1727 -0.3662
 8823SOL    HW227891   1.981   5.944   1.763  0.4558  0.4973  0.1941
 8824SOL     OW27892   5.499   4.390   5.057  0.1515 -0.0650  0.0595
 8824SOL    HW127893   5.465   4.314   5.009  0.1060 -0.4859  0.7336
 8824SOL    HW227894   5.558   4.433   4.996 -0.1479 -0.4066 -0.4794
 8825SOL     OW27895   2.605   5.480   2.825  0.2682  0.0345 -0.0556
 8825SOL    HW127896   2.660   5.554   2.851  0.4421 -1.0782  3.1719
 8825SOL    HW227897   2.659   5.403   2.840 -0.8446 -0.9085 -0.7053
 8826SOL     OW27898   1.757   8.387   0.937  0.0725 -0.4328  0.0398
 8826SOL    HW127899   1.813   8.456   0.973 -0.4866  0.0112  0.0714
 8826SOL    HW227900   1.705   8.357   1.011 -0.9289  0.3355 -0.3162
 8827SOL     OW27901   2.420   7.184   1.851 -0.1395  0.4034 -0.0773
 8827SOL    HW127902   2.495   7.143   1.894 -1.2816 -1.5086  0.1999
 8827SOL    HW227903   2.435   7.168   1.757 -0.8836 -1.2876  0.0638
 8828SOL     OW27904   0.719   8.897   9.259 -0.2936  0.2123  0.4642
 8828SOL    HW127905   0.787   8.885   9.325  0.5768  1.4654 -0.1577
 8828SOL    HW227906   0.758   8.956   9.195 -0.2804 -2.6549 -2.3855
 8829SOL     OW27907   4.835   4.855   2.355 -0.3696  0.1839 -0.0507
 8829SOL    HW127908   4.827   4.767   2.391 -2.9915  0.9543  1.4971
 8829SOL    HW227909   4.748   4.876   2.322 -0.2242  2.7120  0.9500
 8830SOL     OW27910   2.575   5.073   4.738 -0.3970 -0.0598  0.4894
 8830SOL    HW127911   2.607   4.999   4.789 -0.0481  0.6959  1.4133
 8830SOL    HW227912   2.518   5.035   4.672 -2.6078 -0.9659  2.7463
 8831SOL     OW27913   4.488   7.131   6.421  0.4037  0.2211  0.2099
 8831SOL    HW127914   4.533   7.209   6.391 -0.9956  0.1940 -2.2504
 8831SOL    HW227915   4.544   7.058   6.393 -0.7103  0.2137 -2.2298
 8832SOL     OW27916   6.297   0.279   6.445  0.3882 -0.3852  0.0995
 8832SOL    HW127917   6.385   0.266   6.409  0.2397 -3.1026  0.4518
 8832SOL    HW227918   6.313   0.299   6.537  0.6721 -1.1876  0.2389
 8833SOL     OW27919   5.685   3.504   1.899 -0.4776 -0.5353 -0.4848
 8833SOL    HW127920   5.738   3.484   1.976 -1.4022 -1.4310 -0.0588
 8833SOL    HW227921   5.610   3.444   1.905 -0.3301 -0.9736 -2.3170
 8834SOL     OW27922   4.466   3.082   4.992  0.0325 -0.4967  0.5239
 8834SOL    HW127923   4.430   3.039   5.069  0.1484 -0.9943  0.3041
 8834SOL    HW227924   4.392   3.090   4.931 -0.3518  0.9693  1.1248
 8835SOL     OW27925   5.126   9.151   3.637  0.2500 -0.6984 -0.0547
 8835SOL    HW127926   5.136   9.060   3.666  1.1767 -0.5332  0.1771
 8835SOL    HW227927   5.170   9.154   3.553  0.4760 -0.4007  0.0720
 8836SOL     OW27928   8.397   1.003   1.239 -0.0339  0.1680  0.1157
 8836SOL    HW127929   8.363   0.957   1.316 -1.9713 -1.4146 -1.5418
 8836SOL    HW227930   8.397   1.095   1.264 -2.1527 -0.1370  1.5344
 8837SOL     OW27931   4.061   0.241   4.041 -0.5157 -0.0057 -0.1072
 8837SOL    HW127932   3.979   0.211   4.081  0.0248 -0.4272  0.7272
 8837SOL    HW227933   4.045   0.237   3.947 -2.1754  1.9942  0.0369
 8838SOL     OW27934   4.074   3.211   6.506  0.2106 -0.4378  0.4000
 8838SOL    HW127935   4.043   3.130   6.546  1.8557 -1.9133 -1.1237
 8838SOL    HW227936   4.068   3.276   6.576 -0.1411 -2.1130  2.0213
 8839SOL     OW27937   8.597   2.008   7.371  0.3614  0.2575 -0.0597
 8839SOL    HW127938   8.667   2.028   7.433 -0.9148 -0.0471  1.5559
 8839SOL    HW227939   8.566   1.921   7.398 -0.1252  0.0354 -1.2585
 8840SOL     OW27940   0.215   6.235   2.547  0.0972 -0.3887  0.7018
 8840SOL    HW127941   0.164   6.212   2.624 -1.5853  0.6281 -0.0505
 8840SOL    HW227942   0.186   6.174   2.479 -0.7926  0.7284  0.0405
 8841SOL     OW27943   3.478   2.188   6.360  0.4971  0.0957 -0.2208
 8841SOL    HW127944   3.484   2.154   6.449 -0.9158 -0.1111 -0.1809
 8841SOL    HW227945   3.553   2.149   6.315  0.6458 -0.6318  0.6161
 8842SOL     OW27946   4.665   6.001   0.349  0.0636  0.0674  0.2588
 8842SOL    HW127947   4.609   6.030   0.421  0.3941  1.2884  0.0453
 8842SOL    HW227948   4.722   6.076   0.332  1.5574 -1.0265  0.2685
 8843SOL     OW27949   2.518   8.019   0.790  0.2372 -0.6913 -0.3583
 8843SOL    HW127950   2.463   7.942   0.802 -0.2277 -0.4708 -0.9959
 8843SOL    HW227951   2.485   8.060   0.710  0.0190  0.5533  0.3464
 8844SOL     OW27952   1.074   4.685   4.698 -0.7578  0.5229  0.3317
 8844SOL    HW127953   1.008   4.733   4.648 -0.7274  1.5286  1.2226
 8844SOL    HW227954   1.070   4.596   4.664 -2.1252  0.7194 -0.0775
 8845SOL     OW27955   7.606   0.965   6.184 -0.2288 -0.2335  0.1875
 8845SOL    HW127956   7.535   0.920   6.137  0.7329  0.4694 -2.0204
 8845SOL    HW227957   7.678   0.902   6.184  0.3024  0.3657 -0.7185
 8846SOL     OW27958   5.012   2.763   2.863 -0.0311  0.3699  0.9877
 8846SOL    HW127959   4.937   2.798   2.910  0.9218  3.7422  0.2789
 8846SOL    HW227960   5.081   2.756   2.930 -0.3775 -0.8338  1.2438
 8847SOL     OW27961   4.130   7.964   3.397  0.3895  0.0314  0.3445
 8847SOL    HW127962   4.118   7.967   3.302  2.4591 -1.1840  0.0065
 8847SOL    HW227963   4.139   8.056   3.423 -0.5877  0.3978 -0.5419
 8848SOL     OW27964   8.261   6.357   2.374  0.1109  0.1143  0.1559
 8848SOL    HW127965   8.172   6.351   2.409  0.4810 -0.6375  1.0209
 8848SOL    HW227966   8.315   6.378   2.450  0.4430  2.7957 -0.7160
 8849SOL     OW27967   0.099   7.951   0.154 -0.2440 -0.0829  0.2710
 8849SOL    HW127968   0.146   7.892   0.095 -0.2205  0.9250 -0.7531
 8849SOL    HW227969   0.164   8.016   0.180 -0.3047 -0.4130  1.2814
 8850SOL     OW27970   4.570   0.594   4.300 -0.0267  0.0224  0.0235
 8850SOL    HW127971   4.488   0.629   4.333  0.2603  1.4155 -0.6779
 8850SOL    HW227972   4.568   0.610   4.206  0.4902 -1.1142 -0.2027
 8851SOL     OW27973   5.660   0.500   6.820 -0.0238  0.1686 -0.2620
 8851SOL    HW127974   5.585   0.504   6.879 -0.6098  1.2911 -1.0396
 8851SOL    HW227975   5.698   0.413   6.835  0.3473  0.6850  2.3307
 8852SOL     OW27976   8.403   3.683   6.333  0.5883  0.5012  0.2413
 8852SOL    HW127977   8.347   3.606   6.340 -2.2294  2.3363 -0.3333
 8852SOL    HW227978   8.392   3.728   6.416  0.8418  1.1054 -0.0477
 8853SOL     OW27979   8.263   2.540   8.895 -0.0249  0.0682 -0.0058
 8853SOL    HW127980   8.224   2.453   8.905 -0.4772  0.4899  2.4977
 8853SOL    HW227981   8.349   2.523   8.856 -0.6634 -1.3290 -0.9160
 8854SOL     OW27982   4.791   6.140   7.628  0.3168 -0.2009 -0.3029
 8854SOL    HW127983   4.827   6.068   7.576  2.5172  0.6776 -0.1326
 8854SOL    HW227984   4.788   6.107   7.717 -0.5464 -0.7003 -0.5074
 8855SOL     OW27985   0.985   8.837   5.090  0.5081  0.7593  0.1569
 8855SOL    HW127986   1.014   8.885   5.168  0.8135  1.3530 -0.3165
 8855SOL    HW227987   1.063   8.833   5.034  0.3039  0.2961 -0.0975
 8856SOL     OW27988   1.012   0.366   5.746 -0.5973  0.1105  0.0544
 8856SOL    HW127989   0.960   0.289   5.719 -0.4322  0.3883 -1.0916
 8856SOL    HW227990   1.102   0.340   5.729 -0.6005  0.9234 -1.3634
 8857SOL     OW27991   0.024   8.024   4.399 -0.2256 -0.4701  0.0512
 8857SOL    HW127992   0.036   7.998   4.491 -1.8933 -2.1279 -0.1207
 8857SOL    HW227993  -0.054   7.975   4.371 -1.2439  1.9037 -1.5404
 8858SOL     OW27994   5.531   4.089   2.813 -0.3774 -0.6778  0.1063
 8858SOL    HW127995   5.451   4.142   2.808 -0.9590 -1.4351  0.9985
 8858SOL    HW227996   5.587   4.137   2.875  0.0292  0.0516 -0.8107
 8859SOL     OW27997   1.307   3.703   5.739 -0.3797 -0.5688 -0.5933
 8859SOL    HW127998   1.279   3.614   5.762  0.3167 -0.9353 -1.1512
 8859SOL    HW227999   1.401   3.696   5.724 -0.7084 -0.3122 -3.2534
 8860SOL     OW28000   4.335   7.145   8.822  0.7348  0.1623 -0.3890
 8860SOL    HW128001   4.274   7.154   8.749  1.1571 -1.5764 -1.0007
 8860SOL    HW228002   4.420   7.133   8.780  0.8907 -1.5121  0.3629
 8861SOL     OW28003   0.570   7.263   7.009 -0.0402 -0.1002 -0.2266
 8861SOL    HW128004   0.564   7.329   7.079  0.4099  0.3840 -0.6386
 8861SOL    HW228005   0.631   7.300   6.946  0.1574 -0.8801 -0.5081
 8862SOL     OW28006   8.544   2.590   1.299 -0.4770 -0.0534 -0.3610
 8862SOL    HW128007   8.624   2.593   1.352  0.3344  0.9112 -1.5812
 8862SOL    HW228008   8.493   2.518   1.336  1.2433 -1.1234  0.0467
 8863SOL     OW28009   3.469   1.290   3.310 -0.0474  0.2181  0.2923
 8863SOL    HW128010   3.441   1.370   3.353 -2.3746 -0.4578  0.1707
 8863SOL    HW228011   3.418   1.287   3.229  0.4747 -1.0568 -0.0212
 8864SOL     OW28012   0.983   5.542   7.003 -0.0795  1.0640  0.0215
 8864SOL    HW128013   1.053   5.561   7.066  1.9994  1.4241 -2.2343
 8864SOL    HW228014   1.002   5.453   6.972  0.8181  1.9650 -2.2383
 8865SOL     OW28015   1.950   2.177   6.744  0.3011  0.7608  0.0122
 8865SOL    HW128016   1.921   2.101   6.795  1.6451  1.1931  1.4894
 8865SOL    HW228017   1.988   2.140   6.664  0.4531 -0.0788  0.4676
 8866SOL     OW28018   8.785   0.924   7.057 -0.0344 -0.1103 -0.4291
 8866SOL    HW128019   8.808   0.911   7.149 -2.8894 -0.6382  0.2963
 8866SOL    HW228020   8.823   1.009   7.035 -1.3294  1.2257  2.0357
 8867SOL     OW28021   1.438   1.791   5.522  0.0871 -0.3832 -0.3423
 8867SOL    HW128022   1.505   1.849   5.485 -0.7042  0.5971 -0.2942
 8867SOL    HW228023   1.488   1.724   5.569  1.0382  0.0506 -0.6962
 8868SOL     OW28024   1.148   6.625   6.303 -0.9952  0.5271  0.2435
 8868SOL    HW128025   1.231   6.579   6.317 -2.7464 -2.5895  1.4613
 8868SOL    HW228026   1.139   6.630   6.207 -1.2611 -3.1016 -0.0668
 8869SOL     OW28027   2.234   0.434   8.383  0.9037  0.4540 -0.2338
 8869SOL    HW128028   2.141   0.448   8.366  0.7483  0.5128  0.6222
 8869SOL    HW228029   2.278   0.504   8.336  0.3927  1.4688  0.7720
 8870SOL     OW28030   6.494   6.256   6.641 -0.2891  0.1359 -0.1882
 8870SOL    HW128031   6.534   6.312   6.574 -0.1687  0.6310  0.2963
 8870SOL    HW228032   6.568   6.227   6.695 -0.3704 -0.3701 -0.3443
 8871SOL     OW28033   0.820   8.939   3.715 -0.2859  0.2327 -0.1909
 8871SOL    HW128034   0.733   8.904   3.700  0.7197 -3.3822  1.2751
 8871SOL    HW228035   0.814   8.985   3.799 -0.8700  0.5259 -0.3880
 8872SOL     OW28036   6.543   6.607   1.088  0.2619  0.4704  0.1411
 8872SOL    HW128037   6.604   6.545   1.049 -1.5866 -0.9704 -0.6520
 8872SOL    HW228038   6.577   6.623   1.176  0.9103 -1.5549  0.3057
 8873SOL     OW28039   2.693   8.090   7.152 -0.9631 -0.6092 -0.0608
 8873SOL    HW128040   2.609   8.121   7.120 -1.7469 -0.9285  1.5936
 8873SOL    HW228041   2.691   7.996   7.138 -1.0050 -0.6545  0.2455
 8874SOL     OW28042   9.220   3.045   0.252  0.3270  0.1505  0.2160
 8874SOL    HW128043   9.217   3.011   0.341 -2.1593  2.3522  1.1190
 8874SOL    HW228044   9.153   2.995   0.205  0.4967  0.1063  0.0180
 8875SOL     OW28045   3.780   2.147   0.183  0.5089 -0.2097 -0.1799
 8875SOL    HW128046   3.694   2.186   0.167 -0.0887 -2.0720 -1.9134
 8875SOL    HW228047   3.826   2.212   0.235 -1.0974  1.9112 -1.2554
 8876SOL     OW28048   9.229   0.299   3.824  0.3710 -0.2486 -0.8801
 8876SOL    HW128049   9.311   0.325   3.781 -0.2709  1.2501 -1.2531
 8876SOL    HW228050   9.243   0.207   3.848  3.3589  0.7049  1.7994
 8877SOL     OW28051   2.469   2.926   8.790 -0.2516 -0.3197  0.4151
 8877SOL    HW128052   2.419   2.851   8.757 -0.2559 -0.8220  1.4970
 8877SOL    HW228053   2.460   2.920   8.885  0.6236  0.4594  0.5605
 8878SOL     OW28054   7.443   1.320   7.799 -0.1061 -0.2017  0.5434
 8878SOL    HW128055   7.388   1.387   7.759 -1.3701 -1.1366  0.6680
 8878SOL    HW228056   7.494   1.367   7.865  1.3451  1.1991 -1.4665
 8879SOL     OW28057   1.067   4.580   0.735  0.0694  0.5218 -0.0453
 8879SOL    HW128058   0.993   4.547   0.684  1.5996 -1.5033 -1.1056
 8879SOL    HW228059   1.037   4.578   0.826 -1.4077  0.4897 -0.5148
 8880SOL     OW28060   8.753   2.272   3.811 -0.2036 -0.4812  0.3264
 8880SOL    HW128061   8.685   2.218   3.770  1.3208 -3.8021  1.7488
 8880SOL    HW228062   8.748   2.250   3.904 -1.9653  4.9552  1.8754
 8881SOL     OW28063   2.778   6.449   1.650  0.0468  0.1840 -0.2909
 8881SOL    HW128064   2.813   6.493   1.728 -2.0422  0.7675  0.3819
 8881SOL    HW228065   2.844   6.383   1.629  0.5293 -0.2523  2.2056
 8882SOL     OW28066   6.279   1.274   1.554 -0.4067  0.2848  0.2613
 8882SOL    HW128067   6.233   1.245   1.475  1.6204  1.0098 -1.2794
 8882SOL    HW228068   6.265   1.203   1.618  0.5809 -1.9573 -1.8392
 8883SOL     OW28069   5.057   5.366   7.672 -0.3105 -0.4872  0.0231
 8883SOL    HW128070   5.016   5.392   7.755  1.0712  0.7046  0.3732
 8883SOL    HW228071   5.001   5.405   7.605 -0.2553  0.3833  0.4679
 8884SOL     OW28072   1.593   7.258   1.607  0.1275  0.2706  0.0326
 8884SOL    HW128073   1.528   7.227   1.670 -0.6271  1.9068  0.1130
 8884SOL    HW228074   1.584   7.198   1.533 -1.6636  0.5746 -0.0473
 8885SOL     OW28075   0.721   0.968   2.604  0.0617 -0.4262  0.1647
 8885SOL    HW128076   0.799   1.022   2.608 -0.2287 -0.0767  1.5001
 8885SOL    HW228077   0.714   0.928   2.690 -0.6167 -1.3416 -0.2864
 8886SOL     OW28078   7.883   5.476   3.718 -0.0041  0.3705 -0.4363
 8886SOL    HW128079   7.927   5.450   3.799  1.0915  0.7602 -0.8847
 8886SOL    HW228080   7.821   5.406   3.700 -0.0004  0.1087  0.5483
 8887SOL     OW28081   1.595   8.495   8.981 -0.1450 -0.0535  0.5707
 8887SOL    HW128082   1.629   8.563   9.039  0.7735  0.5021 -0.5796
 8887SOL    HW228083   1.672   8.465   8.932 -0.5295 -1.9544  1.0793
 8888SOL     OW28084   2.093   4.590   7.922  0.0838  0.0606 -1.0030
 8888SOL    HW128085   2.014   4.637   7.946 -0.5362 -0.9615 -0.9958
 8888SOL    HW228086   2.114   4.537   7.999  0.7946  0.3366 -0.9947
 8889SOL     OW28087   6.633   4.236   8.297  0.1420 -0.5114 -0.4791
 8889SOL    HW128088   6.725   4.230   8.269  0.1522 -1.4149 -0.2992
 8889SOL    HW228089   6.593   4.295   8.234  1.3053  1.6244  0.6865
 8890SOL     OW28090   3.075   1.563   3.074  0.3983 -0.3977 -0.3728
 8890SOL    HW128091   3.117   1.492   3.123  3.1806  1.6663  0.5083
 8890SOL    HW228092   3.029   1.614   3.140 -0.2574 -0.4817 -0.7565
 8891SOL     OW28093   9.161   4.488   1.122  0.8802  0.1843  0.0085
 8891SOL    HW128094   9.234   4.542   1.091  0.0470  1.4392  0.1670
 8891SOL    HW228095   9.088   4.550   1.132 -0.1454 -0.9979  0.0704
 8892SOL     OW28096   2.093   4.182   5.579  0.0787 -0.1518  0.2193
 8892SOL    HW128097   2.089   4.131   5.660 -0.7852  0.0274  0.2969
 8892SOL    HW228098   2.017   4.241   5.583  0.1090 -0.0335 -0.6503
 8893SOL     OW28099   5.992   6.667   4.879  0.2247 -0.0172 -0.5133
 8893SOL    HW128100   6.069   6.701   4.833 -0.7885  0.5673 -1.8636
 8893SOL    HW228101   6.021   6.656   4.970  1.9472 -0.0175 -1.0244
 8894SOL     OW28102   7.710   2.327   1.990  0.1670 -0.2261  0.2238
 8894SOL    HW128103   7.714   2.356   2.081  1.9658  1.6857 -0.3977
 8894SOL    HW228104   7.669   2.399   1.943  0.7547 -0.4947 -0.7342
 8895SOL     OW28105   6.586   3.270   8.920 -0.4709 -0.2251 -0.4036
 8895SOL    HW128106   6.637   3.193   8.897 -1.4931 -0.5113 -1.8219
 8895SOL    HW228107   6.504   3.236   8.954 -0.2133  0.2407  0.7300
 8896SOL     OW28108   6.284   9.257   9.137 -0.4256  0.0391 -0.8190
 8896SOL    HW128109   6.325   9.295   9.214 -0.0511 -0.4377 -0.7789
 8896SOL    HW228110   6.329   9.173   9.125 -1.2714 -0.4232 -0.8619
 8897SOL     OW28111   5.159   5.892   4.033  0.0303 -0.5897  0.5362
 8897SOL    HW128112   5.253   5.911   4.024 -0.0814 -0.4184 -0.2869
 8897SOL    HW228113   5.136   5.930   4.118  0.2163  1.3981 -0.2510
 8898SOL     OW28114   4.352   6.651   6.840 -0.3339 -0.2936  0.4137
 8898SOL    HW128115   4.426   6.704   6.812  0.0804  0.1595  2.2305
 8898SOL    HW228116   4.313   6.619   6.759  0.7852  0.9071 -0.6391
 8899SOL     OW28117   2.019   7.460   2.981  0.0144  0.0800  0.0340
 8899SOL    HW128118   1.974   7.463   2.896 -2.3294  0.1045  1.2058
 8899SOL    HW228119   1.984   7.383   3.024 -1.6293  1.9703  2.3623
 8900SOL     OW28120   3.848   7.957   4.865  0.0214 -0.0939 -0.2189
 8900SOL    HW128121   3.765   7.982   4.905  0.7842  0.6516  0.9855
 8900SOL    HW228122   3.911   8.022   4.897  1.1341 -0.8185 -0.8408
 8901SOL     OW28123   5.628   5.057   1.781  0.4575  0.2171  0.4172
 8901SOL    HW128124   5.678   5.029   1.705 -0.9826 -2.2157  0.2614
 8901SOL    HW228125   5.678   5.023   1.856  1.0531  1.2569  0.5175
 8902SOL     OW28126   3.371   4.049   2.143 -0.0003  0.1644  0.0416
 8902SOL    HW128127   3.287   4.046   2.188 -0.5393 -0.9604 -0.9568
 8902SOL    HW228128   3.352   4.014   2.056  1.7961 -1.6236  0.2967
 8903SOL     OW28129   2.146   5.471   0.705 -0.3162  0.7419 -0.1446
 8903SOL    HW128130   2.125   5.557   0.742 -0.8012  1.1241 -1.2499
 8903SOL    HW228131   2.193   5.492   0.623  1.8534 -0.0762  0.8229
 8904SOL     OW28132   2.775   7.890   5.955 -0.4023  0.6834 -0.3386
 8904SOL    HW128133   2.739   7.886   6.044 -0.4190  0.9644 -0.3319
 8904SOL    HW228134   2.729   7.964   5.914  0.4420  1.2807 -0.2140
 8905SOL     OW28135   6.546   3.152   2.381 -0.2377 -0.3822 -0.4865
 8905SOL    HW128136   6.517   3.070   2.343  0.7315 -0.6664 -0.6253
 8905SOL    HW228137   6.575   3.129   2.470 -2.6089  0.2906  0.5548
 8906SOL     OW28138   2.404   5.791   3.545  0.5915  0.1143  0.7606
 8906SOL    HW128139   2.353   5.711   3.558  1.0362 -0.6025 -1.4863
 8906SOL    HW228140   2.481   5.779   3.600 -0.5939  0.2499  2.5308
 8907SOL     OW28141   7.866   1.954   4.501 -0.4659  0.3172  0.0849
 8907SOL    HW128142   7.918   2.015   4.553 -0.4126  0.8380 -0.5706
 8907SOL    HW228143   7.831   2.007   4.429  0.9415 -0.7658 -1.4531
 8908SOL     OW28144   4.782   2.875   1.345 -0.1019  0.0366  0.4323
 8908SOL    HW128145   4.802   2.832   1.428 -3.2841  0.9320  1.8452
 8908SOL    HW228146   4.727   2.950   1.370 -2.4603 -0.4994 -2.5014
 8909SOL     OW28147   0.153   3.862   3.235 -0.0287  0.3489  0.1097
 8909SOL    HW128148   0.195   3.834   3.316 -0.6150 -1.2281 -0.1053
 8909SOL    HW228149   0.194   3.809   3.166  0.5195  1.7210 -0.6693
 8910SOL     OW28150   2.364   4.673   4.049 -0.1141 -0.0722 -0.2363
 8910SOL    HW128151   2.360   4.629   3.964 -0.6465  0.3103 -0.4142
 8910SOL    HW228152   2.457   4.685   4.065  0.0383 -1.0994 -0.2707
 8911SOL     OW28153   6.277   1.159   0.894 -0.0121 -0.0089  0.2709
 8911SOL    HW128154   6.358   1.176   0.845 -0.3112  1.4636  0.2510
 8911SOL    HW228155   6.207   1.183   0.833 -0.4012  1.1161  1.1218
 8912SOL     OW28156   4.371   1.935   1.306 -0.1569 -0.1404  0.4685
 8912SOL    HW128157   4.416   2.019   1.317  0.1702 -0.3073  0.4196
 8912SOL    HW228158   4.376   1.893   1.392  1.1492 -0.8279  0.0829
 8913SOL     OW28159   5.648   3.913   3.183 -0.2831  0.0812  0.1710
 8913SOL    HW128160   5.673   3.922   3.275 -0.2212  0.2892  0.1341
 8913SOL    HW228161   5.572   3.970   3.173 -1.4994 -1.3956  0.5557
 8914SOL     OW28162   4.212   2.425   7.767  0.4824 -1.0866 -0.6937
 8914SOL    HW128163   4.296   2.470   7.777 -0.5896  1.0942 -1.1292
 8914SOL    HW228164   4.176   2.423   7.856 -1.0187  2.2102 -1.0890
 8915SOL     OW28165   1.085   7.414   4.191  0.2680 -0.6165  0.2496
 8915SOL    HW128166   1.060   7.376   4.107 -0.6672 -1.0226  0.7025
 8915SOL    HW228167   1.003   7.422   4.240  0.4094  1.9113  0.2369
 8916SOL     OW28168   8.674   3.338   0.657 -0.6207 -0.1035  0.3137
 8916SOL    HW128169   8.602   3.390   0.692 -1.0695 -0.4076 -0.1380
 8916SOL    HW228170   8.632   3.263   0.615 -0.0320 -0.3782  0.1927
 8917SOL     OW28171   4.465   3.221   4.210  0.0104 -0.3030  0.1691
 8917SOL    HW128172   4.389   3.261   4.254 -1.6025 -1.2940 -1.5837
 8917SOL    HW228173   4.534   3.222   4.277 -1.6184  0.3659  1.9488
 8918SOL     OW28174   3.779   8.979   2.878 -0.4721  0.5480 -0.0269
 8918SOL    HW128175   3.730   9.032   2.941  2.3587  1.7709  1.3688
 8918SOL    HW228176   3.850   9.037   2.849  1.1980 -1.6141 -0.5182
 8919SOL     OW28177   8.326   5.845   6.719 -0.3293 -0.5219 -0.3042
 8919SOL    HW128178   8.338   5.940   6.715 -0.6005 -0.4640  0.2681
 8919SOL    HW228179   8.405   5.810   6.677 -0.6253 -0.0331 -1.3025
 8920SOL     OW28180   6.424   4.825   4.307  0.3571  0.2816 -0.3874
 8920SOL    HW128181   6.368   4.778   4.246  1.0164 -0.9280 -0.0798
 8920SOL    HW228182   6.402   4.918   4.292 -0.7033 -0.0815 -1.2420
 8921SOL     OW28183   7.688   9.005   4.636  0.1044 -0.1926  0.9593
 8921SOL    HW128184   7.646   8.921   4.621  0.8385 -0.2190 -1.2140
 8921SOL    HW228185   7.616   9.063   4.662 -0.7573 -0.9936  0.4338
 8922SOL     OW28186   3.779   1.088   3.783  0.1851 -0.2774  0.1773
 8922SOL    HW128187   3.800   1.000   3.752  1.0837  0.4240 -1.3478
 8922SOL    HW228188   3.692   1.107   3.746 -0.2451 -0.7139  0.9545
 8923SOL     OW28189   5.340   3.609   7.126  0.4794 -0.2130 -0.2189
 8923SOL    HW128190   5.386   3.579   7.047  1.1752  2.2564 -0.8628
 8923SOL    HW228191   5.276   3.671   7.093 -0.9145 -0.9561  1.0050
 8924SOL     OW28192   5.564   4.009   5.989  0.0813  0.3892 -0.4118
 8924SOL    HW128193   5.567   4.102   6.010 -0.7155  0.1425  0.8838
 8924SOL    HW228194   5.477   3.996   5.951 -0.8943 -0.2699  1.8743
 8925SOL     OW28195   1.326   8.338   6.107  0.1758 -0.2773  0.2128
 8925SOL    HW128196   1.264   8.405   6.078  2.3377  2.3255  1.1094
 8925SOL    HW228197   1.334   8.278   6.033 -2.5555 -0.1367 -0.2976
 8926SOL     OW28198   6.065   6.676   3.804  0.4409  0.2287 -0.1854
 8926SOL    HW128199   6.039   6.754   3.853 -0.7522  0.2397 -0.7935
 8926SOL    HW228200   6.047   6.698   3.713 -0.8844 -1.1092 -0.2861
 8927SOL     OW28201   4.164   0.199   0.400  0.2353 -0.2940 -0.6022
 8927SOL    HW128202   4.221   0.169   0.472  0.2239  1.9012  0.4096
 8927SOL    HW228203   4.185   0.140   0.327  0.9749 -1.9859  0.8761
 8928SOL     OW28204   1.101   8.517   9.100  0.0658  0.6844  0.2312
 8928SOL    HW128205   1.029   8.469   9.139  0.7943 -0.1436  0.5963
 8928SOL    HW228206   1.176   8.457   9.105  1.0916  1.9700  1.0330
 8929SOL     OW28207   8.093   2.282   8.404  0.0038 -0.3962 -0.2458
 8929SOL    HW128208   8.173   2.331   8.423 -0.4900 -0.2123  1.5310
 8929SOL    HW228209   8.045   2.337   8.342 -0.4149  1.3446  1.4963
 8930SOL     OW28210   1.519   2.326   1.808  0.1877  0.3150 -0.0156
 8930SOL    HW128211   1.591   2.265   1.820  2.3456  2.5094 -0.8873
 8930SOL    HW228212   1.543   2.377   1.730 -1.7423  1.8948  0.3265
 8931SOL     OW28213   6.119   8.683   6.674  0.2055 -0.2172 -0.7310
 8931SOL    HW128214   6.171   8.668   6.595  0.7791  1.3683 -0.6992
 8931SOL    HW228215   6.132   8.605   6.727  1.4993 -0.4209 -1.3166
 8932SOL     OW28216   7.471   0.889   2.777 -0.2318  0.4200  0.5348
 8932SOL    HW128217   7.415   0.951   2.823  1.6840  2.2747  0.4912
 8932SOL    HW228218   7.417   0.858   2.704 -1.9606  0.3770  1.7637
 8933SOL     OW28219   7.353   1.008   0.820  0.6383  0.6908  0.5433
 8933SOL    HW128220   7.431   1.058   0.843  3.0565 -3.3215  2.3763
 8933SOL    HW228221   7.332   0.960   0.900 -1.5849 -0.9494 -0.9100
 8934SOL     OW28222   6.222   5.013   1.999 -0.0838 -0.7037 -0.0268
 8934SOL    HW128223   6.157   5.067   2.044  1.8444  0.8715  0.9652
 8934SOL    HW228224   6.229   4.934   2.054  1.8617  0.9650  2.3355
 8935SOL     OW28225   7.055   5.605   2.621 -0.3693 -0.3769  0.4705
 8935SOL    HW128226   7.123   5.539   2.611 -0.3925 -0.7448  2.3198
 8935SOL    HW228227   6.985   5.579   2.561  0.6610 -0.5839 -0.6683
 8936SOL     OW28228   0.652   1.178   3.788  0.3216 -0.4269 -0.2193
 8936SOL    HW128229   0.673   1.249   3.727 -1.8490 -0.5100 -1.1768
 8936SOL    HW228230   0.655   1.220   3.874 -0.8030  0.8508 -0.7508
 8937SOL     OW28231   1.012   2.775   4.527 -0.7454 -0.2496 -0.0352
 8937SOL    HW128232   1.021   2.686   4.492 -0.7610  0.3301 -1.5882
 8937SOL    HW228233   1.098   2.814   4.515 -0.8504  0.0818  0.2714
 8938SOL     OW28234   3.236   3.675   7.357  0.0490 -0.1391  0.0234
 8938SOL    HW128235   3.295   3.672   7.283  0.9268 -0.4943  0.7184
 8938SOL    HW228236   3.291   3.703   7.431 -0.9265  0.8102  0.4211
 8939SOL     OW28237   0.547   1.791   4.002 -0.3958  0.0632 -0.2844
 8939SOL    HW128238   0.462   1.798   4.045 -0.4201  0.9671 -0.4735
 8939SOL    HW228239   0.553   1.699   3.976 -0.3976 -0.5091  1.6038
 8940SOL     OW28240   6.681   5.536   3.351 -0.1262  0.2952  0.0553
 8940SOL    HW128241   6.698   5.445   3.374 -1.0977 -0.2961 -1.4600
 8940SOL    HW228242   6.766   5.580   3.364  0.4933 -0.9107  0.2687
 8941SOL     OW28243   2.858   6.871   6.093 -0.3922  0.1846 -0.6943
 8941SOL    HW128244   2.945   6.860   6.055  0.0546 -0.0400  0.3533
 8941SOL    HW228245   2.824   6.782   6.099 -0.8449  0.3024 -1.4219
 8942SOL     OW28246   1.527   2.856   4.572  0.0392  0.2226  0.0664
 8942SOL    HW128247   1.436   2.880   4.560  0.4146  1.6504 -0.1715
 8942SOL    HW228248   1.575   2.938   4.560  1.3829 -0.5716 -0.2090
 8943SOL     OW28249   7.805   5.550   5.097 -0.2568 -0.1893  0.4740
 8943SOL    HW128250   7.887   5.565   5.143 -0.3447 -1.1647  0.9800
 8943SOL    HW228251   7.738   5.558   5.166 -0.6319  0.9882 -0.0037
 8944SOL     OW28252   3.254   0.968   2.073  0.1246 -0.0109 -0.7696
 8944SOL    HW128253   3.283   0.994   1.985  1.9941 -0.2140 -0.2447
 8944SOL    HW228254   3.334   0.960   2.124 -0.6833 -2.3847  0.2989
 8945SOL     OW28255   1.802   1.402   8.629 -0.4890 -0.1887  0.0491
 8945SOL    HW128256   1.731   1.358   8.581  1.4063 -2.3781 -0.9135
 8945SOL    HW228257   1.830   1.338   8.694  0.7665  0.5314  0.2478
 8946SOL     OW28258   0.454   1.809   0.995 -0.5428  0.7629 -0.7573
 8946SOL    HW128259   0.380   1.780   0.941 -1.6855  0.3675  0.9122
 8946SOL    HW228260   0.421   1.802   1.085  1.8126 -0.1951  0.1130
 8947SOL     OW28261   1.842   9.167   5.238  0.0368 -0.4472 -0.1263
 8947SOL    HW128262   1.799   9.162   5.153 -0.2370 -2.7423  0.0909
 8947SOL    HW228263   1.781   9.124   5.298  0.5623  0.4697  1.1018
 8948SOL     OW28264   1.853   3.993   0.742  0.5486 -0.0964  0.3471
 8948SOL    HW128265   1.844   4.058   0.672 -0.5268 -0.5332  0.0656
 8948SOL    HW228266   1.880   4.044   0.819 -0.0465  0.6559  0.0664
 8949SOL     OW28267   8.616   1.384   8.717  0.3847  0.4739 -0.5596
 8949SOL    HW128268   8.692   1.435   8.690  1.2521 -0.2471  0.4195
 8949SOL    HW228269   8.650   1.296   8.734 -1.0209 -0.4130 -1.9467
 8950SOL     OW28270   0.017   2.949   4.876  0.1945  0.2985 -0.3174
 8950SOL    HW128271   0.044   2.888   4.945  0.8917 -0.5496 -1.3015
 8950SOL    HW228272  -0.010   3.028   4.923  0.1525 -0.4351  0.9492
 8951SOL     OW28273   8.751   3.276   4.685  0.3517 -0.3570 -0.0957
 8951SOL    HW128274   8.779   3.366   4.667 -0.4739  0.1317  0.9615
 8951SOL    HW228275   8.800   3.251   4.763  0.7785 -0.9348 -0.5411
 8952SOL     OW28276   0.457   0.668   6.230 -0.2924  0.3979  0.3283
 8952SOL    HW128277   0.492   0.617   6.157 -1.9589 -1.2464  0.6022
 8952SOL    HW228278   0.499   0.754   6.222  0.2238 -0.0127 -2.0161
 8953SOL     OW28279   1.743   7.322   9.184  0.1146  0.3256 -0.1815
 8953SOL    HW128280   1.760   7.240   9.136  0.4056  0.5402 -0.4516
 8953SOL    HW228281   1.814   7.328   9.247 -0.4088 -0.0836  0.4569
 8954SOL     OW28282   3.764   4.533   0.855 -0.3601  0.6392  0.2829
 8954SOL    HW128283   3.788   4.543   0.763  0.3540  1.2576  0.5219
 8954SOL    HW228284   3.746   4.439   0.865  1.8538  0.1241  0.0173
 8955SOL     OW28285   7.492   5.105   3.688  0.0203 -0.4296  0.3889
 8955SOL    HW128286   7.420   5.139   3.635  0.1644 -0.8226 -0.0642
 8955SOL    HW228287   7.449   5.061   3.761 -0.1740  0.3420  0.7459
 8956SOL     OW28288   8.465   2.943   8.237 -0.4226 -0.3175  0.3257
 8956SOL    HW128289   8.559   2.950   8.255 -0.6156  1.0134  0.9397
 8956SOL    HW228290   8.442   3.027   8.196 -1.4740 -0.3288  0.8651
 8957SOL     OW28291   2.272   1.257   7.718  0.6477 -0.7862 -0.2356
 8957SOL    HW128292   2.246   1.187   7.778  0.2732 -1.0879 -0.7375
 8957SOL    HW228293   2.192   1.308   7.705  0.8392 -0.4587 -0.1273
 8958SOL     OW28294   1.498   0.965   7.065 -0.0891 -1.0032  0.6241
 8958SOL    HW128295   1.552   0.889   7.043  1.3295  0.1954 -0.2776
 8958SOL    HW228296   1.448   0.938   7.142  3.3745 -1.5185  2.9038
 8959SOL     OW28297   8.915   5.493   8.217 -0.3236  0.1158  0.1323
 8959SOL    HW128298   8.910   5.577   8.262 -4.0647 -0.5327  1.3241
 8959SOL    HW228299   8.889   5.512   8.127 -3.1468  0.1410  0.8482
 8960SOL     OW28300   3.256   4.488   3.384 -0.2403 -0.5513 -0.0020
 8960SOL    HW128301   3.248   4.502   3.479 -1.5367  1.2248 -0.3453
 8960SOL    HW228302   3.337   4.533   3.361 -1.3318  1.4370 -0.1344
 8961SOL     OW28303   8.510   8.185   5.649  0.4501 -0.5512 -0.2887
 8961SOL    HW128304   8.481   8.133   5.575  0.8481 -1.5896  0.2658
 8961SOL    HW228305   8.580   8.241   5.614 -0.2944 -0.0319 -0.9873
 8962SOL     OW28306   1.146   7.719   4.266  0.0617 -0.1053 -0.2462
 8962SOL    HW128307   1.170   7.743   4.177  1.7769  0.5174  0.3595
 8962SOL    HW228308   1.152   7.623   4.268 -2.1602 -0.3308 -1.3588
 8963SOL     OW28309   0.398   4.579   3.828 -0.5719  0.1250 -0.5550
 8963SOL    HW128310   0.358   4.619   3.751  0.2070  0.0938 -0.9893
 8963SOL    HW228311   0.434   4.654   3.877 -1.2823  0.1673 -0.0866
 8964SOL     OW28312   4.509   0.499   9.135  0.1366  0.2161  0.3552
 8964SOL    HW128313   4.503   0.455   9.219  1.4821  1.3004  1.0572
 8964SOL    HW228314   4.454   0.577   9.144 -0.8681 -0.3962 -0.2898
 8965SOL     OW28315   9.142   6.549   1.622  0.2540 -0.8322  0.3450
 8965SOL    HW128316   9.122   6.462   1.656 -2.2999 -0.1539  0.8459
 8965SOL    HW228317   9.065   6.602   1.646  1.1094  1.2216 -1.1276
 8966SOL     OW28318   7.411   7.937   7.839  0.2180 -0.0375 -0.2159
 8966SOL    HW128319   7.473   7.962   7.907  1.3675 -0.7823 -0.9675
 8966SOL    HW228320   7.340   8.002   7.846  0.0685 -0.3518  1.9716
 8967SOL     OW28321   2.121   5.623   7.108  0.5531  0.3009  0.0113
 8967SOL    HW128322   2.197   5.566   7.100  1.9150  2.0170  0.1501
 8967SOL    HW228323   2.101   5.624   7.201 -0.1495 -0.7412 -0.1097
 8968SOL     OW28324   6.449   8.949   8.365  0.5055  0.2185  0.7797
 8968SOL    HW128325   6.479   8.896   8.438  0.4030  1.8823  2.1108
 8968SOL    HW228326   6.505   8.924   8.292 -0.0674 -2.2330  1.0974
 8969SOL     OW28327   3.193   1.748   9.233 -0.2272  0.3953 -0.7208
 8969SOL    HW128328   3.277   1.714   9.263 -0.3352  1.3212  0.7077
 8969SOL    HW228329   3.131   1.722   9.301 -1.4393 -1.5436 -2.4460
 8970SOL     OW28330   0.020   3.340   8.569  0.0885 -0.3787  0.5726
 8970SOL    HW128331  -0.023   3.354   8.654 -0.9142 -0.2245  0.0553
 8970SOL    HW228332   0.006   3.422   8.522 -0.1774 -0.7956 -0.0853
 8971SOL     OW28333   1.402   7.173   7.821  0.1206  0.1253 -0.0644
 8971SOL    HW128334   1.357   7.093   7.796  1.6660 -0.6953 -0.3693
 8971SOL    HW228335   1.396   7.176   7.916  0.3823 -0.5626 -0.0253
 8972SOL     OW28336   3.085   2.343   1.704  0.2145 -0.3770  0.0291
 8972SOL    HW128337   3.036   2.387   1.634 -0.3295  0.8876  1.1596
 8972SOL    HW228338   3.176   2.372   1.691 -0.0092  0.4632  0.2882
 8973SOL     OW28339   7.674   7.245   5.193  0.5714  0.2755  0.2400
 8973SOL    HW128340   7.605   7.256   5.258 -0.9315  1.5405 -1.4588
 8973SOL    HW228341   7.747   7.297   5.225  0.9513 -1.3885  2.2629
 8974SOL     OW28342   4.437   5.966   4.054 -0.0645 -0.5313 -0.0642
 8974SOL    HW128343   4.365   5.926   4.102  1.0329 -0.8385  1.3921
 8974SOL    HW228344   4.493   5.893   4.029  1.8188 -0.0292  2.3784
 8975SOL     OW28345   1.461   5.602   7.609 -0.9846 -0.0531 -0.4058
 8975SOL    HW128346   1.445   5.563   7.695  0.3511 -0.7341 -0.4575
 8975SOL    HW228347   1.529   5.667   7.624  2.5591 -3.1664 -1.6005
 8976SOL     OW28348   8.909   5.082   0.751 -0.4416 -0.2211 -0.1603
 8976SOL    HW128349   8.943   5.042   0.831 -0.8002  0.6648  0.4423
 8976SOL    HW228350   8.814   5.080   0.762 -0.4634  1.0588  0.0205
 8977SOL     OW28351   6.821   8.159   5.410 -0.1557 -0.7675 -0.3062
 8977SOL    HW128352   6.781   8.113   5.337 -0.6555 -1.9772  0.7032
 8977SOL    HW228353   6.890   8.100   5.441 -1.1113 -1.1038  1.3008
 8978SOL     OW28354   5.255   8.073   3.746  0.0706  0.3530  0.4769
 8978SOL    HW128355   5.350   8.079   3.736 -0.1099  0.5351 -1.5618
 8978SOL    HW228356   5.220   8.140   3.687 -1.3263  0.5374  1.4674
 8979SOL     OW28357   3.719   6.168   0.183 -0.3791  0.3534  0.4988
 8979SOL    HW128358   3.694   6.085   0.142 -1.2119  0.1885  1.3055
 8979SOL    HW228359   3.710   6.233   0.113  0.1622 -0.2124 -0.1057
 8980SOL     OW28360   6.588   4.959   8.315  0.0513 -0.1196  0.5901
 8980SOL    HW128361   6.632   5.016   8.251  1.4467 -1.1976  0.5390
 8980SOL    HW228362   6.526   5.017   8.359  1.5303  1.5084  0.6666
 8981SOL     OW28363   2.061   4.022   1.769  0.2416  0.2864  0.2339
 8981SOL    HW128364   1.980   3.971   1.774  0.0080  0.5240 -0.8943
 8981SOL    HW228365   2.042   4.103   1.815 -0.1340  0.2908  0.0737
 8982SOL     OW28366   2.853   1.046   2.320 -0.4232 -0.3969 -0.6174
 8982SOL    HW128367   2.870   1.137   2.296 -3.2054  0.0576 -1.1996
 8982SOL    HW228368   2.768   1.048   2.364 -1.1710 -2.8525 -1.7634
 8983SOL     OW28369   6.459   2.742   2.104  0.1756 -0.4427  0.1408
 8983SOL    HW128370   6.528   2.783   2.052 -1.1622 -1.3126 -2.5309
 8983SOL    HW228371   6.441   2.804   2.174  1.5555  1.2059 -0.9009
 8984SOL     OW28372   0.953   4.478   8.201 -0.6301 -0.1410  0.0311
 8984SOL    HW128373   0.984   4.422   8.130 -0.5532 -1.2879  0.9215
 8984SOL    HW228374   1.033   4.518   8.235 -0.7804  1.2432 -1.1718
 8985SOL     OW28375   3.492   3.523   8.810  0.0070 -0.3766 -0.3191
 8985SOL    HW128376   3.507   3.577   8.887  0.1805  0.1200 -0.6905
 8985SOL    HW228377   3.556   3.452   8.817  1.9694  1.1632 -1.3746
 8986SOL     OW28378   0.965   2.905   7.125  0.0421  0.2279 -0.0703
 8986SOL    HW128379   0.954   2.822   7.079  0.5270 -0.6280  1.3046
 8986SOL    HW228380   1.041   2.945   7.083  0.9443 -0.8848  0.4606
 8987SOL     OW28381   8.904   5.772   4.915  0.4291 -0.2515  0.5831
 8987SOL    HW128382   8.856   5.735   4.990 -0.3076  2.0034  1.3163
 8987SOL    HW228383   8.996   5.769   4.942  0.2887 -0.5795  1.0474
 8988SOL     OW28384   1.130   6.390   1.555  0.0183  0.3460  0.0717
 8988SOL    HW128385   1.130   6.299   1.525 -0.4071  0.4946 -0.3871
 8988SOL    HW228386   1.173   6.439   1.485 -0.5341  0.6205 -0.0830
 8989SOL     OW28387   5.656   7.065   7.581  0.3623 -0.0620 -0.6429
 8989SOL    HW128388   5.742   7.027   7.564  0.7947  0.1943  0.8105
 8989SOL    HW228389   5.609   7.056   7.498  0.5532 -3.4088 -0.5402
 8990SOL     OW28390   1.289   4.063   1.298 -0.0322 -0.2082 -0.3196
 8990SOL    HW128391   1.355   4.006   1.339 -0.5455 -0.0762  0.7119
 8990SOL    HW228392   1.243   4.103   1.371 -0.1410  1.0253 -1.0286
 8991SOL     OW28393   8.264   2.043   0.778  0.3374 -0.3480  0.0601
 8991SOL    HW128394   8.290   2.092   0.856 -0.3075  0.3107 -0.1172
 8991SOL    HW228395   8.301   1.956   0.790 -2.0839 -1.1969  2.5112
 8992SOL     OW28396   7.507   0.080   0.234  0.6937 -0.6901 -0.1548
 8992SOL    HW128397   7.566   0.005   0.231 -1.2041 -2.2694  0.2796
 8992SOL    HW228398   7.475   0.082   0.325  2.2616  1.9829  0.4760
 8993SOL     OW28399   8.055   7.840   7.259 -0.7820 -0.0599 -0.7352
 8993SOL    HW128400   8.056   7.897   7.336 -0.2388 -0.5823 -0.3507
 8993SOL    HW228401   7.979   7.870   7.208 -0.5545  0.9597 -0.5065
 8994SOL     OW28402   2.909   7.325   1.331 -0.1595 -1.0041  0.6736
 8994SOL    HW128403   2.879   7.409   1.297  0.5445 -0.0930  2.1637
 8994SOL    HW228404   2.918   7.268   1.254 -1.0464  0.1542 -0.3085
 8995SOL     OW28405   5.827   2.773   7.466  0.0918  0.2707 -0.3352
 8995SOL    HW128406   5.751   2.818   7.502 -0.4456 -0.9223  0.0442
 8995SOL    HW228407   5.794   2.688   7.436  1.3039 -0.3396  0.0023
 8996SOL     OW28408   8.431   0.458   1.588 -0.0249 -0.5239 -0.0396
 8996SOL    HW128409   8.482   0.509   1.525 -1.6357  1.9814  0.5239
 8996SOL    HW228410   8.384   0.394   1.534 -0.4705  0.7911 -1.2720
 8997SOL     OW28411   8.256   7.632   7.454 -0.4113 -0.0767  0.4821
 8997SOL    HW128412   8.212   7.655   7.372 -0.0100 -0.3987  0.1774
 8997SOL    HW228413   8.277   7.539   7.445 -0.5725 -0.1714  1.0460
 8998SOL     OW28414   4.834   5.027   7.531 -0.1986 -0.0247  0.5040
 8998SOL    HW128415   4.877   5.075   7.460 -0.5316  0.4869  0.6378
 8998SOL    HW228416   4.743   5.020   7.503 -0.0601 -1.0230  0.2610
 8999SOL     OW28417   8.801   7.590   1.064  0.0797 -0.0119  0.8381
 8999SOL    HW128418   8.873   7.596   1.001 -0.7165 -0.8730 -0.1971
 8999SOL    HW228419   8.784   7.680   1.091  0.9393  0.2854  0.4099
 9000SOL     OW28420   4.205   8.121   7.543  0.4672 -0.7302  0.1629
 9000SOL    HW128421   4.258   8.041   7.548  1.5295 -0.0156  0.7889
 9000SOL    HW228422   4.267   8.192   7.561 -0.7570  0.1168  1.2015
 9001SOL     OW28423   5.038   4.028   0.273 -0.4628 -0.5041 -0.0826
 9001SOL    HW128424   5.128   4.000   0.289  0.0887  0.1256 -1.8830
 9001SOL    HW228425   5.009   3.975   0.199 -0.0490  2.1773 -2.3339
 9002SOL     OW28426   3.062   2.542   1.946 -0.2453 -0.2534  0.0844
 9002SOL    HW128427   3.040   2.498   2.028 -0.1368  0.7013  0.6384
 9002SOL    HW228428   3.060   2.472   1.880 -1.5680 -0.8123  0.6835
 9003SOL     OW28429   0.519   4.511   3.512 -0.6463 -0.2034 -0.0788
 9003SOL    HW128430   0.560   4.571   3.575 -1.8219 -1.9998  2.5832
 9003SOL    HW228431   0.592   4.467   3.470  0.1928  0.8841  0.1849
 9004SOL     OW28432   1.293   8.105   4.930  0.1427  0.6128 -0.6722
 9004SOL    HW128433   1.333   8.138   4.849  1.9357  1.6298  0.5621
 9004SOL    HW228434   1.264   8.184   4.976  0.7854  0.2103  0.4717
 9005SOL     OW28435   5.328   5.930   1.647  0.0236 -0.2583 -0.1315
 9005SOL    HW128436   5.334   5.945   1.741  1.1121  1.8236 -0.4587
 9005SOL    HW228437   5.260   5.864   1.637  0.7799 -1.4646  2.1677
 9006SOL     OW28438   0.156   5.168   2.773  0.3509 -0.4363 -0.1784
 9006SOL    HW128439   0.147   5.073   2.767 -0.4380 -0.6029  2.4256
 9006SOL    HW228440   0.067   5.199   2.789  0.7257  0.6768 -0.2070
 9007SOL     OW28441   2.376   7.487   5.815 -0.3630  0.1150 -0.8825
 9007SOL    HW128442   2.438   7.560   5.810  2.2944 -2.0137 -0.8250
 9007SOL    HW228443   2.310   7.508   5.749  0.7773  2.1475 -1.4781
 9008SOL     OW28444   3.763   9.167   0.305  0.1907  0.3151 -0.3561
 9008SOL    HW128445   3.820   9.244   0.296  1.6378 -0.7703 -0.6572
 9008SOL    HW228446   3.690   9.199   0.359  0.7023  1.9228 -0.5477
 9009SOL     OW28447   2.305   5.472   6.829 -0.3005  0.3581  0.6969
 9009SOL    HW128448   2.279   5.498   6.918 -0.0845 -1.9015  1.4958
 9009SOL    HW228449   2.262   5.388   6.816  3.0983 -1.5109  0.4236
 9010SOL     OW28450   8.621   7.649   2.951  0.3989 -0.1478 -0.2751
 9010SOL    HW128451   8.572   7.573   2.918 -0.1767 -0.0277  0.2747
 9010SOL    HW228452   8.611   7.644   3.046 -0.4942  1.1747 -0.2709
 9011SOL     OW28453   6.027   7.170   8.677 -0.0036 -0.9981 -0.0817
 9011SOL    HW128454   5.985   7.192   8.594  0.4733 -1.2470 -0.3892
 9011SOL    HW228455   5.970   7.102   8.714  0.5727 -1.9434 -0.8966
 9012SOL     OW28456   2.366   7.086   1.504  0.6186  0.4980 -0.2656
 9012SOL    HW128457   2.419   7.068   1.426  1.6966  1.9047  0.0961
 9012SOL    HW228458   2.397   7.024   1.569 -0.9089 -1.3053 -1.1599
 9013SOL     OW28459   1.538   3.013   8.715  0.5616 -0.1953 -0.1665
 9013SOL    HW128460   1.476   3.070   8.760  0.9164  1.7712 -1.9997
 9013SOL    HW228461   1.621   3.060   8.719  0.6199  0.0360 -2.6801
 9014SOL     OW28462   5.001   3.430   7.364  0.4319 -0.1707  0.2447
 9014SOL    HW128463   5.054   3.358   7.399  0.4094 -0.1647  0.2918
 9014SOL    HW228464   4.946   3.456   7.438  0.2509 -0.2822  0.1491
 9015SOL     OW28465   1.767   6.023   7.724 -0.6347 -0.6771 -0.2670
 9015SOL    HW128466   1.813   5.992   7.802 -3.0567 -2.0479  0.7119
 9015SOL    HW228467   1.761   6.118   7.736  1.4576 -0.5112 -0.2223
 9016SOL     OW28468   0.410   5.077   6.443 -0.0111 -0.8324  0.0135
 9016SOL    HW128469   0.482   5.101   6.501  0.2786  1.5456 -1.1840
 9016SOL    HW228470   0.452   5.063   6.358 -0.7326 -1.5456 -0.2374
 9017SOL     OW28471   8.151   5.070   0.557  0.0792 -0.1500  0.4316
 9017SOL    HW128472   8.075   5.048   0.502  0.7757 -1.6278  0.0076
 9017SOL    HW228473   8.201   4.988   0.561  1.9363  0.9356  0.2496
 9018SOL     OW28474   5.624   6.266   5.267 -0.4686 -0.4168  0.0953
 9018SOL    HW128475   5.686   6.325   5.308 -0.1671 -1.5097  1.2688
 9018SOL    HW228476   5.673   6.225   5.196 -0.5414  0.3817 -0.4216
 9019SOL     OW28477   5.665   1.849   5.379  0.4319 -0.2357 -0.5479
 9019SOL    HW128478   5.706   1.856   5.292 -0.6982  0.3795 -1.0460
 9019SOL    HW228479   5.713   1.777   5.421  0.9887 -0.5647 -1.6819
 9020SOL     OW28480   6.722   1.989   4.263 -0.2143  0.9821  0.2786
 9020SOL    HW128481   6.669   2.059   4.224  0.9488  0.6655 -2.0915
 9020SOL    HW228482   6.751   2.024   4.347 -1.2382  2.5559  0.0200
 9021SOL     OW28483   6.722   1.749   4.122  0.2311  0.5264  0.2251
 9021SOL    HW128484   6.749   1.790   4.040 -2.9931 -0.1634 -1.3362
 9021SOL    HW228485   6.728   1.819   4.187 -0.1776  2.0340 -1.2809
 9022SOL     OW28486   7.987   6.289   8.174 -0.3012 -0.3754  0.5004
 9022SOL    HW128487   7.969   6.268   8.266  2.5248 -1.2669  0.9536
 9022SOL    HW228488   8.041   6.368   8.178 -1.3836  0.4416 -0.5299
 9023SOL     OW28489   1.688   9.008   5.378  0.7381 -0.3962 -0.2184
 9023SOL    HW128490   1.647   8.974   5.458 -0.0816  0.2480 -0.3630
 9023SOL    HW228491   1.761   8.948   5.363 -1.0052 -2.5072 -0.8091
 9024SOL     OW28492   7.487   4.649   0.020 -0.4593  0.4567  0.1067
 9024SOL    HW128493   7.490   4.604  -0.065 -0.5885  0.8152 -0.0898
 9024SOL    HW228494   7.427   4.722   0.006 -1.1861 -0.0012  0.7606
 9025SOL     OW28495   1.899   1.209   1.909 -0.6027  0.3056  0.3160
 9025SOL    HW128496   1.888   1.181   2.000  0.5335 -0.7669  0.1418
 9025SOL    HW228497   1.819   1.180   1.866 -0.5566 -0.3949  0.6878
 9026SOL     OW28498   2.738   5.589   6.708 -0.1076 -0.4472 -0.8430
 9026SOL    HW128499   2.719   5.627   6.622 -1.8454 -0.1477 -0.3796
 9026SOL    HW228500   2.768   5.663   6.761  1.0267 -0.6437 -1.1867
 9027SOL     OW28501   5.026   4.927   2.688  0.0079  0.0547 -0.7842
 9027SOL    HW128502   4.949   4.976   2.659  0.6304  2.7306  1.6451
 9027SOL    HW228503   5.010   4.908   2.780  1.3340 -1.3099 -0.7915
 9028SOL     OW28504   5.963   3.232   6.168 -0.1243 -0.2481 -0.6505
 9028SOL    HW128505   5.897   3.199   6.108  0.2834 -0.1669 -1.1548
 9028SOL    HW228506   6.045   3.226   6.119  0.1135  0.4802 -0.3647
 9029SOL     OW28507   5.972   4.096   8.623 -0.1720 -0.5473 -0.0067
 9029SOL    HW128508   5.901   4.124   8.565  0.1873 -0.1577 -0.2624
 9029SOL    HW228509   5.943   4.011   8.657 -0.1399 -1.0515 -1.1914
 9030SOL     OW28510   1.861   4.167   7.617  0.2273  0.1321  0.4823
 9030SOL    HW128511   1.866   4.262   7.611  0.5877  0.2236  1.7840
 9030SOL    HW228512   1.767   4.147   7.619  0.1383  0.3669 -0.7289
 9031SOL     OW28513   6.808   1.575   1.055 -0.0222 -0.0718 -0.8136
 9031SOL    HW128514   6.813   1.492   1.007 -0.9616 -0.2747 -0.5765
 9031SOL    HW228515   6.741   1.625   1.009 -1.3594 -0.5020  0.6200
 9032SOL     OW28516   6.916   0.608   2.691 -0.7573  0.2550 -0.1361
 9032SOL    HW128517   6.979   0.540   2.669 -2.4207 -1.2190 -0.6251
 9032SOL    HW228518   6.864   0.619   2.612 -0.5870  2.0793 -0.0389
 9033SOL     OW28519   8.286   4.846   4.251  0.8676  0.3165 -0.3274
 9033SOL    HW128520   8.233   4.786   4.198 -0.1124 -0.6409  1.6219
 9033SOL    HW228521   8.221   4.900   4.297  1.5037 -0.8511  2.0742
 9034SOL     OW28522   6.122   4.394   3.675  0.0770 -0.2595  0.0112
 9034SOL    HW128523   6.080   4.431   3.597 -0.2531 -1.0859 -0.2189
 9034SOL    HW228524   6.201   4.352   3.642 -0.5600 -1.4638 -0.0507
 9035SOL     OW28525   8.429   2.579   8.362  0.1915 -0.6610  0.0878
 9035SOL    HW128526   8.441   2.518   8.435  2.9600 -0.7037 -0.2659
 9035SOL    HW228527   8.515   2.620   8.352 -0.5804  0.5552 -2.1015
 9036SOL     OW28528   7.946   7.692   0.377 -0.0024  0.9776 -0.1480
 9036SOL    HW128529   7.977   7.778   0.403 -0.7564  0.7358  1.6805
 9036SOL    HW228530   7.853   7.693   0.398  0.1061 -0.4864  0.5374
 9037SOL     OW28531   7.667   6.941   7.190 -0.0415  0.2475 -0.1993
 9037SOL    HW128532   7.704   6.853   7.200  1.5157  0.8179 -0.6201
 9037SOL    HW228533   7.736   7.000   7.222 -1.0472  1.3281  0.0548
 9038SOL     OW28534   4.055   2.790   1.293 -0.0667 -0.0715  0.6173
 9038SOL    HW128535   4.099   2.873   1.273 -1.5605  0.5995 -0.0488
 9038SOL    HW228536   4.109   2.724   1.251 -0.1881  0.8177 -1.0192
 9039SOL     OW28537   5.205   3.093   4.733 -0.0310 -0.0633  0.0702
 9039SOL    HW128538   5.151   3.142   4.671  0.7250  0.5092 -0.1560
 9039SOL    HW228539   5.294   3.099   4.696  0.4504  0.4044  1.2728
 9040SOL     OW28540   8.868   1.177   6.979 -0.0109  0.3434 -0.0211
 9040SOL    HW128541   8.812   1.248   6.947 -0.2023 -0.1342 -0.7668
 9040SOL    HW228542   8.946   1.180   6.924 -0.3942 -0.5604 -0.6294
 9041SOL     OW28543   7.471   5.534   1.675  0.2139  0.2740 -0.1009
 9041SOL    HW128544   7.565   5.536   1.660  1.0647  1.0146  4.0937
 9041SOL    HW228545   7.440   5.620   1.646  1.1464  0.6154 -0.1091
 9042SOL     OW28546   3.398   8.133   4.468 -0.1059  0.2542  0.0094
 9042SOL    HW128547   3.363   8.132   4.379  1.1461  0.3594 -0.5020
 9042SOL    HW228548   3.322   8.116   4.524 -0.4095 -3.1830 -1.2207
 9043SOL     OW28549   5.871   4.475   1.258 -0.5093  0.1839  0.7613
 9043SOL    HW128550   5.778   4.496   1.253 -0.6341  0.0050  1.9927
 9043SOL    HW228551   5.875   4.381   1.242 -0.3540  0.4478 -0.8953
 9044SOL     OW28552   6.660   7.219   0.722 -0.2725  0.6785  0.2615
 9044SOL    HW128553   6.612   7.137   0.718 -1.5874  1.4212  0.3704
 9044SOL    HW228554   6.650   7.258   0.635  1.1167  0.3248 -0.0844
 9045SOL     OW28555   5.686   9.125   6.934  0.5255 -0.2782 -0.0034
 9045SOL    HW128556   5.772   9.144   6.896 -0.1310 -2.0292 -2.6285
 9045SOL    HW228557   5.629   9.109   6.858 -1.4057 -2.0414  1.6965
 9046SOL     OW28558   8.274   0.297   3.866 -0.0829  0.3831  0.5990
 9046SOL    HW128559   8.322   0.356   3.925  0.4678 -0.4742  1.0447
 9046SOL    HW228560   8.228   0.237   3.925  0.7366 -0.6916  0.1800
 9047SOL     OW28561   0.920   4.799   5.201 -0.5771  0.2382 -0.6502
 9047SOL    HW128562   0.889   4.808   5.291  0.8010  0.5879 -0.1996
 9047SOL    HW228563   1.012   4.826   5.203 -0.3485 -0.3234 -2.0464
 9048SOL     OW28564   6.687   0.590   6.675 -0.7753  0.7926 -0.5203
 9048SOL    HW128565   6.736   0.510   6.658 -0.5826  0.5058  1.1827
 9048SOL    HW228566   6.596   0.561   6.685 -0.8693  0.9378 -0.9405
 9049SOL     OW28567   7.204   0.044   3.817  0.3889  0.2857 -0.0249
 9049SOL    HW128568   7.279   0.085   3.860  0.6070 -0.4213  0.2774
 9049SOL    HW228569   7.135   0.110   3.820  1.0036  0.9556 -0.3279
 9050SOL     OW28570   9.277   5.999   3.385 -0.1590 -0.3958 -0.0834
 9050SOL    HW128571   9.304   5.989   3.476 -1.1836  1.1326  0.4111
 9050SOL    HW228572   9.261   5.909   3.355  1.2730 -1.0064  0.8769
 9051SOL     OW28573   2.138   3.436   6.732  0.3283 -0.2376 -0.1470
 9051SOL    HW128574   2.150   3.399   6.645 -2.7927  0.8677 -1.2143
 9051SOL    HW228575   2.105   3.363   6.785 -0.8078 -0.2391 -0.8177
 9052SOL     OW28576   8.765   4.821   7.686  0.2843  0.4583 -0.3657
 9052SOL    HW128577   8.816   4.749   7.722 -2.1398 -1.2420 -0.1759
 9052SOL    HW228578   8.688   4.827   7.742 -0.8391  1.4670 -1.9510
 9053SOL     OW28579   0.725   4.466   1.106  0.0174 -0.5449  1.0392
 9053SOL    HW128580   0.797   4.415   1.144 -0.1186 -0.0884  1.9487
 9053SOL    HW228581   0.650   4.407   1.109  0.3493 -1.0243  0.0863
 9054SOL     OW28582   2.370   7.077   0.694 -0.1337  0.4953 -0.7650
 9054SOL    HW128583   2.317   7.141   0.742 -0.9392 -0.8804  0.2501
 9054SOL    HW228584   2.460   7.101   0.716 -0.4423  0.7156  0.3839
 9055SOL     OW28585   3.890   3.618   0.810  0.3084  0.1625  0.5914
 9055SOL    HW128586   3.831   3.641   0.738  1.1658  2.2227  0.4762
 9055SOL    HW228587   3.832   3.594   0.882 -0.5972 -0.2146 -0.2406
 9056SOL     OW28588   8.554   8.100   8.775 -0.2419  0.6881  0.3942
 9056SOL    HW128589   8.553   8.087   8.680 -1.9178  0.0054  0.4641
 9056SOL    HW228590   8.562   8.011   8.811 -1.2811  0.7784  0.8802
 9057SOL     OW28591   5.251   5.664   1.467  0.1653 -0.0085 -0.1113
 9057SOL    HW128592   5.272   5.589   1.523 -0.3902 -1.9620 -2.3653
 9057SOL    HW228593   5.335   5.707   1.451  0.4496  0.0545  1.4400
 9058SOL     OW28594   2.977   6.366   8.430 -0.0571  0.1111  0.0647
 9058SOL    HW128595   3.040   6.356   8.502 -1.0834 -1.0974  0.8495
 9058SOL    HW228596   2.921   6.439   8.456 -0.9712 -0.8721  0.9648
 9059SOL     OW28597   0.155   6.977   8.148 -0.2454  0.2985  0.2544
 9059SOL    HW128598   0.086   7.041   8.164  1.3322  2.2366 -0.3223
 9059SOL    HW228599   0.184   6.949   8.234 -1.5793 -0.3909  0.5018
 9060SOL     OW28600   3.672   5.708   3.315  0.3126  0.1921 -0.5792
 9060SOL    HW128601   3.739   5.771   3.288  0.1850  0.3969 -0.4192
 9060SOL    HW228602   3.619   5.755   3.379  1.4572 -0.7204  1.1095
 9061SOL     OW28603   6.714   0.562   5.963 -0.0140  0.6517  0.1326
 9061SOL    HW128604   6.741   0.576   5.873  0.9206 -0.1211  0.2811
 9061SOL    HW228605   6.628   0.520   5.957 -0.4752  1.6491 -0.3682
 9062SOL     OW28606   5.431   3.623   1.638 -0.2771  0.0353 -0.0528
 9062SOL    HW128607   5.497   3.685   1.670 -0.1768  0.2792 -0.7220
 9062SOL    HW228608   5.427   3.555   1.705 -1.4119  1.4666  1.4154
 9063SOL     OW28609   8.735   0.535   6.202  0.1987 -0.1461 -0.4964
 9063SOL    HW128610   8.696   0.610   6.246  2.2258  1.1225 -0.7141
 9063SOL    HW228611   8.693   0.532   6.116 -1.7471 -0.9034  0.4346
 9064SOL     OW28612   3.660   3.011   1.593  0.0707  0.0134 -0.2029
 9064SOL    HW128613   3.629   3.097   1.564  2.0584  0.5998 -0.7353
 9064SOL    HW228614   3.668   2.960   1.512  2.0277  0.4396 -0.3353
 9065SOL     OW28615   0.112   3.078   1.338 -0.0951  0.1751  0.4013
 9065SOL    HW128616   0.179   3.105   1.276 -1.2934  0.5469 -0.7925
 9065SOL    HW228617   0.148   3.000   1.380  1.4533  0.9073  0.4873
 9066SOL     OW28618   9.277   7.849   7.631  0.0195  0.6854 -0.8876
 9066SOL    HW128619   9.293   7.925   7.687 -0.9729 -0.4827  1.0854
 9066SOL    HW228620   9.182   7.844   7.623 -0.1952 -1.9058  1.4856
 9067SOL     OW28621   2.528   7.926   6.557 -0.3168  1.0420  0.2682
 9067SOL    HW128622   2.507   8.002   6.503 -0.3749  0.5835 -0.3677
 9067SOL    HW228623   2.465   7.859   6.531  0.0428  0.6143  0.4707
 9068SOL     OW28624   3.634   2.566   3.638 -0.7009 -0.5479  1.1453
 9068SOL    HW128625   3.685   2.511   3.698 -1.1392  0.9021  2.9532
 9068SOL    HW228626   3.700   2.616   3.591 -0.3372  0.8249  2.9845
 9069SOL     OW28627   0.863   3.182   4.559  0.4703 -0.1064 -0.6974
 9069SOL    HW128628   0.854   3.087   4.551 -0.3723 -0.3002  1.7048
 9069SOL    HW228629   0.787   3.218   4.512  0.8766 -0.5927 -1.7449
 9070SOL     OW28630   8.076   7.115   2.115  0.0504 -0.1276  0.2163
 9070SOL    HW128631   8.012   7.113   2.186  0.8837 -0.5590  0.9831
 9070SOL    HW228632   8.130   7.038   2.131  1.1315  0.5608 -0.0519
 9071SOL     OW28633   2.876   2.210   0.195  0.0261 -0.0947 -0.0360
 9071SOL    HW128634   2.941   2.152   0.155  0.8898 -0.8309  2.2896
 9071SOL    HW228635   2.876   2.187   0.287 -1.1441  2.1850  0.6199
 9072SOL     OW28636   6.201   3.653   1.856 -0.0471  0.3807 -0.3144
 9072SOL    HW128637   6.243   3.582   1.904 -0.7278  0.5216  0.5200
 9072SOL    HW228638   6.176   3.615   1.772  0.5413 -0.0679 -0.2864
 9073SOL     OW28639   7.074   2.058   2.532 -0.2748 -0.2534 -0.1435
 9073SOL    HW128640   7.029   2.009   2.464 -1.1565  0.0189  0.2280
 9073SOL    HW228641   7.052   2.012   2.613 -0.0417 -0.0063  0.0611
 9074SOL     OW28642   3.154   6.617   4.328 -0.3953  0.1900 -0.6661
 9074SOL    HW128643   3.107   6.586   4.251 -0.7980 -0.2635 -0.2483
 9074SOL    HW228644   3.128   6.556   4.398  0.7729 -0.0457 -0.4143
 9075SOL     OW28645   5.986   6.270   1.937  0.4923  0.3673 -0.4671
 9075SOL    HW128646   5.902   6.315   1.942  0.6625  0.9534 -2.1015
 9075SOL    HW228647   5.964   6.177   1.927  0.0237  0.5408 -1.0739
 9076SOL     OW28648   1.064   4.340   7.373 -0.3225 -0.3471  0.2644
 9076SOL    HW128649   1.136   4.394   7.340  0.9718 -1.7270  0.7314
 9076SOL    HW228650   1.107   4.266   7.415 -2.0258 -0.9079  1.0870
 9077SOL     OW28651   6.649   0.674   5.292 -0.2966 -0.1024  0.3978
 9077SOL    HW128652   6.666   0.713   5.378  1.2529  2.2230 -0.8619
 9077SOL    HW228653   6.555   0.656   5.292 -0.6272  1.3434  2.0123
 9078SOL     OW28654   7.894   8.008   3.508 -0.6285 -0.5351 -0.3197
 9078SOL    HW128655   7.906   8.096   3.473  0.0042 -0.3901  0.2375
 9078SOL    HW228656   7.908   7.950   3.433 -1.2180 -0.1627 -0.7260
 9079SOL     OW28657   3.985   8.994   8.640  0.6090 -0.5331  0.8082
 9079SOL    HW128658   3.896   9.025   8.622  0.9827 -0.5459 -1.3140
 9079SOL    HW228659   4.001   9.019   8.731 -1.3776 -0.0963  1.0874
 9080SOL     OW28660   5.731   1.001   6.021  0.4487  0.4374  0.0331
 9080SOL    HW128661   5.679   1.023   6.098  0.3014 -1.5360  0.5538
 9080SOL    HW228662   5.822   1.005   6.051  0.4282  0.4622  0.0914
 9081SOL     OW28663   9.177   5.226   2.791  0.0822 -0.2399 -0.3383
 9081SOL    HW128664   9.096   5.190   2.827  0.5642 -1.0126  0.0172
 9081SOL    HW228665   9.156   5.316   2.768 -0.9093 -0.4763 -0.3762
 9082SOL     OW28666   5.464   4.891   4.010  0.1865 -0.1011 -0.4774
 9082SOL    HW128667   5.392   4.946   3.979  0.6558 -0.5067 -2.4169
 9082SOL    HW228668   5.433   4.801   3.995 -0.3046 -0.4351  2.0420
 9083SOL     OW28669   1.813   8.087   7.733  0.4028  0.4637  0.0762
 9083SOL    HW128670   1.800   8.173   7.693  0.4683  0.5798  0.3044
 9083SOL    HW228671   1.815   8.027   7.659  3.4963  0.9843 -0.3928
 9084SOL     OW28672   5.362   7.889   6.209 -0.1184 -0.1963 -0.1741
 9084SOL    HW128673   5.292   7.930   6.159  0.2835  1.0443  0.2423
 9084SOL    HW228674   5.402   7.961   6.258  1.6450 -0.8099 -0.6352
 9085SOL     OW28675   8.619   1.417   6.583 -0.5196  1.0524 -0.5520
 9085SOL    HW128676   8.596   1.385   6.496 -1.0145  0.8273 -0.3469
 9085SOL    HW228677   8.566   1.363   6.643 -0.7266  1.6806 -0.1562
 9086SOL     OW28678   4.818   1.364   1.613 -0.6317 -0.4968 -0.6255
 9086SOL    HW128679   4.812   1.458   1.632  1.1283 -0.1646 -1.5190
 9086SOL    HW228680   4.749   1.348   1.549 -1.2719  0.0799 -0.0902
 9087SOL     OW28681   3.871   7.574   6.319  0.3212  0.0291 -0.0339
 9087SOL    HW128682   3.787   7.544   6.353 -0.0932 -1.0166 -1.8022
 9087SOL    HW228683   3.935   7.541   6.380 -0.5314  0.9023  1.3900
 9088SOL     OW28684   1.359   7.560   8.367  0.9860  0.2267  0.3704
 9088SOL    HW128685   1.400   7.497   8.308  1.1670 -0.0101  0.7509
 9088SOL    HW228686   1.379   7.646   8.328 -0.4756  0.0170 -0.9571
 9089SOL     OW28687   8.445   2.395   2.652  0.3011 -0.0544  0.1714
 9089SOL    HW128688   8.484   2.476   2.620  0.8226 -0.6322 -0.7019
 9089SOL    HW228689   8.370   2.380   2.594 -0.1006  0.0593  0.6514
 9090SOL     OW28690   1.801   4.277   4.322  0.3321  0.0781 -0.5795
 9090SOL    HW128691   1.825   4.365   4.294 -1.3008  0.5578 -0.5422
 9090SOL    HW228692   1.868   4.253   4.386  0.7084  1.3486 -0.4758
 9091SOL     OW28693   7.059   7.613   3.162  0.3516 -1.1898  0.0571
 9091SOL    HW128694   7.037   7.558   3.237 -1.5420 -0.0570  0.4214
 9091SOL    HW228695   6.976   7.656   3.139  1.4727  0.5744 -0.9460
 9092SOL     OW28696   6.184   1.192   4.469  0.3892  0.4633  0.3006
 9092SOL    HW128697   6.215   1.220   4.383  0.6636  0.4315  0.3892
 9092SOL    HW228698   6.247   1.126   4.497  0.0394  0.1302  0.3217
 9093SOL     OW28699   4.614   0.987   0.730 -0.8095  0.4430  0.3304
 9093SOL    HW128700   4.603   1.081   0.736  1.5386  0.7275  1.1089
 9093SOL    HW228701   4.661   0.974   0.647 -0.7969  0.0006  0.4045
 9094SOL     OW28702   8.119   3.244   8.894 -0.2784  0.6015 -0.3753
 9094SOL    HW128703   8.045   3.252   8.834  0.5358  2.5779 -1.2341
 9094SOL    HW228704   8.176   3.178   8.853 -0.4589  0.8114 -0.9833
 9095SOL     OW28705   4.072   4.095   5.088  0.2575  0.3440 -0.3577
 9095SOL    HW128706   4.151   4.095   5.034 -1.2147  0.7257 -2.6675
 9095SOL    HW228707   4.066   4.184   5.123 -1.5752  1.9794 -4.2207
 9096SOL     OW28708   5.510   8.363   1.298  0.2664 -0.0069 -0.0243
 9096SOL    HW128709   5.572   8.377   1.226  0.5576  0.7639  0.3555
 9096SOL    HW228710   5.492   8.269   1.297 -0.6164  0.1338 -1.8149
 9097SOL     OW28711   0.582   0.878   5.989  0.5148  0.2821 -0.1494
 9097SOL    HW128712   0.514   0.842   5.933  1.4742  0.5870 -1.5777
 9097SOL    HW228713   0.550   0.964   6.015  0.5457  0.6160 -1.1943
 9098SOL     OW28714   3.159   4.761   5.980  0.5654  0.4207  0.2413
 9098SOL    HW128715   3.095   4.693   5.960  0.1911  1.7128 -3.7620
 9098SOL    HW228716   3.244   4.720   5.963  0.4032  0.5473 -0.9438
 9099SOL     OW28717   2.192   1.920   5.488 -0.2060  0.1854  0.5888
 9099SOL    HW128718   2.199   1.843   5.544 -0.2234 -0.0608  0.2519
 9099SOL    HW228719   2.166   1.886   5.403 -1.2948  0.6641  0.7116
 9100SOL     OW28720   3.704   6.205   6.229  0.2064  0.4942 -0.2104
 9100SOL    HW128721   3.640   6.168   6.168 -0.2427 -0.3644  0.7635
 9100SOL    HW228722   3.696   6.153   6.308  1.1325  1.2762  0.4323
 9101SOL     OW28723   5.631   2.888   5.337  0.3030  0.2247 -0.2631
 9101SOL    HW128724   5.695   2.822   5.312 -0.1599 -0.5085  0.4178
 9101SOL    HW228725   5.579   2.903   5.258  0.5586 -0.0568 -0.4837
 9102SOL     OW28726   5.077   7.089   5.910  0.5058 -0.1202 -0.1594
 9102SOL    HW128727   5.141   7.022   5.938  1.2327  0.3293 -0.6992
 9102SOL    HW228728   5.078   7.153   5.981 -0.6713 -0.9717  0.6696
 9103SOL     OW28729   8.053   3.963   4.576  0.2169 -0.4938 -0.5593
 9103SOL    HW128730   8.146   3.942   4.572  0.5402  0.7071  0.2600
 9103SOL    HW228731   8.011   3.881   4.602  1.0518 -1.0021 -0.7673
 9104SOL     OW28732   5.542   6.499   6.925  0.1308  0.3901  0.1515
 9104SOL    HW128733   5.556   6.559   6.998 -2.7798  1.7180 -0.2434
 9104SOL    HW228734   5.599   6.532   6.855  2.8587 -0.8247  1.6168
 9105SOL     OW28735   5.201   8.728   5.621 -0.3411 -0.1248 -0.3647
 9105SOL    HW128736   5.278   8.774   5.587  0.1988  0.0191  0.9932
 9105SOL    HW228737   5.222   8.710   5.712 -2.6893  1.6962  0.6535
 9106SOL     OW28738   2.304   7.252   0.893 -0.3583  0.0245  0.0342
 9106SOL    HW128739   2.252   7.231   0.970  1.1208 -1.0389  0.7944
 9106SOL    HW228740   2.350   7.333   0.916  0.2668 -0.4207  0.3925
 9107SOL     OW28741   1.851   8.833   0.895 -0.3200  0.2069  0.0606
 9107SOL    HW128742   1.922   8.816   0.833  0.1279 -0.0851  0.6421
 9107SOL    HW228743   1.874   8.782   0.973 -1.0601  0.2760  0.3376
 9108SOL     OW28744   6.823   8.461   7.723 -0.0419  0.0428 -0.3582
 9108SOL    HW128745   6.864   8.398   7.782 -1.6037 -0.0828  0.6315
 9108SOL    HW228746   6.885   8.469   7.650  1.0875 -1.1472  0.4325
 9109SOL     OW28747   1.773   7.365   4.307 -0.6719 -0.4096  0.4463
 9109SOL    HW128748   1.700   7.303   4.313 -0.0438 -1.2822 -0.5228
 9109SOL    HW228749   1.850   7.310   4.292 -0.0427  0.5879 -0.0773
 9110SOL     OW28750   2.698   1.473   5.200  0.4116  0.0336  0.4374
 9110SOL    HW128751   2.690   1.397   5.142 -0.4530 -0.2614  0.9320
 9110SOL    HW228752   2.777   1.456   5.251 -0.6237 -1.3293  1.6599
 9111SOL     OW28753   3.225   6.356   0.624 -0.0933  0.2409 -0.1341
 9111SOL    HW128754   3.260   6.368   0.713 -2.5215 -1.2943  1.1247
 9111SOL    HW228755   3.299   6.378   0.567  1.9619  0.0945  2.2653
 9112SOL     OW28756   0.724   7.678   8.229  0.3514  0.0943  0.6605
 9112SOL    HW128757   0.667   7.625   8.173  2.2473 -1.0970 -0.2285
 9112SOL    HW228758   0.782   7.724   8.168  0.0129  1.7364  1.5152
 9113SOL     OW28759   8.895   5.244   3.519 -0.2156 -0.3583 -0.0217
 9113SOL    HW128760   8.926   5.210   3.604  1.0072  1.1185  0.1577
 9113SOL    HW228761   8.870   5.334   3.537  1.1269  0.3449 -1.4238
 9114SOL     OW28762   6.393   1.953   1.205  0.0320 -0.3245 -0.5339
 9114SOL    HW128763   6.408   1.859   1.209 -0.4242 -0.3785  0.1167
 9114SOL    HW228764   6.480   1.991   1.192  0.3135 -0.7909 -0.0295
 9115SOL     OW28765   2.067   2.208   4.255 -0.2486  0.2930  0.3084
 9115SOL    HW128766   2.008   2.133   4.267  1.1055 -0.7696  0.5627
 9115SOL    HW228767   2.112   2.190   4.173  0.2417  0.7076  0.4842
 9116SOL     OW28768   7.672   7.168   3.787  0.0466  0.4713 -0.4455
 9116SOL    HW128769   7.700   7.165   3.879 -1.9912 -1.5111  0.1836
 9116SOL    HW228770   7.688   7.080   3.754  1.2699  1.3097 -2.2240
 9117SOL     OW28771   8.009   0.125   8.393 -0.1598 -0.0447 -0.3963
 9117SOL    HW128772   8.012   0.217   8.368  1.3205  0.7616  2.3236
 9117SOL    HW228773   8.098   0.104   8.422 -0.6972 -2.0488  0.0016
 9118SOL     OW28774   1.761   5.572   7.481 -0.0455 -0.2383 -0.3393
 9118SOL    HW128775   1.800   5.577   7.568 -0.5701  0.1711 -0.1223
 9118SOL    HW228776   1.667   5.562   7.497 -0.0486 -1.1578 -0.8559
 9119SOL     OW28777   7.945   0.912   6.778 -0.3437 -0.5323 -0.4136
 9119SOL    HW128778   7.964   0.842   6.716 -0.2101 -0.4848 -0.4259
 9119SOL    HW228779   7.989   0.989   6.743  0.4983 -0.7169  0.2046
 9120SOL     OW28780   8.250   2.186   0.543 -0.0008 -0.0871  0.0556
 9120SOL    HW128781   8.268   2.148   0.629 -0.1752  0.3063  0.2691
 9120SOL    HW228782   8.220   2.275   0.562  2.7392  1.0561 -0.5552
 9121SOL     OW28783   4.928   7.561   0.627 -0.4335  0.3608  0.4252
 9121SOL    HW128784   4.897   7.627   0.565 -4.0879 -1.0026  0.5278
 9121SOL    HW228785   4.944   7.609   0.707  0.5245  1.5800 -0.4587
 9122SOL     OW28786   6.008   6.657   6.310  0.6862  0.2245 -0.2044
 9122SOL    HW128787   6.084   6.695   6.267  0.8945 -0.1175 -0.1483
 9122SOL    HW228788   6.039   6.571   6.340 -0.2224 -0.6791 -1.7418
 9123SOL     OW28789   1.434   5.899   7.557  0.0608  0.1309 -0.3040
 9123SOL    HW128790   1.516   5.869   7.596 -0.2893 -0.8757 -0.3365
 9123SOL    HW228791   1.437   5.868   7.467 -0.2222  0.3737 -0.3997
 9124SOL     OW28792   4.258   7.197   4.071 -0.0719 -0.1826 -0.3551
 9124SOL    HW128793   4.343   7.232   4.094 -0.5567  1.8924 -1.5007
 9124SOL    HW228794   4.212   7.188   4.154  0.4300  1.0150  0.0673
 9125SOL     OW28795   6.858   0.727   8.090 -0.3764 -0.4561  0.5748
 9125SOL    HW128796   6.931   0.670   8.065 -0.4782  0.5076 -2.4068
 9125SOL    HW228797   6.898   0.813   8.102 -0.8265 -0.1619  0.0570
 9126SOL     OW28798   7.919   6.771   3.271  0.2233  0.3817 -0.1342
 9126SOL    HW128799   8.009   6.742   3.280  0.2544  0.4355 -0.2699
 9126SOL    HW228800   7.886   6.777   3.361 -0.0246 -0.8391 -0.1260
 9127SOL     OW28801   7.218   4.690   2.211  0.5471  0.2515 -0.6523
 9127SOL    HW128802   7.188   4.745   2.284  0.9177  0.2806 -0.5188
 9127SOL    HW228803   7.139   4.646   2.181  0.0521  1.5846 -1.3962
 9128SOL     OW28804   2.259   3.249   4.717  0.6441 -0.4926  0.7863
 9128SOL    HW128805   2.273   3.341   4.694  0.3059 -0.2910  1.3563
 9128SOL    HW228806   2.346   3.211   4.721  0.8932  0.1518  1.9412
 9129SOL     OW28807   5.739   4.209   8.431 -0.3142  0.5572 -0.2267
 9129SOL    HW128808   5.666   4.148   8.437 -0.5796  0.2638 -3.8818
 9129SOL    HW228809   5.703   4.293   8.460 -2.6114  0.6661 -2.8904
 9130SOL     OW28810   4.196   5.313   0.216  0.3821  0.7950  0.1233
 9130SOL    HW128811   4.154   5.382   0.164  0.1099  2.0212  1.8558
 9130SOL    HW228812   4.204   5.351   0.303  0.4463 -1.3189  1.0995
 9131SOL     OW28813   3.885   0.283   0.932  0.6722 -0.8469  0.2869
 9131SOL    HW128814   3.894   0.364   0.983  0.7358 -1.9152  2.0689
 9131SOL    HW228815   3.964   0.233   0.955 -0.3374 -2.2420  0.8323
 9132SOL     OW28816   3.351   3.117   2.960 -0.0375 -0.2201 -0.3290
 9132SOL    HW128817   3.277   3.057   2.973  0.3575 -0.7701 -0.6086
 9132SOL    HW228818   3.309   3.201   2.942 -0.6144 -0.6530 -1.1081
 9133SOL     OW28819   2.017   6.005   2.824 -0.0340  0.1293 -0.1896
 9133SOL    HW128820   2.045   6.014   2.732 -0.2741 -0.4504 -0.3229
 9133SOL    HW228821   1.925   6.029   2.823  0.3369  1.6805  0.1884
 9134SOL     OW28822   2.659   8.442   1.335 -0.0985 -0.2245  0.1863
 9134SOL    HW128823   2.602   8.492   1.276  3.2739  2.1167 -1.3706
 9134SOL    HW228824   2.649   8.351   1.305 -1.8870  0.2625 -0.9128
 9135SOL     OW28825   2.932   1.915   2.815  0.4632 -0.8719 -0.3472
 9135SOL    HW128826   2.910   1.984   2.752  0.5754 -2.1903 -1.9165
 9135SOL    HW228827   2.973   1.961   2.888  1.6386  0.6108 -1.8520
 9136SOL     OW28828   0.333   2.939   1.536 -0.5705 -0.1325  0.1543
 9136SOL    HW128829   0.392   2.884   1.586 -1.0713 -0.5464  0.3037
 9136SOL    HW228830   0.379   3.022   1.525  0.3490 -0.7027 -0.3971
 9137SOL     OW28831   4.777   5.779   6.520  0.0597 -0.1236 -0.1647
 9137SOL    HW128832   4.750   5.705   6.575  0.7471 -0.0752  0.2399
 9137SOL    HW228833   4.803   5.847   6.582 -1.4661  0.8283 -0.5031
 9138SOL     OW28834   1.429   7.033   3.435  0.6031  0.5374 -0.3924
 9138SOL    HW128835   1.356   7.082   3.398 -0.2615 -0.0471  0.4577
 9138SOL    HW228836   1.461   7.088   3.507 -2.5809 -1.3994  2.8704
 9139SOL     OW28837   5.844   6.940   4.752  0.2487  0.0627  0.5479
 9139SOL    HW128838   5.861   6.957   4.659 -2.0436  1.1909  0.2818
 9139SOL    HW228839   5.925   6.965   4.796  1.8965 -1.7753 -1.2254
 9140SOL     OW28840   3.030   1.653   0.176  0.5846  0.0234  0.3400
 9140SOL    HW128841   3.113   1.609   0.194  0.2778 -0.7304 -0.0619
 9140SOL    HW228842   2.970   1.619   0.242  0.0300 -1.0973 -0.7024
 9141SOL     OW28843   6.343   1.543   0.238  0.0311 -0.9850  0.1311
 9141SOL    HW128844   6.392   1.616   0.201 -1.3752  0.2984  0.7181
 9141SOL    HW228845   6.362   1.546   0.332 -0.5099 -0.9938  0.2439
 9142SOL     OW28846   3.182   4.373   1.204  0.0324 -0.3469  0.7519
 9142SOL    HW128847   3.270   4.380   1.168 -1.0375 -1.3188 -2.3987
 9142SOL    HW228848   3.193   4.319   1.283  2.3418  0.5358  1.1185
 9143SOL     OW28849   3.065   0.100   1.219 -0.1405  0.8006 -0.0950
 9143SOL    HW128850   3.131   0.117   1.151  0.1696  0.5316  0.1378
 9143SOL    HW228851   3.014   0.181   1.223  0.5579  1.2359  0.1404
 9144SOL     OW28852   0.547   1.113   4.956 -0.1804  0.4163  0.0092
 9144SOL    HW128853   0.555   1.164   4.876 -2.1260 -0.2353 -0.6579
 9144SOL    HW228854   0.464   1.067   4.947 -0.2408 -0.0206  2.2074
 9145SOL     OW28855   3.513   2.880   0.614  0.1340 -0.1914  0.5202
 9145SOL    HW128856   3.511   2.825   0.692 -2.0119  2.0121  2.2028
 9145SOL    HW228857   3.428   2.865   0.572  0.3706  0.2774 -0.1453
 9146SOL     OW28858   0.767   6.315   6.949 -0.2113  0.4613 -0.3219
 9146SOL    HW128859   0.796   6.383   6.888  1.4011 -1.6665 -2.0516
 9146SOL    HW228860   0.704   6.263   6.900 -0.4093 -0.1126  0.5181
 9147SOL     OW28861   4.996   6.587   2.574 -0.0786  0.3468  0.0009
 9147SOL    HW128862   5.059   6.609   2.506  1.6893  1.1736  1.8129
 9147SOL    HW228863   4.969   6.498   2.554  2.3487 -0.3752 -0.3858
 9148SOL     OW28864   1.193   0.109   7.972 -0.6279  0.2479 -0.1282
 9148SOL    HW128865   1.211   0.174   7.904 -1.1057 -1.4860 -2.0044
 9148SOL    HW228866   1.274   0.106   8.024  0.8422 -0.2879 -2.3058
 9149SOL     OW28867   8.281   5.824   4.126  0.0900 -0.2333 -0.3634
 9149SOL    HW128868   8.347   5.826   4.195  0.1915 -0.1942 -0.4607
 9149SOL    HW228869   8.262   5.730   4.114  0.0764 -0.2402 -0.2875
 9150SOL     OW28870   0.227   1.271   4.096  0.4303  0.6362  0.0403
 9150SOL    HW128871   0.141   1.238   4.125  1.1173 -0.8048  0.5591
 9150SOL    HW228872   0.211   1.307   4.009 -0.5125 -0.5739 -0.3132
 9151SOL     OW28873   6.475   5.154   1.968 -0.0918  0.3052  0.2700
 9151SOL    HW128874   6.511   5.117   1.887 -0.5082 -1.0857  0.6990
 9151SOL    HW228875   6.389   5.113   1.976  0.2132 -0.0887  1.7538
 9152SOL     OW28876   5.522   0.872   8.936 -0.2074 -0.3440 -0.0767
 9152SOL    HW128877   5.501   0.907   8.849  0.0806  0.7708  0.2847
 9152SOL    HW228878   5.493   0.940   8.997  2.0801  0.1471  0.5511
 9153SOL     OW28879   9.086   3.202   7.666 -0.3358  0.0785  0.1354
 9153SOL    HW128880   9.094   3.251   7.747  0.8127  0.8643 -0.4221
 9153SOL    HW228881   8.992   3.189   7.654 -0.5820  1.0216  0.9526
 9154SOL     OW28882   1.153   5.491   8.259  0.2934  0.0403  0.1042
 9154SOL    HW128883   1.084   5.457   8.316 -0.0605  0.1618 -0.2518
 9154SOL    HW228884   1.231   5.492   8.315  0.2945 -1.2657  0.1589
 9155SOL     OW28885   6.472   5.796   3.013  0.5205  0.4765 -0.0660
 9155SOL    HW128886   6.459   5.723   3.074 -0.2450 -0.9786 -1.9071
 9155SOL    HW228887   6.395   5.852   3.025  0.9209  0.8244  1.0646
 9156SOL     OW28888   7.662   5.225   3.004 -0.2184 -0.0301 -0.0284
 9156SOL    HW128889   7.715   5.282   2.949  0.4569 -0.4693  0.1561
 9156SOL    HW228890   7.668   5.139   2.962 -2.7795  0.3504 -1.4170
 9157SOL     OW28891   1.202   0.616   8.740 -0.5460 -0.3422  0.3357
 9157SOL    HW128892   1.122   0.582   8.701 -0.9724 -1.2907  1.9221
 9157SOL    HW228893   1.172   0.691   8.792 -0.3640 -0.5228  0.7019
 9158SOL     OW28894   0.413   8.562   0.196  0.1931  0.3829  0.4089
 9158SOL    HW128895   0.397   8.488   0.254  2.0191  1.2209  2.0883
 9158SOL    HW228896   0.501   8.549   0.163  0.4649  1.6867  0.5743
 9159SOL     OW28897   0.109   5.976   4.282 -0.2057  0.8951  0.6169
 9159SOL    HW128898   0.023   5.955   4.245  1.0460  2.2378 -3.6360
 9159SOL    HW228899   0.118   6.071   4.270  2.4033  0.5873 -0.5850
 9160SOL     OW28900   1.380   0.236   6.217  0.3749  0.1563 -0.0561
 9160SOL    HW128901   1.343   0.149   6.233  0.7438 -0.2110 -1.1149
 9160SOL    HW228902   1.366   0.251   6.124 -1.3662  2.0473  0.4275
 9161SOL     OW28903   3.155   4.266   0.767 -0.2442 -0.0710 -0.2640
 9161SOL    HW128904   3.115   4.338   0.718  1.8256 -0.2690 -2.4401
 9161SOL    HW228905   3.106   4.263   0.849 -1.8721  2.3307 -1.0252
 9162SOL     OW28906   5.363   4.338   0.643 -0.2085 -0.3197  0.2177
 9162SOL    HW128907   5.379   4.310   0.553 -0.6804 -1.1724  0.3825
 9162SOL    HW228908   5.306   4.270   0.679 -0.5176  0.3268  0.9773
 9163SOL     OW28909   7.166   9.145   5.281 -0.2992  0.8399  0.5846
 9163SOL    HW128910   7.208   9.106   5.204 -0.5451  1.5632  0.0674
 9163SOL    HW228911   7.130   9.227   5.248  0.8545  1.8724  1.7998
 9164SOL     OW28912   2.457   5.394   1.866 -0.2255 -0.8830 -0.0563
 9164SOL    HW128913   2.529   5.338   1.836  0.2850 -1.0966  1.5210
 9164SOL    HW228914   2.389   5.333   1.894  0.1394 -0.7171  1.2120
 9165SOL     OW28915   7.778   1.084   6.552  0.0816  0.2476 -0.4033
 9165SOL    HW128916   7.714   1.014   6.569  0.9624 -0.9438 -1.7565
 9165SOL    HW228917   7.836   1.083   6.629  0.0447 -0.4765 -0.3781
 9166SOL     OW28918   5.639   8.161   8.186 -0.1693  0.0336 -0.2692
 9166SOL    HW128919   5.709   8.192   8.244 -1.0819  1.3111  0.2033
 9166SOL    HW228920   5.604   8.084   8.230  0.1336  0.1154  0.1212
 9167SOL     OW28921   7.939   1.603   1.119  0.2856 -0.1061  0.3359
 9167SOL    HW128922   7.914   1.512   1.133  0.1704 -0.5294 -2.1592
 9167SOL    HW228923   8.018   1.614   1.173  0.4469 -1.7576  0.4991
 9168SOL     OW28924   1.933   3.805   6.560 -0.7205  0.0330  0.3224
 9168SOL    HW128925   1.890   3.735   6.608 -1.5937  0.6536  0.4530
 9168SOL    HW228926   2.017   3.816   6.605  0.2519 -2.1413 -0.7929
 9169SOL     OW28927   3.359   1.650   7.808 -0.1497  0.0328 -0.0055
 9169SOL    HW128928   3.278   1.686   7.842 -0.2966  0.9126 -1.2062
 9169SOL    HW228929   3.420   1.653   7.881 -1.6260 -2.2100  1.4166
 9170SOL     OW28930   8.031   2.322   2.799  0.3077  0.7505 -0.2919
 9170SOL    HW128931   8.079   2.239   2.792 -1.3840 -0.3772  0.6837
 9170SOL    HW228932   8.092   2.381   2.842  0.5220 -0.9735  1.9472
 9171SOL     OW28933   2.668   1.067   0.450  0.7053  0.3937  0.2764
 9171SOL    HW128934   2.725   1.106   0.515  1.8154 -0.3743 -0.2019
 9171SOL    HW228935   2.662   0.975   0.475  1.8333 -0.1114 -1.1177
 9172SOL     OW28936   2.325   3.615   2.052 -0.2719 -0.2466 -0.0268
 9172SOL    HW128937   2.416   3.592   2.070 -0.1234  0.5243  0.2779
 9172SOL    HW228938   2.276   3.573   2.122 -0.1421 -0.5981 -0.1442
 9173SOL     OW28939   8.111   8.072   6.161  0.2573 -0.2371  0.5582
 9173SOL    HW128940   8.017   8.091   6.152  0.6371  1.0112 -1.3358
 9173SOL    HW228941   8.152   8.157   6.172  1.2706 -0.6640  0.1946
 9174SOL     OW28942   7.685   0.664   3.761  0.0603 -0.4534  0.5460
 9174SOL    HW128943   7.724   0.740   3.803  2.0051 -1.2155  0.2120
 9174SOL    HW228944   7.744   0.643   3.689 -1.5365 -1.0568 -0.6571
 9175SOL     OW28945   3.907   3.403   7.920  0.2384  0.1396 -0.2076
 9175SOL    HW128946   3.936   3.423   8.009  1.4237  0.6878 -0.7008
 9175SOL    HW228947   3.978   3.352   7.882 -0.0441  0.3230 -1.0076
 9176SOL     OW28948   3.535   4.046   9.070 -0.5954  0.0370 -0.1481
 9176SOL    HW128949   3.541   4.062   9.164  0.0994  0.1768 -0.2091
 9176SOL    HW228950   3.626   4.043   9.040 -0.7975 -0.4065 -0.7490
 9177SOL     OW28951   4.783   3.036   6.769 -0.0192  0.4259  0.2862
 9177SOL    HW128952   4.745   3.105   6.715  1.4809  0.5576 -0.6640
 9177SOL    HW228953   4.726   2.961   6.755 -0.1347  0.7026 -0.8443
 9178SOL     OW28954   0.367   7.650   3.327 -0.2218 -0.0972 -0.3487
 9178SOL    HW128955   0.341   7.595   3.401 -1.4735  1.0550  0.1118
 9178SOL    HW228956   0.357   7.739   3.359  3.2513  0.4949 -0.5530
 9179SOL     OW28957   7.799   4.458   5.807  0.3490 -0.4900  0.1686
 9179SOL    HW128958   7.762   4.391   5.749 -0.3667 -0.2838  0.3755
 9179SOL    HW228959   7.894   4.443   5.803  0.2705 -0.8702 -0.5712
 9180SOL     OW28960   1.465   0.645   8.652 -0.0333  0.8961  0.5557
 9180SOL    HW128961   1.534   0.656   8.718 -0.3526 -2.8519  1.7179
 9180SOL    HW228962   1.384   0.664   8.698 -0.0710  0.8917  0.4909
 9181SOL     OW28963   9.066   1.654   7.469 -0.3557 -0.3009  0.2803
 9181SOL    HW128964   8.989   1.655   7.412  0.4851  0.3417 -0.8848
 9181SOL    HW228965   9.031   1.676   7.556 -1.6013 -0.9018 -0.0419
 9182SOL     OW28966   5.488   5.825   4.387 -0.1570 -0.1771  0.1501
 9182SOL    HW128967   5.466   5.735   4.363 -0.7388 -0.3417  1.2140
 9182SOL    HW228968   5.583   5.828   4.385 -0.1448 -0.6993 -0.3028
 9183SOL     OW28969   2.197   7.928   1.463 -0.7637  0.0888  0.0346
 9183SOL    HW128970   2.213   7.953   1.372  0.8345  1.2607  0.5902
 9183SOL    HW228971   2.277   7.883   1.490 -0.2999  1.6666  1.4662
 9184SOL     OW28972   2.357   0.674   4.623 -0.1916  0.0450  0.6186
 9184SOL    HW128973   2.410   0.751   4.642 -0.9473  0.7618 -0.1104
 9184SOL    HW228974   2.338   0.679   4.529 -2.1245  0.2094  0.9708
 9185SOL     OW28975   2.640   6.020   1.516 -0.4406  0.3172 -0.5374
 9185SOL    HW128976   2.709   5.980   1.463 -0.9020  0.1157 -0.9926
 9185SOL    HW228977   2.669   6.008   1.607 -0.8401 -1.5646 -0.6274
 9186SOL     OW28978   9.076   6.161   4.729  0.8108  0.1474 -0.1761
 9186SOL    HW128979   9.120   6.078   4.713  0.5066  0.0919 -0.7427
 9186SOL    HW228980   9.147   6.226   4.728  0.9134  0.0332 -0.8894
 9187SOL     OW28981   0.812   7.986   9.029  0.5900 -0.3361 -0.3521
 9187SOL    HW128982   0.795   8.037   8.950  0.4506 -0.5845 -0.4827
 9187SOL    HW228983   0.793   7.896   9.004  0.5777 -0.4201 -0.0444
 9188SOL     OW28984   1.702   5.299   6.262  0.4220  0.7780 -0.3907
 9188SOL    HW128985   1.689   5.222   6.318  0.6560  1.2491  0.3241
 9188SOL    HW228986   1.667   5.273   6.177  0.0243  0.0603 -0.0164
 9189SOL     OW28987   5.497   8.082   1.238 -0.1494 -0.4485 -0.8466
 9189SOL    HW128988   5.584   8.070   1.274 -0.2866 -0.1953 -0.4222
 9189SOL    HW228989   5.438   8.040   1.301 -0.4813  0.8937 -0.2157
 9190SOL     OW28990   2.986   7.770   6.676  0.2765 -0.5204 -0.2749
 9190SOL    HW128991   3.011   7.855   6.713  2.3864 -0.8506 -0.8073
 9190SOL    HW228992   2.901   7.785   6.634  1.1469  1.6468 -1.3885
 9191SOL     OW28993   8.680   8.513   9.076  0.1258 -0.1103 -0.3927
 9191SOL    HW128994   8.756   8.487   9.128  0.2742 -1.1775 -1.1286
 9191SOL    HW228995   8.662   8.438   9.020 -1.3676  0.1849 -0.3589
 9192SOL     OW28996   9.141   3.227   8.153 -0.3764  0.1926  0.0531
 9192SOL    HW128997   9.230   3.201   8.126  0.0513 -0.9490  2.2705
 9192SOL    HW228998   9.084   3.169   8.103  0.3157 -1.0948  0.6821
 9193SOL     OW28999   2.070   8.721   1.342 -0.3672 -0.4023 -0.4834
 9193SOL    HW129000   2.157   8.747   1.311 -1.2476  0.3166 -2.5807
 9193SOL    HW229001   2.032   8.802   1.376  0.1322 -0.9412  1.4854
 9194SOL     OW29002   1.351   2.666   0.129  0.5006 -0.5623 -0.4820
 9194SOL    HW129003   1.390   2.614   0.199  1.6549 -1.0060 -1.4275
 9194SOL    HW229004   1.422   2.679   0.066 -0.2383  0.6866 -1.0998
 9195SOL     OW29005   1.078   3.138   2.905 -0.1539 -0.7393  0.3291
 9195SOL    HW129006   0.985   3.157   2.891  0.0487 -1.0514 -1.9684
 9195SOL    HW229007   1.081   3.090   2.988 -1.6047  2.0313  2.1217
 9196SOL     OW29008   8.240   8.147   8.508  0.4230  0.1054 -0.8803
 9196SOL    HW129009   8.253   8.232   8.467  0.9711 -0.0243 -0.9869
 9196SOL    HW229010   8.327   8.106   8.508  0.1932 -0.4033 -0.7170
 9197SOL     OW29011   2.222   1.126   7.308 -0.1128 -0.0687  0.4857
 9197SOL    HW129012   2.145   1.125   7.364 -0.2566 -0.3365  0.2852
 9197SOL    HW229013   2.242   1.219   7.295 -0.4535 -0.0002  0.4610
 9198SOL     OW29014   3.163   5.321   8.921  0.0737 -0.5411  0.0562
 9198SOL    HW129015   3.131   5.334   9.010  1.0442 -0.7156  0.4312
 9198SOL    HW229016   3.172   5.226   8.912  2.3761 -0.4286  0.6474
 9199SOL     OW29017   6.351   6.325   5.735 -0.5391  0.7334 -0.1611
 9199SOL    HW129018   6.417   6.382   5.773 -0.3184  1.4434 -1.5404
 9199SOL    HW229019   6.293   6.384   5.687  0.0389 -0.2312 -2.1212
 9200SOL     OW29020   2.395   5.046   8.775  0.1087 -0.5764  0.0843
 9200SOL    HW129021   2.355   4.966   8.740  0.5947 -0.7023 -0.1867
 9200SOL    HW229022   2.382   5.112   8.707  2.2086 -1.1501 -0.9454
 9201SOL     OW29023   0.803   1.018   8.851  0.3794  0.5771 -0.1481
 9201SOL    HW129024   0.722   1.023   8.902 -0.0752  1.5008 -0.9349
 9201SOL    HW229025   0.775   0.999   8.762  1.1677 -0.9916 -0.0881
 9202SOL     OW29026   0.014   5.391   2.358 -0.4063 -0.4416  0.0641
 9202SOL    HW129027  -0.053   5.460   2.363  0.9171  0.9283 -0.3488
 9202SOL    HW229028  -0.003   5.347   2.275 -0.6127  0.0875 -0.1795
 9203SOL     OW29029   7.801   0.388   3.149  0.0166  0.6201 -0.0955
 9203SOL    HW129030   7.831   0.426   3.067 -0.4274 -0.6043 -0.8561
 9203SOL    HW229031   7.757   0.307   3.123 -0.4998  0.4231  1.3193
 9204SOL     OW29032   1.857   0.886   7.938 -0.4815  0.2344 -0.3110
 9204SOL    HW129033   1.800   0.917   7.867 -1.1831  1.3611  0.7041
 9204SOL    HW229034   1.798   0.842   8.000  0.3053 -1.9458 -1.0088
 9205SOL     OW29035   7.132   4.492   6.958 -0.0714  0.7274  0.1114
 9205SOL    HW129036   7.058   4.500   7.018 -1.3424 -1.1249 -1.1240
 9205SOL    HW229037   7.164   4.403   6.971 -0.0484  0.4588 -1.5429
 9206SOL     OW29038   7.135   6.420   1.357 -0.0825 -1.0056 -0.1975
 9206SOL    HW129039   7.040   6.412   1.347 -0.3881  1.6298  0.0990
 9206SOL    HW229040   7.148   6.441   1.450  0.5419  1.1502 -0.7266
 9207SOL     OW29041   7.920   0.270   4.349  0.2457 -0.3821 -0.0081
 9207SOL    HW129042   7.828   0.245   4.342  0.4552 -1.7959  1.7615
 9207SOL    HW229043   7.918   0.366   4.347 -0.9815 -0.3773 -2.5737
 9208SOL     OW29044   4.898   7.054   7.036 -0.3103 -0.1848 -0.6892
 9208SOL    HW129045   4.881   7.118   7.105  0.2511 -1.3301  0.5450
 9208SOL    HW229046   4.851   6.975   7.063  1.3941 -1.2425 -0.6459
 9209SOL     OW29047   0.789   7.533   7.028  0.3530 -0.2176  0.5889
 9209SOL    HW129048   0.714   7.526   7.087  1.1091  1.7248  1.8658
 9209SOL    HW229049   0.783   7.622   6.993  1.2522 -0.5377 -0.4371
 9210SOL     OW29050   6.839   7.378   9.173  0.4797 -0.7482  0.0297
 9210SOL    HW129051   6.844   7.289   9.139  0.3229 -0.7184 -0.0783
 9210SOL    HW229052   6.782   7.372   9.250  0.0122 -0.6521 -0.3017
 9211SOL     OW29053   5.233   6.349   2.577 -0.4791  0.4481  0.2951
 9211SOL    HW129054   5.304   6.388   2.526  0.3996 -1.8947 -0.3951
 9211SOL    HW229055   5.155   6.363   2.522  0.0493  0.0472 -0.5801
 9212SOL     OW29056   1.531   7.435   7.770  0.1826  0.2472 -0.6731
 9212SOL    HW129057   1.465   7.477   7.826 -0.4954  0.9384 -1.9330
 9212SOL    HW229058   1.482   7.368   7.724  0.6856 -0.1668 -0.6053
 9213SOL     OW29059   3.292   3.846   5.960  0.6060 -0.8582 -0.2772
 9213SOL    HW129060   3.305   3.771   6.018 -0.1830 -1.5754 -1.0091
 9213SOL    HW229061   3.344   3.826   5.882  1.8024  0.1843  0.2102
 9214SOL     OW29062   7.614   2.081   1.915  0.2037  0.3365  0.1521
 9214SOL    HW129063   7.666   2.160   1.931 -0.2881  0.6798  0.0662
 9214SOL    HW229064   7.543   2.109   1.857 -0.7497  0.1428  1.1789
 9215SOL     OW29065   3.930   2.594   1.855  0.8370  0.0943  0.0505
 9215SOL    HW129066   3.876   2.592   1.934 -1.9292  0.0198 -1.6883
 9215SOL    HW229067   3.945   2.688   1.839  0.7983  0.1374  0.2645
 9216SOL     OW29068   2.021   3.992   5.126 -0.3109 -0.3586 -0.4665
 9216SOL    HW129069   1.952   4.011   5.063 -1.1195  0.4586  0.6241
 9216SOL    HW229070   1.979   3.938   5.193  0.3193 -0.5359 -0.2040
 9217SOL     OW29071   3.077   0.511   0.410 -0.3904 -0.1311 -0.5099
 9217SOL    HW129072   3.123   0.561   0.478 -1.3738  1.0687 -0.6896
 9217SOL    HW229073   3.011   0.461   0.458 -0.1398 -0.4063 -0.4465
 9218SOL     OW29074   8.727   5.983   4.688 -0.0148  0.5011  0.1380
 9218SOL    HW129075   8.732   5.887   4.689 -1.4261  0.3960 -0.4358
 9218SOL    HW229076   8.639   6.003   4.721 -1.6614  1.3392 -4.1504
 9219SOL     OW29077   4.207   7.475   8.752  0.6677 -0.1098  0.1043
 9219SOL    HW129078   4.126   7.506   8.711  0.5265  0.7707  1.0263
 9219SOL    HW229079   4.177   7.418   8.823  0.8766 -0.3252  0.0208
 9220SOL     OW29080   5.485   8.116   8.647 -0.1733  0.4819  0.2901
 9220SOL    HW129081   5.469   8.209   8.665 -0.8846  0.0329  2.2897
 9220SOL    HW229082   5.413   8.090   8.589 -1.1139  0.7554  1.2981
 9221SOL     OW29083   7.132   2.988   6.885 -0.3370  0.0393 -0.3811
 9221SOL    HW129084   7.086   3.055   6.936 -2.4712 -0.7580 -1.1539
 9221SOL    HW229085   7.134   2.911   6.942  0.8263  0.3102 -0.0379
 9222SOL     OW29086   1.341   7.591   7.900 -0.4385 -0.7449  0.1629
 9222SOL    HW129087   1.366   7.680   7.874  1.5175 -1.0836  0.6937
 9222SOL    HW229088   1.252   7.581   7.868  0.6633 -0.0459 -3.6440
 9223SOL     OW29089   2.494   5.760   7.562  0.2168 -0.5912 -0.0706
 9223SOL    HW129090   2.569   5.802   7.520  1.1748 -0.6018  1.5369
 9223SOL    HW229091   2.436   5.832   7.585  0.6883 -0.3665  0.4501
 9224SOL     OW29092   5.631   2.628   8.038  0.2322 -0.1456  0.2335
 9224SOL    HW129093   5.601   2.707   8.082  1.3077  0.1181  0.5298
 9224SOL    HW229094   5.553   2.573   8.030 -0.9948  1.7105 -1.6876
 9225SOL     OW29095   3.447   5.707   9.096 -0.0241  0.4169 -0.2168
 9225SOL    HW129096   3.457   5.649   9.171  1.6041  0.0091 -0.7278
 9225SOL    HW229097   3.404   5.653   9.029  0.4966  0.1150 -0.3138
 9226SOL     OW29098   1.475   6.641   1.484 -0.0064  0.1818  0.3434
 9226SOL    HW129099   1.558   6.618   1.526  0.4947  1.8939  0.3729
 9226SOL    HW229100   1.500   6.678   1.400 -0.7509  0.4475  0.2260
 9227SOL     OW29101   2.605   8.932   9.142 -0.0721  0.3708  0.0654
 9227SOL    HW129102   2.590   9.012   9.092 -2.3412 -0.0615 -0.0126
 9227SOL    HW229103   2.524   8.916   9.190  1.9115  0.7711  4.0497
 9228SOL     OW29104   4.992   4.945   3.848  0.0393 -0.1851  0.2398
 9228SOL    HW129105   4.902   4.937   3.815 -0.2083  0.2297  0.7951
 9228SOL    HW229106   4.981   4.971   3.940  0.7375  0.2860  0.1904
 9229SOL     OW29107   5.355   7.190   6.067 -0.1251  0.0117  0.0809
 9229SOL    HW129108   5.402   7.157   6.143 -0.0463  0.9523  0.4570
 9229SOL    HW229109   5.364   7.121   6.001  1.7912  0.1641  0.1251
 9230SOL     OW29110   7.337   3.173   7.873 -0.4335 -0.6302  0.3050
 9230SOL    HW129111   7.326   3.081   7.896  0.9661 -0.9233 -0.1260
 9230SOL    HW229112   7.303   3.180   7.784  1.0914 -1.1501 -0.3527
 9231SOL     OW29113   8.937   9.097   7.332 -0.1761 -0.2173 -0.0619
 9231SOL    HW129114   9.021   9.142   7.320  2.0269 -3.6693  1.1146
 9231SOL    HW229115   8.942   9.020   7.275 -1.4304 -1.8063  1.8591
 9232SOL     OW29116   3.242   8.558   0.709 -0.5033 -0.2470 -0.0091
 9232SOL    HW129117   3.239   8.604   0.625 -1.1760 -0.2609 -0.0004
 9232SOL    HW229118   3.178   8.487   0.700 -0.8248 -0.0504  0.6237
 9233SOL     OW29119   5.636   5.917   2.993 -0.0232 -0.3502  0.1064
 9233SOL    HW129120   5.651   6.003   3.032 -0.3095 -0.6085  0.8230
 9233SOL    HW229121   5.603   5.864   3.066 -0.1229 -0.9857 -0.3916
 9234SOL     OW29122   2.576   3.311   7.539 -0.0286  0.1242 -0.2121
 9234SOL    HW129123   2.628   3.285   7.463 -0.9119 -0.0442 -0.7756
 9234SOL    HW229124   2.511   3.372   7.504  0.4827  1.2109  0.6823
 9235SOL     OW29125   7.176   2.477   6.245 -0.1937  0.1431  0.5868
 9235SOL    HW129126   7.203   2.424   6.170  1.3645 -0.7459  1.7151
 9235SOL    HW229127   7.166   2.413   6.317 -0.8829  1.0621  1.3368
 9236SOL     OW29128   6.634   5.466   6.841  0.2762  0.7298 -0.1205
 9236SOL    HW129129   6.643   5.374   6.868 -1.0981  0.0620 -1.7348
 9236SOL    HW229130   6.567   5.502   6.898  1.8050  1.2057  1.4772
 9237SOL     OW29131   7.237   6.645   1.240  0.8444  0.2621  0.0092
 9237SOL    HW129132   7.278   6.608   1.162 -2.2524 -1.1181 -1.1596
 9237SOL    HW229133   7.195   6.569   1.283  0.0823  1.4205  1.4239
 9238SOL     OW29134   7.737   6.837   5.274  0.2985 -0.1776 -0.1602
 9238SOL    HW129135   7.763   6.926   5.250 -0.3802  0.1765  0.4149
 9238SOL    HW229136   7.782   6.781   5.210  1.5591  0.4975  0.1042
 9239SOL     OW29137   4.289   7.162   0.131  0.2579 -0.3744 -0.1643
 9239SOL    HW129138   4.349   7.098   0.093  0.6256  0.4138 -0.9515
 9239SOL    HW229139   4.203   7.137   0.097  0.5957  0.4020 -1.6841
 9240SOL     OW29140   1.450   5.329   0.434  0.4417  0.0123  0.2911
 9240SOL    HW129141   1.488   5.271   0.499 -1.8046 -0.5563  1.1808
 9240SOL    HW229142   1.461   5.417   0.471  0.9859 -0.1130  0.4430
 9241SOL     OW29143   0.757   0.498   1.886 -0.0731  0.4237 -0.1546
 9241SOL    HW129144   0.806   0.552   1.824  0.6045  0.3671  0.3295
 9241SOL    HW229145   0.690   0.557   1.921  0.7474  0.9958  0.4688
 9242SOL     OW29146   6.664   2.975   7.736 -0.3501 -0.6076 -0.0079
 9242SOL    HW129147   6.751   2.934   7.741 -0.0912  0.0463  0.9688
 9242SOL    HW229148   6.638   2.988   7.827 -2.1399 -2.1586 -0.2330
 9243SOL     OW29149   1.088   4.880   3.129  0.2963  0.1611 -0.2280
 9243SOL    HW129150   1.009   4.933   3.127  0.0466 -0.0642  1.7911
 9243SOL    HW229151   1.151   4.929   3.075  0.2837  2.8953  2.0439
 9244SOL     OW29152   7.524   7.525   9.018 -0.6797 -0.4654  0.4572
 9244SOL    HW129153   7.601   7.482   9.055 -1.1255 -0.9371  0.8404
 9244SOL    HW229154   7.539   7.523   8.923  0.3846  0.5929  0.5752
 9245SOL     OW29155   4.083   3.244   8.448 -0.3372  0.0688  0.7237
 9245SOL    HW129156   4.158   3.185   8.457  0.3304  1.1653  3.0617
 9245SOL    HW229157   4.018   3.209   8.508 -0.8952  0.3617  0.3033
 9246SOL     OW29158   2.622   1.764   1.910  0.2087 -0.1780 -0.1125
 9246SOL    HW129159   2.641   1.671   1.903  0.7298 -0.2266  1.4480
 9246SOL    HW229160   2.675   1.805   1.842  0.7252 -0.9451 -0.1827
 9247SOL     OW29161   5.120   8.368   7.139  0.2524  0.0362 -0.0182
 9247SOL    HW129162   5.192   8.418   7.176 -0.4556  0.1041  1.3477
 9247SOL    HW229163   5.049   8.377   7.203 -1.5111  1.2551 -2.0092
 9248SOL     OW29164   0.736   0.253   8.779 -0.3741  0.4855  0.1972
 9248SOL    HW129165   0.807   0.296   8.827 -0.6034  0.2585  0.7502
 9248SOL    HW229166   0.778   0.178   8.737 -0.3910  0.0180  0.9997
 9249SOL     OW29167   7.289   8.182   8.026 -0.0698 -0.0225 -0.1212
 9249SOL    HW129168   7.297   8.275   8.050  1.2036  0.0939 -0.8758
 9249SOL    HW229169   7.347   8.136   8.087 -0.4016 -0.2742  0.0045
 9250SOL     OW29170   0.909   2.133   7.756 -0.0469  0.2578  0.1352
 9250SOL    HW129171   0.979   2.111   7.695  0.0522 -1.0932  0.6843
 9250SOL    HW229172   0.949   2.192   7.819  0.2485  0.5037 -0.2832
 9251SOL     OW29173   0.905   2.068   3.551  0.3297  0.6409 -0.4941
 9251SOL    HW129174   0.817   2.075   3.586  0.4787  0.7083 -0.1304
 9251SOL    HW229175   0.893   2.034   3.462  0.0489 -1.3888  0.2581
 9252SOL     OW29176   7.295   7.368   4.728 -0.1385 -0.3859  0.0502
 9252SOL    HW129177   7.252   7.419   4.658 -1.2476  0.4267  1.2733
 9252SOL    HW229178   7.266   7.278   4.713 -0.5883 -0.1785 -0.3794
 9253SOL     OW29179   8.743   1.828   3.776 -0.2475  0.0761 -0.0151
 9253SOL    HW129180   8.676   1.887   3.811 -1.3218 -1.5546  0.7993
 9253SOL    HW229181   8.820   1.883   3.766 -0.3397  1.0804  3.3873
 9254SOL     OW29182   9.169   6.488   6.997 -0.3789  0.0281 -0.1517
 9254SOL    HW129183   9.116   6.439   7.060  1.2608  0.0494  1.2935
 9254SOL    HW229184   9.194   6.568   7.042  1.1868 -0.1457 -0.6397
 9255SOL     OW29185   6.276   5.889   3.393  0.3396  0.0807 -0.9977
 9255SOL    HW129186   6.260   5.811   3.446  2.0647  0.3121 -0.0683
 9255SOL    HW229187   6.262   5.860   3.303 -1.0250 -0.7554 -0.5420
 9256SOL     OW29188   7.513   3.310   4.199  0.2791 -0.1326  0.4182
 9256SOL    HW129189   7.456   3.376   4.159  0.2655 -0.0544  0.5677
 9256SOL    HW229190   7.507   3.326   4.293  2.7801  1.7423  0.3613
 9257SOL     OW29191   7.470   1.905   1.128 -0.6453  0.2199 -0.7368
 9257SOL    HW129192   7.477   1.927   1.035  0.6383 -1.1856 -1.0183
 9257SOL    HW229193   7.482   1.810   1.132 -1.7415  0.1058  0.7811
 9258SOL     OW29194   8.944   8.724   2.522 -0.5397  0.1412  0.4072
 9258SOL    HW129195   8.939   8.636   2.485 -0.8231  0.6338 -0.7712
 9258SOL    HW229196   8.986   8.712   2.607 -1.2904 -1.2263  0.6064
 9259SOL     OW29197   4.493   3.299   3.752  0.0223  0.2298  0.2570
 9259SOL    HW129198   4.549   3.361   3.800 -1.6790  2.4317 -0.4457
 9259SOL    HW229199   4.554   3.250   3.696  1.3682  1.9530  0.1383
 9260SOL     OW29200   9.159   0.701   4.487  0.6819 -0.2732  0.1049
 9260SOL    HW129201   9.085   0.697   4.549  0.6664  0.9186  0.1877
 9260SOL    HW229202   9.139   0.776   4.431  1.4447 -0.4315 -0.3890
 9261SOL     OW29203   1.299   3.614   0.609 -0.6956 -0.3135 -0.7003
 9261SOL    HW129204   1.228   3.671   0.578 -0.8712 -0.2611 -0.1988
 9261SOL    HW229205   1.255   3.544   0.657 -0.3113  0.9089  1.5478
 9262SOL     OW29206   2.138   8.251   3.805  0.0211  0.3230 -0.3975
 9262SOL    HW129207   2.141   8.210   3.719  0.4489 -1.1803  0.2922
 9262SOL    HW229208   2.229   8.252   3.834 -0.3407 -1.4170  0.9974
 9263SOL     OW29209   2.566   1.394   4.471 -0.3413 -0.2261 -0.4278
 9263SOL    HW129210   2.522   1.311   4.453 -0.8722 -0.1501  0.4428
 9263SOL    HW229211   2.592   1.427   4.385 -1.5425 -0.5363 -0.9373
 9264SOL     OW29212   6.996   7.707   5.566  0.0048 -0.0271  0.1865
 9264SOL    HW129213   6.914   7.657   5.556  0.9987 -1.4608 -1.3070
 9264SOL    HW229214   7.063   7.650   5.529  1.9462  0.4834  2.6992
 9265SOL     OW29215   9.064   7.635   7.448  0.3284  0.3371 -0.0497
 9265SOL    HW129216   8.982   7.673   7.416 -0.0458  0.2757  0.8021
 9265SOL    HW229217   9.059   7.645   7.543  0.3136 -1.6724  0.1926
 9266SOL     OW29218   8.034   1.067   1.333  0.1220 -0.4074  0.1723
 9266SOL    HW129219   8.088   1.092   1.258 -1.8195  1.0269 -0.8548
 9266SOL    HW229220   8.097   1.039   1.399  2.0227 -0.1003 -1.3882
 9267SOL     OW29221   6.160   8.578   5.179  0.0290  0.6435  0.1492
 9267SOL    HW129222   6.214   8.567   5.257 -2.2047  1.2697  1.8770
 9267SOL    HW229223   6.097   8.506   5.182 -0.4406  0.9957 -0.7744
 9268SOL     OW29224   4.718   2.467   3.759 -0.0822 -0.3525 -0.1432
 9268SOL    HW129225   4.643   2.421   3.721 -0.4831  0.7474 -0.7456
 9268SOL    HW229226   4.682   2.551   3.789  0.6149 -0.4281  0.9677
 9269SOL     OW29227   0.483   7.417   4.455  0.0026 -0.3470  0.1223
 9269SOL    HW129228   0.510   7.502   4.488 -0.1530  0.1379 -0.9656
 9269SOL    HW229229   0.565   7.374   4.430  0.2941 -1.3963  2.6147
 9270SOL     OW29230   1.067   7.712   4.923  0.4012  0.2037  0.2623
 9270SOL    HW129231   1.131   7.769   4.881  1.3962 -0.3627  0.9722
 9270SOL    HW229232   1.095   7.623   4.900  0.0409 -0.0627  0.8285
 9271SOL     OW29233   5.299   3.942   4.601  0.2717 -0.4502 -0.0649
 9271SOL    HW129234   5.223   3.899   4.564 -0.9163 -0.1635  1.8900
 9271SOL    HW229235   5.370   3.879   4.591 -0.7687 -1.7071  0.1937
 9272SOL     OW29236   4.605   3.213   7.165 -0.7526  0.2015 -0.2802
 9272SOL    HW129237   4.677   3.270   7.139 -0.3412 -0.4865 -0.6752
 9272SOL    HW229238   4.642   3.125   7.163 -1.4211 -0.0940  0.1730
 9273SOL     OW29239   7.600   1.089   7.748 -0.0463 -0.0897 -0.0103
 9273SOL    HW129240   7.539   1.162   7.743 -1.2124 -1.0205  0.1021
 9273SOL    HW229241   7.580   1.046   7.831 -0.9395 -1.8359 -1.0753
 9274SOL     OW29242   3.075   7.189   6.247  0.0222  0.2642 -0.4748
 9274SOL    HW129243   3.075   7.285   6.245  1.0137  0.3469  1.3224
 9274SOL    HW229244   3.154   7.164   6.200  0.4338  0.3963  0.1342
 9275SOL     OW29245   8.922   3.515   6.236  0.2434  0.0862  0.0853
 9275SOL    HW129246   8.971   3.487   6.159  1.3267 -2.0295  1.4539
 9275SOL    HW229247   8.946   3.607   6.248  1.1842  0.0410 -1.2483
 9276SOL     OW29248   5.468   8.362   8.057  0.1403  0.0236 -0.2953
 9276SOL    HW129249   5.555   8.324   8.067  0.5023  0.8589 -0.1429
 9276SOL    HW229250   5.471   8.443   8.108 -0.7182  0.0776 -0.3139
 9277SOL     OW29251   0.457   2.135   4.051 -0.2667  0.3503  0.1539
 9277SOL    HW129252   0.445   2.102   3.962  1.4784 -0.8530  0.3231
 9277SOL    HW229253   0.462   2.230   4.040  1.2321  0.1592 -1.2459
 9278SOL     OW29254   6.091   8.751   9.096  0.0112  0.1761  0.6087
 9278SOL    HW129255   6.004   8.776   9.064 -0.2452  0.1582  1.2768
 9278SOL    HW229256   6.125   8.831   9.137 -0.2642 -0.1917  1.5747
 9279SOL     OW29257   3.082   4.987   2.267  0.1126 -0.3433 -0.4200
 9279SOL    HW129258   2.994   4.960   2.293  0.3443 -1.0368 -0.3231
 9279SOL    HW229259   3.078   5.082   2.261 -0.5884 -0.3582 -0.2195
 9280SOL     OW29260   2.788   8.935   1.290  0.0152  0.0097  0.4030
 9280SOL    HW129261   2.756   8.846   1.274 -0.9388  0.5730 -0.9244
 9280SOL    HW229262   2.753   8.987   1.218  0.6563  1.4557  1.0957
 9281SOL     OW29263   2.645   0.965   8.218 -0.5542 -0.0457 -0.3774
 9281SOL    HW129264   2.663   0.871   8.212  2.0629  0.4062 -0.8499
 9281SOL    HW229265   2.704   1.005   8.154 -1.1476  1.9757  0.2623
 9282SOL     OW29266   0.283   8.268   8.403  0.5838 -0.2712 -0.1333
 9282SOL    HW129267   0.245   8.295   8.487  1.6220  0.0998  0.2361
 9282SOL    HW229268   0.273   8.345   8.347  0.2505 -0.3801 -0.2238
 9283SOL     OW29269   0.282   0.228   8.938  0.2825 -0.2323 -0.1835
 9283SOL    HW129270   0.316   0.311   8.905 -0.4792  0.2883  0.3167
 9283SOL    HW229271   0.358   0.170   8.940  0.3804 -0.3175 -2.9016
 9284SOL     OW29272   8.384   6.504   3.841 -0.3793  0.4848 -0.0267
 9284SOL    HW129273   8.304   6.546   3.873  1.3957  1.9504  2.9928
 9284SOL    HW229274   8.368   6.410   3.850 -1.6507  0.7574  0.7801
 9285SOL     OW29275   7.068   7.610   4.832 -0.5118 -0.1679  0.1163
 9285SOL    HW129276   7.018   7.636   4.755  0.3500  2.3909  0.3074
 9285SOL    HW229277   7.007   7.619   4.905 -0.5739  0.1828  0.0252
 9286SOL     OW29278   4.568   8.659   0.560  0.0888 -0.9709  0.1246
 9286SOL    HW129279   4.520   8.728   0.515  0.7723 -1.6076 -1.6717
 9286SOL    HW229280   4.565   8.684   0.652 -1.6034  0.2438 -0.2127
 9287SOL     OW29281   1.711   6.018   0.291 -0.2017  0.1371  0.2778
 9287SOL    HW129282   1.678   6.064   0.368 -1.1118 -1.0991  0.6550
 9287SOL    HW229283   1.779   6.075   0.257 -0.3616  1.1128  1.5098
 9288SOL     OW29284   1.332   7.216   8.476 -0.0979  0.5484  0.4199
 9288SOL    HW129285   1.294   7.150   8.418  0.9819  0.4424 -0.1837
 9288SOL    HW229286   1.278   7.294   8.460 -0.8698  0.0548  0.5382
 9289SOL     OW29287   4.601   8.332   5.900  0.1736  0.1645  0.9407
 9289SOL    HW129288   4.594   8.240   5.925 -0.9692  0.3027  1.1837
 9289SOL    HW229289   4.675   8.365   5.951  0.7303 -0.6589  0.6933
 9290SOL     OW29290   7.605   4.550   2.986  0.6000 -0.7125  0.8718
 9290SOL    HW129291   7.598   4.512   3.073 -0.8413  1.2400  1.6615
 9290SOL    HW229292   7.552   4.492   2.930  0.5445 -1.2923  1.5164
 9291SOL     OW29293   5.296   5.533   5.836  0.4276  0.5518  0.0595
 9291SOL    HW129294   5.269   5.535   5.928 -0.8267  1.3793 -0.3144
 9291SOL    HW229295   5.234   5.473   5.795  0.1512  1.2093 -0.4961
 9292SOL     OW29296   3.829   6.903   2.818  0.0751 -0.2787 -0.3734
 9292SOL    HW129297   3.808   6.996   2.822 -4.7676 -1.0443 -1.6275
 9292SOL    HW229298   3.845   6.886   2.725  0.2068 -0.8169 -0.2551
 9293SOL     OW29299   3.559   8.543   2.234  0.1797  0.1234 -0.3564
 9293SOL    HW129300   3.469   8.512   2.222 -0.0483  0.9757 -0.9365
 9293SOL    HW229301   3.562   8.574   2.325  0.2027 -0.8890 -0.0024
 9294SOL     OW29302   2.895   6.094   8.319 -0.5197 -0.1069  0.3514
 9294SOL    HW129303   2.882   6.009   8.361  0.2998 -1.3382 -1.7436
 9294SOL    HW229304   2.872   6.157   8.386 -2.8370 -1.9790  1.4644
 9295SOL     OW29305   4.880   6.995   0.668 -0.2995  0.0467  0.5558
 9295SOL    HW129306   4.815   7.052   0.709  0.6466  0.8235  1.0254
 9295SOL    HW229307   4.958   7.050   0.659  0.2316 -0.7986 -0.1907
 9296SOL     OW29308   4.432   1.532   0.630 -0.2125 -0.1948 -0.1280
 9296SOL    HW129309   4.411   1.621   0.657  1.6394 -0.0558  1.0453
 9296SOL    HW229310   4.433   1.535   0.535 -0.1231  1.0577 -0.1057
 9297SOL     OW29311   7.041   4.147   8.808 -0.2232 -0.4936 -0.2526
 9297SOL    HW129312   7.116   4.116   8.860 -0.0037 -0.0453 -0.2958
 9297SOL    HW229313   6.975   4.169   8.874 -0.5619 -1.5040 -0.2422
 9298SOL     OW29314   7.846   0.087   6.238 -0.2144  0.7746 -0.3598
 9298SOL    HW129315   7.871   0.155   6.299  1.2122  0.8168 -0.9606
 9298SOL    HW229316   7.848   0.130   6.152 -0.3554  0.2522 -0.6289
 9299SOL     OW29317   2.301   1.893   8.156 -0.7044 -0.2950 -0.3216
 9299SOL    HW129318   2.285   1.854   8.070 -1.6593  0.2927 -0.4197
 9299SOL    HW229319   2.223   1.945   8.174 -0.6235 -0.6020  1.0108
 9300SOL     OW29320   0.140   7.493   0.312 -0.1727 -0.8018 -0.1099
 9300SOL    HW129321   0.099   7.441   0.243  0.7267  0.0837 -1.3666
 9300SOL    HW229322   0.194   7.556   0.265  1.6438 -1.1081  1.4505
 9301SOL     OW29323   5.135   1.283   8.723 -0.7021 -0.6460  0.8652
 9301SOL    HW129324   5.209   1.335   8.693 -0.9680 -0.6506  0.1969
 9301SOL    HW229325   5.104   1.329   8.802 -2.6845  1.8763 -1.2148
 9302SOL     OW29326   8.220   3.324   3.229  0.0954 -0.0827  0.7728
 9302SOL    HW129327   8.282   3.396   3.239  0.7177 -0.8128  2.6173
 9302SOL    HW229328   8.253   3.274   3.155 -0.5193  1.6532 -0.7351
 9303SOL     OW29329   1.424   7.601   7.250 -0.0316 -0.2667  0.8892
 9303SOL    HW129330   1.508   7.579   7.288 -1.2810 -1.3329  3.2494
 9303SOL    HW229331   1.402   7.687   7.285 -0.7767 -0.8534  1.9203
 9304SOL     OW29332   7.300   2.689   3.538  0.1248 -0.3811 -0.1395
 9304SOL    HW129333   7.226   2.655   3.589  0.4733 -1.6297 -0.4483
 9304SOL    HW229334   7.351   2.740   3.601 -0.7193  0.0672  0.1946
 9305SOL     OW29335   3.226   8.750   0.529 -0.3702 -0.4306 -0.4099
 9305SOL    HW129336   3.263   8.835   0.552 -0.4345 -0.0377 -1.6619
 9305SOL    HW229337   3.132   8.760   0.545 -0.3458 -0.3443 -0.3184
 9306SOL     OW29338   1.959   8.464   3.051  0.0828 -0.5990  0.3446
 9306SOL    HW129339   2.028   8.402   3.027  0.8973 -0.3397  1.8791
 9306SOL    HW229340   1.909   8.420   3.119 -0.3664 -0.2073  0.2741
 9307SOL     OW29341   7.751   6.716   7.348  0.1813 -0.3327  0.3877
 9307SOL    HW129342   7.682   6.754   7.401  1.4394  2.7059  0.0318
 9307SOL    HW229343   7.826   6.709   7.407  0.4228 -0.8630  0.0297
 9308SOL     OW29344   2.356   7.432   1.324  0.0534  0.5406 -0.1134
 9308SOL    HW129345   2.442   7.474   1.327  0.2462  0.3118 -1.7853
 9308SOL    HW229346   2.325   7.445   1.235 -1.4626  0.2112  0.3223
 9309SOL     OW29347   1.434   1.596   2.136 -0.3529  0.0440 -0.2277
 9309SOL    HW129348   1.451   1.570   2.045 -3.8166 -0.3451 -0.9023
 9309SOL    HW229349   1.506   1.558   2.186 -0.6850 -3.7414 -2.2494
 9310SOL     OW29350   7.637   6.583   7.882 -0.4842 -0.0901  0.1282
 9310SOL    HW129351   7.607   6.647   7.947 -1.8236  2.0417 -2.4101
 9310SOL    HW229352   7.564   6.574   7.821  1.2461 -0.7942 -1.9696
 9311SOL     OW29353   5.269   8.557   8.217  0.6505  0.1727 -0.0553
 9311SOL    HW129354   5.358   8.592   8.222  1.2634 -1.3027 -0.1437
 9311SOL    HW229355   5.247   8.561   8.123  0.6921  0.3798 -0.0560
 9312SOL     OW29356   2.116   7.685   4.789  0.1643 -0.6437 -0.4975
 9312SOL    HW129357   2.085   7.733   4.711 -1.2096  0.1650  0.4962
 9312SOL    HW229358   2.169   7.614   4.754 -0.2216 -0.1530 -2.1710
 9313SOL     OW29359   7.362   8.939   7.814  0.1119 -0.2490  0.8177
 9313SOL    HW129360   7.377   9.026   7.777 -2.0806 -0.2342 -0.2253
 9313SOL    HW229361   7.380   8.879   7.741  1.0749 -0.6336  1.3675
 9314SOL     OW29362   1.902   6.687   6.864 -0.2555 -0.1457  0.0024
 9314SOL    HW129363   1.909   6.592   6.865  0.6438 -0.0881  0.0154
 9314SOL    HW229364   1.847   6.708   6.939  0.0930 -0.6140  0.3920
 9315SOL     OW29365   7.670   4.983   6.314 -0.3680  0.2369  0.0667
 9315SOL    HW129366   7.638   4.894   6.297  1.3462 -0.1717 -1.2265
 9315SOL    HW229367   7.757   4.985   6.275 -0.8727  2.9184 -1.1202
 9316SOL     OW29368   7.925   8.390   2.387  0.2039  0.1459  1.1019
 9316SOL    HW129369   7.906   8.483   2.373  1.3168  0.3928  1.1538
 9316SOL    HW229370   8.001   8.389   2.444  0.4798 -0.7987  0.7455
 9317SOL     OW29371   2.593   3.943   2.778  0.4936 -0.0315  0.0787
 9317SOL    HW129372   2.502   3.924   2.757 -0.4031  2.6128  1.1159
 9317SOL    HW229373   2.639   3.940   2.694 -0.1813 -2.8806 -0.2649
 9318SOL     OW29374   5.442   6.498   8.598  0.5110  0.6230  0.3211
 9318SOL    HW129375   5.460   6.457   8.683  2.0130  1.5386  0.4887
 9318SOL    HW229376   5.382   6.438   8.554 -0.5970  0.2941  2.1623
 9319SOL     OW29377   7.607   4.084   3.991 -0.5552 -0.2879  0.2284
 9319SOL    HW129378   7.663   4.007   3.984 -0.6022 -0.3004 -0.0309
 9319SOL    HW229379   7.662   4.157   3.964 -0.1467 -0.0601  1.6396
 9320SOL     OW29380   6.741   0.587   5.703  0.2423 -0.2191  0.4629
 9320SOL    HW129381   6.687   0.540   5.640 -0.6828 -0.0594  1.1093
 9320SOL    HW229382   6.826   0.544   5.699  0.1137 -0.3974 -0.6684
 9321SOL     OW29383   5.563   7.461   2.781 -0.2488 -0.3647  0.5468
 9321SOL    HW129384   5.624   7.510   2.835  0.2733 -0.9413  0.4867
 9321SOL    HW229385   5.526   7.395   2.840 -0.7970 -0.0417  0.5753
 9322SOL     OW29386   0.551   3.688   6.207 -0.3814  0.0891  0.3171
 9322SOL    HW129387   0.555   3.592   6.211 -0.3027  0.0259 -0.8306
 9322SOL    HW229388   0.587   3.709   6.121 -0.0844  1.1798  0.6980
 9323SOL     OW29389   1.088   0.553   4.230 -0.2253 -0.4455 -0.9940
 9323SOL    HW129390   1.014   0.493   4.233  0.1001 -0.8203 -0.1585
 9323SOL    HW229391   1.062   0.626   4.288  0.1651 -0.7189 -0.4627
 9324SOL     OW29392   2.417   8.781   7.469 -0.0156 -0.2049  0.5638
 9324SOL    HW129393   2.494   8.729   7.446  1.0359  1.5301 -0.0053
 9324SOL    HW229394   2.343   8.725   7.447  1.0625 -1.4569 -0.0112
 9325SOL     OW29395   5.415   1.033   0.438 -0.9374 -0.4202 -0.0132
 9325SOL    HW129396   5.484   1.006   0.499 -0.0850  1.4268 -0.0776
 9325SOL    HW229397   5.414   1.129   0.445 -2.0299 -0.2797 -1.6215
 9326SOL     OW29398   4.036   4.561   7.157  0.1003 -0.1908  0.0046
 9326SOL    HW129399   4.086   4.603   7.226  1.0682  0.0589 -0.8318
 9326SOL    HW229400   3.969   4.625   7.133  0.1564 -0.0333  0.2676
 9327SOL     OW29401   1.457   2.263   8.318  0.1120  0.6428 -0.2919
 9327SOL    HW129402   1.510   2.277   8.397 -0.3792 -0.3768  0.2463
 9327SOL    HW229403   1.415   2.178   8.333  0.6311  0.0506 -2.0182
 9328SOL     OW29404   2.489   3.776   1.235  0.4758  0.4735 -0.5316
 9328SOL    HW129405   2.458   3.843   1.173  0.0823  1.1821  0.4013
 9328SOL    HW229406   2.518   3.704   1.180 -0.4249  0.8429 -1.5241
 9329SOL     OW29407   2.080   1.653   9.119 -0.1270  0.2399  0.3378
 9329SOL    HW129408   2.150   1.716   9.102  1.2740 -1.3080  0.1401
 9329SOL    HW229409   2.022   1.698   9.181  1.1847  1.4672  0.7334
 9330SOL     OW29410   2.370   2.685   3.212 -0.0996 -0.3724 -0.1472
 9330SOL    HW129411   2.322   2.648   3.137  1.2937 -0.0198 -1.2658
 9330SOL    HW229412   2.337   2.637   3.288  1.0605 -3.4504 -1.4221
 9331SOL     OW29413   9.046   1.361   0.393  0.0534 -0.2619 -0.4121
 9331SOL    HW129414   9.103   1.334   0.321  0.0095 -1.0156 -0.1660
 9331SOL    HW229415   9.083   1.319   0.470  0.5590  1.1577  0.1526
 9332SOL     OW29416   6.285   1.299   4.920  0.4250  0.7574 -0.1950
 9332SOL    HW129417   6.284   1.348   4.838 -0.0420 -0.3813 -0.8928
 9332SOL    HW229418   6.326   1.216   4.898 -1.1764 -0.2107  0.3101
 9333SOL     OW29419   2.432   5.102   5.695 -0.7572 -0.0493  0.2364
 9333SOL    HW129420   2.342   5.134   5.692 -0.6839  0.0963 -1.5224
 9333SOL    HW229421   2.477   5.160   5.756 -1.0247  2.1937 -1.5837
 9334SOL     OW29422   0.510   5.645   4.988  0.2578 -0.5668 -0.1291
 9334SOL    HW129423   0.506   5.624   5.081 -1.4395  0.3030  0.0447
 9334SOL    HW229424   0.603   5.653   4.968  0.6557 -1.2458  1.3723
 9335SOL     OW29425   1.272   3.320   1.335 -0.2969 -0.1951  0.1987
 9335SOL    HW129426   1.280   3.338   1.241  1.2210  0.5980  0.4483
 9335SOL    HW229427   1.183   3.286   1.345 -0.7913  0.5254 -1.3882
 9336SOL     OW29428   0.205   8.460   5.242 -0.2252  0.0392  0.2415
 9336SOL    HW129429   0.183   8.533   5.300  0.3309 -0.8683  1.6266
 9336SOL    HW229430   0.261   8.500   5.175 -1.5829  1.2743 -0.2375
 9337SOL     OW29431   5.049   7.351   0.482  0.1909 -0.2778  0.2336
 9337SOL    HW129432   5.127   7.406   0.476  0.4345 -0.4698  1.3330
 9337SOL    HW229433   4.981   7.408   0.516 -1.1998  0.8405 -3.8738
 9338SOL     OW29434   3.570   7.419   8.205 -0.2406 -0.1339  0.0449
 9338SOL    HW129435   3.540   7.375   8.126  0.9800  0.0702 -0.5714
 9338SOL    HW229436   3.504   7.486   8.222 -0.1558  0.3027 -1.2460
 9339SOL     OW29437   1.055   1.878   3.773  0.4305 -0.2746 -0.0021
 9339SOL    HW129438   0.987   1.861   3.838  0.4451 -2.9767 -0.5764
 9339SOL    HW229439   1.018   1.944   3.715 -0.2628  0.8936  1.6822
 9340SOL     OW29440   1.249   5.479   4.920 -0.1016 -0.2469 -0.1237
 9340SOL    HW129441   1.182   5.532   4.964 -0.6225 -0.9692 -0.0147
 9340SOL    HW229442   1.200   5.432   4.852  0.6033  0.4687 -1.1445
 9341SOL     OW29443   3.221   4.576   7.621  0.3746 -0.0593 -0.4374
 9341SOL    HW129444   3.217   4.499   7.678 -1.5119  0.0478 -0.3526
 9341SOL    HW229445   3.314   4.593   7.610  0.8145 -1.6446  0.5003
 9342SOL     OW29446   1.048   0.234   4.194 -0.3578 -0.0176  0.2691
 9342SOL    HW129447   1.061   0.139   4.198 -1.0754 -0.1495 -0.2553
 9342SOL    HW229448   1.106   0.269   4.261  0.9158 -0.7281 -0.4278
 9343SOL     OW29449   6.486   0.266   1.076 -0.0251 -0.1281  0.3997
 9343SOL    HW129450   6.434   0.234   1.150 -0.5807 -0.0740  0.0438
 9343SOL    HW229451   6.559   0.314   1.116  0.4847 -1.3210  0.9188
 9344SOL     OW29452   7.481   8.226   7.067  0.6728 -0.0255 -0.3020
 9344SOL    HW129453   7.445   8.311   7.041 -1.0955 -0.8649 -0.7396
 9344SOL    HW229454   7.421   8.194   7.134  0.3544 -1.6667 -1.3293
 9345SOL     OW29455   0.169   0.488   5.619 -0.1172 -0.2246 -0.1670
 9345SOL    HW129456   0.144   0.478   5.710  1.5771 -0.2967  0.3208
 9345SOL    HW229457   0.114   0.425   5.572 -1.1650 -0.0213  0.7557
 9346SOL     OW29458   1.102   8.368   8.494  0.3738  0.2457  0.3208
 9346SOL    HW129459   1.046   8.354   8.418  1.9040  0.9536 -1.0073
 9346SOL    HW229460   1.053   8.429   8.549 -0.9396 -0.6080  0.1412
 9347SOL     OW29461   6.155   2.643   9.209  0.5241  0.8148  0.0036
 9347SOL    HW129462   6.065   2.673   9.201  0.0328 -0.7400 -0.5477
 9347SOL    HW229463   6.188   2.687   9.288 -1.1589  0.2994  1.0416
 9348SOL     OW29464   5.078   6.318   6.539  0.1078 -0.2715  0.0458
 9348SOL    HW129465   5.099   6.248   6.601  1.5864  1.5956  1.7762
 9348SOL    HW229466   5.101   6.282   6.453  3.8897 -0.8966  1.1671
 9349SOL     OW29467   6.545   4.542   7.847  0.2671 -0.2592  0.5385
 9349SOL    HW129468   6.623   4.512   7.802 -1.5951 -1.4511 -2.1675
 9349SOL    HW229469   6.494   4.463   7.863 -1.3479  0.6500  0.1926
 9350SOL     OW29470   8.754   0.353   5.762 -0.7503 -0.4603 -0.2110
 9350SOL    HW129471   8.816   0.401   5.706 -2.1732 -0.6775 -2.0731
 9350SOL    HW229472   8.783   0.262   5.757 -1.2930 -0.5927 -1.2480
 9351SOL     OW29473   8.582   9.089   8.740 -0.0212 -0.4694 -0.0918
 9351SOL    HW129474   8.552   9.001   8.765 -1.6673 -0.1261 -0.7419
 9351SOL    HW229475   8.550   9.145   8.811  1.3891 -0.4173  0.5363
 9352SOL     OW29476   1.589   0.195   7.152 -0.1529 -0.2330 -0.1597
 9352SOL    HW129477   1.589   0.180   7.058 -0.8204 -1.2045 -0.0138
 9352SOL    HW229478   1.682   0.188   7.177  0.1128  0.6683 -0.8204
 9353SOL     OW29479   7.160   9.163   4.332 -0.2754  0.2711 -0.1092
 9353SOL    HW129480   7.148   9.203   4.418  0.4692  0.7793 -0.2301
 9353SOL    HW229481   7.247   9.123   4.337 -0.7535 -0.8241 -0.2005
 9354SOL     OW29482   5.170   1.114   8.482 -0.1220 -0.0215  0.0081
 9354SOL    HW129483   5.139   1.184   8.540 -1.0262  0.1891 -0.7152
 9354SOL    HW229484   5.242   1.073   8.531  1.4742  2.3670 -0.2005
 9355SOL     OW29485   2.825   9.010   1.905 -0.3704  0.1471  0.0437
 9355SOL    HW129486   2.872   9.092   1.917 -0.6749  0.3879 -0.3992
 9355SOL    HW229487   2.799   9.010   1.813 -0.4546 -0.4009  0.0608
 9356SOL     OW29488   8.140   1.605   1.314 -0.2481 -0.0156  0.3298
 9356SOL    HW129489   8.061   1.633   1.360 -0.9878 -1.2972 -0.1060
 9356SOL    HW229490   8.176   1.535   1.367  0.6346  0.5760  0.5362
 9357SOL     OW29491   3.615   4.066   1.242 -0.2202  0.2528  0.3406
 9357SOL    HW129492   3.690   4.122   1.262 -0.5750  0.9223 -0.1561
 9357SOL    HW229493   3.635   3.983   1.285  0.4801  0.6458  0.7984
 9358SOL     OW29494   5.411   7.317   7.393  0.2208  0.0355  0.2589
 9358SOL    HW129495   5.320   7.347   7.399  0.2666  0.5719 -1.3784
 9358SOL    HW229496   5.453   7.353   7.471 -0.2149  2.5450 -0.5859
 9359SOL     OW29497   0.779   3.826   3.326 -0.1895 -0.0591 -0.5386
 9359SOL    HW129498   0.790   3.910   3.370 -0.4341 -0.3242  0.0335
 9359SOL    HW229499   0.705   3.839   3.266 -0.4341  0.0374 -0.2153
 9360SOL     OW29500   7.033   0.888   2.388  0.0668 -0.6998 -0.2061
 9360SOL    HW129501   7.086   0.924   2.459 -0.0034 -0.8828 -0.0604
 9360SOL    HW229502   7.084   0.905   2.309 -0.9389  1.7102 -0.4328
 9361SOL     OW29503   2.891   1.001   5.187 -0.2997  0.4181 -0.3625
 9361SOL    HW129504   2.937   1.019   5.105 -0.9550  0.7543 -0.6674
 9361SOL    HW229505   2.940   0.930   5.227  0.0339  0.2567 -1.0405
 9362SOL     OW29506   3.823   7.103   4.462  0.0573 -0.2765 -0.5377
 9362SOL    HW129507   3.868   7.188   4.458  0.8769 -0.5376  1.8655
 9362SOL    HW229508   3.855   7.056   4.384 -1.1405  1.8840 -2.4592
 9363SOL     OW29509   0.821   8.011   7.312 -0.1061  0.5730 -0.1299
 9363SOL    HW129510   0.854   7.936   7.263  1.5992  1.5875 -0.6202
 9363SOL    HW229511   0.748   8.044   7.259 -1.3630 -1.1133  0.4569
 9364SOL     OW29512   1.781   4.748   5.452  0.3634 -0.5007  0.1409
 9364SOL    HW129513   1.742   4.831   5.424  1.2327  0.2200  1.0089
 9364SOL    HW229514   1.870   4.751   5.418  0.4332 -1.0475  0.2647
 9365SOL     OW29515   5.144   8.885   1.578  0.6474  0.0980 -0.7477
 9365SOL    HW129516   5.219   8.829   1.560  0.1502 -0.2811 -1.7257
 9365SOL    HW229517   5.090   8.835   1.639 -0.9888 -1.6515 -3.3926
 9366SOL     OW29518   5.070   8.616   8.836  0.2046  0.3441  0.1093
 9366SOL    HW129519   5.126   8.690   8.861  0.5979 -0.5742  2.1134
 9366SOL    HW229520   5.076   8.555   8.909 -2.6530 -0.2659 -0.0378
 9367SOL     OW29521   6.817   2.838   4.792 -0.1654  0.2321 -0.7967
 9367SOL    HW129522   6.839   2.931   4.800  0.3509 -0.0135  0.9347
 9367SOL    HW229523   6.724   2.833   4.815  0.4495  0.0118  1.9159
 9368SOL     OW29524   3.704   3.666   7.404  0.3474 -0.3855  0.0472
 9368SOL    HW129525   3.746   3.681   7.319 -0.3012  2.1797  0.0980
 9368SOL    HW229526   3.659   3.583   7.394 -0.1566  0.1082 -2.3270
 9369SOL     OW29527   1.975   8.693   2.101  0.5816  0.4010 -0.0731
 9369SOL    HW129528   2.009   8.608   2.073 -2.1214 -0.3639 -1.2986
 9369SOL    HW229529   1.960   8.682   2.195  0.3620 -0.4391 -0.1938
 9370SOL     OW29530   6.954   5.496   1.270 -0.3408 -0.1744 -0.0443
 9370SOL    HW129531   6.970   5.445   1.190  0.0013  0.9638 -0.7241
 9370SOL    HW229532   7.038   5.496   1.316 -0.6212 -1.1046  0.5055
 9371SOL     OW29533   3.037   7.803   0.648  0.0189  0.1570  0.2164
 9371SOL    HW129534   3.022   7.715   0.612  1.1515  0.3738 -0.8914
 9371SOL    HW229535   3.117   7.793   0.700 -0.4498  0.3128  0.9785
 9372SOL     OW29536   1.007   3.454   4.760  0.2081 -0.0147  0.1955
 9372SOL    HW129537   1.061   3.415   4.830 -0.7700  0.9078  1.5088
 9372SOL    HW229538   1.069   3.506   4.709  0.9186 -0.5772  0.4543
 9373SOL     OW29539   1.612   2.869   6.962  0.2171 -0.2335 -0.3550
 9373SOL    HW129540   1.569   2.848   6.879  0.0933  0.4199 -0.4610
 9373SOL    HW229541   1.678   2.800   6.972 -1.2053 -1.5705  0.0949
 9374SOL     OW29542   8.271   4.644   7.517  0.0148 -0.3172  0.2097
 9374SOL    HW129543   8.191   4.616   7.473 -0.2766  2.6081 -1.3549
 9374SOL    HW229544   8.335   4.655   7.447  1.0811 -0.3405  1.1568
 9375SOL     OW29545   2.927   1.005   4.314 -0.5575 -0.3589  0.5222
 9375SOL    HW129546   2.900   1.051   4.235 -2.0206 -0.9131  0.6593
 9375SOL    HW229547   2.935   0.913   4.288  1.2045 -0.2246  0.5118
 9376SOL     OW29548   7.033   6.951   7.671  0.1044  0.1198  0.1372
 9376SOL    HW129549   6.945   6.987   7.668 -0.2025 -0.6516 -0.3870
 9376SOL    HW229550   7.081   7.000   7.604 -0.4126 -0.6721 -0.8428
 9377SOL     OW29551   7.741   5.886   0.542  0.7700 -0.1070 -0.0811
 9377SOL    HW129552   7.695   5.803   0.533 -1.8406  1.1241  1.1187
 9377SOL    HW229553   7.780   5.883   0.629 -0.6882  0.5248  0.6157
 9378SOL     OW29554   5.567   4.795   1.924 -0.1032 -0.3659  0.6050
 9378SOL    HW129555   5.562   4.788   2.019  0.2833  0.1405  0.6707
 9378SOL    HW229556   5.659   4.813   1.906 -0.0673 -1.0163  0.0894
 9379SOL     OW29557   6.055   4.482   7.852 -0.1170  0.7969  0.0140
 9379SOL    HW129558   6.050   4.449   7.941 -1.8093 -0.6257 -0.5508
 9379SOL    HW229559   6.055   4.403   7.797 -3.1338  1.6125 -1.3548
 9380SOL     OW29560   0.088   7.549   6.151  0.3078 -0.0460  0.0278
 9380SOL    HW129561   0.003   7.592   6.137 -0.0477 -0.9787 -0.8228
 9380SOL    HW229562   0.150   7.603   6.102 -0.2497 -0.8442 -1.6633
 9381SOL     OW29563   3.359   1.044   8.676  0.3050  0.4263 -0.0445
 9381SOL    HW129564   3.430   0.980   8.665  0.6184  0.8310 -0.4479
 9381SOL    HW229565   3.370   1.104   8.602 -1.3994 -0.3692 -1.0115
 9382SOL     OW29566   3.207   8.156   4.230 -0.3471  0.0676 -0.4273
 9382SOL    HW129567   3.154   8.119   4.160  0.1354  1.3912 -1.5413
 9382SOL    HW229568   3.223   8.247   4.203  0.5125  0.3838  1.0159
 9383SOL     OW29569   5.220   3.059   4.305 -0.2509  0.0539 -0.3940
 9383SOL    HW129570   5.279   3.096   4.370  0.5328 -0.3438 -0.8699
 9383SOL    HW229571   5.211   2.967   4.329 -0.8210  0.1489 -0.2247
 9384SOL     OW29572   1.797   8.508   8.558  0.3072 -0.4791 -0.1164
 9384SOL    HW129573   1.829   8.438   8.500 -0.4066 -0.8507 -0.0630
 9384SOL    HW229574   1.773   8.463   8.638 -1.2300 -0.3403 -0.4806
 9385SOL     OW29575   4.211   6.586   9.086 -0.1805 -0.3283  0.7164
 9385SOL    HW129576   4.229   6.680   9.085  0.1977 -0.4016 -0.1550
 9385SOL    HW229577   4.233   6.556   8.998 -1.0685 -1.0971  0.7452
 9386SOL     OW29578   5.386   1.479   3.592 -0.1824  0.4913  0.3070
 9386SOL    HW129579   5.358   1.449   3.679 -1.5709  0.5055 -0.1231
 9386SOL    HW229580   5.380   1.401   3.537  1.0625  0.3898  0.2788
 9387SOL     OW29581   7.001   5.191   3.639  0.2567  0.4443 -0.2916
 9387SOL    HW129582   6.966   5.112   3.599 -0.3968  1.0309 -0.8942
 9387SOL    HW229583   7.014   5.252   3.566  3.0683  0.0947 -0.2101
 9388SOL     OW29584   6.374   0.005   5.164 -0.9060 -0.1484  0.2761
 9388SOL    HW129585   6.339   0.037   5.247  1.2446 -0.3954  1.3536
 9388SOL    HW229586   6.357   0.076   5.102 -2.6064  0.0106  0.8757
 9389SOL     OW29587   3.477   6.974   0.876 -0.3282 -0.3277  0.0957
 9389SOL    HW129588   3.552   6.946   0.929 -0.0506 -0.9015 -0.5886
 9389SOL    HW229589   3.402   6.928   0.915 -0.1122 -0.8145 -0.0593
 9390SOL     OW29590   1.655   7.080   2.709  0.3033 -0.3014  0.0140
 9390SOL    HW129591   1.617   7.137   2.776  1.6972 -0.0425  0.6264
 9390SOL    HW229592   1.601   7.094   2.632 -1.4271 -0.6928  1.0967
 9391SOL     OW29593   3.249   7.171   0.998  0.2022 -0.3140 -0.0427
 9391SOL    HW129594   3.255   7.242   1.062 -1.4738 -0.1232 -0.0424
 9391SOL    HW229595   3.288   7.207   0.918  0.2923  0.2429  0.2500
 9392SOL     OW29596   4.171   1.566   4.463 -0.0530 -0.3886  0.0333
 9392SOL    HW129597   4.256   1.541   4.499  0.3628  0.5446 -0.2911
 9392SOL    HW229598   4.110   1.551   4.536 -0.0874 -3.5849 -0.5043
 9393SOL     OW29599   6.558   6.871   1.907  0.4031 -0.0833  0.2468
 9393SOL    HW129600   6.541   6.899   1.817 -1.8617  0.6951  0.8619
 9393SOL    HW229601   6.483   6.817   1.930 -1.4389  3.3367  3.1044
 9394SOL     OW29602   2.209   2.153   9.249  0.6161 -0.3689 -0.3219
 9394SOL    HW129603   2.140   2.186   9.191 -0.5586  0.2493  1.3646
 9394SOL    HW229604   2.282   2.134   9.190  0.0001  1.6203 -1.8520
 9395SOL     OW29605   1.391   6.044   3.647 -0.1620  0.0226  0.2537
 9395SOL    HW129606   1.409   6.064   3.555 -0.1247 -1.4053 -0.0672
 9395SOL    HW229607   1.309   6.090   3.666 -0.6145 -0.3539 -0.7445
 9396SOL     OW29608   2.603   4.642   2.404 -0.4714  0.1731  0.2392
 9396SOL    HW129609   2.674   4.627   2.466 -0.8921 -0.7633  0.5142
 9396SOL    HW229610   2.544   4.702   2.449 -0.9870 -0.8304  0.9339
 9397SOL     OW29611   6.423   8.700   1.338 -0.1267 -0.2452  0.0011
 9397SOL    HW129612   6.461   8.656   1.413  0.5722  0.4240  0.0593
 9397SOL    HW229613   6.395   8.785   1.371  2.5916  1.1540 -0.9764
 9398SOL     OW29614   5.781   8.640   5.957 -0.3458  0.6063  0.5749
 9398SOL    HW129615   5.811   8.579   6.024  0.9945  1.6068  0.9108
 9398SOL    HW229616   5.855   8.697   5.941 -0.5923  0.3611 -1.8408
 9399SOL     OW29617   1.306   7.472   7.014 -0.1954  0.3134 -0.0119
 9399SOL    HW129618   1.353   7.499   7.093 -1.1493  0.1437  0.6226
 9399SOL    HW229619   1.214   7.475   7.039 -0.4373 -1.2002 -0.6628
 9400SOL     OW29620   4.002   2.020   3.163 -0.4949 -0.0011  0.2673
 9400SOL    HW129621   3.936   2.088   3.170 -0.1406  0.1480  3.2789
 9400SOL    HW229622   4.085   2.067   3.162 -0.3189 -0.3119  0.0179
 9401SOL     OW29623   4.236   7.715   4.594 -0.5545 -0.1120 -0.1075
 9401SOL    HW129624   4.184   7.638   4.616 -0.9761  0.4521  0.9086
 9401SOL    HW229625   4.310   7.712   4.654 -0.3500  0.0582 -0.3470
 9402SOL     OW29626   3.811   3.047   4.673 -0.2047 -0.0243 -0.0452
 9402SOL    HW129627   3.898   3.016   4.648 -0.0530  0.8237 -0.5903
 9402SOL    HW229628   3.751   2.979   4.643  0.3156 -0.9718  0.9886
 9403SOL     OW29629   4.236   1.652   0.105  0.3020 -0.4886  0.1732
 9403SOL    HW129630   4.178   1.597   0.052  1.1576 -1.4828  0.2473
 9403SOL    HW229631   4.219   1.741   0.074 -0.2979 -0.9020 -0.7302
 9404SOL     OW29632   0.937   6.701   8.144 -0.0161  0.0588 -0.0020
 9404SOL    HW129633   0.848   6.709   8.110 -0.5895 -1.4943  0.9999
 9404SOL    HW229634   0.948   6.778   8.200 -1.0582 -0.1593  0.5378
 9405SOL     OW29635   6.223   9.200   5.890 -0.1712 -0.2644  0.1488
 9405SOL    HW129636   6.248   9.201   5.798  0.4020  1.6447  0.2778
 9405SOL    HW229637   6.255   9.116   5.924  1.6794 -0.0081 -0.8572
 9406SOL     OW29638   0.668   0.468   5.582  0.1967 -0.4539  0.7169
 9406SOL    HW129639   0.731   0.513   5.638  0.4624 -0.7878  0.6882
 9406SOL    HW229640   0.586   0.516   5.596  0.4546 -0.0129  0.7459
 9407SOL     OW29641   3.703   0.300   0.552 -0.8143 -0.1058  0.3253
 9407SOL    HW129642   3.749   0.216   0.562  1.0334  0.7931 -0.0605
 9407SOL    HW229643   3.613   0.276   0.531  0.1410 -2.0516 -2.0572
 9408SOL     OW29644   7.214   1.198   3.843 -0.0547 -0.3811 -0.4812
 9408SOL    HW129645   7.178   1.121   3.798 -1.0292  0.0473 -0.4724
 9408SOL    HW229646   7.247   1.164   3.926  0.9934 -1.0464 -1.1520
 9409SOL     OW29647   5.713   8.663   6.657 -0.0869  0.3606  0.2891
 9409SOL    HW129648   5.651   8.642   6.587 -1.2009  0.8404  1.1087
 9409SOL    HW229649   5.796   8.678   6.611 -0.6850  0.2372 -0.8831
 9410SOL     OW29650   9.089   8.847   5.143 -0.3151  0.7739 -0.2942
 9410SOL    HW129651   9.137   8.821   5.065 -0.4664 -1.0207  0.1579
 9410SOL    HW229652   9.155   8.884   5.201  0.2932 -0.3101 -0.2592
 9411SOL     OW29653   3.052   6.588   2.636  0.0530 -0.5539 -0.7748
 9411SOL    HW129654   2.959   6.572   2.620  0.1482 -2.5504  0.3356
 9411SOL    HW229655   3.094   6.504   2.617  1.8824  0.7138 -2.7251
 9412SOL     OW29656   5.729   2.366   6.531 -0.1587  0.1833 -0.5228
 9412SOL    HW129657   5.811   2.322   6.552  0.0604  1.2589  1.0190
 9412SOL    HW229658   5.661   2.311   6.569  0.0562  0.6536  0.5959
 9413SOL     OW29659   0.615   2.445   2.068  0.4858  0.0011  0.3535
 9413SOL    HW129660   0.613   2.539   2.050  0.1771 -0.0133  0.3222
 9413SOL    HW229661   0.704   2.419   2.044  0.1296  0.0064 -1.0683
 9414SOL     OW29662   8.817   2.809   7.351  0.2987 -0.3792  0.0416
 9414SOL    HW129663   8.735   2.787   7.396  0.2779 -0.0080  0.1930
 9414SOL    HW229664   8.796   2.886   7.299  1.1724  1.3712  2.0992
 9415SOL     OW29665   7.153   7.619   1.681 -0.3803  0.2133  0.2074
 9415SOL    HW129666   7.058   7.636   1.679 -0.5899 -0.9425 -0.9821
 9415SOL    HW229667   7.192   7.699   1.646 -0.9999  0.3109 -0.2967
 9416SOL     OW29668   3.153   9.183   2.090  0.1907  0.4251  0.1261
 9416SOL    HW129669   3.072   9.189   2.141 -1.9516 -1.7477 -2.6764
 9416SOL    HW229670   3.204   9.115   2.135 -2.1217 -2.2406 -0.9536
 9417SOL     OW29671   4.877   2.371   6.628 -0.5651  0.4513 -0.2528
 9417SOL    HW129672   4.906   2.293   6.675 -0.3605  1.4465  1.3631
 9417SOL    HW229673   4.928   2.372   6.547  0.7484 -0.1439  0.5370
 9418SOL     OW29674   0.071   3.134   2.258  0.9176 -0.0732 -0.5434
 9418SOL    HW129675   0.124   3.063   2.222  3.8806  1.3064  0.7985
 9418SOL    HW229676   0.037   3.180   2.181  0.6781 -1.6571 -1.4337
 9419SOL     OW29677   7.761   5.941   4.651 -0.0573  0.2368 -0.4293
 9419SOL    HW129678   7.802   5.854   4.648 -1.6939 -0.5672 -0.4163
 9419SOL    HW229679   7.748   5.958   4.744 -0.3661  0.1813 -0.4613
 9420SOL     OW29680   8.331   4.237   0.650  0.1512 -0.1819  0.0628
 9420SOL    HW129681   8.355   4.316   0.699  0.8904 -0.2372 -0.1959
 9420SOL    HW229682   8.273   4.269   0.581 -0.1479  0.0288  0.4095
 9421SOL     OW29683   2.183   8.554   5.258  0.1886 -0.8728 -0.0829
 9421SOL    HW129684   2.265   8.554   5.307 -0.0105  1.8578  0.4409
 9421SOL    HW229685   2.209   8.552   5.166  0.7194 -2.0825  0.0783
 9422SOL     OW29686   1.231   7.325   7.583 -0.2435 -0.1188 -0.2799
 9422SOL    HW129687   1.308   7.273   7.608  0.1231  1.3701  1.9943
 9422SOL    HW229688   1.157   7.266   7.597  0.3026 -0.7588  0.0020
 9423SOL     OW29689   6.868   4.080   3.662 -0.2370 -0.3703  0.2179
 9423SOL    HW129690   6.868   3.987   3.683  1.5974 -0.4516  0.0520
 9423SOL    HW229691   6.911   4.121   3.737  1.6110 -0.0456 -0.9540
 9424SOL     OW29692   0.592   3.610   8.666 -0.1889  0.5696 -0.2813
 9424SOL    HW129693   0.666   3.558   8.637  1.2754  1.0707  2.2586
 9424SOL    HW229694   0.540   3.625   8.587  0.6716 -2.5097 -1.5482
 9425SOL     OW29695   5.848   4.820   2.307 -0.3818  0.1754  0.7025
 9425SOL    HW129696   5.777   4.778   2.258  0.5077 -1.1537  0.5002
 9425SOL    HW229697   5.806   4.894   2.351 -1.4601  0.6793 -1.0833
 9426SOL     OW29698   8.924   0.444   1.139 -1.2047  0.3241 -0.3640
 9426SOL    HW129699   8.905   0.444   1.045  0.6461 -3.7756 -0.9373
 9426SOL    HW229700   9.002   0.499   1.147 -1.0827  0.3193 -1.3241
 9427SOL     OW29701   5.847   3.700   7.330  0.1143 -0.0650  0.4977
 9427SOL    HW129702   5.907   3.627   7.345 -1.2231 -0.8514  2.2723
 9427SOL    HW229703   5.760   3.663   7.343 -0.6252  1.7173  0.8588
 9428SOL     OW29704   2.382   3.177   2.990 -0.2177  0.3361  0.5619
 9428SOL    HW129705   2.465   3.160   2.945  0.3391  0.3388  1.5474
 9428SOL    HW229706   2.361   3.095   3.034 -0.5785  0.4288  0.5635
 9429SOL     OW29707   4.798   1.557   4.679  0.1279  0.0622  0.0923
 9429SOL    HW129708   4.893   1.568   4.673  0.3574 -0.1832  2.3648
 9429SOL    HW229709   4.768   1.557   4.588  2.5876 -2.4408 -0.8683
 9430SOL     OW29710   4.584   3.827   5.505 -0.0801  0.4462  0.1216
 9430SOL    HW129711   4.571   3.818   5.410  0.2376 -1.2502  0.2040
 9430SOL    HW229712   4.573   3.738   5.539  0.7790  0.8603  1.5506
 9431SOL     OW29713   5.917   3.352   4.730  0.3400  0.0600 -0.4983
 9431SOL    HW129714   5.875   3.391   4.807 -0.4832 -0.2644 -0.7658
 9431SOL    HW229715   5.994   3.307   4.765 -0.3525 -0.6038  0.2344
 9432SOL     OW29716   6.892   7.174   5.480  0.5057 -0.4140 -0.1911
 9432SOL    HW129717   6.969   7.152   5.427  0.8257 -0.7681  0.4092
 9432SOL    HW229718   6.928   7.202   5.564 -0.0386 -1.0886  0.2738
 9433SOL     OW29719   9.142   8.382   4.655  0.1448 -0.0064 -0.0385
 9433SOL    HW129720   9.074   8.427   4.606 -0.6230 -0.4173  0.6289
 9433SOL    HW229721   9.151   8.434   4.735 -1.4729 -1.5270  1.2237
 9434SOL     OW29722   2.277   0.653   8.930 -0.0392 -0.2646  0.0310
 9434SOL    HW129723   2.310   0.580   8.877  0.5695  0.4877 -0.6433
 9434SOL    HW229724   2.328   0.728   8.902 -2.9870  1.2298 -1.8404
 9435SOL     OW29725   7.554   1.781   8.260 -0.4619 -0.2963  0.2410
 9435SOL    HW129726   7.588   1.833   8.333 -0.9897 -0.1921  0.4100
 9435SOL    HW229727   7.631   1.766   8.204 -0.5115  1.6532 -0.4259
 9436SOL     OW29728   8.111   3.244   7.852 -0.0488 -0.0490 -0.0615
 9436SOL    HW129729   8.173   3.278   7.788  0.1351 -0.6218 -0.1976
 9436SOL    HW229730   8.042   3.202   7.801  0.0965 -0.5058  0.1071
 9437SOL     OW29731   6.000   8.164   2.252 -0.3479 -0.0258  0.3024
 9437SOL    HW129732   6.086   8.133   2.280 -0.1719  0.1070 -0.0865
 9437SOL    HW229733   5.950   8.084   2.232 -0.1510 -0.0853  0.0493
 9438SOL     OW29734   5.973   8.902   0.213  0.5158  0.0266 -0.4981
 9438SOL    HW129735   5.984   8.953   0.132  0.2998  0.3459 -0.3259
 9438SOL    HW229736   5.879   8.889   0.221  0.6433 -1.8320 -1.4228
 9439SOL     OW29737   6.335   0.203   1.328  0.0368 -0.3382 -0.2051
 9439SOL    HW129738   6.377   0.146   1.392 -1.1677 -1.6311 -0.5059
 9439SOL    HW229739   6.263   0.245   1.375  1.8237  2.2677  0.4490
 9440SOL     OW29740   6.113   2.527   3.238  0.4757  0.1542 -0.0849
 9440SOL    HW129741   6.092   2.590   3.169  1.4154  1.2323  0.5816
 9440SOL    HW229742   6.208   2.530   3.246  0.5966 -1.6934 -0.3254
 9441SOL     OW29743   0.570   4.456   4.602 -0.2783 -0.1696  0.1268
 9441SOL    HW129744   0.615   4.533   4.635 -1.0908 -0.0560  1.0113
 9441SOL    HW229745   0.607   4.442   4.515  0.1088  1.0171  0.0840
 9442SOL     OW29746   0.638   6.060   0.430  0.0360  0.1687 -0.0095
 9442SOL    HW129747   0.603   6.148   0.441 -1.2119 -0.3617  0.4666
 9442SOL    HW229748   0.605   6.031   0.345  0.3368  0.1111 -0.1088
 9443SOL     OW29749   8.871   1.380   6.721 -0.7700 -0.9895  0.2396
 9443SOL    HW129750   8.785   1.389   6.678 -0.7068 -1.4076  0.0238
 9443SOL    HW229751   8.915   1.311   6.671  1.5130  2.2297 -2.6962
 9444SOL     OW29752   1.908   8.759   3.858  0.0520  0.2619  0.1327
 9444SOL    HW129753   1.928   8.849   3.832  0.7653 -0.0011 -0.2261
 9444SOL    HW229754   1.857   8.723   3.786 -1.8528  0.9477  1.0670
 9445SOL     OW29755   6.023   5.602   0.767 -0.5384  0.2909 -0.3759
 9445SOL    HW129756   6.033   5.518   0.814 -2.3442  0.6936  0.8045
 9445SOL    HW229757   5.992   5.577   0.680  0.4401 -0.3345 -0.5626
 9446SOL     OW29758   0.602   5.054   3.949  0.0764 -0.0194 -0.0408
 9446SOL    HW129759   0.598   5.100   4.033  0.4250  1.1618 -0.6339
 9446SOL    HW229760   0.587   5.123   3.884  1.1629 -0.6495 -0.9979
 9447SOL     OW29761   2.180   5.462   8.630  0.6029  1.1347  0.2177
 9447SOL    HW129762   2.149   5.481   8.719 -0.7833 -1.7037  0.4427
 9447SOL    HW229763   2.202   5.369   8.632 -1.1450  0.5278 -2.8322
 9448SOL     OW29764   5.536   1.773   0.437  0.3510  0.1546  0.5952
 9448SOL    HW129765   5.453   1.809   0.406  1.2842  1.7936 -0.0884
 9448SOL    HW229766   5.514   1.684   0.465 -1.2760 -0.1200 -1.3225
 9449SOL     OW29767   7.790   4.490   5.358  0.0085 -0.0653  0.3604
 9449SOL    HW129768   7.779   4.456   5.270 -1.1914  0.4663  0.2861
 9449SOL    HW229769   7.716   4.454   5.408  0.3368  0.1159  0.9963
 9450SOL     OW29770   3.745   2.249   5.326 -0.1624  0.1079  0.0762
 9450SOL    HW129771   3.669   2.307   5.334 -0.4160 -0.0392 -1.1315
 9450SOL    HW229772   3.819   2.303   5.357 -0.6245  0.5225  0.4852
 9451SOL     OW29773   9.177   4.828   5.526  0.1474 -0.4345  0.1325
 9451SOL    HW129774   9.272   4.813   5.530  1.0092  3.1928 -2.1607
 9451SOL    HW229775   9.156   4.872   5.608  0.5663 -0.6484  0.3582
 9452SOL     OW29776   9.092   5.461   7.871  0.5156 -0.3628 -0.3212
 9452SOL    HW129777   9.049   5.387   7.830  0.3394  0.8834 -2.5710
 9452SOL    HW229778   9.024   5.503   7.923 -0.2610 -0.0649 -1.5263
 9453SOL     OW29779   5.366   3.297   6.820  0.4545  0.0505  0.1476
 9453SOL    HW129780   5.276   3.283   6.850  0.5340  0.6727  0.6920
 9453SOL    HW229781   5.363   3.380   6.773  0.7691  0.1168  0.2479
 9454SOL     OW29782   2.355   0.419   0.648  0.1986  0.5613 -0.4760
 9454SOL    HW129783   2.424   0.408   0.713 -0.5489  0.8154  0.3922
 9454SOL    HW229784   2.356   0.512   0.627 -0.5385  0.7656  0.3231
 9455SOL     OW29785   1.302   6.651   2.851 -0.0936 -0.4268  0.0462
 9455SOL    HW129786   1.355   6.728   2.871  0.0870 -0.8369  1.2543
 9455SOL    HW229787   1.255   6.674   2.771  0.4350  0.6904  0.0375
 9456SOL     OW29788   4.276   2.944   5.181 -0.9189 -0.0677  0.3263
 9456SOL    HW129789   4.267   2.882   5.254 -0.8512  0.0764  0.4561
 9456SOL    HW229790   4.228   3.022   5.209 -0.0672  0.3569  0.6294
 9457SOL     OW29791   4.344   4.027   4.734  0.1714  0.6168  0.7042
 9457SOL    HW129792   4.266   3.972   4.748  0.2123  0.6127  0.9095
 9457SOL    HW229793   4.356   4.027   4.639  1.0288 -0.9318  0.7809
 9458SOL     OW29794   2.458   8.680   2.569  0.1825  0.1229  0.0853
 9458SOL    HW129795   2.372   8.672   2.610 -0.7168  0.1689 -1.6606
 9458SOL    HW229796   2.518   8.633   2.627 -0.8063  1.0467  1.9126
 9459SOL     OW29797   6.146   3.783   8.123 -0.6732  0.1094 -0.2154
 9459SOL    HW129798   6.076   3.773   8.058 -0.6082  1.4560 -0.5147
 9459SOL    HW229799   6.224   3.748   8.081 -0.8323  0.0865 -0.4910
 9460SOL     OW29800   2.703   4.795   4.373  0.0949  0.3998 -0.2237
 9460SOL    HW129801   2.682   4.706   4.403 -0.7354  0.2232 -1.2775
 9460SOL    HW229802   2.799   4.799   4.378  0.0897 -0.1829  0.8237
 9461SOL     OW29803   5.561   1.663   1.580  0.0709 -0.3191 -0.0291
 9461SOL    HW129804   5.577   1.659   1.486 -2.7125 -1.9649 -0.5537
 9461SOL    HW229805   5.494   1.730   1.590 -1.2168 -1.6096  0.4307
 9462SOL     OW29806   5.056   2.927   3.503  0.1670 -0.2491  0.6522
 9462SOL    HW129807   5.048   2.851   3.560  0.2311 -0.1841  0.7487
 9462SOL    HW229808   5.009   2.903   3.423  1.2783 -0.8755  0.1744
 9463SOL     OW29809   1.646   1.983   5.581  0.1965  0.3087 -0.8156
 9463SOL    HW129810   1.714   2.050   5.590  0.4794 -0.0709  0.0470
 9463SOL    HW229811   1.695   1.900   5.576 -0.1687  0.1163 -1.3001
 9464SOL     OW29812   4.493   1.976   4.096  0.0649  0.3967  0.1693
 9464SOL    HW129813   4.475   1.976   4.190  0.7659  0.6157  0.3084
 9464SOL    HW229814   4.443   1.902   4.062 -0.1463  0.2794  0.7221
 9465SOL     OW29815   7.945   6.548   7.464  0.4878  0.2281  0.4310
 9465SOL    HW129816   7.921   6.508   7.547 -1.7046 -0.2937 -0.3906
 9465SOL    HW229817   7.969   6.475   7.407  0.4568  0.4299  0.1540
 9466SOL     OW29818   6.967   4.944   0.897 -0.4543  0.2422 -0.3099
 9466SOL    HW129819   7.047   4.972   0.941 -0.0484  0.8097 -1.3618
 9466SOL    HW229820   6.997   4.915   0.811 -1.1761 -1.1659 -0.1177
 9467SOL     OW29821   1.006   0.127   1.364  0.8607  0.0164  0.4779
 9467SOL    HW129822   0.926   0.083   1.335  0.2986  1.2756  0.0710
 9467SOL    HW229823   1.057   0.057   1.406 -0.1632 -0.9390  0.1961
 9468SOL     OW29824   3.191   4.011   2.532  0.4684  0.5436  0.1806
 9468SOL    HW129825   3.100   4.012   2.504 -0.2180 -1.8757  1.9701
 9468SOL    HW229826   3.232   3.944   2.476  0.4852 -0.2053  1.0654
 9469SOL     OW29827   5.841   2.768   6.517  0.1243 -0.2314 -0.6127
 9469SOL    HW129828   5.915   2.731   6.565 -1.0211  0.0547  1.5429
 9469SOL    HW229829   5.871   2.854   6.488 -0.0468  1.0326  2.5200
 9470SOL     OW29830   0.891   6.462   7.642 -0.1484 -0.8561 -0.0186
 9470SOL    HW129831   0.803   6.500   7.641  0.2752  0.3758  2.5031
 9470SOL    HW229832   0.937   6.510   7.710  2.1466 -2.2825 -0.4580
 9471SOL     OW29833   9.010   6.664   5.606  0.1223 -0.4348 -0.0511
 9471SOL    HW129834   8.972   6.752   5.614  1.0917  0.0937 -0.9323
 9471SOL    HW229835   8.942   6.612   5.563 -1.3380 -0.7595  2.4592
 9472SOL     OW29836   0.478   6.792   5.314 -0.0484  0.0808 -0.6361
 9472SOL    HW129837   0.431   6.748   5.385 -1.3745 -0.3942 -1.7635
 9472SOL    HW229838   0.555   6.737   5.299  1.4366  1.3041  1.7828
 9473SOL     OW29839   3.165   2.485   8.333 -0.0475 -0.0374 -0.0031
 9473SOL    HW129840   3.077   2.521   8.339  0.0265  0.3840 -1.0692
 9473SOL    HW229841   3.152   2.391   8.319 -0.2750 -0.2475  1.5361
 9474SOL     OW29842   6.491   7.491   5.700 -0.6667 -0.1228 -0.0297
 9474SOL    HW129843   6.403   7.523   5.722 -1.4427 -1.3392 -1.1806
 9474SOL    HW229844   6.508   7.527   5.613  0.5002  1.0460  0.6455
 9475SOL     OW29845   8.931   4.489   8.890 -0.7306  0.3062 -0.3239
 9475SOL    HW129846   8.990   4.530   8.953 -0.6164 -1.0875  0.5237
 9475SOL    HW229847   8.986   4.426   8.843 -1.4716 -0.8288  0.3013
 9476SOL     OW29848   1.554   7.842   7.093 -0.3367 -0.3690 -0.1078
 9476SOL    HW129849   1.472   7.807   7.061  0.0123  1.0923 -2.8521
 9476SOL    HW229850   1.615   7.768   7.089 -1.1246 -1.0739  0.5422
 9477SOL     OW29851   6.773   1.881   6.787 -0.2426 -0.0602  0.2797
 9477SOL    HW129852   6.728   1.965   6.782  1.2439  0.7934  0.5167
 9477SOL    HW229853   6.865   1.902   6.767 -0.0544 -1.8323 -0.8459
 9478SOL     OW29854   1.643   3.513   8.563 -0.2275 -0.1900  0.3004
 9478SOL    HW129855   1.715   3.558   8.518  0.4815  0.4324  1.9885
 9478SOL    HW229856   1.645   3.424   8.528  0.3853  0.2253 -0.7743
 9479SOL     OW29857   7.034   6.492   7.290  0.5120  0.6032  0.1640
 9479SOL    HW129858   7.013   6.579   7.323 -0.1793  0.7395 -0.6041
 9479SOL    HW229859   7.063   6.508   7.200 -2.0471 -0.1587 -0.8862
 9480SOL     OW29860   2.093   8.912   1.918 -0.6644 -0.2924 -0.0277
 9480SOL    HW129861   2.057   8.849   1.981 -0.1675  0.9065  1.5196
 9480SOL    HW229862   2.141   8.857   1.855 -1.1820 -1.5373  0.6264
 9481SOL     OW29863   1.313   1.283   4.772  0.1015  0.0127  0.5164
 9481SOL    HW129864   1.274   1.253   4.854 -1.9698  0.0086 -0.3901
 9481SOL    HW229865   1.303   1.378   4.773 -2.4214 -0.1416 -0.7881
 9482SOL     OW29866   7.373   7.365   8.327  0.2936  0.0182  0.1172
 9482SOL    HW129867   7.463   7.336   8.314  0.5989  0.9945 -0.0110
 9482SOL    HW229868   7.364   7.444   8.273 -0.2831  0.5925  1.0029
 9483SOL     OW29869   1.900   4.677   3.590 -0.1964  0.5445  0.2233
 9483SOL    HW129870   1.805   4.669   3.601 -0.0538  0.7813  2.0142
 9483SOL    HW229871   1.912   4.756   3.538 -0.9765  1.1212  0.8869
 9484SOL     OW29872   8.073   3.412   1.144 -0.3488 -0.9040 -0.4785
 9484SOL    HW129873   8.015   3.381   1.213  0.7832  1.5192  1.7184
 9484SOL    HW229874   8.136   3.341   1.131 -0.2170 -1.2004  1.4667
 9485SOL     OW29875   4.928   7.934   2.103 -0.3556 -0.2122 -0.3300
 9485SOL    HW129876   4.920   7.985   2.183 -0.2223 -1.4160  0.4710
 9485SOL    HW229877   5.005   7.969   2.059 -1.0055  1.1231 -0.4476
 9486SOL     OW29878   1.508   4.875   4.141  0.2919  0.4441 -0.5835
 9486SOL    HW129879   1.571   4.845   4.076  2.1775  0.3777  1.1995
 9486SOL    HW229880   1.516   4.970   4.140  0.2804  0.4461 -0.4597
 9487SOL     OW29881   5.627   1.156   5.821  0.4484  0.2022  0.0996
 9487SOL    HW129882   5.658   1.238   5.860  0.5242 -0.7060  2.0632
 9487SOL    HW229883   5.648   1.089   5.886  0.0627 -1.3435 -1.3030
 9488SOL     OW29884   3.758   4.518   6.308  0.2573 -0.2984 -0.1603
 9488SOL    HW129885   3.718   4.470   6.381  1.5402 -1.4902 -0.1935
 9488SOL    HW229886   3.808   4.588   6.349  0.5393 -0.6373  0.0795
 9489SOL     OW29887   6.459   1.648   3.050  0.5795  0.2306 -0.1761
 9489SOL    HW129888   6.369   1.620   3.066  0.5884 -0.8531 -1.7925
 9489SOL    HW229889   6.450   1.723   2.991  0.7299 -0.0109 -0.5103
 9490SOL     OW29890   0.269   0.573   4.850  0.2260 -0.1619  0.0940
 9490SOL    HW129891   0.213   0.553   4.775 -0.8514 -2.8762  1.4927
 9490SOL    HW229892   0.209   0.577   4.924  1.5679 -0.1251  1.2063
 9491SOL     OW29893   0.039   8.786   1.024  0.0528  0.0027  0.5722
 9491SOL    HW129894   0.103   8.850   1.053 -0.7901  0.5923  1.1724
 9491SOL    HW229895   0.029   8.727   1.099 -0.7853  0.4633  0.8333
 9492SOL     OW29896   6.493   5.487   3.959  0.2194 -0.1641  0.3143
 9492SOL    HW129897   6.420   5.516   3.904  0.4997  1.0634  0.5683
 9492SOL    HW229898   6.563   5.464   3.898  0.2805  0.4962  0.1375
 9493SOL     OW29899   7.191   5.196   3.814 -0.2307  0.6205  0.5889
 9493SOL    HW129900   7.121   5.201   3.749  1.1279  0.2756 -0.9660
 9493SOL    HW229901   7.187   5.107   3.848 -0.3331  0.4956  0.2459
 9494SOL     OW29902   5.556   7.331   0.874  0.1194  0.0663  0.2628
 9494SOL    HW129903   5.487   7.389   0.906 -0.0271 -1.3202  2.7460
 9494SOL    HW229904   5.635   7.384   0.876 -0.2286  0.5732  1.2535
 9495SOL     OW29905   5.164   5.325   0.128 -0.3304  0.2581 -0.0177
 9495SOL    HW129906   5.103   5.259   0.158  0.3628  0.6489  2.4828
 9495SOL    HW229907   5.248   5.279   0.120 -0.1423  0.5283  0.3584
 9496SOL     OW29908   4.362   2.531   9.250 -0.5575  0.1003  0.1161
 9496SOL    HW129909   4.339   2.593   9.319  1.4833  0.4520  0.5286
 9496SOL    HW229910   4.412   2.583   9.187  1.8759 -1.2220  0.8472
 9497SOL     OW29911   3.754   8.064   8.724 -0.1145  0.4006  0.2417
 9497SOL    HW129912   3.799   7.992   8.678  2.0645  0.4327  2.1461
 9497SOL    HW229913   3.703   8.021   8.792  0.2282  0.5546  0.6043
 9498SOL     OW29914   2.340   0.203   7.092 -0.3636 -0.7304  0.1104
 9498SOL    HW129915   2.247   0.190   7.077 -0.1262 -0.8191 -1.3823
 9498SOL    HW229916   2.362   0.284   7.046  0.0354  0.0644  1.6291
 9499SOL     OW29917   0.379   5.228   0.235 -0.7541 -0.5226 -0.1255
 9499SOL    HW129918   0.461   5.196   0.274  0.4007  1.0200 -1.1475
 9499SOL    HW229919   0.377   5.188   0.148 -1.4912 -1.1299  0.1587
 9500SOL     OW29920   8.865   8.615   3.677  0.2598  0.3910  0.1109
 9500SOL    HW129921   8.951   8.575   3.691  0.5648  0.7469 -0.6876
 9500SOL    HW229922   8.828   8.623   3.765  1.6706  1.6223  0.6351
 9501SOL     OW29923   1.396   5.490   7.094  0.1524 -0.5487 -0.4500
 9501SOL    HW129924   1.444   5.559   7.048 -0.4632  0.3198  0.1860
 9501SOL    HW229925   1.464   5.438   7.136  0.7459 -1.3868 -2.3196
 9502SOL     OW29926   2.843   7.369   6.541 -0.3475 -0.8376  0.2490
 9502SOL    HW129927   2.856   7.385   6.448 -0.1143  1.6520  0.6217
 9502SOL    HW229928   2.929   7.342   6.573  0.3209  1.0230  0.1571
 9503SOL     OW29929   8.502   5.113   5.585 -0.0412 -0.1288  0.2595
 9503SOL    HW129930   8.511   5.030   5.537  0.3678 -0.9367  1.6870
 9503SOL    HW229931   8.414   5.109   5.623  0.5325 -0.6162  1.5795
 9504SOL     OW29932   4.598   2.076   2.850 -0.4787  0.2216  0.5169
 9504SOL    HW129933   4.618   2.168   2.867 -0.1569  0.1536  0.4992
 9504SOL    HW229934   4.504   2.076   2.832 -0.0321  0.9686 -2.3262
 9505SOL     OW29935   1.533   2.230   2.215 -0.3563  0.1796 -0.0755
 9505SOL    HW129936   1.447   2.190   2.203  0.5464 -1.3908 -1.7882
 9505SOL    HW229937   1.549   2.226   2.309 -1.5700 -0.7678  0.1130
 9506SOL     OW29938   5.901   5.034   4.037  0.4275  0.3140  0.0813
 9506SOL    HW129939   5.865   5.068   3.956 -1.4971 -0.2440  0.6501
 9506SOL    HW229940   5.947   5.109   4.076 -0.2869  1.1170 -0.5864
 9507SOL     OW29941   0.935   8.700   0.124 -0.1257  0.9641  0.1355
 9507SOL    HW129942   1.015   8.695   0.072  0.0048 -0.9626  0.4470
 9507SOL    HW229943   0.917   8.610   0.150 -0.1376  1.7917  3.5136
 9508SOL     OW29944   5.969   6.521   0.683  0.1516  0.6657 -0.3013
 9508SOL    HW129945   6.022   6.538   0.761  1.0277  0.6555 -0.8785
 9508SOL    HW229946   5.889   6.572   0.697  0.3159  0.7044  0.5759
 9509SOL     OW29947   6.069   8.466   6.819  0.6626  0.1111 -0.5055
 9509SOL    HW129948   6.012   8.402   6.776 -0.7407  1.9038 -1.4405
 9509SOL    HW229949   6.014   8.508   6.884  0.8773  1.8684 -1.4093
 9510SOL     OW29950   4.668   2.934   7.748 -0.3229  0.1532  0.2272
 9510SOL    HW129951   4.617   2.904   7.824 -0.8285 -0.7350 -0.4363
 9510SOL    HW229952   4.648   2.870   7.680  1.0711  0.2542 -0.3001
 9511SOL     OW29953   1.767   8.643   1.710 -0.3335  0.2865 -0.0655
 9511SOL    HW129954   1.780   8.554   1.741  1.1250 -0.0360 -1.4173
 9511SOL    HW229955   1.855   8.672   1.685 -1.0384  1.4182 -1.3682
 9512SOL     OW29956   0.802   1.654   8.287 -0.8822 -0.0967  0.1351
 9512SOL    HW129957   0.819   1.747   8.300  0.3844 -0.6226  2.9688
 9512SOL    HW229958   0.878   1.622   8.239 -1.1203  0.2069 -0.4659
 9513SOL     OW29959   8.660   0.548   1.393 -0.3539 -0.1230  0.2145
 9513SOL    HW129960   8.648   0.530   1.300  1.1978  3.3941 -0.8143
 9513SOL    HW229961   8.717   0.478   1.424  0.6892 -0.3143 -1.9699
 9514SOL     OW29962   3.462   9.125   7.949 -0.3878 -0.2428  0.4462
 9514SOL    HW129963   3.418   9.043   7.927 -1.4672  0.3855  0.1907
 9514SOL    HW229964   3.401   9.194   7.921  0.3396  0.6485  0.9721
 9515SOL     OW29965   4.642   6.422   3.418  0.2151 -0.1022  0.7582
 9515SOL    HW129966   4.579   6.463   3.478 -1.1740 -0.0493 -0.6457
 9515SOL    HW229967   4.600   6.430   3.332  2.5301  0.6373 -0.3649
 9516SOL     OW29968   6.989   3.076   3.628  0.2265  0.0290 -0.2829
 9516SOL    HW129969   6.931   3.007   3.594  0.8337 -0.1905 -0.9200
 9516SOL    HW229970   6.963   3.155   3.581 -0.1678  0.1325  0.1110
 9517SOL     OW29971   6.341   2.535   1.466 -0.0617 -0.1676  0.6379
 9517SOL    HW129972   6.255   2.552   1.503 -0.2086 -0.6495  0.5315
 9517SOL    HW229973   6.397   2.522   1.543 -0.4767 -1.7005  0.7293
 9518SOL     OW29974   8.728   9.151   2.245  0.4383 -0.6531 -0.2917
 9518SOL    HW129975   8.723   9.093   2.169  0.6927 -0.8806 -0.1375
 9518SOL    HW229976   8.679   9.105   2.313 -0.8212  0.1081 -0.6598
 9519SOL     OW29977   6.331   3.030   6.134 -0.2826 -0.4120  0.1047
 9519SOL    HW129978   6.410   3.079   6.115 -0.8187  0.4923  0.1636
 9519SOL    HW229979   6.330   3.022   6.230 -1.2717  1.3337  0.2718
 9520SOL     OW29980   7.970   1.257   9.202 -0.2826  0.3616  0.0538
 9520SOL    HW129981   7.922   1.337   9.183 -1.2567 -0.0126  0.8529
 9520SOL    HW229982   8.057   1.287   9.229 -0.5302  1.1282  0.0203
 9521SOL     OW29983   8.612   3.823   3.933  0.1757 -0.0286  0.2136
 9521SOL    HW129984   8.588   3.810   3.841 -0.0915  1.3308  0.0778
 9521SOL    HW229985   8.672   3.897   3.933  2.6006 -1.8608  0.8442
 9522SOL     OW29986   5.106   2.084   0.807 -0.0544  0.3901 -0.8490
 9522SOL    HW129987   5.148   2.001   0.784 -0.5521  0.1594 -0.9408
 9522SOL    HW229988   5.158   2.151   0.763  1.5328  0.3176  0.7827
 9523SOL     OW29989   0.137   4.208   1.667  0.1015 -0.3122 -0.1122
 9523SOL    HW129990   0.139   4.299   1.697  1.2433  0.6239 -2.7194
 9523SOL    HW229991   0.229   4.186   1.650  0.0285 -2.5222  1.7994
 9524SOL     OW29992   6.685   7.700   1.260  0.5289 -0.6151  0.0979
 9524SOL    HW129993   6.591   7.686   1.247  0.6408 -1.4822  0.2159
 9524SOL    HW229994   6.727   7.626   1.216  1.2468  0.6046 -1.4070
 9525SOL     OW29995   7.572   8.840   2.528  0.1182 -0.4220 -0.0792
 9525SOL    HW129996   7.656   8.795   2.519  0.1198 -0.2066 -1.3491
 9525SOL    HW229997   7.506   8.771   2.516  0.1101 -0.5455  0.6583
 9526SOL     OW29998   8.782   7.360   6.366 -0.3871 -0.1656  0.0380
 9526SOL    HW129999   8.771   7.268   6.390 -3.0897  0.1564  0.3199
 9526SOL    HW230000   8.694   7.389   6.342  0.5738  2.1118 -0.9467
 9527SOL     OW30001   3.626   3.270   3.484 -0.3834 -0.0313  0.2772
 9527SOL    HW130002   3.617   3.203   3.552 -0.9678 -1.2608 -0.9717
 9527SOL    HW230003   3.608   3.224   3.402  0.0158  1.4810 -0.6994
 9528SOL     OW30004   2.704   3.871   6.127  0.3915  0.6924 -0.1905
 9528SOL    HW130005   2.729   3.960   6.101  2.1894  0.2471 -0.1148
 9528SOL    HW230006   2.736   3.815   6.057 -0.5009  0.0655 -0.1153
 9529SOL     OW30007   1.335   1.064   8.957 -0.0030  0.0183 -0.1517
 9529SOL    HW130008   1.411   1.108   8.996 -0.2600  0.2082  0.1425
 9529SOL    HW230009   1.271   1.061   9.028 -1.0014  1.5859 -0.9318
 9530SOL     OW30010   4.827   1.290   7.913 -0.0800 -0.3316  0.0902
 9530SOL    HW130011   4.782   1.237   7.847  0.1717  1.1119 -1.3064
 9530SOL    HW230012   4.757   1.340   7.956 -0.1084 -0.2067 -0.0986
 9531SOL     OW30013   7.629   0.179   2.507 -0.1357  0.3557 -0.2966
 9531SOL    HW130014   7.570   0.168   2.432 -0.6436  1.3768 -0.0577
 9531SOL    HW230015   7.639   0.273   2.516  0.1024  0.2358  0.7853
 9532SOL     OW30016   8.798   3.992   5.714  0.4178  0.1556 -0.1318
 9532SOL    HW130017   8.883   4.036   5.718  0.8692 -0.6390 -0.7859
 9532SOL    HW230018   8.763   3.999   5.803  1.9504 -1.0396  0.6184
 9533SOL     OW30019   1.166   2.039   0.355 -0.2940 -0.1900 -0.1269
 9533SOL    HW130020   1.214   1.958   0.371 -0.5805 -0.4158 -0.3971
 9533SOL    HW230021   1.204   2.102   0.416  2.5669  0.5439 -2.4462
 9534SOL     OW30022   0.767   8.943   8.681 -0.3735  0.4568 -0.1446
 9534SOL    HW130023   0.706   8.966   8.752  0.5815  0.8807  0.5598
 9534SOL    HW230024   0.853   8.961   8.717  0.2406 -1.0495 -0.7844
 9535SOL     OW30025   4.334   5.642   8.703 -0.0977 -0.5275  0.6651
 9535SOL    HW130026   4.298   5.730   8.696 -0.0334 -0.5494 -0.0932
 9535SOL    HW230027   4.399   5.648   8.773 -0.7284 -0.1996  1.2362
 9536SOL     OW30028   2.547   6.238   7.335  0.0601 -0.2073  0.3138
 9536SOL    HW130029   2.641   6.248   7.349  0.0358  0.6483 -0.0818
 9536SOL    HW230030   2.527   6.295   7.260 -0.9986  0.6413  1.2017
 9537SOL     OW30031   5.591   2.322   8.497  0.4265 -0.5125  0.3578
 9537SOL    HW130032   5.589   2.415   8.474 -0.9882 -0.4757  0.5018
 9537SOL    HW230033   5.549   2.317   8.583 -1.3224 -1.4412 -0.4752
 9538SOL     OW30034   6.920   0.735   0.875  0.0174 -0.5173 -0.0784
 9538SOL    HW130035   6.837   0.777   0.853 -0.8297 -0.6111  2.6337
 9538SOL    HW230036   6.981   0.769   0.809 -1.1518  3.1583  0.4699
 9539SOL     OW30037   6.354   8.578   3.865 -0.0069  0.0623 -0.4005
 9539SOL    HW130038   6.355   8.531   3.782 -1.2320  0.9823 -0.9630
 9539SOL    HW230039   6.312   8.518   3.927 -0.1561 -0.1783 -0.7306
 9540SOL     OW30040   8.926   5.196   8.694 -0.3235 -0.0610 -0.4856
 9540SOL    HW130041   8.971   5.230   8.616  0.1891  0.6581  0.1124
 9540SOL    HW230042   8.939   5.101   8.689 -0.8418 -0.0969 -1.6034
 9541SOL     OW30043   8.505   4.664   3.631 -0.0565 -0.8833  0.2062
 9541SOL    HW130044   8.569   4.599   3.659  0.4567 -1.1034 -1.4242
 9541SOL    HW230045   8.551   4.748   3.638 -0.4368 -0.7508  1.4533
 9542SOL     OW30046   7.663   1.490   6.467  0.2887 -0.4767  0.1012
 9542SOL    HW130047   7.736   1.540   6.504  0.1051 -0.7724  0.8752
 9542SOL    HW230048   7.680   1.489   6.373  1.9804 -1.6073  0.3715
 9543SOL     OW30049   7.482   4.674   8.058  0.2335  0.3731  0.6923
 9543SOL    HW130050   7.392   4.686   8.026  0.5940  0.2784 -0.4085
 9543SOL    HW230051   7.529   4.640   7.983  0.8702 -1.0123  1.6835
 9544SOL     OW30052   5.441   6.513   6.225 -0.4570  0.7623  1.0598
 9544SOL    HW130053   5.401   6.588   6.269 -0.2605 -0.4376  3.4497
 9544SOL    HW230054   5.373   6.446   6.224 -0.0084  0.3003  0.7843
 9545SOL     OW30055   2.035   7.080   7.348 -0.3676  0.3285 -0.7966
 9545SOL    HW130056   2.006   7.012   7.410  0.9299  0.6619  0.2215
 9545SOL    HW230057   2.085   7.032   7.282 -1.6465 -0.0126 -1.5543
 9546SOL     OW30058   7.740   7.149   4.948 -0.8289 -0.0115  0.5303
 9546SOL    HW130059   7.772   7.219   4.890  0.6162 -0.9061  0.2032
 9546SOL    HW230060   7.724   7.193   5.031 -0.5989  0.8412  0.1388
 9547SOL     OW30061   7.454   3.752   0.484 -0.4726  0.1469  0.3072
 9547SOL    HW130062   7.410   3.686   0.430 -1.8660 -1.9110  3.5887
 9547SOL    HW230063   7.543   3.720   0.494 -0.5533 -0.1151  0.1853
 9548SOL     OW30064   1.514   6.167   6.188 -0.1369 -0.4869 -0.5084
 9548SOL    HW130065   1.493   6.110   6.114 -1.1085  0.6790 -1.1743
 9548SOL    HW230066   1.433   6.169   6.240  0.6958 -1.7232  0.9243
 9549SOL     OW30067   9.209   0.548   8.856 -0.3046  0.4671  0.6799
 9549SOL    HW130068   9.185   0.511   8.771 -0.3904  0.5113  0.6852
 9549SOL    HW230069   9.298   0.581   8.844 -0.7094  1.4439  0.2953
 9550SOL     OW30070   5.180   6.642   7.922 -0.0328 -0.8553  0.1556
 9550SOL    HW130071   5.210   6.698   7.850 -3.0073 -0.2964 -0.8302
 9550SOL    HW230072   5.159   6.558   7.879  0.1961 -1.2352  0.7801
 9551SOL     OW30073   6.256   3.840   1.434  0.2407  0.0197  0.3103
 9551SOL    HW130074   6.292   3.751   1.445 -1.5286 -0.8040 -0.2121
 9551SOL    HW230075   6.211   3.837   1.350 -1.8911  0.6811  1.3796
 9552SOL     OW30076   4.670   7.231   4.028 -0.0813 -0.4219 -0.4753
 9552SOL    HW130077   4.739   7.199   3.970 -1.4217 -1.1416 -1.7384
 9552SOL    HW230078   4.606   7.160   4.031 -0.9798  0.3851  0.3194
 9553SOL     OW30079   6.756   8.990   6.369 -0.4696 -1.1777  0.3307
 9553SOL    HW130080   6.800   9.005   6.452 -0.4598 -0.5189  0.2116
 9553SOL    HW230081   6.786   8.903   6.341  0.9959 -0.6256  0.1016
 9554SOL     OW30082   1.868   8.639   4.227  0.5087  0.3509 -0.0870
 9554SOL    HW130083   1.856   8.602   4.139  1.1146 -0.8094  0.3029
 9554SOL    HW230084   1.915   8.572   4.275  0.1130  0.9416  1.1676
 9555SOL     OW30085   3.693   3.880   3.485  0.1844 -0.3683  0.2513
 9555SOL    HW130086   3.742   3.959   3.462 -0.5993 -0.3128 -1.3684
 9555SOL    HW230087   3.748   3.835   3.548  1.6165  0.4308 -0.3924
 9556SOL     OW30088   6.162   2.318   0.928  0.0956 -0.2993  0.2187
 9556SOL    HW130089   6.200   2.259   0.993  1.9872  0.4403 -0.1433
 9556SOL    HW230090   6.134   2.260   0.857  1.8260 -0.8179 -0.0897
 9557SOL     OW30091   8.576   5.764   5.728  0.1030  0.4183  0.4379
 9557SOL    HW130092   8.658   5.715   5.720  0.7205  1.4569  0.2792
 9557SOL    HW230093   8.572   5.789   5.820 -0.2606  0.0032  0.5395
 9558SOL     OW30094   1.726   5.280   3.491  0.0892  0.1285 -0.2738
 9558SOL    HW130095   1.750   5.372   3.479  0.6532 -0.2636 -2.5860
 9558SOL    HW230096   1.649   5.268   3.435  0.2375 -0.8695 -0.2866
 9559SOL     OW30097   0.962   6.462   0.228 -0.5780 -0.5144 -0.5971
 9559SOL    HW130098   0.906   6.528   0.186 -0.4307 -0.8381 -1.3094
 9559SOL    HW230099   0.959   6.386   0.170 -0.8078 -1.1797  0.2539
 9560SOL     OW30100   2.875   2.827   3.190 -0.0576 -0.7960  0.2893
 9560SOL    HW130101   2.943   2.861   3.248  0.3123 -0.1004 -0.5377
 9560SOL    HW230102   2.811   2.789   3.249  0.2375  0.0325  1.1749
 9561SOL     OW30103   3.988   7.483   4.976  0.0081  0.7513  0.1833
 9561SOL    HW130104   3.987   7.418   4.906  1.9281  0.9597 -0.0848
 9561SOL    HW230105   3.931   7.553   4.945 -1.0313 -0.1977 -0.1079
 9562SOL     OW30106   2.697   4.450   8.838  0.9708  0.1206  0.7624
 9562SOL    HW130107   2.699   4.448   8.934 -1.6825  2.3185  0.9800
 9562SOL    HW230108   2.757   4.521   8.814  1.0923  0.0356  0.8089
 9563SOL     OW30109   7.027   1.023   4.094  0.4438  0.2409  0.7043
 9563SOL    HW130110   6.959   1.013   4.027  0.8642  0.5024  0.2316
 9563SOL    HW230111   7.100   0.969   4.063  1.4227  1.9364 -0.1257
 9564SOL     OW30112   0.930   8.053   2.100  0.2156 -0.3834 -0.4709
 9564SOL    HW130113   1.010   8.086   2.060  0.2232 -0.3331 -0.4144
 9564SOL    HW230114   0.960   8.001   2.175  0.1434  0.8232  0.4132
 9565SOL     OW30115   2.768   3.227   8.866  0.0544 -0.0455 -0.2139
 9565SOL    HW130116   2.771   3.157   8.931 -0.4143 -2.6235 -2.7557
 9565SOL    HW230117   2.709   3.194   8.798  1.9192  1.6351 -2.8339
 9566SOL     OW30118   6.537   7.481   6.175  0.5174 -0.1074  0.0912
 9566SOL    HW130119   6.551   7.509   6.265 -1.9221  0.9097  0.2368
 9566SOL    HW230120   6.444   7.496   6.159  0.6924 -1.0793 -2.3320
 9567SOL     OW30121   5.449   7.699   1.213 -0.1134  0.6041  0.3761
 9567SOL    HW130122   5.529   7.693   1.265 -0.0227 -1.1004  0.0907
 9567SOL    HW230123   5.403   7.775   1.249  0.4669  0.1363  2.2131
 9568SOL     OW30124   0.811   7.930   1.893 -0.0460  0.1051 -0.0953
 9568SOL    HW130125   0.742   7.866   1.907  0.9995 -1.1698 -0.6203
 9568SOL    HW230126   0.836   7.958   1.981  1.2456 -2.1716  0.3483
 9569SOL     OW30127   0.521   9.199   3.447  0.0228  0.7267 -0.4075
 9569SOL    HW130128   0.610   9.165   3.430 -0.5420 -0.3874 -1.3338
 9569SOL    HW230129   0.478   9.195   3.362 -0.7439  1.8468 -0.0917
 9570SOL     OW30130   2.354   7.773   0.883 -0.0748 -0.3309  0.0632
 9570SOL    HW130131   2.289   7.717   0.926 -0.8644  0.0903 -0.5448
 9570SOL    HW230132   2.436   7.753   0.927 -0.6357 -0.8019  0.9314
 9571SOL     OW30133   5.998   6.764   4.354  0.4891  0.1534 -0.5719
 9571SOL    HW130134   6.074   6.821   4.361  1.7391 -1.5130 -0.1406
 9571SOL    HW230135   5.999   6.711   4.433 -1.1842  0.1337 -0.5146
 9572SOL     OW30136   3.957   6.040   6.588 -0.1408  0.0442  0.5795
 9572SOL    HW130137   3.929   6.028   6.497  0.6063 -0.8385  0.4437
 9572SOL    HW230138   4.052   6.050   6.582 -0.1816  0.8579  1.1965
 9573SOL     OW30139   3.686   2.347   7.683 -0.2286 -0.9758  0.1734
 9573SOL    HW130140   3.727   2.261   7.687  1.7865 -0.1038 -0.6026
 9573SOL    HW230141   3.729   2.397   7.752  2.0900  0.7276 -2.2826
 9574SOL     OW30142   9.144   7.828   6.432 -0.1387  0.2898  0.8506
 9574SOL    HW130143   9.118   7.874   6.352 -0.2364  0.6374  1.0810
 9574SOL    HW230144   9.118   7.886   6.503  0.9925  0.5129  1.1031
 9575SOL     OW30145   3.609   2.324   5.857 -0.2667 -0.5452  0.0996
 9575SOL    HW130146   3.638   2.411   5.883 -1.9199  0.1174 -0.1580
 9575SOL    HW230147   3.690   2.277   5.834  0.5438  1.6171 -1.8866
 9576SOL     OW30148   3.426   6.232   2.602  0.2441  0.5601 -0.2949
 9576SOL    HW130149   3.380   6.153   2.630 -1.0958  1.2427 -0.4704
 9576SOL    HW230150   3.515   6.222   2.636  0.4230 -1.5010 -1.2353
 9577SOL     OW30151   0.389   5.651   3.114  0.3879 -0.1920 -0.0445
 9577SOL    HW130152   0.325   5.686   3.176  0.7559 -0.6922  0.6357
 9577SOL    HW230153   0.439   5.588   3.165  1.1330 -0.1342 -0.6870
 9578SOL     OW30154   6.383   3.491   2.085  0.3140  0.0308  0.8763
 9578SOL    HW130155   6.308   3.517   2.137  0.4624 -0.7766  1.5031
 9578SOL    HW230156   6.381   3.396   2.084  1.5892 -0.0299  1.3181
 9579SOL     OW30157   3.193   4.041   0.055  0.0638 -0.4134 -0.2245
 9579SOL    HW130158   3.156   4.087  -0.021 -1.1366  1.9856  1.6415
 9579SOL    HW230159   3.130   3.972   0.074 -0.5145  0.0500 -0.4282
 9580SOL     OW30160   3.949   0.626   3.125  0.8063  0.3320  0.0959
 9580SOL    HW130161   3.948   0.545   3.176 -0.4820  0.3794  0.1759
 9580SOL    HW230162   3.969   0.597   3.035  0.3307 -0.0806  0.1190
 9581SOL     OW30163   1.902   6.455   8.759  0.1875  0.3010  0.4215
 9581SOL    HW130164   1.976   6.514   8.748 -0.7934  1.6160  0.6642
 9581SOL    HW230165   1.890   6.414   8.673  1.5539 -0.3977  0.5399
 9582SOL     OW30166   4.792   4.279   6.205 -0.0861  0.4187  0.2580
 9582SOL    HW130167   4.781   4.366   6.167 -0.6946  0.2368  0.0053
 9582SOL    HW230168   4.864   4.240   6.155 -1.7238 -0.3150 -1.6777
 9583SOL     OW30169   1.301   1.401   8.353  0.4343 -0.0729  0.0434
 9583SOL    HW130170   1.316   1.388   8.259  1.4137 -1.5257  0.3641
 9583SOL    HW230171   1.376   1.452   8.383  1.8123 -2.2679  0.5585
 9584SOL     OW30172   1.694   4.886   5.203 -0.3728 -0.1950  0.1462
 9584SOL    HW130173   1.758   4.937   5.253 -0.2464 -0.3183  0.1128
 9584SOL    HW230174   1.748   4.832   5.145 -0.5377  0.7418 -0.9097
 9585SOL     OW30175   1.705   4.566   4.604 -0.1496  0.3119 -0.0493
 9585SOL    HW130176   1.702   4.655   4.638  2.1262 -0.4312  2.5308
 9585SOL    HW230177   1.653   4.515   4.666  1.2979 -0.5816  0.4956
 9586SOL     OW30178   7.229   7.664   7.467 -0.1191 -0.3813  0.6053
 9586SOL    HW130179   7.274   7.684   7.549  1.9915  0.2693 -0.6225
 9586SOL    HW230180   7.242   7.570   7.455 -0.2418 -0.4378  0.9174
 9587SOL     OW30181   8.279   1.324   0.164 -0.2150  0.3649  0.3667
 9587SOL    HW130182   8.270   1.339   0.258 -1.1032 -1.1415  0.5657
 9587SOL    HW230183   8.249   1.234   0.152  0.0247  0.4859 -1.3464
 9588SOL     OW30184   4.571   5.339   6.323 -0.3418 -0.1036  0.0898
 9588SOL    HW130185   4.523   5.313   6.244  1.2270  2.3308 -1.7999
 9588SOL    HW230186   4.515   5.403   6.366 -0.4325 -0.1201 -0.0047
 9589SOL     OW30187   9.228   4.958   0.074 -0.2564 -0.5111 -0.2153
 9589SOL    HW130188   9.170   5.025   0.038 -1.7298 -2.0401 -0.8344
 9589SOL    HW230189   9.197   4.877   0.034  1.1820 -1.6239  0.8583
 9590SOL     OW30190   2.974   3.395   5.728 -0.2592 -0.2023  0.1930
 9590SOL    HW130191   3.029   3.317   5.726 -1.2327 -0.9012 -2.0434
 9590SOL    HW230192   3.033   3.466   5.753  0.6300 -1.5934  2.3892
 9591SOL     OW30193   5.158   4.253   5.306 -0.5347 -0.0554 -0.2279
 9591SOL    HW130194   5.178   4.285   5.394 -1.4474  0.1627 -0.0894
 9591SOL    HW230195   5.093   4.183   5.319  1.0176 -1.6294 -0.5694
 9592SOL     OW30196   4.192   0.488   3.905 -0.2087  0.4355 -0.0904
 9592SOL    HW130197   4.200   0.542   3.984  0.2991 -1.0491  0.9064
 9592SOL    HW230198   4.253   0.416   3.919 -1.1444 -0.6156 -1.2306
 9593SOL     OW30199   1.760   2.164   1.832  0.3631 -0.6914  0.2299
 9593SOL    HW130200   1.783   2.136   1.743 -2.0554 -1.7128 -0.1508
 9593SOL    HW230201   1.820   2.114   1.888  2.0052  0.0543 -0.7573
 9594SOL     OW30202   6.536   8.876   0.884  0.3408 -0.0223 -0.0002
 9594SOL    HW130203   6.458   8.865   0.829  0.3360 -0.0727  0.0159
 9594SOL    HW230204   6.530   8.804   0.947  0.5143 -0.1557 -0.1364
 9595SOL     OW30205   6.705   5.736   4.390  1.1442 -0.1108  0.3350
 9595SOL    HW130206   6.711   5.666   4.454 -0.3332 -0.4572  0.1398
 9595SOL    HW230207   6.667   5.695   4.312  1.2079  0.6867 -0.1365
 9596SOL     OW30208   8.389   1.184   8.937  0.1637  0.1895  0.2462
 9596SOL    HW130209   8.470   1.178   8.886 -0.0673 -2.4492  0.0404
 9596SOL    HW230210   8.388   1.103   8.989 -2.5370 -0.0774 -0.0861
 9597SOL     OW30211   5.241   3.349   6.549  0.2820  0.2788  0.7143
 9597SOL    HW130212   5.189   3.343   6.469  1.0060  0.1252  0.2500
 9597SOL    HW230213   5.317   3.294   6.532  0.0467 -0.4290  1.8244
 9598SOL     OW30214   0.976   5.435   2.889 -0.0348  0.3705  0.0952
 9598SOL    HW130215   0.928   5.354   2.905 -0.6168  1.2536  3.7568
 9598SOL    HW230216   1.068   5.410   2.894 -0.2107 -0.1028  1.2577
 9599SOL     OW30217   6.225   9.126   7.401 -0.1168 -0.3268  0.2597
 9599SOL    HW130218   6.287   9.062   7.435  0.8538  0.0613 -0.7286
 9599SOL    HW230219   6.268   9.164   7.325 -0.0266  2.4956  1.5590
 9600SOL     OW30220   5.879   3.938   5.009 -0.2111  0.3298 -0.1388
 9600SOL    HW130221   5.787   3.934   4.981  0.1626  0.2088 -1.3884
 9600SOL    HW230222   5.892   3.859   5.061 -1.1135  0.9148  1.0259
 9601SOL     OW30223   4.589   2.857   0.079  0.5573 -0.6890  0.3194
 9601SOL    HW130224   4.656   2.924   0.067  0.8049 -0.8496  0.8044
 9601SOL    HW230225   4.631   2.775   0.052  0.5243 -0.7758  0.5301
 9602SOL     OW30226   8.105   8.986   5.923  0.3243 -0.4867 -0.2400
 9602SOL    HW130227   8.186   8.941   5.947  0.0478 -0.4604  0.7596
 9602SOL    HW230228   8.086   8.955   5.834  1.6044 -0.2374 -0.6126
 9603SOL     OW30229   7.297   1.062   4.295  0.0814  0.8767  0.2222
 9603SOL    HW130230   7.324   0.971   4.309  0.1176  0.9702  0.7689
 9603SOL    HW230231   7.366   1.114   4.337 -0.3914  1.1383  0.6803
 9604SOL     OW30232   4.929   8.153   6.348  0.5176 -0.5122 -0.1816
 9604SOL    HW130233   4.953   8.072   6.303  0.7020 -0.1580 -0.7340
 9604SOL    HW230234   4.834   8.149   6.357  0.6265 -1.3046  0.8172
 9605SOL     OW30235   4.320   5.514   0.375  0.2996 -0.1993  0.1212
 9605SOL    HW130236   4.381   5.441   0.386  0.6372 -0.1789 -1.2832
 9605SOL    HW230237   4.378   5.589   0.359 -0.0625  0.1566  0.4998
 9606SOL     OW30238   8.663   8.526   0.524 -0.8699 -0.4255  0.1443
 9606SOL    HW130239   8.653   8.518   0.429  1.4966  0.5211 -0.2486
 9606SOL    HW230240   8.622   8.447   0.559 -0.3054 -1.6436 -1.7776
 9607SOL     OW30241   5.246   8.962   3.806 -0.3978  0.4507 -0.5119
 9607SOL    HW130242   5.322   9.015   3.829 -0.7003  1.3587 -1.5396
 9607SOL    HW230243   5.227   8.913   3.886  1.8381 -0.5436 -0.5189
 9608SOL     OW30244   8.609   1.080   8.431 -0.1257  0.8828 -0.2200
 9608SOL    HW130245   8.557   1.051   8.356 -1.5066  0.3563  0.8989
 9608SOL    HW230246   8.680   1.017   8.437 -1.6763 -0.8832  0.6544
 9609SOL     OW30247   6.317   3.291   5.671 -0.0804 -0.1968 -0.2045
 9609SOL    HW130248   6.326   3.340   5.590 -1.6650 -0.5276 -0.6219
 9609SOL    HW230249   6.263   3.346   5.727 -1.8275 -1.3609 -0.6536
 9610SOL     OW30250   0.241   2.431   7.452  0.2762  0.2410  0.9059
 9610SOL    HW130251   0.150   2.421   7.422  0.8846 -2.2519 -0.4157
 9610SOL    HW230252   0.286   2.471   7.377  0.3872  0.9788  1.3602
 9611SOL     OW30253   0.905   2.722   7.799 -0.3035 -0.0642 -0.0340
 9611SOL    HW130254   0.874   2.777   7.871 -4.1873 -1.3893 -0.4504
 9611SOL    HW230255   0.956   2.782   7.743 -0.6747  1.9850  1.6984
 9612SOL     OW30256   5.270   0.836   2.061  0.2807  0.3089 -0.0110
 9612SOL    HW130257   5.253   0.814   2.152  2.3838 -0.3983  0.2504
 9612SOL    HW230258   5.235   0.925   2.050  1.4895  1.0709  1.9493
 9613SOL     OW30259   3.065   7.507   2.152 -0.3104 -0.2044 -1.0794
 9613SOL    HW130260   3.156   7.480   2.161 -0.2150  0.3405 -0.3831
 9613SOL    HW230261   3.026   7.492   2.238 -0.1583  2.1881 -0.5218
 9614SOL     OW30262   5.541   8.828   6.827 -0.3047 -0.0526  0.0277
 9614SOL    HW130263   5.586   8.764   6.772  0.3598 -0.0759  0.5865
 9614SOL    HW230264   5.478   8.869   6.769  0.6509  0.2006 -0.8598
 9615SOL     OW30265   8.558   1.227   3.116  0.2228  0.3887  0.4887
 9615SOL    HW130266   8.574   1.266   3.031 -1.8108  0.4007  0.0731
 9615SOL    HW230267   8.598   1.140   3.111 -1.1914 -0.2221 -1.0627
 9616SOL     OW30268   5.034   7.169   2.123  0.2380  0.1624 -0.3610
 9616SOL    HW130269   5.020   7.087   2.170 -0.9060  2.1639  3.1429
 9616SOL    HW230270   4.946   7.202   2.103  0.4224  2.2195  1.7222
 9617SOL     OW30271   3.614   0.786   3.964 -0.6290 -0.0269 -0.3704
 9617SOL    HW130272   3.558   0.837   4.022 -1.3629 -0.0221 -1.0783
 9617SOL    HW230273   3.566   0.780   3.882  0.1238 -0.5656 -0.7882
 9618SOL     OW30274   8.169   4.386   4.417 -0.8013  0.3364 -0.2356
 9618SOL    HW130275   8.116   4.433   4.352  0.5991 -1.3134 -2.7611
 9618SOL    HW230276   8.255   4.427   4.412 -0.3752 -0.5362 -0.2776
 9619SOL     OW30277   3.877   8.319   0.537  0.1640  0.1282 -0.9018
 9619SOL    HW130278   3.904   8.360   0.618 -1.3824 -1.4437  0.5131
 9619SOL    HW230279   3.818   8.383   0.496  0.5961  0.7500 -0.5601
 9620SOL     OW30280   9.230   7.789   8.922  0.5149 -0.2285 -0.1565
 9620SOL    HW130281   9.155   7.759   8.872  1.1442 -0.5347 -0.9457
 9620SOL    HW230282   9.213   7.760   9.012  1.4455 -3.7405 -0.9534
 9621SOL     OW30283   3.743   9.006   3.430  0.4634  0.0018  0.3955
 9621SOL    HW130284   3.692   9.084   3.410  1.9757  1.2132  1.0960
 9621SOL    HW230285   3.794   8.989   3.351 -0.8309 -1.1207 -0.2497
 9622SOL     OW30286   3.073   7.589   7.994  0.6427  0.3839 -0.2860
 9622SOL    HW130287   3.120   7.588   7.911 -0.6428  2.5563 -1.1185
 9622SOL    HW230288   3.120   7.655   8.046  0.2429  0.4767 -0.0434
 9623SOL     OW30289   0.660   1.662   2.942  0.2477  0.0633  0.1774
 9623SOL    HW130290   0.727   1.731   2.941  1.3686 -0.9485  1.5223
 9623SOL    HW230291   0.709   1.582   2.957 -0.8926 -1.2584 -2.4948
 9624SOL     OW30292   3.275   8.697   2.614  0.3525 -0.1927 -0.8855
 9624SOL    HW130293   3.347   8.683   2.553  0.6400  0.5657 -0.7378
 9624SOL    HW230294   3.241   8.610   2.633  0.7205 -0.4924 -1.5715
 9625SOL     OW30295   2.907   8.098   6.925  0.0033  0.2811  0.5035
 9625SOL    HW130296   2.844   8.095   6.997 -0.7682  0.3704 -0.1681
 9625SOL    HW230297   2.882   8.175   6.874  1.8866  1.5350  1.3322
 9626SOL     OW30298   5.298   7.581   3.245  0.1521 -0.1471 -0.4059
 9626SOL    HW130299   5.392   7.589   3.264 -0.1990 -0.7475  1.9630
 9626SOL    HW230300   5.270   7.671   3.226  0.8236  0.4105  1.0609
 9627SOL     OW30301   0.028   7.485   7.137  1.3206 -0.4230 -0.4695
 9627SOL    HW130302   0.120   7.475   7.162  1.2487 -0.8349 -0.3673
 9627SOL    HW230303  -0.021   7.455   7.214  1.1006 -0.5702 -0.6676
 9628SOL     OW30304   4.101   8.062   8.017  0.4989  0.6369  0.2883
 9628SOL    HW130305   4.041   8.079   7.944 -0.2159  0.2281  0.7631
 9628SOL    HW230306   4.151   7.986   7.988 -0.4363 -0.1190  0.5836
 9629SOL     OW30307   1.050   0.893   0.276 -0.5283  0.5829  0.3317
 9629SOL    HW130308   0.981   0.907   0.341  0.3581  0.4323  1.3125
 9629SOL    HW230309   1.083   0.980   0.256  0.4251  0.4935  1.4443
 9630SOL     OW30310   7.643   1.632   0.282  0.0289  0.0292 -0.7393
 9630SOL    HW130311   7.730   1.593   0.272 -0.6518 -1.4385 -1.2771
 9630SOL    HW230312   7.602   1.622   0.196 -0.5922  0.9428 -0.5666
 9631SOL     OW30313   5.034   6.425   6.985  0.3371  0.1351 -0.1012
 9631SOL    HW130314   5.042   6.480   6.907 -0.8496 -0.7260 -0.8717
 9631SOL    HW230315   4.940   6.412   6.996  0.5635 -1.4256  0.2606
 9632SOL     OW30316   3.946   1.994   5.023 -0.4038 -0.5809  0.0070
 9632SOL    HW130317   3.933   2.049   4.946 -1.1325  1.2577  1.3724
 9632SOL    HW230318   4.041   1.977   5.024 -0.1441  0.7435 -0.3984
 9633SOL     OW30319   5.357   3.654   0.439 -0.3739 -0.1635 -0.4565
 9633SOL    HW130320   5.446   3.685   0.454 -0.6136  0.7302 -0.7982
 9633SOL    HW230321   5.361   3.560   0.456  0.0743  0.2231  1.9820
 9634SOL     OW30322   3.175   6.966   0.090 -0.6743  0.4824 -0.1994
 9634SOL    HW130323   3.125   7.016   0.154  0.4793  0.6659  0.5756
 9634SOL    HW230324   3.259   6.948   0.132 -0.0003  0.3315 -1.5305
 9635SOL     OW30325   1.248   1.284   9.111 -0.0211 -0.2744 -0.0847
 9635SOL    HW130326   1.256   1.254   9.202 -0.5293  0.1463  0.1018
 9635SOL    HW230327   1.155   1.274   9.091  0.4503 -2.9971 -1.4837
 9636SOL     OW30328   7.430   7.531   8.137 -0.3414 -0.2630  0.0556
 9636SOL    HW130329   7.442   7.473   8.062 -1.9216  1.1791 -1.3876
 9636SOL    HW230330   7.516   7.571   8.151  0.0785 -0.8845 -0.6991
 9637SOL     OW30331   1.033   7.190   3.038 -0.2603 -0.0151 -0.1091
 9637SOL    HW130332   0.995   7.106   3.011  0.3351 -0.7396  1.2148
 9637SOL    HW230333   1.127   7.181   3.018  0.2316 -0.6365  2.2156
 9638SOL     OW30334   8.734   3.201   3.776 -0.1899  0.0764 -0.5012
 9638SOL    HW130335   8.811   3.179   3.724  0.4828  1.6168 -0.2041
 9638SOL    HW230336   8.736   3.296   3.782 -1.2879  0.0383  0.7865
 9639SOL     OW30337   4.288   5.193   2.592  0.4688 -0.2784 -0.1130
 9639SOL    HW130338   4.294   5.287   2.609 -0.5868 -0.3769  0.9084
 9639SOL    HW230339   4.205   5.167   2.631  0.6267 -1.5970 -0.6113
 9640SOL     OW30340   6.946   5.231   9.234 -0.3388  0.5170  0.0315
 9640SOL    HW130341   6.879   5.288   9.196  0.5212 -0.2094 -2.9082
 9640SOL    HW230342   7.029   5.266   9.201  0.3145 -1.5137 -0.6965
 9641SOL     OW30343   6.448   1.822   0.166 -0.7451 -0.2930 -0.0831
 9641SOL    HW130344   6.456   1.828   0.071  1.6152 -1.7191 -0.0771
 9641SOL    HW230345   6.532   1.855   0.199 -0.7721 -1.5486  1.3743
 9642SOL     OW30346   9.212   3.717   8.286  0.0778  0.5042 -0.1649
 9642SOL    HW130347   9.276   3.773   8.241  0.0179  0.6169 -0.1119
 9642SOL    HW230348   9.251   3.630   8.285 -0.5733  0.1815 -1.7420
 9643SOL     OW30349   8.851   3.619   8.503 -0.4741 -0.1163  0.2537
 9643SOL    HW130350   8.942   3.619   8.534 -0.3691 -0.1864 -0.0519
 9643SOL    HW230351   8.858   3.639   8.410 -0.7089 -0.9335  0.0551
 9644SOL     OW30352   5.616   2.660   0.801 -0.3534  0.6133  0.2374
 9644SOL    HW130353   5.665   2.579   0.791 -3.6568 -1.9506  2.5180
 9644SOL    HW230354   5.670   2.714   0.857  0.9194 -1.0459  0.6774
 9645SOL     OW30355   2.545   5.382   1.521  0.6099  0.1065  0.0182
 9645SOL    HW130356   2.628   5.423   1.496  1.7213 -0.6600  2.1892
 9645SOL    HW230357   2.499   5.449   1.571  0.9896 -0.1941  0.7953
 9646SOL     OW30358   7.957   1.623   3.516 -0.5076 -0.2838  0.2803
 9646SOL    HW130359   7.979   1.634   3.424  1.1506 -0.2605  0.6452
 9646SOL    HW230360   7.920   1.535   3.522 -0.1406 -0.4790 -0.3161
 9647SOL     OW30361   3.227   8.256   5.826  0.8889  0.1812  0.5262
 9647SOL    HW130362   3.188   8.333   5.866  1.6259  1.0201 -0.3349
 9647SOL    HW230363   3.294   8.290   5.766  1.2120 -1.1131  0.1062
 9648SOL     OW30364   7.115   7.753   3.598 -0.2648  0.5179 -0.0931
 9648SOL    HW130365   7.099   7.843   3.627 -1.5895  0.9229 -1.8555
 9648SOL    HW230366   7.179   7.762   3.527  0.1136 -0.0094  0.1775
 9649SOL     OW30367   4.359   5.666   5.607 -0.0180 -0.2157 -0.3169
 9649SOL    HW130368   4.338   5.729   5.676 -1.6467  0.2989 -1.2163
 9649SOL    HW230369   4.363   5.719   5.527  0.2814 -1.0129 -0.8341
 9650SOL     OW30370   1.602   5.357   8.035 -0.0991  0.4727 -0.2661
 9650SOL    HW130371   1.660   5.309   8.093 -0.7258  0.5776  0.4618
 9650SOL    HW230372   1.659   5.390   7.966  0.7308  0.7418  0.5356
 9651SOL     OW30373   4.602   3.400   5.659 -0.1429 -0.0637 -0.6551
 9651SOL    HW130374   4.579   3.315   5.697  2.2927 -0.4823  0.0498
 9651SOL    HW230375   4.697   3.401   5.656 -0.1163  2.0408 -2.1242
 9652SOL     OW30376   1.241   6.552   2.217  0.2205 -0.0179 -0.0759
 9652SOL    HW130377   1.190   6.632   2.231  0.5319  0.3844 -1.1358
 9652SOL    HW230378   1.207   6.516   2.134 -1.4752 -2.2183  1.4449
 9653SOL     OW30379   2.157   6.689   0.582 -0.5066 -0.2023 -0.0249
 9653SOL    HW130380   2.243   6.715   0.549 -0.2551 -0.1909  0.6305
 9653SOL    HW230381   2.118   6.640   0.510  0.1402 -0.4032 -0.2438
 9654SOL     OW30382   9.042   4.388   6.619  0.1215  0.9436  0.0247
 9654SOL    HW130383   9.100   4.353   6.551  2.6794  0.5796  2.2383
 9654SOL    HW230384   8.995   4.312   6.651 -0.2241  0.9171 -0.5374
 9655SOL     OW30385   4.209   6.734   5.999  0.0955  0.0212 -0.0148
 9655SOL    HW130386   4.148   6.752   6.070 -1.2847  1.1640 -1.4248
 9655SOL    HW230387   4.266   6.810   5.996  0.1703 -0.0386 -0.1168
 9656SOL     OW30388   8.756   0.161   2.284  0.3220 -0.1559  0.0888
 9656SOL    HW130389   8.776   0.223   2.213  0.4385  0.8298  0.9637
 9656SOL    HW230390   8.707   0.091   2.241  2.4835 -0.8516 -1.4603
 9657SOL     OW30391   8.437   3.903   0.424 -0.5415  0.0180  0.4051
 9657SOL    HW130392   8.483   3.978   0.462  2.5923 -1.3105 -0.4713
 9657SOL    HW230393   8.450   3.832   0.487 -0.7518 -0.5986 -0.2296
 9658SOL     OW30394   1.422   4.873   5.252  0.1902  0.4324  0.4956
 9658SOL    HW130395   1.403   4.788   5.212  0.7058  0.1188  0.8991
 9658SOL    HW230396   1.517   4.881   5.244  0.0526  1.4040 -0.3867
 9659SOL     OW30397   3.870   3.729   7.208 -0.0758 -0.1818  0.6080
 9659SOL    HW130398   3.813   3.780   7.150 -2.5523 -2.6729  0.6256
 9659SOL    HW230399   3.932   3.686   7.150 -0.5185 -0.1961  0.1348
 9660SOL     OW30400   3.644   1.709   9.131 -0.0883  0.4378  0.0049
 9660SOL    HW130401   3.648   1.711   9.035 -1.0339 -0.3592 -0.0667
 9660SOL    HW230402   3.717   1.764   9.159  0.0408  0.9019 -1.1742
 9661SOL     OW30403   8.820   4.417   5.513 -1.0052 -0.1224  0.1593
 9661SOL    HW130404   8.783   4.481   5.573 -2.2767 -0.4444 -0.2616
 9661SOL    HW230405   8.899   4.458   5.479 -1.1356  0.7037  0.8411
 9662SOL     OW30406   4.498   9.255   8.578 -0.0109  0.3095 -0.4168
 9662SOL    HW130407   4.481   9.173   8.624 -3.3204  0.4763 -1.0819
 9662SOL    HW230408   4.549   9.307   8.639  0.5999 -1.5684  0.7321
 9663SOL     OW30409   3.348   1.245   4.419 -0.4721 -0.1538 -0.3483
 9663SOL    HW130410   3.318   1.229   4.509  2.2954 -0.6679  0.6152
 9663SOL    HW230411   3.302   1.179   4.367  0.9341 -2.7883  1.4571
 9664SOL     OW30412   8.181   8.324   2.540 -0.0839 -0.3404 -0.7382
 9664SOL    HW130413   8.233   8.343   2.462  0.2747  1.5152 -0.0951
 9664SOL    HW230414   8.240   8.271   2.595  0.6359  0.5512 -0.6254
 9665SOL     OW30415   6.900   7.978   4.365 -0.5955 -0.1236 -0.1219
 9665SOL    HW130416   6.943   7.939   4.441 -0.8498  0.6438  0.4337
 9665SOL    HW230417   6.874   8.066   4.394 -0.5079  0.2720 -1.1648
 9666SOL     OW30418   8.828   0.622   8.757 -0.5527 -0.4473  0.2373
 9666SOL    HW130419   8.793   0.572   8.830 -1.3575 -0.5311 -0.1993
 9666SOL    HW230420   8.857   0.556   8.694  1.7069 -0.4267  1.1520
 9667SOL     OW30421   1.578   5.310   7.696  0.2582 -0.0054  0.3061
 9667SOL    HW130422   1.639   5.376   7.729 -0.7679  2.0071 -1.5336
 9667SOL    HW230423   1.492   5.337   7.730  0.1483 -2.0747  1.8387
 9668SOL     OW30424   0.511   6.536   6.748  0.2424 -0.1905 -0.4059
 9668SOL    HW130425   0.424   6.500   6.767 -0.4936  1.4630 -0.4983
 9668SOL    HW230426   0.527   6.597   6.819  0.9842  0.1184 -0.8340
 9669SOL     OW30427   1.423   8.954   5.041 -0.4843 -0.1058  0.0968
 9669SOL    HW130428   1.395   9.045   5.033  0.0330  0.0484  0.0570
 9669SOL    HW230429   1.499   8.946   4.984  0.2820 -0.2225  1.1078
 9670SOL     OW30430   7.428   2.446   3.464 -0.0241 -0.0910 -0.3157
 9670SOL    HW130431   7.427   2.542   3.458  0.5717 -0.1795 -3.0842
 9670SOL    HW230432   7.457   2.428   3.553 -0.5585  2.2855  0.4109
 9671SOL     OW30433   5.045   6.546   0.769 -0.6307 -0.4505 -0.2388
 9671SOL    HW130434   5.034   6.617   0.706  0.2125 -0.6608 -0.6374
 9671SOL    HW230435   4.978   6.562   0.836 -0.9622  0.2630 -0.7345
 9672SOL     OW30436   0.897   2.754   5.267  0.9558 -0.5290 -0.2460
 9672SOL    HW130437   0.920   2.664   5.291  0.3960 -0.1921  1.7869
 9672SOL    HW230438   0.938   2.808   5.335 -0.3375  0.5782 -0.3033
 9673SOL     OW30439   8.429   3.323   2.788 -0.1596 -0.1683  0.5372
 9673SOL    HW130440   8.474   3.380   2.851  0.2558  0.6620 -0.4818
 9673SOL    HW230441   8.498   3.265   2.756 -0.3440 -0.5047  0.7441
 9674SOL     OW30442   5.300   8.241   1.995  0.1101  0.2418 -0.3773
 9674SOL    HW130443   5.386   8.202   2.012  0.4059  0.4435 -1.3304
 9674SOL    HW230444   5.238   8.176   2.028  0.6218  0.0083  0.1509
 9675SOL     OW30445   3.162   3.330   8.061  0.6898 -0.0152 -0.5514
 9675SOL    HW130446   3.200   3.408   8.100  0.5167  1.1692 -2.6089
 9675SOL    HW230447   3.069   3.351   8.050  0.0129 -1.6443  1.4762
 9676SOL     OW30448   6.046   2.419   7.554  0.0756  0.0781  0.8928
 9676SOL    HW130449   6.004   2.413   7.640 -0.7168  0.9726  0.5961
 9676SOL    HW230450   6.005   2.496   7.514  0.3457 -0.4026 -0.3294
 9677SOL     OW30451   1.068   6.168   0.169 -0.5617  0.1828 -0.1203
 9677SOL    HW130452   0.999   6.174   0.103 -2.0525 -1.0755  1.2250
 9677SOL    HW230453   1.144   6.135   0.121 -1.3369  0.1407 -1.3698
 9678SOL     OW30454   6.579   1.656   8.602 -0.5766  0.1519 -0.8469
 9678SOL    HW130455   6.550   1.572   8.638 -1.2707  0.2262 -1.2120
 9678SOL    HW230456   6.576   1.644   8.507  1.7437 -0.2156 -0.9336
 9679SOL     OW30457   1.636   0.123   4.439 -0.4024  0.6048  0.4356
 9679SOL    HW130458   1.603   0.178   4.368 -0.3359 -0.2480 -0.2806
 9679SOL    HW230459   1.686   0.183   4.495  0.1162  1.1778 -0.6077
 9680SOL     OW30460   2.149   2.460   4.646  0.1704  0.3173  0.0945
 9680SOL    HW130461   2.226   2.434   4.696 -0.8576 -0.3773  1.3840
 9680SOL    HW230462   2.169   2.549   4.615  1.8537 -0.2212 -0.4368
 9681SOL     OW30463   2.856   1.047   0.062  0.3305 -0.9015 -0.0219
 9681SOL    HW130464   2.861   1.088  -0.025  0.7530 -1.3483 -0.2155
 9681SOL    HW230465   2.770   1.005   0.065 -0.2958  0.3617  0.3500
 9682SOL     OW30466   2.768   0.600   1.200 -0.5693  0.1350  0.2496
 9682SOL    HW130467   2.806   0.683   1.230  0.1482  0.1764 -0.7404
 9682SOL    HW230468   2.727   0.564   1.278 -0.2323  1.0608  0.8799
 9683SOL     OW30469   8.407   8.690   0.100 -0.1994 -0.2079 -0.0087
 9683SOL    HW130470   8.329   8.675   0.154  1.1779  0.6075  2.3740
 9683SOL    HW230471   8.411   8.785   0.089  0.1447 -0.2858 -0.6146
 9684SOL     OW30472   2.492   3.424   6.265  0.2262 -0.2019  0.2510
 9684SOL    HW130473   2.467   3.512   6.238 -0.2942 -0.3025  0.3801
 9684SOL    HW230474   2.542   3.436   6.345  0.2941 -0.0129  0.1797
 9685SOL     OW30475   8.620   1.610   8.191 -0.8910  0.3978  0.0722
 9685SOL    HW130476   8.606   1.649   8.105 -0.4624 -0.4768 -0.3997
 9685SOL    HW230477   8.683   1.540   8.177 -2.4733 -1.2432  0.6699
 9686SOL     OW30478   3.612   7.158   5.702 -0.1115  0.2998 -0.2427
 9686SOL    HW130479   3.675   7.228   5.685 -0.1994  0.1146 -1.4175
 9686SOL    HW230480   3.635   7.090   5.639 -1.0553 -0.0622 -0.2018
 9687SOL     OW30481   6.127   1.721   5.817 -0.6064 -0.2037 -0.2919
 9687SOL    HW130482   6.208   1.691   5.775 -0.6929 -2.9413  1.2655
 9687SOL    HW230483   6.152   1.740   5.907 -1.3940  0.6101 -0.2274
 9688SOL     OW30484   7.710   3.146   4.079  0.0803  1.0647 -0.3755
 9688SOL    HW130485   7.655   3.216   4.115 -0.0633 -0.3990  2.5216
 9688SOL    HW230486   7.702   3.074   4.141  1.8849 -0.8121 -2.1387
 9689SOL     OW30487   0.886   8.807   1.967  0.1453 -0.5664  0.0693
 9689SOL    HW130488   0.908   8.720   2.000 -1.1183 -0.3480  1.6010
 9689SOL    HW230489   0.793   8.819   1.989  0.0605  0.8252 -0.8909
 9690SOL     OW30490   6.294   4.636   1.129  0.0814 -0.3656 -0.1757
 9690SOL    HW130491   6.305   4.723   1.167 -2.1166  1.3674 -3.0765
 9690SOL    HW230492   6.364   4.630   1.063 -0.2189 -0.4708 -0.4878
 9691SOL     OW30493   7.689   4.814   5.961 -0.0320  0.0896 -0.6056
 9691SOL    HW130494   7.628   4.742   5.944  0.0172 -0.0387 -0.2411
 9691SOL    HW230495   7.736   4.825   5.878 -0.0107 -0.3269 -0.6510
 9692SOL     OW30496   7.443   5.553   4.896 -0.3288  0.3538  0.4531
 9692SOL    HW130497   7.442   5.634   4.845  0.3009  0.8489  1.2124
 9692SOL    HW230498   7.536   5.531   4.902 -0.2035  1.3552  3.0380
 9693SOL     OW30499   7.420   8.031   8.839 -0.2238 -0.2746 -0.8080
 9693SOL    HW130500   7.424   8.107   8.898 -1.6333  0.2604 -1.3652
 9693SOL    HW230501   7.377   8.064   8.760 -0.0910 -1.4533 -1.3953
 9694SOL     OW30502   6.041   1.938   5.691  0.6644  0.1766 -0.2683
 9694SOL    HW130503   6.099   1.926   5.616  1.6350 -0.2841  0.5321
 9694SOL    HW230504   6.058   1.862   5.747 -1.0542 -0.2133 -0.2138
 9695SOL     OW30505   2.696   4.009   3.215  0.3172 -0.5806 -0.1084
 9695SOL    HW130506   2.626   3.970   3.162 -0.4179  0.7957 -0.2061
 9695SOL    HW230507   2.653   4.031   3.298  0.5612  0.4283 -0.2263
 9696SOL     OW30508   5.661   6.220   0.627 -0.2621  0.2158  0.0417
 9696SOL    HW130509   5.583   6.268   0.602  0.3734  1.3268  0.1056
 9696SOL    HW230510   5.647   6.196   0.718  0.3887  2.3940  0.7703
 9697SOL     OW30511   2.472   0.465   2.656 -0.3764  0.0135  0.3771
 9697SOL    HW130512   2.466   0.380   2.613 -0.0126 -0.2073  0.7531
 9697SOL    HW230513   2.395   0.513   2.627 -0.2293 -0.2000 -0.3728
 9698SOL     OW30514   3.404   1.962   8.872  0.3032  0.0907  0.3555
 9698SOL    HW130515   3.488   1.917   8.872  0.2524 -0.0033  0.2513
 9698SOL    HW230516   3.344   1.901   8.917 -0.1396 -0.6383 -1.1630
 9699SOL     OW30517   6.790   1.951   5.542 -0.2318 -0.1967 -0.7274
 9699SOL    HW130518   6.872   1.948   5.493  0.6523  3.1387  0.2940
 9699SOL    HW230519   6.731   2.005   5.489 -0.6480  0.1010  0.0152
 9700SOL     OW30520   7.308   2.798   1.297 -0.4254  0.1613 -0.1970
 9700SOL    HW130521   7.360   2.848   1.360 -0.4780 -0.3875  0.2916
 9700SOL    HW230522   7.365   2.727   1.270 -1.2762 -1.1164  1.2050
 9701SOL     OW30523   2.107   3.485   9.142 -0.0463 -0.6345 -0.1134
 9701SOL    HW130524   2.090   3.428   9.067 -0.8836 -0.5313 -0.0191
 9701SOL    HW230525   2.182   3.445   9.186  0.2963 -0.8363 -0.8623
 9702SOL     OW30526   6.912   4.536   2.743  0.0917  1.0952 -0.1309
 9702SOL    HW130527   6.950   4.449   2.731  0.7121  1.2048  0.9215
 9702SOL    HW230528   6.818   4.521   2.745  0.2375  0.2556  1.3754
 9703SOL     OW30529   4.248   1.681   8.586  0.5961  0.2192 -0.5612
 9703SOL    HW130530   4.294   1.634   8.656  1.0416 -0.4305 -1.2673
 9703SOL    HW230531   4.188   1.616   8.549  0.4925  0.5034 -0.8994
 9704SOL     OW30532   7.972   3.486   2.485  0.3348 -0.6000 -0.5007
 9704SOL    HW130533   8.049   3.501   2.539  2.4335 -0.9442 -3.1573
 9704SOL    HW230534   7.984   3.398   2.450 -0.9645 -0.4385 -1.4331
 9705SOL     OW30535   1.755   4.887   6.875  0.1933  0.0919 -0.1413
 9705SOL    HW130536   1.788   4.853   6.792  1.7028  0.9884  0.0685
 9705SOL    HW230537   1.784   4.822   6.940 -0.6395 -0.3967 -0.2287
 9706SOL     OW30538   3.887   3.535   6.615  0.0252 -0.0518  0.4263
 9706SOL    HW130539   3.954   3.487   6.663  1.6933  1.0067 -0.7479
 9706SOL    HW230540   3.893   3.624   6.647 -0.8490  0.0615  0.3073
 9707SOL     OW30541   6.423   5.419   7.363 -0.2810  0.0173 -0.2175
 9707SOL    HW130542   6.415   5.484   7.433 -0.9329 -0.6388  0.3348
 9707SOL    HW230543   6.464   5.343   7.405 -1.1136 -0.5550 -0.4289
 9708SOL     OW30544   2.044   6.313   7.109  0.4696  0.0269 -1.0632
 9708SOL    HW130545   2.087   6.360   7.180  1.0219  0.7369 -1.8467
 9708SOL    HW230546   2.091   6.230   7.103  0.1823 -0.1897 -0.3701
 9709SOL     OW30547   2.374   9.012   7.269 -0.4368  0.1082 -0.0504
 9709SOL    HW130548   2.431   9.081   7.234 -1.0821  0.0463 -1.2570
 9709SOL    HW230549   2.381   9.021   7.364  2.1318 -0.3568 -0.1399
 9710SOL     OW30550   2.918   3.327   1.956 -0.3423  0.2540 -0.6815
 9710SOL    HW130551   2.939   3.315   1.863  2.3224 -0.4766 -0.0758
 9710SOL    HW230552   3.002   3.350   1.997 -1.1533 -0.7750  1.7642
 9711SOL     OW30553   6.617   4.127   3.227  0.3384  0.1380  0.2798
 9711SOL    HW130554   6.566   4.191   3.277  1.4932  1.1252  0.2280
 9711SOL    HW230555   6.551   4.069   3.189 -0.6344  0.0149  2.0315
 9712SOL     OW30556   7.045   7.330   0.205 -0.1633 -0.1465  0.5633
 9712SOL    HW130557   6.963   7.363   0.242  0.4277  1.1559  0.7665
 9712SOL    HW230558   7.093   7.408   0.179  0.6235 -0.9301 -0.4321
 9713SOL     OW30559   7.013   8.524   8.918  0.6281  0.0721 -0.1598
 9713SOL    HW130560   7.002   8.546   9.010 -2.7581 -1.1201 -0.1316
 9713SOL    HW230561   6.977   8.598   8.871  1.9582  0.4914 -0.5590
 9714SOL     OW30562   0.306   5.561   1.361 -0.6774 -0.0508 -0.0989
 9714SOL    HW130563   0.283   5.472   1.335  0.9141 -0.3008 -0.8033
 9714SOL    HW230564   0.385   5.581   1.311 -0.3168  1.3180  0.9398
 9715SOL     OW30565   6.490   2.683   1.323  0.2370 -0.2961 -0.2633
 9715SOL    HW130566   6.581   2.655   1.329 -0.0052 -0.7043  3.4408
 9715SOL    HW230567   6.443   2.627   1.384 -1.4126  3.6827  2.5859
 9716SOL     OW30568   6.602   1.888   6.546  0.1340 -0.5197  0.1683
 9716SOL    HW130569   6.650   1.871   6.627 -1.1382 -0.8003  0.8940
 9716SOL    HW230570   6.527   1.829   6.550 -0.0038 -0.4641 -1.1814
 9717SOL     OW30571   8.662   2.028   5.899  0.4438  0.0155  0.0187
 9717SOL    HW130572   8.667   2.002   5.991 -0.6427  0.6514  0.2631
 9717SOL    HW230573   8.672   1.945   5.851 -1.0936 -0.6411  0.7560
 9718SOL     OW30574   5.513   4.486   5.707 -0.3170 -0.1326 -0.3354
 9718SOL    HW130575   5.555   4.448   5.784  0.9891  0.4242 -0.7385
 9718SOL    HW230576   5.420   4.477   5.724 -0.0667 -2.1243  0.2563
 9719SOL     OW30577   8.936   4.793   2.642 -0.1661  0.2957  0.2275
 9719SOL    HW130578   8.972   4.820   2.726  0.3044 -1.5488  0.6667
 9719SOL    HW230579   8.869   4.859   2.622 -1.0719  0.1888  2.5956
 9720SOL     OW30580   2.267   9.048   4.235 -0.2844 -0.9396 -0.4657
 9720SOL    HW130581   2.355   9.084   4.226 -0.1261 -0.3924  2.3034
 9720SOL    HW230582   2.277   8.972   4.293 -1.7501  0.0366  1.1940
 9721SOL     OW30583   0.920   3.933   4.362  0.4135  0.4998  0.1480
 9721SOL    HW130584   0.915   3.996   4.434 -1.3341  1.6491 -0.9357
 9721SOL    HW230585   0.843   3.878   4.373  0.2696  0.5195 -0.7016
 9722SOL     OW30586   7.615   4.449   4.568 -0.1464 -0.3191  0.1202
 9722SOL    HW130587   7.528   4.487   4.581 -0.8979 -1.5074 -1.0651
 9722SOL    HW230588   7.675   4.522   4.575 -1.2674  0.5737  0.7448
 9723SOL     OW30589   0.424   7.888   6.237  0.0426  0.7350  0.3284
 9723SOL    HW130590   0.453   7.975   6.264  1.4239  0.6540 -0.8054
 9723SOL    HW230591   0.487   7.828   6.277  0.1728  0.3947 -0.3652
 9724SOL     OW30592   2.911   6.889   8.301 -0.4708 -0.8970  0.1551
 9724SOL    HW130593   2.912   6.871   8.207 -0.9913 -2.0508  0.3489
 9724SOL    HW230594   3.004   6.899   8.324 -0.2415 -1.8942 -0.2665
 9725SOL     OW30595   2.205   7.518   7.107  0.0950  0.2126  0.3787
 9725SOL    HW130596   2.293   7.524   7.070 -0.6390  0.9391 -1.3730
 9725SOL    HW230597   2.148   7.507   7.030 -1.5118  1.7474  1.2830
 9726SOL     OW30598   8.601   6.443   9.061 -0.5834 -0.3105  0.0059
 9726SOL    HW130599   8.505   6.444   9.054 -0.6510  2.3544  0.2851
 9726SOL    HW230600   8.620   6.491   9.141  1.0054  2.2003 -1.7292
 9727SOL     OW30601   1.579   4.027   7.973  0.2562  0.2971 -0.0893
 9727SOL    HW130602   1.583   3.976   8.054 -1.9813 -0.7834 -0.5861
 9727SOL    HW230603   1.666   4.015   7.934  0.9894 -0.1112  1.5714
 9728SOL     OW30604   9.018   6.328   7.638  0.1358  0.0080 -0.0437
 9728SOL    HW130605   9.097   6.353   7.687  0.3519 -0.9078  0.0946
 9728SOL    HW230606   8.959   6.402   7.650  0.8127  0.5236  0.2125
 9729SOL     OW30607   8.832   4.141   8.478 -0.0153 -0.0500  0.2392
 9729SOL    HW130608   8.843   4.080   8.551  0.1326  0.5055  0.6864
 9729SOL    HW230609   8.761   4.199   8.506  0.1722  0.2869  0.0198
 9730SOL     OW30610   5.643   2.860   5.765 -0.0394  0.4472  0.4750
 9730SOL    HW130611   5.712   2.823   5.820 -0.0049 -0.7261 -0.3274
 9730SOL    HW230612   5.567   2.869   5.823 -0.0630 -0.9581  0.6858
 9731SOL     OW30613   3.725   1.907   4.771 -0.2487  0.8351 -0.1424
 9731SOL    HW130614   3.711   1.861   4.853  0.9090 -1.2223 -1.0258
 9731SOL    HW230615   3.786   1.978   4.794 -0.6374  0.8477  0.9124
 9732SOL     OW30616   2.286   1.245   4.166 -0.4774  0.5422  0.2193
 9732SOL    HW130617   2.307   1.199   4.247  2.3369  2.4964  0.7446
 9732SOL    HW230618   2.312   1.336   4.182 -1.0309  1.2689 -2.4521
 9733SOL     OW30619   9.109   9.177   1.049  0.0229  0.4482 -0.2255
 9733SOL    HW130620   9.024   9.161   1.091 -0.0490  2.5256  0.5456
 9733SOL    HW230621   9.108   9.121   0.972 -1.7644 -0.0887  0.1197
 9734SOL     OW30622   9.047   1.601   0.538  0.3123  0.3615 -0.3364
 9734SOL    HW130623   9.052   1.528   0.476 -0.1363 -0.9065  1.0336
 9734SOL    HW230624   9.130   1.596   0.586 -0.2862 -0.1842  0.7002
 9735SOL     OW30625   3.796   5.706   2.038  0.0876 -0.1562 -0.0956
 9735SOL    HW130626   3.826   5.697   2.128  0.6886 -0.9672 -0.3634
 9735SOL    HW230627   3.869   5.749   1.993  0.6145 -1.5099 -0.5981
 9736SOL     OW30628   5.504   0.723   5.684  0.6198  0.1402 -0.3723
 9736SOL    HW130629   5.548   0.713   5.600  0.0618  0.6949 -0.7443
 9736SOL    HW230630   5.490   0.817   5.693 -1.2998 -0.0527 -0.7237
 9737SOL     OW30631   5.750   8.363   4.657 -0.4645  0.5786 -0.0213
 9737SOL    HW130632   5.833   8.401   4.686 -1.2337  3.1262 -0.9109
 9737SOL    HW230633   5.774   8.308   4.583  0.4075  1.7353 -0.6385
 9738SOL     OW30634   8.389   1.048   4.893  0.9610  0.0492 -0.0278
 9738SOL    HW130635   8.470   1.044   4.842  1.6579 -0.4377  1.0837
 9738SOL    HW230636   8.413   1.098   4.971  0.5951 -1.3722  1.0184
 9739SOL     OW30637   5.361   1.608   5.862 -0.2939 -0.0078 -0.1276
 9739SOL    HW130638   5.400   1.571   5.782  0.7495 -0.1763  0.4330
 9739SOL    HW230639   5.335   1.696   5.837  1.4306  0.5071 -0.2882
 9740SOL     OW30640   5.166   9.159   7.139 -0.2091 -0.3865  0.1313
 9740SOL    HW130641   5.122   9.077   7.116 -0.1802 -0.4394  0.2625
 9740SOL    HW230642   5.247   9.158   7.086 -1.6351  1.0232 -2.2822
 9741SOL     OW30643   5.498   8.260   2.838  0.1174 -0.1412 -0.1211
 9741SOL    HW130644   5.428   8.202   2.806 -0.9602  1.0723 -0.0218
 9741SOL    HW230645   5.516   8.229   2.927 -0.4209 -0.3421 -0.0815
 9742SOL     OW30646   8.652   1.768   4.125 -0.3971 -0.2281  0.6649
 9742SOL    HW130647   8.614   1.853   4.102  0.6410  0.0661 -0.0045
 9742SOL    HW230648   8.595   1.735   4.195 -2.9474 -0.6019 -1.4334
 9743SOL     OW30649   0.233   7.214   4.771 -0.4096 -0.0090  0.2322
 9743SOL    HW130650   0.183   7.295   4.773 -0.6271 -0.1502  0.5770
 9743SOL    HW230651   0.209   7.168   4.852  0.7765  0.2144  0.7394
 9744SOL     OW30652   3.675   4.670   3.891  0.1276  0.0719  0.4137
 9744SOL    HW130653   3.612   4.650   3.822 -0.0354  0.1899  0.5286
 9744SOL    HW230654   3.654   4.759   3.918 -0.1288 -0.1447  0.9568
 9745SOL     OW30655   1.927   0.205   5.130  0.0374 -0.1239 -0.1109
 9745SOL    HW130656   1.985   0.220   5.204 -1.1755  1.3059  0.5966
 9745SOL    HW230657   1.839   0.208   5.167 -0.5542 -0.9737 -1.3676
 9746SOL     OW30658   7.348   0.039   6.611 -0.4835  0.2154 -0.6339
 9746SOL    HW130659   7.277   0.033   6.674 -1.2822  0.1597 -1.5053
 9746SOL    HW230660   7.403  -0.037   6.629 -1.0327 -0.1310 -0.3963
 9747SOL     OW30661   5.473   2.697   3.350  0.1140 -0.3752 -0.0719
 9747SOL    HW130662   5.509   2.771   3.400  0.4041 -0.3012 -0.3817
 9747SOL    HW230663   5.385   2.685   3.384  0.2548 -0.2279  0.3528
 9748SOL     OW30664   3.824   1.375   0.105 -0.4145  0.1288  0.3424
 9748SOL    HW130665   3.737   1.376   0.143 -0.2082 -0.1668  0.8221
 9748SOL    HW230666   3.814   1.328   0.022 -0.9622  1.2153 -0.2198
 9749SOL     OW30667   1.907   1.297   2.184  0.1698 -0.6060  0.1320
 9749SOL    HW130668   1.823   1.288   2.228  0.6044 -0.8716  0.9314
 9749SOL    HW230669   1.894   1.369   2.122 -1.6643 -2.7852 -2.2712
 9750SOL     OW30670   5.166   2.652   7.190 -0.4461 -0.4160  0.1623
 9750SOL    HW130671   5.188   2.566   7.226  1.1392  0.5043  1.5368
 9750SOL    HW230672   5.182   2.644   7.096  0.1417 -1.4953  0.3378
 9751SOL     OW30673   4.368   5.618   1.028  0.0675 -0.1130  0.4397
 9751SOL    HW130674   4.411   5.661   0.953 -0.4003 -0.5543 -0.0903
 9751SOL    HW230675   4.405   5.530   1.029  0.2821 -0.0235  0.9145
 9752SOL     OW30676   6.850   4.138   2.902 -0.5444  0.6399 -0.9658
 9752SOL    HW130677   6.801   4.194   2.963  0.2861  1.6963 -1.2384
 9752SOL    HW230678   6.790   4.066   2.883 -1.3157  0.9697  0.0786
 9753SOL     OW30679   8.499   6.902   3.869  0.0193  0.1503 -0.1550
 9753SOL    HW130680   8.494   6.945   3.954  1.9490  1.4929 -0.6572
 9753SOL    HW230681   8.523   6.811   3.890 -2.0739 -0.2438  0.8051
 9754SOL     OW30682   1.532   3.662   2.667 -0.0389 -0.1017  0.4076
 9754SOL    HW130683   1.540   3.573   2.633 -1.6917 -0.2912  0.4218
 9754SOL    HW230684   1.505   3.651   2.758  1.4103  0.4298  0.9337
 9755SOL     OW30685   1.822   7.409   5.611 -0.2668  0.0379 -0.3806
 9755SOL    HW130686   1.856   7.483   5.559 -0.2625  0.1480 -0.2208
 9755SOL    HW230687   1.882   7.400   5.684 -0.6133  0.2775 -0.0607
 9756SOL     OW30688   7.280   8.391   7.765  0.1736 -0.1941 -0.5248
 9756SOL    HW130689   7.189   8.362   7.767  0.5588 -1.4883 -0.3583
 9756SOL    HW230690   7.330   8.310   7.747  1.2285  0.6117 -1.3820
 9757SOL     OW30691   7.073   0.450   7.013  0.1787  0.3757  0.4561
 9757SOL    HW130692   6.997   0.414   7.059  0.0750  1.8065  1.4902
 9757SOL    HW230693   7.051   0.542   6.999  2.4798  1.3714  2.6342
 9758SOL     OW30694   2.801   3.160   3.398  0.7422  0.1749 -0.0107
 9758SOL    HW130695   2.833   3.082   3.445 -1.0693  0.1825  1.3732
 9758SOL    HW230696   2.711   3.136   3.372  0.9118  1.0399 -1.4981
 9759SOL     OW30697   5.065   3.426   1.565 -0.0531  0.0964  0.2688
 9759SOL    HW130698   5.024   3.397   1.483 -1.9597 -0.5040  1.3662
 9759SOL    HW230699   5.057   3.522   1.562 -0.1996  0.0761 -0.1917
 9760SOL     OW30700   0.852   5.763   3.263 -0.2892  0.1719  0.3653
 9760SOL    HW130701   0.943   5.791   3.251  1.0497 -2.0516  3.7905
 9760SOL    HW230702   0.838   5.699   3.194  1.0837 -0.0744  0.2787
 9761SOL     OW30703   4.966   7.313   5.445  0.3549 -0.1051  0.7146
 9761SOL    HW130704   4.934   7.373   5.513 -0.2551  0.1583  0.2036
 9761SOL    HW230705   4.906   7.238   5.449 -0.4588  0.4481 -0.3334
 9762SOL     OW30706   8.897   3.299   7.370 -0.2899 -0.3611  0.1569
 9762SOL    HW130707   8.812   3.324   7.406 -0.8907  0.9457 -1.9592
 9762SOL    HW230708   8.956   3.370   7.395 -0.2717 -0.3499  0.0834
 9763SOL     OW30709   3.886   3.878   2.857 -0.9999  0.2883 -0.6259
 9763SOL    HW130710   3.945   3.826   2.802  0.0383  0.4386  0.2991
 9763SOL    HW230711   3.799   3.845   2.836 -0.3307 -3.1907  1.1994
 9764SOL     OW30712   0.562   5.676   8.026 -0.9402 -0.1567 -0.5438
 9764SOL    HW130713   0.540   5.657   8.118 -0.6695  0.0307 -0.4396
 9764SOL    HW230714   0.654   5.652   8.018 -0.8966  0.0660 -0.7035
 9765SOL     OW30715   1.400   1.580   3.044  0.6086  0.1225  0.5168
 9765SOL    HW130716   1.404   1.643   2.972 -0.0852 -1.0133 -0.5621
 9765SOL    HW230717   1.476   1.524   3.031  2.1148  1.5892  2.3770
 9766SOL     OW30718   2.576   2.128   2.491 -0.2895 -0.1017 -0.2955
 9766SOL    HW130719   2.496   2.077   2.476  0.1520 -1.2306  0.9274
 9766SOL    HW230720   2.613   2.091   2.571  1.3378  0.5595 -0.6945
 9767SOL     OW30721   3.082   3.108   6.004 -0.1076 -0.2559  0.5284
 9767SOL    HW130722   3.099   3.114   5.910 -0.4386 -0.4218  0.4597
 9767SOL    HW230723   2.988   3.096   6.011 -0.5650  2.7823  0.9757
 9768SOL     OW30724   6.981   2.808   7.450 -0.2410 -0.1828 -0.9310
 9768SOL    HW130725   6.936   2.830   7.531  1.0796  1.4240 -0.5676
 9768SOL    HW230726   6.922   2.837   7.380 -1.0939 -0.9572 -0.5422
 9769SOL     OW30727   2.423   3.406   5.310  0.0241  0.0178 -0.1960
 9769SOL    HW130728   2.373   3.338   5.265  0.2941 -0.4084  0.1413
 9769SOL    HW230729   2.359   3.449   5.366 -0.1967  0.1949 -0.5760
 9770SOL     OW30730   4.112   2.507   6.731  0.3063  0.0638 -0.1181
 9770SOL    HW130731   4.143   2.596   6.717  1.5861  0.2377  3.1274
 9770SOL    HW230732   4.017   2.515   6.733  0.3821  1.2345 -0.5050
 9771SOL     OW30733   0.329   1.110   2.874  0.1019 -0.0102  0.1877
 9771SOL    HW130734   0.389   1.092   2.801  2.2027  2.0507  1.2503
 9771SOL    HW230735   0.386   1.112   2.951 -1.4285  1.4527  1.3377
 9772SOL     OW30736   8.919   3.779   3.591 -0.7115  0.0867 -0.0287
 9772SOL    HW130737   8.839   3.823   3.562 -2.0071 -0.7927  1.9788
 9772SOL    HW230738   8.941   3.820   3.675  0.2168 -0.5493  0.0609
 9773SOL     OW30739   6.338   3.466   5.050 -0.2110  0.2941 -0.3902
 9773SOL    HW130740   6.249   3.484   5.018 -0.2588  0.0909 -0.3782
 9773SOL    HW230741   6.326   3.442   5.142 -0.1330  0.3549 -0.3641
 9774SOL     OW30742   3.462   6.521   0.226 -0.1790  0.1690 -0.0775
 9774SOL    HW130743   3.553   6.548   0.214  0.3955 -1.4776  0.2962
 9774SOL    HW230744   3.426   6.516   0.137  0.4211 -0.1892 -0.3071
 9775SOL     OW30745   6.533   7.042   5.952  0.3815  0.2579 -0.1508
 9775SOL    HW130746   6.581   7.124   5.963 -1.2599  1.5128 -1.8279
 9775SOL    HW230747   6.442   7.068   5.940 -0.5503 -1.9515  1.3393
 9776SOL     OW30748   6.576   4.661   0.434  0.3966  0.1092  0.1706
 9776SOL    HW130749   6.524   4.707   0.368  0.4636 -1.6860 -1.1855
 9776SOL    HW230750   6.538   4.573   0.438  1.0581 -0.1460  1.8053
 9777SOL     OW30751   4.819   6.682   1.232 -0.5782 -0.0286 -0.0270
 9777SOL    HW130752   4.775   6.668   1.315 -0.8390  1.0482  0.0330
 9777SOL    HW230753   4.776   6.759   1.194 -0.1505 -0.2202 -0.9367
 9778SOL     OW30754   3.777   2.146   8.970 -0.3284 -0.0359  0.3565
 9778SOL    HW130755   3.757   2.239   8.986  2.5648  0.7716 -0.1532
 9778SOL    HW230756   3.819   2.117   9.051 -0.9850 -0.8732  0.4111
 9779SOL     OW30757   4.467   8.997   6.519 -0.8580 -0.3361  0.0710
 9779SOL    HW130758   4.480   8.933   6.450  0.3943  0.0891 -0.1166
 9779SOL    HW230759   4.451   9.079   6.474 -1.2110 -0.2765  0.2997
 9780SOL     OW30760   8.048   4.960   0.933  0.3883 -0.4642 -0.4653
 9780SOL    HW130761   8.118   5.014   0.896 -1.7140  2.4380 -0.5113
 9780SOL    HW230762   7.986   4.949   0.861 -0.9104  0.1580  0.5154
 9781SOL     OW30763   6.260   6.064   5.852 -0.2507  0.3562 -0.0729
 9781SOL    HW130764   6.175   6.032   5.823  0.4344  0.4251 -2.3005
 9781SOL    HW230765   6.274   6.145   5.803  0.5258  1.1046  1.3009
 9782SOL     OW30766   4.699   3.445   1.733 -0.6279  0.1918 -0.2087
 9782SOL    HW130767   4.614   3.442   1.778 -0.6226  0.7058 -0.1536
 9782SOL    HW230768   4.747   3.370   1.767  0.0349  1.5020  1.9580
 9783SOL     OW30769   7.239   3.138   3.610  0.6773 -0.7652 -0.1961
 9783SOL    HW130770   7.143   3.128   3.612  0.2454  2.3302 -0.0976
 9783SOL    HW230771   7.261   3.136   3.517  0.0136  1.5382 -0.4654
 9784SOL     OW30772   3.955   1.000   7.550 -0.2952 -0.2146 -0.1350
 9784SOL    HW130773   3.865   1.023   7.526 -0.4175 -1.1757 -0.6418
 9784SOL    HW230774   3.969   0.914   7.511  0.4198 -0.6380  0.9896
 9785SOL     OW30775   1.765   5.485   6.448  0.4142  0.0005  0.1068
 9785SOL    HW130776   1.858   5.487   6.472  0.2525 -1.6807  1.0691
 9785SOL    HW230777   1.757   5.410   6.389 -0.3389  0.0887  0.0891
 9786SOL     OW30778   8.767   4.613   3.407  0.3729 -0.6293  0.6541
 9786SOL    HW130779   8.704   4.541   3.409 -0.1533 -0.2107 -0.4275
 9786SOL    HW230780   8.824   4.594   3.333  1.3517 -0.8432  1.4378
 9787SOL     OW30781   3.918   2.187   2.400  0.2376 -0.7578  0.4844
 9787SOL    HW130782   3.907   2.168   2.307 -1.1872  0.3706  0.3872
 9787SOL    HW230783   4.012   2.205   2.409  0.2138  0.3563 -1.0011
 9788SOL     OW30784   1.988   1.596   7.960 -0.1143  1.1235  0.8121
 9788SOL    HW130785   2.000   1.632   8.048 -0.6791  1.0824  0.9067
 9788SOL    HW230786   1.894   1.604   7.943 -0.3262 -0.6397  0.9917
 9789SOL     OW30787   6.713   8.992   6.925  0.0497  0.0677 -0.1742
 9789SOL    HW130788   6.679   8.977   6.836  0.5642 -1.3712 -0.1599
 9789SOL    HW230789   6.648   9.049   6.966  0.2059  1.4151 -1.7131
 9790SOL     OW30790   2.649   4.460   7.230 -0.2116 -0.1105  0.0267
 9790SOL    HW130791   2.556   4.449   7.214 -0.2937  0.6970 -0.1056
 9790SOL    HW230792   2.657   4.546   7.270  0.2790 -0.9829  1.9341
 9791SOL     OW30793   7.155   4.302   3.536 -0.2518  0.0643 -0.3180
 9791SOL    HW130794   7.223   4.314   3.470  0.3232 -1.7063 -0.1063
 9791SOL    HW230795   7.093   4.241   3.497 -1.6356  1.4504 -0.4028
 9792SOL     OW30796   8.511   2.147   0.493  0.1944  0.1783  0.3696
 9792SOL    HW130797   8.531   2.083   0.561 -0.0844  1.2358  1.4798
 9792SOL    HW230798   8.417   2.164   0.502  0.4969  1.7091  0.9871
 9793SOL     OW30799   8.921   6.102   3.666 -0.5117  0.5186  0.1025
 9793SOL    HW130800   8.979   6.179   3.664 -0.4070  0.4589  0.6041
 9793SOL    HW230801   8.849   6.129   3.724 -1.8092  1.1605 -1.7202
 9794SOL     OW30802   4.998   4.894   4.784 -0.0635  0.0677  0.4330
 9794SOL    HW130803   4.995   4.895   4.689  0.2082 -1.5329  0.3933
 9794SOL    HW230804   5.048   4.816   4.807  1.3055  1.2822  1.8727
 9795SOL     OW30805   5.316   8.974   5.160  0.5432 -0.0217  0.2058
 9795SOL    HW130806   5.307   8.881   5.141  0.2372  0.0390  0.0553
 9795SOL    HW230807   5.403   8.997   5.127  1.5615 -0.7399  2.1959
 9796SOL     OW30808   4.704   6.009   0.835 -0.1557  0.1238  0.5085
 9796SOL    HW130809   4.776   5.946   0.831  0.9644  1.2978  1.2764
 9796SOL    HW230810   4.702   6.050   0.748  0.2409  0.2169  0.5417
 9797SOL     OW30811   3.009   8.136   9.164  0.1194 -0.2473 -0.6284
 9797SOL    HW130812   3.095   8.177   9.180 -0.7830  2.3433 -1.8296
 9797SOL    HW230813   3.018   8.093   9.080  0.5403 -0.9560 -0.2304
 9798SOL     OW30814   2.997   4.819   5.286 -0.2894  0.1874 -1.0752
 9798SOL    HW130815   2.975   4.857   5.371  1.1026 -0.5426 -0.3630
 9798SOL    HW230816   2.929   4.753   5.271 -0.4835  0.2495 -0.4826
 9799SOL     OW30817   0.084   3.617   2.117 -0.1824  0.2516 -0.0352
 9799SOL    HW130818   0.068   3.707   2.090  2.1480  0.9842  0.8845
 9799SOL    HW230819   0.178   3.604   2.106  0.1106 -0.9797  2.9358
 9800SOL     OW30820   8.344   2.238   0.247 -0.3991  0.4443  0.2397
 9800SOL    HW130821   8.431   2.199   0.246 -1.0594 -1.1487  0.8838
 9800SOL    HW230822   8.345   2.297   0.322 -0.5320 -1.3130  1.6939
 9801SOL     OW30823   3.603   6.884   0.642 -0.3099 -0.0319 -0.4517
 9801SOL    HW130824   3.534   6.930   0.690  0.5024  1.3855 -0.5877
 9801SOL    HW230825   3.565   6.798   0.621 -1.3845  0.0542  0.9843
 9802SOL     OW30826   8.220   6.743   0.900 -0.5551  0.0152  0.1891
 9802SOL    HW130827   8.278   6.672   0.926 -0.5321  0.2867  0.9108
 9802SOL    HW230828   8.278   6.817   0.884 -0.5795 -0.1172 -0.5529
 9803SOL     OW30829   8.345   6.178   7.028 -0.4126 -0.0865  0.0976
 9803SOL    HW130830   8.426   6.230   7.026  0.2871 -1.1527 -0.8639
 9803SOL    HW230831   8.285   6.228   7.083 -0.0981  2.2349 -1.5041
 9804SOL     OW30832   6.189   3.715   7.817  0.1259 -0.4361 -0.5002
 9804SOL    HW130833   6.214   3.642   7.760 -0.8194 -1.3922  0.2488
 9804SOL    HW230834   6.256   3.717   7.885  0.6717  0.0178 -1.0442
 9805SOL     OW30835   7.445   2.167   5.779  0.3613  0.6376  0.6982
 9805SOL    HW130836   7.508   2.154   5.708 -0.4446 -0.5098  0.1644
 9805SOL    HW230837   7.493   2.216   5.845  1.5864  0.4249 -0.0057
 9806SOL     OW30838   6.313   2.970   9.072 -0.0610  0.3830  0.3740
 9806SOL    HW130839   6.289   2.884   9.039 -0.8800  1.1188 -1.0856
 9806SOL    HW230840   6.394   2.956   9.121 -0.3980 -1.2655  0.4951
 9807SOL     OW30841   8.444   0.031   8.590 -0.1222  0.7958 -0.1251
 9807SOL    HW130842   8.453  -0.046   8.646 -1.4207  1.1160  0.5609
 9807SOL    HW230843   8.471   0.104   8.646 -0.9551  1.0617 -0.0534
 9808SOL     OW30844   2.273   0.710   7.758  0.5992 -0.8130 -0.6200
 9808SOL    HW130845   2.215   0.704   7.682 -1.4733  2.7210  0.4622
 9808SOL    HW230846   2.215   0.722   7.833  2.6360  0.2947  0.9063
 9809SOL     OW30847   7.515   2.669   0.949  0.0056  0.0383 -0.1013
 9809SOL    HW130848   7.518   2.639   1.039 -1.5576 -1.3692 -0.4784
 9809SOL    HW230849   7.539   2.762   0.954  0.5660 -0.1663  1.6510
 9810SOL     OW30850   7.426   9.162   7.683  0.2359  0.2913  0.0665
 9810SOL    HW130851   7.374   9.242   7.695 -1.0626 -0.4203 -0.6137
 9810SOL    HW230852   7.453   9.164   7.591  0.1308 -0.0898  0.0259
 9811SOL     OW30853   4.231   3.432   4.997  0.0858  0.5234 -0.2010
 9811SOL    HW130854   4.318   3.470   4.983  0.3004  0.3718  0.6622
 9811SOL    HW230855   4.239   3.384   5.080 -1.3316  2.1163  0.9323
 9812SOL     OW30856   2.183   9.191   0.400  0.7999 -0.1284 -0.1031
 9812SOL    HW130857   2.123   9.255   0.438  1.7099  0.6794 -0.0104
 9812SOL    HW230858   2.127   9.115   0.381 -0.5398  1.1030 -1.3310
 9813SOL     OW30859   6.698   3.349   2.795 -0.1085  0.0583  0.2112
 9813SOL    HW130860   6.636   3.415   2.825  1.8617  3.6137 -2.7017
 9813SOL    HW230861   6.784   3.386   2.813  1.2927 -3.2536  1.2303
 9814SOL     OW30862   3.570   6.110   7.444 -0.1035  0.1777 -0.3286
 9814SOL    HW130863   3.500   6.082   7.385 -0.5556  1.8604 -0.6438
 9814SOL    HW230864   3.535   6.187   7.488  0.3353 -0.8475  1.9578
 9815SOL     OW30865   5.178   6.401   8.463 -0.2102  0.1835  0.1323
 9815SOL    HW130866   5.104   6.396   8.523 -0.7020 -0.2811 -0.4948
 9815SOL    HW230867   5.154   6.470   8.401  0.5601  1.0839  0.7943
 9816SOL     OW30868   6.328   5.101   1.433  0.0985 -0.8596  0.4983
 9816SOL    HW130869   6.251   5.062   1.390 -0.8870 -1.3371  2.5868
 9816SOL    HW230870   6.304   5.107   1.525  2.8262 -1.6063  1.3504
 9817SOL     OW30871   3.854   8.268   5.421 -0.4391  0.1562 -0.3766
 9817SOL    HW130872   3.840   8.274   5.515 -3.0095  0.4851 -0.7075
 9817SOL    HW230873   3.791   8.202   5.391  0.7495 -0.3980 -1.8165
 9818SOL     OW30874   1.532   2.750   7.810 -0.3264 -0.1935  0.4208
 9818SOL    HW130875   1.542   2.845   7.800 -0.0932 -0.3722 -1.4800
 9818SOL    HW230876   1.622   2.718   7.816 -0.4231 -0.2479  2.0333
 9819SOL     OW30877   5.176   8.855   8.927  0.4409 -0.4871 -0.0268
 9819SOL    HW130878   5.250   8.815   8.973  0.9551 -0.0490 -0.4485
 9819SOL    HW230879   5.201   8.947   8.917 -0.4982 -0.1667  0.4782
 9820SOL     OW30880   9.025   2.280   0.391 -0.6671  0.1215  0.0581
 9820SOL    HW130881   9.094   2.224   0.427  1.3702  1.8402 -0.9126
 9820SOL    HW230882   8.950   2.266   0.449  0.3219 -2.1562  0.9302
 9821SOL     OW30883   6.104   4.129   1.437 -0.5613  0.5450 -0.3874
 9821SOL    HW130884   6.196   4.113   1.415 -0.6722  0.4461 -0.7776
 9821SOL    HW230885   6.064   4.156   1.355 -0.8361  0.8014 -0.1711
 9822SOL     OW30886   4.569   0.543   3.683  0.1992 -0.1183 -0.0851
 9822SOL    HW130887   4.513   0.515   3.610  0.7070 -3.5513  0.6789
 9822SOL    HW230888   4.624   0.612   3.646 -2.8493  1.7722 -1.5035
 9823SOL     OW30889   6.867   5.557   5.830  0.0341  0.3830  0.2379
 9823SOL    HW130890   6.859   5.606   5.749 -0.6755  0.5455  0.4015
 9823SOL    HW230891   6.961   5.553   5.847  0.1674  0.5898 -0.4393
 9824SOL     OW30892   6.979   5.007   8.309  0.0567 -0.1051 -0.0418
 9824SOL    HW130893   7.018   5.094   8.312 -0.3982  0.0882  0.7467
 9824SOL    HW230894   7.053   4.947   8.320  0.3322  0.1923 -0.2697
 9825SOL     OW30895   6.387   5.789   1.956 -0.2238  0.2015  0.4949
 9825SOL    HW130896   6.294   5.800   1.935 -0.3530 -0.3841  0.7372
 9825SOL    HW230897   6.404   5.696   1.940  0.0910  0.1083  1.3409
 9826SOL     OW30898   6.909   7.386   2.711  0.2850  0.2996 -0.0620
 9826SOL    HW130899   6.967   7.324   2.755  0.6489  1.0753  0.5696
 9826SOL    HW230900   6.890   7.453   2.777 -0.2612  0.7625 -0.6723
 9827SOL     OW30901   0.013   7.089   8.864 -0.7345 -0.2365 -0.1669
 9827SOL    HW130902   0.016   7.128   8.951 -0.1763 -0.7863  0.0705
 9827SOL    HW230903   0.085   7.131   8.817 -1.2731  0.3357 -0.4851
 9828SOL     OW30904   3.229   3.339   3.155 -0.1059  0.5205  0.0825
 9828SOL    HW130905   3.318   3.363   3.130 -0.0350 -0.3738 -0.5689
 9828SOL    HW230906   3.179   3.345   3.073 -0.0814 -1.4936 -0.1155
 9829SOL     OW30907   7.170   2.113   0.275  0.0647  0.3095 -0.6422
 9829SOL    HW130908   7.111   2.182   0.305  0.6170 -0.7251  3.4212
 9829SOL    HW230909   7.249   2.160   0.248 -0.7486  1.4331 -1.1358
 9830SOL     OW30910   2.025   4.280   7.036 -0.5300  0.0466  0.1965
 9830SOL    HW130911   2.101   4.260   6.981 -1.0140  1.0101 -0.8615
 9830SOL    HW230912   1.963   4.323   6.977 -1.7516 -0.3766  1.1330
 9831SOL     OW30913   1.423   2.552   6.690  0.2235 -0.2545 -0.0602
 9831SOL    HW130914   1.356   2.483   6.701  0.1938 -0.2833 -0.4179
 9831SOL    HW230915   1.493   2.510   6.641  0.5707 -0.2621  0.4300
 9832SOL     OW30916   0.699   8.238   3.271 -0.3891 -1.0010  0.0756
 9832SOL    HW130917   0.712   8.306   3.337  1.2449 -0.0788 -1.1010
 9832SOL    HW230918   0.615   8.198   3.293 -2.3466  2.5710 -0.1514
 9833SOL     OW30919   0.219   5.643   4.101 -0.2114 -0.2746 -0.1031
 9833SOL    HW130920   0.294   5.702   4.111 -1.6150  1.9887 -2.1555
 9833SOL    HW230921   0.166   5.659   4.179  0.2211 -0.0763  0.1583
 9834SOL     OW30922   4.491   7.432   3.746 -0.2437 -0.4749  0.4370
 9834SOL    HW130923   4.412   7.394   3.785 -1.5519  0.9362 -0.6971
 9834SOL    HW230924   4.495   7.521   3.780 -0.8755  0.4709 -1.7719
 9835SOL     OW30925   0.260   4.924   3.895  0.4496 -0.5043  0.2505
 9835SOL    HW130926   0.184   4.912   3.839  0.9081  1.4371 -0.8668
 9835SOL    HW230927   0.324   4.861   3.862  0.1038 -0.5905 -0.2709
 9836SOL     OW30928   7.284   6.364   7.886  0.0410 -0.5817 -0.0865
 9836SOL    HW130929   7.234   6.445   7.885 -0.6497 -0.9863  0.5711
 9836SOL    HW230930   7.250   6.313   7.813 -0.8851 -1.0549  0.6427
 9837SOL     OW30931   6.931   0.817   9.269  0.0395  0.1794 -0.4608
 9837SOL    HW130932   7.007   0.759   9.267 -1.1642 -1.5254  0.4863
 9837SOL    HW230933   6.878   0.785   9.342 -1.6341  1.2704 -1.1294
 9838SOL     OW30934   2.829   1.928   8.330  0.3246 -0.2153  0.0284
 9838SOL    HW130935   2.904   1.871   8.310  0.0966 -0.7613  0.6994
 9838SOL    HW230936   2.797   1.897   8.414 -0.2079  0.4967  0.0971
 9839SOL     OW30937   3.211   0.561   8.557  0.4495  0.9971 -0.2977
 9839SOL    HW130938   3.213   0.509   8.477  0.6888 -1.6199  1.2836
 9839SOL    HW230939   3.205   0.651   8.527  1.3192  0.1820 -3.2587
 9840SOL     OW30940   6.355   1.137   6.526 -0.3821  0.0539  0.0330
 9840SOL    HW130941   6.415   1.087   6.581  0.8775  0.5182 -0.8777
 9840SOL    HW230942   6.382   1.117   6.437  0.1664  2.3302 -0.3655
 9841SOL     OW30943   5.499   3.262   6.511 -0.2535  0.3023 -0.2959
 9841SOL    HW130944   5.549   3.279   6.591 -1.9553  3.1402  0.3136
 9841SOL    HW230945   5.555   3.205   6.459  1.8142  0.0496  2.0286
 9842SOL     OW30946   6.732   0.249   1.739  0.0083 -0.1694  0.0485
 9842SOL    HW130947   6.665   0.302   1.696  0.7302  0.1334 -0.7352
 9842SOL    HW230948   6.715   0.259   1.833 -1.1622 -0.2691 -0.1397
 9843SOL     OW30949   8.551   1.943   7.760 -0.2578 -0.2326 -0.1923
 9843SOL    HW130950   8.599   1.884   7.818 -0.5140 -1.3339 -1.0384
 9843SOL    HW230951   8.501   1.884   7.703 -0.4509  0.8093 -1.1470
 9844SOL     OW30952   1.043   1.060   1.833 -0.2372 -0.0729  0.3896
 9844SOL    HW130953   1.076   1.086   1.747 -0.0257 -0.0982  0.4605
 9844SOL    HW230954   1.044   0.964   1.831  0.0233 -0.0757  0.5116
 9845SOL     OW30955   8.527   8.425   1.716  0.2706 -0.2077 -0.1491
 9845SOL    HW130956   8.436   8.438   1.743  0.6398  0.2645  0.9293
 9845SOL    HW230957   8.521   8.383   1.630 -0.9614  1.3915 -0.8926
 9846SOL     OW30958   2.215   3.831   4.524 -0.2358 -0.3262 -0.0592
 9846SOL    HW130959   2.130   3.789   4.511 -0.2179 -0.5564  0.5430
 9846SOL    HW230960   2.278   3.760   4.514 -0.0398  0.0151 -1.4490
 9847SOL     OW30961   8.596   4.292   8.517 -0.0746 -0.3306 -0.2156
 9847SOL    HW130962   8.600   4.350   8.441 -0.5992 -1.3302 -1.0315
 9847SOL    HW230963   8.613   4.349   8.592  2.8270  0.2892 -1.2325
 9848SOL     OW30964   2.652   7.291   1.198 -0.8507 -0.0117  0.7480
 9848SOL    HW130965   2.665   7.298   1.292  0.0383  1.1895  0.5644
 9848SOL    HW230966   2.739   7.273   1.163 -0.4859  2.7868 -0.0767
 9849SOL     OW30967   6.110   2.951   2.157  0.5890 -0.0584 -0.3140
 9849SOL    HW130968   6.043   3.011   2.190  0.6367  0.3161 -0.8867
 9849SOL    HW230969   6.083   2.931   2.068 -1.0660 -3.2712  0.7513
 9850SOL     OW30970   0.940   7.543   7.538 -0.1164 -0.1771  0.5554
 9850SOL    HW130971   0.916   7.453   7.515  1.3288 -0.1823 -1.1460
 9850SOL    HW230972   1.014   7.564   7.480 -0.4260  2.1161  0.8956
 9851SOL     OW30973   0.266   0.998   8.404  0.2246 -0.4118  0.0812
 9851SOL    HW130974   0.329   0.949   8.458 -1.1965 -0.5529  1.6900
 9851SOL    HW230975   0.220   0.930   8.355  1.0515 -0.3318 -0.8437
 9852SOL     OW30976   3.034   1.284   3.196 -0.7444  0.2556 -0.1507
 9852SOL    HW130977   2.996   1.203   3.161  0.1086  0.1381 -0.8713
 9852SOL    HW230978   2.996   1.294   3.283 -0.4904 -1.2031  0.1596
 9853SOL     OW30979   8.456   4.251   4.653 -0.6138 -0.4531 -0.0032
 9853SOL    HW130980   8.429   4.210   4.570  0.1819  2.1405 -1.6810
 9853SOL    HW230981   8.423   4.341   4.646  2.9023  1.0369  0.6442
 9854SOL     OW30982   1.098   6.608   3.062 -0.2615 -0.5370 -0.0888
 9854SOL    HW130983   1.167   6.558   3.018  0.3368  0.7246 -0.6324
 9854SOL    HW230984   1.143   6.679   3.107 -1.1733  0.2123 -0.3043
 9855SOL     OW30985   6.468   2.301   0.974 -0.4292  0.1397 -0.4181
 9855SOL    HW130986   6.422   2.280   0.893 -0.3430  2.0334 -1.0171
 9855SOL    HW230987   6.466   2.397   0.978  0.0976  0.1041  1.5210
 9856SOL     OW30988   7.167   3.509   6.246 -0.5750  0.1984 -0.7407
 9856SOL    HW130989   7.089   3.453   6.243  0.2468 -1.0214 -0.3471
 9856SOL    HW230990   7.190   3.524   6.154  1.1890 -3.0819 -0.9658
 9857SOL     OW30991   4.316   6.358   2.004  0.3145 -0.2690  0.1025
 9857SOL    HW130992   4.372   6.315   2.068  0.2451  0.5040  0.6966
 9857SOL    HW230993   4.283   6.435   2.049  0.1453  0.2109 -0.8201
 9858SOL     OW30994   0.312   8.974   1.354 -0.2949 -0.1776  0.0129
 9858SOL    HW130995   0.389   8.923   1.330 -0.9499 -0.3944 -1.8610
 9858SOL    HW230996   0.346   9.049   1.402  1.1340 -0.0896 -1.0801
 9859SOL     OW30997   2.130   7.142   6.051 -0.0109  0.0243  0.1843
 9859SOL    HW130998   2.051   7.093   6.074  0.5760 -0.7911  0.5173
 9859SOL    HW230999   2.131   7.142   5.956  0.3640 -1.2995  0.1569
 9860SOL     OW31000   3.209   2.991   1.430  0.6774 -0.3237  0.1079
 9860SOL    HW131001   3.238   2.977   1.340  2.1187  0.0621  0.4741
 9860SOL    HW231002   3.205   2.903   1.468 -3.2010 -0.8736 -1.1790
 9861SOL     OW31003   4.581   3.883   6.574  0.6870 -0.0394  0.0247
 9861SOL    HW131004   4.529   3.808   6.547  0.3491  0.3001 -0.2839
 9861SOL    HW231005   4.546   3.956   6.523  1.9991  0.0444 -0.8027
 9862SOL     OW31006   5.134   4.089   2.073 -0.2391  0.0552 -0.3403
 9862SOL    HW131007   5.080   4.126   2.003 -0.0741 -0.8025 -0.9300
 9862SOL    HW231008   5.210   4.147   2.078 -0.0842 -0.0677 -1.1152
 9863SOL     OW31009   8.112   1.095   8.147  0.6050 -0.2709 -0.3897
 9863SOL    HW131010   8.188   1.118   8.095  2.1026 -1.2983  1.2372
 9863SOL    HW231011   8.111   1.159   8.219  0.6831 -0.9794  0.2610
 9864SOL     OW31012   2.077   2.314   8.265 -0.8311  0.2217 -0.1022
 9864SOL    HW131013   2.072   2.397   8.217 -0.1014 -0.9749 -2.3804
 9864SOL    HW231014   2.161   2.277   8.240 -1.3940 -1.4746  0.4100
 9865SOL     OW31015   5.499   8.702   8.435  0.5181  0.1794 -0.4702
 9865SOL    HW131016   5.550   8.680   8.513 -0.4235 -1.9381 -0.3813
 9865SOL    HW231017   5.413   8.729   8.468  0.5181  0.5355 -0.7433
 9866SOL     OW31018   1.840   0.098   6.743  0.3007 -0.4972 -0.6423
 9866SOL    HW131019   1.792   0.173   6.779 -0.5746  0.3662 -3.3770
 9866SOL    HW231020   1.851   0.039   6.817 -0.9653  1.3319  1.1078
 9867SOL     OW31021   0.669   2.631   5.189  0.4377 -0.0463 -0.1674
 9867SOL    HW131022   0.728   2.664   5.256 -0.5847  0.1158  0.6689
 9867SOL    HW231023   0.688   2.537   5.185  1.5682  0.1891 -0.7553
 9868SOL     OW31024   0.843   4.784   4.145 -0.5143  0.3146  0.7081
 9868SOL    HW131025   0.865   4.874   4.118 -0.1170  0.0981  0.2848
 9868SOL    HW231026   0.928   4.743   4.163 -0.4062 -0.8209 -1.8689
 9869SOL     OW31027   8.605   9.180   5.994 -0.0277  0.2073  0.8904
 9869SOL    HW131028   8.612   9.141   5.907 -0.7980 -0.5182  1.1396
 9869SOL    HW231029   8.662   9.126   6.049 -1.3953 -0.8636  1.3170
 9870SOL     OW31030   9.074   3.615   8.917 -0.2808 -0.5524  0.0513
 9870SOL    HW131031   9.055   3.620   9.010 -0.8013 -0.1676 -0.0744
 9870SOL    HW231032   8.988   3.611   8.875 -0.0651 -0.0362 -0.4520
 9871SOL     OW31033   4.106   2.258   4.657 -0.5455 -0.3247 -0.2358
 9871SOL    HW131034   4.196   2.238   4.632  0.4313  1.4314  1.5497
 9871SOL    HW231035   4.077   2.323   4.592  0.0760  0.2999  0.0949
 9872SOL     OW31036   8.095   1.196   7.001  0.1552  0.3782  0.1572
 9872SOL    HW131037   8.109   1.115   7.049  0.6763  1.0120  1.0897
 9872SOL    HW231038   8.134   1.181   6.915 -0.9237 -0.8162 -0.1550
 9873SOL     OW31039   5.773   1.760   8.555 -0.0634 -0.1799  0.5727
 9873SOL    HW131040   5.737   1.672   8.565 -0.3175 -0.2067 -0.4176
 9873SOL    HW231041   5.867   1.747   8.542 -0.0956 -0.2980  0.4648
 9874SOL     OW31042   5.712   4.486   2.283 -0.0742 -0.4625  0.5506
 9874SOL    HW131043   5.691   4.400   2.246  1.8098 -0.6867 -0.1407
 9874SOL    HW231044   5.805   4.480   2.306  0.3191  1.6128 -0.2518
 9875SOL     OW31045   4.724   5.381   6.560 -0.1783  0.0036 -0.7814
 9875SOL    HW131046   4.805   5.422   6.530 -0.3224 -0.2680 -1.5604
 9875SOL    HW231047   4.673   5.368   6.481 -0.3515 -1.2132 -0.5017
 9876SOL     OW31048   1.120   7.032   0.831  0.0513  0.2980  0.2383
 9876SOL    HW131049   1.071   7.109   0.861  1.4288  1.1446  0.4037
 9876SOL    HW231050   1.211   7.063   0.825  0.4516 -1.0199 -0.7660
 9877SOL     OW31051   6.596   8.176   1.475 -0.1765  0.0328 -0.4562
 9877SOL    HW131052   6.522   8.169   1.415  0.7614  1.5374 -1.8707
 9877SOL    HW231053   6.629   8.265   1.462 -0.0288  0.4978  2.4613
 9878SOL     OW31054   1.937   3.867   5.706 -0.5388 -0.0765 -0.0520
 9878SOL    HW131055   1.859   3.889   5.757  0.4288  0.5002  1.2311
 9878SOL    HW231056   1.946   3.772   5.717 -1.4358 -0.2596 -0.7889
 9879SOL     OW31057   7.249   1.643   6.865  0.1062  0.2055 -0.3170
 9879SOL    HW131058   7.176   1.591   6.830  0.6713  0.0522 -1.2887
 9879SOL    HW231059   7.324   1.585   6.861  0.4007  0.5460  0.1850
 9880SOL     OW31060   3.158   3.471   8.328 -0.0505 -0.6559 -0.2850
 9880SOL    HW131061   3.110   3.542   8.370  1.5452  0.8492 -0.8588
 9880SOL    HW231062   3.111   3.391   8.352 -1.8804  0.5898  0.4174
 9881SOL     OW31063   1.889   0.526   7.851 -0.7599 -0.4343 -0.1567
 9881SOL    HW131064   1.801   0.509   7.817 -2.5269  0.2490  3.5943
 9881SOL    HW231065   1.905   0.456   7.914 -0.2951  1.4581  1.9644
 9882SOL     OW31066   7.759   0.075   1.229 -0.8101 -0.0493  0.3257
 9882SOL    HW131067   7.683   0.088   1.285 -1.1879 -0.3800 -0.0966
 9882SOL    HW231068   7.725   0.025   1.154 -0.7551  1.9524 -1.1264
 9883SOL     OW31069   2.848   7.883   5.383 -0.1126  0.2012  0.6096
 9883SOL    HW131070   2.924   7.934   5.410  1.8058 -2.5395  0.7923
 9883SOL    HW231071   2.874   7.844   5.299 -2.8936  2.2347 -1.3793
 9884SOL     OW31072   0.915   1.326   4.754 -0.2728  0.7742 -0.3846
 9884SOL    HW131073   0.962   1.244   4.734 -0.3794  0.4872  0.4903
 9884SOL    HW231074   0.944   1.387   4.687  1.6336  0.7012  0.3085
 9885SOL     OW31075   6.023   6.643   7.957  0.2110  0.1006  0.3037
 9885SOL    HW131076   5.968   6.610   8.028 -0.1485  0.1759  0.0627
 9885SOL    HW231077   6.041   6.567   7.902  0.0243  0.1503  0.1719
 9886SOL     OW31078   5.479   3.570   1.012 -0.5060  0.5177 -0.6552
 9886SOL    HW131079   5.458   3.631   0.941 -0.1901  0.8426 -0.4708
 9886SOL    HW231080   5.543   3.510   0.974  1.6242  2.2117  0.0566
 9887SOL     OW31081   5.002   0.700   9.103 -0.8973 -0.3680  0.4370
 9887SOL    HW131082   5.035   0.662   9.021 -0.2346  0.6411  0.2188
 9887SOL    HW231083   5.065   0.671   9.169  2.5482  4.0441 -0.4139
 9888SOL     OW31084   4.930   2.143   7.607 -0.1176  0.0375  0.0908
 9888SOL    HW131085   4.908   2.128   7.699 -0.4239  1.2517  0.2229
 9888SOL    HW231086   4.845   2.147   7.563 -0.0089  0.4791 -0.0794
 9889SOL     OW31087   3.908   4.760   8.697  0.0002  0.1113 -0.2193
 9889SOL    HW131088   3.851   4.689   8.666  0.5162  0.4019 -1.9362
 9889SOL    HW231089   3.925   4.813   8.619  0.4414  1.5682  0.8272
 9890SOL     OW31090   5.247   5.067   3.939 -0.2854  0.9958  0.6069
 9890SOL    HW131091   5.160   5.031   3.960 -0.4435  0.6294 -0.6011
 9890SOL    HW231092   5.228   5.148   3.892  0.0363  1.2952  0.9977
 9891SOL     OW31093   7.131   2.692   8.491 -0.6842  0.2086  0.8220
 9891SOL    HW131094   7.149   2.647   8.408  1.7142  1.7118  0.4046
 9891SOL    HW231095   7.067   2.759   8.468  0.2570  0.8700  0.0365
 9892SOL     OW31096   7.688   1.710   5.423 -0.2000 -0.0378  0.3536
 9892SOL    HW131097   7.615   1.772   5.420 -0.0961  0.0886 -2.7878
 9892SOL    HW231098   7.646   1.624   5.420 -0.2574  0.0046 -0.1265
 9893SOL     OW31099   8.885   2.543   3.426 -0.0042  0.5020 -0.4906
 9893SOL    HW131100   8.963   2.489   3.440  0.8375  1.0561 -2.6286
 9893SOL    HW231101   8.832   2.531   3.505  2.2340  0.1011  1.0290
 9894SOL     OW31102   4.477   5.876   4.822  0.0845 -0.1759 -0.1557
 9894SOL    HW131103   4.521   5.955   4.855  2.2982 -0.4087 -2.2658
 9894SOL    HW231104   4.476   5.816   4.896 -0.4099  1.3369  1.1079
 9895SOL     OW31105   6.668   8.030   1.150  0.3816 -0.1522  0.4085
 9895SOL    HW131106   6.594   8.035   1.211  0.5431 -0.8992  0.6756
 9895SOL    HW231107   6.645   7.959   1.091  0.5227  0.1484 -0.0157
 9896SOL     OW31108   0.031   2.577   6.058 -0.1733 -0.3617 -0.1678
 9896SOL    HW131109  -0.027   2.564   6.134 -0.2601 -1.3937 -0.3969
 9896SOL    HW231110   0.021   2.670   6.036  0.2988  0.1029  1.4407
 9897SOL     OW31111   4.415   3.393   0.819  0.3902 -0.5089 -0.3547
 9897SOL    HW131112   4.354   3.352   0.880 -1.6018  2.6033  0.0022
 9897SOL    HW231113   4.373   3.384   0.734 -1.8178  3.1604  0.0927
 9898SOL     OW31114   9.186   6.533   0.543 -0.3232  0.4383  0.5510
 9898SOL    HW131115   9.173   6.439   0.551 -0.7416  0.4178 -0.1916
 9898SOL    HW231116   9.277   6.547   0.568  0.8715 -0.6731 -2.6082
 9899SOL     OW31117   8.062   8.554   0.890 -0.0266  0.0879 -0.1748
 9899SOL    HW131118   8.039   8.551   0.983  0.9862 -0.8877  0.0526
 9899SOL    HW231119   8.025   8.637   0.859 -0.9578  0.1007  0.9339
 9900SOL     OW31120   3.676   0.002   1.355 -0.0180 -0.3545 -0.5274
 9900SOL    HW131121   3.694  -0.089   1.332  2.8727 -0.0892  0.3785
 9900SOL    HW231122   3.761   0.038   1.381 -1.3565  2.1651  0.7035
 9901SOL     OW31123   8.928   3.202   1.404  0.0051  0.4358  0.0006
 9901SOL    HW131124   9.013   3.202   1.448 -0.4534  1.4487  0.9209
 9901SOL    HW231125   8.909   3.295   1.387 -0.6278  0.1815 -0.7696
 9902SOL     OW31126   2.108   1.646   3.522  0.4388 -0.2604 -0.4178
 9902SOL    HW131127   2.146   1.705   3.588 -0.9422  1.5560 -1.1505
 9902SOL    HW231128   2.102   1.700   3.444 -1.4723 -1.1936 -0.9568
 9903SOL     OW31129   4.053   1.347   1.687 -0.2066  0.5449 -0.4780
 9903SOL    HW131130   4.111   1.396   1.745 -2.2956  2.3883  0.2175
 9903SOL    HW231131   3.979   1.323   1.743 -0.8918 -0.2913 -1.6975
 9904SOL     OW31132   2.790   4.772   5.539 -0.2749  0.4254  0.3914
 9904SOL    HW131133   2.850   4.841   5.568 -0.4115 -0.1738  2.2472
 9904SOL    HW231134   2.831   4.691   5.568 -0.6398 -0.2218 -0.8273
 9905SOL     OW31135   3.362   7.019   2.287  0.2632  0.1509  0.0418
 9905SOL    HW131136   3.315   6.954   2.339  0.4372  0.4893  0.6358
 9905SOL    HW231137   3.309   7.030   2.208  0.8588 -1.6048 -0.6430
 9906SOL     OW31138   2.317   0.742   8.321 -0.3998 -0.4905 -0.0985
 9906SOL    HW131139   2.362   0.801   8.261  0.9235  1.8165  2.9377
 9906SOL    HW231140   2.224   0.763   8.310 -0.0139  1.6218  0.2842
 9907SOL     OW31141   1.059   5.242   3.134 -0.0756  0.1538  0.0376
 9907SOL    HW131142   0.991   5.179   3.156 -1.1773  0.0520 -3.0978
 9907SOL    HW231143   1.132   5.189   3.101  1.0126  0.3538  1.9476
 9908SOL     OW31144   7.997   5.844   2.592  0.7424 -0.2237  0.0714
 9908SOL    HW131145   7.963   5.795   2.517  1.0970  0.9893 -0.9243
 9908SOL    HW231146   8.070   5.791   2.624  0.9957 -0.4517 -0.8527
 9909SOL     OW31147   8.000   7.793   4.273 -0.3512 -0.4840 -0.0083
 9909SOL    HW131148   8.017   7.878   4.231 -0.1540 -1.4257 -1.9433
 9909SOL    HW231149   8.010   7.729   4.202 -1.7574 -2.0199  1.1169
 9910SOL     OW31150   2.674   8.508   8.227  0.0720 -1.0874 -0.3522
 9910SOL    HW131151   2.623   8.438   8.269 -0.8354 -0.5229 -0.4919
 9910SOL    HW231152   2.728   8.462   8.162  0.0583 -1.7459  0.0905
 9911SOL     OW31153   8.736   8.532   8.286  0.4271 -0.3128 -0.2468
 9911SOL    HW131154   8.829   8.551   8.291  0.5189 -0.2377 -1.7896
 9911SOL    HW231155   8.714   8.543   8.194 -0.7821 -1.7926 -0.1811
 9912SOL     OW31156   6.102   2.108   3.271  0.6623 -0.6208  0.2993
 9912SOL    HW131157   6.123   2.106   3.178 -1.6561  3.1427 -0.5191
 9912SOL    HW231158   6.163   2.171   3.308 -0.0478 -0.2058  0.7774
 9913SOL     OW31159   9.160   0.129   2.032  0.1957 -0.2372 -0.0889
 9913SOL    HW131160   9.067   0.104   2.036  0.2605 -0.4804 -0.1130
 9913SOL    HW231161   9.171   0.163   1.943 -0.3134  1.5607  0.4760
 9914SOL     OW31162   4.882   8.718   1.159 -0.5327 -0.1971 -0.1375
 9914SOL    HW131163   4.866   8.633   1.119 -0.4847 -0.1884 -0.1746
 9914SOL    HW231164   4.886   8.779   1.085  0.9541 -0.3812 -0.2268
 9915SOL     OW31165   1.808   6.153   7.103 -0.4103  0.4807  0.1447
 9915SOL    HW131166   1.787   6.128   7.193  0.8581 -0.7996  0.1244
 9915SOL    HW231167   1.895   6.194   7.110 -0.6064  1.0058 -0.4197
 9916SOL     OW31168   2.169   6.243   2.439  0.8420  0.5611 -0.0854
 9916SOL    HW131169   2.179   6.296   2.518 -1.3898  0.1393  0.5635
 9916SOL    HW231170   2.094   6.282   2.393 -0.8895 -1.8965  0.4129
 9917SOL     OW31171   3.248   6.016   5.201 -0.1262 -0.3017  0.0871
 9917SOL    HW131172   3.278   6.102   5.229 -1.5482  0.3216 -0.2502
 9917SOL    HW231173   3.311   5.990   5.134  0.8909  0.0158  0.8891
 9918SOL     OW31174   2.253   2.367   8.612  0.0207  0.4634 -0.4222
 9918SOL    HW131175   2.276   2.428   8.682  1.7552 -0.1944 -0.3764
 9918SOL    HW231176   2.210   2.421   8.546 -0.0202  1.4138  0.3689
 9919SOL     OW31177   8.223   2.412   1.095 -0.4450 -0.0444  0.0801
 9919SOL    HW131178   8.220   2.425   1.189  1.4669  2.0228 -0.0579
 9919SOL    HW231179   8.304   2.454   1.067 -2.2692  1.9361 -2.8427
 9920SOL     OW31180   5.113   8.656   2.456 -0.1093  0.6539 -0.4614
 9920SOL    HW131181   5.128   8.711   2.532 -1.0818  1.9932 -1.1877
 9920SOL    HW231182   5.023   8.624   2.466 -0.1118  0.5262 -0.8491
 9921SOL     OW31183   4.634   3.428   0.285 -0.2625  0.1898 -0.3484
 9921SOL    HW131184   4.584   3.354   0.252  0.1859 -1.8617  3.0882
 9921SOL    HW231185   4.725   3.404   0.266 -0.0817 -0.4824  1.2213
 9922SOL     OW31186   1.077   2.686   4.240  0.2504 -0.6174 -0.5328
 9922SOL    HW131187   1.019   2.762   4.235 -1.1639 -1.5430  1.0997
 9922SOL    HW231188   1.165   2.724   4.244 -0.3189  0.8692 -1.2336
 9923SOL     OW31189   3.621   1.382   2.620 -0.0305  0.1141  0.0724
 9923SOL    HW131190   3.539   1.398   2.574  0.6144 -0.1050 -1.1935
 9923SOL    HW231191   3.627   1.453   2.684 -1.0316  0.3228 -0.0508
 9924SOL     OW31192   3.934   4.014   5.924 -0.1355 -0.2377  0.2514
 9924SOL    HW131193   3.918   4.082   5.858  0.8729  1.2787  1.5216
 9924SOL    HW231194   4.029   4.003   5.925 -0.2930 -2.0129 -0.2111
 9925SOL     OW31195   7.232   5.285   9.253  0.5345  0.4927  0.1267
 9925SOL    HW131196   7.265   5.369   9.283  0.7852  0.6411 -0.5438
 9925SOL    HW231197   7.307   5.226   9.257  0.6456  0.5895 -0.4893
 9926SOL     OW31198   1.188   0.042   1.563 -0.2886 -0.2648 -0.3291
 9926SOL    HW131199   1.171   0.137   1.562  3.3043  0.5499  0.6727
 9926SOL    HW231200   1.170   0.017   1.654 -2.7788 -0.9698 -0.9611
 9927SOL     OW31201   7.824   6.363   0.408 -0.2238 -0.0572 -0.1374
 9927SOL    HW131202   7.774   6.286   0.434  0.4406 -0.4954 -0.1251
 9927SOL    HW231203   7.901   6.328   0.363 -1.0997  0.6554 -2.3369
 9928SOL     OW31204   8.444   1.234   0.584  0.0223  0.0574 -0.4223
 9928SOL    HW131205   8.387   1.303   0.551 -0.6474  0.5800  1.6570
 9928SOL    HW231206   8.482   1.271   0.664  2.1261 -0.8494 -0.9470
 9929SOL     OW31207   8.965   3.527   0.310  0.2333  0.0157  0.6625
 9929SOL    HW131208   8.978   3.524   0.215  0.3545 -1.7759  0.6920
 9929SOL    HW231209   8.873   3.501   0.322  0.9062 -2.3735  1.1062
 9930SOL     OW31210   2.826   4.999   0.317  0.1108  0.7277 -0.0507
 9930SOL    HW131211   2.789   5.078   0.277  2.1288  1.9394  0.2970
 9930SOL    HW231212   2.861   4.949   0.243  1.3822  1.6179 -0.0900
 9931SOL     OW31213   5.529   8.782   1.332  0.0173  0.0166  0.4310
 9931SOL    HW131214   5.523   8.771   1.237 -1.6490  0.3744  0.4675
 9931SOL    HW231215   5.562   8.871   1.344 -0.2361  0.1489  0.1729
 9932SOL     OW31216   3.886   5.972   5.030 -0.4062 -0.5392 -0.3795
 9932SOL    HW131217   3.828   6.043   5.005 -2.0430 -1.3617  0.8849
 9932SOL    HW231218   3.875   5.963   5.125  0.5503 -1.7837 -0.3499
 9933SOL     OW31219   1.398   0.338   9.046  0.3309 -0.2993  0.3816
 9933SOL    HW131220   1.324   0.336   9.108 -0.2524  0.0444 -0.2933
 9933SOL    HW231221   1.468   0.292   9.092  0.2075  0.7248  1.6771
 9934SOL     OW31222   5.952   1.739   8.226  0.3146 -0.4405 -0.1586
 9934SOL    HW131223   5.978   1.713   8.138 -0.0070  0.9393 -0.6806
 9934SOL    HW231224   5.865   1.777   8.216  1.3848  2.3552  0.2414
 9935SOL     OW31225   8.160   5.557   4.057 -0.2723 -0.2208 -0.1803
 9935SOL    HW131226   8.096   5.487   4.066  0.9284 -1.7223 -2.4524
 9935SOL    HW231227   8.111   5.628   4.013 -0.9798 -0.3809  0.3292
 9936SOL     OW31228   3.120   6.283   8.637 -0.0783  0.0829  0.3057
 9936SOL    HW131229   3.120   6.199   8.590  0.6441 -0.1067  0.6241
 9936SOL    HW231230   3.213   6.303   8.648 -0.2016 -0.2602  2.3162
 9937SOL     OW31231   1.131   0.679   3.825 -0.4983  0.3891 -0.0394
 9937SOL    HW131232   1.137   0.721   3.739  0.3956  0.5922  0.1132
 9937SOL    HW231233   1.130   0.751   3.888  1.3985  0.2241  0.2406
 9938SOL     OW31234   3.848   5.708   5.737 -0.2472 -0.1747 -0.2382
 9938SOL    HW131235   3.826   5.655   5.660  0.1398 -0.2469 -0.3032
 9938SOL    HW231236   3.766   5.751   5.761 -0.4294 -0.3484 -0.5405
 9939SOL     OW31237   1.039   5.500   3.430 -0.1499 -0.0971 -0.1903
 9939SOL    HW131238   0.958   5.450   3.441 -0.0632  0.0026  0.9939
 9939SOL    HW231239   1.049   5.549   3.512  0.6016  0.6475 -0.7042
 9940SOL     OW31240   6.701   8.630   8.184  0.1545 -0.2928 -0.1751
 9940SOL    HW131241   6.671   8.678   8.107 -2.3208 -2.1994 -0.5335
 9940SOL    HW231242   6.724   8.543   8.151  1.5298 -0.3895  0.9112
 9941SOL     OW31243   3.068   9.007   0.045 -0.3137 -0.2724  0.2826
 9941SOL    HW131244   2.974   9.006   0.064  0.0253  0.8356  2.1420
 9941SOL    HW231245   3.086   8.919   0.011 -1.7019 -1.0917  1.5598
 9942SOL     OW31246   8.823   3.527   0.921  0.3123 -0.3027  0.4192
 9942SOL    HW131247   8.866   3.442   0.909 -0.3129 -0.7765  1.4137
 9942SOL    HW231248   8.809   3.559   0.832  3.3659  0.2278  0.0141
 9943SOL     OW31249   8.650   2.012   6.182 -0.0528  0.1153  0.0332
 9943SOL    HW131250   8.679   2.103   6.187 -0.8639  0.3665  0.4314
 9943SOL    HW231251   8.555   2.017   6.196 -0.7331 -0.4351 -3.4766
 9944SOL     OW31252   8.388   8.581   5.408  0.4509 -0.0005  0.5306
 9944SOL    HW131253   8.460   8.536   5.363 -0.4181 -1.6960  0.7687
 9944SOL    HW231254   8.335   8.618   5.337  1.2662  0.8303  0.3392
 9945SOL     OW31255   1.634   7.057   3.127 -0.1441 -0.2127 -0.1215
 9945SOL    HW131256   1.628   6.964   3.145 -0.1872  0.3460  3.4403
 9945SOL    HW231257   1.579   7.098   3.193 -2.4552  2.3189 -3.2804
 9946SOL     OW31258   0.777   0.645   3.188  0.1126  0.4968 -0.5981
 9946SOL    HW131259   0.799   0.597   3.268  1.3205  2.3811  0.2780
 9946SOL    HW231260   0.783   0.580   3.118 -0.1452 -1.0097  0.7333
 9947SOL     OW31261   7.116   0.868   0.691  0.1867  0.3286  0.0167
 9947SOL    HW131262   7.175   0.887   0.618  0.5909  1.7964  0.6855
 9947SOL    HW231263   7.149   0.922   0.763 -0.6291 -0.5402  1.0803
 9948SOL     OW31264   1.333   3.709   1.115 -0.1249  0.3483 -0.3918
 9948SOL    HW131265   1.263   3.707   1.180  0.9921  0.6396  0.8668
 9948SOL    HW231266   1.310   3.641   1.052 -1.7653  0.7548 -0.2776
 9949SOL     OW31267   8.205   2.092   2.793 -0.4411  0.3630 -0.2573
 9949SOL    HW131268   8.185   2.021   2.854 -1.5211  0.6538 -0.2556
 9949SOL    HW231269   8.187   2.056   2.707  0.1404  0.2702 -0.3464
 9950SOL     OW31270   1.576   0.285   1.722 -0.3625  0.1400 -0.0887
 9950SOL    HW131271   1.648   0.299   1.661 -0.7515  1.0098 -0.3609
 9950SOL    HW231272   1.503   0.334   1.684 -0.7799  0.1951  0.7677
 9951SOL     OW31273   3.655   0.116   4.810  0.6459 -0.7558  0.0234
 9951SOL    HW131274   3.693   0.031   4.786  1.2193  0.2006 -2.8454
 9951SOL    HW231275   3.707   0.180   4.761  0.2400  1.3102  2.1134
 9952SOL     OW31276   7.543   1.427   4.816 -0.4276  0.4152 -0.0229
 9952SOL    HW131277   7.614   1.370   4.787 -0.1177 -0.0361  1.5194
 9952SOL    HW231278   7.520   1.479   4.739  1.0446  0.0235 -0.7526
 9953SOL     OW31279   1.219   7.887   0.995  0.2963 -0.3018 -0.1526
 9953SOL    HW131280   1.133   7.848   1.012  1.3271 -2.2106  1.1223
 9953SOL    HW231281   1.200   7.971   0.954 -2.1854 -0.3778  0.6905
 9954SOL     OW31282   4.436   3.125   1.219 -0.6654 -0.5770 -0.0589
 9954SOL    HW131283   4.389   3.206   1.239 -0.2375 -0.5900  1.0921
 9954SOL    HW231284   4.484   3.144   1.139 -3.1057 -0.7708 -1.6590
 9955SOL     OW31285   6.888   2.194   1.347  0.2808  0.3830  0.0251
 9955SOL    HW131286   6.880   2.274   1.294  1.9055 -1.4752 -3.2897
 9955SOL    HW231287   6.802   2.152   1.339  0.4554  0.2011 -1.0819
 9956SOL     OW31288   0.110   3.361   2.448  0.2414  0.2491  0.2723
 9956SOL    HW131289   0.090   3.304   2.374 -0.3032 -0.2929  0.8264
 9956SOL    HW231290   0.188   3.409   2.421  1.5819 -1.7805  0.3379
 9957SOL     OW31291   8.290   5.632   4.439  0.9442 -0.8230  0.0826
 9957SOL    HW131292   8.357   5.664   4.377  0.7006  0.3696  0.4006
 9957SOL    HW231293   8.282   5.702   4.503 -1.2062 -0.5460 -0.4040
 9958SOL     OW31294   6.016   6.559   8.937  0.2532  1.0886  0.2441
 9958SOL    HW131295   5.951   6.517   8.881  0.4031  0.6853  0.3738
 9958SOL    HW231296   6.023   6.648   8.902  1.1194  0.5388 -1.0568
 9959SOL     OW31297   8.103   2.103   7.182 -0.2974  0.4707  0.3854
 9959SOL    HW131298   8.050   2.182   7.188 -0.7339  0.1035  1.8628
 9959SOL    HW231299   8.039   2.032   7.177  0.0749  0.2427 -2.4352
 9960SOL     OW31300   5.691   5.927   6.305 -0.0804  0.2201  0.1899
 9960SOL    HW131301   5.698   5.946   6.212  0.4768  0.9542  0.3697
 9960SOL    HW231302   5.680   6.013   6.346  1.0897  0.0604  0.9090
 9961SOL     OW31303   5.355   2.911   8.928  0.3662 -0.0724  0.2558
 9961SOL    HW131304   5.337   2.998   8.891  1.1019  1.0226  2.2566
 9961SOL    HW231305   5.282   2.896   8.988  0.2071 -0.8804 -0.1403
 9962SOL     OW31306   6.101   7.833   0.045  0.0458  0.0481 -0.0248
 9962SOL    HW131307   6.034   7.852  -0.020 -0.3638 -0.9060  0.1041
 9962SOL    HW231308   6.183   7.859   0.003 -0.3663  0.8721 -0.3261
 9963SOL     OW31309   7.881   0.738   3.084  0.1228 -0.6365  0.4527
 9963SOL    HW131310   7.810   0.758   3.023 -0.6693  1.2650  1.8980
 9963SOL    HW231311   7.842   0.677   3.146  0.5988 -1.7041 -0.2714
 9964SOL     OW31312   2.628   7.233   0.066 -0.0302 -0.0810 -0.4288
 9964SOL    HW131313   2.661   7.143   0.054  1.5246  0.4172 -0.1475
 9964SOL    HW231314   2.591   7.256  -0.019  1.1422 -0.3951 -1.0556
 9965SOL     OW31315   3.182   3.945   3.154  0.6503  0.2534 -0.1168
 9965SOL    HW131316   3.182   3.850   3.151 -0.8278  0.1597  1.3371
 9965SOL    HW231317   3.196   3.972   3.063 -1.2276 -1.3696 -0.9641
 9966SOL     OW31318   0.919   1.464   5.280 -0.3680  0.5982  0.5955
 9966SOL    HW131319   0.925   1.394   5.344  1.5528  0.3734  0.2083
 9966SOL    HW231320   0.921   1.419   5.195  0.7709  1.0817  0.3458
 9967SOL     OW31321   1.601   6.099   2.853 -0.3371 -0.3447  0.4311
 9967SOL    HW131322   1.547   6.137   2.922  0.3005 -0.4516  0.9961
 9967SOL    HW231323   1.677   6.157   2.848 -0.7222  0.0960 -0.7067
 9968SOL     OW31324   4.173   6.935   8.914  0.7638  0.1861  0.7754
 9968SOL    HW131325   4.191   7.025   8.890 -2.1238  1.0478  1.4825
 9968SOL    HW231326   4.151   6.891   8.832  2.9181 -0.1675  0.3163
 9969SOL     OW31327   7.373   8.613   5.488  0.1071  0.2637  0.3072
 9969SOL    HW131328   7.310   8.666   5.537  0.1171 -0.3715  1.0163
 9969SOL    HW231329   7.458   8.637   5.525  0.1150 -0.2145  0.6069
 9970SOL     OW31330   5.538   8.562   1.957 -0.0559 -0.1459 -0.2105
 9970SOL    HW131331   5.513   8.472   1.934  0.2721 -0.0989 -0.7623
 9970SOL    HW231332   5.614   8.552   2.015 -0.1382 -0.2271 -0.1148
 9971SOL     OW31333   7.208   4.914   3.451 -0.1962  0.3923  0.3178
 9971SOL    HW131334   7.261   4.898   3.529 -0.0052 -2.8627 -0.3545
 9971SOL    HW231335   7.117   4.908   3.483 -0.1183 -0.2321  0.4414
 9972SOL     OW31336   1.679   1.871   7.378 -0.2307 -0.1881 -0.5025
 9972SOL    HW131337   1.641   1.783   7.367 -0.7201 -0.4494  2.4611
 9972SOL    HW231338   1.604   1.930   7.370 -0.8022 -0.4592  1.9837
 9973SOL     OW31339   5.233   6.381   3.888 -0.2965  0.2742  0.0864
 9973SOL    HW131340   5.244   6.418   3.976  1.2534  1.9624 -0.7430
 9973SOL    HW231341   5.138   6.377   3.876 -0.6923 -2.7037  2.8376
 9974SOL     OW31342   1.641   9.194   1.608 -0.0980 -0.1874  0.0028
 9974SOL    HW131343   1.619   9.115   1.558 -0.3045  0.2857 -0.6567
 9974SOL    HW231344   1.571   9.256   1.587  0.4560  0.4247 -0.0595
 9975SOL     OW31345   0.057   4.163   4.641 -0.2849  0.2926  0.0154
 9975SOL    HW131346   0.053   4.223   4.567 -0.5261 -1.1581 -1.1939
 9975SOL    HW231347   0.150   4.153   4.659 -0.2426  0.9597  0.1746
 9976SOL     OW31348   6.018   5.899   3.911  0.3518  0.2383 -0.1081
 9976SOL    HW131349   6.088   5.846   3.948 -0.0237 -0.0206  0.2349
 9976SOL    HW231350   5.948   5.898   3.977 -0.0894  0.2595 -0.5640
 9977SOL     OW31351   2.213   7.793   8.976  0.1979  0.4282 -0.1132
 9977SOL    HW131352   2.268   7.717   8.955 -0.5993 -0.7295  1.7600
 9977SOL    HW231353   2.263   7.868   8.943  2.2512 -0.6841  0.2955
 9978SOL     OW31354   3.787   5.932   3.955 -0.4209 -0.4491 -0.1152
 9978SOL    HW131355   3.700   5.896   3.968 -0.2558 -0.1171  2.2145
 9978SOL    HW231356   3.822   5.946   4.043  2.1219 -0.8641 -0.9541
 9979SOL     OW31357   8.239   1.283   5.847 -0.2079  0.1299  0.1545
 9979SOL    HW131358   8.237   1.194   5.883 -0.0082  0.5602  1.2732
 9979SOL    HW231359   8.171   1.283   5.780  0.9006 -1.3457 -1.0672
 9980SOL     OW31360   8.832   4.174   2.082 -0.0726 -0.3626 -0.4952
 9980SOL    HW131361   8.857   4.208   1.996  1.3361 -0.1623 -0.0370
 9980SOL    HW231362   8.769   4.238   2.117  0.5903  0.4182 -0.7083
 9981SOL     OW31363   1.891   5.766   7.309 -0.5445 -0.1429 -0.6337
 9981SOL    HW131364   1.879   5.688   7.362 -3.0965  1.2954  1.1264
 9981SOL    HW231365   1.850   5.745   7.225 -1.1981 -0.7101 -0.1809
 9982SOL     OW31366   8.146   1.060   2.877  0.3499 -0.0341  0.0910
 9982SOL    HW131367   8.200   1.129   2.838  0.2284  0.0676  0.1000
 9982SOL    HW231368   8.204   1.016   2.938  0.7788 -0.7163 -0.7854
 9983SOL     OW31369   0.737   2.554   5.603 -0.3319  0.1831  0.0512
 9983SOL    HW131370   0.656   2.575   5.649 -1.0758 -1.7995 -0.2452
 9983SOL    HW231371   0.739   2.458   5.600  1.8981  0.1728 -0.1970
 9984SOL     OW31372   1.506   8.963   2.298  0.1772 -0.1063 -0.6535
 9984SOL    HW131373   1.437   8.937   2.359  0.5757  1.0177  0.3036
 9984SOL    HW231374   1.486   8.914   2.217 -0.8858 -0.9083  0.0654
 9985SOL     OW31375   8.564   7.592   8.789  0.3270 -0.5813  0.2732
 9985SOL    HW131376   8.521   7.592   8.704  2.9208 -1.5800 -1.1654
 9985SOL    HW231377   8.529   7.516   8.835 -1.2971  0.1261  0.2631
 9986SOL     OW31378   3.383   5.743   2.435 -0.0311  0.5117  0.3261
 9986SOL    HW131379   3.299   5.781   2.410 -0.8579 -1.0971  0.5392
 9986SOL    HW231380   3.361   5.675   2.498  1.5050  0.4892  0.8820
 9987SOL     OW31381   5.798   3.250   7.736 -0.0231  0.3777  0.2811
 9987SOL    HW131382   5.850   3.287   7.808 -0.1378 -0.1367  0.6321
 9987SOL    HW231383   5.849   3.175   7.706 -0.6175 -0.2049  0.7068
 9988SOL     OW31384   4.733   5.656   5.701  0.2557  0.7901  0.6138
 9988SOL    HW131385   4.653   5.606   5.718 -0.0949  0.9741 -0.4170
 9988SOL    HW231386   4.729   5.729   5.763  0.4750 -0.1028  1.7233
 9989SOL     OW31387   1.980   7.087   5.467 -0.3210  0.0114  0.5627
 9989SOL    HW131388   2.053   7.026   5.472  0.0542  0.5156  1.7059
 9989SOL    HW231389   1.914   7.050   5.526 -0.3340  0.3700  0.7794
 9990SOL     OW31390   7.389   8.587   2.465  0.0165  0.1620  0.1315
 9990SOL    HW131391   7.445   8.523   2.421 -2.5379 -1.3952 -1.0679
 9990SOL    HW231392   7.361   8.544   2.545 -0.6345  0.3183 -0.0086
 9991SOL     OW31393   0.261   1.123   4.442  0.1836 -0.1013 -0.0987
 9991SOL    HW131394   0.321   1.135   4.515 -0.1596  0.6754  0.0680
 9991SOL    HW231395   0.315   1.131   4.364  0.3935  0.0202  0.0586
 9992SOL     OW31396   7.018   4.860   1.242 -0.1490 -0.2404  0.4573
 9992SOL    HW131397   7.070   4.784   1.215 -0.6728 -0.8448  1.1122
 9992SOL    HW231398   6.964   4.827   1.315 -2.9721 -0.2278 -1.4783
 9993SOL     OW31399   6.071   6.714   1.934  0.2953 -0.2442 -0.3013
 9993SOL    HW131400   5.980   6.704   1.962  0.4608  1.6204  1.0719
 9993SOL    HW231401   6.119   6.736   2.014  1.8397 -0.4187 -1.1303
 9994SOL     OW31402   4.442   0.254   0.485 -0.4075  0.8068 -0.0445
 9994SOL    HW131403   4.396   0.337   0.475 -0.7634  0.7359  0.8648
 9994SOL    HW231404   4.522   0.277   0.534 -0.0254  0.7594 -0.6415
 9995SOL     OW31405   8.546   0.690   3.429  0.3512 -0.6610 -0.0844
 9995SOL    HW131406   8.498   0.768   3.456  1.5247 -0.0596  0.3464
 9995SOL    HW231407   8.487   0.618   3.450 -0.2198  0.0243  0.7766
 9996SOL     OW31408   5.427   1.455   1.701 -0.0323  0.3156 -0.0967
 9996SOL    HW131409   5.464   1.396   1.766  0.7203  1.1560  0.2618
 9996SOL    HW231410   5.490   1.527   1.695 -0.3337  0.4998 -1.3906
 9997SOL     OW31411   3.081   6.922   5.631 -0.0065 -0.1056 -0.0341
 9997SOL    HW131412   3.133   6.953   5.705  1.0942 -0.3096 -0.7004
 9997SOL    HW231413   2.991   6.946   5.653  0.1727 -0.9663  1.7837
 9998SOL     OW31414   6.772   5.157   2.901  0.0791 -0.2539  0.0891
 9998SOL    HW131415   6.861   5.133   2.928 -0.0431 -1.4128 -0.4719
 9998SOL    HW231416   6.723   5.161   2.983  0.5506 -0.0574  0.3652
 9999SOL     OW31417   1.450   7.623   2.884 -0.4143 -0.1502 -0.4400
 9999SOL    HW131418   1.368   7.653   2.845 -1.8328 -0.9929  1.7128
 9999SOL    HW231419   1.494   7.703   2.912 -0.1352  0.3508 -2.2112
10000SOL     OW31420   3.083   6.802   4.803  0.2430 -0.0382 -0.2864
10000SOL    HW131421   3.071   6.817   4.709 -1.4442  2.1920  0.2041
10000SOL    HW231422   3.011   6.744   4.827  0.6884 -0.6274 -0.3452
10001SOL     OW31423   8.326   5.609   2.216  0.2483 -0.3464  0.7657
10001SOL    HW131424   8.264   5.634   2.284  0.8071  0.1648  1.0978
10001SOL    HW231425   8.347   5.691   2.171 -0.7543 -0.8029 -0.5807
10002SOL     OW31426   1.203   1.968   4.385  0.2586  0.4959 -0.5152
10002SOL    HW131427   1.215   2.047   4.437  1.7560 -0.6299  0.9384
10002SOL    HW231428   1.109   1.955   4.382 -0.0101  2.2460 -0.6839
10003SOL     OW31429   4.895   0.006   8.602  0.0613  0.1013  0.2897
10003SOL    HW131430   4.898   0.085   8.549  4.3806 -0.2975 -0.4582
10003SOL    HW231431   4.886  -0.065   8.539 -1.5624 -0.1657  0.7768
10004SOL     OW31432   7.029   1.054   3.532 -0.2749 -0.0236 -0.2235
10004SOL    HW131433   7.022   1.135   3.581 -0.1449 -0.6285  0.8392
10004SOL    HW231434   7.123   1.035   3.530  0.1060  1.5787 -3.4656
10005SOL     OW31435   1.253   8.990   8.221 -0.0377  0.2509 -0.2556
10005SOL    HW131436   1.303   8.908   8.224 -1.0434 -0.4047  2.6257
10005SOL    HW231437   1.311   9.055   8.261 -0.3083  0.2460  0.1467
10006SOL     OW31438   2.253   3.799   3.638 -0.3812 -1.0660  0.2176
10006SOL    HW131439   2.254   3.712   3.677  0.3079 -0.5153  1.4644
10006SOL    HW231440   2.257   3.860   3.712 -0.6282  0.0319 -0.6327
10007SOL     OW31441   0.886   7.445   4.371 -0.1833  0.3240 -0.0801
10007SOL    HW131442   0.815   7.380   4.376 -0.3809  0.5501  0.0608
10007SOL    HW231443   0.914   7.456   4.462 -0.9736  1.3394  0.0604
10008SOL     OW31444   3.163   0.814   5.870 -0.1450  0.5538  0.6052
10008SOL    HW131445   3.176   0.759   5.947  0.2010  0.4088  0.4452
10008SOL    HW231446   3.188   0.758   5.796 -0.2058  0.7846  0.4082
10009SOL     OW31447   5.270   3.879   0.282  0.0011  0.0644  0.0402
10009SOL    HW131448   5.330   3.936   0.329  0.3571  0.3981 -0.8064
10009SOL    HW231449   5.286   3.792   0.319 -0.7292  0.5242  1.5176
10010SOL     OW31450   2.286   2.169   4.655 -0.0658 -0.0147  0.0115
10010SOL    HW131451   2.342   2.194   4.728 -0.7445  1.3857  0.0890
10010SOL    HW231452   2.197   2.179   4.688 -0.3952 -1.7910 -0.2409
10011SOL     OW31453   5.547   1.989   0.643 -0.2334 -0.4300  0.1618
10011SOL    HW131454   5.581   2.058   0.587  0.1901 -0.3839  0.4725
10011SOL    HW231455   5.566   1.908   0.595 -0.5336 -0.3489 -0.1004
10012SOL     OW31456   8.847   3.800   1.707  0.3247 -0.0448  0.9651
10012SOL    HW131457   8.851   3.777   1.614  0.5830  0.2690  0.8985
10012SOL    HW231458   8.779   3.743   1.743 -0.1601  0.2122  0.4697
10013SOL     OW31459   8.210   1.260   6.351  0.0468 -0.0217 -1.0021
10013SOL    HW131460   8.238   1.344   6.314 -1.7539  0.7908 -0.6468
10013SOL    HW231461   8.133   1.281   6.403  1.8194 -1.2474  2.4898
10014SOL     OW31462   8.013   7.509   1.350  0.0433 -0.3171 -0.0529
10014SOL    HW131463   7.948   7.565   1.391  0.1958 -0.1834  0.0089
10014SOL    HW231464   8.015   7.538   1.259 -0.8145 -1.0971 -0.3362
10015SOL     OW31465   7.221   6.912   9.168 -0.4261  0.5402 -0.5996
10015SOL    HW131466   7.195   6.819   9.168  1.9684 -0.2109  0.4145
10015SOL    HW231467   7.274   6.921   9.089  3.7512 -0.4716  1.8041
10016SOL     OW31468   5.957   5.863   7.643 -0.3109 -0.0844 -0.0250
10016SOL    HW131469   6.009   5.891   7.718 -3.9500 -0.5762  3.0150
10016SOL    HW231470   5.885   5.926   7.639 -0.6286 -0.4967 -2.7385
10017SOL     OW31471   7.651   0.112   4.644  0.1452 -0.6280  0.1635
10017SOL    HW131472   7.579   0.077   4.696 -0.2317 -0.3497 -0.1619
10017SOL    HW231473   7.685   0.185   4.696 -0.6072  0.0186 -0.2343
10018SOL     OW31474   0.217   3.012   2.578 -0.5497  0.0816  0.3021
10018SOL    HW131475   0.129   2.996   2.612 -0.4580  0.7126  0.8711
10018SOL    HW231476   0.253   3.079   2.636 -0.1581  0.7503 -0.6802
10019SOL     OW31477   9.265   4.161   5.879 -0.1040  0.0639 -0.1582
10019SOL    HW131478   9.349   4.182   5.838 -0.7778  0.3329 -1.4707
10019SOL    HW231479   9.220   4.245   5.886 -0.6975 -0.2152 -0.5029
10020SOL     OW31480   2.468   0.845   1.599 -0.1035 -1.0563  0.8654
10020SOL    HW131481   2.486   0.901   1.675  1.7386 -1.5075  0.8073
10020SOL    HW231482   2.554   0.823   1.564 -0.8448 -2.4735 -0.1894
10021SOL     OW31483   7.092   1.967   5.939  0.2746  0.9415 -0.1345
10021SOL    HW131484   7.032   2.028   5.897  0.2591  0.2384 -1.1705
10021SOL    HW231485   7.036   1.914   5.996  0.4142  2.4485  1.4910
10022SOL     OW31486   4.457   7.995   6.239  0.5762 -0.1039  0.3085
10022SOL    HW131487   4.477   8.089   6.241 -1.2457  0.3324 -0.4317
10022SOL    HW231488   4.362   7.991   6.227  0.7985 -2.0452 -1.2632
10023SOL     OW31489   7.578   4.174   1.331 -0.2075 -0.0440  0.5961
10023SOL    HW131490   7.597   4.254   1.379 -1.1751  0.5322  0.0635
10023SOL    HW231491   7.494   4.144   1.365  0.0683 -0.7570  0.6779
10024SOL     OW31492   3.606   6.105   0.440 -0.0556  0.0126 -0.1290
10024SOL    HW131493   3.651   6.113   0.356  0.2348 -2.7457 -0.3228
10024SOL    HW231494   3.675   6.121   0.505  0.2763 -0.1947 -0.4239
10025SOL     OW31495   8.366   0.480   0.255 -0.6107 -0.0646 -0.3873
10025SOL    HW131496   8.394   0.389   0.240 -1.7234 -0.2400 -1.6518
10025SOL    HW231497   8.427   0.533   0.203  1.9351  0.2477  2.6679
10026SOL     OW31498   1.588   7.090   5.302 -0.0631 -0.3692 -0.5694
10026SOL    HW131499   1.533   7.070   5.227 -0.2055  0.3722 -0.6758
10026SOL    HW231500   1.568   7.021   5.366 -1.3049  0.0171 -0.5105
10027SOL     OW31501   2.902   5.208   7.454  0.3551  0.3751 -0.0170
10027SOL    HW131502   2.966   5.265   7.497 -0.5180  0.4343  1.2716
10027SOL    HW231503   2.818   5.251   7.468 -0.1988 -0.6957  0.0559
10028SOL     OW31504   1.748   4.129   1.580 -0.0420 -0.0481  0.2209
10028SOL    HW131505   1.706   4.096   1.500 -0.0858 -0.8007  0.5485
10028SOL    HW231506   1.727   4.065   1.647  0.6555  0.1668  0.6626
10029SOL     OW31507   0.857   2.651   1.871  0.4247 -0.1549 -0.3505
10029SOL    HW131508   0.927   2.649   1.805  0.5820 -0.6757 -0.1714
10029SOL    HW231509   0.903   2.661   1.954  0.4597 -2.6872 -0.0104
10030SOL     OW31510   2.577   5.229   4.974 -0.4709 -0.7306 -0.2070
10030SOL    HW131511   2.503   5.287   4.994 -0.8702 -1.6101  1.0182
10030SOL    HW231512   2.555   5.191   4.890 -1.6291 -1.2680  0.3062
10031SOL     OW31513   2.259   1.839   3.657 -0.0817 -0.1971 -0.7231
10031SOL    HW131514   2.243   1.919   3.606 -0.2198  0.3562  0.1800
10031SOL    HW231515   2.304   1.869   3.736 -0.5447 -0.9582 -0.1588
10032SOL     OW31516   7.996   2.417   8.045  0.6363  0.1972  0.0165
10032SOL    HW131517   7.922   2.468   8.077  0.0685  0.4370 -1.5860
10032SOL    HW231518   8.073   2.469   8.070  0.1473  1.0368 -0.1580
10033SOL     OW31519   8.575   7.888   4.779  0.3724 -0.1838 -1.1817
10033SOL    HW131520   8.651   7.945   4.770 -0.4256  1.1096 -0.1400
10033SOL    HW231521   8.512   7.922   4.716  0.1621 -0.4128 -1.0990
10034SOL     OW31522   2.616   3.755   0.555 -0.0002  0.1474 -0.7634
10034SOL    HW131523   2.630   3.814   0.481 -1.9678  1.8883  0.1407
10034SOL    HW231524   2.534   3.709   0.535 -0.0237 -0.1080 -0.1273
10035SOL     OW31525   9.111   2.373   1.890  0.1420  0.1837 -0.1399
10035SOL    HW131526   9.074   2.326   1.964 -0.9954 -0.7857 -1.2804
10035SOL    HW231527   9.123   2.463   1.922 -2.1187  0.2746  0.6645
10036SOL     OW31528   5.725   5.849   1.188  0.0429  0.1236  0.4166
10036SOL    HW131529   5.702   5.925   1.134  2.3344  0.6164  0.0530
10036SOL    HW231530   5.765   5.787   1.128 -0.8325 -0.9606  0.9096
10037SOL     OW31531   2.064   2.997   5.746  0.2216  0.4644 -0.4702
10037SOL    HW131532   2.117   2.933   5.698 -1.0273  0.2422 -1.6268
10037SOL    HW231533   2.055   3.070   5.685 -0.3813  0.7078 -0.0949
10038SOL     OW31534   4.156   3.984   6.312 -0.0005 -0.3693  0.3443
10038SOL    HW131535   4.064   4.010   6.318  0.2510  1.4080 -1.9758
10038SOL    HW231536   4.196   4.052   6.258  2.4714 -1.6709  0.4140
10039SOL     OW31537   1.833   2.399   6.848  0.5110 -0.2999  0.6587
10039SOL    HW131538   1.888   2.332   6.809  0.7128  0.2074  0.0601
10039SOL    HW231539   1.850   2.478   6.796 -0.2405  0.0401  0.9145
10040SOL     OW31540   2.621   0.023   3.848 -0.4769 -0.0269  0.1898
10040SOL    HW131541   2.697   0.078   3.827  0.3983 -1.1260  0.3360
10040SOL    HW231542   2.553   0.051   3.788  1.0394 -1.1191 -2.1882
10041SOL     OW31543   3.786   1.240   0.458  0.1683 -0.0790 -0.2427
10041SOL    HW131544   3.880   1.233   0.440  0.3475  0.4800  0.4339
10041SOL    HW231545   3.759   1.321   0.413  0.2419  0.3405  0.4530
10042SOL     OW31546   3.431   3.053   5.431  0.1859 -0.1491 -0.6460
10042SOL    HW131547   3.501   3.069   5.495 -1.0986  0.3952  0.6778
10042SOL    HW231548   3.403   3.141   5.404 -0.1869 -0.3521 -0.9266
10043SOL     OW31549   8.383   4.320   1.217 -0.3683 -0.1452  0.4442
10043SOL    HW131550   8.466   4.293   1.175 -0.7486  0.8532 -1.0384
10043SOL    HW231551   8.409   4.389   1.278 -0.0017 -0.4998  0.7022
10044SOL     OW31552   1.961   2.688   4.798 -0.1086 -0.7211  0.1016
10044SOL    HW131553   1.879   2.641   4.813 -0.9560  0.6268 -0.2323
10044SOL    HW231554   2.002   2.693   4.885 -0.2616 -1.5683  0.2332
10045SOL     OW31555   6.061   3.621   2.557  0.1271  0.1055 -0.6865
10045SOL    HW131556   6.021   3.544   2.598  1.5890 -0.4187 -0.1634
10045SOL    HW231557   6.001   3.693   2.578 -0.5015 -0.6271  0.1165
10046SOL     OW31558   6.099   4.860   3.884  0.3111  0.1209 -0.4521
10046SOL    HW131559   6.046   4.915   3.943  1.0190 -0.0620  0.3732
10046SOL    HW231560   6.187   4.896   3.891  1.1323 -2.0078  1.2902
10047SOL     OW31561   1.639   0.787   0.932  0.3724  0.3258 -0.3981
10047SOL    HW131562   1.586   0.798   1.011  0.2356 -0.6784 -0.3322
10047SOL    HW231563   1.674   0.874   0.914  2.3463  0.1858  2.1647
10048SOL     OW31564   4.808   3.662   5.962 -0.2750  0.6729  0.4898
10048SOL    HW131565   4.724   3.619   5.946  1.6786 -2.8671 -1.2940
10048SOL    HW231566   4.824   3.713   5.883  0.2159 -0.4569 -0.1564
10049SOL     OW31567   2.960   8.524   7.284 -0.6473 -0.3262 -0.0653
10049SOL    HW131568   2.908   8.557   7.212  0.1816  1.0493 -0.0630
10049SOL    HW231569   3.038   8.487   7.243 -1.8236 -3.0033 -0.1288
10050SOL     OW31570   1.323   3.166   1.997 -0.0727  0.6468 -0.0938
10050SOL    HW131571   1.412   3.182   2.029 -0.0442  1.5845 -0.5927
10050SOL    HW231572   1.266   3.189   2.070  0.0843  0.1441  0.1919
10051SOL     OW31573   6.292   4.936   8.649  0.0020 -0.2437 -0.1446
10051SOL    HW131574   6.387   4.937   8.652 -0.0305 -0.1945  0.9809
10051SOL    HW231575   6.270   4.978   8.565  0.9517 -0.1548 -0.3559
10052SOL     OW31576   0.526   1.664   1.777 -0.2000 -0.2655 -0.6847
10052SOL    HW131577   0.487   1.703   1.855 -1.0070  0.0098 -1.2141
10052SOL    HW231578   0.606   1.622   1.808  1.1700  2.4968 -0.2075
10053SOL     OW31579   1.120   5.875   6.104  0.1744 -0.8325  0.0403
10053SOL    HW131580   1.090   5.932   6.175 -0.9767 -1.3152 -0.0479
10053SOL    HW231581   1.210   5.904   6.087 -0.8760  2.0246 -1.1066
10054SOL     OW31582   8.240   1.873   0.481  0.2123  0.0729 -0.0194
10054SOL    HW131583   8.184   1.950   0.469 -0.3454 -0.3704 -0.3326
10054SOL    HW231584   8.178   1.801   0.494  0.7031  0.1824  3.8531
10055SOL     OW31585   2.475   4.692   9.110 -0.4234  0.3901  0.3058
10055SOL    HW131586   2.526   4.720   9.186 -0.8775  0.9630  0.4062
10055SOL    HW231587   2.531   4.712   9.035  0.1942 -0.5406  0.4929
10056SOL     OW31588   4.485   5.651   1.494 -0.2323 -0.4921 -0.0221
10056SOL    HW131589   4.490   5.567   1.449 -2.7803 -0.5631 -0.2833
10056SOL    HW231590   4.484   5.716   1.424  0.6669 -0.2801  0.1465
10057SOL     OW31591   5.297   7.548   1.690  0.1632  0.4816  0.4536
10057SOL    HW131592   5.348   7.607   1.634  0.3626 -0.2251 -0.1406
10057SOL    HW231593   5.315   7.461   1.654 -1.6545  0.2186  0.0604
10058SOL     OW31594   5.445   2.217   7.421 -0.1579 -0.3517 -0.3834
10058SOL    HW131595   5.532   2.254   7.405 -0.4201  0.1608 -0.6499
10058SOL    HW231596   5.448   2.187   7.511 -0.7142  2.5798  0.7186
10059SOL     OW31597   3.398   7.905   0.544  0.2926  0.6603 -0.3021
10059SOL    HW131598   3.487   7.940   0.540  0.4056  0.3921 -0.1102
10059SOL    HW231599   3.345   7.980   0.573  0.4029  0.9127 -0.7462
10060SOL     OW31600   6.002   6.767   2.985  0.2485  0.3446 -0.4559
10060SOL    HW131601   6.093   6.784   2.961  0.0823  0.8548 -0.7521
10060SOL    HW231602   6.007   6.708   3.060  0.8070 -0.2826 -0.9760
10061SOL     OW31603   5.222   1.338   8.137  0.2207 -0.1375  0.1234
10061SOL    HW131604   5.187   1.377   8.216 -1.0427  0.3231 -0.6443
10061SOL    HW231605   5.253   1.412   8.084  1.4918 -0.4703  0.3654
10062SOL     OW31606   2.230   6.243   1.179 -0.7359 -0.5002 -0.5840
10062SOL    HW131607   2.287   6.212   1.249 -0.6220  1.1633  0.1051
10062SOL    HW231608   2.276   6.318   1.142 -1.5693 -0.3531 -1.3457
10063SOL     OW31609   7.862   1.457   5.681 -0.4311  0.1896  0.4515
10063SOL    HW131610   7.831   1.511   5.754 -0.0922  0.1546  0.6226
10063SOL    HW231611   7.819   1.373   5.695 -1.8661  0.7443 -0.4567
10064SOL     OW31612   6.482   3.722   7.646  0.3364 -0.4209  0.1421
10064SOL    HW131613   6.480   3.636   7.689 -1.6991 -1.9166 -2.5957
10064SOL    HW231614   6.564   3.723   7.597  0.5552 -0.6119  0.4998
10065SOL     OW31615   8.390   4.845   1.794  0.3216  0.0443  0.7736
10065SOL    HW131616   8.368   4.922   1.742 -0.9343  0.6004  2.0713
10065SOL    HW231617   8.306   4.806   1.816  0.9407 -1.8738 -0.0727
10066SOL     OW31618   3.181   3.726   8.955 -0.2440  0.1575 -0.2368
10066SOL    HW131619   3.200   3.650   8.901  0.9363 -0.0095  0.3812
10066SOL    HW231620   3.266   3.754   8.989 -0.6439  1.7821 -0.4814
10067SOL     OW31621   4.608   4.812   3.045  0.0022  0.4065 -0.2954
10067SOL    HW131622   4.552   4.844   3.116  2.6649  0.1940  2.0851
10067SOL    HW231623   4.668   4.885   3.027 -0.2765  0.2517 -2.0087
10068SOL     OW31624   0.470   3.912   8.473  0.2428 -0.0500  0.2457
10068SOL    HW131625   0.437   3.929   8.385  0.1004 -0.1061  0.2893
10068SOL    HW231626   0.553   3.959   8.477 -0.6881  1.6106  0.7656
10069SOL     OW31627   3.418   7.806   2.162 -0.1642  0.0384  0.1010
10069SOL    HW131628   3.382   7.872   2.221  0.5896 -0.4191  1.1061
10069SOL    HW231629   3.436   7.854   2.081 -2.6463  0.3448 -0.3381
10070SOL     OW31630   1.881   2.710   9.253  0.3066  0.2632 -0.1782
10070SOL    HW131631   1.920   2.624   9.269 -0.1592  0.2672  1.0196
10070SOL    HW231632   1.929   2.743   9.176  1.6901 -0.3273  0.3930
10071SOL     OW31633   1.637   4.285   8.135 -0.2744  0.2874  0.8310
10071SOL    HW131634   1.640   4.233   8.055 -0.3404  0.1719  0.9019
10071SOL    HW231635   1.549   4.269   8.170 -0.2586  0.3658  0.9069
10072SOL     OW31636   7.101   8.713   3.572 -0.0393 -0.5293  0.0844
10072SOL    HW131637   7.149   8.685   3.649  0.7415 -0.4350 -0.3550
10072SOL    HW231638   7.050   8.789   3.601  0.9700  0.0899  0.2876
10073SOL     OW31639   5.086   3.427   4.614  0.4856  0.4391 -0.4110
10073SOL    HW131640   5.086   3.414   4.709  0.4857  1.8622 -0.1866
10073SOL    HW231641   5.060   3.343   4.578 -3.4224  0.8321  1.0038
10074SOL     OW31642   7.134   6.969   1.967  0.0803 -0.0861  0.0275
10074SOL    HW131643   7.060   6.981   1.907 -0.7460 -1.1986  0.7861
10074SOL    HW231644   7.098   6.919   2.040  1.3552  0.2182  0.8985
10075SOL     OW31645   2.629   6.254   8.254  0.7312  0.2248  0.4098
10075SOL    HW131646   2.555   6.266   8.194  0.7312 -1.2559  0.0851
10075SOL    HW231647   2.704   6.240   8.197  0.9611  0.0893  0.7425
10076SOL     OW31648   4.597   4.417   6.634 -0.3576 -0.0815 -0.5152
10076SOL    HW131649   4.635   4.332   6.614 -0.9391 -0.7738  1.1733
10076SOL    HW231650   4.555   4.406   6.719 -1.7177  1.4908 -0.9158
10077SOL     OW31651   1.227   5.892   3.399 -0.6461 -0.6220  0.0900
10077SOL    HW131652   1.197   5.875   3.310  0.6527 -0.3188 -0.4290
10077SOL    HW231653   1.153   5.934   3.442 -1.5079 -1.3649 -0.6493
10078SOL     OW31654   8.465   7.660   7.975 -0.3121  0.1841  0.2137
10078SOL    HW131655   8.514   7.603   8.034 -0.0948 -0.0567 -0.1932
10078SOL    HW231656   8.382   7.614   7.961 -0.3284  0.1982  0.2629
10079SOL     OW31657   4.946   3.998   7.927 -0.2859 -0.2162  0.2344
10079SOL    HW131658   4.873   4.001   7.990  0.2999  2.5728  0.8910
10079SOL    HW231659   4.949   4.085   7.888  2.3032 -0.4308 -0.2491
10080SOL     OW31660   4.193   0.600   0.216 -0.3938  0.0790  0.1635
10080SOL    HW131661   4.204   0.544   0.140  1.3181  2.1172 -1.2049
10080SOL    HW231662   4.281   0.604   0.255 -0.7188  0.9309  0.8442
10081SOL     OW31663   8.691   6.145   7.279 -0.0127  0.6147 -0.0033
10081SOL    HW131664   8.625   6.191   7.227  1.1697 -0.5576 -2.7359
10081SOL    HW231665   8.749   6.213   7.313  0.5460  1.3214 -2.2646
10082SOL     OW31666   1.668   0.093   5.983  0.6354  0.4843 -0.7158
10082SOL    HW131667   1.725   0.076   6.059  0.0984  0.7199 -0.2553
10082SOL    HW231668   1.724   0.140   5.921  0.8759  0.9422 -0.1612
10083SOL     OW31669   4.292   4.478   6.797  0.4765 -0.5041 -0.0262
10083SOL    HW131670   4.353   4.404   6.802  2.3871  0.9795 -0.2400
10083SOL    HW231671   4.329   4.543   6.857 -0.3796  0.8188 -0.8948
10084SOL     OW31672   4.823   1.155   0.868 -0.3848  0.0085 -0.3534
10084SOL    HW131673   4.832   1.178   0.960  1.6810 -0.7584 -0.3104
10084SOL    HW231674   4.787   1.066   0.869 -2.5796  0.8184 -0.4019
10085SOL     OW31675   8.935   5.790   1.842  0.1595 -0.3395  0.0831
10085SOL    HW131676   8.988   5.730   1.894  1.0811 -0.4275 -0.9216
10085SOL    HW231677   8.967   5.877   1.865  1.6150 -0.4385 -1.3814
10086SOL     OW31678   8.370   2.815   1.204 -0.4207 -0.2048  0.1252
10086SOL    HW131679   8.421   2.735   1.208  0.3713  0.3357  1.6426
10086SOL    HW231680   8.433   2.883   1.178 -1.2275 -0.1554 -1.8488
10087SOL     OW31681   2.772   5.955   5.315  0.2476  0.1563  0.6049
10087SOL    HW131682   2.858   5.988   5.289 -0.1037  0.7357  0.1695
10087SOL    HW231683   2.774   5.862   5.294  0.9432  0.0585  1.0619
10088SOL     OW31684   4.941   8.198   0.110 -0.5180 -0.0871  0.0771
10088SOL    HW131685   4.880   8.254   0.159 -1.4050 -0.7197 -0.2849
10088SOL    HW231686   4.913   8.109   0.130  0.0467 -0.3813 -0.4116
10089SOL     OW31687   5.889   1.940   4.411  0.3426  0.3166 -0.2337
10089SOL    HW131688   5.849   1.998   4.345  1.4147 -0.0163 -1.2078
10089SOL    HW231689   5.951   1.887   4.361 -1.1469 -2.2664  0.4712
10090SOL     OW31690   6.280   8.120   6.421 -0.3755  0.7594 -0.4055
10090SOL    HW131691   6.263   8.087   6.333  1.6182 -1.5246 -0.0371
10090SOL    HW231692   6.201   8.096   6.471 -0.4943 -0.2247 -1.0240
10091SOL     OW31693   5.713   4.717   9.074  0.4738  0.3104  0.0728
10091SOL    HW131694   5.730   4.690   8.984  0.2223  0.1682  0.0668
10091SOL    HW231695   5.770   4.661   9.127 -0.6193 -0.7914  0.1127
10092SOL     OW31696   5.658   7.700   6.515 -0.5866  0.1464 -0.1946
10092SOL    HW131697   5.679   7.691   6.422  1.6563  1.0977  0.1488
10092SOL    HW231698   5.637   7.611   6.543  1.3482 -0.6495 -1.0758
10093SOL     OW31699   5.582   5.766   4.889 -0.6211  0.3292 -0.5010
10093SOL    HW131700   5.550   5.740   4.976 -2.9221  0.1357 -1.3267
10093SOL    HW231701   5.595   5.683   4.843  0.1906  0.4432 -0.4810
10094SOL     OW31702   0.367   3.500   0.089  0.0507  0.3768 -0.4787
10094SOL    HW131703   0.418   3.502   0.008  0.4565  2.3083 -0.2318
10094SOL    HW231704   0.412   3.437   0.145  2.0856  1.8425 -0.3618
10095SOL     OW31705   6.396   0.627   5.306 -0.0028  0.8553  0.2850
10095SOL    HW131706   6.364   0.572   5.378 -1.4963 -0.3529 -1.2448
10095SOL    HW231707   6.354   0.712   5.321 -0.7929  0.4376  0.5137
10096SOL     OW31708   6.504   1.463   1.091  0.3191 -0.2050 -0.6436
10096SOL    HW131709   6.572   1.400   1.112  1.9332  1.6194 -0.0713
10096SOL    HW231710   6.526   1.494   1.003 -0.7158 -0.7400 -1.1040
10097SOL     OW31711   1.623   3.855   4.814  0.0718  0.2542 -1.0073
10097SOL    HW131712   1.699   3.803   4.842  0.5606  0.9731 -0.9692
10097SOL    HW231713   1.649   3.889   4.728  0.0595  1.0480 -0.6988
10098SOL     OW31714   5.821   8.357   8.812  0.7935  0.0355 -0.4178
10098SOL    HW131715   5.780   8.276   8.845 -0.7416  1.7852  2.3702
10098SOL    HW231716   5.915   8.341   8.820  0.5199 -1.0826  1.2908
10099SOL     OW31717   5.171   7.102   1.686  0.5047  0.3391  0.1838
10099SOL    HW131718   5.096   7.155   1.660  0.3451 -0.6612 -1.5522
10099SOL    HW231719   5.236   7.165   1.717 -0.6899  1.2901  0.8413
10100SOL     OW31720   0.232   1.406   1.340  0.4016 -0.2027  0.5209
10100SOL    HW131721   0.144   1.396   1.303  0.6264 -0.2004 -0.0251
10100SOL    HW231722   0.222   1.474   1.407  0.0980  0.1818  0.0906
10101SOL     OW31723   0.350   7.330   6.391  0.3970  0.1430  0.5866
10101SOL    HW131724   0.359   7.261   6.456 -0.7333  0.5132  1.1594
10101SOL    HW231725   0.436   7.373   6.390  0.5569 -0.1373  1.5139
10102SOL     OW31726   8.283   5.302   2.831  0.3243  0.2295 -0.0631
10102SOL    HW131727   8.195   5.267   2.814  0.8553 -0.8671 -0.7429
10102SOL    HW231728   8.280   5.333   2.921 -0.8348  0.4682 -0.1659
10103SOL     OW31729   8.780   0.312   1.476 -0.7482 -0.1281  0.0581
10103SOL    HW131730   8.834   0.251   1.526 -2.7771 -0.9028  1.4288
10103SOL    HW231731   8.752   0.263   1.399 -1.7188 -0.6979  0.7529
10104SOL     OW31732   2.565   0.260   9.062 -0.2278  0.1760  1.3152
10104SOL    HW131733   2.634   0.214   9.015 -1.2569  0.3924 -0.4995
10104SOL    HW231734   2.518   0.191   9.109 -0.3244 -0.3137  0.5126
10105SOL     OW31735   9.107   2.388   6.517 -0.4700  0.3225 -0.3935
10105SOL    HW131736   9.086   2.297   6.540 -1.7747  0.6707 -0.1621
10105SOL    HW231737   9.203   2.392   6.522 -0.2272 -1.4899 -2.1448
10106SOL     OW31738   7.110   3.983   5.761  0.2127  0.2994 -0.1975
10106SOL    HW131739   7.132   3.961   5.670  0.5043  0.9637 -0.2938
10106SOL    HW231740   7.035   3.928   5.781  1.2800 -1.2046 -0.2278
10107SOL     OW31741   3.547   3.321   1.633  0.2166 -0.3507  0.4218
10107SOL    HW131742   3.493   3.396   1.658 -0.9549 -1.4099  1.1498
10107SOL    HW231743   3.502   3.283   1.557  0.6189 -0.5417  0.2735
10108SOL     OW31744   7.332   0.931   7.839 -0.1180 -0.0185  0.6423
10108SOL    HW131745   7.281   0.900   7.764  2.2497  0.3163 -1.2265
10108SOL    HW231746   7.303   1.022   7.851 -1.7387 -0.5845  1.3210
10109SOL     OW31747   7.533   7.978   2.386 -0.4483 -0.1494  0.6588
10109SOL    HW131748   7.596   7.974   2.314  1.3812 -0.0613  2.1676
10109SOL    HW231749   7.456   8.021   2.349  0.7920  0.7519 -0.9871
10110SOL     OW31750   8.430   0.520   5.285 -0.2206 -0.3118  0.2662
10110SOL    HW131751   8.494   0.591   5.293 -1.7021  1.4895 -2.3832
10110SOL    HW231752   8.372   0.531   5.360 -0.8035  1.7666 -0.4387
10111SOL     OW31753   4.487   7.986   5.760  0.1090  0.3094  0.9071
10111SOL    HW131754   4.506   7.985   5.854  0.1862  0.6665  0.8976
10111SOL    HW231755   4.429   8.062   5.749  0.9587  0.9172  0.5076
10112SOL     OW31756   5.079   8.899   7.178  0.0380  0.2883 -0.2942
10112SOL    HW131757   5.089   8.934   7.266  1.0417 -0.7224  0.0106
10112SOL    HW231758   4.989   8.866   7.176  0.4552 -1.0226  0.8702
10113SOL     OW31759   6.649   7.024   6.622  0.4873 -0.0598 -0.0726
10113SOL    HW131760   6.732   7.069   6.607  0.3116 -0.1376 -1.4284
10113SOL    HW231761   6.584   7.093   6.629  0.7182  0.0311  1.5825
10114SOL     OW31762   8.294   4.418   8.058  0.3673 -0.0632 -0.3247
10114SOL    HW131763   8.236   4.457   7.993 -0.4240 -0.5392  0.0806
10114SOL    HW231764   8.235   4.379   8.122  1.1263  0.3365  0.6491
10115SOL     OW31765   0.246   5.324   1.770  0.5398  0.1168 -0.1028
10115SOL    HW131766   0.258   5.342   1.863 -0.0659 -1.3834  0.3028
10115SOL    HW231767   0.167   5.372   1.746  0.2738 -0.0966  0.3462
10116SOL     OW31768   1.654   5.535   3.477  0.1614 -0.5724 -0.3178
10116SOL    HW131769   1.620   5.518   3.389 -0.2937 -2.0712  0.1133
10116SOL    HW231770   1.649   5.630   3.487 -0.7637 -0.4696 -1.5206
10117SOL     OW31771   3.175   6.454   4.559  0.1165 -0.2392  0.3946
10117SOL    HW131772   3.102   6.475   4.617 -2.6945 -2.6793 -1.9471
10117SOL    HW231773   3.236   6.405   4.614 -0.8448  0.3415  2.0278
10118SOL     OW31774   7.940   4.830   2.833 -0.4567  0.2513  0.1730
10118SOL    HW131775   7.909   4.781   2.910 -0.9927  0.5769  0.1684
10118SOL    HW231776   8.034   4.812   2.830 -0.2368  1.0413  1.4941
10119SOL     OW31777   8.183   8.151   4.949  0.1117 -0.1646  0.5108
10119SOL    HW131778   8.237   8.155   5.028 -0.1612 -1.7815  0.8194
10119SOL    HW231779   8.160   8.059   4.941 -0.9308  0.1812 -0.7548
10120SOL     OW31780   1.793   4.592   7.952 -0.3318  0.6846 -0.0631
10120SOL    HW131781   1.830   4.538   8.022 -2.5718 -1.1534 -0.1963
10120SOL    HW231782   1.789   4.680   7.989 -0.7800 -0.1031  1.8691
10121SOL     OW31783   9.007   2.770   4.207  0.1791 -0.0931 -0.3185
10121SOL    HW131784   9.099   2.794   4.211  0.9188 -2.6613 -0.4711
10121SOL    HW231785   8.969   2.829   4.142  1.7161  0.8977 -0.3551
10122SOL     OW31786   2.129   6.981   5.070  0.0905 -0.1835  0.6538
10122SOL    HW131787   2.190   7.053   5.056 -1.3739  0.9500 -0.2177
10122SOL    HW231788   2.050   7.023   5.106 -0.7463 -1.3498  0.2426
10123SOL     OW31789   8.921   2.193   0.090 -0.3763  0.5086 -0.8855
10123SOL    HW131790   8.977   2.233   0.157  2.2785 -0.8967 -2.1232
10123SOL    HW231791   8.839   2.174   0.136  0.5103  1.6129  1.3337
10124SOL     OW31792   7.567   7.771   8.829  0.1767 -0.2428 -0.5477
10124SOL    HW131793   7.595   7.770   8.921 -1.6180  0.8240  0.0674
10124SOL    HW231794   7.524   7.856   8.818  1.2052  0.0648 -2.6694
10125SOL     OW31795   6.945   3.854   6.389 -0.3576 -0.0822  0.1121
10125SOL    HW131796   6.992   3.936   6.400  1.1810 -0.6408 -1.5407
10125SOL    HW231797   6.864   3.864   6.437  0.8862  1.4654  1.9938
10126SOL     OW31798   8.560   3.384   4.127 -0.5157 -0.4172 -0.6930
10126SOL    HW131799   8.488   3.446   4.119 -0.4389 -0.4524 -1.8407
10126SOL    HW231800   8.546   3.321   4.057  0.0383 -1.0483 -0.2529
10127SOL     OW31801   8.231   2.853   7.543  0.5491  0.0297 -0.0974
10127SOL    HW131802   8.245   2.924   7.481 -2.4244  1.1303  0.3138
10127SOL    HW231803   8.138   2.831   7.533  0.5901 -1.4649  2.1847
10128SOL     OW31804   6.320   3.901   1.701 -0.1171 -0.1979 -0.0218
10128SOL    HW131805   6.317   3.821   1.754  0.4557  0.0821  0.4277
10128SOL    HW231806   6.250   3.888   1.636 -0.8149 -0.5525  0.7732
10129SOL     OW31807   6.328   8.363   2.107  0.2396  0.0759  0.6263
10129SOL    HW131808   6.301   8.276   2.136 -2.9085  0.1577 -1.5219
10129SOL    HW231809   6.299   8.423   2.176 -0.5083 -0.3298  0.6683
10130SOL     OW31810   6.694   3.489   7.563  0.1774  0.4296  0.4333
10130SOL    HW131811   6.789   3.501   7.562  0.8504 -3.4692 -0.7034
10130SOL    HW231812   6.679   3.428   7.636 -1.2387 -0.0587 -0.2277
10131SOL     OW31813   0.865   6.445   1.914  0.2581 -0.0442 -0.1398
10131SOL    HW131814   0.869   6.376   1.847  0.4197 -0.7879  0.6152
10131SOL    HW231815   0.795   6.503   1.884  0.6413 -0.1026 -1.1880
10132SOL     OW31816   7.181   6.186   4.512 -0.1924 -0.1487  0.2202
10132SOL    HW131817   7.217   6.221   4.594  1.2198 -0.0989 -0.3948
10132SOL    HW231818   7.168   6.264   4.457  0.5844 -0.3300 -0.2407
10133SOL     OW31819   0.808   1.054   3.432 -0.6745  0.2363 -0.2049
10133SOL    HW131820   0.868   1.084   3.500 -1.0391  0.4846  0.0124
10133SOL    HW231821   0.842   0.968   3.406  0.5856  0.9755 -1.0892
10134SOL     OW31822   3.461   3.800   8.036 -0.3402  0.2679  0.0500
10134SOL    HW131823   3.549   3.768   8.055  0.4056  1.9254 -0.3989
10134SOL    HW231824   3.439   3.854   8.112 -0.1102  1.4885 -0.7258
10135SOL     OW31825   5.360   6.726   7.475  0.0601 -0.4059  0.1983
10135SOL    HW131826   5.334   6.675   7.398 -0.2904 -0.9729  0.6886
10135SOL    HW231827   5.384   6.661   7.540  1.3416  0.0867  0.2432
10136SOL     OW31828   3.050   7.467   1.821  0.2030  0.7546  0.2525
10136SOL    HW131829   2.969   7.448   1.867  0.7705  0.8204  1.2959
10136SOL    HW231830   3.119   7.442   1.882  0.9702  2.0381 -0.0644
10137SOL     OW31831   4.721   3.794   2.195 -0.2669  0.2892 -0.0003
10137SOL    HW131832   4.717   3.714   2.142  0.7165 -0.0979  0.4803
10137SOL    HW231833   4.815   3.807   2.211 -0.4990  0.8103  1.0172
10138SOL     OW31834   3.165   3.239   5.090  0.3265  0.1612 -0.1884
10138SOL    HW131835   3.215   3.167   5.128 -0.5628 -1.0203 -1.1714
10138SOL    HW231836   3.174   3.228   4.996 -2.0673 -0.3572 -0.4277
10139SOL     OW31837   5.029   1.799   2.868  0.1284  0.4114 -0.3303
10139SOL    HW131838   5.097   1.846   2.916  0.4039  0.2930 -0.6009
10139SOL    HW231839   4.970   1.868   2.838 -0.5398  0.4142  0.9241
10140SOL     OW31840   2.569   0.356   4.003 -0.0779 -0.4471  0.6505
10140SOL    HW131841   2.567   0.450   4.023 -0.1297 -0.4961  0.8713
10140SOL    HW231842   2.662   0.334   3.996  0.0018  0.3594 -2.8191
10141SOL     OW31843   8.730   7.712   7.694 -0.1278  0.3057 -0.3898
10141SOL    HW131844   8.811   7.697   7.646  0.8849 -0.6533  1.5055
10141SOL    HW231845   8.683   7.777   7.642  0.9548 -0.5457 -2.5443
10142SOL     OW31846   5.611   7.384   7.895 -0.2661 -0.1242  1.2306
10142SOL    HW131847   5.687   7.395   7.952  0.7264  0.2843 -0.1253
10142SOL    HW231848   5.549   7.450   7.926 -0.1612 -0.5809  2.4689
10143SOL     OW31849   8.920   5.051   4.892 -0.0400  0.7303  0.0332
10143SOL    HW131850   8.829   5.074   4.871  0.1454  1.5515  0.1298
10143SOL    HW231851   8.949   5.000   4.816 -0.1362  1.6521 -0.6342
10144SOL     OW31852   0.910   1.744   0.137 -0.6559 -0.3517  0.5745
10144SOL    HW131853   0.868   1.658   0.127  0.7208 -0.9243 -0.7523
10144SOL    HW231854   0.916   1.757   0.231  0.2275 -2.3227  0.8527
10145SOL     OW31855   3.119   8.291   2.197  0.2813  0.2965  0.2080
10145SOL    HW131856   3.089   8.204   2.170 -0.2128  0.8825 -1.2105
10145SOL    HW231857   3.039   8.338   2.219  0.4201  0.8688 -0.4984
10146SOL     OW31858   7.829   4.895   7.772  0.2755  0.1096  0.3623
10146SOL    HW131859   7.922   4.917   7.769  0.5397 -0.9943 -0.6033
10146SOL    HW231860   7.789   4.966   7.820  1.3057  1.7299 -1.0362
10147SOL     OW31861   5.734   5.289   1.521 -0.2375  0.3020 -0.1473
10147SOL    HW131862   5.813   5.322   1.478 -0.1765 -0.4971 -0.6650
10147SOL    HW231863   5.756   5.199   1.545  0.3780  1.1886  3.1848
10148SOL     OW31864   2.363   2.319   5.727  0.1237  0.5161  0.3013
10148SOL    HW131865   2.336   2.409   5.712 -0.4395  0.0913 -1.5054
10148SOL    HW231866   2.283   2.273   5.753  0.6221  0.7161  2.4275
10149SOL     OW31867   8.622   5.248   1.681  0.4483 -0.7123  0.3237
10149SOL    HW131868   8.623   5.265   1.587  1.5613  1.8909  0.7396
10149SOL    HW231869   8.688   5.306   1.717  1.0940 -2.6993  2.5954
10150SOL     OW31870   4.394   8.270   0.735  0.6726  0.0938  0.0075
10150SOL    HW131871   4.416   8.191   0.785  1.4023  0.7801  0.7890
10150SOL    HW231872   4.461   8.275   0.667  0.9325  0.3144  0.2768
10151SOL     OW31873   4.690   0.071   8.759  0.1365  0.0556  0.3361
10151SOL    HW131874   4.734   0.061   8.844  0.0386 -0.2908  0.3487
10151SOL    HW231875   4.757   0.046   8.695  0.5716  1.4131  0.2421
10152SOL     OW31876   8.796   6.181   8.805  0.1939 -0.3241  0.3477
10152SOL    HW131877   8.886   6.214   8.805 -0.3816  1.3455  1.1489
10152SOL    HW231878   8.805   6.087   8.823  1.7948 -0.3090 -0.1883
10153SOL     OW31879   5.391   2.641   1.155  0.3158 -0.6486 -0.2291
10153SOL    HW131880   5.359   2.722   1.115 -0.6584 -1.4510 -1.1358
10153SOL    HW231881   5.410   2.584   1.081  0.1217 -1.5785  0.4232
10154SOL     OW31882   8.951   1.083   8.343  0.1147 -0.2026 -0.0287
10154SOL    HW131883   8.914   1.004   8.384 -0.3140  0.5587  1.0867
10154SOL    HW231884   8.938   1.069   8.249 -3.7289  0.2920  0.2474
10155SOL     OW31885   4.968   4.914   0.835 -0.2842  0.1105  0.0962
10155SOL    HW131886   4.873   4.902   0.827 -0.3103  0.5123 -0.2215
10155SOL    HW231887   5.005   4.853   0.772 -0.3935  1.1522 -1.0082
10156SOL     OW31888   6.126   2.045   4.512  0.1001  0.8522 -0.0187
10156SOL    HW131889   6.081   1.983   4.455 -0.3777  1.0674  0.1123
10156SOL    HW231890   6.169   2.106   4.451  0.4166  0.5023 -0.1461
10157SOL     OW31891   0.373   0.101   2.643 -0.3216 -0.1663 -0.0538
10157SOL    HW131892   0.358   0.009   2.666 -1.3096  0.0656  0.2486
10157SOL    HW231893   0.413   0.097   2.556 -1.7245 -0.8417 -0.7066
10158SOL     OW31894   4.345   9.218   1.835 -0.1021  0.1661  0.4997
10158SOL    HW131895   4.317   9.277   1.906 -0.5219 -0.6479  1.0215
10158SOL    HW231896   4.282   9.146   1.838  0.5819 -0.4566  0.0514
10159SOL     OW31897   7.952   0.141   2.925 -0.1581 -0.2603 -0.9262
10159SOL    HW131898   8.031   0.186   2.955  1.0838 -1.2914 -2.4952
10159SOL    HW231899   7.888   0.156   2.995  1.8024 -0.4886  1.0253
10160SOL     OW31900   7.298   4.312   0.625 -0.3687 -0.4925  0.1794
10160SOL    HW131901   7.326   4.278   0.540  2.1851  2.2356 -0.2263
10160SOL    HW231902   7.214   4.355   0.608 -1.6919 -2.9985 -0.0855
10161SOL     OW31903   8.846   1.444   6.316  0.1354  0.6665 -0.3059
10161SOL    HW131904   8.833   1.521   6.372  0.3047  0.3612  0.1637
10161SOL    HW231905   8.758   1.408   6.305  0.0271  1.0379 -0.6968
10162SOL     OW31906   7.473   7.050   4.908 -0.2652 -0.4949 -0.2720
10162SOL    HW131907   7.498   7.069   4.817  0.4063 -0.9854 -0.1987
10162SOL    HW231908   7.556   7.050   4.955 -0.3155 -2.7508 -0.1105
10163SOL     OW31909   6.018   3.438   3.618 -0.1164 -0.5270 -0.2641
10163SOL    HW131910   5.996   3.493   3.543 -0.7970 -0.2351  0.1339
10163SOL    HW231911   6.048   3.500   3.685  0.6074 -0.7958 -0.3345
10164SOL     OW31912   6.806   6.470   7.101 -0.0763  0.5543 -0.4183
10164SOL    HW131913   6.847   6.534   7.043  1.6326 -2.6005 -3.0528
10164SOL    HW231914   6.859   6.473   7.181  1.3745  0.9088 -1.3503
10165SOL     OW31915   6.690   5.445   3.791  0.1865 -0.5340  0.7265
10165SOL    HW131916   6.762   5.498   3.758 -0.7309  0.4904  0.3263
10165SOL    HW231917   6.627   5.442   3.718 -0.5943 -0.6324  1.3886
10166SOL     OW31918   8.080   8.301   6.705 -0.4938  0.1934 -0.4081
10166SOL    HW131919   7.990   8.332   6.691 -0.2503  1.1950  0.1444
10166SOL    HW231920   8.135   8.378   6.691  0.3840 -0.6445 -1.7428
10167SOL     OW31921   7.185   0.976   1.051 -0.6940 -0.0069  0.3430
10167SOL    HW131922   7.231   0.894   1.071 -1.5308 -0.4486  0.5306
10167SOL    HW231923   7.214   1.037   1.119  0.9257  0.2665 -0.5416
10168SOL     OW31924   5.863   1.542   3.390 -0.2117  1.0425  0.3224
10168SOL    HW131925   5.849   1.628   3.431  0.0250  0.8183  0.8867
10168SOL    HW231926   5.785   1.492   3.413  1.0332  0.0435  2.8177
10169SOL     OW31927   8.417   6.385   1.872  0.1982 -0.1600 -0.2599
10169SOL    HW131928   8.353   6.423   1.932  2.4740  0.6851  1.8282
10169SOL    HW231929   8.464   6.461   1.837 -0.3198 -0.7164 -2.2969
10170SOL     OW31930   2.692   4.345   4.061 -0.2645  0.5215 -0.2812
10170SOL    HW131931   2.656   4.407   3.998 -1.1610  1.0882  0.7583
10170SOL    HW231932   2.779   4.380   4.082  0.3181 -0.0181 -1.6413
10171SOL     OW31933   4.931   5.480   1.621 -0.2173 -0.0980 -0.3250
10171SOL    HW131934   4.838   5.497   1.634 -0.2189 -0.8109  0.7240
10171SOL    HW231935   4.939   5.453   1.530 -0.8193  1.3442 -0.8364
10172SOL     OW31936   2.587   8.371   9.158 -0.2149  0.7527  0.3018
10172SOL    HW131937   2.626   8.293   9.197  1.1801  0.9485 -0.5980
10172SOL    HW231938   2.662   8.420   9.124 -1.2400  1.3899 -1.1311
10173SOL     OW31939   2.543   6.409   7.136 -0.0769 -0.3266 -0.0961
10173SOL    HW131940   2.518   6.502   7.139 -0.3704 -0.4154  0.3945
10173SOL    HW231941   2.594   6.400   7.055  0.0514  0.2868 -0.0903
10174SOL     OW31942   8.394   1.333   7.250  0.0462  0.8585 -0.3463
10174SOL    HW131943   8.360   1.378   7.172 -1.4049 -0.9038 -0.7814
10174SOL    HW231944   8.402   1.242   7.224  3.9416  0.8701  0.1825
10175SOL     OW31945   1.056   4.171   6.942  0.3399  0.0796  0.4381
10175SOL    HW131946   0.991   4.153   7.010  0.4692 -0.0791  0.5211
10175SOL    HW231947   1.125   4.220   6.986  0.6542 -0.4461  0.5344
10176SOL     OW31948   1.216   6.090   4.106  0.1556  0.0442  0.3788
10176SOL    HW131949   1.226   5.996   4.126 -1.6945 -0.3318 -0.2641
10176SOL    HW231950   1.294   6.112   4.056  0.4726 -1.2389  0.2613
10177SOL     OW31951   9.107   4.907   5.772 -0.4011 -0.4298 -0.3244
10177SOL    HW131952   9.135   4.998   5.766  1.5147 -1.0249 -1.4356
10177SOL    HW231953   9.012   4.911   5.785 -0.3611  1.7074 -0.4232
10178SOL     OW31954   5.104   3.310   5.048 -0.1284  0.0851 -0.1043
10178SOL    HW131955   5.156   3.371   4.997  1.0897  0.3045  1.3593
10178SOL    HW231956   5.094   3.351   5.134 -1.7182 -0.5015  0.0342
10179SOL     OW31957   7.155   8.096   4.736  0.0267 -0.1709 -0.5428
10179SOL    HW131958   7.115   8.179   4.762 -0.2480 -0.5945  0.4340
10179SOL    HW231959   7.216   8.076   4.806 -0.2780 -1.0459 -0.5184
10180SOL     OW31960   2.808   3.975   7.775 -0.4827 -0.1917 -0.1085
10180SOL    HW131961   2.872   3.984   7.705 -1.1026  1.1899 -0.5409
10180SOL    HW231962   2.756   3.899   7.751 -0.1270 -0.2565 -0.6853
10181SOL     OW31963   2.530   5.034   3.771  0.1421  0.0293  0.3061
10181SOL    HW131964   2.601   4.971   3.778 -0.8712 -0.9962  2.3681
10181SOL    HW231965   2.565   5.116   3.806  0.3453 -0.4618  1.2822
10182SOL     OW31966   8.925   7.758   6.865  0.4940 -0.2334 -0.3879
10182SOL    HW131967   8.884   7.770   6.779 -1.5873  1.5308  0.7701
10182SOL    HW231968   8.868   7.696   6.910  0.0519  0.8883  0.6265
10183SOL     OW31969   0.572   8.589   6.106  0.0831  0.1545  0.0886
10183SOL    HW131970   0.577   8.540   6.024  0.8451  0.7688 -0.2472
10183SOL    HW231971   0.593   8.526   6.174  2.1055  0.2205 -0.4191
10184SOL     OW31972   8.110   2.981   5.870  0.0715 -0.6903  0.5862
10184SOL    HW131973   8.129   2.895   5.831  0.0253  0.3876 -2.0314
10184SOL    HW231974   8.014   2.985   5.872  0.0344 -0.1961 -0.6932
10185SOL     OW31975   4.614   5.812   5.168  0.2120  0.3325  0.0808
10185SOL    HW131976   4.641   5.749   5.235  0.7833 -0.0158 -0.4692
10185SOL    HW231977   4.552   5.764   5.113 -0.2328  0.6094  0.3312
10186SOL     OW31978   8.231   2.669   3.750 -0.4014  0.1659 -0.0875
10186SOL    HW131979   8.159   2.712   3.704  1.9708  2.0025 -2.3987
10186SOL    HW231980   8.273   2.739   3.799  0.8311 -0.4566 -0.2260
10187SOL     OW31981   0.298   7.945   8.426 -0.0943 -0.3097 -0.2630
10187SOL    HW131982   0.379   7.989   8.400  0.0853 -1.7359 -2.3401
10187SOL    HW231983   0.238   8.016   8.448  1.3017  0.8194  0.1015
10188SOL     OW31984   8.462   7.706   5.068 -0.2905 -0.0657 -0.1890
10188SOL    HW131985   8.518   7.684   4.994 -0.0069 -1.0638  0.3090
10188SOL    HW231986   8.500   7.660   5.143 -0.4961  1.0192  0.6206
10189SOL     OW31987   2.633   5.000   5.524 -0.1851  0.5873  0.4020
10189SOL    HW131988   2.619   4.905   5.524 -1.2666  0.7347  0.1903
10189SOL    HW231989   2.588   5.031   5.603  1.3440  0.7766  1.2209
10190SOL     OW31990   0.397   0.768   1.300  0.3032  0.2102  0.6682
10190SOL    HW131991   0.467   0.707   1.322  0.5851  1.0160  2.1383
10190SOL    HW231992   0.443   0.848   1.274 -0.0719  0.0818 -0.4599
10191SOL     OW31993   4.421   2.779   8.752 -0.0244 -0.1460 -0.0562
10191SOL    HW131994   4.355   2.817   8.694  0.6547  1.2168  0.0223
10191SOL    HW231995   4.378   2.776   8.838  0.2901  1.6048  0.1927
10192SOL     OW31996   7.539   1.476   0.526 -0.7306 -0.3718 -0.2690
10192SOL    HW131997   7.589   1.481   0.445 -0.9552  1.1132 -0.3391
10192SOL    HW231998   7.499   1.389   0.524  0.5220 -0.9599 -0.9828
10193SOL     OW31999   7.353   1.695   5.171 -0.4668 -0.2739  0.0457
10193SOL    HW132000   7.353   1.633   5.098 -1.1026 -0.4482  0.1866
10193SOL    HW232001   7.446   1.715   5.186 -0.1091 -2.3820  1.0060
10194SOL     OW32002   7.502   5.438   6.845 -0.0087 -0.2616 -0.1875
10194SOL    HW132003   7.503   5.433   6.941 -3.3450  0.2207 -0.0087
10194SOL    HW232004   7.456   5.359   6.818 -0.4187  0.3420 -1.2839
10195SOL     OW32005   7.125   0.680   3.681 -0.2215  0.4292 -0.1410
10195SOL    HW132006   7.072   0.696   3.603 -1.6172  0.7221  0.8279
10195SOL    HW232007   7.083   0.733   3.749 -0.8808 -2.0924  1.5280
10196SOL     OW32008   3.569   9.080   3.091 -0.0259 -0.3705  0.2103
10196SOL    HW132009   3.510   9.055   3.162  0.2249 -2.3661 -0.2161
10196SOL    HW232010   3.516   9.136   3.034 -0.9262 -0.6185  0.7858
10197SOL     OW32011   3.705   8.838   6.325  0.4273  0.4939  0.0768
10197SOL    HW132012   3.741   8.899   6.260  0.4320 -0.3981 -0.7743
10197SOL    HW232013   3.744   8.866   6.408 -0.2098  2.1599 -0.1515
10198SOL     OW32014   8.259   3.860   6.159  0.4682 -0.6915 -0.1779
10198SOL    HW132015   8.326   3.879   6.094 -0.4397 -1.0617 -1.2688
10198SOL    HW232016   8.307   3.832   6.237  1.6074  0.3633 -0.4610
10199SOL     OW32017   9.271   7.602   4.132 -0.1392 -0.0952 -0.4962
10199SOL    HW132018   9.201   7.664   4.111 -1.3527 -1.8489 -1.8655
10199SOL    HW232019   9.226   7.519   4.147  1.6555 -1.3423 -1.7045
10200SOL     OW32020   0.283   7.881   1.036  0.0917 -0.0195  0.2803
10200SOL    HW132021   0.338   7.954   1.063 -0.9218  0.3410  1.4760
10200SOL    HW232022   0.277   7.889   0.940  0.1870  1.3231  0.3664
10201SOL     OW32023   0.739   2.298   8.359 -0.2791  0.1227 -0.6089
10201SOL    HW132024   0.740   2.330   8.449 -0.5218  0.2783 -0.6595
10201SOL    HW232025   0.700   2.211   8.365 -0.8649  0.3782 -0.6368
10202SOL     OW32026   3.360   4.237   8.967 -0.0277 -0.5862 -0.7570
10202SOL    HW132027   3.408   4.173   9.019 -0.3997  0.1437  0.5097
10202SOL    HW232028   3.270   4.206   8.969 -0.4020  0.5312  0.7692
10203SOL     OW32029   8.766   3.140   8.211  0.4588  0.4918 -0.4959
10203SOL    HW132030   8.762   3.046   8.226  0.6248  0.3205 -1.4640
10203SOL    HW232031   8.810   3.175   8.289  2.0926 -0.4639 -0.9417
10204SOL     OW32032   3.932   4.856   2.785 -0.0039 -0.0566  0.1088
10204SOL    HW132033   3.955   4.811   2.866  2.1630 -1.2469 -1.0911
10204SOL    HW232034   3.856   4.808   2.752 -0.4172 -0.0498  1.0155
10205SOL     OW32035   7.218   3.559   9.015 -0.0172 -0.7310  0.2517
10205SOL    HW132036   7.273   3.482   9.029 -1.3524 -2.1388 -1.7708
10205SOL    HW232037   7.135   3.524   8.982 -1.3181  1.4773  0.9712
10206SOL     OW32038   8.840   0.960   0.579  0.4207  0.5872  0.1767
10206SOL    HW132039   8.841   1.017   0.502 -0.4338  0.8896  0.3792
10206SOL    HW232040   8.793   0.882   0.551 -0.0904  0.7919  0.4505
10207SOL     OW32041   4.027   6.824   5.363 -0.8300 -0.3841 -0.0492
10207SOL    HW132042   4.019   6.918   5.348  1.1001 -0.2399 -0.3244
10207SOL    HW232043   4.059   6.816   5.453 -3.6600 -0.9499  1.0475
10208SOL     OW32044   4.126   4.656   6.687  0.1975  0.5530 -0.4080
10208SOL    HW132045   4.036   4.635   6.713  0.1278  0.6485 -0.5693
10208SOL    HW232046   4.180   4.591   6.732 -0.0426 -0.1967 -1.1585
10209SOL     OW32047   0.666   6.716   8.119 -0.1617 -0.5291  0.0556
10209SOL    HW132048   0.643   6.791   8.064  1.4694  0.7153  0.9992
10209SOL    HW232049   0.624   6.735   8.203  0.0663 -0.7929  0.2272
10210SOL     OW32050   2.320   7.188   2.984 -0.3971  0.3852  0.5783
10210SOL    HW132051   2.251   7.186   3.051 -0.8946  0.6437  0.0903
10210SOL    HW232052   2.293   7.259   2.924  0.3013  0.4975  0.3837
10211SOL     OW32053   2.585   7.643   3.788 -0.1304  0.1855  0.5332
10211SOL    HW132054   2.581   7.548   3.800 -0.2256  0.0500 -0.5087
10211SOL    HW232055   2.647   7.673   3.855 -0.6511 -0.5127  1.3586
10212SOL     OW32056   6.609   3.185   1.374 -0.0537  0.3661 -0.1085
10212SOL    HW132057   6.528   3.224   1.342 -0.1090  0.6966  0.4287
10212SOL    HW232058   6.650   3.253   1.427 -0.6297 -0.5943  1.6457
10213SOL     OW32059   4.318   6.531   7.069 -0.2823  0.1929 -0.1071
10213SOL    HW132060   4.327   6.570   6.983 -0.9807  0.2202 -0.1733
10213SOL    HW232061   4.229   6.495   7.070  0.0592 -0.6675  0.2434
10214SOL     OW32062   5.635   2.788   2.924 -0.8930  0.3480  0.0387
10214SOL    HW132063   5.717   2.828   2.895  0.0941 -0.4714  1.5228
10214SOL    HW232064   5.602   2.847   2.992 -1.6992  0.8149 -0.7417
10215SOL     OW32065   4.089   5.324   1.739  0.6839 -0.0034  0.2227
10215SOL    HW132066   4.061   5.412   1.714  1.4046  0.0330 -0.4818
10215SOL    HW232067   4.168   5.308   1.688 -0.7174 -2.0072 -1.5211
10216SOL     OW32068   1.642   1.117   3.115 -0.2417  0.2212 -0.0829
10216SOL    HW132069   1.668   1.209   3.111 -2.5449  0.9205 -0.3985
10216SOL    HW232070   1.702   1.073   3.054  3.5363  0.6856  2.9145
10217SOL     OW32071   0.033   5.708   4.300 -0.0363  0.0258 -0.3211
10217SOL    HW132072  -0.037   5.741   4.244 -0.0785  0.9444  0.2520
10217SOL    HW232073   0.046   5.777   4.366 -1.3181 -1.8384  2.0151
10218SOL     OW32074   1.451   8.284   8.096  1.0037  0.1057 -0.5302
10218SOL    HW132075   1.509   8.353   8.063 -1.7368  1.9940 -1.8645
10218SOL    HW232076   1.427   8.314   8.184 -1.1083  1.6414 -1.5422
10219SOL     OW32077   2.633   4.760   6.910 -0.0028  0.2564  0.4186
10219SOL    HW132078   2.569   4.772   6.980 -0.3883  0.1606  0.0889
10219SOL    HW232079   2.676   4.845   6.902 -0.7949  0.6269 -0.0356
10220SOL     OW32080   0.778   0.709   7.885  0.1315  0.2408  0.0007
10220SOL    HW132081   0.846   0.695   7.950  0.7915  1.0389 -0.5020
10220SOL    HW232082   0.792   0.798   7.853 -0.5006  0.0512 -0.8601
10221SOL     OW32083   1.082   8.837   3.015  0.4075  0.3537  0.1613
10221SOL    HW132084   1.143   8.771   2.983  0.1352 -0.3243  0.9806
10221SOL    HW232085   1.037   8.869   2.937  0.2151 -0.7672 -0.2067
10222SOL     OW32086   4.385   1.159   4.570 -0.1898  0.2170 -0.3209
10222SOL    HW132087   4.296   1.178   4.599  0.2897  0.9893  0.7101
10222SOL    HW232088   4.412   1.237   4.521 -0.5272 -0.5466 -1.7543
10223SOL     OW32089   1.834   4.717   8.366  0.1937 -0.6602 -0.6421
10223SOL    HW132090   1.884   4.745   8.290  0.9077 -0.3357 -0.0681
10223SOL    HW232091   1.899   4.702   8.434 -0.3412 -1.9465 -0.3864
10224SOL     OW32092   3.211   7.912   3.758 -0.2801  0.1597  0.2805
10224SOL    HW132093   3.171   7.864   3.686 -0.2709  0.5640  0.0039
10224SOL    HW232094   3.143   7.974   3.786  0.2641  1.1023 -0.4291
10225SOL     OW32095   5.997   8.434   2.967 -0.3528  0.1512 -0.1579
10225SOL    HW132096   6.039   8.432   2.881 -1.6539  0.0156 -0.8161
10225SOL    HW232097   6.001   8.526   2.993  0.9515  0.0347  0.1213
10226SOL     OW32098   4.702   1.328   3.799  0.0304 -0.1126 -0.0049
10226SOL    HW132099   4.653   1.269   3.742 -0.3690  0.7243 -0.5431
10226SOL    HW232100   4.644   1.343   3.873  0.4109 -0.9239  0.4767
10227SOL     OW32101   5.285   7.456   0.582 -0.2206  0.0216 -0.3807
10227SOL    HW132102   5.371   7.448   0.542  0.0225 -0.3908  0.2022
10227SOL    HW232103   5.263   7.549   0.576  1.9666  0.9051  2.8916
10228SOL     OW32104   3.970   0.865   2.117  0.1645  0.2410 -0.5282
10228SOL    HW132105   4.007   0.869   2.205 -1.7784  0.1045  0.3450
10228SOL    HW232106   4.018   0.794   2.074  1.5112  0.6658  0.2029
10229SOL     OW32107   5.879   4.527   1.536  0.4277 -0.0844  0.0966
10229SOL    HW132108   5.888   4.528   1.441 -0.9057  0.6546 -0.0510
10229SOL    HW232109   5.925   4.448   1.564  0.6337 -0.4394 -1.1857
10230SOL     OW32110   4.927   5.548   2.113  0.1002 -0.5043 -0.3645
10230SOL    HW132111   4.949   5.476   2.173 -0.6071 -0.1429  0.3522
10230SOL    HW232112   4.860   5.598   2.160  0.4797  0.5447 -0.9118
10231SOL     OW32113   2.371   5.376   1.252  0.4257  0.0876  0.5224
10231SOL    HW132114   2.434   5.401   1.319  1.3420 -1.5312  0.3236
10231SOL    HW232115   2.316   5.310   1.294  1.2363 -1.2131 -0.3695
10232SOL     OW32116   0.422   5.611   3.465 -0.3379 -0.7257  0.4789
10232SOL    HW132117   0.454   5.572   3.547 -2.3908 -0.8665  1.2779
10232SOL    HW232118   0.459   5.555   3.397  0.8569 -1.0214  1.3225
10233SOL     OW32119   4.915   6.919   3.505  0.4061  0.0366 -0.5834
10233SOL    HW132120   4.993   6.960   3.468  0.6703  1.5526  1.4972
10233SOL    HW232121   4.941   6.892   3.593 -1.5123  1.1028  0.3960
10234SOL     OW32122   0.535   5.879   2.507  0.3035  0.3233 -0.1064
10234SOL    HW132123   0.579   5.884   2.592 -0.5710  0.5805  0.3415
10234SOL    HW232124   0.474   5.806   2.516 -1.3408  1.6866  0.2501
10235SOL     OW32125   2.554   7.981   5.253  0.0465  0.3773  0.1140
10235SOL    HW132126   2.623   7.933   5.298 -0.7987 -0.8103  0.1803
10235SOL    HW232127   2.590   7.999   5.166  1.0877  1.3290  0.7105
10236SOL     OW32128   8.593   2.975   5.419  0.0838  0.1110 -0.1666
10236SOL    HW132129   8.549   2.947   5.338 -1.0219 -0.5120  0.6230
10236SOL    HW232130   8.529   3.031   5.462  0.2505 -0.4184  0.7794
10237SOL     OW32131   0.861   9.220   5.883  0.1704  0.0394  0.0571
10237SOL    HW132132   0.819   9.164   5.948  0.1714  0.4530  0.4215
10237SOL    HW232133   0.918   9.278   5.934  2.2445 -1.3698 -0.5230
10238SOL     OW32134   8.491   5.185   6.609  0.1940 -0.1012  0.2149
10238SOL    HW132135   8.514   5.201   6.700 -0.6387  0.8048  0.2829
10238SOL    HW232136   8.407   5.139   6.613 -0.3572  0.8395 -0.0890
10239SOL     OW32137   0.989   2.367   7.553  0.3838 -0.6731  0.8495
10239SOL    HW132138   1.027   2.423   7.621  1.2558  1.2840 -1.1417
10239SOL    HW232139   0.898   2.355   7.581  0.0269  2.0993  1.2075
10240SOL     OW32140   6.838   5.032   8.564  0.0358 -0.0011  0.0993
10240SOL    HW132141   6.808   5.123   8.562 -2.5936 -0.7527 -2.8537
10240SOL    HW232142   6.902   5.025   8.493  0.3294 -0.4310  0.3965
10241SOL     OW32143   0.507   2.705   2.266 -0.0928  0.0958 -0.4154
10241SOL    HW132144   0.414   2.704   2.290 -0.2311 -2.9211 -0.6834
10241SOL    HW232145   0.507   2.710   2.170  0.0495  0.3711 -0.4029
10242SOL     OW32146   4.221   2.441   9.010  0.1095  0.3425  0.0987
10242SOL    HW132147   4.283   2.458   9.081  0.1487 -1.0243  0.4182
10242SOL    HW232148   4.276   2.427   8.933  0.1359  0.4623  0.0960
10243SOL     OW32149   4.673   2.117   3.456  0.1860 -0.3417 -0.1586
10243SOL    HW132150   4.704   2.148   3.371 -0.1425  1.2716  0.2698
10243SOL    HW232151   4.599   2.174   3.476  0.5307 -0.3937  1.3966
10244SOL     OW32152   2.299   5.432   7.101  0.3576 -0.2634 -0.4695
10244SOL    HW132153   2.355   5.379   7.157  0.2794 -0.8632 -0.9471
10244SOL    HW232154   2.224   5.375   7.081 -0.7376  0.7320  0.6535
10245SOL     OW32155   8.561   3.724   7.031 -0.8101  0.0802 -1.1709
10245SOL    HW132156   8.543   3.726   6.937 -2.0958 -0.4743 -0.9572
10245SOL    HW232157   8.589   3.813   7.052 -2.6019  0.8171 -1.7181
10246SOL     OW32158   3.555   5.432   1.244  0.1175  0.5773  0.8383
10246SOL    HW132159   3.556   5.390   1.158 -1.7396  1.3531  0.3885
10246SOL    HW232160   3.570   5.524   1.226  1.4425  0.5318  1.5544
10247SOL     OW32161   4.799   0.482   8.374 -0.6315 -0.6977  0.3180
10247SOL    HW132162   4.860   0.536   8.323 -0.8308 -0.4427  0.3509
10247SOL    HW232163   4.714   0.523   8.361 -0.4396  0.4727  2.3029
10248SOL     OW32164   8.193   6.340   8.785  0.8886 -0.3078 -0.3106
10248SOL    HW132165   8.148   6.408   8.735  0.6701 -0.2028  0.0265
10248SOL    HW232166   8.197   6.265   8.726 -1.6153 -1.0651  0.3389
10249SOL     OW32167   1.470   0.675   5.015 -0.2471  0.2209 -0.1405
10249SOL    HW132168   1.491   0.756   4.968 -1.9870  0.6955 -0.1655
10249SOL    HW232169   1.508   0.688   5.103  0.8075  0.3937 -0.6008
10250SOL     OW32170   0.779   7.410   5.654  0.0268  0.6443 -0.1122
10250SOL    HW132171   0.748   7.319   5.650 -1.8377  1.2583 -0.2215
10250SOL    HW232172   0.725   7.452   5.720  2.1123  1.2691  1.2902
10251SOL     OW32173   1.802   0.299   5.789 -0.5583  0.2519  0.4351
10251SOL    HW132174   1.759   0.362   5.731  1.0818 -0.1712 -1.3359
10251SOL    HW232175   1.894   0.323   5.787 -0.0581 -1.4762  0.6494
10252SOL     OW32176   5.888   4.060   4.552 -0.7150  0.3872  0.0003
10252SOL    HW132177   5.967   4.105   4.522 -1.0335 -0.7716 -2.8971
10252SOL    HW232178   5.911   3.967   4.550 -1.7611  0.1084  0.3278
10253SOL     OW32179   4.001   2.850   8.133  0.2261 -0.0446 -0.6152
10253SOL    HW132180   3.999   2.944   8.152 -2.9330 -0.0534 -0.2906
10253SOL    HW232181   3.915   2.832   8.094  0.8193 -2.7745 -0.8866
10254SOL     OW32182   9.198   3.427   2.191  0.3472 -0.6686 -0.6067
10254SOL    HW132183   9.186   3.358   2.126  0.1241 -1.7360  0.5264
10254SOL    HW232184   9.285   3.464   2.171  0.4506 -1.2354 -1.2577
10255SOL     OW32185   8.320   4.176   4.165  0.3653  0.0446  0.3752
10255SOL    HW132186   8.310   4.261   4.121 -2.3872 -0.2227  0.2719
10255SOL    HW232187   8.293   4.112   4.099  0.7199 -0.7549  0.9954
10256SOL     OW32188   5.690   5.122   2.183 -0.7334 -0.6580  0.3261
10256SOL    HW132189   5.678   5.147   2.275 -0.9604  1.2439 -0.1598
10256SOL    HW232190   5.607   5.146   2.141  0.3941  1.4766 -0.8878
10257SOL     OW32191   2.223   6.361   1.827 -0.2553  0.1246  0.1343
10257SOL    HW132192   2.248   6.339   1.738 -0.9618  0.5860 -0.1966
10257SOL    HW232193   2.189   6.280   1.864  1.3359 -0.4212  0.4773
10258SOL     OW32194   1.985   2.724   7.586  0.1856 -0.0303  0.4686
10258SOL    HW132195   1.896   2.755   7.571  0.2458  0.8205  1.7705
10258SOL    HW232196   1.988   2.639   7.541 -1.6016 -0.5556  1.2310
10259SOL     OW32197   3.942   2.737   7.169  0.2026 -0.5074 -0.1846
10259SOL    HW132198   3.889   2.815   7.150  2.4437  1.2208  0.1850
10259SOL    HW232199   3.878   2.671   7.196 -1.8441  1.0676 -0.8651
10260SOL     OW32200   5.247   5.906   2.765  0.5813  0.5892 -0.1641
10260SOL    HW132201   5.202   5.989   2.779 -1.6849 -0.6050  0.1636
10260SOL    HW232202   5.313   5.925   2.698 -1.6139  2.1185 -2.0591
10261SOL     OW32203   0.644   3.523   3.961  0.4138  0.2312 -0.5463
10261SOL    HW132204   0.720   3.574   3.932  0.4701  0.6472  0.2977
10261SOL    HW232205   0.604   3.577   4.029  0.6865 -1.0221  0.6453
10262SOL     OW32206   5.597   1.198   4.034  0.2407  0.4680 -0.2584
10262SOL    HW132207   5.629   1.138   3.966 -0.9191  2.6384 -2.9330
10262SOL    HW232208   5.523   1.152   4.074 -0.1079 -0.2508 -1.6747
10263SOL     OW32209   8.256   5.055   3.405 -0.1251 -0.4318  0.1887
10263SOL    HW132210   8.262   5.120   3.475  0.0129 -1.1078  0.8216
10263SOL    HW232211   8.255   4.971   3.451  1.3719 -0.9554 -0.6893
10264SOL     OW32212   1.929   3.131   6.148  0.3169 -0.0308 -0.0897
10264SOL    HW132213   1.874   3.169   6.216  0.0013 -1.2020  0.3343
10264SOL    HW232214   1.913   3.184   6.070 -0.4596  0.3987  0.3595
10265SOL     OW32215   1.291   4.292   3.495 -0.0978  0.3967 -0.3824
10265SOL    HW132216   1.302   4.278   3.401 -1.4551  0.3129 -0.5485
10265SOL    HW232217   1.326   4.213   3.536 -0.6134 -0.0979 -0.8914
10266SOL     OW32218   0.826   7.499   4.949  0.2716 -0.2495  0.5631
10266SOL    HW132219   0.733   7.519   4.939  0.7837  1.2725 -2.1285
10266SOL    HW232220   0.854   7.553   5.023 -0.7448  0.1611  0.6600
10267SOL     OW32221   2.359   2.801   0.854 -0.3302  0.2788 -0.1449
10267SOL    HW132222   2.276   2.821   0.898  0.0979 -1.4822  1.6159
10267SOL    HW232223   2.334   2.758   0.773 -1.1683 -0.8112  0.6614
10268SOL     OW32224   8.023   7.080   1.671  0.6387 -0.2881 -0.1243
10268SOL    HW132225   8.028   7.173   1.693  0.0994 -0.2757 -0.0372
10268SOL    HW232226   8.072   7.036   1.740 -1.2388 -0.2709  1.2912
10269SOL     OW32227   4.156   0.491   7.424  0.0832 -0.4076 -0.6056
10269SOL    HW132228   4.082   0.545   7.397 -1.0422  0.7358  3.9156
10269SOL    HW232229   4.117   0.422   7.477  2.0695  0.6662  2.5784
10270SOL     OW32230   5.778   0.210   6.801 -0.0834 -0.1307 -0.3336
10270SOL    HW132231   5.730   0.203   6.719  0.2215  2.6426 -0.8510
10270SOL    HW232232   5.849   0.147   6.793 -1.8983 -2.2312 -0.7629
10271SOL     OW32233   0.183   6.523   0.596  0.0454  0.7120  0.3231
10271SOL    HW132234   0.230   6.500   0.516  0.0851 -0.5703  0.6930
10271SOL    HW232235   0.240   6.494   0.667 -2.0105 -2.7766  0.8149
10272SOL     OW32236   5.089   0.577   8.873  1.0425 -0.0272 -0.0310
10272SOL    HW132237   5.032   0.637   8.826  0.9155  0.8281  1.1755
10272SOL    HW232238   5.175   0.618   8.870  1.1361 -0.2136  0.0690
10273SOL     OW32239   8.925   9.245   3.477 -0.2484 -0.4263  0.0368
10273SOL    HW132240   8.983   9.217   3.548  2.5622  1.7920 -1.1829
10273SOL    HW232241   8.917   9.340   3.489 -0.1756 -0.0881 -2.2389
10274SOL     OW32242   4.494   8.172   7.295  0.6850  0.5179  0.0360
10274SOL    HW132243   4.446   8.237   7.243  0.7636 -0.1307 -0.8885
10274SOL    HW232244   4.586   8.193   7.282  0.8114 -0.9141 -1.9122
10275SOL     OW32245   6.916   5.791   1.014  0.0857 -0.5168  0.0786
10275SOL    HW132246   6.922   5.806   0.920 -1.3301 -0.6091 -0.0373
10275SOL    HW232247   6.935   5.876   1.053  1.1169 -0.5735 -0.2526
10276SOL     OW32248   8.727   7.974   4.382  0.3370 -0.2303 -0.3891
10276SOL    HW132249   8.637   8.000   4.402  0.2474 -1.6578  1.3029
10276SOL    HW232250   8.728   7.961   4.287 -1.5788 -1.3372 -0.3026
10277SOL     OW32251   0.715   4.107   9.205 -0.2966 -0.5436 -0.0387
10277SOL    HW132252   0.669   4.087   9.123  0.4067  0.2420 -0.6543
10277SOL    HW232253   0.673   4.052   9.271 -0.5500 -1.5649 -1.0235
10278SOL     OW32254   0.916   1.055   9.089  0.7929  0.6059  0.8248
10278SOL    HW132255   0.937   1.147   9.071  4.0306 -0.0574  0.6108
10278SOL    HW232256   0.886   1.020   9.006 -1.2648  1.5953  1.0952
10279SOL     OW32257   2.117   6.642   8.802  0.0996 -0.2621  0.0781
10279SOL    HW132258   2.094   6.735   8.800 -2.6660 -0.8570 -0.9230
10279SOL    HW232259   2.182   6.632   8.733  1.8920  1.1892  1.4676
10280SOL     OW32260   1.819   4.180   0.574  0.4660 -0.4662 -0.2842
10280SOL    HW132261   1.831   4.239   0.500  0.5467  2.3135  1.7830
10280SOL    HW232262   1.725   4.160   0.574  0.9803 -3.9396 -3.3888
10281SOL     OW32263   2.199   1.929   7.633 -0.8186 -0.0842 -0.8931
10281SOL    HW132264   2.155   2.001   7.588  1.1343  1.8736  0.1021
10281SOL    HW232265   2.136   1.901   7.700 -1.1225  1.7614 -0.3348
10282SOL     OW32266   6.384   7.289   7.588 -0.9145 -0.6444  0.1894
10282SOL    HW132267   6.352   7.240   7.664 -1.7772 -1.4503 -0.6726
10282SOL    HW232268   6.433   7.362   7.626  2.4657 -3.3793  1.5235
10283SOL     OW32269   0.488   7.763   5.679 -0.4598 -0.2386  0.1042
10283SOL    HW132270   0.561   7.725   5.727 -1.1271 -0.8761  0.6473
10283SOL    HW232271   0.410   7.738   5.730 -1.1535 -0.5453 -1.0589
10284SOL     OW32272   6.628   4.485   1.869  0.3496 -0.4262 -0.3464
10284SOL    HW132273   6.623   4.578   1.894 -1.2310 -0.3402 -0.8571
10284SOL    HW232274   6.537   4.457   1.865  0.8019 -1.9160 -0.5679
10285SOL     OW32275   7.194   4.866   7.203 -0.2586 -0.4886  0.3150
10285SOL    HW132276   7.114   4.832   7.242  0.0302 -2.1899 -0.5169
10285SOL    HW232277   7.264   4.818   7.245  0.3530  0.8438  0.8853
10286SOL     OW32278   7.985   2.500   0.407 -0.0563  0.0788 -0.0509
10286SOL    HW132279   7.894   2.526   0.391  0.1201  1.1213  0.5572
10286SOL    HW232280   8.032   2.526   0.327  0.2087  2.1834  0.7306
10287SOL     OW32281   3.414   2.232   8.887  0.3645 -0.0552  0.7483
10287SOL    HW132282   3.415   2.139   8.863 -0.6452  0.3092 -0.8675
10287SOL    HW232283   3.442   2.277   8.807 -1.3438  1.1421  0.7727
10288SOL     OW32284   0.511   7.722   6.810  0.3978 -0.0700 -1.2123
10288SOL    HW132285   0.594   7.760   6.837  0.8493 -1.0112 -1.2345
10288SOL    HW232286   0.533   7.633   6.782 -0.9939 -1.4053  1.5379
10289SOL     OW32287   1.231   2.012   3.311  0.2511 -0.2162 -0.7618
10289SOL    HW132288   1.247   1.918   3.310  1.8861  0.0273 -0.1045
10289SOL    HW232289   1.302   2.049   3.257  0.0574  0.6928 -0.4083
10290SOL     OW32290   1.626   0.767   8.192 -0.2849  0.4842  0.3218
10290SOL    HW132291   1.544   0.784   8.240  0.3107  1.4710  1.0438
10290SOL    HW232292   1.681   0.842   8.213  0.0188  0.9635 -1.9353
10291SOL     OW32293   7.549   7.297   4.691 -0.3134 -0.6332  0.0459
10291SOL    HW132294   7.614   7.356   4.729 -0.6006 -0.6889  0.6390
10291SOL    HW232295   7.465   7.328   4.727 -0.4979 -1.2236  0.1293
10292SOL     OW32296   4.837   3.883   6.670 -0.1478 -0.6307 -0.3524
10292SOL    HW132297   4.746   3.866   6.645 -1.4567 -0.4642  3.6623
10292SOL    HW232298   4.873   3.797   6.691  0.0272 -0.5056 -0.1416
10293SOL     OW32299   3.183   1.297   1.772 -0.2525 -0.1516  0.0366
10293SOL    HW132300   3.196   1.260   1.684  0.5158  1.2564 -0.4607
10293SOL    HW232301   3.253   1.260   1.824 -0.5981 -0.8456  0.0240
10294SOL     OW32302   1.647   0.747   2.064 -0.3201 -0.2683 -0.2987
10294SOL    HW132303   1.585   0.708   2.126  0.4949 -2.0373 -0.5184
10294SOL    HW232304   1.719   0.683   2.059  0.7152  0.9224 -1.3296
10295SOL     OW32305   7.948   4.540   3.472  0.1315 -0.6171  0.2388
10295SOL    HW132306   7.977   4.528   3.382 -0.9305 -0.4352 -0.1299
10295SOL    HW232307   7.889   4.466   3.488 -0.2946 -0.2130  0.5329
10296SOL     OW32308   5.975   9.226   2.211  0.0826  0.3223 -0.2260
10296SOL    HW132309   6.049   9.244   2.270  0.9921  0.7102 -1.4403
10296SOL    HW232310   6.015   9.214   2.125 -1.3448  1.4456 -1.0934
10297SOL     OW32311   5.073   4.071   3.348 -0.0849  0.0240 -0.9322
10297SOL    HW132312   5.018   4.148   3.333  1.2233  0.7781 -2.0214
10297SOL    HW232313   5.075   4.026   3.263  0.4944 -0.3264 -0.7404
10298SOL     OW32314   9.085   8.525   2.123 -0.2072  0.6054 -0.1716
10298SOL    HW132315   8.992   8.545   2.112 -0.3849  0.5766  1.0719
10298SOL    HW232316   9.118   8.510   2.034 -1.7277 -0.8603 -0.5492
10299SOL     OW32317   6.682   3.135   8.308  0.3663 -0.2998 -0.2218
10299SOL    HW132318   6.772   3.115   8.283  0.4907 -1.1354  0.8012
10299SOL    HW232319   6.642   3.049   8.322 -0.0551  0.0923  1.1164
10300SOL     OW32320   1.772   6.630   6.459  0.0749 -0.2428 -0.1867
10300SOL    HW132321   1.786   6.665   6.371  1.0178 -2.0540 -0.8035
10300SOL    HW232322   1.838   6.674   6.513  1.3389 -1.1164 -0.9729
10301SOL     OW32323   7.041   6.440   4.367  0.2599  0.5992  0.3664
10301SOL    HW132324   6.945   6.438   4.363  0.2587  1.7928 -1.5932
10301SOL    HW232325   7.063   6.533   4.357  1.6228  0.1906 -0.7412
10302SOL     OW32326   7.568   7.344   3.386 -0.0669 -0.1356 -0.4378
10302SOL    HW132327   7.538   7.319   3.298  1.0166 -1.3490 -0.5034
10302SOL    HW232328   7.539   7.273   3.443 -0.8924  0.7195  0.2306
10303SOL     OW32329   0.076   6.108   7.350 -0.0753 -0.7185 -0.3497
10303SOL    HW132330   0.094   6.043   7.418  1.2865 -0.0317 -0.0127
10303SOL    HW232331   0.162   6.136   7.321 -0.6457  0.0135 -1.3921
10304SOL     OW32332   2.729   7.074   8.596  0.5141  0.2689  0.0288
10304SOL    HW132333   2.773   7.080   8.681 -0.6480 -0.2266  0.6917
10304SOL    HW232334   2.657   7.136   8.602 -1.7250 -2.2348  0.7906
10305SOL     OW32335   2.865   0.075   4.477 -0.8662 -0.2062  0.2306
10305SOL    HW132336   2.904  -0.011   4.462 -0.7808 -0.1617  0.1985
10305SOL    HW232337   2.843   0.076   4.570  1.2755  0.6114  0.7902
10306SOL     OW32338   6.853   2.945   1.602  0.4182 -0.2456 -0.4553
10306SOL    HW132339   6.845   2.895   1.521  2.2547  0.4100 -1.0867
10306SOL    HW232340   6.782   3.009   1.598  0.1892 -0.5467 -1.2885
10307SOL     OW32341   8.670   3.479   6.566 -0.4505 -0.1333  0.1021
10307SOL    HW132342   8.641   3.459   6.477 -0.5963  0.5447 -0.0110
10307SOL    HW232343   8.684   3.394   6.607 -0.6532 -0.4514 -0.4826
10308SOL     OW32344   1.954   4.719   2.539 -0.2045  0.5151  0.4184
10308SOL    HW132345   1.957   4.814   2.548  1.7770  0.6723 -1.1230
10308SOL    HW232346   1.908   4.704   2.456  1.4651  0.2912 -0.5118
10309SOL     OW32347   1.103   6.386   8.396  0.0670 -0.0737  0.0017
10309SOL    HW132348   1.081   6.341   8.478  1.8787 -0.0445  0.5535
10309SOL    HW232349   1.023   6.383   8.344 -1.4982  0.9215  2.2172
10310SOL     OW32350   0.558   0.420   3.012  0.3978 -0.0425  0.2447
10310SOL    HW132351   0.515   0.383   2.934 -0.8799 -0.4942  1.1340
10310SOL    HW232352   0.652   0.411   2.994  0.1492 -2.5705 -0.1468
10311SOL     OW32353   4.939   5.223   4.512 -0.0957  0.5530 -0.1340
10311SOL    HW132354   4.900   5.147   4.557  0.2146 -0.6049 -1.7235
10311SOL    HW232355   4.888   5.298   4.542 -0.1001 -0.1861  1.8817
10312SOL     OW32356   6.583   5.752   7.185  0.5977  0.2358  0.3390
10312SOL    HW132357   6.613   5.755   7.094  0.0206 -2.3551  0.0021
10312SOL    HW232358   6.500   5.800   7.185  0.2954 -0.2592 -0.6468
10313SOL     OW32359   8.368   5.336   1.755  0.4112  0.3369 -0.2619
10313SOL    HW132360   8.386   5.425   1.785  2.3817 -0.1732  0.2105
10313SOL    HW232361   8.454   5.295   1.747 -0.4709 -1.7838  0.3350
10314SOL     OW32362   9.119   6.953   2.069 -0.0837 -0.6267  1.3438
10314SOL    HW132363   9.107   6.918   2.157  0.4742 -0.4688  1.4871
10314SOL    HW232364   9.210   6.983   2.067 -0.6836  1.3489  1.4229
10315SOL     OW32365   3.329   5.912   2.162  0.7991  0.0608  0.1545
10315SOL    HW132366   3.417   5.897   2.127  1.2717 -1.4200  1.8143
10315SOL    HW232367   3.342   5.971   2.237  0.0189  1.8839 -1.0849
10316SOL     OW32368   5.271   1.519   4.047 -0.8964  0.1063  0.3621
10316SOL    HW132369   5.210   1.592   4.035  0.2276  0.7459 -1.9995
10316SOL    HW232370   5.357   1.559   4.037 -0.2693 -1.6404 -1.9257
10317SOL     OW32371   3.341   0.488   3.097 -0.3885 -0.2789 -0.4351
10317SOL    HW132372   3.426   0.447   3.108 -0.6137 -0.8017 -0.6015
10317SOL    HW232373   3.279   0.427   3.137 -0.6564  0.2421 -0.0378
10318SOL     OW32374   8.979   6.100   8.575  0.0952  0.3209  0.2837
10318SOL    HW132375   9.034   6.128   8.648 -1.6658  1.1164  1.3527
10318SOL    HW232376   8.917   6.172   8.562 -1.5590 -1.0787  0.0050
10319SOL     OW32377   6.727   5.930   3.625  0.4035 -0.9054 -0.1461
10319SOL    HW132378   6.677   5.859   3.584  2.1645 -1.8466 -0.7746
10319SOL    HW232379   6.818   5.902   3.619  0.9102 -0.3128  2.9424
10320SOL     OW32380   6.690   8.516   2.596  0.0583  0.1473 -0.3243
10320SOL    HW132381   6.748   8.543   2.524  0.8879 -0.3718  0.1309
10320SOL    HW232382   6.605   8.556   2.575  0.3955  0.3404 -1.3729
10321SOL     OW32383   7.579   3.379   8.563 -0.0389 -0.0770  0.3310
10321SOL    HW132384   7.548   3.306   8.617  1.3686 -0.3198  0.8414
10321SOL    HW232385   7.508   3.393   8.500 -0.1113 -2.3137 -0.2047
10322SOL     OW32386   7.985   4.846   4.720  0.0317 -0.5770 -0.2118
10322SOL    HW132387   8.032   4.841   4.803  0.2954  0.8028 -0.2453
10322SOL    HW232388   7.893   4.843   4.744  0.1109 -0.5746  0.0972
10323SOL     OW32389   5.202   4.215   4.890  0.2448 -0.7635 -0.7041
10323SOL    HW132390   5.273   4.152   4.906  1.5028  0.8475  0.4525
10323SOL    HW232391   5.144   4.171   4.828  1.0754 -3.0256  0.0407
10324SOL     OW32392   5.610   4.768   7.815 -0.0818  0.0224 -0.2367
10324SOL    HW132393   5.599   4.817   7.733 -1.4887 -1.5888 -1.0678
10324SOL    HW232394   5.673   4.700   7.794 -0.8353 -0.7130 -0.1407
10325SOL     OW32395   3.646   7.680   0.378 -0.3050  0.1556 -0.0483
10325SOL    HW132396   3.718   7.617   0.380 -1.5725 -1.4083 -1.1737
10325SOL    HW232397   3.634   7.700   0.285 -1.9851 -0.4386  0.0082
10326SOL     OW32398   5.295   1.456   3.264 -0.0009 -0.5311  0.4922
10326SOL    HW132399   5.367   1.396   3.248  0.9413  0.8166 -0.4677
10326SOL    HW232400   5.255   1.469   3.178  0.0446  0.4991  0.6212
10327SOL     OW32401   7.517   0.779   8.811 -0.3524 -0.0445 -0.1461
10327SOL    HW132402   7.428   0.811   8.825 -1.2887 -0.9543 -3.2528
10327SOL    HW232403   7.560   0.849   8.762  0.5956  0.2311  1.0167
10328SOL     OW32404   7.662   7.075   2.978  0.6730  0.1627 -0.1666
10328SOL    HW132405   7.758   7.068   2.976  0.8509  2.1255 -0.9526
10328SOL    HW232406   7.640   7.071   3.072  1.2702 -2.3553 -0.0601
10329SOL     OW32407   5.085   7.604   6.754  0.3706 -0.6434  0.3138
10329SOL    HW132408   5.142   7.569   6.686  0.8724  1.3353 -0.3695
10329SOL    HW232409   5.135   7.676   6.793 -1.3385  0.7202  0.1561
10330SOL     OW32410   2.388   2.724   2.351  0.0584  0.4017  0.5585
10330SOL    HW132411   2.435   2.711   2.434  1.3188  0.0646 -0.1906
10330SOL    HW232412   2.457   2.732   2.285 -0.9310  0.6218 -0.4805
10331SOL     OW32413   2.315   3.896   1.439 -0.0729 -0.1687  0.3641
10331SOL    HW132414   2.239   3.935   1.396  0.1251  1.9213  1.7635
10331SOL    HW232415   2.365   3.855   1.368  0.5979  3.6686 -1.6318
10332SOL     OW32416   8.597   5.452   4.950 -0.3830 -0.3168  0.4258
10332SOL    HW132417   8.551   5.405   5.020  0.0051 -1.2018  0.1004
10332SOL    HW232418   8.678   5.483   4.992 -0.9343  0.6329  0.8111
10333SOL     OW32419   6.532   8.309   0.037  0.2113 -0.5388 -0.3159
10333SOL    HW132420   6.541   8.313   0.132 -0.0088 -0.8031 -0.2829
10333SOL    HW232421   6.464   8.374   0.016  0.5323 -0.2047 -0.3333
10334SOL     OW32422   4.067   2.896   2.649 -0.0387  0.4154  0.3523
10334SOL    HW132423   4.160   2.915   2.633 -0.1514  1.5912  1.0092
10334SOL    HW232424   4.064   2.867   2.740  0.1729 -3.3371 -0.6862
10335SOL     OW32425   7.045   2.802   3.115  0.4314 -0.3444  0.2383
10335SOL    HW132426   7.110   2.813   3.185 -0.8009  1.4134  1.2019
10335SOL    HW232427   7.083   2.847   3.039  1.0624 -0.7916  0.2867
10336SOL     OW32428   6.289   6.786   2.837 -0.1475  0.2063  0.3240
10336SOL    HW132429   6.312   6.850   2.904  1.0189  0.9952 -0.7927
10336SOL    HW232430   6.255   6.838   2.765  0.9947 -0.3984 -0.6761
10337SOL     OW32431   8.147   4.664   4.115  0.1767 -0.4189  0.1192
10337SOL    HW132432   8.074   4.646   4.173  0.4213  0.2904  0.6751
10337SOL    HW232433   8.175   4.579   4.083 -0.6972 -0.7190  0.1332
10338SOL     OW32434   2.741   4.885   3.626  0.5225 -0.6335  0.4956
10338SOL    HW132435   2.712   4.803   3.586  1.7563 -0.4473 -0.8860
10338SOL    HW232436   2.710   4.953   3.567  3.1534 -0.4057 -0.7580
10339SOL     OW32437   0.561   6.333   3.694  0.0934 -0.0773  0.4252
10339SOL    HW132438   0.574   6.280   3.773  1.5963  0.8674  0.8693
10339SOL    HW232439   0.576   6.273   3.621 -0.2464 -0.7156  0.8737
10340SOL     OW32440   9.046   8.491   1.235 -1.1437  0.4740  0.0072
10340SOL    HW132441   8.956   8.521   1.222 -0.4969  1.5816 -2.4878
10340SOL    HW232442   9.071   8.454   1.151  1.0335  1.0445  0.3528
10341SOL     OW32443   2.152   7.391   7.980 -0.3057  0.1256 -0.0347
10341SOL    HW132444   2.161   7.301   7.949  0.5366  0.3411 -0.4452
10341SOL    HW232445   2.098   7.384   8.059  0.4054 -0.8228  0.3795
10342SOL     OW32446   5.800   2.598   0.227  0.0451  0.8515  0.3906
10342SOL    HW132447   5.750   2.646   0.162  1.1994  1.8186  0.1930
10342SOL    HW232448   5.755   2.614   0.310 -0.4639  0.9925  0.0831
10343SOL     OW32449   7.164   5.880   0.300 -0.4357  0.1739  0.1976
10343SOL    HW132450   7.161   5.932   0.220  0.6628  0.3770  0.2756
10343SOL    HW232451   7.075   5.844   0.308 -0.2750 -0.8610 -1.7821
10344SOL     OW32452   4.025   1.687   1.045  0.2271  0.0454 -0.6880
10344SOL    HW132453   4.024   1.644   1.130  1.1748  1.0151 -0.1685
10344SOL    HW232454   4.041   1.616   0.982 -1.5679 -0.8483 -0.2010
10345SOL     OW32455   6.792   3.885   7.458  0.5328 -0.0565  0.6456
10345SOL    HW132456   6.719   3.882   7.397  0.4456 -0.6242  0.7717
10345SOL    HW232457   6.846   3.957   7.428 -0.4217  0.8050  0.9396
10346SOL     OW32458   5.239   3.786   8.189  0.1596 -0.1778  0.0690
10346SOL    HW132459   5.238   3.869   8.140  1.4234 -0.8641 -1.1943
10346SOL    HW232460   5.155   3.745   8.168 -1.2223  1.4625  2.0246
10347SOL     OW32461   4.002   6.382   8.359 -0.0150 -0.4944  0.1660
10347SOL    HW132462   4.003   6.305   8.416  1.8614 -0.6673 -0.0514
10347SOL    HW232463   4.034   6.453   8.415 -0.8403 -0.0629  0.0995
10348SOL     OW32464   2.385   6.582   1.873  0.0515  0.2456  0.6382
10348SOL    HW132465   2.368   6.634   1.794 -1.6909  0.9869  1.4454
10348SOL    HW232466   2.338   6.500   1.858  0.4841  0.0177  0.5255
10349SOL     OW32467   2.156   9.051   1.142  0.2979 -0.2398  0.6056
10349SOL    HW132468   2.147   9.037   1.048 -0.0530 -0.2726  0.6461
10349SOL    HW232469   2.215   9.126   1.149 -0.7609  0.6445  0.3331
10350SOL     OW32470   6.999   0.538   4.154  0.3904  0.4500  0.1805
10350SOL    HW132471   6.937   0.476   4.115 -0.0259 -0.2217  1.8396
10350SOL    HW232472   6.945   0.591   4.213  1.0076  1.4415 -0.1159
10351SOL     OW32473   7.570   8.270   1.027  0.0007 -0.1035  0.8655
10351SOL    HW132474   7.527   8.310   0.951 -0.0652  1.6825  1.7813
10351SOL    HW232475   7.518   8.300   1.102  0.5035 -1.2176  1.6847
10352SOL     OW32476   8.856   4.992   1.272  0.1574 -0.4272 -0.4688
10352SOL    HW132477   8.915   5.049   1.223  0.1378 -1.3100 -1.5637
10352SOL    HW232478   8.769   5.015   1.241  0.0741 -0.3556 -0.1781
10353SOL     OW32479   5.495   7.746   5.342 -0.0929 -0.4999 -0.4614
10353SOL    HW132480   5.486   7.749   5.437 -2.7986  2.3896 -0.6528
10353SOL    HW232481   5.579   7.789   5.325 -0.3929  0.5464  0.5799
10354SOL     OW32482   2.846   9.133   8.028  0.0269  0.1115 -0.4480
10354SOL    HW132483   2.784   9.204   8.047 -1.5123 -0.5524 -2.6951
10354SOL    HW232484   2.837   9.118   7.934  1.0677 -2.3820 -0.2039
10355SOL     OW32485   7.876   1.686   9.017  0.1894 -0.0736 -0.7839
10355SOL    HW132486   7.951   1.737   8.985  0.6373 -0.8980 -1.1077
10355SOL    HW232487   7.859   1.720   9.105 -0.2188  1.3507 -1.3796
10356SOL     OW32488   5.719   7.676   1.637 -0.2945 -0.4378  0.3035
10356SOL    HW132489   5.804   7.686   1.595  0.6107 -0.1939  2.0849
10356SOL    HW232490   5.707   7.582   1.646  0.8079 -0.4510  1.9403
10357SOL     OW32491   3.348   0.499   4.242  0.1382 -0.3335 -0.2021
10357SOL    HW132492   3.316   0.493   4.152  0.8180 -0.0053 -0.4643
10357SOL    HW232493   3.415   0.431   4.248  0.8886  0.3934 -0.2767
10358SOL     OW32494   7.136   7.037   0.528  0.4176  0.1559 -0.0153
10358SOL    HW132495   7.165   7.081   0.448  1.3288  2.3928  1.4342
10358SOL    HW232496   7.197   7.068   0.595 -0.2490 -1.7291  1.5459
10359SOL     OW32497   4.096   4.355   4.749  0.3289 -0.0020  0.2360
10359SOL    HW132498   4.176   4.368   4.801 -0.8865 -0.3393  2.3296
10359SOL    HW232499   4.109   4.272   4.704  1.1405 -0.0911  0.6229
10360SOL     OW32500   5.753   2.447   6.090  0.6558 -0.1399  0.0163
10360SOL    HW132501   5.775   2.473   6.179  0.6574  0.7775 -0.2500
10360SOL    HW232502   5.837   2.423   6.051  0.6797 -0.3565  0.1966
10361SOL     OW32503   1.235   8.739   6.586 -0.9922  0.3485 -0.6460
10361SOL    HW132504   1.140   8.736   6.578 -1.2799 -2.4688  1.8560
10361SOL    HW232505   1.267   8.669   6.528 -0.7730 -0.7341  0.7214
10362SOL     OW32506   8.073   4.652   8.749  0.2439  0.5326 -0.1671
10362SOL    HW132507   7.982   4.624   8.751  0.3283  0.1010 -1.7264
10362SOL    HW232508   8.119   4.583   8.702  0.9124  1.9550 -1.7009
10363SOL     OW32509   7.512   7.543   1.831  0.4605  0.1132  0.7485
10363SOL    HW132510   7.421   7.567   1.852  0.5268  1.4302 -0.2876
10363SOL    HW232511   7.507   7.451   1.807 -0.7968  0.3906 -0.2064
10364SOL     OW32512   1.734   1.674   1.192 -0.0833 -0.5135  0.7762
10364SOL    HW132513   1.696   1.744   1.245  1.7459  0.0474  1.4356
10364SOL    HW232514   1.810   1.644   1.243  0.4034 -1.5296 -0.4897
10365SOL     OW32515   8.717   4.617   3.076 -0.2460  0.0910 -0.5037
10365SOL    HW132516   8.659   4.622   3.000 -2.4793 -0.2065  1.0966
10365SOL    HW232517   8.745   4.707   3.090 -2.0871  0.6312 -0.0520
10366SOL     OW32518   8.315   8.362   9.215  0.1244  0.1531 -0.1318
10366SOL    HW132519   8.402   8.348   9.252  0.4262 -0.1242 -0.9272
10366SOL    HW232520   8.313   8.306   9.137 -0.0689  1.5843 -1.1994
10367SOL     OW32521   2.149   4.782   6.582 -0.0861  0.1246  0.4159
10367SOL    HW132522   2.149   4.844   6.509  0.3532  0.6112  0.8179
10367SOL    HW232523   2.241   4.773   6.605 -0.3472  2.9797  3.3845
10368SOL     OW32524   7.374   7.942   3.023  0.1454  0.2457  0.6597
10368SOL    HW132525   7.372   8.037   3.014  2.2538  0.5383  2.4192
10368SOL    HW232526   7.402   7.910   2.938  0.3899  1.2779  0.3346
10369SOL     OW32527   8.761   9.274   1.192  0.6226  0.0107  0.1276
10369SOL    HW132528   8.680   9.273   1.243  0.4625  1.1346 -0.0844
10369SOL    HW232529   8.776   9.182   1.170 -1.4614 -0.0904 -1.1857
10370SOL     OW32530   9.172   5.695   4.948 -0.0889  0.1071  0.0763
10370SOL    HW132531   9.253   5.730   4.911 -1.3571  1.0557 -1.9976
10370SOL    HW232532   9.162   5.609   4.909  0.1820 -0.2469  0.7717
10371SOL     OW32533   6.568   6.783   3.073  0.4361  0.7544 -0.1933
10371SOL    HW132534   6.573   6.803   3.167 -0.0409 -0.4091  0.1009
10371SOL    HW232535   6.646   6.731   3.055  0.0873  0.2328 -0.2339
10372SOL     OW32536   6.859   5.473   5.534 -0.1699  0.1576 -0.2503
10372SOL    HW132537   6.808   5.540   5.488 -1.1770 -1.4744 -1.6385
10372SOL    HW232538   6.795   5.428   5.589  0.8555  1.4877  2.1809
10373SOL     OW32539   6.265   0.594   4.418 -1.1661 -0.7071 -0.0790
10373SOL    HW132540   6.221   0.563   4.498  0.6023  0.0168  1.2374
10373SOL    HW232541   6.246   0.687   4.416 -0.5590 -0.5818 -0.0606
10374SOL     OW32542   6.097   2.449   8.680  0.1978  0.2590 -0.2640
10374SOL    HW132543   6.029   2.476   8.618 -0.2562 -1.9085 -0.8152
10374SOL    HW232544   6.174   2.500   8.656  0.0936 -0.6258 -2.7865
10375SOL     OW32545   2.300   2.330   6.968 -0.0106  0.4130 -0.0170
10375SOL    HW132546   2.264   2.289   7.047  2.5172  0.1046  1.0610
10375SOL    HW232547   2.279   2.268   6.898 -0.9854 -0.0456  0.6463
10376SOL     OW32548   1.635   0.022   1.249  0.3701 -0.2607 -0.2915
10376SOL    HW132549   1.711  -0.017   1.292 -0.0931  0.0010  0.8099
10376SOL    HW232550   1.568   0.024   1.317 -0.1972  0.7409 -0.8549
10377SOL     OW32551   6.646   7.130   4.722 -0.0080 -0.6101  0.1266
10377SOL    HW132552   6.558   7.093   4.720  0.4099 -1.6069 -0.5717
10377SOL    HW232553   6.648   7.191   4.648 -0.0184 -0.8431 -0.0705
10378SOL     OW32554   2.088   2.577   3.753 -0.2484 -0.4621 -0.2211
10378SOL    HW132555   2.127   2.497   3.719 -0.3505 -0.7640  0.3581
10378SOL    HW232556   1.995   2.555   3.766  0.1268 -1.0006  2.0784
10379SOL     OW32557   3.974   2.105   5.590  0.2181  0.4459 -0.0435
10379SOL    HW132558   4.023   2.187   5.593 -0.7118  0.9798  1.2891
10379SOL    HW232559   3.918   2.113   5.512 -0.4634  1.4476  0.5327
10380SOL     OW32560   7.038   0.378   9.098  0.1560  0.0270  0.5836
10380SOL    HW132561   7.093   0.443   9.054 -0.4811  0.1518 -0.0547
10380SOL    HW232562   7.069   0.294   9.065 -0.0922  0.1019  0.1510
10381SOL     OW32563   5.655   3.530   2.532  0.0582 -0.5219 -0.0802
10381SOL    HW132564   5.723   3.578   2.580 -1.6984  2.7213 -0.6359
10381SOL    HW232565   5.697   3.504   2.450  1.3014 -0.7911  0.6093
10382SOL     OW32566   1.047   3.197   3.799  0.4754 -0.3786 -0.0005
10382SOL    HW132567   1.098   3.185   3.719 -0.7717 -2.0340 -0.6090
10382SOL    HW232568   0.972   3.250   3.771  1.1854  0.9990  0.6170
10383SOL     OW32569   4.786   5.597   8.414  0.4087 -0.1787  0.0709
10383SOL    HW132570   4.855   5.661   8.432  0.0742 -0.1357  1.3137
10383SOL    HW232571   4.737   5.591   8.496 -0.2271 -1.2355 -0.3623
10384SOL     OW32572   6.362   6.048   4.181  0.1862 -0.2005  0.0081
10384SOL    HW132573   6.320   5.963   4.170  0.4523 -0.2003 -1.1114
10384SOL    HW232574   6.299   6.099   4.233 -0.0907 -0.9779  0.4628
10385SOL     OW32575   1.550   2.257   5.963 -0.2469 -0.6066 -0.4550
10385SOL    HW132576   1.458   2.282   5.968 -0.1301 -0.5007  1.7379
10385SOL    HW232577   1.548   2.168   5.927 -1.5249 -1.9462  2.6021
10386SOL     OW32578   6.288   0.830   5.001 -0.0376  0.3948  0.1180
10386SOL    HW132579   6.373   0.869   5.023 -0.4064  0.3768  1.7678
10386SOL    HW232580   6.305   0.736   4.995 -0.1825  0.2026  2.0590
10387SOL     OW32581   1.044   0.113   8.741  0.2996 -0.3568 -0.3073
10387SOL    HW132582   1.038   0.168   8.819  0.9904 -0.8313  0.0869
10387SOL    HW232583   1.138   0.102   8.726  0.1743 -0.3434 -1.1572
10388SOL     OW32584   7.552   5.819   1.685 -0.1958  0.4905 -0.1763
10388SOL    HW132585   7.466   5.852   1.658  0.3454  1.1818 -1.0909
10388SOL    HW232586   7.612   5.892   1.668  0.4471  0.3230  1.2561
10389SOL     OW32587   6.290   2.551   8.038 -0.7636 -0.1224  0.2527
10389SOL    HW132588   6.340   2.531   7.959  0.7288 -0.7578  1.3106
10389SOL    HW232589   6.250   2.636   8.021  0.3202  0.1914 -0.8169
10390SOL     OW32590   1.897   7.755   4.916  0.2005 -0.0873  0.5707
10390SOL    HW132591   1.983   7.740   4.876 -0.4000 -0.9265 -0.4615
10390SOL    HW232592   1.837   7.764   4.842 -0.2599  3.1304  1.1563
10391SOL     OW32593   4.725   5.830   7.140 -0.5101  0.0682 -0.1426
10391SOL    HW132594   4.789   5.780   7.191 -0.2618  0.1920 -0.3351
10391SOL    HW232595   4.777   5.888   7.085 -0.7935  1.3096  0.8261
10392SOL     OW32596   1.976   1.533   4.649  0.3573  0.4448 -0.2294
10392SOL    HW132597   2.028   1.610   4.624  0.6081  0.2991 -0.1624
10392SOL    HW232598   2.037   1.479   4.700  0.4795 -0.2628 -1.1100
10393SOL     OW32599   6.503   4.366   6.500  0.2327  0.2041  0.0504
10393SOL    HW132600   6.465   4.409   6.577  1.1825  0.4335  0.4038
10393SOL    HW232601   6.478   4.274   6.509 -1.2260  0.5221 -0.3491
10394SOL     OW32602   2.320   1.496   4.321 -0.0665  0.2316  0.2508
10394SOL    HW132603   2.368   1.483   4.403  1.9122  2.4751 -0.4628
10394SOL    HW232604   2.376   1.553   4.268 -2.3080  0.7283 -1.7818
10395SOL     OW32605   6.682   6.805   4.723  0.6968  0.3064 -0.0201
10395SOL    HW132606   6.777   6.819   4.726  0.6791  0.2077  1.4831
10395SOL    HW232607   6.646   6.892   4.706  0.9656  0.8252  1.8447
10396SOL     OW32608   3.563   8.569   7.507 -0.5224  0.5892  0.6829
10396SOL    HW132609   3.518   8.643   7.548  1.4817  2.1179  0.2766
10396SOL    HW232610   3.649   8.604   7.483 -0.2923 -1.2657 -1.4974
10397SOL     OW32611   1.289   8.093   0.655 -0.3078 -0.1497  0.2280
10397SOL    HW132612   1.269   8.005   0.624  2.0690 -0.9758  0.8721
10397SOL    HW232613   1.268   8.150   0.581  1.8612 -1.6896 -1.6731
10398SOL     OW32614   2.258   4.676   1.737  1.1081 -0.0374 -0.3022
10398SOL    HW132615   2.284   4.707   1.824 -1.7991 -2.6484  1.7146
10398SOL    HW232616   2.198   4.743   1.705 -0.7112 -0.7094  1.4726
10399SOL     OW32617   1.491   8.841   0.787  0.0981 -0.0697  0.8818
10399SOL    HW132618   1.470   8.907   0.853  1.1044  0.7791  0.3853
10399SOL    HW232619   1.528   8.768   0.837 -1.5364 -0.5308  1.4940
10400SOL     OW32620   6.346   6.788   2.375 -1.1849 -0.2787  0.0247
10400SOL    HW132621   6.334   6.713   2.433  1.2284 -0.1669  0.7622
10400SOL    HW232622   6.416   6.839   2.415  0.0964  0.1814 -2.5751
10401SOL     OW32623   1.758   8.893   6.867 -0.0011  0.1225 -0.0934
10401SOL    HW132624   1.708   8.972   6.890 -0.6275 -0.5899  1.1379
10401SOL    HW232625   1.698   8.840   6.816 -0.2618 -0.3805  0.7066
10402SOL     OW32626   9.188   4.815   0.781 -0.1793  0.0128 -0.4557
10402SOL    HW132627   9.163   4.834   0.691 -0.1471 -1.9621 -0.9264
10402SOL    HW232628   9.116   4.847   0.835 -1.4920 -1.2470 -1.4153
10403SOL     OW32629   8.607   2.890   6.123 -0.1630 -0.8101 -0.1444
10403SOL    HW132630   8.590   2.968   6.069 -1.5768 -0.1536  1.1444
10403SOL    HW232631   8.594   2.816   6.064 -1.2534 -0.1059 -0.8275
10404SOL     OW32632   6.240   3.410   5.317 -0.2105 -0.1029  0.8813
10404SOL    HW132633   6.285   3.478   5.367 -0.1124  0.9612 -0.5756
10404SOL    HW232634   6.153   3.405   5.357  0.2373 -0.1312  1.8929
10405SOL     OW32635   4.608   8.152   3.281  0.3432  0.2063  0.1565
10405SOL    HW132636   4.575   8.200   3.357  1.8403  2.2133 -0.3747
10405SOL    HW232637   4.557   8.186   3.207  1.1968  0.7977 -0.1807
10406SOL     OW32638   7.343   5.962   5.650 -0.0983 -0.1088  0.1773
10406SOL    HW132639   7.291   6.024   5.599 -1.1880 -0.5299  0.7478
10406SOL    HW232640   7.352   5.886   5.593 -0.3292 -0.1395  0.1832
10407SOL     OW32641   6.829   4.231   8.958  0.2215 -0.2131 -0.5437
10407SOL    HW132642   6.773   4.241   9.035  0.7945 -0.0650 -0.1347
10407SOL    HW232643   6.770   4.241   8.884 -0.3650 -0.4775 -0.1254
10408SOL     OW32644   7.032   6.839   7.910 -0.4795  0.0864  0.8568
10408SOL    HW132645   7.031   6.867   7.818 -1.2647 -0.6097  0.6534
10408SOL    HW232646   6.964   6.891   7.952  0.6510  1.2534  1.3174
10409SOL     OW32647   8.178   0.848   0.533  0.1516  0.0703 -0.2880
10409SOL    HW132648   8.239   0.775   0.520  1.3320  1.2983 -2.1144
10409SOL    HW232649   8.211   0.894   0.610  0.1306 -0.6022  0.1332
10410SOL     OW32650   9.212   9.136   0.467  0.0400 -0.6075 -0.2776
10410SOL    HW132651   9.129   9.139   0.420 -0.0821  0.7850 -0.0265
10410SOL    HW232652   9.277   9.121   0.398 -0.2729 -0.0045 -0.7219
10411SOL     OW32653   4.289   4.179   6.117  0.1408 -0.0293  0.1732
10411SOL    HW132654   4.336   4.200   6.198 -0.2831 -1.6665  0.8781
10411SOL    HW232655   4.354   4.193   6.048  0.7206  0.7150  0.8371
10412SOL     OW32656   8.219   4.028   3.736  0.5877  0.2828 -0.6548
10412SOL    HW132657   8.210   4.117   3.703  0.1605  0.7018  0.5418
10412SOL    HW232658   8.137   3.985   3.714 -0.2063  0.9315  0.8889
10413SOL     OW32659   1.078   2.009   0.775 -0.1713 -0.0894  0.4098
10413SOL    HW132660   1.169   1.984   0.759 -0.7411 -0.6895 -2.5222
10413SOL    HW232661   1.069   2.095   0.735 -0.4700  0.8873  2.4562
10414SOL     OW32662   8.478   0.145   4.856 -0.5339  0.2337  0.2253
10414SOL    HW132663   8.518   0.200   4.923  0.6564 -1.1361  0.7123
10414SOL    HW232664   8.551   0.116   4.802 -1.3570  0.5142 -1.0863
10415SOL     OW32665   3.912   0.111   8.651  0.0313 -0.5122  0.1237
10415SOL    HW132666   3.887   0.085   8.740 -0.7086 -1.2529 -0.2811
10415SOL    HW232667   3.874   0.043   8.595  0.6714 -0.1707 -0.7431
10416SOL     OW32668   8.798   4.273   5.089  0.0218  0.0589  0.5970
10416SOL    HW132669   8.703   4.263   5.077  0.0364  0.9679 -0.4406
10416SOL    HW232670   8.818   4.358   5.050  1.0238  0.6352  2.2729
10417SOL     OW32671   6.536   2.014   0.511 -0.5226  0.2265  0.1237
10417SOL    HW132672   6.508   2.066   0.436  0.9054  0.4118 -0.3141
10417SOL    HW232673   6.630   2.002   0.497 -0.3591 -0.2681  1.5661
10418SOL     OW32674   6.114   2.714   3.777 -0.1285  0.0665 -0.4565
10418SOL    HW132675   6.181   2.780   3.795 -0.2612 -0.4327  2.3042
10418SOL    HW232676   6.033   2.764   3.766  0.1854  0.4951 -0.8437
10419SOL     OW32677   3.322   4.733   6.489  0.1273  0.1528 -0.0585
10419SOL    HW132678   3.244   4.744   6.544 -0.8215 -2.5574 -0.7019
10419SOL    HW232679   3.394   4.725   6.551 -0.7253 -1.4041  0.8057
10420SOL     OW32680   1.924   5.917   2.345  0.4662 -0.0341 -0.2836
10420SOL    HW132681   1.937   5.844   2.406 -1.4871  0.0238  0.2604
10420SOL    HW232682   1.930   5.877   2.258  1.8919 -0.3638 -0.0557
10421SOL     OW32683   6.688   0.217   8.468  0.0971  0.4125  0.1556
10421SOL    HW132684   6.692   0.143   8.529 -1.7590 -0.8496 -1.1697
10421SOL    HW232685   6.759   0.200   8.406 -0.5910 -0.5506 -0.4009
10422SOL     OW32686   0.795   3.740   7.303 -0.3086  0.5888  0.1238
10422SOL    HW132687   0.789   3.831   7.274  1.7441  0.1688 -1.8593
10422SOL    HW232688   0.828   3.746   7.393  1.3328  1.8349 -0.5053
10423SOL     OW32689   8.956   2.821   6.635  0.4589  0.1300  0.1781
10423SOL    HW132690   8.911   2.738   6.622  1.5263 -0.1321 -2.5473
10423SOL    HW232691   8.904   2.885   6.586  1.4121  0.3821 -0.5457
10424SOL     OW32692   2.353   1.135   0.119  0.1015  0.0178  0.1909
10424SOL    HW132693   2.337   1.059   0.175 -1.3524  2.1992  2.9653
10424SOL    HW232694   2.399   1.197   0.174 -0.7294  2.0217 -1.2350
10425SOL     OW32695   5.512   4.619   2.421  0.4487  0.9293  0.2261
10425SOL    HW132696   5.598   4.579   2.411 -0.8454 -1.8191 -1.0957
10425SOL    HW232697   5.496   4.622   2.515  1.3657  0.0436  0.4154
10426SOL     OW32698   7.730   4.073   3.650  0.1578  0.2533 -0.3199
10426SOL    HW132699   7.732   3.990   3.698  1.6581 -0.9293 -2.2983
10426SOL    HW232700   7.639   4.100   3.653 -0.3323 -1.3638  0.5286
10427SOL     OW32701   1.328   5.749   6.455  0.2720 -0.0179 -0.2160
10427SOL    HW132702   1.402   5.702   6.492  0.1726 -0.2776 -0.3495
10427SOL    HW232703   1.346   5.754   6.361  0.6906  0.9356 -0.1014
10428SOL     OW32704   5.795   4.126   6.189  0.0702 -0.3424 -0.0065
10428SOL    HW132705   5.750   4.203   6.224 -0.0077 -1.0045  1.4491
10428SOL    HW232706   5.861   4.162   6.130 -0.9230  0.7574 -0.4948
10429SOL     OW32707   6.403   0.288   4.989 -0.3006  0.5565 -0.0891
10429SOL    HW132708   6.449   0.261   4.909 -0.3129  1.0596 -0.2659
10429SOL    HW232709   6.455   0.250   5.060  0.8375  1.7483 -0.2491
10430SOL     OW32710   5.056   2.218   3.011  0.1292  0.4561 -0.4864
10430SOL    HW132711   4.970   2.229   3.052  0.3059  0.0043  0.0268
10430SOL    HW232712   5.089   2.307   3.000 -0.6596  0.6671 -1.2676
10431SOL     OW32713   7.000   5.230   0.765  0.0559 -0.1098  0.1458
10431SOL    HW132714   6.927   5.169   0.759  0.6735 -0.7932 -0.6213
10431SOL    HW232715   7.034   5.236   0.676  0.6568  0.5554  0.4058
10432SOL     OW32716   3.522   7.888   4.470 -0.4013 -0.1819 -0.4687
10432SOL    HW132717   3.610   7.908   4.438  0.4776 -1.5453  0.9393
10432SOL    HW232718   3.472   7.968   4.457  1.2009  0.8017 -0.7923
10433SOL     OW32719   5.368   4.766   1.742  0.2378 -0.5186  0.0664
10433SOL    HW132720   5.435   4.784   1.807  0.7948  0.2483 -0.6987
10433SOL    HW232721   5.314   4.844   1.740  0.4373 -0.3875 -0.6306
10434SOL     OW32722   7.073   2.362   1.094 -0.6975  0.1576 -0.1437
10434SOL    HW132723   6.978   2.356   1.106 -0.5460 -0.8361  0.6739
10434SOL    HW232724   7.108   2.376   1.182 -0.0912  0.7737 -0.4690
10435SOL     OW32725   6.229   8.891   4.552 -0.5150  0.4432  0.2782
10435SOL    HW132726   6.209   8.800   4.574 -0.6769 -0.0922 -1.8294
10435SOL    HW232727   6.323   8.899   4.566 -0.5363  0.0070  0.6886
10436SOL     OW32728   3.525   2.458   0.222 -0.2707  0.1752  0.2672
10436SOL    HW132729   3.616   2.489   0.230 -0.9701  2.4045  0.3823
10436SOL    HW232730   3.533   2.365   0.203  2.0521  0.3432  0.0869
10437SOL     OW32731   6.438   7.457   5.076  0.4522  0.3879 -0.2860
10437SOL    HW132732   6.346   7.433   5.062  0.0334  1.2915  0.7361
10437SOL    HW232733   6.475   7.463   4.988  0.0033 -1.6832 -0.6649
10438SOL     OW32734   4.172   3.227   0.875 -0.4016  0.1568 -0.0841
10438SOL    HW132735   4.120   3.180   0.940 -1.0179  1.3626  0.3272
10438SOL    HW232736   4.119   3.225   0.795 -0.1307 -0.3896 -0.2578
10439SOL     OW32737   6.240   6.043   8.884 -0.5973  0.2215  0.3511
10439SOL    HW132738   6.263   6.013   8.973 -1.3459  0.6434  0.6964
10439SOL    HW232739   6.261   6.136   8.884  0.1572  0.0620 -0.1871
10440SOL     OW32740   3.442   3.470   3.579 -0.1707 -0.4564 -0.2098
10440SOL    HW132741   3.486   3.398   3.535  0.2519 -0.3991  0.0995
10440SOL    HW232742   3.362   3.432   3.615 -0.8257 -0.3686 -1.5132
10441SOL     OW32743   3.564   5.675   0.101 -0.0994 -0.1555 -0.0858
10441SOL    HW132744   3.516   5.719   0.171  1.2970  0.2374  0.6485
10441SOL    HW232745   3.601   5.597   0.142 -0.1155 -0.4678 -0.6515
10442SOL     OW32746   2.249   5.585   3.562  0.0571 -0.2342 -0.5713
10442SOL    HW132747   2.160   5.606   3.590  0.7639  2.9691 -0.3610
10442SOL    HW232748   2.237   5.531   3.483 -2.0593 -0.1033 -0.3866
10443SOL     OW32749   6.947   0.803   3.494 -0.1058  0.7735  0.1907
10443SOL    HW132750   6.852   0.795   3.507  0.0111 -0.3128  0.4287
10443SOL    HW232751   6.967   0.893   3.520 -1.3319  1.6011 -1.4984
10444SOL     OW32752   0.453   4.035   3.688  0.0512  0.0692  0.3693
10444SOL    HW132753   0.399   4.083   3.752 -1.0850 -0.1430 -0.4033
10444SOL    HW232754   0.498   3.969   3.740  0.8106  1.2695  1.2833
10445SOL     OW32755   5.687   6.736   4.923  0.1111  0.2882 -0.8014
10445SOL    HW132756   5.682   6.756   5.017 -2.0488  1.4723 -1.1060
10445SOL    HW232757   5.762   6.787   4.892  0.7736 -0.0122  0.2443
10446SOL     OW32758   2.207   7.150   7.604 -1.0349 -0.0750 -0.7025
10446SOL    HW132759   2.160   7.097   7.539 -1.3519 -0.0444 -0.4981
10446SOL    HW232760   2.297   7.154   7.571 -1.3047  0.3813 -1.4254
10447SOL     OW32761   4.784   3.575   0.958  0.3085 -0.3090 -0.0739
10447SOL    HW132762   4.812   3.541   1.043  0.5247 -0.2634 -0.1256
10447SOL    HW232763   4.758   3.666   0.976  1.1565 -0.0274 -0.2038
10448SOL     OW32764   3.215   3.669   0.010  0.6859 -0.2040 -0.0520
10448SOL    HW132765   3.304   3.706   0.016  0.5591  0.4308 -1.6306
10448SOL    HW232766   3.229   3.576  -0.004  1.1919  0.0980 -1.8684
10449SOL     OW32767   9.269   3.713   2.893 -0.0265 -0.6831  0.0674
10449SOL    HW132768   9.350   3.709   2.944  1.4501  1.1929 -1.9492
10449SOL    HW232769   9.280   3.647   2.825  2.4216  2.8874 -3.4590
10450SOL     OW32770   3.467   4.181   3.980 -0.0083 -0.0104 -0.9680
10450SOL    HW132771   3.426   4.116   3.924  0.6185  1.2948 -3.0628
10450SOL    HW232772   3.556   4.148   3.993 -0.8990 -1.6978  1.6921
10451SOL     OW32773   2.282   4.243   0.625 -0.4595  0.3146 -0.3936
10451SOL    HW132774   2.329   4.179   0.678 -3.1218 -0.5040  1.1534
10451SOL    HW232775   2.321   4.328   0.649  0.3122 -0.3218  0.6923
10452SOL     OW32776   5.605   2.295   5.013  0.2412  0.0958 -0.0794
10452SOL    HW132777   5.624   2.321   5.103  0.5418  2.1492 -0.6881
10452SOL    HW232778   5.690   2.293   4.970  0.0626 -0.5156 -0.4236
10453SOL     OW32779   6.915   0.036   6.106  0.2383  0.5006 -0.5273
10453SOL    HW132780   6.871   0.023   6.190 -1.4630 -1.2261 -1.5968
10453SOL    HW232781   7.008   0.028   6.126  0.1698  3.4905  1.6905
10454SOL     OW32782   8.911   1.310   3.494  0.5215  0.4857  0.1522
10454SOL    HW132783   8.916   1.384   3.556  0.7007  1.6157 -1.1702
10454SOL    HW232784   8.839   1.332   3.436  1.0881  0.0103 -0.7479
10455SOL     OW32785   7.093   2.019   3.889  0.7976 -0.1744 -0.3077
10455SOL    HW132786   7.099   2.086   3.958 -0.3233 -1.1435  0.7847
10455SOL    HW232787   7.138   2.058   3.814 -0.4853  2.1243  0.0131
10456SOL     OW32788   2.592   3.816   5.849  0.4850  0.1839 -1.3841
10456SOL    HW132789   2.686   3.823   5.832  0.7464  1.1216  0.2245
10456SOL    HW232790   2.555   3.897   5.815  0.7801  1.3193  0.8041
10457SOL     OW32791   3.507   9.245   5.787  0.0676  0.0482 -0.4647
10457SOL    HW132792   3.496   9.179   5.855  0.9124  1.0442  0.6914
10457SOL    HW232793   3.449   9.317   5.815 -0.1755  0.1606 -1.2345
10458SOL     OW32794   6.857   1.696   6.340  0.0435  0.4645  0.4644
10458SOL    HW132795   6.833   1.786   6.361 -0.1065 -0.0843  2.8808
10458SOL    HW232796   6.816   1.643   6.408  0.7693 -1.3778 -0.4438
10459SOL     OW32797   7.349   7.701   7.696  0.2871  0.3025  0.7366
10459SOL    HW132798   7.434   7.658   7.710 -0.0313  0.2523  2.7680
10459SOL    HW232799   7.349   7.774   7.758 -1.2244  0.2054  0.8755
10460SOL     OW32800   1.210   0.211   5.422 -0.0050  0.6127  0.3868
10460SOL    HW132801   1.193   0.128   5.379 -0.0311  0.7611  0.1081
10460SOL    HW232802   1.127   0.258   5.419 -0.5214 -0.1168  2.2643
10461SOL     OW32803   0.892   5.359   3.775 -0.4124 -0.2598 -0.1352
10461SOL    HW132804   0.846   5.361   3.691 -2.1562 -1.0144  0.7483
10461SOL    HW232805   0.950   5.435   3.772 -2.3275  1.2721 -1.0074
10462SOL     OW32806   0.282   5.094   3.207 -0.0240  0.2999  0.7317
10462SOL    HW132807   0.259   5.092   3.300  0.3170  0.0644  0.8105
10462SOL    HW232808   0.226   5.028   3.167 -0.1462  0.3770  0.7742
10463SOL     OW32809   2.715   2.510   0.905 -0.2396 -0.4799  0.2995
10463SOL    HW132810   2.803   2.531   0.873  0.0712 -1.2739  0.5937
10463SOL    HW232811   2.724   2.422   0.943 -1.4019 -1.0176 -0.6103
10464SOL     OW32812   4.423   5.656   5.000 -0.0314 -0.2288 -0.2044
10464SOL    HW132813   4.341   5.666   5.049  0.6053 -0.2442  0.8962
10464SOL    HW232814   4.396   5.616   4.917 -0.9243 -2.3116  0.9853
10465SOL     OW32815   0.394   3.523   7.292 -0.2022  0.0171  0.5832
10465SOL    HW132816   0.367   3.473   7.214  1.2379  0.5206 -0.2772
10465SOL    HW232817   0.488   3.506   7.299 -0.5251 -1.0996  3.0428
10466SOL     OW32818   0.985   2.828   8.504  0.1474  0.2224  0.3250
10466SOL    HW132819   1.030   2.887   8.564  1.1210  0.9836 -1.0928
10466SOL    HW232820   1.047   2.816   8.432 -2.0508  1.7309 -2.0005
10467SOL     OW32821   4.114   6.954   1.441  0.2832 -0.4453 -0.1296
10467SOL    HW132822   4.113   6.869   1.485 -1.2888 -0.2173  0.3706
10467SOL    HW232823   4.021   6.972   1.424  0.3048  2.2449  1.9791
10468SOL     OW32824   7.178   2.851   4.840 -0.1707  0.0420  0.6370
10468SOL    HW132825   7.202   2.846   4.932  1.3051 -0.6386  0.2533
10468SOL    HW232826   7.146   2.940   4.828 -0.2192  0.1906  1.7654
10469SOL     OW32827   5.394   3.666   8.020 -0.5323 -0.4439  1.4243
10469SOL    HW132828   5.353   3.691   8.103  1.1819  0.6848  1.9793
10469SOL    HW232829   5.480   3.632   8.044 -0.0733 -0.2809  0.1135
10470SOL     OW32830   6.279   8.995   1.297 -0.3116  0.0338  0.0302
10470SOL    HW132831   6.348   9.061   1.294 -0.6406  0.4002  0.4179
10470SOL    HW232832   6.223   9.014   1.222  1.2954 -1.7237 -1.7441
10471SOL     OW32833   7.566   5.448   7.467  0.7852  0.1785 -0.1496
10471SOL    HW132834   7.601   5.475   7.382  0.4870 -0.2506 -0.4138
10471SOL    HW232835   7.605   5.509   7.530 -0.9361  2.1044 -0.8740
10472SOL     OW32836   8.605   2.629   0.470 -0.0962 -0.0062  0.0677
10472SOL    HW132837   8.665   2.658   0.539 -2.5608  2.0985  1.5056
10472SOL    HW232838   8.544   2.570   0.514 -0.5438 -0.2012 -0.7888
10473SOL     OW32839   0.635   0.061   2.908 -0.3587  0.0068  0.4028
10473SOL    HW132840   0.683   0.057   2.991 -0.6422 -1.2790  0.5279
10473SOL    HW232841   0.552   0.016   2.926 -1.4483  1.7849  0.0596
10474SOL     OW32842   2.209   8.840   5.530 -0.2461  0.1835 -0.2600
10474SOL    HW132843   2.296   8.843   5.490 -0.7985  1.7476 -1.4819
10474SOL    HW232844   2.174   8.928   5.517 -0.8365  0.5521  3.0251
10475SOL     OW32845   1.070   4.249   6.296  0.6049  0.3347  0.2136
10475SOL    HW132846   1.154   4.252   6.251  0.6156  1.1482  0.2782
10475SOL    HW232847   1.083   4.304   6.374  0.0259  0.4324  0.2430
10476SOL     OW32848   2.242   5.305   7.788 -0.1799  0.0302  0.1324
10476SOL    HW132849   2.289   5.291   7.705 -0.4012  2.9121 -0.5566
10476SOL    HW232850   2.155   5.268   7.772  0.3838 -1.2357 -0.1736
10477SOL     OW32851   2.756   2.909   1.869  0.6388 -0.4028 -0.1160
10477SOL    HW132852   2.738   3.001   1.883  0.1970 -0.6064  0.6759
10477SOL    HW232853   2.797   2.879   1.950  1.0794 -0.8288 -0.4857
10478SOL     OW32854   9.147   7.373   8.462 -0.4787 -0.7236  0.5065
10478SOL    HW132855   9.168   7.465   8.474 -1.4740 -0.4259  0.0894
10478SOL    HW232856   9.219   7.326   8.504  0.3057  0.2325  0.2609
10479SOL     OW32857   8.206   2.155   5.384  0.0588 -0.5237 -0.0133
10479SOL    HW132858   8.143   2.145   5.455  0.3085 -0.7475  0.1801
10479SOL    HW232859   8.283   2.108   5.414  0.4299  0.0063 -0.1117
10480SOL     OW32860   1.410   7.966   3.165  0.0343 -0.2948  0.2047
10480SOL    HW132861   1.323   8.000   3.184 -0.1420  0.2667 -1.4384
10480SOL    HW232862   1.409   7.951   3.071  1.9827  0.4860  0.0235
10481SOL     OW32863   4.992   6.834   6.146 -0.1396  0.5830  0.2591
10481SOL    HW132864   5.050   6.898   6.188 -0.7665  0.9961  0.4979
10481SOL    HW232865   4.904   6.868   6.159 -0.4893 -0.3280  0.3979
10482SOL     OW32866   0.997   5.587   2.203 -0.1058  0.5489 -0.1607
10482SOL    HW132867   1.005   5.496   2.231 -0.4837  0.6464  0.2801
10482SOL    HW232868   0.996   5.583   2.108  0.3494  0.1347 -0.1497
10483SOL     OW32869   3.315   6.688   2.800 -0.0946  0.8142 -0.3389
10483SOL    HW132870   3.246   6.747   2.770  0.3811  0.4821 -2.2765
10483SOL    HW232871   3.335   6.635   2.723  0.9197 -0.4767  0.7620
10484SOL     OW32872   3.692   0.570   3.611  0.4635 -0.0642 -0.4215
10484SOL    HW132873   3.701   0.548   3.518  1.3357  1.2038 -0.6749
10484SOL    HW232874   3.761   0.520   3.654 -0.0252 -0.7552 -0.4263
10485SOL     OW32875   5.238   8.548   3.343 -0.0405 -0.3125 -0.1843
10485SOL    HW132876   5.148   8.527   3.364  0.5010 -2.7166 -0.0068
10485SOL    HW232877   5.235   8.582   3.253 -1.0814 -0.7460 -0.3194
10486SOL     OW32878   5.244   5.947   5.320  0.1650  0.0713  0.6049
10486SOL    HW132879   5.157   5.971   5.350  0.0779 -1.1270  1.4177
10486SOL    HW232880   5.281   5.896   5.392  1.4495  0.3436  0.1777
10487SOL     OW32881   6.919   0.101   4.278  0.0289  0.0391 -0.3174
10487SOL    HW132882   6.913   0.109   4.373  0.1941  0.8625 -0.3690
10487SOL    HW232883   6.867   0.024   4.257 -2.4557  1.4566  0.1803
10488SOL     OW32884   5.268   8.750   7.622  0.0200  0.8039 -0.0731
10488SOL    HW132885   5.328   8.707   7.684 -0.0339  0.5785 -0.1762
10488SOL    HW232886   5.267   8.841   7.650  0.1724  0.7481  0.1210
10489SOL     OW32887   6.011   1.504   4.619 -0.3282 -0.8946  0.0240
10489SOL    HW132888   5.929   1.522   4.573  0.1755 -0.8429 -0.8779
10489SOL    HW232889   6.073   1.566   4.581  0.2833 -1.3602  0.2475
10490SOL     OW32890   1.936   5.269   2.302 -0.0661 -0.2476 -0.4045
10490SOL    HW132891   1.864   5.205   2.308 -0.0829 -0.1495  0.6074
10490SOL    HW232892   1.987   5.240   2.227 -0.5750 -0.9430 -0.4937
10491SOL     OW32893   4.269   8.780   6.571  0.0991 -0.7438  0.4959
10491SOL    HW132894   4.191   8.765   6.518  1.3423 -0.4853 -1.5065
10491SOL    HW232895   4.323   8.839   6.518  1.0992  0.1597  2.4029
10492SOL     OW32896   3.836   4.999   3.414  0.0789 -0.4494  0.6500
10492SOL    HW132897   3.749   5.036   3.423 -0.3154 -1.3808  0.7145
10492SOL    HW232898   3.842   4.973   3.322  0.3233 -0.3108  0.6246
10493SOL     OW32899   2.617   4.485   1.789  0.0562  0.1571  0.4260
10493SOL    HW132900   2.692   4.533   1.823  0.2594  0.0417  0.1368
10493SOL    HW232901   2.584   4.540   1.718 -0.0981  0.1759  0.5102
10494SOL     OW32902   0.175   2.908   3.120  0.2548 -0.7431 -0.0046
10494SOL    HW132903   0.221   2.930   3.201  1.4706  2.4698 -1.3768
10494SOL    HW232904   0.099   2.966   3.119  0.5288 -0.3771 -1.3460
10495SOL     OW32905   8.669   3.873   5.000 -0.2625  0.5938  0.1901
10495SOL    HW132906   8.637   3.794   5.043 -1.9863  1.7558  1.1506
10495SOL    HW232907   8.748   3.897   5.050 -0.3606  0.1038  0.5897
10496SOL     OW32908   2.264   9.092   7.578  0.2683  0.5701 -0.0259
10496SOL    HW132909   2.243   9.185   7.581  1.7239  0.9136  0.0047
10496SOL    HW232910   2.359   9.088   7.575  0.4665 -0.9578  3.3754
10497SOL     OW32911   2.054   8.184   8.987 -0.5029 -0.2599  0.6114
10497SOL    HW132912   2.046   8.224   9.073 -1.5323 -1.2450  1.0093
10497SOL    HW232913   1.990   8.112   8.988 -3.2178  1.8121 -2.1550
10498SOL     OW32914   7.368   2.391   6.858 -0.4201  0.1032 -0.6448
10498SOL    HW132915   7.463   2.380   6.864 -0.3500  1.1502  0.5501
10498SOL    HW232916   7.333   2.336   6.929 -0.5504  1.3059  0.2528
10499SOL     OW32917   6.799   5.909   1.920  0.4204  0.0030 -0.7392
10499SOL    HW132918   6.775   5.997   1.893  0.6553  0.4148  0.3357
10499SOL    HW232919   6.743   5.890   1.995  1.8046  0.0961  0.3718
10500SOL     OW32920   7.075   3.740   1.461  0.2300  0.2263  0.6932
10500SOL    HW132921   7.106   3.776   1.378 -1.0021 -0.9939 -0.3466
10500SOL    HW232922   7.148   3.687   1.493 -0.5071 -2.4340 -1.6100
10501SOL     OW32923   4.823   0.918   1.141  0.5511 -0.3768  0.1915
10501SOL    HW132924   4.840   0.861   1.216 -1.3422 -0.4978  0.5702
10501SOL    HW232925   4.742   0.964   1.164 -1.5101 -2.2054 -2.7187
10502SOL     OW32926   4.598   6.543   7.159 -0.7802  0.2540  0.0744
10502SOL    HW132927   4.602   6.499   7.243  0.1401  0.3125  0.0704
10502SOL    HW232928   4.504   6.546   7.138 -1.1089  1.0108  1.4935
10503SOL     OW32929   2.213   5.702   5.843 -0.0001  0.0674 -0.0365
10503SOL    HW132930   2.142   5.746   5.796  0.1797  0.9075  0.4695
10503SOL    HW232931   2.279   5.770   5.857  0.9773 -0.7286 -0.6137
10504SOL     OW32932   2.653   1.054   3.602  0.0302  0.5409  0.1184
10504SOL    HW132933   2.634   1.147   3.604 -2.9045  0.0785 -1.4311
10504SOL    HW232934   2.732   1.047   3.548 -0.7457  2.0216 -1.2869
10505SOL     OW32935   5.340   5.647   8.320 -0.2923 -0.3611 -0.3744
10505SOL    HW132936   5.407   5.592   8.280  0.0284  0.7745 -1.4638
10505SOL    HW232937   5.258   5.619   8.279 -0.0341  0.4428 -1.4815
10506SOL     OW32938   8.350   6.038   2.576 -0.8827  0.4190 -0.3784
10506SOL    HW132939   8.337   5.943   2.575 -0.6006  0.3752 -0.0290
10506SOL    HW232940   8.266   6.073   2.606 -1.1316  0.3106 -0.9257
10507SOL     OW32941   0.162   6.473   3.729  0.2841  0.0185 -0.0528
10507SOL    HW132942   0.216   6.458   3.807 -0.4516  0.5414  0.5640
10507SOL    HW232943   0.109   6.549   3.751 -1.5483 -1.1555 -0.1715
10508SOL     OW32944   8.803   5.690   4.671  0.8833  0.0415 -0.2770
10508SOL    HW132945   8.788   5.598   4.690 -1.7131  0.5828  0.8367
10508SOL    HW232946   8.832   5.728   4.754 -0.5387  0.6355 -0.0236
10509SOL     OW32947   7.288   5.464   7.422  0.6209 -0.1142 -0.3579
10509SOL    HW132948   7.382   5.446   7.420  0.8091  0.9280 -1.3298
10509SOL    HW232949   7.281   5.559   7.412 -0.5118 -0.0819  0.5643
10510SOL     OW32950   7.872   5.777   3.687 -0.3694 -0.7890  0.1495
10510SOL    HW132951   7.853   5.685   3.708 -1.9455 -0.7074 -0.7423
10510SOL    HW232952   7.894   5.776   3.594  0.1902 -0.3359  0.2755
10511SOL     OW32953   5.991   8.759   6.233  0.5427  0.4520  0.5240
10511SOL    HW132954   5.985   8.789   6.143 -0.1621 -1.6497 -0.1794
10511SOL    HW232955   6.073   8.710   6.237 -0.6191 -1.6347  0.2647
10512SOL     OW32956   3.996   0.590   6.717  0.3315 -0.0221 -0.0125
10512SOL    HW132957   3.935   0.601   6.791 -0.7585 -0.9826 -0.7275
10512SOL    HW232958   3.993   0.496   6.698  2.2772 -0.1379  0.1038
10513SOL     OW32959   5.460   9.063   8.409 -0.1151 -0.0863 -0.3962
10513SOL    HW132960   5.377   9.063   8.361  0.4494  0.8548 -1.4360
10513SOL    HW232961   5.436   9.092   8.497 -0.8754  0.2836 -0.7106
10514SOL     OW32962   7.506   8.416   2.016 -0.0615  0.6607 -0.1709
10514SOL    HW132963   7.461   8.350   2.068 -1.1983  2.5326  1.3625
10514SOL    HW232964   7.437   8.458   1.964  0.6588  0.5736 -1.2334
10515SOL     OW32965   0.135   3.852   2.564 -0.1977  0.1999  0.0429
10515SOL    HW132966   0.188   3.775   2.585 -1.5991 -0.6350  0.6530
10515SOL    HW232967   0.106   3.836   2.474 -0.9204 -0.2648  0.3492
10516SOL     OW32968   7.384   6.387   5.121  0.2760  0.4439 -0.2226
10516SOL    HW132969   7.460   6.443   5.134  1.1630 -0.8539  0.5297
10516SOL    HW232970   7.375   6.340   5.205 -0.5837 -0.3160 -0.7189
10517SOL     OW32971   5.308   8.532   7.234 -0.5111 -0.1244  0.4277
10517SOL    HW132972   5.335   8.599   7.296  0.6913 -0.7921  0.6469
10517SOL    HW232973   5.353   8.555   7.152 -1.7230  0.4902 -0.0908
10518SOL     OW32974   4.090   4.165   9.087  0.3574 -0.3197  0.9641
10518SOL    HW132975   4.174   4.146   9.045  1.3413  1.1958  2.1452
10518SOL    HW232976   4.107   4.155   9.180 -0.7497  0.1180  1.2237
10519SOL     OW32977   8.213   8.581   0.325 -0.7381  0.1076 -0.3515
10519SOL    HW132978   8.142   8.645   0.326 -1.1285 -0.2326 -2.3220
10519SOL    HW232979   8.169   8.496   0.325 -0.3294 -0.1124 -1.0469
10520SOL     OW32980   1.562   4.068   5.802  0.2942 -0.0146  0.3534
10520SOL    HW132981   1.536   4.004   5.868 -0.6406 -1.1864 -1.1016
10520SOL    HW232982   1.488   4.129   5.798 -0.7118 -1.2784 -1.2173
10521SOL     OW32983   1.153   0.634   1.168 -0.6578 -0.0326 -0.0294
10521SOL    HW132984   1.121   0.705   1.224 -2.5141 -0.3753 -0.5900
10521SOL    HW232985   1.186   0.678   1.090  1.5489  0.4162  1.0731
10522SOL     OW32986   0.941   6.846   8.931 -0.0180  0.2662 -0.5307
10522SOL    HW132987   0.945   6.791   9.010  1.3405 -0.4278 -1.0565
10522SOL    HW232988   0.968   6.933   8.961 -1.0518  0.3891  0.0769
10523SOL     OW32989   8.634   5.633   9.125  0.3043  0.8337 -0.4910
10523SOL    HW132990   8.629   5.538   9.115  1.0916  0.2370  3.1229
10523SOL    HW232991   8.713   5.659   9.079  0.2144 -0.3026 -1.3083
10524SOL     OW32992   1.913   4.009   9.262 -0.0921 -0.4778  0.3516
10524SOL    HW132993   1.903   3.959   9.342 -1.9266  1.6865  1.6277
10524SOL    HW232994   1.994   4.059   9.274 -0.0140 -0.6599  0.5775
10525SOL     OW32995   5.317   1.774   4.937 -0.1081 -0.4323 -0.4805
10525SOL    HW132996   5.262   1.698   4.922  0.0011 -0.2554 -1.9325
10525SOL    HW232997   5.407   1.741   4.929 -0.0453 -0.3090 -0.2946
10526SOL     OW32998   5.309   1.226   2.883 -0.3490 -0.4332  0.1754
10526SOL    HW132999   5.402   1.229   2.907 -0.2763  0.1673 -0.1585
10526SOL    HW233000   5.263   1.254   2.962 -0.1603  0.6431 -0.0814
10527SOL     OW33001   0.769   2.376   6.520 -0.1924  0.1417  0.7832
10527SOL    HW133002   0.819   2.359   6.440 -1.7135 -0.7444 -0.0192
10527SOL    HW233003   0.822   2.337   6.590  1.7665  1.9974  0.4414
10528SOL     OW33004   8.845   8.956   4.473 -0.3607  0.2517  0.6620
10528SOL    HW133005   8.915   8.996   4.421  0.2150 -0.5188  0.8212
10528SOL    HW233006   8.880   8.870   4.497 -0.7792  0.4342  1.9796
10529SOL     OW33007   1.796   1.014   8.992  0.2203 -0.2976 -0.4568
10529SOL    HW133008   1.704   1.011   8.964 -0.8980  0.0053  2.8078
10529SOL    HW233009   1.830   0.927   8.972 -0.5561 -0.2413 -2.2237
10530SOL     OW33010   4.535   5.419   1.349 -0.0951  0.5546 -0.6393
10530SOL    HW133011   4.615   5.452   1.309  1.2308  0.1277  1.5327
10530SOL    HW233012   4.536   5.325   1.332 -0.3277  0.5927 -0.8815
10531SOL     OW33013   4.887   4.824   8.644  0.3893  0.5647 -0.4753
10531SOL    HW133014   4.794   4.847   8.643  0.3639  0.9777 -4.4573
10531SOL    HW233015   4.893   4.749   8.703 -2.2681  1.1309  0.6476
10532SOL     OW33016   0.448   6.598   9.159 -0.3786  0.3037 -0.2573
10532SOL    HW133017   0.469   6.510   9.129 -3.0886 -0.4354 -0.2053
10532SOL    HW233018   0.454   6.592   9.255 -1.0972  0.0041 -0.2261
10533SOL     OW33019   1.531   1.305   8.182 -0.2862 -0.5986  0.4558
10533SOL    HW133020   1.517   1.214   8.157 -1.2201 -0.3457  0.0275
10533SOL    HW233021   1.535   1.352   8.099  0.3835 -0.2615  0.6653
10534SOL     OW33022   5.933   5.595   7.662  0.3651  0.4929 -1.0497
10534SOL    HW133023   5.987   5.590   7.740 -2.0665  1.2564  0.7933
10534SOL    HW233024   5.913   5.688   7.652 -2.0789  0.0992 -0.5113
10535SOL     OW33025   6.163   6.802   5.538  0.1258  0.2608  0.7226
10535SOL    HW133026   6.096   6.866   5.513 -0.1564  0.1217  1.1106
10535SOL    HW233027   6.246   6.849   5.527  0.0564  0.0579 -0.9124
10536SOL     OW33028   9.030   4.077   4.103  0.1446 -0.4080 -0.6308
10536SOL    HW133029   9.007   4.118   4.186  2.6585 -1.2472  0.5850
10536SOL    HW233030   8.949   4.077   4.052 -1.2903  0.7802  1.5370
10537SOL     OW33031   2.917   8.341   8.364  0.8201 -0.4060 -0.0816
10537SOL    HW133032   2.830   8.313   8.335  0.3577  1.4397 -0.6043
10537SOL    HW233033   2.900   8.403   8.434  1.8205 -1.5742  1.2569
10538SOL     OW33034   0.406   2.303   0.464 -0.0217  0.3436  0.2620
10538SOL    HW133035   0.452   2.249   0.400 -1.9034 -1.7781  0.5798
10538SOL    HW233036   0.314   2.295   0.441 -0.6803  0.3108  2.6247
10539SOL     OW33037   6.951   3.558   8.676 -0.4114  0.6156 -0.1270
10539SOL    HW133038   6.924   3.572   8.585  0.9425  1.2054 -0.4499
10539SOL    HW233039   6.875   3.584   8.727 -1.3578 -0.1463 -1.0878
10540SOL     OW33040   8.486   2.871   0.429  0.2889 -0.5263  0.1466
10540SOL    HW133041   8.449   2.783   0.424  1.0704 -0.8498 -0.0037
10540SOL    HW233042   8.576   2.858   0.457  0.2274  0.2749  0.7802
10541SOL     OW33043   1.556   7.393   0.713 -0.1580 -0.2562 -0.2937
10541SOL    HW133044   1.610   7.378   0.635  0.2113 -0.7293  0.0461
10541SOL    HW233045   1.483   7.447   0.682  0.2370 -0.0439 -0.8660
10542SOL     OW33046   0.233   7.534   5.278 -0.0960 -0.0437 -0.0819
10542SOL    HW133047   0.282   7.483   5.341  0.2318  1.1929  0.6981
10542SOL    HW233048   0.155   7.563   5.326 -1.1883 -1.2581 -1.0424
10543SOL     OW33049   4.225   1.885   1.075  0.0912  0.4554 -0.3403
10543SOL    HW133050   4.160   1.815   1.083  1.6803 -1.0052  0.3564
10543SOL    HW233051   4.253   1.901   1.165  1.8022 -0.0420 -0.7549
10544SOL     OW33052   4.263   8.972   4.311 -0.4490 -0.1742  0.4546
10544SOL    HW133053   4.292   8.966   4.402 -1.9626  1.2556  1.0821
10544SOL    HW233054   4.174   9.006   4.316 -0.0148  1.5376 -1.6072
10545SOL     OW33055   6.572   4.420   2.182 -0.0390 -0.4858  0.6993
10545SOL    HW133056   6.539   4.331   2.196  0.9829 -0.7747  1.4113
10545SOL    HW233057   6.585   4.426   2.088 -1.0997 -0.7183  0.5206
10546SOL     OW33058   7.604   3.595   7.356  0.2455 -0.2191  0.2434
10546SOL    HW133059   7.555   3.596   7.438 -0.4332 -1.5636 -0.1056
10546SOL    HW233060   7.536   3.605   7.288  0.9046  1.9835 -0.1450
10547SOL     OW33061   3.965   8.106   7.430 -0.6279  0.1220  0.0178
10547SOL    HW133062   4.054   8.125   7.459 -0.7033  1.7321 -0.7327
10547SOL    HW233063   3.964   8.011   7.418  0.8259  0.0182  0.5275
10548SOL     OW33064   4.568   5.775   7.423 -0.2744  0.1563  0.4538
10548SOL    HW133065   4.525   5.790   7.339  1.2334  3.2079  0.0863
10548SOL    HW233066   4.496   5.761   7.485 -1.5431  0.6042 -0.8779
10549SOL     OW33067   5.611   1.342   2.939  0.0681  0.0964 -0.3155
10549SOL    HW133068   5.668   1.324   3.013  3.1152 -0.6783 -2.6225
10549SOL    HW233069   5.618   1.436   2.924 -0.8388  0.3138  0.5238
10550SOL     OW33070   4.348   2.886   3.710 -0.0108  0.0009  0.3008
10550SOL    HW133071   4.387   2.907   3.794 -0.4876 -0.3251  0.6095
10550SOL    HW233072   4.410   2.919   3.645  0.7135 -0.4058  0.7775
10551SOL     OW33073   3.826   4.063   8.590  0.0828  0.2649  0.6325
10551SOL    HW133074   3.858   4.086   8.677 -0.3973  2.8596  0.2141
10551SOL    HW233075   3.742   4.019   8.606 -0.2916  1.2479  1.4921
10552SOL     OW33076   6.074   6.867   8.177 -0.1476  0.2504  0.6623
10552SOL    HW133077   5.984   6.894   8.191 -0.4826  0.0717 -0.9794
10552SOL    HW233078   6.090   6.800   8.244 -1.2141  0.3360  1.0051
10553SOL     OW33079   5.557   8.731   5.872  0.3373 -0.4605 -0.1461
10553SOL    HW133080   5.495   8.718   5.943  0.4670  2.1371  0.5481
10553SOL    HW233081   5.639   8.693   5.904 -0.0939 -1.0746  0.2402
10554SOL     OW33082   0.036   2.061   5.190 -0.3014  0.4564  0.5705
10554SOL    HW133083  -0.001   2.021   5.268 -0.9844  1.7800  0.9572
10554SOL    HW233084   0.107   2.117   5.223  0.0459  0.2732  0.1412
10555SOL     OW33085   0.445   2.878   0.326  0.4775 -0.2157  0.4520
10555SOL    HW133086   0.441   2.926   0.243  3.0728 -0.7891 -0.1061
10555SOL    HW233087   0.399   2.934   0.388 -1.6473  0.1931 -1.3306
10556SOL     OW33088   6.811   5.971   5.912  0.1133 -0.7852  0.6961
10556SOL    HW133089   6.716   5.975   5.928 -0.0455 -1.2969 -0.0655
10556SOL    HW233090   6.838   5.886   5.947  0.2529 -0.7336  0.7157
10557SOL     OW33091   5.686   7.654   3.734  0.0563 -0.2917  0.2885
10557SOL    HW133092   5.606   7.620   3.693  0.4053 -0.5746 -0.1677
10557SOL    HW233093   5.733   7.577   3.764 -1.1725 -0.0403  3.1730
10558SOL     OW33094   1.505   0.389   7.421 -0.3313 -0.1638 -0.2782
10558SOL    HW133095   1.441   0.388   7.492 -0.1701 -1.0157 -0.1321
10558SOL    HW233096   1.457   0.423   7.346 -1.7819 -3.1899 -0.8975
10559SOL     OW33097   5.520   6.105   5.512  0.3686 -0.6634  0.5222
10559SOL    HW133098   5.518   6.192   5.472 -1.4427 -0.2951  1.3020
10559SOL    HW233099   5.576   6.053   5.455 -0.7791  0.2636 -1.5329
10560SOL     OW33100   7.247   1.162   1.238 -0.7724  0.0726  0.4638
10560SOL    HW133101   7.288   1.229   1.293 -0.5464 -0.4521  0.9428
10560SOL    HW233102   7.154   1.165   1.261 -1.0683  1.3713 -0.7345
10561SOL     OW33103   8.607   8.727   8.407 -0.4431 -0.2470  0.2159
10561SOL    HW133104   8.520   8.725   8.366 -0.4415  3.4446 -0.2939
10561SOL    HW233105   8.660   8.668   8.354 -1.6641  0.6570 -2.1535
10562SOL     OW33106   0.430   4.004   5.862  0.1394  0.1549  0.1833
10562SOL    HW133107   0.343   3.994   5.825  0.8631  0.2669 -1.6648
10562SOL    HW233108   0.444   4.099   5.867 -0.8445  0.2475  3.1260
10563SOL     OW33109   3.730   8.331   3.366 -0.4962 -0.6563 -0.5009
10563SOL    HW133110   3.777   8.340   3.449 -0.5893 -0.4659 -0.4701
10563SOL    HW233111   3.675   8.409   3.360  0.2684 -0.1605 -1.2251
10564SOL     OW33112   8.348   8.813   3.448  0.4676 -0.1568 -0.0295
10564SOL    HW133113   8.371   8.729   3.489  1.0328 -0.5685 -1.1437
10564SOL    HW233114   8.414   8.825   3.380 -0.5717  0.3819 -0.9760
10565SOL     OW33115   8.586   6.165   8.059 -0.3450  0.6297 -0.3488
10565SOL    HW133116   8.615   6.148   8.149 -0.1671  2.0843 -0.1040
10565SOL    HW233117   8.534   6.089   8.035 -1.1143  0.5992  1.3020
10566SOL     OW33118   8.160   6.547   1.354  0.0046 -0.2377  0.6550
10566SOL    HW133119   8.159   6.512   1.443  2.6025 -1.5674  0.2363
10566SOL    HW233120   8.158   6.470   1.297 -0.9121  0.5683 -0.4573
10567SOL     OW33121   6.709   4.475   5.675  0.3518  0.5083 -0.6077
10567SOL    HW133122   6.720   4.404   5.739 -1.4133  0.8526  0.1377
10567SOL    HW233123   6.787   4.469   5.620  0.7312 -1.3868  0.0300
10568SOL     OW33124   3.776   7.127   0.411 -0.5893 -0.3558  0.6516
10568SOL    HW133125   3.693   7.162   0.379 -1.1660 -0.3013  2.1272
10568SOL    HW233126   3.776   7.035   0.384 -1.1980 -0.3948  0.7756
10569SOL     OW33127   7.316   3.043   2.359  0.1019  0.1649  0.0340
10569SOL    HW133128   7.316   3.002   2.272  0.0347  0.3908 -0.0722
10569SOL    HW233129   7.234   3.092   2.362 -0.2092 -0.3695  0.4753
10570SOL     OW33130   5.706   3.123   1.147  0.2580 -0.5771  0.1361
10570SOL    HW133131   5.753   3.181   1.208 -1.4729  2.3963 -1.1184
10570SOL    HW233132   5.680   3.048   1.200  2.1772  0.0121  2.0366
10571SOL     OW33133   6.858   7.371   3.079  0.4284  0.0792  0.0173
10571SOL    HW133134   6.848   7.443   3.017  0.9641  0.8357  0.7715
10571SOL    HW233135   6.787   7.310   3.058  0.2464  0.6057 -0.9367
10572SOL     OW33136   7.184   8.026   0.350  0.6492 -0.1258  0.1676
10572SOL    HW133137   7.240   8.099   0.379  1.0106 -0.5029  0.4337
10572SOL    HW233138   7.155   7.984   0.431 -0.3051  0.2647  0.0419
10573SOL     OW33139   1.557   8.069   0.551  0.4503  0.4424 -0.1093
10573SOL    HW133140   1.508   8.100   0.627  1.2534 -0.4194  0.7734
10573SOL    HW233141   1.520   8.118   0.478 -0.7246  0.8682  0.7438
10574SOL     OW33142   3.996   8.951   0.438  0.1846 -0.6036 -0.0725
10574SOL    HW133143   3.921   8.942   0.379 -1.4635 -0.4463  1.8935
10574SOL    HW233144   3.977   8.892   0.511  0.2297  1.8742  2.1031
10575SOL     OW33145   6.718   3.602   3.298 -0.1509 -0.4275  0.0494
10575SOL    HW133146   6.687   3.517   3.330 -2.3945  0.7412  1.2100
10575SOL    HW233147   6.771   3.636   3.370 -2.2469  0.6420  1.1938
10576SOL     OW33148   0.329   1.536   8.696  0.1755 -0.0561 -0.4534
10576SOL    HW133149   0.313   1.474   8.768  0.5164 -0.1383 -0.4447
10576SOL    HW233150   0.424   1.531   8.682  0.5934  2.1421  1.0826
10577SOL     OW33151   8.603   0.065   2.030  0.2967 -0.1736  0.4723
10577SOL    HW133152   8.575   0.013   2.105 -1.4923  0.8895  0.6188
10577SOL    HW233153   8.614   0.002   1.959  0.8433 -1.0506  1.3192
10578SOL     OW33154   7.956   8.783   4.873  0.1612  0.2725 -0.2212
10578SOL    HW133155   8.028   8.838   4.842  0.7392  0.5471  1.5334
10578SOL    HW233156   7.931   8.820   4.958  0.0662 -1.7050  0.6766
10579SOL     OW33157   6.735   8.029   0.335  0.0485  0.4364 -0.2824
10579SOL    HW133158   6.651   7.985   0.319  0.1291 -0.5189  1.6464
10579SOL    HW233159   6.773   8.041   0.247 -2.4894  1.8006 -1.2991
10580SOL     OW33160   2.772   6.797   7.023 -0.5332  0.0646 -0.0068
10580SOL    HW133161   2.797   6.706   7.035 -1.7364 -0.1525  1.0644
10580SOL    HW233162   2.837   6.847   7.073 -0.8277 -0.3219  0.7785
10581SOL     OW33163   3.509   8.288   6.178  0.3294  0.4662 -0.0527
10581SOL    HW133164   3.592   8.247   6.152  1.0606  1.2570  0.9491
10581SOL    HW233165   3.529   8.332   6.260 -1.0664  0.7948  0.1354
10582SOL     OW33166   7.254   1.292   2.482  0.0941 -0.0297  0.2922
10582SOL    HW133167   7.304   1.327   2.556 -0.8091  0.0785  0.8651
10582SOL    HW233168   7.304   1.318   2.405  0.6641  0.4940  0.8254
10583SOL     OW33169   0.751   6.946   2.426 -0.0841  0.2078  0.9766
10583SOL    HW133170   0.752   6.884   2.354  1.6294 -0.1511  1.2608
10583SOL    HW233171   0.710   6.898   2.498 -2.3210  0.7525  0.1670
10584SOL     OW33172   9.244   4.130   6.897 -0.1767  0.2334 -0.2736
10584SOL    HW133173   9.253   4.178   6.979  0.7081  2.4161 -1.5490
10584SOL    HW233174   9.323   4.077   6.891 -1.5206 -2.1449  1.5226
10585SOL     OW33175   2.253   4.094   4.833  0.3399 -0.8704  0.1479
10585SOL    HW133176   2.247   4.180   4.876 -0.3155 -0.7157 -0.2447
10585SOL    HW233177   2.317   4.046   4.885  0.4249 -0.2751  0.6023
10586SOL     OW33178   3.181   8.889   5.164 -0.5160  0.0934  0.1604
10586SOL    HW133179   3.224   8.939   5.234 -0.2816  0.2315 -0.0821
10586SOL    HW233180   3.091   8.923   5.162 -0.9429 -0.8940  1.3461
10587SOL     OW33181   3.416   2.662   5.222  0.0894  0.0341 -0.5238
10587SOL    HW133182   3.416   2.623   5.135 -0.5301  0.9492 -0.9510
10587SOL    HW233183   3.432   2.755   5.207  0.5176  0.1264  0.3900
10588SOL     OW33184   2.685   5.545   5.527 -0.4979 -0.0883 -0.1167
10588SOL    HW133185   2.661   5.582   5.612  0.5344 -0.3941  0.3168
10588SOL    HW233186   2.635   5.464   5.522 -0.1417 -0.3476  0.4507
10589SOL     OW33187   6.890   0.766   0.484  0.2356  0.2043 -0.3955
10589SOL    HW133188   6.901   0.807   0.570  0.2186 -2.8246  1.1873
10589SOL    HW233189   6.975   0.725   0.467 -0.4796 -1.1647 -0.7135
10590SOL     OW33190   2.272   8.236   1.048  0.4911  0.4410 -0.1112
10590SOL    HW133191   2.363   8.261   1.063 -0.5617  4.5477  0.8718
10590SOL    HW233192   2.222   8.299   1.101 -2.9417 -1.1538 -1.2148
10591SOL     OW33193   0.799   0.424   9.028  0.0489  0.0398 -0.1821
10591SOL    HW133194   0.823   0.505   8.983  0.4769  0.8625  1.4343
10591SOL    HW233195   0.723   0.448   9.081 -0.0418 -0.7192  0.0507
10592SOL     OW33196   2.348   8.607   1.840  1.0291  0.0036 -0.0134
10592SOL    HW133197   2.282   8.667   1.806  1.1259  0.7501  1.0533
10592SOL    HW233198   2.373   8.644   1.925  1.3020 -1.3901  0.5506
10593SOL     OW33199   2.099   6.138   3.940  0.4350 -0.3451  0.1822
10593SOL    HW133200   2.152   6.072   3.986  0.6033  0.4612  1.1898
10593SOL    HW233201   2.041   6.087   3.883 -0.3905 -1.4809  1.9311
10594SOL     OW33202   3.426   2.259   7.840 -0.0208 -0.3949  0.0644
10594SOL    HW133203   3.492   2.272   7.772  1.7147  0.5589  1.8499
10594SOL    HW233204   3.416   2.345   7.881 -2.7893 -0.3774 -0.4461
10595SOL     OW33205   3.799   0.021   0.709  0.4060 -0.3282  0.2975
10595SOL    HW133206   3.863  -0.011   0.772  0.0404 -2.5384 -0.3809
10595SOL    HW233207   3.825  -0.018   0.626 -1.3018 -0.5640 -0.1681
10596SOL     OW33208   7.259   3.359   3.155  0.3646 -0.1621  0.0573
10596SOL    HW133209   7.224   3.284   3.203 -0.1705  0.2153  0.2624
10596SOL    HW233210   7.252   3.332   3.063  0.2392 -0.3923  0.1312
10597SOL     OW33211   2.239   1.411   7.257  0.5406  0.1835  0.2921
10597SOL    HW133212   2.208   1.380   7.172  1.0343 -0.7307  0.4365
10597SOL    HW233213   2.301   1.481   7.235  0.9432 -0.2953 -0.1176
10598SOL     OW33214   3.189   0.539   1.166  0.4156  1.0103 -0.4166
10598SOL    HW133215   3.116   0.479   1.153  0.0265  0.2320  3.8978
10598SOL    HW233216   3.152   0.626   1.150 -1.9729  0.7378  2.6251
10599SOL     OW33217   0.756   8.863   6.726  0.0305 -0.2140 -0.5241
10599SOL    HW133218   0.762   8.890   6.818  0.1800 -0.5152 -0.4444
10599SOL    HW233219   0.714   8.777   6.729 -0.7875  0.1713 -0.8057
10600SOL     OW33220   3.077   4.856   6.584 -0.3046 -0.1872  0.1178
10600SOL    HW133221   3.135   4.876   6.658 -0.7313  0.1192  0.3718
10600SOL    HW233222   3.024   4.783   6.615 -0.6409  0.0908  0.2015
10601SOL     OW33223   3.944   6.642   6.417  0.5540  0.2762 -0.0814
10601SOL    HW133224   3.872   6.591   6.455 -0.1567  0.0523 -1.6507
10601SOL    HW233225   3.906   6.728   6.400 -0.0690 -0.4757 -2.9327
10602SOL     OW33226   0.726   8.014   3.531  0.0419 -0.1736  0.2362
10602SOL    HW133227   0.697   7.962   3.456 -1.8365 -1.0570  1.4995
10602SOL    HW233228   0.652   8.071   3.551  0.8517  0.6812  0.8927
10603SOL     OW33229   7.143   4.842   8.429 -0.1186 -0.7056  0.3477
10603SOL    HW133230   7.164   4.862   8.520 -2.1887 -3.6201  1.6355
10603SOL    HW233231   7.207   4.775   8.403  1.2763  1.0029 -0.8938
10604SOL     OW33232   1.089   2.357   0.409  0.5242  0.2727  0.5793
10604SOL    HW133233   1.000   2.350   0.372  0.7938  0.6805 -0.1688
10604SOL    HW233234   1.110   2.450   0.402  2.3165 -0.2290 -2.4307
10605SOL     OW33235   3.405   5.817   6.973 -0.8627 -0.1317 -0.1671
10605SOL    HW133236   3.500   5.809   6.975 -0.7511  0.0508 -2.2557
10605SOL    HW233237   3.375   5.734   6.935 -1.2012  1.1629 -2.9697
10606SOL     OW33238   1.154   5.195   8.858  0.7039 -0.0317  0.1180
10606SOL    HW133239   1.173   5.110   8.898 -1.4008 -0.0774  1.1573
10606SOL    HW233240   1.168   5.258   8.929  3.2131  0.6882 -0.8989
10607SOL     OW33241   1.300   0.429   8.525 -0.5962  0.4021  0.5802
10607SOL    HW133242   1.327   0.511   8.566 -0.3470  0.4242  0.3713
10607SOL    HW233243   1.324   0.361   8.589 -0.4911  0.4625  0.6048
10608SOL     OW33244   6.902   0.073   4.553  0.1903 -0.0668 -1.1755
10608SOL    HW133245   6.889   0.162   4.586 -0.9952 -1.0024  1.1228
10608SOL    HW233246   6.820   0.028   4.574  0.8222 -1.7512 -2.1675
10609SOL     OW33247   1.154   1.218   5.005 -0.2406 -0.2364 -0.0796
10609SOL    HW133248   1.089   1.173   5.058  1.0942 -1.3251  0.6933
10609SOL    HW233249   1.143   1.311   5.029 -2.5689 -0.1560 -1.2091
10610SOL     OW33250   9.141   6.318   1.269  0.1318  0.8406  0.1767
10610SOL    HW133251   9.054   6.327   1.308 -0.2872  1.0230 -0.7727
10610SOL    HW233252   9.124   6.289   1.180  0.9664  2.4443 -0.5287
10611SOL     OW33253   7.562   7.587   8.388 -0.0032 -0.0673 -0.0253
10611SOL    HW133254   7.471   7.613   8.403 -0.1080 -0.5645  0.1951
10611SOL    HW233255   7.582   7.526   8.459  0.8612  0.8974  0.5856
10612SOL     OW33256   6.253   5.041   5.310 -0.0965 -0.0145 -0.4411
10612SOL    HW133257   6.186   5.037   5.242  0.6255 -0.0856 -1.1601
10612SOL    HW233258   6.250   5.131   5.342 -0.7766 -0.1141 -0.2175
10613SOL     OW33259   1.182   5.738   2.585  0.3897 -0.2879  0.1662
10613SOL    HW133260   1.169   5.645   2.603  0.5611 -0.9465 -2.6556
10613SOL    HW233261   1.117   5.759   2.519 -0.9486  2.1882  2.0943
10614SOL     OW33262   1.833   0.017   1.770 -0.1544  0.7984 -0.0461
10614SOL    HW133263   1.872  -0.054   1.821  0.9454  1.5424  0.1768
10614SOL    HW233264   1.782  -0.028   1.702  1.7116 -0.2267 -0.8373
10615SOL     OW33265   4.258   3.789   3.978 -0.0875 -0.2675 -0.2493
10615SOL    HW133266   4.267   3.758   4.068 -0.8973  0.7466  0.2083
10615SOL    HW233267   4.243   3.710   3.927  2.5895 -1.1086  0.1412
10616SOL     OW33268   3.039   6.679   1.632 -0.3934  0.1320 -0.7183
10616SOL    HW133269   2.951   6.711   1.610 -0.7828 -0.0933  0.4774
10616SOL    HW233270   3.090   6.759   1.647 -0.3900  0.2626 -1.3898
10617SOL     OW33271   3.638   8.164   2.822 -0.3242  0.1137  0.4301
10617SOL    HW133272   3.569   8.097   2.820  0.5090 -0.8948  2.4195
10617SOL    HW233273   3.711   8.124   2.774 -0.5829  0.5618 -0.3574
10618SOL     OW33274   6.230   9.077   4.784  0.1329  0.3007 -0.3811
10618SOL    HW133275   6.146   9.059   4.742 -0.8567 -0.5839  1.8333
10618SOL    HW233276   6.292   9.019   4.740 -0.6874 -0.0259 -1.1301
10619SOL     OW33277   3.143   4.496   8.320  0.1713  0.3469  0.3586
10619SOL    HW133278   3.238   4.504   8.311  0.3420 -1.7767 -0.1919
10619SOL    HW233279   3.131   4.435   8.392 -0.7786  0.3465  0.2071
10620SOL     OW33280   5.027   5.581   5.131 -0.1501  0.8205 -0.4002
10620SOL    HW133281   4.943   5.590   5.086 -0.9077 -0.1993  0.7350
10620SOL    HW233282   5.029   5.489   5.159  1.2968  0.8616 -0.3008
10621SOL     OW33283   3.469   2.569   1.925  0.1465 -0.2130  0.6043
10621SOL    HW133284   3.409   2.644   1.924 -0.2683 -0.5421 -0.1073
10621SOL    HW233285   3.488   2.552   1.832  2.1854  0.5419  0.8274
10622SOL     OW33286   3.867   7.128   7.399  0.2151  0.3244 -0.8380
10622SOL    HW133287   3.958   7.141   7.425  0.6119 -2.6247 -0.4050
10622SOL    HW233288   3.824   7.094   7.478 -1.0924  0.9334 -1.2574
10623SOL     OW33289   5.276   4.907   0.641 -0.3171  0.4700 -0.1370
10623SOL    HW133290   5.183   4.905   0.620 -0.8155  1.0760  1.8157
10623SOL    HW233291   5.300   4.999   0.634 -0.3911  0.6261  1.3402
10624SOL     OW33292   2.315   0.017   1.184 -0.2998 -0.2254  0.9713
10624SOL    HW133293   2.265   0.077   1.129  0.3675  0.9992  1.6793
10624SOL    HW233294   2.264   0.012   1.266 -0.9926 -1.6007  0.4925
10625SOL     OW33295   6.267   5.408   1.813 -0.8368 -0.9164  0.0499
10625SOL    HW133296   6.347   5.446   1.851 -0.2541 -1.4468 -0.6132
10625SOL    HW233297   6.276   5.423   1.719 -3.0299  1.8434  0.1701
10626SOL     OW33298   3.927   9.079   2.159 -0.3055 -0.3067  0.0787
10626SOL    HW133299   3.897   8.992   2.183 -4.8304  0.8979 -0.3864
10626SOL    HW233300   3.847   9.131   2.151  2.1659  4.0354  0.6657
10627SOL     OW33301   7.796   4.782   5.702 -0.4055 -0.5714 -0.1960
10627SOL    HW133302   7.830   4.692   5.694 -0.5812 -0.6535  0.0010
10627SOL    HW233303   7.759   4.801   5.616  0.3420 -0.4004 -0.4894
10628SOL     OW33304   3.675   7.538   7.922 -0.1034 -0.4011 -0.2718
10628SOL    HW133305   3.700   7.479   7.851 -0.1236 -0.6760 -0.0518
10628SOL    HW233306   3.731   7.514   7.996  0.3152  0.2616 -0.3612
10629SOL     OW33307   7.542   8.080   5.249  0.6175  0.0758  0.4158
10629SOL    HW133308   7.480   8.009   5.234  0.9844 -0.1044 -0.2990
10629SOL    HW233309   7.494   8.160   5.225  0.7487 -0.0906 -0.4536
10630SOL     OW33310   4.205   8.723   0.522 -0.4543  0.1444 -0.6499
10630SOL    HW133311   4.241   8.811   0.516  0.0430 -0.0670 -0.8748
10630SOL    HW233312   4.214   8.687   0.434  0.7160 -0.6383 -0.2367
10631SOL     OW33313   4.505   4.004   6.852 -0.0806 -0.2644  0.1638
10631SOL    HW133314   4.516   3.927   6.908  0.6475  0.6314  1.3199
10631SOL    HW233315   4.538   3.977   6.767 -1.0010 -1.5998  0.2092
10632SOL     OW33316   4.041   6.132   9.096 -0.7069  0.1570  0.1516
10632SOL    HW133317   4.077   6.051   9.059  0.1454  0.0338  1.2060
10632SOL    HW233318   4.097   6.151   9.170 -1.7525  0.9629  0.7616
10633SOL     OW33319   2.016   4.261   1.905 -0.2564 -0.0161 -0.3600
10633SOL    HW133320   2.021   4.337   1.847  0.2343 -0.3513 -0.7643
10633SOL    HW233321   1.942   4.279   1.962 -0.7448  0.3262 -1.0898
10634SOL     OW33322   4.668   4.037   2.020 -0.0589  0.0118 -0.0483
10634SOL    HW133323   4.582   4.075   2.035 -0.2034 -1.2072  2.9556
10634SOL    HW233324   4.659   3.945   2.045  2.1050 -0.1131  0.5336
10635SOL     OW33325   9.237   2.201   8.207  0.6735  0.3455  0.4538
10635SOL    HW133326   9.296   2.246   8.146  3.1899 -1.9593  0.9929
10635SOL    HW233327   9.271   2.221   8.294  0.1445 -0.3347  0.8357
10636SOL     OW33328   5.995   0.430   7.118 -0.0893  0.6721  0.1746
10636SOL    HW133329   5.971   0.362   7.181 -0.6463  1.1208  0.4583
10636SOL    HW233330   5.955   0.510   7.152  2.0190  1.5383  0.8277
10637SOL     OW33331   5.168   8.000   2.012 -0.2309 -0.2211  0.2617
10637SOL    HW133332   5.175   7.927   2.075 -0.7203 -0.0407  0.5365
10637SOL    HW233333   5.180   7.959   1.927 -0.0006 -0.5451  0.4461
10638SOL     OW33334   7.428   2.602   5.857  0.2980  0.5824 -0.1957
10638SOL    HW133335   7.468   2.681   5.893  1.2895 -0.6047  1.4100
10638SOL    HW233336   7.338   2.603   5.891  0.5193  0.6806  0.3984
10639SOL     OW33337   8.872   5.318   4.960 -0.0633 -0.4829 -0.0818
10639SOL    HW133338   8.836   5.355   4.880 -1.9019 -2.9140 -0.4614
10639SOL    HW233339   8.911   5.235   4.934  1.2466 -0.3400  1.2366
10640SOL     OW33340   8.338   3.222   7.130 -0.2020  0.0367 -0.0466
10640SOL    HW133341   8.247   3.194   7.121 -0.1910  0.1478 -0.5620
10640SOL    HW233342   8.339   3.311   7.095  0.2017 -0.1572 -0.5573
10641SOL     OW33343   9.118   4.362   1.654  0.8494  0.2190 -0.2690
10641SOL    HW133344   9.081   4.446   1.625  1.8836  0.8440  0.1493
10641SOL    HW233345   9.168   4.384   1.733 -1.4562 -1.3397  1.7801
10642SOL     OW33346   7.013   3.143   5.909  0.4205  0.4213 -0.2127
10642SOL    HW133347   7.081   3.077   5.911  1.0272  1.0275  1.3760
10642SOL    HW233348   6.978   3.144   5.999 -1.0976  0.7103 -0.7730
10643SOL     OW33349   0.192   4.203   7.716 -0.7164 -0.3836 -0.1825
10643SOL    HW133350   0.200   4.138   7.646 -0.1756  1.7347 -2.2008
10643SOL    HW233351   0.282   4.229   7.736 -0.9104 -0.4236  0.7866
10644SOL     OW33352   1.859   3.226   5.833 -0.1842  0.1000  0.6281
10644SOL    HW133353   1.770   3.201   5.854  0.2012 -1.8213  0.1807
10644SOL    HW233354   1.879   3.178   5.753  1.1869  0.6601  0.6025
10645SOL     OW33355   5.494   9.223   3.459  0.0262 -0.0479 -0.3997
10645SOL    HW133356   5.544   9.214   3.378 -1.6334  0.0906 -1.4921
10645SOL    HW233357   5.407   9.187   3.437 -1.2889  2.3979  0.4929
10646SOL     OW33358   0.942   2.541   2.862  0.5663 -0.0763 -0.2232
10646SOL    HW133359   0.934   2.630   2.897 -1.1234 -0.5499  0.7201
10646SOL    HW233360   1.024   2.542   2.813  0.7497  1.9036  0.0307
10647SOL     OW33361   2.394   3.239   6.818  0.1656  0.7296 -0.2506
10647SOL    HW133362   2.397   3.168   6.883  0.5927 -0.4794 -1.5487
10647SOL    HW233363   2.307   3.277   6.829  0.1957  0.4832  0.9638
10648SOL     OW33364   9.190   1.999   7.091  0.3624  0.1615 -0.3230
10648SOL    HW133365   9.122   2.019   7.156 -0.2662 -0.6151 -0.7214
10648SOL    HW233366   9.187   1.904   7.082  1.1622  0.1705 -0.7231
10649SOL     OW33367   0.136   1.809   0.206  0.0159  0.1038  0.0185
10649SOL    HW133368   0.055   1.849   0.174 -1.3861 -2.0725  0.6808
10649SOL    HW233369   0.160   1.862   0.282 -0.9561  0.5656  0.0194
10650SOL     OW33370   6.834   8.426   6.599  0.6567 -0.0007 -0.0035
10650SOL    HW133371   6.780   8.443   6.676  1.4419  1.2670  0.2970
10650SOL    HW233372   6.886   8.350   6.623  0.5266  0.0735  0.5299
10651SOL     OW33373   2.893   2.158   9.169 -0.1741  0.0766 -0.3638
10651SOL    HW133374   2.906   2.103   9.246  0.7837  1.2839  0.3663
10651SOL    HW233375   2.938   2.112   9.098  2.2142  0.7656  0.6326
10652SOL     OW33376   2.066   9.151   0.745  0.0475  0.1517  0.1961
10652SOL    HW133377   2.083   9.087   0.813  1.5719  0.1415 -0.1585
10652SOL    HW233378   2.019   9.102   0.677 -1.2755  0.1105  1.1089
10653SOL     OW33379   5.512   2.750   5.541 -0.5023  0.1266 -0.0438
10653SOL    HW133380   5.532   2.771   5.633  0.4571  0.4319 -0.3154
10653SOL    HW233381   5.559   2.816   5.490  0.0725 -0.8290 -0.7995
10654SOL     OW33382   2.660   5.241   6.937  0.6407 -0.1703  0.0200
10654SOL    HW133383   2.609   5.307   6.891  0.7881 -0.4432 -0.5494
10654SOL    HW233384   2.750   5.255   6.907  0.7695 -0.2226  0.3799
10655SOL     OW33385   7.867   7.990   5.214 -0.6435  0.4349 -0.0419
10655SOL    HW133386   7.905   7.943   5.289 -1.0694 -0.8415 -0.5951
10655SOL    HW233387   7.833   8.071   5.252  1.3391  0.9968  0.7111
10656SOL     OW33388   4.519   3.899   0.776 -0.3860 -0.5193 -0.0198
10656SOL    HW133389   4.482   3.811   0.769 -1.0696 -0.2311 -0.1040
10656SOL    HW233390   4.444   3.955   0.798  0.1786 -0.0667  0.7870
10657SOL     OW33391   1.158   8.716   2.592  0.3353 -0.6430 -0.3401
10657SOL    HW133392   1.158   8.654   2.665  0.5620  0.7840  0.9221
10657SOL    HW233393   1.129   8.799   2.631 -4.0417 -0.7627 -2.7324
10658SOL     OW33394   5.838   3.692   3.413 -0.2680  0.6833 -0.4121
10658SOL    HW133395   5.876   3.712   3.327 -0.4591  0.8300 -0.4633
10658SOL    HW233396   5.743   3.688   3.397 -0.2142 -0.6224 -0.4754
10659SOL     OW33397   4.903   2.886   5.026  0.4386 -0.0301  0.7134
10659SOL    HW133398   4.940   2.919   5.108  0.0068 -1.0603  1.3391
10659SOL    HW233399   4.917   2.792   5.030 -0.4785 -0.2063  0.0553
10660SOL     OW33400   6.600   2.620   1.703 -0.2493  0.3985  0.2563
10660SOL    HW133401   6.632   2.623   1.793 -1.4168 -1.7717  0.8026
10660SOL    HW233402   6.603   2.528   1.679 -1.4834  0.7235 -1.3614
10661SOL     OW33403   7.426   2.195   8.791  0.0959  0.0274  0.2662
10661SOL    HW133404   7.473   2.205   8.874 -1.1234  0.5909  0.9133
10661SOL    HW233405   7.380   2.278   8.780 -2.0800 -1.0791  0.5341
10662SOL     OW33406   7.796   3.141   6.035  0.1622  0.3540 -0.3659
10662SOL    HW133407   7.744   3.091   6.098  1.0336  0.0870  0.1657
10662SOL    HW233408   7.814   3.224   6.079  1.4885 -0.1592  0.1139
10663SOL     OW33409   6.695   5.503   8.870  0.3745 -0.3601  0.3203
10663SOL    HW133410   6.620   5.490   8.929 -1.6241 -1.0475 -2.2072
10663SOL    HW233411   6.680   5.589   8.832  1.1616 -0.2993  0.1402
10664SOL     OW33412   5.746   2.532   2.012  0.0633  0.9059  0.2220
10664SOL    HW133413   5.795   2.454   2.040 -0.9251  0.2005  0.0402
10664SOL    HW233414   5.781   2.603   2.066  2.5856  0.8310 -1.1306
10665SOL     OW33415   5.579   8.190   7.346  0.1834  0.7822  0.0509
10665SOL    HW133416   5.514   8.248   7.384  0.3122  0.7457  0.3289
10665SOL    HW233417   5.604   8.131   7.417  0.2051  0.5198 -0.1703
10666SOL     OW33418   1.331   8.071   2.856 -0.7724 -0.1128  0.7774
10666SOL    HW133419   1.385   8.015   2.799 -0.1692  0.3404  0.8898
10666SOL    HW233420   1.279   8.009   2.907 -0.1434 -0.5804  0.8735
10667SOL     OW33421   1.532   4.401   3.085  0.7422  0.3337  0.2819
10667SOL    HW133422   1.602   4.365   3.139  0.6825  1.2782  1.0011
10667SOL    HW233423   1.517   4.334   3.018  0.8856 -0.8108  1.3594
10668SOL     OW33424   5.225   4.586   8.736 -0.0399 -0.3875  0.1406
10668SOL    HW133425   5.205   4.530   8.811  0.2827  0.2190  0.6921
10668SOL    HW233426   5.267   4.663   8.774 -0.3322  0.1605 -0.6175
10669SOL     OW33427   0.638   5.329   8.382  0.4851  0.3124 -0.4422
10669SOL    HW133428   0.574   5.258   8.388  0.1850  0.6533  0.9613
10669SOL    HW233429   0.671   5.325   8.292 -0.5853 -0.6673 -0.8170
10670SOL     OW33430   2.103   0.276   2.545  0.3845  0.2169  0.2778
10670SOL    HW133431   2.065   0.189   2.554 -0.5597  0.7222  1.3244
10670SOL    HW233432   2.043   0.322   2.487  0.2553  0.5263  0.6550
10671SOL     OW33433   8.078   2.719   6.109 -0.0833 -0.0837  0.5952
10671SOL    HW133434   8.077   2.814   6.098  1.0631 -0.2559 -1.3400
10671SOL    HW233435   8.106   2.685   6.024 -0.6642 -2.1754  1.1868
10672SOL     OW33436   8.072   3.349   0.581 -0.2202 -0.2149  0.0067
10672SOL    HW133437   8.013   3.408   0.534  3.8363  4.0548 -0.5146
10672SOL    HW233438   8.059   3.370   0.673 -0.9603 -0.9249  0.0757
10673SOL     OW33439   2.781   4.591   2.580 -0.1544 -0.2379 -0.0967
10673SOL    HW133440   2.865   4.637   2.574 -0.4647  0.2433 -0.8738
10673SOL    HW233441   2.787   4.542   2.662 -0.1096  1.7966  1.1985
10674SOL     OW33442   0.760   9.065   6.521  0.2430 -0.2867 -0.3171
10674SOL    HW133443   0.726   9.009   6.591 -0.8505 -0.5918 -1.0537
10674SOL    HW233444   0.750   9.011   6.442  2.0709 -0.2091 -0.6371
10675SOL     OW33445   6.053   1.330   9.270 -0.1758 -0.2940  0.1089
10675SOL    HW133446   5.960   1.341   9.247 -0.1822 -1.7040 -0.6475
10675SOL    HW233447   6.053   1.264   9.338  0.3264 -1.0426 -0.5940
10676SOL     OW33448   6.684   6.173   6.844 -0.0371 -0.7782  0.5786
10676SOL    HW133449   6.732   6.111   6.789  0.8251  0.7628 -0.5114
10676SOL    HW233450   6.729   6.170   6.929  1.4919 -0.0259 -0.1543
10677SOL     OW33451   5.866   4.509   9.193  0.3319  0.5158 -0.4239
10677SOL    HW133452   5.957   4.536   9.209  0.7863 -1.5421  0.8450
10677SOL    HW233453   5.873   4.427   9.145 -0.8653  0.4250 -0.4655
10678SOL     OW33454   2.276   4.543   7.711  0.0947  0.5211  0.0563
10678SOL    HW133455   2.236   4.590   7.784 -0.5113 -0.1517  0.1721
10678SOL    HW233456   2.369   4.563   7.718  0.4187 -1.3144  2.4145
10679SOL     OW33457   6.815   6.633   5.143  0.7143 -0.0956 -0.3123
10679SOL    HW133458   6.796   6.646   5.236  0.8288 -1.2682 -0.1160
10679SOL    HW233459   6.870   6.555   5.140  1.8494  0.6998 -1.2629
10680SOL     OW33460   8.813   8.884   5.594  0.3571  0.4891 -0.1003
10680SOL    HW133461   8.824   8.820   5.665 -1.4234 -1.3644 -1.3454
10680SOL    HW233462   8.735   8.853   5.547  0.5064  2.5896 -1.8776
10681SOL     OW33463   0.270   8.981   4.935 -0.2418 -0.3850  0.3042
10681SOL    HW133464   0.303   8.892   4.922  0.8777 -0.7579  4.3362
10681SOL    HW233465   0.335   9.037   4.894  0.8245 -1.3596  0.6210
10682SOL     OW33466   5.668   7.458   5.583 -0.5389 -0.4633 -0.2766
10682SOL    HW133467   5.732   7.449   5.513  0.5451  0.0696  0.6243
10682SOL    HW233468   5.583   7.452   5.538  0.0837 -2.5688 -1.3148
10683SOL     OW33469   2.352   5.145   1.944 -0.1493  0.6367 -0.0930
10683SOL    HW133470   2.279   5.134   2.005  0.6670 -2.8236  0.4492
10683SOL    HW233471   2.310   5.161   1.859 -1.5982 -1.2441  0.2098
10684SOL     OW33472   6.620   3.287   0.287  0.3991 -0.3632 -0.3341
10684SOL    HW133473   6.587   3.315   0.373  1.5858 -0.4384  0.1574
10684SOL    HW233474   6.657   3.366   0.249  3.4677 -1.0336  0.9228
10685SOL     OW33475   6.421   4.151   2.242  0.3887 -0.0075  0.0387
10685SOL    HW133476   6.363   4.112   2.307 -1.1459  0.4431 -1.0138
10685SOL    HW233477   6.504   4.105   2.253 -0.5717 -1.6748  0.6484
10686SOL     OW33478   4.586   4.773   0.320 -0.3253  0.5937 -0.1731
10686SOL    HW133479   4.612   4.749   0.231 -0.9313 -2.2132  0.3124
10686SOL    HW233480   4.515   4.713   0.341  1.8720 -1.1138  3.3084
10687SOL     OW33481   1.260   8.232   8.923  0.5718 -0.2034 -0.3897
10687SOL    HW133482   1.288   8.259   9.011  0.2732 -1.0437 -0.0330
10687SOL    HW233483   1.193   8.166   8.937 -0.4910  0.6555 -1.2594
10688SOL     OW33484   2.384   0.734   5.120  0.0439  0.2112 -0.2664
10688SOL    HW133485   2.295   0.701   5.136 -0.6205  2.2094  0.5520
10688SOL    HW233486   2.402   0.711   5.029 -0.3029 -2.3322  0.2268
10689SOL     OW33487   2.617   6.868   0.464 -0.1041  0.0577 -0.0308
10689SOL    HW133488   2.593   6.956   0.435  0.7411 -0.1163 -1.3258
10689SOL    HW233489   2.535   6.820   0.465 -0.3886  0.5261 -0.5415
10690SOL     OW33490   3.701   5.318   3.090  0.2080 -0.2597  0.2579
10690SOL    HW133491   3.728   5.248   3.149 -0.8620 -1.2490 -0.4011
10690SOL    HW233492   3.779   5.335   3.036 -0.2494 -2.8419 -1.3941
10691SOL     OW33493   8.118   7.201   7.127 -0.4688  0.5718  0.0305
10691SOL    HW133494   8.042   7.248   7.094 -0.7564  0.7914  0.9658
10691SOL    HW233495   8.192   7.235   7.077 -0.7579  1.5684  0.2705
10692SOL     OW33496   0.354   2.381   5.701 -0.2373 -0.2576  0.1252
10692SOL    HW133497   0.285   2.375   5.636 -0.1187 -0.0173 -0.0251
10692SOL    HW233498   0.308   2.383   5.785 -0.4769  1.0890 -0.0243
10693SOL     OW33499   7.345   5.157   7.500 -0.2325  0.6162  0.2021
10693SOL    HW133500   7.253   5.166   7.474 -0.1012 -1.7889 -1.4836
10693SOL    HW233501   7.393   5.164   7.417  1.0287  0.8275  0.9285
10694SOL     OW33502   4.450   2.382   8.808  0.4182  0.6094 -0.0232
10694SOL    HW133503   4.521   2.328   8.842  0.7809  0.8945 -0.3137
10694SOL    HW233504   4.495   2.455   8.764 -0.0570  0.8901 -0.0454
10695SOL     OW33505   7.187   3.332   8.678 -0.6280 -0.0818  0.3540
10695SOL    HW133506   7.206   3.423   8.701 -4.1547  0.6010  1.1310
10695SOL    HW233507   7.119   3.305   8.740  0.5897 -3.4396  0.4135
10696SOL     OW33508   3.331   4.040   6.198 -0.1484  0.0594  0.2526
10696SOL    HW133509   3.324   3.972   6.131 -1.2964 -0.8787  1.2981
10696SOL    HW233510   3.420   4.030   6.232 -0.3938 -1.1208  0.5910
10697SOL     OW33511   3.272   4.109   5.609 -0.0735  0.3845  0.5418
10697SOL    HW133512   3.228   4.163   5.542 -0.3350 -2.3127 -1.6169
10697SOL    HW233513   3.363   4.105   5.581  0.3502  1.1057  1.7179
10698SOL     OW33514   8.371   5.048   8.969 -0.1566 -0.3673  0.2018
10698SOL    HW133515   8.322   4.974   8.931  0.1876 -0.8994  0.7720
10698SOL    HW233516   8.311   5.085   9.033 -1.3722  1.5357 -1.8878
10699SOL     OW33517   8.153   2.100   2.500  0.2228 -0.1899  0.3642
10699SOL    HW133518   8.214   2.060   2.439  0.4768 -1.0944  1.1803
10699SOL    HW233519   8.203   2.171   2.541  0.0841  0.3505 -0.3805
10700SOL     OW33520   6.537   5.309   5.428 -0.0495  0.0122 -0.4153
10700SOL    HW133521   6.551   5.384   5.369  0.2319  0.4438  0.1856
10700SOL    HW233522   6.593   5.328   5.503  0.1945 -0.9170 -0.3478
10701SOL     OW33523   4.561   4.981   7.730 -0.0044 -0.2797  0.2282
10701SOL    HW133524   4.656   4.976   7.741 -0.0554  0.7109  1.2938
10701SOL    HW233525   4.548   4.991   7.636  1.0286  0.8792  0.1868
10702SOL     OW33526   3.304   2.509   0.883 -0.3233  0.2124  0.3655
10702SOL    HW133527   3.281   2.444   0.816 -1.1047  1.3879 -0.5568
10702SOL    HW233528   3.333   2.457   0.958  2.1492 -1.1529 -1.3828
10703SOL     OW33529   6.874   7.627   0.199  0.3047 -0.3006  0.4108
10703SOL    HW133530   6.910   7.658   0.282 -0.4620 -0.5207  0.8347
10703SOL    HW233531   6.947   7.632   0.138  0.8767 -0.1322  1.0970
10704SOL     OW33532   4.689   2.637   9.270  0.3421  0.1053  0.4537
10704SOL    HW133533   4.694   2.613   9.178  0.7902 -0.4534  0.6133
10704SOL    HW233534   4.745   2.573   9.314 -1.7370 -1.1465  1.4054
10705SOL     OW33535   3.340   7.963   9.127  0.1948 -0.3413 -0.4542
10705SOL    HW133536   3.343   8.051   9.164  1.5369  0.0931 -1.5063
10705SOL    HW233537   3.279   7.915   9.183  0.6789  0.8037  1.1055
10706SOL     OW33538   6.422   0.160   4.489 -0.7005 -0.0241  0.1363
10706SOL    HW133539   6.334   0.193   4.506 -2.2907 -3.2520 -0.9159
10706SOL    HW233540   6.431   0.085   4.549  1.5945  0.5897  0.6320
10707SOL     OW33541   7.599   0.261   2.128  0.1302 -0.5402 -0.4113
10707SOL    HW133542   7.681   0.306   2.149  0.1372 -1.5580  2.0418
10707SOL    HW233543   7.548   0.326   2.080  0.7594  1.5817  1.5960
10708SOL     OW33544   0.212   0.881   6.838  0.5440  0.2361 -0.4397
10708SOL    HW133545   0.142   0.822   6.866  1.2948 -0.7351 -0.5489
10708SOL    HW233546   0.198   0.892   6.743 -0.6175  1.6606 -0.1452
10709SOL     OW33547   0.957   5.497   7.398 -0.3151  0.2128  0.1203
10709SOL    HW133548   1.027   5.545   7.440  0.2534 -1.7852  1.6379
10709SOL    HW233549   0.994   5.467   7.315  0.1421  0.3783  0.2634
10710SOL     OW33550   0.305   4.810   6.178  0.3969  0.1505  0.6401
10710SOL    HW133551   0.374   4.868   6.144  2.3528 -1.0909  2.2505
10710SOL    HW233552   0.339   4.722   6.165 -1.5594 -0.6063  0.2464
10711SOL     OW33553   2.613   8.943   8.425  0.1608  0.4949  0.3192
10711SOL    HW133554   2.538   8.884   8.410  0.0434  0.4397  1.0952
10711SOL    HW233555   2.642   8.966   8.337  0.3929 -0.9481 -0.0197
10712SOL     OW33556   0.117   7.533   1.166  0.1260  0.7624 -0.4671
10712SOL    HW133557   0.104   7.444   1.197  0.3614  0.6573 -0.6682
10712SOL    HW233558   0.089   7.532   1.075  1.1672  0.6178 -0.8023
10713SOL     OW33559   5.419   1.567   7.664 -0.2391  0.3230 -0.4036
10713SOL    HW133560   5.463   1.639   7.619  1.5586  1.4404  2.8354
10713SOL    HW233561   5.472   1.490   7.643  2.4210  1.3449  1.9685
10714SOL     OW33562   7.386   8.774   0.542 -0.2580 -0.2061 -0.0521
10714SOL    HW133563   7.406   8.851   0.594  1.0221 -0.9788  0.6504
10714SOL    HW233564   7.293   8.758   0.556 -0.2759  0.5391  0.7018
10715SOL     OW33565   3.817   7.730   5.873  0.0330 -0.1979 -0.0142
10715SOL    HW133566   3.852   7.724   5.962  0.7088  0.3420 -0.2373
10715SOL    HW233567   3.861   7.659   5.826  1.1310  0.7019 -0.3841
10716SOL     OW33568   0.789   5.125   4.362  0.6745  0.1425  0.0390
10716SOL    HW133569   0.792   5.037   4.325 -0.9351  0.5865 -1.2624
10716SOL    HW233570   0.877   5.160   4.351  0.9541 -0.7860 -0.7462
10717SOL     OW33571   4.820   6.462   2.164 -0.4278  0.1497 -0.0336
10717SOL    HW133572   4.890   6.415   2.119 -0.0543 -1.1443  1.8012
10717SOL    HW233573   4.739   6.422   2.130 -0.1658 -0.4800  0.0607
10718SOL     OW33574   8.076   2.698   8.979  0.1548  0.1587 -0.6906
10718SOL    HW133575   8.134   2.774   8.991 -0.0060 -0.1806  3.4985
10718SOL    HW233576   8.136   2.624   8.967  0.4813  0.3004  0.0365
10719SOL     OW33577   7.556   5.564   3.638  0.2576 -0.2055 -0.3833
10719SOL    HW133578   7.617   5.494   3.615  0.4044 -0.1116 -0.2850
10719SOL    HW233579   7.595   5.604   3.716  0.0474 -0.1728 -0.2952
10720SOL     OW33580   3.713   8.782   6.727 -0.2640  0.6661 -0.6554
10720SOL    HW133581   3.692   8.852   6.789 -0.0114  3.3067 -3.3228
10720SOL    HW233582   3.801   8.803   6.696  0.0327 -1.1677 -1.1317
10721SOL     OW33583   8.217   4.884   1.340 -0.8871  0.6277  0.0117
10721SOL    HW133584   8.308   4.912   1.332 -0.8592  0.5797  0.1500
10721SOL    HW233585   8.223   4.798   1.383 -0.9655  0.3693 -0.4853
10722SOL     OW33586   1.437   7.103   2.532 -0.2517 -0.5500 -0.2190
10722SOL    HW133587   1.359   7.057   2.564  0.1911 -1.0535  0.1471
10722SOL    HW233588   1.462   7.056   2.452 -1.3877  0.7377 -1.3940
10723SOL     OW33589   4.053   4.372   7.462 -0.0995  0.6856 -0.2084
10723SOL    HW133590   3.996   4.347   7.389  0.5444 -0.5636 -0.3185
10723SOL    HW233591   4.122   4.425   7.421  0.1374  0.1757 -0.4849
10724SOL     OW33592   8.212   4.885   3.015 -0.1539  0.1020  0.1312
10724SOL    HW133593   8.273   4.925   2.954 -0.1489 -0.1936 -0.0574
10724SOL    HW233594   8.265   4.821   3.064 -0.4836 -0.7611 -0.6093
10725SOL     OW33595   1.778   1.762   5.410 -0.4133 -0.0171  0.4985
10725SOL    HW133596   1.840   1.698   5.445  0.5989 -0.4536 -1.8928
10725SOL    HW233597   1.820   1.847   5.423  1.4714 -0.3840 -2.2752
10726SOL     OW33598   3.177   7.753   8.340 -0.0491 -0.7010 -0.3510
10726SOL    HW133599   3.125   7.714   8.410  0.5210 -0.3624  0.2737
10726SOL    HW233600   3.180   7.846   8.362 -0.2512 -0.5180 -1.0792
10727SOL     OW33601   5.049   4.727   7.075 -0.0245  0.3147 -0.4186
10727SOL    HW133602   5.049   4.811   7.120 -0.8272  0.3229 -0.4108
10727SOL    HW233603   5.130   4.726   7.025  0.1584  0.9419 -0.1457
10728SOL     OW33604   3.071   1.054   7.953 -0.3727  0.6564  0.9698
10728SOL    HW133605   3.156   1.075   7.915  0.1223 -0.0085  1.6632
10728SOL    HW233606   3.063   0.959   7.942 -1.5040  0.8420 -0.0173
10729SOL     OW33607   1.735   7.839   1.290 -0.4376 -0.3068 -0.0349
10729SOL    HW133608   1.649   7.819   1.251  0.4363 -0.5362 -1.9505
10729SOL    HW233609   1.756   7.762   1.343 -0.2236 -1.4913 -1.7595
10730SOL     OW33610   4.809   5.812   8.711 -0.3240 -0.1229  0.2052
10730SOL    HW133611   4.816   5.865   8.632  0.1621  1.4442  1.2395
10730SOL    HW233612   4.731   5.758   8.697 -1.0323  1.0904 -0.7869
10731SOL     OW33613   9.153   7.739   0.112 -0.1142 -0.2003 -0.6946
10731SOL    HW133614   9.185   7.652   0.089 -0.3726 -0.5524  0.2150
10731SOL    HW233615   9.226   7.781   0.157 -0.3633 -0.3891 -0.0976
10732SOL     OW33616   3.519   3.237   2.490  0.7113  0.5022 -0.2057
10732SOL    HW133617   3.530   3.198   2.577  0.6032 -0.2310 -0.5215
10732SOL    HW233618   3.481   3.324   2.508 -0.5499 -0.1539  0.4098
10733SOL     OW33619   8.768   1.885   1.413 -0.3886  0.2762 -0.3738
10733SOL    HW133620   8.747   1.818   1.348  1.8994  0.4294 -1.3781
10733SOL    HW233621   8.816   1.838   1.481  1.2256  0.8211 -1.0798
10734SOL     OW33622   1.414   6.954   6.026 -0.1535  0.0066 -0.1749
10734SOL    HW133623   1.394   6.860   6.021  0.4368 -0.0920 -0.9676
10734SOL    HW233624   1.328   6.996   6.034 -0.6092 -0.5061 -1.7994
10735SOL     OW33625   6.115   9.205   1.574  0.0187  0.0470  0.0127
10735SOL    HW133626   6.144   9.113   1.577  2.3508  0.5545 -2.3203
10735SOL    HW233627   6.118   9.227   1.481  0.8974  2.8760  0.6145
10736SOL     OW33628   8.701   3.387   6.301  0.0279 -0.4007 -0.3611
10736SOL    HW133629   8.671   3.390   6.210 -1.9564  1.9325  0.2592
10736SOL    HW233630   8.780   3.441   6.302 -0.9661  1.1334 -0.4578
10737SOL     OW33631   0.947   2.897   3.648  0.0531  0.1730 -0.7702
10737SOL    HW133632   0.915   2.822   3.598  0.6597 -1.0302  0.5593
10737SOL    HW233633   0.868   2.936   3.686 -0.0378 -2.6837  2.3757
10738SOL     OW33634   7.206   3.137   5.163  0.0097 -0.8628  0.2718
10738SOL    HW133635   7.214   3.152   5.069 -1.1108  0.2020  0.3225
10738SOL    HW233636   7.289   3.167   5.199  0.0305 -0.2502 -0.2716
10739SOL     OW33637   2.131   6.499   7.721  0.0381  0.1963  0.3696
10739SOL    HW133638   2.197   6.504   7.652 -0.6511  3.1374 -0.2063
10739SOL    HW233639   2.050   6.527   7.679 -0.9677 -0.4530  1.7876
10740SOL     OW33640   1.022   5.723   5.734  0.4629  0.0821  0.3560
10740SOL    HW133641   0.962   5.791   5.765  1.1058  1.4623 -1.2789
10740SOL    HW233642   0.966   5.659   5.691 -0.0189  0.2919  0.6575
10741SOL     OW33643   4.990   4.825   2.951  0.2505 -0.1672  0.0002
10741SOL    HW133644   5.076   4.834   2.992 -0.1300 -0.6914  0.9395
10741SOL    HW233645   4.931   4.872   3.009 -0.2731 -0.7665 -0.0449
10742SOL     OW33646   6.017   6.695   8.612  0.8041  0.5038  0.7686
10742SOL    HW133647   5.963   6.758   8.659 -0.9917  0.2638 -0.8383
10742SOL    HW233648   6.045   6.742   8.533 -0.7077 -0.6710 -0.5407
10743SOL     OW33649   0.574   1.044   1.176  0.3894  0.1194 -0.5751
10743SOL    HW133650   0.547   1.136   1.181  2.1069  0.6917 -1.1430
10743SOL    HW233651   0.657   1.041   1.224  0.5203 -1.0695 -0.8521
10744SOL     OW33652   9.228   3.196   6.684 -0.1676 -0.1137  0.2588
10744SOL    HW133653   9.243   3.103   6.699  1.8828 -0.0495 -1.0757
10744SOL    HW233654   9.141   3.200   6.643 -1.5359 -1.1161  2.8254
10745SOL     OW33655   1.509   1.972   3.551 -0.4665  0.0810 -0.0649
10745SOL    HW133656   1.508   2.031   3.475 -0.9940  0.4917  0.2562
10745SOL    HW233657   1.601   1.950   3.563 -0.3769 -0.0446 -0.8645
10746SOL     OW33658   1.183   4.213   2.062  0.4191 -0.3032 -0.3633
10746SOL    HW133659   1.196   4.171   1.977 -1.5637 -1.1726 -0.3104
10746SOL    HW233660   1.087   4.214   2.072  0.5294  1.7935  0.8716
10747SOL     OW33661   0.290   0.750   4.548 -0.1736 -0.4928 -0.0182
10747SOL    HW133662   0.225   0.680   4.558 -0.4106 -0.3311 -0.4165
10747SOL    HW233663   0.239   0.829   4.531  0.1297 -0.4242 -0.6717
10748SOL     OW33664   9.197   6.573   5.385 -0.9433 -0.1820  0.8576
10748SOL    HW133665   9.107   6.605   5.392 -1.4771 -1.5849  0.7409
10748SOL    HW233666   9.188   6.481   5.363  0.5502 -0.0714 -0.3986
10749SOL     OW33667   3.701   3.987   1.802 -0.4357  0.6654  0.6276
10749SOL    HW133668   3.730   3.965   1.890 -1.0034  2.0987  1.2185
10749SOL    HW233669   3.670   3.905   1.765  0.5902 -0.1152  1.4494
10750SOL     OW33670   3.223   8.429   5.361 -0.1723 -0.4481  0.7113
10750SOL    HW133671   3.298   8.454   5.415 -0.5641  0.4084  0.8706
10750SOL    HW233672   3.256   8.359   5.305  0.4132 -0.9059  1.6126
10751SOL     OW33673   2.965   0.832   7.777 -0.2865  0.0747 -0.1104
10751SOL    HW133674   2.979   0.818   7.871  0.0290 -0.0007 -0.1647
10751SOL    HW233675   3.054   0.844   7.742 -0.4508  0.8925 -0.2713
10752SOL     OW33676   1.157   7.011   1.660 -0.0176 -0.3301 -0.0165
10752SOL    HW133677   1.142   7.099   1.696 -1.6985 -0.5033 -0.2181
10752SOL    HW233678   1.252   7.005   1.650  0.2516  0.8952  1.4313
10753SOL     OW33679   6.802   1.288   7.392  0.3089 -0.4577 -0.4830
10753SOL    HW133680   6.836   1.282   7.302 -0.5795  0.2066 -0.8737
10753SOL    HW233681   6.707   1.294   7.382  0.2331  0.1977  0.4686
10754SOL     OW33682   8.471   5.000   4.010 -0.0671  0.0513 -0.0253
10754SOL    HW133683   8.481   5.072   4.072 -3.5573 -0.6896  1.6059
10754SOL    HW233684   8.505   4.923   4.057  1.1590  0.1173 -0.7412
10755SOL     OW33685   8.897   7.185   2.504  0.3867  0.0994 -0.0838
10755SOL    HW133686   8.989   7.203   2.519  0.5440  0.3348 -1.2604
10755SOL    HW233687   8.867   7.258   2.450 -0.2624 -0.4561 -0.4861
10756SOL     OW33688   4.962   4.500   2.277 -0.2416  0.3207  0.1035
10756SOL    HW133689   4.890   4.530   2.333 -0.7198 -1.2172  0.3676
10756SOL    HW233690   5.011   4.438   2.331  0.5636  0.4296 -0.4818
10757SOL     OW33691   8.279   3.755   0.230 -0.7126  0.4432  0.3758
10757SOL    HW133692   8.235   3.682   0.274 -0.8196 -0.2303 -0.8033
10757SOL    HW233693   8.338   3.791   0.296 -0.5898 -0.7784  0.9631
10758SOL     OW33694   5.993   1.964   0.250 -0.0182 -0.1867 -0.0052
10758SOL    HW133695   5.962   1.909   0.322  2.2047 -1.1753  0.3016
10758SOL    HW233696   5.997   1.904   0.175 -1.1310  0.5271 -0.6558
10759SOL     OW33697   5.908   7.763   6.017  0.4074  0.6656  1.1429
10759SOL    HW133698   5.864   7.745   5.934 -2.1136 -0.6485  2.6559
10759SOL    HW233699   5.949   7.849   6.004  0.3072  0.3914 -1.5048
10760SOL     OW33700   0.188   0.330   8.317 -0.4722 -0.5612 -0.4723
10760SOL    HW133701   0.133   0.261   8.354  0.5722 -0.5185  1.3056
10760SOL    HW233702   0.255   0.345   8.384 -0.1275  1.5366 -1.2155
10761SOL     OW33703   1.717   7.763   4.717 -0.0720  0.6829  0.0618
10761SOL    HW133704   1.676   7.840   4.678 -2.4531  0.0364  1.0767
10761SOL    HW233705   1.701   7.693   4.654  0.4642  0.6278 -0.0187
10762SOL     OW33706   2.371   5.086   3.027 -0.5504  0.1477  0.0820
10762SOL    HW133707   2.455   5.107   3.067 -0.5552 -1.3617  0.9795
10762SOL    HW233708   2.317   5.163   3.041  0.8217  1.3662 -1.0100
10763SOL     OW33709   8.654   6.836   3.640 -0.0296 -0.2399 -0.1602
10763SOL    HW133710   8.572   6.825   3.689  0.9500 -1.6503  1.2512
10763SOL    HW233711   8.647   6.775   3.567 -0.7850  0.6480 -0.8583
10764SOL     OW33712   8.609   4.846   4.901  0.1773 -0.0173 -0.2235
10764SOL    HW133713   8.598   4.903   4.825  0.1958 -0.3666 -0.4917
10764SOL    HW233714   8.535   4.786   4.898  1.1734 -1.2718 -1.0712
10765SOL     OW33715   1.975   2.248   0.431 -0.1905 -0.3212  0.0058
10765SOL    HW133716   1.938   2.334   0.414 -2.2030 -0.9639  0.8552
10765SOL    HW233717   2.018   2.223   0.349 -0.1826  1.1622 -0.4726
10766SOL     OW33718   0.885   1.481   5.961  0.6293 -0.5124  0.2532
10766SOL    HW133719   0.955   1.477   5.896  1.0602 -0.2896  0.7030
10766SOL    HW233720   0.838   1.398   5.951 -0.1111  0.0376 -1.2252
10767SOL     OW33721   3.793   8.902   0.222  0.2035 -0.0589  0.7417
10767SOL    HW133722   3.857   8.921   0.153 -1.4352 -0.3909 -0.9550
10767SOL    HW233723   3.771   8.988   0.258  0.7614  0.1695  0.5568
10768SOL     OW33724   4.420   2.873   0.961  0.6322  0.6551  0.2056
10768SOL    HW133725   4.342   2.925   0.941 -0.4503 -0.8018  0.4453
10768SOL    HW233726   4.414   2.856   1.055  1.5998  1.0599  0.3514
10769SOL     OW33727   7.460   1.378   2.680 -0.6214  0.9991 -0.4857
10769SOL    HW133728   7.428   1.296   2.716 -0.3657  1.0519 -0.1334
10769SOL    HW233729   7.541   1.396   2.729 -1.6753  2.4444  0.8292
10770SOL     OW33730   5.608   4.824   7.315 -0.2117 -0.6862  0.1358
10770SOL    HW133731   5.585   4.759   7.248  0.2783 -2.4974  1.6428
10770SOL    HW233732   5.704   4.826   7.314 -0.2092 -0.5110  0.5860
10771SOL     OW33733   7.898   3.045   3.815 -0.9450  0.0647  0.5990
10771SOL    HW133734   7.841   3.071   3.888  0.5939  2.1152  1.1611
10771SOL    HW233735   7.958   3.119   3.804  1.6029 -1.9418  0.0259
10772SOL     OW33736   4.110   0.451   2.552 -0.7974 -0.1471 -0.1934
10772SOL    HW133737   4.016   0.435   2.548 -1.2478  1.5580  1.6448
10772SOL    HW233738   4.118   0.537   2.593  1.5902 -1.1832  1.7951
10773SOL     OW33739   6.799   3.238   2.102 -0.7100  0.1848 -0.2918
10773SOL    HW133740   6.801   3.267   2.193 -3.9644 -0.7702  0.2262
10773SOL    HW233741   6.845   3.307   2.054  0.2060  1.2212  1.9271
10774SOL     OW33742   8.464   4.094   7.455 -0.3073 -0.3322  0.0427
10774SOL    HW133743   8.502   4.012   7.487 -0.3610  0.1635  1.4554
10774SOL    HW233744   8.435   4.139   7.534  0.5353  1.4547 -0.6059
10775SOL     OW33745   1.901   1.132   4.288 -0.4701  0.0208  0.8272
10775SOL    HW133746   1.888   1.037   4.279  0.4956  0.0660 -1.7827
10775SOL    HW233747   1.977   1.139   4.347 -1.5121 -0.7248  2.3298
10776SOL     OW33748   7.007   7.434   0.685 -0.5413 -0.6238  0.0601
10776SOL    HW133749   7.074   7.447   0.753 -0.3423  2.1572 -0.5452
10776SOL    HW233750   6.976   7.345   0.698  1.6948 -1.2243  1.8046
10777SOL     OW33751   2.701   5.560   2.246 -0.2189  0.1736 -0.1649
10777SOL    HW133752   2.705   5.638   2.302 -0.1160 -0.1726  0.3223
10777SOL    HW233753   2.662   5.591   2.164  0.0385  0.7867 -0.0647
10778SOL     OW33754   2.930   2.571   7.177 -0.4745  0.0819 -0.0030
10778SOL    HW133755   2.859   2.566   7.241 -0.7218  1.1806 -0.1659
10778SOL    HW233756   2.995   2.509   7.209 -0.8092  0.2400  1.0391
10779SOL     OW33757   6.780   1.355   0.866  0.2316  0.2694  0.5913
10779SOL    HW133758   6.747   1.269   0.891  2.2957 -0.2455  1.7910
10779SOL    HW233759   6.794   1.349   0.772 -1.0487 -0.1655  0.4051
10780SOL     OW33760   6.726   2.541   0.065 -0.1054  0.0090  0.0194
10780SOL    HW133761   6.812   2.520   0.103 -0.7264  0.2614  1.6716
10780SOL    HW233762   6.684   2.456   0.054  0.4863 -0.1451 -1.1735
10781SOL     OW33763   2.998   9.222   5.059  0.1149  0.0539  0.2995
10781SOL    HW133764   2.951   9.184   4.986  0.4750 -0.5947  0.3932
10781SOL    HW233765   2.964   9.176   5.136  0.1396  0.3298  0.4767
10782SOL     OW33766   8.813   8.017   1.060  0.0633 -0.0337 -0.2585
10782SOL    HW133767   8.877   8.004   0.990 -1.6309 -1.4228 -1.6352
10782SOL    HW233768   8.773   8.101   1.040  0.4281  0.1403 -0.2588
10783SOL     OW33769   6.306   7.948   9.184  0.3589 -0.1544 -0.1699
10783SOL    HW133770   6.271   8.028   9.146  0.4091  0.5604  1.2489
10783SOL    HW233771   6.394   7.940   9.146  0.3695  0.4868 -0.2878
10784SOL     OW33772   8.628   8.571   6.988  0.1316 -0.1730 -0.0609
10784SOL    HW133773   8.540   8.539   6.969 -0.2979  0.8087  0.1941
10784SOL    HW233774   8.680   8.492   7.003 -0.9908 -0.7348  1.0368
10785SOL     OW33775   5.601   8.519   3.619  0.5578 -0.1710  0.0242
10785SOL    HW133776   5.679   8.562   3.653  0.1297 -0.4476  1.4146
10785SOL    HW233777   5.529   8.574   3.648  0.2447  0.6153 -2.0593
10786SOL     OW33778   5.981   5.070   2.151 -0.2131 -0.4300 -0.7771
10786SOL    HW133779   5.933   4.987   2.148 -2.0319  0.5650 -0.1225
10786SOL    HW233780   5.914   5.137   2.141  0.8582  1.0667  1.5254
10787SOL     OW33781   8.506   7.344   2.396  0.0103  0.4865 -0.5919
10787SOL    HW133782   8.476   7.256   2.421 -0.5335  1.3766  2.2459
10787SOL    HW233783   8.509   7.342   2.300 -0.4975 -2.4362 -0.6376
10788SOL     OW33784   7.309   7.206   3.738  0.4099  0.2788 -0.7719
10788SOL    HW133785   7.394   7.249   3.752  1.8983 -1.9467 -2.2858
10788SOL    HW233786   7.268   7.256   3.668  1.1339  0.5389 -1.0219
10789SOL     OW33787   8.318   3.182   4.950 -0.1046  0.5638  0.4714
10789SOL    HW133788   8.378   3.175   4.876 -0.6787  0.8834 -0.0381
10789SOL    HW233789   8.261   3.105   4.942  0.8560 -0.2796  1.5347
10790SOL     OW33790   0.362   2.607   3.233 -0.1453  0.0536  0.0421
10790SOL    HW133791   0.332   2.694   3.259 -0.3047  0.6357 -1.9037
10790SOL    HW233792   0.310   2.547   3.285  0.9359  1.0948  2.4469
10791SOL     OW33793   7.638   2.309   7.193  0.1968 -0.1191  0.2339
10791SOL    HW133794   7.725   2.331   7.227  0.2815  0.4360 -0.3114
10791SOL    HW233795   7.599   2.254   7.261  1.8317 -2.3382 -0.5040
10792SOL     OW33796   1.976   4.027   3.393 -0.3093 -0.2911 -0.3561
10792SOL    HW133797   1.951   3.944   3.353  0.5263 -0.7923  0.1308
10792SOL    HW233798   2.072   4.023   3.399 -0.3860 -0.2926  1.7449
10793SOL     OW33799   5.063   8.518   4.564 -0.2702 -0.5396 -0.4996
10793SOL    HW133800   5.101   8.495   4.649  2.2799  1.3365 -0.9975
10793SOL    HW233801   5.062   8.614   4.563  2.8084 -0.3408 -3.6692
10794SOL     OW33802   4.870   1.950   0.404 -0.2683 -0.2058 -0.0588
10794SOL    HW133803   4.880   2.045   0.407  1.6663 -0.3544 -0.2937
10794SOL    HW233804   4.786   1.933   0.445 -1.0137  1.6538 -0.7115
10795SOL     OW33805   1.618   1.010   8.454  0.1254 -0.4381  0.4430
10795SOL    HW133806   1.699   1.035   8.498  0.1687  0.8393 -0.3226
10795SOL    HW233807   1.562   1.087   8.460  0.1834 -0.1654 -1.8148
10796SOL     OW33808   2.718   5.252   3.792 -0.7348  0.1812 -0.2897
10796SOL    HW133809   2.737   5.254   3.698 -0.8412  3.9641 -0.3915
10796SOL    HW233810   2.801   5.230   3.833  0.2384  1.8720 -1.2367
10797SOL     OW33811   0.991   6.807   8.674 -0.0903  0.5564 -0.0960
10797SOL    HW133812   1.009   6.811   8.768  0.4406 -0.6320 -0.1284
10797SOL    HW233813   0.959   6.894   8.652  0.3179  1.0235  1.0745
10798SOL     OW33814   8.978   8.770   6.054 -0.0843 -0.3536  0.3545
10798SOL    HW133815   9.010   8.681   6.069 -0.6120 -0.7330 -0.6898
10798SOL    HW233816   9.044   8.811   5.999 -0.6850 -0.7010 -0.6656
10799SOL     OW33817   0.878   0.131   8.419  0.1646 -0.8786 -0.0866
10799SOL    HW133818   0.932   0.067   8.374 -0.9488 -1.5777 -0.4514
10799SOL    HW233819   0.844   0.084   8.496 -0.2924 -0.5904 -0.1088
10800SOL     OW33820   5.694   6.868   3.169  0.2449 -0.0374  0.1391
10800SOL    HW133821   5.780   6.835   3.195  0.8226  1.0668 -0.2890
10800SOL    HW233822   5.650   6.793   3.129  1.2503 -0.4590 -0.1977
10801SOL     OW33823   6.665   4.342   9.174  0.4851 -0.8321  0.1747
10801SOL    HW133824   6.653   4.315   9.265  1.9264  0.1788  0.7009
10801SOL    HW233825   6.578   4.367   9.145  0.0335 -1.0003  1.3332
10802SOL     OW33826   7.063   8.839   0.095  0.3236 -0.3250 -0.3760
10802SOL    HW133827   7.048   8.785   0.018 -2.0437 -2.4450  1.4025
10802SOL    HW233828   7.006   8.802   0.162  1.4838  2.0487  2.1333
10803SOL     OW33829   1.334   3.151   3.746  0.1901  0.0682 -0.0246
10803SOL    HW133830   1.351   3.237   3.786 -1.5376 -0.0379  1.0191
10803SOL    HW233831   1.321   3.170   3.653 -0.5091  1.0070  0.2491
10804SOL     OW33832   7.269   1.333   3.287 -0.3884  0.1777  0.5059
10804SOL    HW133833   7.204   1.378   3.233  1.6077  1.8742 -0.6383
10804SOL    HW233834   7.245   1.357   3.377 -2.4491 -0.8527  0.2759
10805SOL     OW33835   8.493   2.132   2.595  0.2433 -0.2159 -0.6592
10805SOL    HW133836   8.513   2.125   2.501 -0.5242  0.0283 -0.8438
10805SOL    HW233837   8.478   2.225   2.610  1.9397 -0.0225  0.0460
10806SOL     OW33838   6.455   8.159   3.434  0.0689  0.5032  0.1427
10806SOL    HW133839   6.369   8.200   3.433 -1.1020 -1.7158 -1.7154
10806SOL    HW233840   6.446   8.084   3.493  0.2510 -0.5262 -1.0830
10807SOL     OW33841   7.339   4.805   2.745 -0.8151 -0.3551  0.0588
10807SOL    HW133842   7.330   4.726   2.799 -1.2439 -0.3626 -0.0220
10807SOL    HW233843   7.429   4.801   2.712  0.7945  1.4766  3.6277
10808SOL     OW33844   5.969   3.072   6.852  0.8343 -0.1602  0.1360
10808SOL    HW133845   5.902   3.008   6.878  1.4936 -0.5169  0.9909
10808SOL    HW233846   5.949   3.091   6.760 -1.1871  0.6704  0.6815
10809SOL     OW33847   8.910   4.283   7.946  0.1801  0.3684 -0.6025
10809SOL    HW133848   8.850   4.313   8.015  1.2077  1.8552 -0.3122
10809SOL    HW233849   8.993   4.325   7.967  1.5670 -2.1644 -0.6070
10810SOL     OW33850   4.851   6.580   7.472 -0.0296 -0.1473 -0.1564
10810SOL    HW133851   4.915   6.545   7.533  0.3350  0.6183 -0.0951
10810SOL    HW233852   4.779   6.611   7.527  0.9266  1.8782  0.0242
10811SOL     OW33853   6.274   6.359   7.900  0.1601  0.4415 -0.5129
10811SOL    HW133854   6.304   6.425   7.963  0.1887 -0.6018  0.6112
10811SOL    HW233855   6.242   6.410   7.826  1.4990  1.6906 -0.3020
10812SOL     OW33856   7.236   4.235   6.978  0.1703  0.1031  0.6092
10812SOL    HW133857   7.291   4.165   6.943 -0.7756  0.2492 -1.3037
10812SOL    HW233858   7.196   4.198   7.056  0.3165 -1.2183  0.0738
10813SOL     OW33859   9.210   6.635   2.577  0.1924 -0.5845  0.1348
10813SOL    HW133860   9.196   6.617   2.484  0.4964 -0.8275  0.1361
10813SOL    HW233861   9.304   6.648   2.586 -0.0538  1.7238  0.0130
10814SOL     OW33862   3.832   4.387   4.814 -0.2827  0.1679  0.1806
10814SOL    HW133863   3.834   4.478   4.784  2.1651  0.3388  0.6414
10814SOL    HW233864   3.923   4.359   4.810 -1.0537 -2.4671 -0.4626
10815SOL     OW33865   8.594   4.227   7.759  0.5091 -0.4489 -0.2899
10815SOL    HW133866   8.582   4.178   7.840  1.6948 -0.1406  0.0928
10815SOL    HW233867   8.665   4.181   7.713  0.5721 -0.0010 -0.6511
10816SOL     OW33868   3.144   7.929   0.027 -0.5394 -0.0118 -0.2778
10816SOL    HW133869   3.096   7.953   0.105 -0.5648  0.6411 -0.4907
10816SOL    HW233870   3.098   7.974  -0.045 -1.4970 -1.8601 -0.8945
10817SOL     OW33871   4.689   9.147   6.584 -0.0297 -0.1343 -0.2383
10817SOL    HW133872   4.617   9.084   6.597  0.6837 -0.8926  0.1311
10817SOL    HW233873   4.763   9.109   6.631  1.1240 -0.2359 -2.0260
10818SOL     OW33874   5.777   6.942   5.990  0.0724  0.2150  0.0799
10818SOL    HW133875   5.804   6.936   6.081  0.7169 -0.7608 -0.1604
10818SOL    HW233876   5.794   6.855   5.954  1.0328  0.9350 -1.2932
10819SOL     OW33877   2.767   6.408   0.043 -0.2938 -0.2704  0.4229
10819SOL    HW133878   2.786   6.376  -0.046  0.0841 -0.1194  0.4463
10819SOL    HW233879   2.842   6.380   0.095  0.3946  1.2373  0.2936
10820SOL     OW33880   0.341   6.959   3.632  0.5912  0.5842 -0.0829
10820SOL    HW133881   0.387   7.039   3.657 -2.3060  0.9647  5.9365
10820SOL    HW233882   0.261   6.989   3.589  0.4963  0.8307  0.2581
10821SOL     OW33883   0.924   1.135   3.123 -0.4023  0.2935 -0.5917
10821SOL    HW133884   0.992   1.178   3.176 -1.1685  0.9896 -0.1452
10821SOL    HW233885   0.874   1.208   3.085 -1.0229 -0.2114 -0.7592
10822SOL     OW33886   1.772   5.572   9.180  0.0568 -0.2871 -0.0183
10822SOL    HW133887   1.772   5.667   9.187 -1.1757 -0.3390  0.9620
10822SOL    HW233888   1.743   5.541   9.266  2.3090 -1.6232  0.3433
10823SOL     OW33889   5.055   3.879   3.618 -0.1546  0.1262  0.8386
10823SOL    HW133890   5.110   3.952   3.589  1.3081 -1.2599 -0.0775
10823SOL    HW233891   4.966   3.905   3.595  0.1740  2.0828  1.5867
10824SOL     OW33892   1.677   5.712   7.134  0.2363  0.0694 -0.7419
10824SOL    HW133893   1.630   5.748   7.059  1.5802  0.8901 -1.2155
10824SOL    HW233894   1.709   5.627   7.103  1.0507  0.5408 -1.2165
10825SOL     OW33895   2.092   2.287   3.088 -0.3498 -0.5879  0.0889
10825SOL    HW133896   2.036   2.334   3.027 -1.6874 -1.7575  0.3718
10825SOL    HW233897   2.175   2.278   3.041  0.0636  2.1941  0.1310
10826SOL     OW33898   6.036   8.141   8.434  0.1220  0.6841  0.1256
10826SOL    HW133899   6.082   8.060   8.412 -0.6496  0.0897  0.6666
10826SOL    HW233900   6.058   8.157   8.526  0.7592  1.4318 -0.1408
10827SOL     OW33901   8.220   4.944   6.095 -0.4521  0.2105  0.0204
10827SOL    HW133902   8.269   5.027   6.100  2.0428 -0.9342 -2.3462
10827SOL    HW233903   8.256   4.891   6.166 -0.4597  0.4119  0.1765
10828SOL     OW33904   9.128   5.894   4.160  0.3972  0.4593  0.2497
10828SOL    HW133905   9.123   5.975   4.109  0.3991 -0.1476 -0.7422
10828SOL    HW233906   9.037   5.867   4.171  0.3001  1.2980  1.7758
10829SOL     OW33907   5.094   8.191   2.970  0.5032  0.2589  0.1056
10829SOL    HW133908   5.009   8.207   3.010  0.5675  3.2186 -0.6840
10829SOL    HW233909   5.105   8.262   2.907  2.9805 -0.8151 -0.8277
10830SOL     OW33910   7.746   4.644   1.032 -0.1591 -0.3166  0.2523
10830SOL    HW133911   7.758   4.617   0.941  0.2460  0.6073  0.0192
10830SOL    HW233912   7.833   4.672   1.060 -0.5740  0.8063  0.4567
10831SOL     OW33913   6.156   2.588   8.411  0.1823 -0.0477  0.0096
10831SOL    HW133914   6.199   2.503   8.424  1.3179  0.3247 -1.0686
10831SOL    HW233915   6.170   2.634   8.494 -0.2257 -0.8093  0.5162
10832SOL     OW33916   8.052   3.268   6.991  0.1814 -0.2476  0.6277
10832SOL    HW133917   7.980   3.219   6.950  0.2537 -0.2124  0.4553
10832SOL    HW233918   8.015   3.353   7.011  0.5639  0.2892 -0.7999
10833SOL     OW33919   4.399   1.422   2.303  0.1947 -0.0685 -0.1797
10833SOL    HW133920   4.397   1.374   2.220 -2.5711  0.0839 -0.2968
10833SOL    HW233921   4.491   1.449   2.313  1.3267 -3.0446 -1.4157
10834SOL     OW33922   4.241   7.470   0.553  0.3199  0.6745 -0.3167
10834SOL    HW133923   4.307   7.410   0.519 -0.1455  0.2199 -0.4244
10834SOL    HW233924   4.277   7.558   0.536  1.1003  0.4315  0.0347
10835SOL     OW33925   5.682   0.487   4.908 -0.2449 -0.0313 -0.3176
10835SOL    HW133926   5.700   0.473   4.815 -1.9786 -0.4987 -0.6255
10835SOL    HW233927   5.642   0.405   4.937 -0.9163  0.5689  0.5073
10836SOL     OW33928   3.232   1.477   0.235  0.1793  0.0585 -0.5540
10836SOL    HW133929   3.326   1.469   0.215  0.7246 -1.4406  2.0437
10836SOL    HW233930   3.199   1.388   0.229 -0.3636  0.0817  1.2833
10837SOL     OW33931   0.420   1.968   6.906 -0.4264 -0.1366  0.1998
10837SOL    HW133932   0.507   1.950   6.940 -0.0108 -0.0233 -0.7812
10837SOL    HW233933   0.373   1.885   6.914 -0.7712  0.1989  2.2281
10838SOL     OW33934   8.048   0.519   7.842  0.2772  0.3375 -0.3839
10838SOL    HW133935   8.076   0.428   7.844  2.6835  1.0209  1.4192
10838SOL    HW233936   8.084   0.553   7.760  0.9003  0.0892 -0.2171
10839SOL     OW33937   2.376   0.125   8.673 -0.1234  0.3921  0.0208
10839SOL    HW133938   2.347   0.037   8.651  0.8238  0.7622 -3.2523
10839SOL    HW233939   2.339   0.142   8.760 -0.9476 -2.8927  0.4246
10840SOL     OW33940   0.221   8.018   8.748  0.2141 -0.2285  0.0122
10840SOL    HW133941   0.136   8.064   8.747  0.2875 -0.0596  0.6884
10840SOL    HW233942   0.202   7.933   8.708 -0.5051 -0.5527  0.9807
10841SOL     OW33943   7.680   4.922   0.912  0.2929  0.0172 -0.5770
10841SOL    HW133944   7.746   4.857   0.889  0.8033  0.8558 -1.5675
10841SOL    HW233945   7.666   4.973   0.832 -3.0940 -1.3944 -1.0633
10842SOL     OW33946   8.702   4.672   1.297 -0.4384 -0.5626  0.5330
10842SOL    HW133947   8.780   4.721   1.322 -1.0820  0.4910  0.5552
10842SOL    HW233948   8.629   4.729   1.322 -1.1754 -0.8084 -0.9470
10843SOL     OW33949   7.740   2.497   2.538 -0.0853 -0.0334 -0.4599
10843SOL    HW133950   7.776   2.547   2.465  0.7847 -0.2453 -0.1769
10843SOL    HW233951   7.648   2.524   2.542  0.4384  1.8789 -0.0554
10844SOL     OW33952   5.628   0.753   7.164  0.1849 -0.5690  0.1724
10844SOL    HW133953   5.597   0.664   7.147 -0.2018 -0.1399 -1.5902
10844SOL    HW233954   5.722   0.744   7.179  0.4079 -1.1534 -1.3747
10845SOL     OW33955   0.286   2.658   4.872  0.1169 -0.1869 -0.5593
10845SOL    HW133956   0.381   2.665   4.874  0.1911 -1.1748  0.7366
10845SOL    HW233957   0.256   2.706   4.949 -0.1464 -2.9030  1.1601
10846SOL     OW33958   8.288   7.230   3.468 -0.2339 -0.2811  0.4840
10846SOL    HW133959   8.220   7.297   3.466  0.3279  0.3389  1.5485
10846SOL    HW233960   8.369   7.278   3.487  0.6504 -0.9051 -1.4179
10847SOL     OW33961   6.595   0.464   1.272  0.3551 -0.6499 -0.0601
10847SOL    HW133962   6.511   0.424   1.297 -0.1647  1.7073  2.3891
10847SOL    HW233963   6.652   0.447   1.347  1.5524 -0.7459 -0.9753
10848SOL     OW33964   0.239   0.361   3.762 -0.0152  0.8532 -0.2063
10848SOL    HW133965   0.214   0.299   3.693  0.4703  0.8024 -0.3345
10848SOL    HW233966   0.314   0.321   3.805 -0.2975  0.8962  0.3416
10849SOL     OW33967   2.722   3.119   0.976 -0.0984 -0.0448  0.0265
10849SOL    HW133968   2.660   3.128   1.048  0.0439 -0.1093  0.1564
10849SOL    HW233969   2.692   3.042   0.928 -0.2392  0.0440 -0.0290
10850SOL     OW33970   4.057   6.838   6.234 -0.0464 -0.3675  0.9229
10850SOL    HW133971   3.983   6.851   6.293 -0.8987 -0.6381 -0.0608
10850SOL    HW233972   4.133   6.867   6.285 -0.3981 -2.7978  3.0391
10851SOL     OW33973   8.637   0.703   2.935  0.0709 -0.0574  0.0569
10851SOL    HW133974   8.589   0.651   3.000  0.6830 -1.1463 -0.3323
10851SOL    HW233975   8.725   0.666   2.935  0.6058  1.1730 -0.0515
10852SOL     OW33976   7.505   3.691   4.056 -0.0225 -0.0190 -0.5646
10852SOL    HW133977   7.549   3.749   4.119 -1.9313 -0.9212  1.7364
10852SOL    HW233978   7.474   3.750   3.987  1.3260  1.1355 -0.2472
10853SOL     OW33979   0.785   2.914   4.553 -0.5343 -0.1380 -0.2993
10853SOL    HW133980   0.869   2.867   4.555  0.5255  1.6231 -0.9126
10853SOL    HW233981   0.719   2.845   4.559  0.9380 -1.5077  1.6348
10854SOL     OW33982   7.000   3.614   2.676  0.5300  0.4494  0.2448
10854SOL    HW133983   6.950   3.695   2.686 -0.8091 -0.5133  1.6043
10854SOL    HW233984   7.080   3.642   2.630 -0.8243  2.1643 -1.2403
10855SOL     OW33985   4.315   9.049   1.524  0.5226  0.2196  0.1132
10855SOL    HW133986   4.367   8.969   1.519  1.3091  0.6472  1.1093
10855SOL    HW233987   4.364   9.112   1.471  0.3414  0.2707  0.0061
10856SOL     OW33988   2.372   5.035   1.061  0.3065  0.3149 -0.2094
10856SOL    HW133989   2.289   5.038   1.108  1.4251 -3.1849  2.4349
10856SOL    HW233990   2.348   5.023   0.969 -2.1112 -0.0723  0.4229
10857SOL     OW33991   2.683   3.913   5.124  0.1777  0.1435  0.3693
10857SOL    HW133992   2.660   3.914   5.217  1.7173  2.1430  0.7961
10857SOL    HW233993   2.613   3.963   5.082 -0.8944 -1.3448  0.2929
10858SOL     OW33994   5.267   6.816   2.757 -0.2561 -0.0817  0.0690
10858SOL    HW133995   5.222   6.749   2.808 -0.1560  0.3905  0.8067
10858SOL    HW233996   5.237   6.899   2.795 -1.0719  0.3354 -1.4151
10859SOL     OW33997   4.797   7.399   6.436 -0.3933 -0.2738 -0.0624
10859SOL    HW133998   4.872   7.414   6.378 -1.0239  1.5963 -0.4723
10859SOL    HW233999   4.827   7.429   6.522 -0.2315 -0.8014  0.0653
10860SOL     OW34000   6.452   7.891   2.571  0.5218 -0.0086  0.0602
10860SOL    HW134001   6.446   7.836   2.492 -1.3377  0.4485 -0.1829
10860SOL    HW234002   6.480   7.830   2.640 -0.0504 -0.9485 -0.5028
10861SOL     OW34003   1.883   4.604   0.837 -0.2905  0.0117  0.2937
10861SOL    HW134004   1.887   4.616   0.742  0.3738 -0.2519  0.2867
10861SOL    HW234005   1.846   4.686   0.869  1.3038  0.8999 -0.0237
10862SOL     OW34006   3.711   7.620   6.704 -0.2969  0.1642  0.0992
10862SOL    HW134007   3.802   7.641   6.722 -0.1923  0.3205 -0.6086
10862SOL    HW234008   3.681   7.576   6.784  0.3504  0.2378  0.3913
10863SOL     OW34009   3.278   4.510   3.666  0.5806 -0.2153  0.0577
10863SOL    HW134010   3.361   4.557   3.674  1.7076 -1.6725 -2.0579
10863SOL    HW234011   3.211   4.577   3.680  2.0349  0.8961  2.3863
10864SOL     OW34012   0.815   6.828   7.775  0.1653  0.1537  0.1582
10864SOL    HW134013   0.749   6.763   7.752 -0.3877  0.6165  0.3974
10864SOL    HW234014   0.882   6.779   7.823  0.3534 -0.4497 -0.7083
10865SOL     OW34015   6.943   5.930   6.271 -0.3559 -0.1779  0.1918
10865SOL    HW134016   7.022   5.894   6.231 -0.6181 -0.7715  0.2024
10865SOL    HW234017   6.975   5.989   6.339  0.0754 -0.2970  0.0947
10866SOL     OW34018   7.644   3.210   9.141  0.1005  0.0655 -0.1105
10866SOL    HW134019   7.625   3.145   9.208 -2.2073  0.9842  0.1950
10866SOL    HW234020   7.735   3.235   9.157 -0.1457 -0.3270  2.1738
10867SOL     OW34021   1.133   2.739   8.283 -0.7633 -0.4579  0.0118
10867SOL    HW134022   1.137   2.665   8.222  1.5509 -0.8490  0.5361
10867SOL    HW234023   1.172   2.812   8.235 -1.8324  0.0975 -0.0428
10868SOL     OW34024   0.507   1.856   6.606  0.7182 -0.3725 -0.0442
10868SOL    HW134025   0.513   1.947   6.632  1.6189 -0.7831  1.2345
10868SOL    HW234026   0.495   1.859   6.511  1.9379  1.0398 -0.1832
10869SOL     OW34027   4.770   7.355   0.307  0.4136 -0.1333  0.6500
10869SOL    HW134028   4.862   7.384   0.310  0.0892  0.9333  0.6175
10869SOL    HW234029   4.766   7.297   0.231  0.7923  0.7844 -0.0864
10870SOL     OW34030   6.310   4.933   9.249  0.7681 -0.5637  0.3151
10870SOL    HW134031   6.364   4.986   9.307  1.5970  0.7043 -1.5120
10870SOL    HW234032   6.370   4.872   9.207  0.1886 -1.4434  0.7192
10871SOL     OW34033   2.147   6.995   9.087 -0.1815  0.0960 -0.2523
10871SOL    HW134034   2.235   6.990   9.049  0.5676 -0.7449  1.4817
10871SOL    HW234035   2.160   7.040   9.170 -1.7563  1.8315 -0.8765
10872SOL     OW34036   8.200   0.811   7.876  0.0234 -0.2301  0.2040
10872SOL    HW134037   8.285   0.795   7.916  0.3119  0.6695 -0.0373
10872SOL    HW234038   8.136   0.788   7.944  0.4993  1.5465  1.3118
10873SOL     OW34039   4.228   3.406   3.143  0.3872 -0.1641 -0.0647
10873SOL    HW134040   4.235   3.320   3.101  0.6933  0.0705 -0.5076
10873SOL    HW234041   4.318   3.436   3.153  0.2744  0.2520 -0.2302
10874SOL     OW34042   2.573   8.906   1.112  0.1981  0.4394  0.2726
10874SOL    HW134043   2.538   8.995   1.111  1.0616  0.8074 -1.2401
10874SOL    HW234044   2.587   8.885   1.020  1.2717 -0.7500  0.6742
10875SOL     OW34045   5.900   6.430   1.565  0.2798  0.2878  0.7298
10875SOL    HW134046   5.842   6.421   1.641  0.6352  0.2790  1.0046
10875SOL    HW234047   5.880   6.516   1.530  1.6556  1.2546  2.1588
10876SOL     OW34048   0.679   3.729   1.195  0.2732 -0.2225 -0.3891
10876SOL    HW134049   0.753   3.698   1.143 -0.8626 -0.9536 -1.6263
10876SOL    HW234050   0.678   3.824   1.180  1.0428 -0.1737 -0.2152
10877SOL     OW34051   1.611   6.682   7.337  0.1075  0.1535  1.0550
10877SOL    HW134052   1.567   6.649   7.259 -1.6004  2.2421  1.0203
10877SOL    HW234053   1.702   6.692   7.312 -0.2918  0.1546 -0.4691
10878SOL     OW34054   8.718   1.183   4.580 -0.2196 -0.3645  0.1943
10878SOL    HW134055   8.717   1.158   4.672  0.7152 -1.7308 -0.1300
10878SOL    HW234056   8.708   1.278   4.580 -1.6851 -0.4781  1.6191
10879SOL     OW34057   6.676   3.834   9.191 -0.2701 -0.0557  0.1657
10879SOL    HW134058   6.715   3.807   9.108 -0.3688 -0.0538  0.1182
10879SOL    HW234059   6.730   3.907   9.221  0.5748 -0.8847  0.7528
10880SOL     OW34060   3.847   8.604   2.523 -0.6727 -0.2940 -0.1984
10880SOL    HW134061   3.934   8.643   2.523 -1.1756  0.8545 -0.6449
10880SOL    HW234062   3.821   8.605   2.615  0.4856 -2.3296  0.2177
10881SOL     OW34063   9.144   8.746   3.342  0.6810 -0.3773  0.0517
10881SOL    HW134064   9.228   8.754   3.297  0.3427  1.2635 -0.3583
10881SOL    HW234065   9.139   8.654   3.368  2.5953 -0.5046  0.0929
10882SOL     OW34066   7.401   1.663   3.457 -0.0685  0.2023  0.1424
10882SOL    HW134067   7.467   1.595   3.446 -0.1648 -0.3893  2.5376
10882SOL    HW234068   7.453   1.743   3.469  0.2137 -0.1003  1.0496
10883SOL     OW34069   8.724   4.426   6.600 -0.5093 -0.3738  0.1240
10883SOL    HW134070   8.659   4.492   6.578 -1.2497 -0.8779  0.7158
10883SOL    HW234071   8.808   4.469   6.589 -0.9850  0.7639  0.8097
10884SOL     OW34072   7.173   3.360   9.217 -0.2094 -0.2421 -0.7992
10884SOL    HW134073   7.143   3.292   9.277 -1.0358 -1.6848 -2.7260
10884SOL    HW234074   7.157   3.442   9.263  2.7652 -1.2942  2.4863
10885SOL     OW34075   4.827   8.882   8.914  0.2598  0.8887  0.0147
10885SOL    HW134076   4.774   8.802   8.906  0.1008  0.8988  0.8975
10885SOL    HW234077   4.917   8.851   8.919  0.1480  0.6990  1.1467
10886SOL     OW34078   2.813   4.201   4.926 -0.7388 -0.1685  0.3360
10886SOL    HW134079   2.901   4.235   4.944 -0.8284  0.2248  0.0415
10886SOL    HW234080   2.829   4.118   4.882 -0.5055  0.1486 -0.1891
10887SOL     OW34081   2.449   5.406   2.190  0.3666  0.5024  0.2404
10887SOL    HW134082   2.457   5.331   2.132  0.3940  0.6802  0.0109
10887SOL    HW234083   2.537   5.422   2.221  0.2981  0.1991  0.5982
10888SOL     OW34084   7.030   4.644   4.959 -0.7268 -0.4667  0.3768
10888SOL    HW134085   7.019   4.584   5.033  0.3322 -1.6767 -0.4032
10888SOL    HW234086   6.979   4.605   4.889 -0.6873 -0.0138  0.0915
10889SOL     OW34087   8.299   2.760   3.077  0.2618  0.1518 -0.2310
10889SOL    HW134088   8.210   2.797   3.080  0.4348  0.6089  2.6965
10889SOL    HW234089   8.287   2.669   3.103  0.5938  0.0651 -0.3859
10890SOL     OW34090   3.990   5.082   8.187 -0.3888 -0.1791 -0.1390
10890SOL    HW134091   4.021   4.994   8.166  0.5435 -0.0657  0.6552
10890SOL    HW234092   3.938   5.070   8.267  0.9273  0.1537  0.8059
10891SOL     OW34093   6.419   4.805   0.290 -0.1919 -0.0334 -0.1375
10891SOL    HW134094   6.361   4.869   0.332  0.9994  0.7030  0.4723
10891SOL    HW234095   6.459   4.852   0.217 -0.2711 -0.4875 -0.4778
10892SOL     OW34096   0.509   6.501   1.594 -0.2616 -0.3346  0.2555
10892SOL    HW134097   0.421   6.465   1.583 -0.3355 -0.2140  0.4449
10892SOL    HW234098   0.567   6.434   1.556 -0.3878 -0.7195  0.7208
10893SOL     OW34099   3.810   4.194   6.129 -0.7088 -0.5346  0.5041
10893SOL    HW134100   3.889   4.241   6.158 -0.3765  0.2646 -1.5090
10893SOL    HW234101   3.842   4.133   6.063 -1.6794 -0.8463  0.3091
10894SOL     OW34102   5.281   3.134   7.792  0.1133 -0.4346  0.1110
10894SOL    HW134103   5.255   3.152   7.882  1.3149 -3.7669  1.2598
10894SOL    HW234104   5.354   3.073   7.800 -1.7605 -3.4302 -3.1221
10895SOL     OW34105   0.733   7.859   0.572 -0.0330  0.0200  0.5333
10895SOL    HW134106   0.812   7.835   0.523 -0.1655 -1.1932  0.8696
10895SOL    HW234107   0.755   7.943   0.613  1.4066 -0.6728  1.2649
10896SOL     OW34108   2.038   2.796   8.748 -0.4617  0.0875 -0.3584
10896SOL    HW134109   1.978   2.721   8.746 -2.8805  1.8771  0.7598
10896SOL    HW234110   2.124   2.757   8.732 -1.5298 -2.9741  0.5515
10897SOL     OW34111   5.004   5.587   7.012 -0.1903  0.4294  0.0629
10897SOL    HW134112   5.080   5.569   6.957  1.0902 -0.0491  1.9103
10897SOL    HW234113   4.944   5.516   6.994  0.3047  0.1476 -0.5269
10898SOL     OW34114   4.865   8.107   5.765  0.5380 -0.2565 -0.1496
10898SOL    HW134115   4.811   8.049   5.712 -0.5613 -1.2302  1.9133
10898SOL    HW234116   4.937   8.133   5.707 -0.6858 -1.0758 -2.1277
10899SOL     OW34117   4.916   6.346   9.061 -0.0767  0.1101 -0.0887
10899SOL    HW134118   4.881   6.258   9.044 -0.2805 -0.1096  1.3428
10899SOL    HW234119   4.852   6.387   9.119  0.3001  1.0078 -0.2935
10900SOL     OW34120   1.173   5.222   8.595 -0.1084  0.7735  0.6908
10900SOL    HW134121   1.163   5.187   8.684  1.1678 -0.4773  0.3805
10900SOL    HW234122   1.263   5.256   8.592 -0.1560  0.8510 -0.1023
10901SOL     OW34123   0.520   6.256   7.839 -0.2038 -0.4400 -0.2892
10901SOL    HW134124   0.597   6.202   7.822 -1.3759 -1.4781 -2.8530
10901SOL    HW234125   0.556   6.338   7.873  1.9260 -1.3525 -0.1820
10902SOL     OW34126   4.123   2.057   2.682  0.0174  0.1886 -0.0951
10902SOL    HW134127   4.178   1.991   2.725 -1.0063  0.3129  1.4959
10902SOL    HW234128   4.095   2.015   2.601  2.2765  0.0645 -0.9027
10903SOL     OW34129   4.770   2.239   9.179 -0.2435  0.0825  0.5016
10903SOL    HW134130   4.791   2.303   9.247  0.8769 -0.9929  1.2030
10903SOL    HW234131   4.844   2.241   9.119 -0.7626  0.3001 -0.1463
10904SOL     OW34132   5.255   3.057   2.829  0.0491  0.5566 -0.6380
10904SOL    HW134133   5.313   3.126   2.798  1.4219  0.5419  1.6842
10904SOL    HW234134   5.299   2.976   2.803 -0.1078  0.5478 -0.8778
10905SOL     OW34135   7.493   6.633   5.305  0.0143  0.0825 -0.2414
10905SOL    HW134136   7.551   6.682   5.364 -1.0693  3.0717 -1.4618
10905SOL    HW234137   7.501   6.679   5.221  0.1911 -2.9730 -2.0347
10906SOL     OW34138   4.993   6.827   7.673 -0.1282 -0.1542  0.6470
10906SOL    HW134139   4.944   6.767   7.729 -2.4533 -1.2884 -2.3332
10906SOL    HW234140   5.085   6.812   7.696 -0.7320 -3.5434  1.3741
10907SOL     OW34141   7.561   2.506   9.168 -0.4527  0.1921  0.4302
10907SOL    HW134142   7.505   2.495   9.245 -1.7351 -0.9057 -0.5851
10907SOL    HW234143   7.568   2.600   9.156 -0.1102  0.3799  1.9539
10908SOL     OW34144   8.180   6.176   9.022 -0.2399 -0.1336  0.6751
10908SOL    HW134145   8.201   6.242   8.956 -0.8504 -0.5491  0.0595
10908SOL    HW234146   8.239   6.196   9.095 -0.3487  1.0378  0.4642
10909SOL     OW34147   5.678   8.761   4.264  0.2743 -0.5808 -0.1789
10909SOL    HW134148   5.715   8.757   4.352 -0.1108  0.4064  0.0418
10909SOL    HW234149   5.753   8.777   4.206  0.3078  0.6735  0.1854
10910SOL     OW34150   8.732   7.342   5.631  0.1923  0.3743 -0.1959
10910SOL    HW134151   8.667   7.276   5.653 -0.8272  1.8965  1.6449
10910SOL    HW234152   8.748   7.389   5.713  1.6593  1.7353 -1.1867
10911SOL     OW34153   6.158   6.700   8.354 -0.0624  0.2725 -0.5825
10911SOL    HW134154   6.220   6.768   8.380 -1.5548  1.9584 -1.3096
10911SOL    HW234155   6.206   6.618   8.369  1.6066  1.4282  0.7701
10912SOL     OW34156   6.652   4.784   1.266  0.3533 -0.1847 -0.0277
10912SOL    HW134157   6.696   4.774   1.182  1.2198  0.5648  0.3134
10912SOL    HW234158   6.685   4.867   1.301  0.4038 -0.7110  1.2590
10913SOL     OW34159   3.244   6.115   1.562 -0.5381 -0.6010  0.4702
10913SOL    HW134160   3.245   6.101   1.656 -2.6890  0.3617  0.6808
10913SOL    HW234161   3.179   6.054   1.528 -0.5925 -0.1587 -0.2540
10914SOL     OW34162   4.072   4.117   2.349  0.0645 -0.1264  0.8604
10914SOL    HW134163   4.055   4.176   2.276  0.0690 -1.1303  0.0205
10914SOL    HW234164   4.167   4.111   2.354  0.0727  0.2365  1.2031
10915SOL     OW34165   6.622   9.231   6.282 -0.5973 -0.0408 -0.0931
10915SOL    HW134166   6.602   9.218   6.189 -0.6348 -0.5013 -0.0252
10915SOL    HW234167   6.674   9.153   6.306 -0.4512  0.1543  0.2306
10916SOL     OW34168   1.003   3.442   3.053 -0.2269 -0.4291 -0.5067
10916SOL    HW134169   1.004   3.499   3.130 -0.1883 -1.2198  0.0921
10916SOL    HW234170   1.070   3.376   3.071  0.2019 -0.2843 -1.4898
10917SOL     OW34171   4.211   5.395   8.767  0.0679  0.3798 -0.1849
10917SOL    HW134172   4.218   5.455   8.693  1.3396  2.6441  1.6508
10917SOL    HW234173   4.121   5.404   8.797  0.0710  0.8662 -0.3260
10918SOL     OW34174   4.530   7.545   2.422 -0.5529 -0.6168  0.2991
10918SOL    HW134175   4.487   7.576   2.501 -0.1119  1.6365 -0.2871
10918SOL    HW234176   4.623   7.562   2.436 -0.4833 -0.0136 -0.7498
10919SOL     OW34177   8.872   4.620   1.009  0.3294  0.9333 -0.2011
10919SOL    HW134178   8.901   4.566   0.936 -1.7803  0.0065 -0.4251
10919SOL    HW234179   8.840   4.558   1.074  0.6440  1.8159  0.8350
10920SOL     OW34180   3.505   8.014   1.253 -0.3205 -0.2958 -0.0698
10920SOL    HW134181   3.443   8.027   1.325 -0.1365  0.3837 -0.0287
10920SOL    HW234182   3.465   8.060   1.179 -0.1639 -0.3888 -0.2119
10921SOL     OW34183   5.300   2.498   0.382 -0.0367 -0.3033  0.0115
10921SOL    HW134184   5.307   2.402   0.385 -1.9972 -0.4776 -0.1535
10921SOL    HW234185   5.318   2.525   0.472 -0.7345 -0.9373  0.3531
10922SOL     OW34186   8.628   2.772   7.002 -0.2822 -0.1491  0.1278
10922SOL    HW134187   8.712   2.817   7.008  0.5146 -1.4662 -0.6318
10922SOL    HW234188   8.625   2.715   7.079  0.2192 -1.1839 -0.5885
10923SOL     OW34189   2.478   5.774   4.315  0.7117  0.3942  1.1123
10923SOL    HW134190   2.448   5.850   4.366 -0.0705  1.2985 -0.5976
10923SOL    HW234191   2.474   5.804   4.224  0.6538 -1.6234  0.4088
10924SOL     OW34192   6.557   6.048   5.940 -0.0730  0.2693 -0.2166
10924SOL    HW134193   6.481   5.991   5.945 -0.3203  0.6839  1.4180
10924SOL    HW234194   6.524   6.135   5.966  0.8847  0.5003  0.2850
10925SOL     OW34195   4.857   4.647   2.746  0.0149 -0.2142  0.2735
10925SOL    HW134196   4.800   4.595   2.802 -1.4429  0.6014 -0.3926
10925SOL    HW234197   4.891   4.716   2.804  0.0021 -0.4615  0.5758
10926SOL     OW34198   3.479   2.999   8.642  0.4767 -0.4506 -0.5589
10926SOL    HW134199   3.528   3.010   8.561  0.2848  1.1219 -0.4902
10926SOL    HW234200   3.416   3.071   8.643  0.9157 -0.0219  1.2865
10927SOL     OW34201   6.907   6.536   8.801 -0.2250  0.1100 -0.5607
10927SOL    HW134202   6.858   6.514   8.722 -0.5043  1.9779 -0.9398
10927SOL    HW234203   6.900   6.458   8.856 -3.4535  0.2128 -0.6748
10928SOL     OW34204   5.208   7.037   0.897 -0.2659  0.6015 -0.0970
10928SOL    HW134205   5.168   7.072   0.817 -0.7295  1.6332  0.5735
10928SOL    HW234206   5.301   7.026   0.874 -0.6867 -0.8141 -1.3271
10929SOL     OW34207   3.129   7.004   7.560  0.0117 -0.3665 -0.4111
10929SOL    HW134208   3.087   7.052   7.632  1.4690 -1.2179  1.0678
10929SOL    HW234209   3.085   6.919   7.560 -0.2052 -0.2558 -0.7490
10930SOL     OW34210   6.756   8.136   8.971  0.0442 -0.6242  0.1715
10930SOL    HW134211   6.736   8.163   8.881 -1.3409 -0.0370  0.6238
10930SOL    HW234212   6.752   8.218   9.021  0.1673 -1.0391  0.8663
10931SOL     OW34213   2.677   8.569   0.506 -0.2551 -0.0616  0.2018
10931SOL    HW134214   2.753   8.621   0.535  0.4423 -1.3318  0.7330
10931SOL    HW234215   2.663   8.596   0.416  0.1178  1.0077  0.4411
10932SOL     OW34216   9.132   5.449   3.449 -0.3326 -0.4031 -0.1146
10932SOL    HW134217   9.186   5.370   3.440  2.2500  1.4110 -1.7414
10932SOL    HW234218   9.150   5.479   3.538  1.0245 -0.0850 -0.4759
10933SOL     OW34219   6.818   4.942   3.690  0.6021  0.0590  0.1858
10933SOL    HW134220   6.771   4.999   3.629  1.9673  0.1991 -0.7897
10933SOL    HW234221   6.751   4.911   3.751 -0.6086  0.7845 -0.7339
10934SOL     OW34222   4.897   2.094   3.234  0.4149 -0.7468  0.0212
10934SOL    HW134223   4.957   2.035   3.280 -0.0190 -1.4856 -0.3460
10934SOL    HW234224   4.855   2.039   3.168 -0.2370 -0.0979 -0.1164
10935SOL     OW34225   8.554   6.678   6.479 -0.7344 -1.1609 -0.0062
10935SOL    HW134226   8.496   6.605   6.497 -0.6919 -1.3615 -0.6400
10935SOL    HW234227   8.531   6.745   6.543 -2.5215 -0.7500 -1.0129
10936SOL     OW34228   4.474   0.020   2.573 -0.4740  0.2615  0.2304
10936SOL    HW134229   4.421   0.093   2.606  0.8887  1.0231  0.8264
10936SOL    HW234230   4.563   0.054   2.571  0.0983 -1.1741 -0.1689
10937SOL     OW34231   4.172   9.176   3.217 -0.6498 -0.0375  0.3818
10937SOL    HW134232   4.267   9.180   3.228 -0.7030  1.6163  0.4373
10937SOL    HW234233   4.154   9.229   3.140 -1.4417 -1.4143 -0.4276
10938SOL     OW34234   6.985   5.128   4.603 -0.3484  0.0146 -0.1110
10938SOL    HW134235   6.968   5.041   4.568 -1.7746 -0.3159  1.3055
10938SOL    HW234236   7.024   5.176   4.530  0.0399 -1.6548 -1.0498
10939SOL     OW34237   9.235   0.622   1.466  0.5641  0.5000 -0.1285
10939SOL    HW134238   9.156   0.675   1.478 -0.9619 -1.5603 -0.3633
10939SOL    HW234239   9.286   0.668   1.400 -1.4073  0.9544 -1.4190
10940SOL     OW34240   3.469   5.311   9.099 -0.2472 -0.0808 -0.6193
10940SOL    HW134241   3.536   5.374   9.125 -1.7798  1.3315  0.0634
10940SOL    HW234242   3.517   5.229   9.085  1.5326  0.7370  0.4069
10941SOL     OW34243   6.921   4.220   0.519  0.1507 -0.7405  0.1194
10941SOL    HW134244   6.896   4.215   0.427 -0.3761 -0.0162  0.2145
10941SOL    HW234245   6.984   4.293   0.523 -1.2733  0.5186  0.6153
10942SOL     OW34246   1.032   2.552   8.963 -0.1285  0.0009  0.2215
10942SOL    HW134247   0.983   2.558   8.880  0.9462  1.1912 -0.3681
10942SOL    HW234248   1.113   2.599   8.945  0.3239 -0.1414  1.8281
10943SOL     OW34249   6.903   4.039   4.424 -0.4098  0.5338  0.4250
10943SOL    HW134250   6.984   3.997   4.453 -0.2400  0.4797 -0.1066
10943SOL    HW234251   6.840   4.019   4.492 -0.3602 -0.6924  0.1295
10944SOL     OW34252   1.329   4.431   2.109  0.2697  0.3228  0.1544
10944SOL    HW134253   1.281   4.353   2.080 -0.7378  1.0695 -0.2289
10944SOL    HW234254   1.313   4.496   2.040  1.6019  0.6856  0.1697
10945SOL     OW34255   2.938   2.262   0.645 -0.1984 -0.0635  0.0948
10945SOL    HW134256   2.939   2.282   0.551  0.4648 -1.4800 -0.2245
10945SOL    HW234257   3.023   2.293   0.676 -0.3524  0.2541  0.2109
10946SOL     OW34258   0.258   1.450   3.825 -0.5308  0.0249  0.7869
10946SOL    HW134259   0.200   1.409   3.762 -1.1753 -1.0435  2.0174
10946SOL    HW234260   0.229   1.541   3.830 -0.4243  0.1356 -0.4772
10947SOL     OW34261   6.929   4.832   4.593 -0.2322 -0.7819 -0.6457
10947SOL    HW134262   6.849   4.869   4.555 -0.2073  1.8475  1.5095
10947SOL    HW234263   6.897   4.773   4.661 -0.3220 -1.0047 -0.8796
10948SOL     OW34264   2.916   2.020   0.434  0.1007  0.0785 -0.2085
10948SOL    HW134265   3.006   2.007   0.403 -0.4371 -0.4934 -1.5899
10948SOL    HW234266   2.898   1.944   0.489 -0.2424 -0.9220 -1.6620
10949SOL     OW34267   0.957   0.330   5.318  0.0199 -0.2230 -0.5105
10949SOL    HW134268   0.883   0.386   5.294 -0.0948  0.0060  0.3540
10949SOL    HW234269   0.965   0.268   5.245  0.2373  0.9952 -1.5570
10950SOL     OW34270   5.231   4.273   1.458 -0.0079  0.4074 -0.0907
10950SOL    HW134271   5.285   4.195   1.446 -2.3271 -1.2002 -0.7140
10950SOL    HW234272   5.179   4.280   1.378 -1.6808  1.0918  0.9976
10951SOL     OW34273   7.539   8.374   5.662  0.0954 -0.3950  0.5117
10951SOL    HW134274   7.595   8.443   5.697 -1.2008  0.5065  0.9077
10951SOL    HW234275   7.489   8.418   5.593 -1.0613 -0.8178  1.0597
10952SOL     OW34276   7.454   7.062   6.484  0.6208  0.2965  0.1508
10952SOL    HW134277   7.511   7.006   6.535  1.3279 -1.3372 -2.2364
10952SOL    HW234278   7.513   7.108   6.424 -0.3464  0.1900 -0.9219
10953SOL     OW34279   2.991   1.257   0.371 -0.3007 -0.1506 -0.2642
10953SOL    HW134280   2.907   1.281   0.330 -0.6306 -1.7644 -0.6390
10953SOL    HW234281   2.972   1.256   0.465 -0.0329  1.8196 -0.1648
10954SOL     OW34282   7.171   4.856   7.693  0.0706  0.2512  0.4743
10954SOL    HW134283   7.121   4.931   7.726 -1.5963 -0.1491 -0.9835
10954SOL    HW234284   7.258   4.892   7.675 -0.4393  1.6360  0.6172
10955SOL     OW34285   1.103   0.122   2.736 -0.1130 -0.5862  0.1725
10955SOL    HW134286   1.182   0.141   2.786  0.2558 -1.4208 -0.0753
10955SOL    HW234287   1.057   0.206   2.731  1.7373  0.4254 -1.4168
10956SOL     OW34288   8.800   4.729   3.926 -0.0008  0.1820 -0.2263
10956SOL    HW134289   8.831   4.809   3.968 -1.2670  0.2095  0.7293
10956SOL    HW234290   8.827   4.738   3.835  1.8730  0.6218  0.3314
10957SOL     OW34291   1.392   5.526   9.068  0.3279  0.1075  0.6964
10957SOL    HW134292   1.423   5.602   9.116  1.2762  0.0561  0.1852
10957SOL    HW234293   1.339   5.562   8.997 -0.3514  0.2163  1.2404
10958SOL     OW34294   1.973   2.077   1.147  0.2415 -0.5418 -0.0420
10958SOL    HW134295   2.005   2.069   1.237 -0.3249 -1.8786  0.0646
10958SOL    HW234296   2.034   2.024   1.095  1.6118  1.6077 -0.7556
10959SOL     OW34297   2.854   7.044   5.627  0.2110  0.1690  0.1635
10959SOL    HW134298   2.788   7.077   5.566  0.0308  2.2327  1.3710
10959SOL    HW234299   2.803   7.007   5.699  0.3963 -0.1896  0.1115
10960SOL     OW34300   8.660   6.027   2.727  0.0767  0.5477 -0.3753
10960SOL    HW134301   8.736   6.022   2.670  0.5236 -0.2613  0.2683
10960SOL    HW234302   8.585   6.028   2.667  0.5195 -0.5494 -0.9911
10961SOL     OW34303   9.135   5.732   3.061 -0.5193 -0.8409 -0.1037
10961SOL    HW134304   9.189   5.806   3.033  0.5252 -1.7582 -0.5919
10961SOL    HW234305   9.052   5.772   3.086  0.1469  0.5437  0.0334
10962SOL     OW34306   5.230   2.707   3.860 -0.3067 -0.0436  0.3468
10962SOL    HW134307   5.323   2.695   3.839  0.2872  0.5447  2.3889
10962SOL    HW234308   5.184   2.651   3.798  1.4657 -1.1279 -0.0623
10963SOL     OW34309   7.978   5.954   1.230  0.0358 -0.5087  0.3110
10963SOL    HW134310   7.895   5.954   1.182 -0.2112  1.9935  0.6123
10963SOL    HW234311   7.952   5.955   1.322  0.4107 -0.2582  0.4142
10964SOL     OW34312   4.654   4.768   1.755 -0.3937 -0.3655  0.6248
10964SOL    HW134313   4.615   4.855   1.755  0.9382  0.2572  0.3783
10964SOL    HW234314   4.625   4.728   1.673  2.7085  1.6640 -1.6857
10965SOL     OW34315   7.452   6.319   7.575 -0.2618  0.2110 -0.5260
10965SOL    HW134316   7.547   6.328   7.576 -0.2726  0.9170  2.4422
10965SOL    HW234317   7.420   6.407   7.555 -0.2153  0.9457  2.2069
10966SOL     OW34318   9.102   4.882   0.527  0.4080  0.1803 -0.1307
10966SOL    HW134319   9.146   4.907   0.446  0.2784 -1.8450 -0.8923
10966SOL    HW234320   9.033   4.948   0.538  1.2773  1.2562 -0.9163
10967SOL     OW34321   3.835   8.563   0.002  0.2679  0.3270 -0.2080
10967SOL    HW134322   3.908   8.527   0.052 -1.4912  0.4489  2.6651
10967SOL    HW234323   3.869   8.645  -0.035  2.4182 -1.0720 -1.6047
10968SOL     OW34324   0.692   7.005   7.340 -0.3108 -0.0589 -0.3871
10968SOL    HW134325   0.658   7.016   7.429 -1.0847 -0.2656 -0.6570
10968SOL    HW234326   0.786   6.989   7.353 -0.5139 -0.6539  0.4217
10969SOL     OW34327   0.163   5.490   4.415 -0.3649 -0.1540  0.4954
10969SOL    HW134328   0.105   5.549   4.366 -2.0827 -0.5887  1.8851
10969SOL    HW234329   0.185   5.421   4.352 -2.9676 -0.9963  0.3907
10970SOL     OW34330   6.163   4.584   9.265 -0.2091 -0.0265  0.2741
10970SOL    HW134331   6.251   4.595   9.301  0.2295 -0.4403 -0.6432
10970SOL    HW234332   6.174   4.594   9.171 -0.8997 -1.4293  0.0145
10971SOL     OW34333   1.772   8.391   5.483  0.6296 -0.2835 -0.1883
10971SOL    HW134334   1.867   8.385   5.468  0.7223 -1.8503  0.8428
10971SOL    HW234335   1.752   8.484   5.471  2.1163 -0.0804 -1.4147
10972SOL     OW34336   4.391   0.587   7.484 -0.5271 -0.1265 -0.0155
10972SOL    HW134337   4.447   0.561   7.412 -0.1658 -0.7557  0.4732
10972SOL    HW234338   4.309   0.539   7.469 -1.0967  1.1002 -0.9439
10973SOL     OW34339   8.401   1.493   4.532 -0.4413  0.7547 -0.6934
10973SOL    HW134340   8.349   1.449   4.465 -1.2324 -0.5738  0.7087
10973SOL    HW234341   8.489   1.501   4.494  0.1449 -3.2967 -0.6498
10974SOL     OW34342   0.238   3.517   2.901  0.0317  0.0577 -0.2689
10974SOL    HW134343   0.223   3.422   2.893  0.9422 -0.1858  0.6250
10974SOL    HW234344   0.257   3.546   2.811  3.4024 -1.3190 -0.1428
10975SOL     OW34345   1.002   1.064   4.208  0.0365  0.3092  0.4048
10975SOL    HW134346   0.962   1.076   4.294  0.7286  2.6070  0.4756
10975SOL    HW234347   0.930   1.070   4.146 -0.2464  0.2715  0.7317
10976SOL     OW34348   4.866   7.778   7.062 -0.4012 -0.3761  0.4197
10976SOL    HW134349   4.934   7.825   7.014  0.0429 -0.3637  1.0506
10976SOL    HW234350   4.794   7.841   7.069  0.1810  0.2203  1.2352
10977SOL     OW34351   3.009   8.378   4.687  0.4253  0.5986  0.6519
10977SOL    HW134352   2.980   8.466   4.712 -0.9545  0.7699 -1.3574
10977SOL    HW234353   2.934   8.322   4.704  0.4531  0.2411 -0.3627
10978SOL     OW34354   8.930   0.721   2.499  0.0525  0.3925 -0.1851
10978SOL    HW134355   8.925   0.644   2.556 -1.7688 -0.2705 -1.1889
10978SOL    HW234356   8.891   0.792   2.551 -1.3534 -0.1493 -0.4546
10979SOL     OW34357   5.734   1.963   3.256 -0.5516  0.9898 -0.2691
10979SOL    HW134358   5.801   1.991   3.194 -1.6216  0.3236 -1.8074
10979SOL    HW234359   5.684   2.042   3.275 -1.4027  0.8831 -1.8395
10980SOL     OW34360   4.958   5.136   0.625 -0.5982 -0.4429  0.3462
10980SOL    HW134361   5.044   5.157   0.588  0.5520  0.2134  3.0987
10980SOL    HW234362   4.960   5.042   0.639 -0.9271 -0.6488 -0.9055
10981SOL     OW34363   1.207   9.222   1.828 -0.1082 -0.2651  0.2408
10981SOL    HW134364   1.188   9.147   1.884  0.8628  1.3111  2.8597
10981SOL    HW234365   1.272   9.273   1.877 -0.1781  1.9008 -1.7488
10982SOL     OW34366   0.856   0.619   1.410  0.0239  1.0247 -0.0361
10982SOL    HW134367   0.854   0.657   1.322 -0.1727  0.1985 -0.3961
10982SOL    HW234368   0.914   0.543   1.402 -0.5051  0.5697  0.3850
10983SOL     OW34369   0.405   2.641   8.458 -0.6264  0.4187  0.1629
10983SOL    HW134370   0.362   2.691   8.527  0.2265  1.2381  0.1265
10983SOL    HW234371   0.333   2.606   8.405 -1.2522  1.3345  0.3854
10984SOL     OW34372   0.004   2.673   0.784 -0.2518  0.0993 -0.1680
10984SOL    HW134373   0.022   2.652   0.693 -2.1670 -0.3477 -0.4867
10984SOL    HW234374  -0.042   2.757   0.780 -0.9516 -0.2497  0.3132
10985SOL     OW34375   2.201   4.329   4.984 -0.2950  0.2450 -0.5410
10985SOL    HW134376   2.175   4.382   5.060  1.1026  1.5849 -0.9513
10985SOL    HW234377   2.176   4.381   4.908  0.0790 -0.2058 -0.9790
10986SOL     OW34378   2.074   1.112   2.684 -0.1769 -0.3156 -0.1704
10986SOL    HW134379   1.981   1.093   2.684 -0.7194  1.3931 -3.6370
10986SOL    HW234380   2.106   1.073   2.603  1.2008  2.3307 -1.0407
10987SOL     OW34381   6.735   5.812   6.955 -0.2601  0.0221  0.0371
10987SOL    HW134382   6.743   5.743   6.888  1.8042  0.3905 -0.1614
10987SOL    HW234383   6.788   5.884   6.921  1.3512  0.0096  2.3072
10988SOL     OW34384   7.985   1.708   6.246 -0.3804 -0.1187 -0.5972
10988SOL    HW134385   7.968   1.803   6.252 -0.3833 -0.0182 -1.9627
10988SOL    HW234386   8.025   1.696   6.160 -2.2956 -1.6247 -1.3594
10989SOL     OW34387   8.131   1.450   7.610  0.0953  0.1534  0.6741
10989SOL    HW134388   8.092   1.363   7.621 -0.2270 -0.4970 -3.7201
10989SOL    HW234389   8.222   1.432   7.584  0.1350  1.0902  0.1094
10990SOL     OW34390   0.790   8.134   8.471  0.0037  0.1700 -0.1365
10990SOL    HW134391   0.846   8.200   8.431  1.2425  0.0905  1.3649
10990SOL    HW234392   0.711   8.131   8.416  0.4938  1.9343 -0.9713
10991SOL     OW34393   7.181   0.240   6.754  0.1742  0.3462  0.0433
10991SOL    HW134394   7.229   0.274   6.678  1.9318 -2.0893 -0.0579
10991SOL    HW234395   7.240   0.254   6.828  0.7623 -1.8218  0.0699
10992SOL     OW34396   1.384   3.969   4.770 -0.0357  0.4044 -0.2597
10992SOL    HW134397   1.360   3.917   4.693 -2.9267 -1.2444  1.5247
10992SOL    HW234398   1.465   3.929   4.802  1.8818  1.8492 -2.9043
10993SOL     OW34399   4.952   2.102   8.108 -0.7032 -0.1494 -0.7588
10993SOL    HW134400   4.861   2.123   8.127 -0.9423 -0.8331 -1.1087
10993SOL    HW234401   4.947   2.028   8.047  0.0780 -1.1832  0.3734
10994SOL     OW34402   1.819   4.566   1.930 -0.0817 -0.3165  0.0696
10994SOL    HW134403   1.856   4.601   2.011  0.9185 -0.3068 -0.3772
10994SOL    HW234404   1.793   4.477   1.952  0.7895 -0.5421  0.2487
10995SOL     OW34405   5.243   4.330   2.206 -0.2078 -0.0826 -0.2985
10995SOL    HW134406   5.244   4.381   2.288 -1.1306  0.0891 -0.3856
10995SOL    HW234407   5.200   4.388   2.143 -0.1572 -0.5019 -0.7184
10996SOL     OW34408   3.268   0.130   1.039  0.2469 -0.0261 -0.2285
10996SOL    HW134409   3.357   0.098   1.025 -0.4025 -1.5350 -1.1715
10996SOL    HW234410   3.270   0.220   1.006  1.6094  0.2659  0.5597
10997SOL     OW34411   1.633   2.291   8.082 -0.3815 -0.7680 -0.1422
10997SOL    HW134412   1.598   2.352   8.017  1.6129  0.3183 -0.2719
10997SOL    HW234413   1.570   2.295   8.155 -0.0008  2.0132  0.1511
10998SOL     OW34414   7.806   7.170   0.535 -0.1754  0.5372  0.2706
10998SOL    HW134415   7.808   7.202   0.445  0.4056 -1.2552 -0.4040
10998SOL    HW234416   7.881   7.110   0.541 -0.6894 -0.0136  1.7026
10999SOL     OW34417   4.194   5.349   2.822  0.5717 -0.0550 -0.8202
10999SOL    HW134418   4.288   5.328   2.828  0.1995 -1.7129 -0.2033
10999SOL    HW234419   4.189   5.442   2.842  2.2144  0.3674 -2.1334
11000SOL     OW34420   0.859   8.166   3.985  0.2331  0.3594  0.7892
11000SOL    HW134421   0.940   8.120   3.963  0.1649  0.8729 -0.6218
11000SOL    HW234422   0.853   8.158   4.080  1.2977 -0.7387  0.7987
11001SOL     OW34423   2.443   2.473   1.930 -0.1336  0.0483 -0.8042
11001SOL    HW134424   2.446   2.394   1.984 -1.3334  0.9770  0.6842
11001SOL    HW234425   2.535   2.499   1.920  0.0997  0.5706  1.9592
11002SOL     OW34426   2.967   8.122   3.558  0.4989 -0.1502  0.5191
11002SOL    HW134427   2.937   8.055   3.496  0.0846  0.1037  0.4427
11002SOL    HW234428   2.894   8.134   3.618 -0.2570  1.7214 -0.6866
11003SOL     OW34429   8.642   2.471   8.020 -0.0154  0.2700  0.1163
11003SOL    HW134430   8.633   2.552   8.071  0.3829  1.2420 -1.2913
11003SOL    HW234431   8.604   2.492   7.935 -0.4217 -1.2247 -0.0945
11004SOL     OW34432   8.324   6.871   8.658 -0.1292 -0.3438  0.0512
11004SOL    HW134433   8.351   6.779   8.657 -1.4474 -0.7475  0.4139
11004SOL    HW234434   8.381   6.912   8.723 -0.1528 -1.1052  0.5688
11005SOL     OW34435   5.343   5.615   3.988 -0.4954  0.6257 -0.2747
11005SOL    HW134436   5.413   5.596   3.925  1.0861 -1.2066  1.8679
11005SOL    HW234437   5.356   5.707   4.011  0.3893  0.6640 -0.8778
11006SOL     OW34438   3.104   8.272   6.334 -0.3466  0.6288 -0.3247
11006SOL    HW134439   3.116   8.216   6.411  1.4940  1.1250 -0.2163
11006SOL    HW234440   3.142   8.222   6.262 -1.2098  0.5802 -0.7673
11007SOL     OW34441   1.038   0.354   4.895 -0.0428  0.1231  0.0374
11007SOL    HW134442   1.032   0.429   4.955  2.2090  0.4473 -0.0584
11007SOL    HW234443   1.130   0.329   4.897 -0.3400 -1.2786 -1.6097
11008SOL     OW34444   2.092   2.062   8.087  0.7829 -0.3555 -0.1588
11008SOL    HW134445   2.028   1.991   8.076  0.2408  0.1353 -0.2255
11008SOL    HW234446   2.040   2.142   8.080  0.7676  0.1027  3.3664
11009SOL     OW34447   0.667   0.964   4.364 -0.4655 -0.2989  0.0867
11009SOL    HW134448   0.595   0.957   4.302 -1.5972 -0.3008  1.3521
11009SOL    HW234449   0.713   0.881   4.358  1.2631  0.7255 -2.8234
11010SOL     OW34450   0.354   1.296   1.984 -0.4414  0.0052 -0.2918
11010SOL    HW134451   0.335   1.266   1.895  0.2528  0.4494 -0.6068
11010SOL    HW234452   0.439   1.340   1.976 -0.0349 -0.5402  0.7199
11011SOL     OW34453   8.992   4.148   6.216 -0.0031  0.6786  0.3802
11011SOL    HW134454   8.948   4.231   6.235  0.5804  1.1947 -0.4658
11011SOL    HW234455   9.083   4.172   6.200 -0.0302  0.0115 -0.8641
11012SOL     OW34456   3.655   1.821   2.853  0.3381 -0.9375 -0.2605
11012SOL    HW134457   3.706   1.885   2.803  0.3730 -0.7570  0.0043
11012SOL    HW234458   3.567   1.828   2.816  0.4855 -1.2073 -0.6784
11013SOL     OW34459   6.077   6.083   2.641 -0.2556  0.4263 -0.1466
11013SOL    HW134460   6.151   6.072   2.583  0.4510  2.3372  0.3008
11013SOL    HW234461   6.115   6.083   2.729 -0.7749  1.3277  0.0927
11014SOL     OW34462   7.284   8.219   4.325 -0.3657 -0.1116  0.3934
11014SOL    HW134463   7.274   8.140   4.271  1.1702 -0.3682  0.4549
11014SOL    HW234464   7.365   8.205   4.373  0.9457  2.3048 -0.9688
11015SOL     OW34465   6.104   8.084   3.693 -0.1123  0.3761  0.1743
11015SOL    HW134466   6.188   8.039   3.700 -0.9367 -1.3537 -0.3209
11015SOL    HW234467   6.118   8.152   3.627  0.3874 -1.2756 -1.5095
11016SOL     OW34468   7.797   4.062   4.510 -0.3106  0.2288 -0.5302
11016SOL    HW134469   7.759   4.103   4.588  0.8114  0.4369 -0.0848
11016SOL    HW234470   7.886   4.040   4.535 -0.0185  0.0579 -1.6787
11017SOL     OW34471   8.340   7.392   3.103 -0.3106 -0.3215  0.2822
11017SOL    HW134472   8.287   7.471   3.094 -0.9501 -0.4654  2.2869
11017SOL    HW234473   8.280   7.320   3.087 -0.1870 -0.4435  0.3630
11018SOL     OW34474   7.405   5.373   5.674 -0.4251 -0.1345  0.1703
11018SOL    HW134475   7.490   5.417   5.680 -1.0607  1.5987 -2.2576
11018SOL    HW234476   7.423   5.290   5.630  0.0841 -0.0280  0.1743
11019SOL     OW34477   0.195   8.545   2.215  0.0522  1.1584 -0.1522
11019SOL    HW134478   0.119   8.594   2.246 -0.0737  0.6747  0.3157
11019SOL    HW234479   0.269   8.606   2.225 -0.1801  1.4220 -0.0427
11020SOL     OW34480   5.370   5.976   7.540 -0.3908  0.4850  0.3360
11020SOL    HW134481   5.310   5.950   7.470 -0.8658  1.3068  0.4169
11020SOL    HW234482   5.409   5.894   7.570  1.5650  0.2803 -2.3994
11021SOL     OW34483   3.077   4.322   8.518 -0.1902 -0.4976  0.2744
11021SOL    HW134484   3.123   4.339   8.600  0.0832 -0.3038  0.0835
11021SOL    HW234485   3.034   4.238   8.532 -0.8088 -0.0894  0.9079
11022SOL     OW34486   7.103   9.266   3.468  0.2225  0.4679 -0.8343
11022SOL    HW134487   7.046   9.270   3.545  0.5591  0.1424 -0.5615
11022SOL    HW234488   7.129   9.174   3.462 -0.5165  0.3047 -1.8791
11023SOL     OW34489   2.626   6.180   7.982  0.1404 -0.4073  0.2502
11023SOL    HW134490   2.535   6.158   7.966 -0.1826  0.3289  1.0404
11023SOL    HW234491   2.673   6.098   7.966 -0.6221 -0.7448 -0.3433
11024SOL     OW34492   7.657   7.995   1.399 -0.9448  0.0286 -0.5401
11024SOL    HW134493   7.627   7.987   1.308 -3.0392  0.2318  0.0711
11024SOL    HW234494   7.583   8.035   1.445  0.9648  2.3740  0.7855
11025SOL     OW34495   2.544   9.166   1.110  0.0809 -0.1140  0.3687
11025SOL    HW134496   2.608   9.197   1.174 -0.2456  0.1132  0.5928
11025SOL    HW234497   2.480   9.237   1.104  0.3930  0.0990 -0.6225
11026SOL     OW34498   7.193   3.820   6.054 -0.6802  0.4409 -0.0438
11026SOL    HW134499   7.107   3.828   6.013  0.0649  2.5274 -1.3446
11026SOL    HW234500   7.190   3.880   6.129 -0.2030  0.9448 -0.4196
11027SOL     OW34501   6.732   3.912   6.541 -0.3601 -0.3181  0.3857
11027SOL    HW134502   6.662   3.904   6.606 -0.1696  0.4170  0.6952
11027SOL    HW234503   6.755   4.005   6.543 -1.7457  0.1726 -2.2061
11028SOL     OW34504   4.950   8.193   8.283 -0.1838 -0.2589 -0.2855
11028SOL    HW134505   4.977   8.200   8.191 -0.4914 -0.0330 -0.3597
11028SOL    HW234506   4.861   8.227   8.284  0.3015  1.0719  0.3376
11029SOL     OW34507   1.267   3.520   7.213 -1.0918 -0.5152  0.3329
11029SOL    HW134508   1.281   3.560   7.299  0.3341  0.7767 -0.4659
11029SOL    HW234509   1.312   3.436   7.218  1.6341  0.8252 -0.0601
11030SOL     OW34510   4.374   8.019   3.652  0.3567  0.4703  0.0002
11030SOL    HW134511   4.412   7.942   3.610  0.1098 -0.2300  1.0364
11030SOL    HW234512   4.367   8.084   3.581 -0.1635 -0.7102 -1.0567
11031SOL     OW34513   7.326   3.837   3.233  0.2948 -0.2524  0.1088
11031SOL    HW134514   7.242   3.839   3.188  0.7267 -0.0934 -0.7110
11031SOL    HW234515   7.322   3.910   3.295  0.0795  0.1561 -0.3880
11032SOL     OW34516   4.679   3.483   4.571 -0.0292  0.5233 -0.0276
11032SOL    HW134517   4.709   3.395   4.548  0.4967  0.7000 -0.0397
11032SOL    HW234518   4.730   3.542   4.515  0.9666  0.9342  1.2560
11033SOL     OW34519   5.670   9.164   7.563  0.1477 -0.3968 -0.0553
11033SOL    HW134520   5.697   9.079   7.528  0.0486 -0.6323  0.4303
11033SOL    HW234521   5.576   9.154   7.581  0.4569 -0.7163  1.4926
11034SOL     OW34522   8.212   4.708   2.759 -0.1675 -0.1660 -0.3779
11034SOL    HW134523   8.204   4.662   2.675 -0.6016  0.1515 -0.5149
11034SOL    HW234524   8.277   4.776   2.743 -1.0165  0.5734 -0.7724
11035SOL     OW34525   1.532   8.816   0.542 -0.1593  0.4026 -0.2356
11035SOL    HW134526   1.490   8.733   0.521  1.8241 -0.7299 -0.0577
11035SOL    HW234527   1.513   8.831   0.635  0.6867 -0.6599  0.1275
11036SOL     OW34528   8.406   8.363   0.285  0.5735  0.0215 -0.4950
11036SOL    HW134529   8.375   8.448   0.315  1.9091  0.5992 -0.6717
11036SOL    HW234530   8.502   8.371   0.284  0.6750 -0.5068 -3.2850
11037SOL     OW34531   0.671   0.592   0.263  0.4069  0.1730  0.0451
11037SOL    HW134532   0.710   0.577   0.349  0.6006 -1.3463 -0.2888
11037SOL    HW234533   0.658   0.687   0.260  2.9117  0.6279  0.6649
11038SOL     OW34534   4.070   1.201   2.564 -0.0157  0.1250  0.1582
11038SOL    HW134535   4.004   1.265   2.535  0.8045  0.3571 -1.2928
11038SOL    HW234536   4.152   1.251   2.566  0.1527 -0.1465  1.9969
11039SOL     OW34537   4.474   3.368   6.151  0.0964 -0.1930 -0.0052
11039SOL    HW134538   4.381   3.393   6.149 -0.2118 -1.2128  0.7338
11039SOL    HW234539   4.479   3.293   6.092  0.3331 -0.4723  0.3645
11040SOL     OW34540   2.639   5.450   3.359 -0.8221 -0.1521 -0.1917
11040SOL    HW134541   2.606   5.503   3.287 -3.8277 -0.4968  0.8084
11040SOL    HW234542   2.656   5.512   3.429  1.3471  0.0878 -0.8633
11041SOL     OW34543   9.132   1.232   1.621  0.0346  0.0351 -0.1906
11041SOL    HW134544   9.202   1.212   1.559 -1.9652 -2.0144 -1.9878
11041SOL    HW234545   9.133   1.158   1.682 -0.7908 -0.2108 -0.4688
11042SOL     OW34546   1.625   8.153   3.581 -0.3195  0.0343 -0.0543
11042SOL    HW134547   1.603   8.230   3.529 -0.7502  0.4477  0.7167
11042SOL    HW234548   1.705   8.119   3.542  1.4139  2.3968  1.1699
11043SOL     OW34549   3.387   2.536   4.974 -1.0271  0.4300 -0.0446
11043SOL    HW134550   3.417   2.445   4.975 -0.8442  0.4898  0.7327
11043SOL    HW234551   3.307   2.534   4.921 -0.8756 -0.1375 -0.2568
11044SOL     OW34552   0.538   3.972   0.702 -0.2729 -0.3892 -0.5973
11044SOL    HW134553   0.537   4.053   0.651 -0.2102 -0.4413 -0.6838
11044SOL    HW234554   0.624   3.933   0.683  0.6347  0.6254  1.2035
11045SOL     OW34555   2.556   9.116   4.242 -0.1846  0.2592 -0.1391
11045SOL    HW134556   2.581   9.056   4.312  0.4773  0.1064 -0.4954
11045SOL    HW234557   2.623   9.185   4.245 -0.1184  0.2187 -0.6576
11046SOL     OW34558   3.380   8.869   6.336 -0.2787 -0.5460 -0.2437
11046SOL    HW134559   3.416   8.855   6.423  2.4172  1.2379 -0.9427
11046SOL    HW234560   3.408   8.793   6.285  1.1644  0.0248 -0.3513
11047SOL     OW34561   9.214   4.901   4.477  0.2646  0.3102  0.0832
11047SOL    HW134562   9.263   4.822   4.455  0.6424  0.0188  1.8406
11047SOL    HW234563   9.240   4.923   4.566 -1.3201  1.2870  0.3662
11048SOL     OW34564   2.980   3.879   1.831  0.0256 -0.6301 -0.4477
11048SOL    HW134565   2.889   3.885   1.859  0.1350  0.7378 -0.3142
11048SOL    HW234566   3.015   3.803   1.877 -0.7776 -0.5651  0.2943
11049SOL     OW34567   4.900   0.868   3.397 -0.6405 -0.1301 -0.1275
11049SOL    HW134568   4.882   0.891   3.306  2.0146  0.5837 -0.5455
11049SOL    HW234569   4.968   0.929   3.424 -1.0559 -0.6264  2.2208
11050SOL     OW34570   8.162   6.866   2.357 -0.0926  0.3648  0.4166
11050SOL    HW134571   8.086   6.922   2.362  0.8377  1.6551  0.5652
11050SOL    HW234572   8.230   6.912   2.407  0.3102 -1.5705  1.8293
11051SOL     OW34573   8.782   3.790   3.118 -0.3816  0.1520  0.2169
11051SOL    HW134574   8.852   3.738   3.078 -0.2766  0.0078  0.5827
11051SOL    HW234575   8.740   3.729   3.179 -1.6369 -0.1583 -0.9039
11052SOL     OW34576   5.453   4.531   7.582  0.3238 -0.1877 -0.4314
11052SOL    HW134577   5.507   4.461   7.617  1.5552 -0.1866 -2.1762
11052SOL    HW234578   5.404   4.490   7.511 -2.2746 -0.2513  1.2550
11053SOL     OW34579   3.355   2.576   6.145 -0.4197 -0.1761 -0.9898
11053SOL    HW134580   3.397   2.593   6.060 -2.8336 -1.9287 -2.6806
11053SOL    HW234581   3.274   2.626   6.142 -0.9582 -0.9787 -0.1136
11054SOL     OW34582   6.053   8.251   9.153  0.2037 -0.5133 -0.3997
11054SOL    HW134583   6.023   8.189   9.220  2.2951 -0.8430  0.2934
11054SOL    HW234584   6.022   8.336   9.184 -0.0814 -0.8444  0.2410
11055SOL     OW34585   8.491   5.760   4.308  0.0830  0.0161 -0.1639
11055SOL    HW134586   8.545   5.772   4.386 -0.0314 -0.6190  0.0202
11055SOL    HW234587   8.549   5.718   4.245 -0.1513 -0.5249 -0.0202
11056SOL     OW34588   9.049   8.997   6.211 -0.0694 -0.0406  0.1447
11056SOL    HW134589   9.059   8.987   6.116  0.4624 -0.0687  0.2012
11056SOL    HW234590   9.126   9.048   6.237  0.3574 -0.9599  0.7156
11057SOL     OW34591   9.086   7.050   7.357 -1.0354  0.0265 -0.1927
11057SOL    HW134592   9.123   7.069   7.270  0.2210  0.9228  0.5053
11057SOL    HW234593   9.132   7.110   7.416  0.5154 -2.7280  1.5986
11058SOL     OW34594   2.500   2.017   9.207 -0.2688 -0.1129  0.0618
11058SOL    HW134595   2.491   1.933   9.251 -0.3212  0.8225  1.9281
11058SOL    HW234596   2.582   2.009   9.157  0.9375 -0.5558  1.9893
11059SOL     OW34597   0.190   6.975   3.192  0.5260  0.4929  0.4371
11059SOL    HW134598   0.114   6.916   3.188  0.4024  0.4691  2.2861
11059SOL    HW234599   0.248   6.945   3.122 -0.3249 -0.6982  0.2153
11060SOL     OW34600   0.114   1.069   8.056  0.0916  0.5333 -0.4376
11060SOL    HW134601   0.044   1.135   8.055 -0.3457  0.0899  0.1467
11060SOL    HW234602   0.083   1.002   8.118  0.4884 -0.2602 -1.0743
11061SOL     OW34603   1.283   1.114   3.280  0.1895 -0.1101 -0.2068
11061SOL    HW134604   1.238   1.169   3.344  1.6663  0.6445  0.2344
11061SOL    HW234605   1.322   1.177   3.218  0.8792 -0.7161 -0.3992
11062SOL     OW34606   0.201   4.845   9.013  0.1066 -0.2336 -0.2930
11062SOL    HW134607   0.145   4.920   9.036 -0.1928 -0.4757 -0.2226
11062SOL    HW234608   0.245   4.871   8.933 -0.3905 -0.1840 -0.5510
11063SOL     OW34609   5.667   2.728   6.130  0.1463  0.4870 -0.1433
11063SOL    HW134610   5.717   2.680   6.065 -1.3318 -1.0743 -0.1925
11063SOL    HW234611   5.688   2.685   6.214  2.2093  2.6170  0.5376
11064SOL     OW34612   2.906   1.187   9.095  0.4254  0.0809 -0.0367
11064SOL    HW134613   2.896   1.268   9.046 -0.4048 -0.0370 -0.0862
11064SOL    HW234614   2.866   1.120   9.038  0.4506 -0.2363  0.3165
11065SOL     OW34615   1.884   9.247   3.213  0.0323  0.5146  0.0727
11065SOL    HW134616   1.848   9.307   3.148 -0.7266 -1.4172 -1.4119
11065SOL    HW234617   1.857   9.284   3.297  0.6678  2.8672 -0.6879
11066SOL     OW34618   3.292   2.821   2.719  0.4745  0.7512  0.1343
11066SOL    HW134619   3.354   2.751   2.696 -1.3371 -1.0927  0.5623
11066SOL    HW234620   3.290   2.878   2.642  1.1410 -0.3336 -0.7106
11067SOL     OW34621   5.023   1.630   4.564 -0.1506 -0.2960 -0.3588
11067SOL    HW134622   5.067   1.594   4.487 -1.6270 -1.0237 -0.9169
11067SOL    HW234623   5.087   1.623   4.635  1.1569  0.1569 -1.4536
11068SOL     OW34624   4.975   3.342   8.816  0.4670 -0.2171  0.1271
11068SOL    HW134625   4.949   3.295   8.737 -2.0334  0.4482  0.4715
11068SOL    HW234626   5.037   3.284   8.860  2.5141 -0.2877 -2.6133
11069SOL     OW34627   8.102   5.443   9.113  0.2164 -0.3379  0.0807
11069SOL    HW134628   8.074   5.454   9.022  0.0650  1.2280  0.2807
11069SOL    HW234629   8.152   5.522   9.132  0.4998 -0.7801  1.2731
11070SOL     OW34630   3.149   4.302   0.172 -0.2761  0.8352  0.5169
11070SOL    HW134631   3.170   4.228   0.116  1.5434  0.5662  1.4415
11070SOL    HW234632   3.142   4.377   0.113  0.8588  0.4269 -0.1722
11071SOL     OW34633   6.375   1.400   2.682 -0.0565  0.3970 -0.6221
11071SOL    HW134634   6.395   1.314   2.645  1.7577  0.0973  0.8868
11071SOL    HW234635   6.293   1.387   2.729 -0.7023 -0.0336 -1.8252
11072SOL     OW34636   8.159   5.769   1.639  0.3018  0.2334 -0.1035
11072SOL    HW134637   8.075   5.751   1.681 -1.1881  0.6204 -2.7068
11072SOL    HW234638   8.203   5.831   1.698 -1.9906  1.3939  0.4984
11073SOL     OW34639   0.497   0.099   0.524  0.0159 -0.4428 -0.1151
11073SOL    HW134640   0.493   0.179   0.473  0.0705  0.6262  1.4863
11073SOL    HW234641   0.555   0.041   0.474  0.2939  0.6499 -1.0975
11074SOL     OW34642   5.347   0.693   8.792 -0.1194 -0.0118 -0.1492
11074SOL    HW134643   5.416   0.739   8.839 -1.4847  0.5287  1.4333
11074SOL    HW234644   5.361   0.717   8.700  1.4853  0.4455  0.1799
11075SOL     OW34645   4.292   6.177   2.851 -0.4037 -0.7175  0.2258
11075SOL    HW134646   4.211   6.126   2.856 -0.7838 -0.1186  0.2620
11075SOL    HW234647   4.319   6.169   2.760 -3.4815  3.4963 -1.4133
11076SOL     OW34648   2.180   1.562   0.342 -0.0561 -0.2079  0.5598
11076SOL    HW134649   2.105   1.520   0.300  1.1484 -0.6071 -1.3646
11076SOL    HW234650   2.206   1.631   0.280  2.3975 -1.4467  0.0749
11077SOL     OW34651   1.331   8.330   8.690 -0.0482 -0.0616  0.4385
11077SOL    HW134652   1.300   8.302   8.776  1.8728  2.4571  2.1037
11077SOL    HW234653   1.253   8.328   8.634 -1.3019 -2.0119  2.1342
11078SOL     OW34654   4.228   5.967   6.057 -0.4936  0.0559 -0.4574
11078SOL    HW134655   4.292   6.030   6.091  0.4874  0.0308 -2.1593
11078SOL    HW234656   4.153   6.020   6.030 -1.4464  0.0539  1.8962
11079SOL     OW34657   0.212   5.597   7.233  0.6939 -0.1259 -0.3428
11079SOL    HW134658   0.120   5.624   7.241  0.8690  0.6098 -0.6924
11079SOL    HW234659   0.260   5.661   7.285  1.1386  0.3637 -1.3413
11080SOL     OW34660   2.136   5.907   6.893  0.0236 -0.5635 -0.1561
11080SOL    HW134661   2.215   5.858   6.871  0.4031 -0.7984  1.5638
11080SOL    HW234662   2.073   5.840   6.921 -0.2143 -0.2553  0.0593
11081SOL     OW34663   2.084   2.974   1.752  0.1616 -0.9961  0.1799
11081SOL    HW134664   2.174   3.005   1.746 -0.2015  0.0352 -0.3263
11081SOL    HW234665   2.070   2.956   1.845  0.3002  0.7472  0.5665
11082SOL     OW34666   4.345   3.720   1.918  0.4287  0.1765 -0.2861
11082SOL    HW134667   4.427   3.706   1.872  0.6450 -0.9874  0.4174
11082SOL    HW234668   4.353   3.669   1.999 -1.8455 -1.8903 -1.2279
11083SOL     OW34669   3.499   3.075   3.657 -0.5642 -0.3464 -0.0984
11083SOL    HW134670   3.477   3.014   3.586  1.2710 -4.0532  2.1686
11083SOL    HW234671   3.420   3.126   3.670 -2.3819 -2.4106 -2.1258
11084SOL     OW34672   3.691   3.804   3.118  0.4114 -0.6142 -0.5384
11084SOL    HW134673   3.619   3.784   3.177  1.2822  1.2875  1.3069
11084SOL    HW234674   3.742   3.723   3.114 -1.4727 -1.8094 -1.4487
11085SOL     OW34675   1.161   0.814   3.565  0.4523  0.4838 -0.0658
11085SOL    HW134676   1.108   0.858   3.499 -1.5296 -1.2182  0.2607
11085SOL    HW234677   1.200   0.740   3.519  1.2927  0.8336  0.0666
11086SOL     OW34678   0.339   8.338   1.898  0.4714 -0.2260  0.4079
11086SOL    HW134679   0.344   8.347   1.803  0.1580  1.6268  0.5463
11086SOL    HW234680   0.323   8.244   1.912  3.7596 -1.1790 -1.1922
11087SOL     OW34681   9.213   6.679   3.810 -0.6713 -0.1343  0.0059
11087SOL    HW134682   9.178   6.646   3.728 -0.1378  0.3808 -0.4368
11087SOL    HW234683   9.226   6.773   3.796  0.2960 -0.2010  0.3560
11088SOL     OW34684   0.619   6.546   5.720  0.3324 -0.2354  0.0738
11088SOL    HW134685   0.640   6.511   5.807  0.4643  0.6903  0.4338
11088SOL    HW234686   0.559   6.482   5.682  1.8179 -1.6799  0.0320
11089SOL     OW34687   1.232   9.087   3.468  0.4634  0.3894 -0.2194
11089SOL    HW134688   1.296   9.108   3.535 -0.8629  0.7588  0.9956
11089SOL    HW234689   1.225   9.166   3.415 -0.5991  1.1853  1.0435
11090SOL     OW34690   3.588   2.603   2.354 -0.0625 -0.0768 -0.6385
11090SOL    HW134691   3.668   2.654   2.343 -1.0831  1.2222 -2.8908
11090SOL    HW234692   3.519   2.669   2.363 -1.0406 -1.1381 -0.0345
11091SOL     OW34693   6.032   4.927   7.737 -0.4902  0.0560  0.8004
11091SOL    HW134694   5.974   4.962   7.669  0.2606  1.5287  0.8982
11091SOL    HW234695   6.045   4.835   7.711 -0.6530  0.4326 -0.7413
11092SOL     OW34696   1.243   7.252   2.260 -0.0090  0.0654 -0.5134
11092SOL    HW134697   1.271   7.342   2.275 -0.6268  0.0067  1.2094
11092SOL    HW234698   1.306   7.199   2.309 -1.6505 -0.1912  1.4640
11093SOL     OW34699   0.831   0.025   7.189  0.1283 -0.3805 -0.1566
11093SOL    HW134700   0.823   0.084   7.114  0.9905  0.8914  0.7078
11093SOL    HW234701   0.744   0.021   7.227  0.1463  0.7215  0.0318
11094SOL     OW34702   5.261   1.492   2.387  0.3875 -0.0354 -0.4160
11094SOL    HW134703   5.283   1.423   2.450  0.5326  0.9954  0.7161
11094SOL    HW234704   5.286   1.574   2.432  0.2248  0.7547 -1.7117
11095SOL     OW34705   2.611   8.486   7.715  0.3082 -0.2790 -0.7333
11095SOL    HW134706   2.628   8.579   7.701  1.0783 -0.5926 -2.0652
11095SOL    HW234707   2.543   8.464   7.652  1.1343 -0.9045 -1.4409
11096SOL     OW34708   4.092   8.522   3.016  0.5726 -0.6327  0.1269
11096SOL    HW134709   4.117   8.445   2.964 -0.1111 -0.7796 -0.0060
11096SOL    HW234710   4.167   8.580   3.011  1.8900 -2.0835  1.8101
11097SOL     OW34711   3.432   0.486   0.650 -0.1849  0.1641 -0.0579
11097SOL    HW134712   3.430   0.392   0.664 -0.0904  0.5283  3.0823
11097SOL    HW234713   3.521   0.512   0.674  0.1046  0.9949 -1.8492
11098SOL     OW34714   8.636   3.605   8.011 -0.1732 -0.6022  0.2619
11098SOL    HW134715   8.628   3.683   7.957 -1.8487 -0.9440 -0.0442
11098SOL    HW234716   8.730   3.595   8.025  0.1085  1.1661 -0.1096
11099SOL     OW34717   1.981   6.623   4.426  0.1445  0.3872  0.0071
11099SOL    HW134718   2.067   6.665   4.430  0.5296 -0.4838  2.5100
11099SOL    HW234719   1.961   6.618   4.332  2.5661  1.1106 -0.6147
11100SOL     OW34720   4.786   4.201   3.741 -0.0756  0.2216 -0.0764
11100SOL    HW134721   4.713   4.192   3.681 -0.7400 -0.1676  0.7626
11100SOL    HW234722   4.803   4.112   3.772 -0.5546  0.5469  1.2211
11101SOL     OW34723   4.745   6.532   9.197  0.0644 -0.2307  0.3219
11101SOL    HW134724   4.747   6.584   9.278  0.6316 -0.5544  0.5179
11101SOL    HW234725   4.651   6.519   9.180 -0.0563 -0.4433  1.1127
11102SOL     OW34726   8.548   5.504   6.995 -0.5329  0.0780 -0.7436
11102SOL    HW134727   8.575   5.414   6.975 -0.2075 -0.2768  1.0973
11102SOL    HW234728   8.470   5.495   7.049 -1.2994  0.9637 -1.6674
11103SOL     OW34729   8.712   3.015   0.577  0.3471  0.2634  0.3282
11103SOL    HW134730   8.800   3.024   0.540  0.8809  0.2203  1.5196
11103SOL    HW234731   8.724   2.955   0.651 -0.8941 -0.6131 -0.1488
11104SOL     OW34732   2.711   5.831   2.369 -0.1675  0.5906 -0.7188
11104SOL    HW134733   2.794   5.855   2.327 -0.5853 -1.1471 -2.7176
11104SOL    HW234734   2.644   5.871   2.314 -0.6998  0.3303 -0.2642
11105SOL     OW34735   0.799   5.500   4.568  0.4601  0.0527 -0.0698
11105SOL    HW134736   0.775   5.575   4.622  1.8697  1.0162 -0.7010
11105SOL    HW234737   0.725   5.440   4.575 -0.8560  1.6414  0.2062
11106SOL     OW34738   8.186   9.236   6.059  0.2043 -0.4915 -0.0381
11106SOL    HW134739   8.131   9.163   6.030 -0.7814  0.2783 -0.1406
11106SOL    HW234740   8.198   9.289   5.980  0.8964 -0.5188  0.0449
11107SOL     OW34741   6.695   0.870   3.140  0.2965 -0.2908 -0.0263
11107SOL    HW134742   6.640   0.925   3.084  0.8756  0.9201  0.5531
11107SOL    HW234743   6.784   0.886   3.110  0.4602 -1.0440  0.0472
11108SOL     OW34744   9.104   6.750   8.635 -0.1939 -0.3782  0.7078
11108SOL    HW134745   9.054   6.794   8.566 -2.4272 -0.3131  2.2526
11108SOL    HW234746   9.097   6.808   8.710  3.1647  0.1077  0.7826
11109SOL     OW34747   6.837   3.084   0.311  0.5637 -0.1083 -0.0920
11109SOL    HW134748   6.759   3.139   0.323  1.2355  0.9879 -0.4986
11109SOL    HW234749   6.803   3.001   0.279 -0.5749 -0.3112  1.5371
11110SOL     OW34750   2.344   6.541   4.333 -0.2738 -0.2689  0.3627
11110SOL    HW134751   2.386   6.553   4.247 -1.9539 -0.6693 -0.5620
11110SOL    HW234752   2.376   6.614   4.386 -0.7137  1.1415 -1.2377
11111SOL     OW34753   7.789   5.737   5.865 -0.4336  0.0881  0.3152
11111SOL    HW134754   7.721   5.686   5.910 -0.7844  0.1752 -0.1049
11111SOL    HW234755   7.823   5.796   5.932 -1.8467  1.1207  0.1769
11112SOL     OW34756   3.931   7.169   8.935  0.0446  0.3184  0.5183
11112SOL    HW134757   4.013   7.215   8.952  0.7729 -1.3535  1.7130
11112SOL    HW234758   3.950   7.110   8.862  0.1941 -0.7256  1.3796
11113SOL     OW34759   7.144   2.546   2.136 -1.0385 -0.6239 -0.0080
11113SOL    HW134760   7.204   2.598   2.083 -0.7536 -1.1212 -0.1800
11113SOL    HW234761   7.198   2.516   2.210 -1.8440  1.5174  1.5575
11114SOL     OW34762   0.292   9.267   4.623 -0.0632 -0.1759  0.5539
11114SOL    HW134763   0.225   9.323   4.583  0.6129 -0.0868 -0.5244
11114SOL    HW234764   0.245   9.191   4.655 -0.7752  0.2246  0.4777
11115SOL     OW34765   5.306   8.587   1.723 -0.1443  0.6664 -0.0910
11115SOL    HW134766   5.226   8.573   1.772 -0.2304  0.6099 -0.2470
11115SOL    HW234767   5.277   8.609   1.634  0.0127  0.5804 -0.1645
11116SOL     OW34768   8.192   4.239   6.864  0.0407 -0.0019 -0.4707
11116SOL    HW134769   8.215   4.312   6.921  1.2640  0.6323 -1.7108
11116SOL    HW234770   8.232   4.163   6.906 -1.7732 -0.1268  1.1649
11117SOL     OW34771   8.715   1.631   7.537 -0.1024  0.4052  0.1997
11117SOL    HW134772   8.709   1.555   7.479  0.5241 -1.2178  2.1273
11117SOL    HW234773   8.624   1.654   7.556 -0.3428  1.6838 -2.2348
11118SOL     OW34774   7.218   7.106   4.716 -0.0855  0.1177 -0.4917
11118SOL    HW134775   7.247   7.018   4.693  0.0236  0.5047 -1.9243
11118SOL    HW234776   7.205   7.103   4.811 -0.8921 -1.6767 -0.6234
11119SOL     OW34777   1.012   9.107   8.337  0.1533 -0.0768 -0.5697
11119SOL    HW134778   1.076   9.073   8.273  0.4287  0.7903 -0.7632
11119SOL    HW234779   1.057   9.099   8.421 -0.8071 -2.7541 -0.2084
11120SOL     OW34780   4.509   3.711   3.251 -0.6413 -0.1578 -0.4524
11120SOL    HW134781   4.558   3.793   3.263 -1.5764  0.3531  0.0795
11120SOL    HW234782   4.572   3.650   3.215  0.5039  0.3516  0.6003
11121SOL     OW34783   0.383   1.779   1.259 -0.5344  0.1943  0.0784
11121SOL    HW134784   0.350   1.810   1.343  1.7906  0.7370  0.8821
11121SOL    HW234785   0.414   1.690   1.276 -0.7604  0.0192 -0.4064
11122SOL     OW34786   7.624   4.869   3.365  0.8734 -0.2674 -0.1175
11122SOL    HW134787   7.657   4.816   3.437 -0.8488 -2.2653 -0.7323
11122SOL    HW234788   7.702   4.915   3.333  2.6411 -2.9270  0.0283
11123SOL     OW34789   5.931   7.860   1.000  0.6303  0.2253  0.0581
11123SOL    HW134790   5.930   7.855   0.904  0.7885  0.5437  0.0375
11123SOL    HW234791   5.852   7.813   1.028  1.8436 -2.0426 -0.1184
11124SOL     OW34792   6.069   3.512   3.915 -0.1274 -0.6057 -0.2050
11124SOL    HW134793   6.075   3.588   3.973  1.4706  0.8206 -2.0846
11124SOL    HW234794   6.085   3.437   3.973 -1.3149  0.4803  1.6349
11125SOL     OW34795   0.873   8.978   5.739 -0.3326 -0.3589  0.2886
11125SOL    HW134796   0.904   9.038   5.806  0.2659 -0.0719 -0.2312
11125SOL    HW234797   0.783   8.958   5.765  0.1742 -0.9705  1.6528
11126SOL     OW34798   1.418   2.716   2.758  0.2899  0.2386 -0.3517
11126SOL    HW134799   1.416   2.755   2.846  1.1057 -1.3276  0.4159
11126SOL    HW234800   1.511   2.701   2.741  0.0398 -0.8369 -0.8452
11127SOL     OW34801   4.450   1.526   0.348 -0.5900  0.2253  0.3399
11127SOL    HW134802   4.527   1.498   0.300 -0.8080 -1.1524  0.7482
11127SOL    HW234803   4.389   1.555   0.281 -0.0030  0.6169 -0.0352
11128SOL     OW34804   4.108   3.105   3.434 -0.0168 -0.0956 -0.6972
11128SOL    HW134805   4.066   3.063   3.509  1.6754 -0.2062  0.2349
11128SOL    HW234806   4.065   3.191   3.428  0.0502  0.0520  0.6142
11129SOL     OW34807   1.528   7.962   8.111 -0.6952  0.0535 -0.5064
11129SOL    HW134808   1.589   8.013   8.058 -0.2558 -2.3368 -2.5264
11129SOL    HW234809   1.584   7.901   8.159 -1.3330 -1.6000 -1.7355
11130SOL     OW34810   8.563   0.782   8.191  0.0724  0.0072  0.2312
11130SOL    HW134811   8.619   0.706   8.209  0.6000  0.7163  1.7851
11130SOL    HW234812   8.489   0.771   8.250 -0.5064  0.0421 -0.4790
11131SOL     OW34813   2.858   4.025   7.095 -0.5763  0.1275 -0.0323
11131SOL    HW134814   2.904   4.018   7.178 -2.7213 -0.6850  1.1847
11131SOL    HW234815   2.816   4.111   7.098 -1.1329 -0.1391  0.0085
11132SOL     OW34816   1.946   8.887   7.634  0.5626  0.2262 -0.4130
11132SOL    HW134817   1.855   8.890   7.603  0.0390 -0.0027  1.0206
11132SOL    HW234818   1.961   8.973   7.672  1.3308  0.6442 -1.6118
11133SOL     OW34819   6.716   2.040   3.282 -0.1312  0.4047  0.0439
11133SOL    HW134820   6.672   2.027   3.366  0.3407  0.8359  0.3707
11133SOL    HW234821   6.809   2.034   3.304 -0.0162  0.1957 -0.5087
11134SOL     OW34822   2.362   8.317   1.403 -0.3631 -0.8254  0.6096
11134SOL    HW134823   2.365   8.411   1.422  0.0253 -1.0589  1.7774
11134SOL    HW234824   2.284   8.286   1.450 -0.0552 -1.2122  0.8724
11135SOL     OW34825   6.746   4.089   5.288  0.0075 -0.1617  0.4930
11135SOL    HW134826   6.686   4.141   5.341 -1.8849 -0.0344 -1.6414
11135SOL    HW234827   6.788   4.153   5.230 -0.0630 -0.6097 -0.0647
11136SOL     OW34828   7.566   5.876   6.028  0.1872 -0.5178  0.3229
11136SOL    HW134829   7.552   5.782   6.017 -1.9307 -0.1952 -0.1716
11136SOL    HW234830   7.661   5.885   6.036  0.5163 -2.5931 -0.5621
11137SOL     OW34831   1.077   3.913   9.266  0.4723  0.3926 -0.5031
11137SOL    HW134832   1.053   3.975   9.197 -0.1721  0.5508 -0.1491
11137SOL    HW234833   1.012   3.927   9.335  1.4238  0.6285  0.3807
11138SOL     OW34834   3.476   0.453   0.360  0.0739  0.3568 -0.0494
11138SOL    HW134835   3.430   0.455   0.444 -1.8066  0.7535 -1.0251
11138SOL    HW234836   3.463   0.541   0.324 -1.0337 -0.4403 -1.6918
11139SOL     OW34837   0.319   3.846   1.804 -0.4236 -0.0526 -0.5741
11139SOL    HW134838   0.245   3.906   1.793 -0.0782  0.3877 -0.5168
11139SOL    HW234839   0.381   3.894   1.858  0.1302 -0.2244 -1.0500
11140SOL     OW34840   4.805   4.047   3.085  0.1294  0.0008  0.1818
11140SOL    HW134841   4.895   4.023   3.107 -0.0744 -1.0703 -0.1337
11140SOL    HW234842   4.812   4.137   3.053  1.1143 -0.1405 -0.0295
11141SOL     OW34843   0.176   8.736   6.696  0.1033  0.0841  0.2799
11141SOL    HW134844   0.229   8.814   6.714 -0.5020  0.5663  0.0185
11141SOL    HW234845   0.110   8.766   6.633  1.4434 -1.2447 -1.8783
11142SOL     OW34846   4.519   7.617   5.740 -0.0806 -0.1681 -0.1251
11142SOL    HW134847   4.442   7.662   5.705  0.5701  1.7778  0.8263
11142SOL    HW234848   4.483   7.539   5.783 -1.3966  0.1771 -0.5541
11143SOL     OW34849   1.461   6.792   0.256 -0.3875  0.7922  0.0379
11143SOL    HW134850   1.527   6.845   0.212 -0.5162  1.3084  0.4658
11143SOL    HW234851   1.384   6.798   0.199  0.6842 -2.0338 -1.9484
11144SOL     OW34852   0.019   7.502   7.971  0.3036 -0.0435 -0.3257
11144SOL    HW134853  -0.028   7.575   7.929 -0.2229 -0.4715 -0.4986
11144SOL    HW234854  -0.029   7.487   8.053  1.1005  0.5421  0.2586
11145SOL     OW34855   4.243   5.466   3.593  0.3895  0.2119 -0.3309
11145SOL    HW134856   4.308   5.397   3.577  0.2821 -0.5241  1.9652
11145SOL    HW234857   4.164   5.419   3.620 -1.5153  1.0479 -3.8718
11146SOL     OW34858   7.163   5.529   4.685  0.3354  0.1002 -0.2674
11146SOL    HW134859   7.116   5.603   4.723  1.0071  0.7205 -0.6227
11146SOL    HW234860   7.181   5.556   4.595 -1.0281 -1.2488 -1.0034
11147SOL     OW34861   6.642   8.448   3.557  0.6244  0.6360  0.1661
11147SOL    HW134862   6.670   8.373   3.610  1.2059 -0.1101 -1.1506
11147SOL    HW234863   6.547   8.449   3.567  0.5125 -0.8099 -0.4164
11148SOL     OW34864   8.596   0.856   6.210 -0.5373  1.3131  0.0526
11148SOL    HW134865   8.568   0.770   6.242 -0.5443  1.4743  0.4838
11148SOL    HW234866   8.689   0.860   6.231 -0.6360  1.5963  0.4551
11149SOL     OW34867   6.859   5.904   2.603  0.1150  0.1448 -0.0367
11149SOL    HW134868   6.888   5.995   2.615 -0.6210  0.3578  0.1824
11149SOL    HW234869   6.865   5.865   2.690  0.4394 -0.0265 -0.1321
11150SOL     OW34870   1.800   6.215   9.177  0.5129 -0.7569  0.0783
11150SOL    HW134871   1.873   6.216   9.115  0.7847  0.4992  0.3814
11150SOL    HW234872   1.730   6.262   9.132 -0.0083 -1.6706 -0.0819
11151SOL     OW34873   9.232   0.053   1.292 -0.1782 -0.3980 -0.1135
11151SOL    HW134874   9.147   0.023   1.325 -0.4350  0.5812  0.1409
11151SOL    HW234875   9.218   0.144   1.268  0.6930 -0.3533 -0.4951
11152SOL     OW34876   1.635   8.343   1.163  0.1081  0.2961  0.0178
11152SOL    HW134877   1.540   8.337   1.163  0.1710 -2.3431 -1.8197
11152SOL    HW234878   1.665   8.255   1.185  2.0580  0.3939 -1.8527
11153SOL     OW34879   7.467   2.239   2.605 -0.1143  0.2853  0.1490
11153SOL    HW134880   7.448   2.324   2.566 -2.1675  0.9588  2.3564
11153SOL    HW234881   7.448   2.251   2.698  3.2615 -1.5484  1.2265
11154SOL     OW34882   0.092   0.765   1.734  0.4002  0.1566  0.0978
11154SOL    HW134883   0.180   0.748   1.701 -0.3479 -1.5392 -1.1519
11154SOL    HW234884   0.034   0.722   1.672 -1.4796  2.9011 -0.2219
11155SOL     OW34885   1.822   8.198   6.808 -0.2368  0.5507 -0.1215
11155SOL    HW134886   1.775   8.162   6.883 -0.3316  0.7753 -0.0702
11155SOL    HW234887   1.842   8.123   6.752 -0.7380  0.4669 -0.1871
11156SOL     OW34888   1.316   7.977   1.449 -0.3099  0.1537 -0.1424
11156SOL    HW134889   1.311   7.895   1.498  0.7670  0.3597  0.3497
11156SOL    HW234890   1.366   7.956   1.371 -0.6340  0.1945 -0.3653
11157SOL     OW34891   5.315   5.024   5.433 -0.0787  0.0165 -0.0234
11157SOL    HW134892   5.394   5.041   5.382 -0.5264  0.2041 -0.6631
11157SOL    HW234893   5.336   5.058   5.520  0.5350  0.0888 -0.1930
11158SOL     OW34894   0.627   8.426   0.146  0.2923  0.0727  0.5953
11158SOL    HW134895   0.620   8.340   0.104  0.5691 -0.3268  1.3536
11158SOL    HW234896   0.721   8.440   0.157  0.2584  0.5453  0.3471
11159SOL     OW34897   8.525   4.582   2.893  0.0006  0.5423 -0.8998
11159SOL    HW134898   8.493   4.553   2.808  0.8719 -0.7811 -0.7947
11159SOL    HW234899   8.492   4.518   2.955  1.9823 -0.3171 -0.6693
11160SOL     OW34900   1.530   0.745   6.111  0.5895 -0.2567  0.4791
11160SOL    HW134901   1.537   0.772   6.202 -0.3360 -1.2821  0.8741
11160SOL    HW234902   1.437   0.759   6.089  0.4376 -1.5525  0.2176
11161SOL     OW34903   6.185   0.678   3.744 -0.1999  0.4637  0.2237
11161SOL    HW134904   6.203   0.614   3.813  1.1323  1.8082  1.1932
11161SOL    HW234905   6.220   0.638   3.664  4.0388  1.3423  1.3898
11162SOL     OW34906   7.695   7.604   3.285 -0.1070  0.1648 -0.0214
11162SOL    HW134907   7.780   7.612   3.242  0.1154  3.2603  0.7268
11162SOL    HW234908   7.632   7.614   3.214  0.0830 -2.0771 -0.5701
11163SOL     OW34909   6.933   6.274   7.780  0.0294 -0.5216 -0.2708
11163SOL    HW134910   6.921   6.180   7.770 -0.7297 -0.4859  0.2609
11163SOL    HW234911   6.961   6.304   7.694  0.9894 -1.3314 -0.2634
11164SOL     OW34912   7.264   7.818   8.931 -0.2857 -0.8523  0.8229
11164SOL    HW134913   7.193   7.843   8.872 -0.0842 -1.4211  0.3423
11164SOL    HW234914   7.337   7.875   8.907 -0.9001  0.5287  2.0641
11165SOL     OW34915   7.100   4.172   4.756 -0.2649  0.4153  0.2720
11165SOL    HW134916   7.163   4.240   4.731  0.7010 -1.6328 -3.5809
11165SOL    HW234917   7.140   4.129   4.831  1.6404  0.8533 -0.4290
11166SOL     OW34918   2.572   6.234   1.201 -0.6577 -0.0901 -0.3716
11166SOL    HW134919   2.502   6.179   1.237 -1.9650  0.1749 -2.3942
11166SOL    HW234920   2.619   6.176   1.141 -0.4341  0.3066 -0.5809
11167SOL     OW34921   1.012   2.256   1.704  0.1814 -0.3849 -0.1638
11167SOL    HW134922   0.941   2.316   1.681  0.7037  0.5902  0.6673
11167SOL    HW234923   0.967   2.177   1.733 -0.5552 -0.0769 -0.4375
11168SOL     OW34924   1.609   8.061   6.368  0.4231  0.5194 -0.2900
11168SOL    HW134925   1.641   7.986   6.317  0.9649  0.5765 -0.0353
11168SOL    HW234926   1.519   8.037   6.392  0.4413  0.1436 -0.5874
11169SOL     OW34927   3.487   3.031   6.686 -0.0108 -0.7155  0.1076
11169SOL    HW134928   3.422   3.100   6.696 -1.6502 -2.1215 -0.4888
11169SOL    HW234929   3.543   3.039   6.764  0.3557  1.7443 -0.3169
11170SOL     OW34930   5.097   4.257   4.126 -0.0676 -0.7076  0.0262
11170SOL    HW134931   5.071   4.173   4.087  0.0480 -0.0641 -1.5020
11170SOL    HW234932   5.015   4.297   4.155 -0.6349  0.2502 -2.6060
11171SOL     OW34933   6.652   2.534   4.684 -0.0472 -0.4365 -0.1170
11171SOL    HW134934   6.713   2.599   4.719 -0.7359 -0.0614  0.4287
11171SOL    HW234935   6.696   2.450   4.698  1.0283 -0.0783 -1.1936
11172SOL     OW34936   1.590   2.710   3.653 -0.1968  0.3130 -0.2346
11172SOL    HW134937   1.557   2.732   3.740 -0.9488 -1.0426 -0.1466
11172SOL    HW234938   1.583   2.615   3.648 -0.5519  0.3969 -1.9236
11173SOL     OW34939   3.895   0.536   7.452  0.7917 -0.8167 -0.8723
11173SOL    HW134940   3.802   0.556   7.442  0.6603 -0.0395  1.2781
11173SOL    HW234941   3.897   0.458   7.507  1.2939  1.5069  2.7499
11174SOL     OW34942   9.157   5.773   7.163  0.5948 -0.1448 -0.4047
11174SOL    HW134943   9.202   5.793   7.081 -0.3632  0.4682 -0.7897
11174SOL    HW234944   9.107   5.694   7.145 -0.4956  0.6102 -0.7655
11175SOL     OW34945   2.696   4.376   1.279  0.4655  0.0483 -0.2993
11175SOL    HW134946   2.783   4.351   1.312  0.0977  0.7051  1.2437
11175SOL    HW234947   2.710   4.462   1.240  0.6925 -0.2669 -0.9225
11176SOL     OW34948   3.199   7.480   3.676  0.5774  0.1326  0.1765
11176SOL    HW134949   3.118   7.519   3.643  0.3908 -0.5873 -0.2358
11176SOL    HW234950   3.209   7.517   3.764  0.2719  0.8944 -0.1007
11177SOL     OW34951   6.020   3.061   7.134  0.0898 -0.5581 -0.2901
11177SOL    HW134952   5.946   3.008   7.163  0.4547 -0.5916  0.6436
11177SOL    HW234953   6.028   3.043   7.040 -0.6727 -1.0507 -0.2694
11178SOL     OW34954   8.933   1.213   7.850 -0.1151 -0.6690  0.0054
11178SOL    HW134955   8.874   1.255   7.788  0.6862 -1.2563 -1.1879
11178SOL    HW234956   8.999   1.280   7.869 -0.1658 -0.6025 -0.0535
11179SOL     OW34957   6.585   7.558   5.463  0.4114 -0.1152  0.1823
11179SOL    HW134958   6.675   7.533   5.485  0.6835  1.6627  1.2898
11179SOL    HW234959   6.589   7.582   5.371  0.6800 -1.6396 -0.2278
11180SOL     OW34960   2.285   1.164   3.619  0.7052 -0.0708 -0.2047
11180SOL    HW134961   2.345   1.206   3.680  1.7272  0.5538 -1.5980
11180SOL    HW234962   2.335   1.155   3.538 -0.4326 -1.3811 -0.8071
11181SOL     OW34963   3.053   8.460   1.284  0.2050  0.2519  0.1161
11181SOL    HW134964   3.085   8.433   1.198 -0.4459  1.4220 -0.5049
11181SOL    HW234965   3.080   8.389   1.343 -0.4747 -1.1996 -1.2669
11182SOL     OW34966   0.412   3.784   4.823  0.1463 -0.1874  0.1931
11182SOL    HW134967   0.468   3.724   4.774  1.2814  1.9175 -1.2133
11182SOL    HW234968   0.328   3.780   4.777 -0.0046 -1.1454  0.5185
11183SOL     OW34969   5.656   1.436   1.331  0.3765  0.2448  0.4421
11183SOL    HW134970   5.561   1.440   1.340  0.1782 -2.5910  0.4961
11183SOL    HW234971   5.685   1.382   1.405  2.1727  1.8259  0.9766
11184SOL     OW34972   0.331   3.807   0.577 -0.6942  0.3799 -0.1861
11184SOL    HW134973   0.408   3.833   0.627 -0.5908 -0.5603  0.1625
11184SOL    HW234974   0.337   3.858   0.496 -0.5558  1.4798  0.4957
11185SOL     OW34975   0.455   5.344   3.543 -0.3519  0.1530  0.0777
11185SOL    HW134976   0.494   5.335   3.457 -2.9331 -0.3207 -1.1345
11185SOL    HW234977   0.443   5.255   3.575 -1.7994  0.1831 -0.2878
11186SOL     OW34978   4.598   2.810   6.801 -0.4255 -0.4705  0.0907
11186SOL    HW134979   4.636   2.731   6.761  0.0109 -0.5846  0.7160
11186SOL    HW234980   4.505   2.789   6.812 -0.3711 -0.7783 -0.0273
11187SOL     OW34981   3.302   8.693   0.940 -0.4638 -0.0993 -0.7596
11187SOL    HW134982   3.303   8.646   0.857 -0.5267  0.0763 -0.8604
11187SOL    HW234983   3.386   8.672   0.981 -0.8462 -0.9937 -0.4096
11188SOL     OW34984   1.443   3.262   8.813 -0.1499 -0.0192 -0.0796
11188SOL    HW134985   1.364   3.269   8.867 -0.0017  0.2484  0.1050
11188SOL    HW234986   1.413   3.275   8.723 -0.0621  1.9426  0.1327
11189SOL     OW34987   7.645   4.891   0.369  0.5418 -0.6608  0.3468
11189SOL    HW134988   7.677   4.826   0.306 -0.7907 -0.8876 -0.1433
11189SOL    HW234989   7.552   4.868   0.381  0.7756 -0.6757  2.4659
11190SOL     OW34990   2.828   1.737   1.260 -0.3523  0.3497 -0.1670
11190SOL    HW134991   2.808   1.760   1.169 -0.3123 -2.3347 -0.9552
11190SOL    HW234992   2.841   1.642   1.258  1.6587  0.4692  2.2978
11191SOL     OW34993   8.256   1.425   7.037  0.7383  0.2766 -0.8508
11191SOL    HW134994   8.239   1.470   6.954  0.2487  0.5153 -0.6220
11191SOL    HW234995   8.195   1.351   7.036  0.2599  0.6626 -0.4008
11192SOL     OW34996   5.426   5.217   2.592  0.1030  0.1956  0.1751
11192SOL    HW134997   5.423   5.121   2.595  2.7282  0.0507  1.6973
11192SOL    HW234998   5.513   5.237   2.557 -0.2562  2.0214  0.2197
11193SOL     OW34999   2.360   2.228   4.944 -0.2736 -0.9440 -0.5533
11193SOL    HW135000   2.396   2.297   5.000 -2.0261  0.0420 -0.5678
11193SOL    HW235001   2.272   2.214   4.977  0.0105 -3.1770 -0.6100
11194SOL     OW35002   5.242   2.485   1.341  0.2651 -0.0209 -0.5245
11194SOL    HW135003   5.302   2.538   1.289  0.2956 -0.4413 -0.9349
11194SOL    HW235004   5.214   2.416   1.281 -0.0166 -0.2826 -0.0990
11195SOL     OW35005   7.084   6.634   7.605 -0.6054  0.3471 -0.4898
11195SOL    HW135006   7.155   6.581   7.568  0.1281 -0.6352  2.0665
11195SOL    HW235007   7.097   6.721   7.569  1.0697 -0.1477 -1.1684
11196SOL     OW35008   6.199   2.085   6.112 -0.4836  0.1554 -0.3407
11196SOL    HW135009   6.148   2.004   6.121 -1.4545  0.7152 -0.6737
11196SOL    HW235010   6.205   2.098   6.017 -0.2328  0.4158 -0.2893
11197SOL     OW35011   0.016   9.169   8.292  0.4948 -0.3878 -0.0199
11197SOL    HW135012  -0.058   9.183   8.233  0.8386 -0.5269 -0.4902
11197SOL    HW235013   0.063   9.095   8.254  1.5515  0.4597 -0.4119
11198SOL     OW35014   3.877   4.665   4.722  0.5018  0.1624 -0.0953
11198SOL    HW135015   3.866   4.757   4.744 -0.9676  0.0461 -0.2400
11198SOL    HW235016   3.947   4.665   4.657  1.6643  0.9790  1.1073
11199SOL     OW35017   3.926   4.923   4.841 -0.4134 -0.1070  0.8485
11199SOL    HW135018   4.019   4.933   4.822 -0.2718 -0.1427  1.4974
11199SOL    HW235019   3.898   5.010   4.871 -0.4938 -0.1957  1.0341
11200SOL     OW35020   5.078   0.645   3.831 -0.2856  0.4700  0.8356
11200SOL    HW135021   5.052   0.564   3.876 -1.3665  0.7028  0.6729
11200SOL    HW235022   5.004   0.665   3.774  1.1285  0.0896 -1.2258
11201SOL     OW35023   4.530   4.168   2.815  0.2941 -0.2995  0.3770
11201SOL    HW135024   4.502   4.236   2.875 -3.4473  0.0779 -1.4847
11201SOL    HW235025   4.527   4.088   2.866 -2.1615  0.0977  1.0091
11202SOL     OW35026   5.883   2.604   3.601 -0.1768 -0.0528  0.0227
11202SOL    HW135027   5.973   2.576   3.584  0.0838  0.5717  0.3560
11202SOL    HW235028   5.887   2.699   3.607 -0.9299  0.0141 -0.3328
11203SOL     OW35029   5.150   2.153   8.290  0.2405 -0.5617 -0.0467
11203SOL    HW135030   5.191   2.066   8.291  1.8976  0.1297 -1.8296
11203SOL    HW235031   5.080   2.145   8.225 -0.0318 -0.7039  0.2553
11204SOL     OW35032   3.015   8.705   6.907  0.2751 -0.6469 -0.0952
11204SOL    HW135033   2.992   8.797   6.918  0.9456 -0.4717 -0.1533
11204SOL    HW235034   2.972   8.679   6.826  1.6107  0.1305 -1.0869
11205SOL     OW35035   2.562   8.467   6.968  0.1071  0.6047 -0.4940
11205SOL    HW135036   2.482   8.491   7.015  0.3893  0.3701  0.1129
11205SOL    HW235037   2.535   8.462   6.877 -0.3957  1.2895 -0.3919
11206SOL     OW35038   2.659   4.263   3.452 -0.2907  0.1282  0.5282
11206SOL    HW135039   2.703   4.345   3.476 -0.1341  0.0735  0.4307
11206SOL    HW235040   2.694   4.199   3.514 -0.7935  0.2386  0.9346
11207SOL     OW35041   4.572   2.265   0.563 -0.4041  1.3559 -0.2538
11207SOL    HW135042   4.658   2.258   0.522  0.6673  0.1093  2.0175
11207SOL    HW235043   4.571   2.352   0.603 -0.0562  1.2269  0.0323
11208SOL     OW35044   2.813   3.915   5.753 -0.7430 -0.1486 -0.4959
11208SOL    HW135045   2.809   3.961   5.669 -0.5636  0.0434 -0.4016
11208SOL    HW235046   2.906   3.907   5.772 -0.5380 -3.9304 -2.3060
11209SOL     OW35047   0.375   0.263   5.724  0.5849  0.4589 -0.0199
11209SOL    HW135048   0.336   0.343   5.690  0.4846  0.8472  0.9785
11209SOL    HW235049   0.302   0.202   5.731  0.9934 -0.5156 -2.8679
11210SOL     OW35050   2.284   8.632   8.631  0.2198  0.3633  0.0731
11210SOL    HW135051   2.344   8.694   8.590  0.2117  0.3043 -0.0286
11210SOL    HW235052   2.235   8.595   8.559  0.4292  0.0233  0.1016
11211SOL     OW35053   2.772   2.547   5.659 -0.1492 -0.4559  0.3287
11211SOL    HW135054   2.774   2.633   5.618  1.1360 -0.8429 -0.4673
11211SOL    HW235055   2.864   2.522   5.667 -0.5146 -2.3402 -0.7409
11212SOL     OW35056   6.520   8.564   9.006  0.0033 -0.0830 -0.1651
11212SOL    HW135057   6.561   8.627   9.066 -0.4964  0.2753 -0.1886
11212SOL    HW235058   6.584   8.493   8.998  0.1374 -0.0674  0.6761
11213SOL     OW35059   0.390   0.289   4.763  0.6746 -0.5478  0.0211
11213SOL    HW135060   0.386   0.290   4.667  1.3044 -0.1684 -0.0058
11213SOL    HW235061   0.344   0.369   4.790  3.2424  1.0831 -0.1042
11214SOL     OW35062   7.992   5.584   2.825  0.1210  0.1885  0.0731
11214SOL    HW135063   7.906   5.624   2.842  0.0154 -0.8189  2.1566
11214SOL    HW235064   8.038   5.589   2.909  1.4283 -0.8974 -0.5486
11215SOL     OW35065   8.845   2.082   3.082  0.4997 -0.5003  0.3285
11215SOL    HW135066   8.885   2.002   3.118  0.2670 -1.0515 -0.6107
11215SOL    HW235067   8.855   2.147   3.152 -0.3842 -1.6663  1.6055
11216SOL     OW35068   0.714   6.851   3.329 -0.0212 -0.3785 -0.2889
11216SOL    HW135069   0.711   6.896   3.245 -1.1888  0.9132  0.3942
11216SOL    HW235070   0.623   6.845   3.356  0.3838  0.1566  1.3357
11217SOL     OW35071   1.995   4.776   1.240 -0.5401 -0.8928 -0.2393
11217SOL    HW135072   1.912   4.763   1.285  0.3021 -0.7749  1.4334
11217SOL    HW235073   2.002   4.701   1.180 -2.4421 -0.1745 -1.4459
11218SOL     OW35074   4.813   7.585   2.507 -0.5422 -0.1730 -0.0830
11218SOL    HW135075   4.808   7.499   2.548 -0.5997 -0.4278 -0.6267
11218SOL    HW235076   4.857   7.640   2.572 -2.6690  0.0141  1.3233
11219SOL     OW35077   2.438   3.158   5.621  1.0183 -0.3842  0.2194
11219SOL    HW135078   2.394   3.224   5.674 -0.8718 -0.2512 -1.3791
11219SOL    HW235079   2.492   3.207   5.560 -0.1416 -0.2484 -0.7567
11220SOL     OW35080   3.400   1.462   2.924  0.4589  0.0998  0.8300
11220SOL    HW135081   3.400   1.532   2.989  0.2514  1.0465 -0.1547
11220SOL    HW235082   3.353   1.498   2.849  1.6102 -0.5554 -0.2630
11221SOL     OW35083   5.573   1.403   0.057  0.2425 -0.3113 -0.1865
11221SOL    HW135084   5.619   1.412  -0.026  1.4130 -2.8754  0.0932
11221SOL    HW235085   5.606   1.321   0.094 -1.0362  0.2101  2.3155
11222SOL     OW35086   7.644   4.039   2.340  0.5304  0.3868  0.5960
11222SOL    HW135087   7.568   4.011   2.289 -0.7027  1.2120  1.8902
11222SOL    HW235088   7.684   3.957   2.370  0.4418 -0.0680 -0.4872
11223SOL     OW35089   5.864   8.795   2.518 -1.0122 -0.1916 -0.3022
11223SOL    HW135090   5.793   8.810   2.455 -1.4125  1.1280  0.4226
11223SOL    HW235091   5.819   8.784   2.602 -0.3873  0.3339  0.1143
11224SOL     OW35092   4.230   6.260   7.250  0.0235 -0.1400 -0.0451
11224SOL    HW135093   4.214   6.259   7.156 -0.0360  1.2366 -0.0567
11224SOL    HW235094   4.302   6.198   7.263  0.9329  0.6516 -1.1664
11225SOL     OW35095   4.081   2.774   0.386 -0.1640  0.0558  0.5653
11225SOL    HW135096   4.061   2.829   0.311  1.2488 -1.1127 -0.7176
11225SOL    HW235097   4.109   2.836   0.454  1.6312  0.9679 -0.9048
11226SOL     OW35098   5.461   1.970   5.538  0.5070  0.3891  0.1920
11226SOL    HW135099   5.427   2.043   5.485  0.8216  0.7535  0.4818
11226SOL    HW235100   5.550   1.957   5.505  0.8367  0.8687  0.8819
11227SOL     OW35101   3.258   8.187   0.849 -0.0054 -0.8841  0.0626
11227SOL    HW135102   3.344   8.183   0.806 -0.2914 -1.1050 -0.5020
11227SOL    HW235103   3.197   8.154   0.783 -0.4845 -1.0350  0.5756
11228SOL     OW35104   8.734   6.245   2.502  0.3305 -0.4521 -0.3024
11228SOL    HW135105   8.823   6.281   2.497  0.2578  0.2307  2.1377
11228SOL    HW235106   8.746   6.152   2.519  0.6132 -0.2822  0.4821
11229SOL     OW35107   2.408   8.393   7.508 -0.0606 -0.0154  0.0074
11229SOL    HW135108   2.416   8.447   7.429  2.3184 -0.7348 -0.3150
11229SOL    HW235109   2.454   8.312   7.487  2.0440  0.3859  2.6034
11230SOL     OW35110   8.992   2.221   8.071  0.0968 -0.1372  0.3140
11230SOL    HW135111   9.077   2.182   8.094  0.4677  1.0364  1.0096
11230SOL    HW235112   8.949   2.236   8.156 -0.5475 -0.1308 -0.0050
11231SOL     OW35113   2.439   7.861   1.831  0.2077  0.4148  0.0923
11231SOL    HW135114   2.366   7.839   1.889 -0.0031  0.1407 -0.2698
11231SOL    HW235115   2.491   7.781   1.827 -0.5707 -0.0633 -1.2419
11232SOL     OW35116   1.820   3.216   4.965 -0.4614  0.0750 -0.5262
11232SOL    HW135117   1.903   3.197   4.921  0.5175 -2.3503  2.0224
11232SOL    HW235118   1.845   3.237   5.055 -2.5590  0.6610 -0.0272
11233SOL     OW35119   2.322   6.555   5.247  0.4750 -0.0251  0.0452
11233SOL    HW135120   2.242   6.507   5.227  0.4392 -0.6959  1.6484
11233SOL    HW235121   2.392   6.491   5.237  0.8818  0.6060 -1.5461
11234SOL     OW35122   5.602   3.139   2.730 -0.0991 -0.2919  0.2437
11234SOL    HW135123   5.586   3.195   2.654  0.4710 -0.4326  0.0157
11234SOL    HW235124   5.697   3.135   2.737 -0.0106 -3.2196 -1.2213
11235SOL     OW35125   7.265   8.091   8.628  0.1197  0.2720 -0.2858
11235SOL    HW135126   7.256   7.996   8.634 -2.3431  0.4025 -0.9978
11235SOL    HW235127   7.257   8.110   8.534  0.3351  1.2282 -0.1190
11236SOL     OW35128   5.531   6.451   0.500  0.0254 -0.2636  0.4098
11236SOL    HW135129   5.627   6.454   0.506  0.1312 -0.1927 -1.1036
11236SOL    HW235130   5.508   6.518   0.436 -0.9875 -0.7565  0.2274
11237SOL     OW35131   2.519   5.397   8.718  0.4701  0.1576 -0.0426
11237SOL    HW135132   2.496   5.336   8.788  0.1664  1.3410  0.9399
11237SOL    HW235133   2.556   5.473   8.764 -1.3506  1.7120 -1.0110
11238SOL     OW35134   7.867   1.609   7.225  0.0299 -0.3545 -0.1138
11238SOL    HW135135   7.928   1.550   7.268  1.2840  1.9415  1.5361
11238SOL    HW235136   7.844   1.673   7.293 -1.3280  0.9728 -1.7181
11239SOL     OW35137   1.962   0.747   4.605 -0.0466  0.2261 -0.2942
11239SOL    HW135138   1.892   0.682   4.596  0.7526 -0.5730 -0.9559
11239SOL    HW235139   2.011   0.720   4.682  0.7056 -0.4017 -0.9665
11240SOL     OW35140   8.983   9.171   5.237 -0.5684  0.3650 -0.6548
11240SOL    HW135141   9.051   9.237   5.225 -0.7693  0.4560 -1.3237
11240SOL    HW235142   8.986   9.118   5.157 -0.8087 -0.0674 -0.3848
11241SOL     OW35143   7.432   4.274   0.132 -0.4703 -0.4091  0.1212
11241SOL    HW135144   7.495   4.295   0.063  1.8280 -3.2473  1.1487
11241SOL    HW235145   7.443   4.344   0.197 -0.3345  0.5349 -0.8886
11242SOL     OW35146   6.430   6.387   1.799  0.0076  0.1428  0.5428
11242SOL    HW135147   6.439   6.294   1.778 -0.0604  0.1730  0.3785
11242SOL    HW235148   6.336   6.403   1.796 -0.0046  0.1417  0.8978
11243SOL     OW35149   4.495   7.899   8.837  0.6099  0.1677 -0.1244
11243SOL    HW135150   4.520   7.954   8.912  0.1357 -0.1174  0.2507
11243SOL    HW235151   4.483   7.812   8.875 -1.3154  0.3574 -0.1899
11244SOL     OW35152   1.290   0.378   3.113  0.2162 -0.0633 -0.2351
11244SOL    HW135153   1.222   0.310   3.121  0.8471 -0.9196 -1.6276
11244SOL    HW235154   1.311   0.378   3.019  1.4051  0.9207  0.0186
11245SOL     OW35155   8.827   3.539   4.728  0.3821 -0.2344 -0.2854
11245SOL    HW135156   8.815   3.629   4.759  1.3124 -0.2289  0.1108
11245SOL    HW235157   8.918   3.518   4.751  0.1387 -1.3215 -0.2572
11246SOL     OW35158   7.011   7.482   5.906  0.3617  0.2061 -0.1678
11246SOL    HW135159   7.047   7.535   5.835  1.5936 -2.3433 -1.5639
11246SOL    HW235160   6.916   7.489   5.895  0.5206  0.2940 -1.7631
11247SOL     OW35161   6.358   3.617   8.657 -0.2245  0.1482 -0.1537
11247SOL    HW135162   6.295   3.640   8.589  0.5063  1.2318 -0.5001
11247SOL    HW235163   6.355   3.522   8.663 -2.1793  0.1940  0.1321
11248SOL     OW35164   1.226   5.895   9.233  0.3138 -0.9260 -0.0987
11248SOL    HW135165   1.239   5.989   9.218 -1.3902 -0.7932 -0.8913
11248SOL    HW235166   1.314   5.858   9.223  1.2949  0.7343  1.6461
11249SOL     OW35167   8.199   7.636   8.096 -0.3446 -0.7798  0.1114
11249SOL    HW135168   8.148   7.687   8.160  0.1620  1.0078 -0.8521
11249SOL    HW235169   8.225   7.557   8.144 -0.6480  0.1364  1.8664
11250SOL     OW35170   0.843   4.344   2.837 -0.8018 -0.7039 -0.9210
11250SOL    HW135171   0.822   4.274   2.898 -0.2660  0.9744  1.2928
11250SOL    HW235172   0.930   4.321   2.804  0.5811  0.1969  1.8637
11251SOL     OW35173   5.793   2.893   6.936  0.1762  0.0186  0.3223
11251SOL    HW135174   5.802   2.909   7.030  1.3084  0.5076  0.1514
11251SOL    HW235175   5.803   2.798   6.927 -0.9975 -0.1694  0.7813
11252SOL     OW35176   2.636   0.153   2.541 -0.4955 -0.6945  0.1699
11252SOL    HW135177   2.640   0.206   2.462 -0.9130 -1.5264 -0.4215
11252SOL    HW235178   2.728   0.137   2.563 -0.3801 -0.7012 -0.3094
11253SOL     OW35179   3.664   5.920   0.660  0.1441 -0.8282  0.6103
11253SOL    HW135180   3.659   5.847   0.599  0.6056  0.7574 -1.4230
11253SOL    HW235181   3.690   5.880   0.743 -1.1741 -3.1537 -0.0005
11254SOL     OW35182   9.248   8.535   4.253  0.1074 -0.5946  0.4062
11254SOL    HW135183   9.247   8.449   4.296  0.0662 -1.5411 -1.3755
11254SOL    HW235184   9.331   8.537   4.206  0.8891  1.0928  1.7474
11255SOL     OW35185   7.294   1.269   6.002  0.2587 -0.5667 -0.3814
11255SOL    HW135186   7.366   1.313   6.045  0.3217  1.6579 -2.5357
11255SOL    HW235187   7.329   1.242   5.917 -0.7462 -1.8050 -0.4412
11256SOL     OW35188   1.951   3.294   0.960  0.1208  0.0193  0.1063
11256SOL    HW135189   1.912   3.303   1.047 -2.1487 -1.9577 -0.5622
11256SOL    HW235190   1.892   3.342   0.902  0.4574 -0.3487 -0.5579
11257SOL     OW35191   6.676   6.694   6.516  0.1902 -0.3273 -0.0135
11257SOL    HW135192   6.704   6.757   6.450 -0.7360 -1.4094 -1.5304
11257SOL    HW235193   6.591   6.726   6.545  1.2129  0.9030  1.7466
11258SOL     OW35194   6.536   5.478   4.697  0.3343 -1.0474 -0.0797
11258SOL    HW135195   6.596   5.514   4.763 -0.0737  0.7520 -0.6374
11258SOL    HW235196   6.458   5.453   4.747  1.1628 -2.5480  0.5174
11259SOL     OW35197   8.539   4.290   6.764 -0.0048 -0.1606 -0.5297
11259SOL    HW135198   8.522   4.200   6.736  2.2859 -0.4918 -1.0492
11259SOL    HW235199   8.606   4.321   6.703  0.8458  1.1430  1.0239
11260SOL     OW35200   9.015   2.370   3.617 -0.0124  0.1544 -0.4601
11260SOL    HW135201   8.937   2.344   3.665  0.7077  1.6236  1.6560
11260SOL    HW235202   9.081   2.305   3.642 -0.1693 -0.2866 -1.1582
11261SOL     OW35203   0.945   3.777   8.952 -0.3087  0.1422 -0.0208
11261SOL    HW135204   0.970   3.869   8.955 -0.5872  0.2092  2.1860
11261SOL    HW235205   1.016   3.735   8.903 -0.2120  1.5154 -1.1203
11262SOL     OW35206   3.930   2.440   8.211  0.1481  0.0344 -0.0086
11262SOL    HW135207   3.899   2.449   8.301  1.9457  0.6804  0.5916
11262SOL    HW235208   4.013   2.393   8.218  1.3568  1.8555 -1.0675
11263SOL     OW35209   1.313   7.850   5.852  0.6041 -0.3210  0.0356
11263SOL    HW135210   1.366   7.809   5.783  0.8930 -0.2389  0.2053
11263SOL    HW235211   1.378   7.884   5.914  0.5231  3.3534 -1.6941
11264SOL     OW35212   4.068   5.678   1.416  0.1530 -0.0583 -0.0633
11264SOL    HW135213   4.006   5.652   1.349  0.0914 -0.3963  0.1220
11264SOL    HW235214   4.152   5.686   1.370  0.2928 -1.1403 -0.0267
11265SOL     OW35215   8.794   7.836   8.448 -0.4149  0.5888 -0.1852
11265SOL    HW135216   8.792   7.887   8.529  0.2356  1.4553 -0.6893
11265SOL    HW235217   8.703   7.816   8.429 -0.6068  0.7877  0.5129
11266SOL     OW35218   4.615   8.298   5.027  0.5065 -0.2674  0.1586
11266SOL    HW135219   4.625   8.357   5.102 -0.6179 -1.0509  0.9655
11266SOL    HW235220   4.541   8.334   4.978  1.2750  0.2736 -0.6282
11267SOL     OW35221   0.467   6.168   5.205  0.1739 -0.2691  0.0047
11267SOL    HW135222   0.441   6.077   5.219 -0.8432 -0.1544 -0.9763
11267SOL    HW235223   0.512   6.193   5.285 -0.0598 -1.4498  0.5267
11268SOL     OW35224   2.467   3.585   6.048  0.0193  0.4813  0.3436
11268SOL    HW135225   2.453   3.511   5.990 -0.9238  0.1284  1.0108
11268SOL    HW235226   2.559   3.610   6.034 -0.0453  0.0626 -0.8818
11269SOL     OW35227   2.249   2.675   1.877  0.3720 -0.1762 -0.6810
11269SOL    HW135228   2.323   2.623   1.909  0.7226  0.8141  0.1945
11269SOL    HW235229   2.287   2.761   1.857 -0.4706  0.2282 -0.5928
11270SOL     OW35230   5.386   2.636   0.598  0.5364  0.6152 -0.1243
11270SOL    HW135231   5.328   2.703   0.561  0.0445  1.6525  2.3729
11270SOL    HW235232   5.410   2.670   0.684  2.3944 -1.2410  0.1494
11271SOL     OW35233   2.410   5.884   5.940 -0.4824 -0.3149  0.4398
11271SOL    HW135234   2.471   5.825   5.983 -0.2054 -0.3377  0.0263
11271SOL    HW235235   2.417   5.967   5.988 -0.7625 -0.5689  0.9254
11272SOL     OW35236   7.555   4.124   8.872 -0.0941 -0.3403 -0.4753
11272SOL    HW135237   7.572   4.205   8.824  1.0047  0.2718  0.8644
11272SOL    HW235238   7.639   4.077   8.868 -0.3595 -0.8384 -0.2131
11273SOL     OW35239   9.100   1.489   9.044  0.2025  0.1439 -0.4936
11273SOL    HW135240   9.041   1.563   9.034 -0.0967 -0.1436 -0.8943
11273SOL    HW235241   9.073   1.427   8.977 -0.0000 -0.6346  0.2890
11274SOL     OW35242   8.889   4.894   1.539 -0.6890 -0.3774 -0.5324
11274SOL    HW135243   8.914   4.954   1.609  1.8434 -1.8042 -0.0780
11274SOL    HW235244   8.898   4.945   1.459 -0.7428  0.4566 -0.0150
11275SOL     OW35245   6.172   7.393   5.313  0.2905 -0.3454  0.0301
11275SOL    HW135246   6.103   7.342   5.271  2.7373 -4.2526  0.2202
11275SOL    HW235247   6.163   7.480   5.276 -2.4544 -1.5934 -2.7038
11276SOL     OW35248   3.527   2.756   3.801  0.0484 -0.1014  0.1426
11276SOL    HW135249   3.547   2.698   3.727  1.9262  0.4363  0.1791
11276SOL    HW235250   3.550   2.706   3.878  0.6751  0.2976  0.2224
11277SOL     OW35251   3.955   4.856   5.278 -0.1472  0.0104  0.1816
11277SOL    HW135252   3.891   4.920   5.311  0.6730  0.6161  0.6300
11277SOL    HW235253   3.965   4.794   5.351  0.0083  0.0863  0.2234
11278SOL     OW35254   7.337   4.556   0.916 -0.0334  0.0735  0.0923
11278SOL    HW135255   7.417   4.507   0.933 -0.1167  0.2483  1.0305
11278SOL    HW235256   7.354   4.643   0.949 -0.0457  0.5780 -1.1703
11279SOL     OW35257   6.366   9.239   7.192 -0.0583 -0.0598  0.1021
11279SOL    HW135258   6.375   9.280   7.106 -1.0876  1.4231  0.6608
11279SOL    HW235259   6.444   9.185   7.201 -0.3483 -0.9884 -2.1368
11280SOL     OW35260   1.832   3.224   7.222 -0.1055  0.1634 -0.0336
11280SOL    HW135261   1.847   3.158   7.154  1.2596 -0.1859  0.5676
11280SOL    HW235262   1.802   3.301   7.174  1.3528  0.1071 -1.1137
11281SOL     OW35263   0.267   0.548   2.629 -0.0897  1.1696  0.1903
11281SOL    HW135264   0.205   0.519   2.561  0.2201 -0.2474  0.4825
11281SOL    HW235265   0.335   0.594   2.581 -0.8975  1.9694 -0.2306
11282SOL     OW35266   3.195   1.972   3.573  0.1067 -0.9417  0.1290
11282SOL    HW135267   3.114   1.921   3.568  0.6479 -2.0766  1.8679
11282SOL    HW235268   3.264   1.909   3.552  0.5898 -0.0965 -0.8815
11283SOL     OW35269   2.639   8.661   5.785 -0.9862  0.0300  0.1244
11283SOL    HW135270   2.591   8.600   5.730  0.0355  0.1773 -0.9507
11283SOL    HW235271   2.578   8.734   5.798 -1.4457 -0.2685 -0.3163
11284SOL     OW35272   6.924   5.673   3.298  0.1551 -0.7929 -0.2103
11284SOL    HW135273   7.019   5.665   3.303  0.3591 -1.4826 -3.1646
11284SOL    HW235274   6.899   5.615   3.226 -2.4515 -0.1924  0.1124
11285SOL     OW35275   3.613   7.476   6.908  0.4486  0.7009  0.2978
11285SOL    HW135276   3.549   7.453   6.975 -0.3855  0.3955 -0.5710
11285SOL    HW235277   3.621   7.397   6.854  3.3057 -0.0930  1.6761
11286SOL     OW35278   5.427   8.376   8.776 -0.4245  0.0615 -0.6128
11286SOL    HW135279   5.419   8.353   8.869  0.3299  0.4984 -0.4383
11286SOL    HW235280   5.338   8.400   8.750 -0.2782  2.1114  0.5797
11287SOL     OW35281   9.191   2.191   3.713  0.3061  0.1684  0.0865
11287SOL    HW135282   9.230   2.220   3.796  0.3429  1.5785 -0.3917
11287SOL    HW235283   9.197   2.096   3.716 -0.5533  0.1280  2.1105
11288SOL     OW35284   5.396   8.027   7.100 -0.5184  0.6960 -0.4298
11288SOL    HW135285   5.334   8.070   7.040  0.4662 -0.4980 -2.3993
11288SOL    HW235286   5.479   8.071   7.083  0.0220 -0.4634 -0.8488
11289SOL     OW35287   8.531   4.370   5.800  0.2524  0.4851 -0.5965
11289SOL    HW135288   8.534   4.463   5.778 -0.1162  0.5952 -0.1819
11289SOL    HW235289   8.601   4.358   5.865  0.4193  0.4338 -0.7831
11290SOL     OW35290   9.078   3.856   5.969 -0.4706 -0.2667 -0.1791
11290SOL    HW135291   9.166   3.872   6.004 -1.0492  0.8424  0.8161
11290SOL    HW235292   9.056   3.936   5.922  0.0333 -1.4838 -2.6874
11291SOL     OW35293   3.183   5.066   8.834  0.1391 -0.3767 -0.4718
11291SOL    HW135294   3.153   5.044   8.746 -0.2201  0.0989 -0.4704
11291SOL    HW235295   3.271   5.028   8.840  1.1651  1.6221 -1.8825
11292SOL     OW35296   2.968   2.104   1.518  0.1170 -0.6290 -0.2133
11292SOL    HW135297   2.906   2.132   1.451  0.1602  0.6652  0.2580
11292SOL    HW235298   2.971   2.177   1.580  2.1959 -0.5844 -0.2854
11293SOL     OW35299   4.222   0.035   1.182 -0.0886 -0.0244  0.3078
11293SOL    HW135300   4.246   0.119   1.222 -0.6916 -0.1198  0.9141
11293SOL    HW235301   4.247  -0.031   1.247 -2.6073 -0.0795  1.3739
11294SOL     OW35302   6.673   6.290   2.182 -0.4638  0.2008  0.1511
11294SOL    HW135303   6.734   6.364   2.179 -0.2846  0.0409 -0.1736
11294SOL    HW235304   6.685   6.252   2.269  2.1554 -1.7262 -0.9199
11295SOL     OW35305   8.325   6.488   9.046  0.1556 -0.2987  0.6285
11295SOL    HW135306   8.277   6.568   9.023 -0.9967 -1.3841 -0.9753
11295SOL    HW235307   8.285   6.420   8.992  1.2293 -1.9432  1.8159
11296SOL     OW35308   1.447   7.602   4.880  0.2505  0.1813  0.8771
11296SOL    HW135309   1.457   7.666   4.950  1.1661  1.9723 -0.8051
11296SOL    HW235310   1.361   7.564   4.894  0.8044 -0.2718  3.5390
11297SOL     OW35311   4.498   3.244   7.800  0.1010  0.2591  0.2154
11297SOL    HW135312   4.532   3.159   7.771  2.1524  0.9999  0.2392
11297SOL    HW235313   4.480   3.291   7.718 -2.4278 -0.6280  0.1733
11298SOL     OW35314   2.741   2.370   6.697 -0.3103 -0.1383  0.5788
11298SOL    HW135315   2.791   2.288   6.692  0.1249  0.1330  0.4623
11298SOL    HW235316   2.779   2.417   6.771 -0.0406  0.2982  0.1679
11299SOL     OW35317   6.822   3.016   5.368 -0.1946  0.1224  0.3360
11299SOL    HW135318   6.798   2.948   5.432 -2.2786 -0.2195 -0.7355
11299SOL    HW235319   6.828   3.096   5.420 -0.1516 -0.4351  1.2268
11300SOL     OW35320   3.469   9.097   2.842 -0.1515 -0.1231  0.5007
11300SOL    HW135321   3.550   9.104   2.792 -0.0755 -1.4619  0.3876
11300SOL    HW235322   3.454   9.003   2.850 -1.2181  0.0911  1.3010
11301SOL     OW35323   7.691   9.173   1.037 -0.0971 -0.0711  0.4734
11301SOL    HW135324   7.752   9.186   0.965  0.1240  1.0133  0.8403
11301SOL    HW235325   7.658   9.084   1.025 -0.1809  0.1444 -1.0527
11302SOL     OW35326   6.343   6.641   8.759  0.0730 -0.6623  0.3328
11302SOL    HW135327   6.279   6.571   8.764 -0.9779  0.1467 -1.1050
11302SOL    HW235328   6.427   6.596   8.748 -0.3057 -1.7091  1.5353
11303SOL     OW35329   4.006   6.150   7.812  0.1470 -0.7307  0.0203
11303SOL    HW135330   3.995   6.134   7.718 -0.7497 -1.1267  0.1846
11303SOL    HW235331   4.003   6.245   7.821 -0.9829 -0.7369 -0.2115
11304SOL     OW35332   3.391   1.979   4.301  0.4770 -0.4465  0.3787
11304SOL    HW135333   3.397   2.014   4.212 -0.8099  1.7657  1.0798
11304SOL    HW235334   3.441   1.897   4.298  0.2934 -0.5564 -2.4076
11305SOL     OW35335   8.543   4.553   7.971  0.1475  0.6992 -0.2209
11305SOL    HW135336   8.483   4.484   7.999  0.8645  0.4208  0.6827
11305SOL    HW235337   8.542   4.549   7.876 -0.7940  0.2980 -0.2040
11306SOL     OW35338   2.307   7.979   5.520 -0.2187  0.5569 -0.4434
11306SOL    HW135339   2.381   8.038   5.514 -1.7040  2.3894 -2.2390
11306SOL    HW235340   2.235   8.033   5.553 -0.8031 -1.1946  1.4177
11307SOL     OW35341   5.001   2.348   4.380  0.5731  0.1800 -0.1847
11307SOL    HW135342   5.036   2.327   4.466 -1.3560  0.3433  0.7016
11307SOL    HW235343   5.015   2.269   4.329  1.2788 -0.1051  0.4324
11308SOL     OW35344   5.141   6.118   9.132  0.2046 -0.0704 -0.8788
11308SOL    HW135345   5.171   6.028   9.116 -1.7880 -0.6702 -1.5408
11308SOL    HW235346   5.146   6.160   9.047  1.6062  0.6381 -0.4745
11309SOL     OW35347   3.166   6.735   6.546 -0.6550  0.5080  0.7313
11309SOL    HW135348   3.248   6.751   6.500 -2.0994  0.6279 -1.9713
11309SOL    HW235349   3.152   6.813   6.599  1.0712  0.3514  1.4888
11310SOL     OW35350   6.818   3.883   0.425  0.0470  0.1925  0.0980
11310SOL    HW135351   6.892   3.853   0.477 -0.0642 -1.6902 -0.7580
11310SOL    HW235352   6.815   3.824   0.350 -0.6495  1.9464 -1.3458
11311SOL     OW35353   1.555   3.670   8.777 -0.0215 -0.0132 -0.2089
11311SOL    HW135354   1.473   3.691   8.733  0.7872  1.7688 -0.9697
11311SOL    HW235355   1.598   3.606   8.720 -1.0942 -1.4186  0.4938
11312SOL     OW35356   1.418   3.075   4.007 -0.6284  0.1852 -0.3882
11312SOL    HW135357   1.338   3.059   3.957 -1.9032  2.5331  0.7363
11312SOL    HW235358   1.404   3.160   4.049  2.7039  0.9728 -0.5747
11313SOL     OW35359   9.250   0.930   5.308  0.5359 -0.3468 -0.1654
11313SOL    HW135360   9.164   0.956   5.275  1.2173  0.1936 -1.5843
11313SOL    HW235361   9.297   0.897   5.231  2.1079  0.7661  0.2445
11314SOL     OW35362   5.209   1.172   2.268  0.1924  1.2014 -0.2460
11314SOL    HW135363   5.134   1.227   2.247 -2.6463 -1.3205  2.3235
11314SOL    HW235364   5.178   1.083   2.256  3.4555  0.0132 -0.8543
11315SOL     OW35365   8.103   4.280   3.651  0.4552 -0.4013 -0.2023
11315SOL    HW135366   8.121   4.358   3.703  0.3744 -1.4837  1.5434
11315SOL    HW235367   8.018   4.296   3.612  1.2643  1.1443 -1.4254
11316SOL     OW35368   5.098   1.604   6.833 -0.6395 -0.2504 -0.2021
11316SOL    HW135369   5.142   1.647   6.906 -0.7862  0.6162 -0.6047
11316SOL    HW235370   5.061   1.524   6.870 -1.6213  0.6926  0.9414
11317SOL     OW35371   3.375   1.832   7.589  0.5046 -0.0709 -0.0171
11317SOL    HW135372   3.302   1.894   7.598 -1.6663 -2.1960 -1.5708
11317SOL    HW235373   3.362   1.770   7.661 -0.6439 -1.7011 -1.5438
11318SOL     OW35374   2.407   4.571   5.816 -0.0600 -0.2127  0.1382
11318SOL    HW135375   2.403   4.500   5.881 -0.3965  0.4672  0.8766
11318SOL    HW235376   2.362   4.536   5.740 -1.1756 -0.4258  0.8679
11319SOL     OW35377   9.213   6.555   5.748 -0.2645  0.1123  0.2473
11319SOL    HW135378   9.151   6.603   5.693 -0.0916 -0.3629 -0.3728
11319SOL    HW235379   9.243   6.482   5.693  1.1223  0.5342  0.3905
11320SOL     OW35380   2.074   0.853   8.272 -0.2748  0.2077  0.1318
11320SOL    HW135381   2.011   0.909   8.318 -0.6762  0.1090 -0.2881
11320SOL    HW235382   2.046   0.855   8.180  1.0527  1.1317 -0.2877
11321SOL     OW35383   4.166   2.278   0.547  0.2268  0.2018 -0.4991
11321SOL    HW135384   4.169   2.261   0.641  1.8179 -0.0608 -0.5639
11321SOL    HW235385   4.164   2.374   0.540  0.5953  0.2370 -0.1882
11322SOL     OW35386   5.053   4.803   8.418  0.0746  0.3707 -0.0394
11322SOL    HW135387   4.991   4.798   8.491  0.5903 -0.9607  0.3325
11322SOL    HW235388   5.120   4.738   8.438  0.5360  0.3849 -1.4156
11323SOL     OW35389   5.830   8.810   9.010 -0.2455 -0.3077  0.6242
11323SOL    HW135390   5.802   8.884   8.956  0.7717  0.5760  1.2472
11323SOL    HW235391   5.759   8.797   9.073 -2.0286 -2.1651 -1.6065
11324SOL     OW35392   1.477   2.657   2.206  0.5145 -0.1634  0.4439
11324SOL    HW135393   1.505   2.721   2.141 -0.1958 -1.1655 -0.9211
11324SOL    HW235394   1.499   2.572   2.166 -0.8523 -0.8366  1.0714
11325SOL     OW35395   6.358   7.684   1.101  0.4996 -0.4962 -0.1046
11325SOL    HW135396   6.318   7.759   1.058  0.7561 -0.5765 -0.4855
11325SOL    HW235397   6.302   7.666   1.176  0.1216 -0.2823 -0.3375
11326SOL     OW35398   3.189   4.779   8.353  0.5198 -0.0417  0.0879
11326SOL    HW135399   3.154   4.837   8.286  0.2887 -0.7204 -0.3857
11326SOL    HW235400   3.164   4.691   8.325 -1.0042 -0.2351  1.9027
11327SOL     OW35401   6.240   6.048   4.861  0.0645 -0.6671 -0.1049
11327SOL    HW135402   6.320   6.088   4.826 -0.9054  2.7620  1.1684
11327SOL    HW235403   6.252   6.052   4.956 -1.5248 -0.2293  0.1038
11328SOL     OW35404   2.433   0.400   7.580 -0.0710 -0.9467  0.1207
11328SOL    HW135405   2.432   0.366   7.490 -1.4432  2.6150 -1.4123
11328SOL    HW235406   2.503   0.465   7.580  0.9106 -1.9238  2.1749
11329SOL     OW35407   5.961   6.575   4.027 -0.2967 -0.6064  0.0355
11329SOL    HW135408   6.009   6.584   3.944 -0.6067 -1.0451 -0.1991
11329SOL    HW235409   5.869   6.570   4.001 -0.4336 -0.2686  0.4460
11330SOL     OW35410   9.187   7.276   4.109  0.0205 -0.2387  0.0759
11330SOL    HW135411   9.154   7.213   4.046 -1.8258 -0.1779  0.9250
11330SOL    HW235412   9.206   7.224   4.187 -0.0081  0.0332  0.2645
11331SOL     OW35413   5.898   7.609   4.825 -0.0384 -0.3595  0.2955
11331SOL    HW135414   5.875   7.517   4.836  0.9696 -0.7142 -0.3762
11331SOL    HW235415   5.895   7.623   4.731 -0.0583  0.2544  0.3859
11332SOL     OW35416   0.787   1.352   8.745 -0.3213  0.2369 -0.0825
11332SOL    HW135417   0.745   1.411   8.808 -1.5070 -0.2993 -0.3558
11332SOL    HW235418   0.765   1.264   8.776 -0.1520 -0.0394 -0.7383
11333SOL     OW35419   4.457   7.067   9.100 -0.1600  0.1523  0.4677
11333SOL    HW135420   4.445   7.114   9.018  0.2038 -0.9544 -0.2409
11333SOL    HW235421   4.548   7.086   9.125 -0.3843  0.7899  0.8228
11334SOL     OW35422   7.592   2.771   1.994  0.3223 -0.6423 -0.3835
11334SOL    HW135423   7.632   2.770   1.907  1.6753 -1.0590  0.2256
11334SOL    HW235424   7.643   2.835   2.044 -2.9682  2.8430 -0.9790
11335SOL     OW35425   1.486   8.874   9.185 -0.1978  0.5857 -0.0195
11335SOL    HW135426   1.498   8.799   9.242  2.1648 -0.1983 -1.4339
11335SOL    HW235427   1.426   8.843   9.117 -0.3944  0.4675  0.2062
11336SOL     OW35428   6.826   6.928   3.637  0.0652 -0.7573 -0.0674
11336SOL    HW135429   6.921   6.939   3.635  0.1569 -1.4810  0.1338
11336SOL    HW235430   6.803   6.937   3.729  0.1037 -1.8594  0.0594
11337SOL     OW35431   0.990   3.494   5.375  0.1547 -0.0614 -0.4071
11337SOL    HW135432   0.979   3.588   5.383  1.3731  0.0063  1.1367
11337SOL    HW235433   0.993   3.477   5.281  0.4236  1.4954 -0.6984
11338SOL     OW35434   1.631   6.999   0.211  0.1865  0.0392  0.0028
11338SOL    HW135435   1.625   7.065   0.279  0.5342 -0.1422  0.2147
11338SOL    HW235436   1.723   7.002   0.184  0.4041 -0.9306  0.5944
11339SOL     OW35437   4.142   7.772   5.790 -0.1402 -0.5195 -0.1203
11339SOL    HW135438   4.205   7.769   5.718 -1.4984  0.9544 -1.4447
11339SOL    HW235439   4.090   7.693   5.780  1.4253 -1.7712  1.0078
11340SOL     OW35440   0.970   1.315   9.095 -0.2366  0.4155  0.3413
11340SOL    HW135441   0.980   1.355   9.009 -1.8181 -0.2199 -0.1617
11340SOL    HW235442   0.914   1.375   9.143 -2.1403 -0.8282 -0.2229
11341SOL     OW35443   0.710   2.820   1.581 -0.2252 -0.2559  0.2307
11341SOL    HW135444   0.784   2.789   1.530 -0.2656 -0.0481  0.0446
11341SOL    HW235445   0.745   2.894   1.631 -0.5785  0.5748 -0.7093
11342SOL     OW35446   5.352   3.763   1.159 -0.1766  0.2601  0.3930
11342SOL    HW135447   5.334   3.768   1.253 -0.1520  1.2310  0.3641
11342SOL    HW235448   5.414   3.691   1.149 -0.6995 -0.2892  1.0366
11343SOL     OW35449   1.696   2.970   0.538 -0.3289  0.4181 -1.0348
11343SOL    HW135450   1.718   3.056   0.573  1.5485 -1.1196  1.9565
11343SOL    HW235451   1.779   2.937   0.502  0.0970 -1.6304  1.5458
11344SOL     OW35452   5.714   6.845   6.848 -0.0835 -0.4671  0.3066
11344SOL    HW135453   5.722   6.773   6.786  2.3130  0.2662 -0.3272
11344SOL    HW235454   5.730   6.805   6.934 -1.9300 -1.2056  0.3494
11345SOL     OW35455   8.190   5.757   7.263  0.2963 -0.0530  0.4762
11345SOL    HW135456   8.212   5.832   7.207 -0.5758  0.1852  0.4353
11345SOL    HW235457   8.164   5.688   7.202  1.6745 -0.6030  0.4845
11346SOL     OW35458   7.190   7.401   6.342  0.1559 -0.0296  0.2823
11346SOL    HW135459   7.204   7.410   6.247  1.0668  0.5159  0.4512
11346SOL    HW235460   7.215   7.487   6.378  1.1082 -0.6418  1.1422
11347SOL     OW35461   9.047   4.305   9.121  0.1461  0.3577  0.3666
11347SOL    HW135462   9.117   4.305   9.055 -0.2501 -0.2785 -0.0547
11347SOL    HW235463   9.087   4.264   9.198 -0.2707 -1.7168 -0.4499
11348SOL     OW35464   7.948   0.311   7.592  0.2315 -0.0637 -0.2312
11348SOL    HW135465   7.891   0.304   7.668  0.8349  0.9660  0.3437
11348SOL    HW235466   7.935   0.230   7.544 -2.4666  0.5134 -0.6447
11349SOL     OW35467   3.633   0.411   1.659 -0.2219 -0.8701 -0.2219
11349SOL    HW135468   3.670   0.436   1.574 -2.0396  0.7161 -0.6074
11349SOL    HW235469   3.694   0.345   1.693  1.0819 -0.8273 -2.2972
11350SOL     OW35470   1.394   0.682   7.097  0.1858  0.3543  0.2495
11350SOL    HW135471   1.391   0.652   7.006  0.2378  2.4097 -0.4646
11350SOL    HW235472   1.302   0.693   7.122  0.0630 -1.9783  1.1365
11351SOL     OW35473   8.846   0.097   5.697 -0.1094 -0.1260  0.1662
11351SOL    HW135474   8.839   0.096   5.601 -1.1066  0.0096  0.2197
11351SOL    HW235475   8.781   0.033   5.726 -0.7747  0.7954  0.7840
11352SOL     OW35476   3.289   3.456   7.620  0.2284  0.3620  0.0048
11352SOL    HW135477   3.352   3.424   7.684  3.0547 -0.7138 -3.0048
11352SOL    HW235478   3.289   3.551   7.632  1.8270  0.3034  0.6607
11353SOL     OW35479   5.845   5.787   0.897  0.3695  0.1232  0.1836
11353SOL    HW135480   5.797   5.868   0.877  1.8847  0.7669 -1.0906
11353SOL    HW235481   5.816   5.725   0.830  0.2280  0.0445  0.3174
11354SOL     OW35482   2.990   7.968   8.372 -0.2925  0.1911 -0.4411
11354SOL    HW135483   2.908   7.966   8.422 -1.1854  0.3383 -1.8487
11354SOL    HW235484   3.044   8.033   8.416 -1.2960  0.7575 -0.0155
11355SOL     OW35485   4.689   9.025   0.625 -0.2930 -0.3130 -0.3676
11355SOL    HW135486   4.641   8.946   0.648  0.5342 -1.1103 -1.2980
11355SOL    HW235487   4.681   9.032   0.530  0.9751 -0.1815 -0.4883
11356SOL     OW35488   8.437   1.068   1.715 -0.1938  0.8552  0.6357
11356SOL    HW135489   8.445   0.984   1.761  1.1103  0.6228  0.0385
11356SOL    HW235490   8.443   1.134   1.784  2.5614  0.5435  0.7875
11357SOL     OW35491   6.951   1.649   0.749  0.2063 -0.0862  0.5494
11357SOL    HW135492   7.025   1.697   0.786 -0.0731  0.3252  0.5826
11357SOL    HW235493   6.880   1.713   0.747 -0.6527 -0.9289  2.0849
11358SOL     OW35494   5.656   1.141   7.551 -0.4105 -0.0999 -0.0913
11358SOL    HW135495   5.602   1.216   7.529  0.6366  0.6721 -0.1323
11358SOL    HW235496   5.723   1.176   7.610  1.0419 -0.6444 -1.3456
11359SOL     OW35497   6.239   5.127   8.176  0.1007  0.6728  0.3337
11359SOL    HW135498   6.310   5.127   8.111 -0.3373 -0.1696 -0.1660
11359SOL    HW235499   6.162   5.097   8.128 -0.1670 -0.2646  1.3002
11360SOL     OW35500   8.442   6.770   6.819 -0.4463 -0.0737  0.5799
11360SOL    HW135501   8.458   6.829   6.745  0.2795 -0.6564  0.2615
11360SOL    HW235502   8.361   6.724   6.795  0.6941 -1.5040 -0.6975
11361SOL     OW35503   0.222   0.408   0.318  0.8136  0.3986 -0.1954
11361SOL    HW135504   0.136   0.398   0.358  1.0301 -0.4019  0.0833
11361SOL    HW235505   0.204   0.453   0.235  0.1301  0.2786 -0.1225
11362SOL     OW35506   5.424   0.156   7.666  0.0980  0.0044  0.4013
11362SOL    HW135507   5.410   0.066   7.638  0.8536  0.0567 -0.1750
11362SOL    HW235508   5.501   0.185   7.617  0.4245  0.6622  1.2659
11363SOL     OW35509   1.993   5.930   5.877  0.4156 -0.3409 -0.5606
11363SOL    HW135510   1.950   5.862   5.928  1.3461 -1.8678 -1.7200
11363SOL    HW235511   1.978   5.905   5.786  1.7252  0.3767 -1.0063
11364SOL     OW35512   7.267   2.858   5.147 -0.3414  0.1954 -0.7528
11364SOL    HW135513   7.315   2.915   5.207  0.1367 -0.4341 -0.5373
11364SOL    HW235514   7.177   2.889   5.153  0.0180  1.3683 -1.1377
11365SOL     OW35515   3.180   5.055   6.436  0.1948  0.5012 -0.1582
11365SOL    HW135516   3.161   5.029   6.346  1.9560  0.7738 -0.6441
11365SOL    HW235517   3.162   4.976   6.488  0.4371 -0.0727 -0.9254
11366SOL     OW35518   4.950   3.825   8.835 -0.1307  0.0592 -0.2177
11366SOL    HW135519   4.947   3.890   8.765 -0.7785 -0.8307 -1.0503
11366SOL    HW235520   4.858   3.803   8.851 -0.1354  1.4234  2.0877
11367SOL     OW35521   1.336   1.909   0.723 -0.2587 -0.4713  0.3844
11367SOL    HW135522   1.385   1.897   0.642 -0.4736 -0.2878  0.2256
11367SOL    HW235523   1.391   1.869   0.790 -0.4312 -1.3148  0.0369
11368SOL     OW35524   7.882   0.090   5.586  0.1900 -0.2146 -0.1059
11368SOL    HW135525   7.949   0.039   5.541  0.3155 -1.3158  1.2834
11368SOL    HW235526   7.826   0.026   5.629 -1.7148  0.6867 -1.1001
11369SOL     OW35527   2.002   9.133   5.814  0.3841  0.1059 -0.0946
11369SOL    HW135528   1.909   9.137   5.838  0.3781 -0.0890 -0.0865
11369SOL    HW235529   2.031   9.047   5.844  0.7075  0.3885  0.4140
11370SOL     OW35530   8.334   7.640   2.100  0.8138  0.1801  0.3024
11370SOL    HW135531   8.379   7.649   2.016  2.3048  0.5652  1.1027
11370SOL    HW235532   8.295   7.725   2.116 -1.2604 -0.4651 -0.9180
11371SOL     OW35533   6.961   7.771   7.153 -0.4930 -0.0576 -0.0166
11371SOL    HW135534   7.046   7.792   7.192  0.2652  2.8582 -2.8011
11371SOL    HW235535   6.898   7.789   7.223  1.0309 -0.5454  1.5517
11372SOL     OW35536   7.164   6.035   0.783 -0.7768 -0.4281  0.2099
11372SOL    HW135537   7.179   6.068   0.872 -1.5081  0.2021  0.1129
11372SOL    HW235538   7.246   5.994   0.758  0.3293  1.6699  0.1891
11373SOL     OW35539   6.058   7.201   1.734  0.6468  0.2743  0.7521
11373SOL    HW135540   6.126   7.227   1.796  0.0433  0.0263  1.5336
11373SOL    HW235541   6.079   7.110   1.713  1.9262  0.9014 -0.8735
11374SOL     OW35542   5.638   8.881   7.869  0.4633 -0.9428 -0.2715
11374SOL    HW135543   5.575   8.945   7.902 -0.4393 -1.8658 -0.1612
11374SOL    HW235544   5.635   8.810   7.933 -0.5376 -2.2921 -1.7550
11375SOL     OW35545   3.398   0.051   8.338 -0.4570  0.3731  0.2249
11375SOL    HW135546   3.313   0.049   8.384 -0.3083  0.0512  0.4903
11375SOL    HW235547   3.396  -0.025   8.280 -0.1211  0.0323  0.6533
11376SOL     OW35548   1.965   0.545   7.573  0.6221 -0.1277 -0.2763
11376SOL    HW135549   1.904   0.560   7.645 -0.8747 -1.3312 -1.2405
11376SOL    HW235550   1.916   0.567   7.494  1.5599 -0.7354 -1.0636
11377SOL     OW35551   2.599   8.634   4.509  0.1993  0.1201 -0.2243
11377SOL    HW135552   2.637   8.720   4.528 -1.5546  1.2945 -1.7211
11377SOL    HW235553   2.630   8.578   4.580  2.4453  1.6430  0.0939
11378SOL     OW35554   7.633   7.214   7.891  0.2137  0.3300  0.1160
11378SOL    HW135555   7.725   7.238   7.886  0.5297 -1.0330 -1.6592
11378SOL    HW235556   7.633   7.118   7.895 -1.1248  0.3269  0.7870
11379SOL     OW35557   4.175   5.978   5.312  0.8260  0.5913 -0.4325
11379SOL    HW135558   4.150   5.995   5.403  2.9190  1.0973  0.1030
11379SOL    HW235559   4.129   6.045   5.261 -2.3405 -1.1606 -0.1640
11380SOL     OW35560   3.876   5.416   5.927 -0.0558 -0.2898 -0.3627
11380SOL    HW135561   3.786   5.441   5.905  0.2905  1.2429 -0.1925
11380SOL    HW235562   3.923   5.418   5.844  0.5000  2.1478 -0.0718
11381SOL     OW35563   4.220   1.963   3.453 -0.2660  0.5093 -0.1866
11381SOL    HW135564   4.248   1.953   3.361  1.8276  1.8634  0.2325
11381SOL    HW235565   4.302   1.958   3.503 -1.1334  1.7043  1.4400
11382SOL     OW35566   2.079   4.501   7.196  0.5532  0.5545 -0.6206
11382SOL    HW135567   2.150   4.488   7.260 -0.6625  0.5232  0.7779
11382SOL    HW235568   2.069   4.416   7.154 -0.9829 -0.5160  1.7138
11383SOL     OW35569   1.714   2.123   3.715 -0.0355  0.4281 -0.4787
11383SOL    HW135570   1.702   2.051   3.777  0.2442 -2.1444 -3.2002
11383SOL    HW235571   1.635   2.177   3.725 -0.9484 -1.0309  0.6549
11384SOL     OW35572   0.217   8.750   4.060 -0.6093  0.6347  0.4763
11384SOL    HW135573   0.205   8.667   4.013 -0.2272 -0.1107  1.6495
11384SOL    HW235574   0.311   8.768   4.055 -0.8084  1.4660 -0.5166
11385SOL     OW35575   2.869   4.360   1.587  0.1689  0.4635 -0.9963
11385SOL    HW135576   2.899   4.356   1.678  1.0204  0.1663 -1.2824
11385SOL    HW235577   2.791   4.306   1.585 -1.3165  2.4551  0.0962
11386SOL     OW35578   4.122   6.078   0.963 -0.2361 -0.0996  0.1801
11386SOL    HW135579   4.140   6.048   1.053 -0.7216 -0.1830  0.2503
11386SOL    HW235580   4.108   5.997   0.914 -1.6495 -0.0017  0.3900
11387SOL     OW35581   8.422   0.999   2.338 -0.6423  0.2777  0.0845
11387SOL    HW135582   8.328   1.018   2.330 -0.2227  2.6870  0.1096
11387SOL    HW235583   8.431   0.964   2.427 -1.6190 -0.8567 -0.2402
11388SOL     OW35584   1.682   8.898   7.548  0.0380 -0.2932 -0.3144
11388SOL    HW135585   1.698   8.931   7.460 -1.3049  0.4507 -0.3188
11388SOL    HW235586   1.587   8.882   7.550 -0.4399  2.1677  1.7667
11389SOL     OW35587   7.956   7.167   6.309 -0.3012 -0.1238  0.4469
11389SOL    HW135588   8.024   7.100   6.301  1.4351  1.5990  0.2115
11389SOL    HW235589   7.951   7.207   6.222  0.9477  2.1053  1.3303
11390SOL     OW35590   4.366   3.328   7.197  0.2232  0.4783 -0.5640
11390SOL    HW135591   4.458   3.306   7.212  0.3461  0.5171 -1.2186
11390SOL    HW235592   4.358   3.419   7.225  0.4758  0.5897 -0.8431
11391SOL     OW35593   4.457   2.009   7.726  0.4552  0.3406  0.2132
11391SOL    HW135594   4.481   2.020   7.818  0.8300 -1.4520  0.3681
11391SOL    HW235595   4.413   1.924   7.722  0.4324  0.3890 -1.2611
11392SOL     OW35596   7.977   5.300   4.451 -1.1355 -0.6377 -0.0085
11392SOL    HW135597   7.913   5.370   4.437 -0.7640  0.5197  3.2358
11392SOL    HW235598   7.927   5.219   4.444 -2.6938  0.1923  1.1148
11393SOL     OW35599   0.654   7.954   2.200 -0.3864 -0.3915 -0.3295
11393SOL    HW135600   0.718   8.024   2.188  0.2264 -0.6925  1.0389
11393SOL    HW235601   0.659   7.933   2.293 -2.0978 -0.7876 -0.2965
11394SOL     OW35602   2.728   2.608   2.345 -0.0054 -0.0773 -0.5742
11394SOL    HW135603   2.660   2.633   2.408  2.3760 -0.8830  2.5738
11394SOL    HW235604   2.708   2.518   2.322  1.2853 -1.2440  2.4262
11395SOL     OW35605   7.451   7.303   1.719  0.3483  0.1160 -0.3097
11395SOL    HW135606   7.447   7.229   1.659 -2.6491  0.7859 -1.0794
11395SOL    HW235607   7.463   7.264   1.805 -0.8744 -1.2856 -0.7368
11396SOL     OW35608   0.577   6.439   4.078 -0.2323  0.2844  0.6390
11396SOL    HW135609   0.539   6.380   4.142  0.2931 -0.2736  0.4456
11396SOL    HW235610   0.630   6.500   4.130  0.5133 -0.4097  0.7176
11397SOL     OW35611   3.020   5.105   3.371 -0.5507  0.3637  0.3900
11397SOL    HW135612   2.943   5.152   3.403 -0.1475 -0.7170  3.2286
11397SOL    HW235613   2.988   5.018   3.347 -0.3652  0.1846  0.7780
11398SOL     OW35614   1.654   2.100   0.749 -0.0963 -0.3576 -0.6795
11398SOL    HW135615   1.608   2.028   0.792 -0.0076 -0.6720 -1.1053
11398SOL    HW235616   1.731   2.115   0.803 -0.1391 -0.5530 -0.5629
11399SOL     OW35617   4.090   2.542   2.995 -0.3044 -0.9975 -0.0391
11399SOL    HW135618   4.170   2.492   2.977 -0.0856 -0.0465 -1.9979
11399SOL    HW235619   4.107   2.585   3.079  2.3172  1.0646 -1.4431
11400SOL     OW35620   4.360   4.023   1.379 -0.3731 -0.2567  0.3029
11400SOL    HW135621   4.270   4.054   1.373 -0.1623  0.0959 -2.1545
11400SOL    HW235622   4.413   4.103   1.378  0.0036 -0.4943  0.7298
11401SOL     OW35623   0.605   7.434   2.404  0.2336 -0.1608  0.0856
11401SOL    HW135624   0.653   7.508   2.368 -0.4512  0.5558  0.5985
11401SOL    HW235625   0.523   7.432   2.355  0.3447 -0.7387 -0.0894
11402SOL     OW35626   2.326   7.322   2.102 -0.5299  0.0650 -0.9293
11402SOL    HW135627   2.368   7.276   2.029 -0.8133  0.2361 -1.2041
11402SOL    HW235628   2.386   7.395   2.121 -0.4578  0.0241 -0.9977
11403SOL     OW35629   3.177   5.320   6.523 -0.0425 -0.1476  0.0395
11403SOL    HW135630   3.174   5.237   6.475 -0.3757  0.9627 -1.9671
11403SOL    HW235631   3.125   5.380   6.470 -2.4508  0.6470  2.9942
11404SOL     OW35632   5.412   2.810   6.159  0.0418 -0.8916 -0.8536
11404SOL    HW135633   5.504   2.788   6.145  0.1999 -0.5597 -0.3781
11404SOL    HW235634   5.411   2.852   6.245 -0.3543  0.3302 -1.4322
11405SOL     OW35635   2.000   4.183   2.401  0.0850 -0.0330 -0.1973
11405SOL    HW135636   2.026   4.176   2.309 -0.3296 -0.9061 -0.2549
11405SOL    HW235637   1.915   4.140   2.405  1.8756 -3.8556  1.3651
11406SOL     OW35638   8.955   4.878   0.944 -0.1057 -0.0856  0.3082
11406SOL    HW135639   8.879   4.922   0.982  1.0092 -0.0774  2.7522
11406SOL    HW235640   8.947   4.787   0.974  1.3102  0.1375  1.4784
11407SOL     OW35641   1.516   3.684   3.889 -0.2683 -0.6005  0.4534
11407SOL    HW135642   1.494   3.591   3.884 -0.1985 -0.7507  2.3512
11407SOL    HW235643   1.585   3.689   3.955  0.8048  0.6429 -0.7036
11408SOL     OW35644   1.433   3.605   2.945 -0.4476  0.0142 -0.5616
11408SOL    HW135645   1.385   3.593   3.027 -1.6632  1.5995 -0.9912
11408SOL    HW235646   1.502   3.668   2.967  0.9016 -1.5260 -0.1802
11409SOL     OW35647   8.935   7.632   8.358 -0.1051 -0.5577  0.3909
11409SOL    HW135648   8.892   7.715   8.380 -0.1485 -0.9671  2.0333
11409SOL    HW235649   9.023   7.656   8.332  0.0865 -0.0237  1.4896
11410SOL     OW35650   5.980   8.317   7.209  0.2848  0.5501  0.3037
11410SOL    HW135651   5.966   8.276   7.124 -0.1092 -0.7654  0.9630
11410SOL    HW235652   6.039   8.257   7.255  0.4693  1.2234  0.9607
11411SOL     OW35653   0.661   7.718   8.717 -0.3033  0.1340 -0.3558
11411SOL    HW135654   0.577   7.679   8.741  0.2047 -2.3599 -2.2571
11411SOL    HW235655   0.647   7.750   8.627  0.5041  0.6158 -0.3157
11412SOL     OW35656   8.392   2.832   6.899  0.7067  0.5682  0.5874
11412SOL    HW135657   8.402   2.851   6.806  1.4180  1.5680  0.8527
11412SOL    HW235658   8.479   2.805   6.928  1.1068  2.5245  1.4241
11413SOL     OW35659   0.582   4.744   6.428 -0.0373 -0.5096  0.2611
11413SOL    HW135660   0.522   4.810   6.393  0.3633 -0.9105 -1.2262
11413SOL    HW235661   0.669   4.774   6.400  0.3063 -0.8168  0.9768
11414SOL     OW35662   7.091   1.677   5.245 -0.1623 -0.1016 -0.3834
11414SOL    HW135663   7.184   1.699   5.236 -0.3386  0.5167 -0.7631
11414SOL    HW235664   7.064   1.651   5.157 -0.4641  0.2009 -0.3822
11415SOL     OW35665   8.397   1.801   8.758  0.3422  0.1733 -0.0822
11415SOL    HW135666   8.341   1.728   8.732  1.3096 -0.4057 -0.6430
11415SOL    HW235667   8.368   1.874   8.703  1.1753 -0.5640 -1.5965
11416SOL     OW35668   8.195   2.451   5.683 -0.4528  0.4905  0.7248
11416SOL    HW135669   8.164   2.381   5.741 -1.6520  0.9491  0.6598
11416SOL    HW235670   8.267   2.491   5.731  1.8903 -2.2594 -0.2306
11417SOL     OW35671   0.195   4.232   4.320 -0.6991  0.6554 -0.0065
11417SOL    HW135672   0.115   4.283   4.313 -1.0257  0.0566 -0.9316
11417SOL    HW235673   0.255   4.287   4.371 -1.8863  0.8508  1.2333
11418SOL     OW35674   2.796   4.929   5.106  0.0583 -0.0985  0.0476
11418SOL    HW135675   2.867   4.865   5.115  0.1980  0.2378  1.7283
11418SOL    HW235676   2.825   5.005   5.157 -0.8684  0.6428 -0.4765
11419SOL     OW35677   7.058   1.368   8.252  0.6221  0.1550  0.6918
11419SOL    HW135678   7.034   1.285   8.294  0.5534 -0.1404  0.0826
11419SOL    HW235679   7.151   1.378   8.271  0.6626 -0.1310  0.6480
11420SOL     OW35680   6.429   1.143   8.970  0.2934  0.3476 -0.0729
11420SOL    HW135681   6.380   1.178   8.896 -1.7140 -1.2099  0.4404
11420SOL    HW235682   6.378   1.167   9.047  0.4667 -1.0850  0.5125
11421SOL     OW35683   4.722   7.057   8.187 -0.1975  0.5149  0.3129
11421SOL    HW135684   4.636   7.093   8.207 -0.7817 -0.5165 -0.2446
11421SOL    HW235685   4.740   7.085   8.098  0.6572  1.8244  0.8613
11422SOL     OW35686   7.894   8.058   3.783  0.2693 -0.1162 -0.4924
11422SOL    HW135687   7.882   8.037   3.691  1.3987 -1.8294 -0.2974
11422SOL    HW235688   7.961   7.996   3.813  2.3635  2.5538  0.6993
11423SOL     OW35689   6.231   7.534   1.877  0.1417 -0.2013 -0.0679
11423SOL    HW135690   6.261   7.583   1.801 -0.4457 -0.0929 -0.2386
11423SOL    HW235691   6.136   7.527   1.865 -0.0384  0.2691  0.9009
11424SOL     OW35692   6.063   9.148   5.143 -0.5490 -0.0393 -0.2821
11424SOL    HW135693   6.147   9.132   5.100  0.2341  1.4156  0.6213
11424SOL    HW235694   6.065   9.242   5.165 -2.0385 -0.1712  0.5371
11425SOL     OW35695   6.355   3.800   0.951  0.0890 -0.2652 -0.0255
11425SOL    HW135696   6.306   3.862   0.896 -1.8739  0.6695  2.5450
11425SOL    HW235697   6.441   3.840   0.962 -0.4699  1.0000 -0.0665
11426SOL     OW35698   8.407   0.953   0.660 -0.1944  0.1459 -0.3454
11426SOL    HW135699   8.440   1.043   0.664 -1.2104  0.4912  1.0278
11426SOL    HW235700   8.407   0.924   0.751 -0.3341 -1.0869 -0.7246
11427SOL     OW35701   8.975   3.174   3.657  0.0050  0.3368  0.2524
11427SOL    HW135702   8.956   3.209   3.570 -0.9024 -2.4546 -0.7960
11427SOL    HW235703   9.020   3.092   3.640 -1.1363 -0.8167  2.3512
11428SOL     OW35704   0.254   5.342   4.669  0.2549  0.0962  0.0437
11428SOL    HW135705   0.276   5.410   4.732 -0.3538  0.8137 -0.5074
11428SOL    HW235706   0.215   5.388   4.596 -2.1324 -0.9962  0.5343
11429SOL     OW35707   6.030   2.508   2.568 -0.4255 -0.2455  1.0229
11429SOL    HW135708   6.081   2.488   2.489 -0.8192 -0.1574  0.7450
11429SOL    HW235709   5.942   2.475   2.548  0.2930 -3.7246  2.8307
11430SOL     OW35710   6.317   2.071   8.383  0.2063  0.1014  0.0121
11430SOL    HW135711   6.279   2.051   8.469 -0.9379 -0.0105 -0.4927
11430SOL    HW235712   6.371   1.995   8.362 -0.2368 -0.2856  0.2426
11431SOL     OW35713   2.407   1.746   0.773 -0.1966 -1.0550  0.4106
11431SOL    HW135714   2.401   1.818   0.835 -1.3939 -1.5605  0.9056
11431SOL    HW235715   2.469   1.777   0.707  0.2977 -0.0942  1.2894
11432SOL     OW35716   5.766   2.716   1.709  0.3711 -0.0899 -0.1562
11432SOL    HW135717   5.783   2.770   1.786  0.8853  0.3428 -0.5623
11432SOL    HW235718   5.715   2.642   1.742 -1.8472  1.4921  0.1203
11433SOL     OW35719   8.670   4.968   2.366  0.3628  0.1594 -0.0657
11433SOL    HW135720   8.707   4.990   2.452  1.2873  0.9854 -0.6555
11433SOL    HW235721   8.595   5.026   2.357  1.6634  1.8191 -0.7922
11434SOL     OW35722   8.963   8.397   0.588  0.0311  0.2333  0.2441
11434SOL    HW135723   9.014   8.438   0.658 -1.0418  2.3214 -0.1284
11434SOL    HW235724   8.878   8.379   0.628 -0.3970  0.9182 -0.3303
11435SOL     OW35725   8.713   5.532   7.239  0.1634 -0.1056  0.1965
11435SOL    HW135726   8.657   5.587   7.294  0.1705 -0.4175  0.5220
11435SOL    HW235727   8.665   5.523   7.156 -1.8095 -2.8719  1.4776
11436SOL     OW35728   0.165   7.855   1.748  0.0499  0.1057  0.4898
11436SOL    HW135729   0.072   7.850   1.767  0.0539 -4.2812  0.3185
11436SOL    HW235730   0.170   7.884   1.657 -1.1042  0.3325  0.4908
11437SOL     OW35731   6.765   8.393   8.110 -0.1858 -0.2036  0.1958
11437SOL    HW135732   6.859   8.381   8.123 -0.2976 -0.3960  0.9129
11437SOL    HW235733   6.743   8.336   8.037  0.4779  0.8492 -0.8582
11438SOL     OW35734   2.640   2.933   0.798  0.4078  0.5047 -0.0128
11438SOL    HW135735   2.576   2.989   0.754  0.7974  0.9975  0.0441
11438SOL    HW235736   2.604   2.845   0.788  0.1552  0.6813 -0.7366
11439SOL     OW35737   2.243   0.725   1.682 -0.1494 -0.1687  0.0690
11439SOL    HW135738   2.245   0.639   1.641 -0.3780  0.0927 -0.5030
11439SOL    HW235739   2.309   0.775   1.635  0.5121 -0.2395  0.8931
11440SOL     OW35740   1.764   7.824   4.428 -0.0958  0.0407 -0.1319
11440SOL    HW135741   1.834   7.853   4.487  0.6121 -0.3000 -0.7890
11440SOL    HW235742   1.764   7.729   4.436 -0.5845  0.0502 -0.0253
11441SOL     OW35743   4.943   2.570   1.357  0.0374  0.3505  0.1729
11441SOL    HW135744   4.910   2.529   1.437 -0.9825  1.1787  0.1972
11441SOL    HW235745   5.037   2.551   1.357 -0.4109 -2.0908  0.0794
11442SOL     OW35746   4.447   2.619   3.133  0.3985  0.2103  0.0752
11442SOL    HW135747   4.372   2.677   3.117  0.8806  0.4331 -1.5046
11442SOL    HW235748   4.407   2.538   3.165 -0.4590  0.6173  0.0838
11443SOL     OW35749   8.771   2.220   2.262 -0.1178  0.3630  0.2828
11443SOL    HW135750   8.808   2.232   2.349  0.1208 -0.4504  0.3073
11443SOL    HW235751   8.711   2.146   2.272 -1.1960  1.1791  0.0759
11444SOL     OW35752   3.564   0.882   8.624 -0.0339 -1.0952 -0.1941
11444SOL    HW135753   3.618   0.906   8.549 -0.4351 -1.9178 -0.7560
11444SOL    HW235754   3.578   0.788   8.635 -0.5344 -1.1149  0.3077
11445SOL     OW35755   4.549   1.101   3.637 -0.5855  0.3633 -0.0114
11445SOL    HW135756   4.500   1.111   3.719 -0.2001 -1.8169  0.5631
11445SOL    HW235757   4.490   1.134   3.570 -1.5540  0.7395  0.9852
11446SOL     OW35758   7.974   8.215   2.179  0.7282 -0.2011  0.0472
11446SOL    HW135759   7.886   8.200   2.145  1.1787 -1.6949 -0.5627
11446SOL    HW235760   7.961   8.267   2.259 -0.5333  1.2865 -1.0720
11447SOL     OW35761   5.810   2.805   3.376  0.3034  0.0163  0.3911
11447SOL    HW135762   5.805   2.900   3.367  0.0232  0.0878  1.1462
11447SOL    HW235763   5.826   2.791   3.470 -1.5848 -0.7194  0.6618
11448SOL     OW35764   9.188   3.207   1.068  0.0011 -0.1955  0.2493
11448SOL    HW135765   9.099   3.226   1.099  0.2873 -0.5799  1.3722
11448SOL    HW235766   9.195   3.112   1.075 -0.5685 -0.5660 -2.9066
11449SOL     OW35767   0.485   3.141   3.344 -0.5971  0.3784 -0.2433
11449SOL    HW135768   0.438   3.077   3.290  0.8958  0.9118 -2.2989
11449SOL    HW235769   0.427   3.217   3.348 -0.8091  0.2689 -1.0083
11450SOL     OW35770   6.401   5.276   9.138  0.1920 -0.2635  0.1966
11450SOL    HW135771   6.369   5.209   9.077  1.3231 -0.8280  0.1808
11450SOL    HW235772   6.406   5.356   9.086  0.5049 -0.5845 -0.2686
11451SOL     OW35773   1.936   2.495   5.213 -0.1702 -0.6464 -0.1214
11451SOL    HW135774   1.894   2.427   5.159 -2.3201  1.6814 -1.6018
11451SOL    HW235775   1.978   2.553   5.150  1.6141 -0.5004  1.1211
11452SOL     OW35776   8.027   6.684   2.637 -0.1694 -0.3795  0.8723
11452SOL    HW135777   8.064   6.628   2.706  1.1724  0.0692  0.5240
11452SOL    HW235778   7.974   6.624   2.584  3.7454 -2.1573 -1.4234
11453SOL     OW35779   5.315   3.187   5.592  0.0448  0.1790  0.0599
11453SOL    HW135780   5.368   3.266   5.580  1.3490 -0.7619 -0.4641
11453SOL    HW235781   5.331   3.134   5.514 -2.6102  0.3617 -0.7295
11454SOL     OW35782   6.173   6.530   1.566 -0.9151  0.3177  0.3964
11454SOL    HW135783   6.102   6.481   1.525 -0.9000  0.5268  0.1157
11454SOL    HW235784   6.158   6.522   1.660 -1.7011  0.9465  0.3271
11455SOL     OW35785   6.543   4.343   7.306  0.2091 -0.3918 -0.1463
11455SOL    HW135786   6.476   4.400   7.268 -0.3066 -0.9866 -0.1492
11455SOL    HW235787   6.616   4.402   7.327  1.2344 -0.2473 -3.5963
11456SOL     OW35788   3.790   8.506   6.893 -0.2190 -0.5719 -0.4014
11456SOL    HW135789   3.841   8.453   6.955 -0.0717  1.4230  1.2831
11456SOL    HW235790   3.702   8.470   6.897 -0.1750 -0.5858  0.8927
11457SOL     OW35791   5.993   7.638   3.121 -0.0696 -0.1083 -0.0948
11457SOL    HW135792   5.901   7.633   3.149 -0.2882 -1.5846 -0.9411
11457SOL    HW235793   6.011   7.551   3.084  1.7926  0.0210  0.4048
11458SOL     OW35794   8.796   0.882   4.900  0.1882 -0.3090 -0.4933
11458SOL    HW135795   8.798   0.830   4.819  2.0373  1.2132 -1.5054
11458SOL    HW235796   8.840   0.826   4.965 -0.6003 -1.2220 -0.7140
11459SOL     OW35797   1.848   0.502   3.168  0.3397 -0.6979 -0.6396
11459SOL    HW135798   1.939   0.474   3.180  1.1238  1.4336 -1.1740
11459SOL    HW235799   1.833   0.564   3.239  0.7147  2.0678 -2.8067
11460SOL     OW35800   2.351   8.752   7.097  0.5806 -0.2145  0.3986
11460SOL    HW135801   2.392   8.815   7.157  1.2728 -0.2320 -0.0470
11460SOL    HW235802   2.257   8.771   7.103  0.7467  0.5682  0.6022
11461SOL     OW35803   9.261   3.440   8.815  0.0471  0.0200 -0.3774
11461SOL    HW135804   9.185   3.482   8.855  1.1258 -0.4154  2.3195
11461SOL    HW235805   9.333   3.503   8.827  1.0083 -1.2646  1.0155
11462SOL     OW35806   1.752   7.343   5.104 -0.1519 -0.1840 -0.4292
11462SOL    HW135807   1.772   7.413   5.166  0.5632  0.2903 -1.1674
11462SOL    HW235808   1.668   7.307   5.133  1.3776 -1.7931  2.4235
11463SOL     OW35809   6.391   2.063   6.623 -0.0711 -0.3193  0.3186
11463SOL    HW135810   6.468   2.050   6.568 -0.3660 -0.4810 -0.0653
11463SOL    HW235811   6.421   2.043   6.711  0.3285 -0.3717  0.1738
11464SOL     OW35812   0.443   7.475   4.054  0.1936  0.2007 -0.1191
11464SOL    HW135813   0.519   7.453   4.107 -1.3922 -0.2903  2.1329
11464SOL    HW235814   0.415   7.560   4.086  0.4127  0.9044 -1.7129
11465SOL     OW35815   5.058   8.133   4.374  0.1040  0.3974 -0.2555
11465SOL    HW135816   5.009   8.066   4.326  1.3022  0.6169 -1.8630
11465SOL    HW235817   5.126   8.161   4.313  2.0609  0.3241  1.7614
11466SOL     OW35818   4.002   4.043   0.927  0.2960 -0.7370  0.0505
11466SOL    HW135819   4.045   3.974   0.978  1.5977 -0.3080 -0.4356
11466SOL    HW235820   3.908   4.025   0.938  0.5513 -1.2419  1.7597
11467SOL     OW35821   7.239   7.442   0.472  0.1550  0.1815  1.0843
11467SOL    HW135822   7.205   7.370   0.418  0.8932 -0.9093  2.0282
11467SOL    HW235823   7.165   7.468   0.527 -0.4805  1.0168 -0.1150
11468SOL     OW35824   4.780   3.350   2.968  0.0650  0.0342 -0.3573
11468SOL    HW135825   4.724   3.342   2.891  0.4626  0.1666 -0.6581
11468SOL    HW235826   4.860   3.391   2.936  1.4686 -2.6137 -0.4781
11469SOL     OW35827   6.121   4.877   0.368  0.5543  0.0709  0.0498
11469SOL    HW135828   6.049   4.936   0.393 -0.8705 -1.0830 -1.1715
11469SOL    HW235829   6.095   4.844   0.282  3.3692  0.8749 -1.2049
11470SOL     OW35830   6.266   3.628   5.492 -0.2242 -0.1364 -0.1883
11470SOL    HW135831   6.208   3.600   5.563  0.5433 -1.4485 -0.0447
11470SOL    HW235832   6.354   3.626   5.531  0.0062  1.1422 -0.5988
11471SOL     OW35833   1.310   4.842   1.679 -0.0156  0.1921  0.4293
11471SOL    HW135834   1.305   4.934   1.705 -0.3880  0.0465  0.8885
11471SOL    HW235835   1.401   4.818   1.693  0.8002  1.2530 -2.3704
11472SOL     OW35836   3.711   0.780   0.111 -1.0209  0.1870 -0.8252
11472SOL    HW135837   3.711   0.846   0.180 -0.8081  0.1018 -0.7449
11472SOL    HW235838   3.624   0.739   0.116 -0.2077 -1.4666  0.9469
11473SOL     OW35839   3.342   6.984   6.697 -0.2947  0.3300  0.3664
11473SOL    HW135840   3.247   6.993   6.702 -0.3302  0.6159 -0.6453
11473SOL    HW235841   3.364   7.008   6.607  0.8187  1.0159  0.7960
11474SOL     OW35842   1.047   3.490   7.013  0.1390  0.1253 -0.1010
11474SOL    HW135843   1.001   3.440   7.081  2.5266 -2.8035 -0.4454
11474SOL    HW235844   1.135   3.503   7.048  0.7119  0.6846 -1.6715
11475SOL     OW35845   5.949   3.917   1.446  0.0897 -0.6151  0.1095
11475SOL    HW135846   6.009   3.992   1.445 -0.4548 -0.1616 -1.7640
11475SOL    HW235847   5.996   3.850   1.495  0.4409  1.0208  2.1985
11476SOL     OW35848   8.714   6.720   3.328 -0.0208  0.0457  0.0547
11476SOL    HW135849   8.624   6.740   3.303  0.2313  0.2671 -0.6894
11476SOL    HW235850   8.741   6.652   3.267  0.1469 -0.3945  0.6127
11477SOL     OW35851   6.385   4.166   7.626  0.3265 -0.1949 -0.8948
11477SOL    HW135852   6.480   4.159   7.631  0.2066 -1.1303  2.5930
11477SOL    HW235853   6.356   4.081   7.593  0.6247 -1.8892  2.7586
11478SOL     OW35854   7.321   5.545   8.355  0.0987 -0.1372  0.5168
11478SOL    HW135855   7.284   5.493   8.283 -1.0042 -0.5141  1.3111
11478SOL    HW235856   7.378   5.484   8.402  2.0919  0.5331 -0.8974
11479SOL     OW35857   8.765   7.706   5.260 -0.6677  0.3400 -0.0202
11479SOL    HW135858   8.711   7.628   5.273  1.3354 -0.7872  2.5217
11479SOL    HW235859   8.853   7.678   5.287  0.7368  2.6982 -1.7956
11480SOL     OW35860   5.987   7.422   2.103 -0.4989 -0.7009  0.3139
11480SOL    HW135861   6.039   7.485   2.153  0.5710  0.2251 -1.7961
11480SOL    HW235862   5.958   7.471   2.026 -1.9151 -2.0834 -0.0849
11481SOL     OW35863   3.878   0.160   0.297  0.3657 -0.1033 -0.2859
11481SOL    HW135864   3.949   0.188   0.354  2.7532  1.0314 -3.5334
11481SOL    HW235865   3.858   0.237   0.244 -1.5428 -1.1555 -1.2164
11482SOL     OW35866   3.009   8.052   3.897 -0.0090 -0.2159  0.1801
11482SOL    HW135867   2.997   8.109   3.973  1.6096  0.9842 -0.4209
11482SOL    HW235868   2.933   8.070   3.841  0.7479  1.8137 -0.2602
11483SOL     OW35869   3.799   4.993   7.608 -0.0327 -0.0174  0.9299
11483SOL    HW135870   3.803   5.089   7.604 -0.9605 -0.0143 -0.5539
11483SOL    HW235871   3.759   4.975   7.693  0.3683  0.9082  1.3291
11484SOL     OW35872   4.179   3.225   5.356 -0.4204 -0.6323  0.1100
11484SOL    HW135873   4.131   3.304   5.331 -1.5247 -1.3323 -0.0224
11484SOL    HW235874   4.267   3.257   5.376 -1.4644  1.0045  2.4906
11485SOL     OW35875   0.177   1.976   6.309 -0.4578  0.1084  0.3469
11485SOL    HW135876   0.139   1.947   6.393 -0.1362  0.2074  0.5281
11485SOL    HW235877   0.264   1.936   6.307 -1.4936 -2.2542 -1.2388
11486SOL     OW35878   4.519   2.455   1.166  0.4138  0.4382 -0.2324
11486SOL    HW135879   4.526   2.530   1.224  1.6793 -1.5202  2.3342
11486SOL    HW235880   4.609   2.431   1.146  0.0517 -0.7372 -0.5615
11487SOL     OW35881   6.300   5.144   4.713  0.4461 -0.7527  0.0186
11487SOL    HW135882   6.287   5.057   4.753 -0.4777 -0.3640  0.6010
11487SOL    HW235883   6.352   5.192   4.778 -0.8556 -0.1967  0.6824
11488SOL     OW35884   0.669   7.762   7.949 -0.2759 -0.7079  0.4008
11488SOL    HW135885   0.731   7.691   7.935 -0.1568 -0.9968  2.1406
11488SOL    HW235886   0.724   7.840   7.962 -0.4004 -0.2895 -1.2519
11489SOL     OW35887   6.916   6.377   1.583 -0.1907 -0.8120  0.2494
11489SOL    HW135888   6.852   6.404   1.517 -0.2689 -2.1458 -0.2507
11489SOL    HW235889   6.905   6.440   1.655 -0.0329  0.7311 -1.0238
11490SOL     OW35890   5.111   0.769   2.276 -0.1139  0.4592 -0.0813
11490SOL    HW135891   5.068   0.686   2.258 -1.4520  1.1874 -0.3254
11490SOL    HW235892   5.093   0.787   2.368  0.5201  0.2934  0.0810
11491SOL     OW35893   4.448   4.660   5.463  0.3247 -0.3882  0.3737
11491SOL    HW135894   4.391   4.705   5.400  1.7316  1.3897  0.3175
11491SOL    HW235895   4.392   4.645   5.539 -1.2867 -2.1719 -1.0649
11492SOL     OW35896   7.794   3.979   8.459 -0.1201  0.6326  0.3416
11492SOL    HW135897   7.705   3.945   8.453  0.0582 -0.1443  1.6727
11492SOL    HW235898   7.809   4.021   8.375 -0.4451 -2.4095 -1.3781
11493SOL     OW35899   2.874   4.432   2.836 -0.0700  0.4582 -0.2918
11493SOL    HW135900   2.828   4.349   2.826  0.5929 -0.2602  2.0384
11493SOL    HW235901   2.957   4.419   2.790  0.4821 -0.6000  0.9439
11494SOL     OW35902   2.076   7.957   7.326 -0.2540 -0.6637 -0.0338
11494SOL    HW135903   2.153   7.947   7.383  0.0364 -1.5162 -0.5566
11494SOL    HW235904   2.076   8.050   7.302  0.9937 -0.7727 -0.5482
11495SOL     OW35905   7.304   2.054   6.536 -0.4808  0.0622 -0.1907
11495SOL    HW135906   7.229   2.112   6.533 -0.9216 -0.5204 -0.8041
11495SOL    HW235907   7.296   2.000   6.457  1.1448  0.6951 -0.8392
11496SOL     OW35908   0.377   2.556   6.328  0.4018 -0.0258  0.2567
11496SOL    HW135909   0.368   2.471   6.370 -1.7537 -0.2598 -0.5453
11496SOL    HW235910   0.467   2.582   6.345  0.7384 -1.8834  1.5963
11497SOL     OW35911   4.284   8.040   4.898 -0.1545 -0.1347 -0.4352
11497SOL    HW135912   4.378   8.050   4.889 -0.0093  0.1762  1.1482
11497SOL    HW235913   4.253   8.020   4.810  1.5263 -1.4305 -0.7698
11498SOL     OW35914   4.206   1.198   2.833  0.1226 -0.1410 -0.2467
11498SOL    HW135915   4.265   1.123   2.824  2.6392  1.8776 -1.6123
11498SOL    HW235916   4.166   1.208   2.747 -0.8043 -0.3308  0.1478
11499SOL     OW35917   7.123   5.782   4.445  0.0574 -0.5782 -0.3369
11499SOL    HW135918   7.066   5.799   4.520 -0.2207 -0.0257 -0.6624
11499SOL    HW235919   7.062   5.761   4.373  0.2887 -0.4838 -0.5613
11500SOL     OW35920   0.512   4.282   1.120 -0.3930 -0.5609  0.0654
11500SOL    HW135921   0.536   4.238   1.202  1.4144 -3.8583 -2.0294
11500SOL    HW235922   0.465   4.215   1.071  2.1726 -0.2021 -3.1951
11501SOL     OW35923   7.658   2.547   6.716 -0.2162  0.1317  0.1445
11501SOL    HW135924   7.669   2.631   6.760  2.8805  1.6031 -2.9155
11501SOL    HW235925   7.682   2.481   6.781  0.4154  1.8625  1.7332
11502SOL     OW35926   4.462   3.694   0.285 -0.2508 -0.0188 -0.3320
11502SOL    HW135927   4.508   3.611   0.297 -0.3481  0.0577  0.6616
11502SOL    HW235928   4.405   3.701   0.361  0.5754  1.4756  0.1952
11503SOL     OW35929   4.643   2.632   6.374  0.2430 -0.4584 -0.7089
11503SOL    HW135930   4.685   2.671   6.298 -0.4379 -1.6476 -1.7447
11503SOL    HW235931   4.551   2.659   6.368  0.5153  0.8995  0.7032
11504SOL     OW35932   3.992   0.345   8.264 -0.0613 -0.4031  0.0738
11504SOL    HW135933   4.080   0.337   8.225  0.2883 -0.7990  0.9169
11504SOL    HW235934   3.972   0.257   8.296 -0.0567  0.0404  1.3480
11505SOL     OW35935   2.541   5.435   0.253 -0.2212  0.7637 -0.3119
11505SOL    HW135936   2.471   5.382   0.289 -0.5397  0.2766 -1.5903
11505SOL    HW235937   2.497   5.498   0.196  0.3950 -0.0549 -1.7501
11506SOL     OW35938   1.743   8.359   8.780 -0.2358 -0.2801  0.2891
11506SOL    HW135939   1.730   8.266   8.797 -0.9494  0.0080  1.4684
11506SOL    HW235940   1.828   8.379   8.818  0.6549 -0.7649 -1.3892
11507SOL     OW35941   3.209   2.553   1.225  0.5435 -0.4026 -0.1155
11507SOL    HW135942   3.117   2.543   1.247  0.7961  0.4209  1.4273
11507SOL    HW235943   3.228   2.482   1.163 -1.6544  0.6913 -2.2216
11508SOL     OW35944   9.278   1.696   7.325  0.0677  0.0000 -0.0088
11508SOL    HW135945   9.225   1.711   7.247  1.4625  0.9038 -0.8321
11508SOL    HW235946   9.214   1.685   7.396 -1.2335 -0.9755 -1.2641
11509SOL     OW35947   8.944   7.675   2.617 -0.1301  0.7156  0.3090
11509SOL    HW135948   8.960   7.674   2.523  2.2611  0.8948  0.6528
11509SOL    HW235949   8.891   7.753   2.632  0.1918  1.1672 -0.7854
11510SOL     OW35950   8.196   2.406   5.288 -0.5195 -0.0134  0.0569
11510SOL    HW135951   8.212   2.328   5.342 -1.1159 -0.2707 -0.1259
11510SOL    HW235952   8.272   2.410   5.229 -0.4506 -0.4242  0.1094
11511SOL     OW35953   0.894   6.028   8.938 -0.0224  0.3370  0.0484
11511SOL    HW135954   0.910   5.944   8.982 -2.2228 -1.3066 -1.9970
11511SOL    HW235955   0.966   6.034   8.875 -0.0891 -0.2670 -0.0991
11512SOL     OW35956   2.397   1.067   2.904 -0.1252 -0.3592  0.0780
11512SOL    HW135957   2.390   1.160   2.925  0.1362 -0.0822 -1.0360
11512SOL    HW235958   2.404   1.024   2.990  0.0920  0.6679  0.5911
11513SOL     OW35959   1.130   7.874   0.606 -0.4843  0.5558 -0.4743
11513SOL    HW135960   1.095   7.820   0.677  0.2943  0.5752 -0.0609
11513SOL    HW235961   1.161   7.812   0.540 -1.1269  0.5358 -0.7634
11514SOL     OW35962   3.192   6.769   0.670 -0.1596  0.5139 -0.2178
11514SOL    HW135963   3.139   6.698   0.707 -0.1104  0.4424 -0.2835
11514SOL    HW235964   3.232   6.810   0.746  1.3916 -0.7731 -0.2795
11515SOL     OW35965   6.493   0.264   8.123  0.2490  0.2708  0.1617
11515SOL    HW135966   6.469   0.278   8.214 -0.9287 -2.9978  0.4700
11515SOL    HW235967   6.409   0.260   8.076  0.4310 -3.1674 -0.1113
11516SOL     OW35968   5.245   4.219   7.893  0.3206 -0.1949 -0.1120
11516SOL    HW135969   5.176   4.284   7.878  0.6728  0.0801 -0.5615
11516SOL    HW235970   5.313   4.267   7.939 -0.8878 -1.1058  2.8678
11517SOL     OW35971   2.396   5.498   5.934  0.4512 -0.1291  0.2397
11517SOL    HW135972   2.405   5.483   6.028  0.9828 -0.9887  0.0566
11517SOL    HW235973   2.315   5.549   5.926 -1.3861 -2.7279  0.9316
11518SOL     OW35974   0.385   1.959   7.830 -0.2526  0.1526  0.2350
11518SOL    HW135975   0.350   1.871   7.822 -1.6396  0.6118  0.9109
11518SOL    HW235976   0.309   2.016   7.822  0.7558  1.3699 -1.4167
11519SOL     OW35977   3.204   6.067   4.912 -0.1482 -0.4408 -0.6966
11519SOL    HW135978   3.213   5.972   4.904  0.2824 -0.7449  2.2163
11519SOL    HW235979   3.110   6.081   4.926 -0.0317 -0.6273  0.3531
11520SOL     OW35980   3.209   5.219   6.128 -0.4045  0.0114 -0.0712
11520SOL    HW135981   3.254   5.279   6.187 -0.5286  0.2727 -0.2396
11520SOL    HW235982   3.280   5.174   6.081 -0.3053 -0.2131  0.2855
11521SOL     OW35983   5.555   8.410   7.757  0.5758  0.5796  0.0006
11521SOL    HW135984   5.639   8.454   7.744  0.8865 -0.1885 -0.6629
11521SOL    HW235985   5.578   8.327   7.800  0.3610 -0.4115 -1.7231
11522SOL     OW35986   5.640   7.642   4.675  0.5058  0.4277  0.1000
11522SOL    HW135987   5.596   7.569   4.718  1.7616 -0.4491 -0.0588
11522SOL    HW235988   5.589   7.719   4.702 -0.4843 -0.4189  0.7534
11523SOL     OW35989   1.470   9.031   5.807  0.0068 -0.4524 -0.0648
11523SOL    HW135990   1.401   9.046   5.871 -0.3336  0.4830 -0.6294
11523SOL    HW235991   1.442   9.080   5.730  1.1459 -0.3217 -0.4139
11524SOL     OW35992   0.151   2.259   0.355  0.3810 -0.0402  0.1078
11524SOL    HW135993   0.207   2.216   0.290  1.4522  1.5513 -0.0911
11524SOL    HW235994   0.114   2.334   0.308 -0.6907 -0.1830  0.6968
11525SOL     OW35995   2.855   2.651   7.614  0.2348 -0.3720 -0.6962
11525SOL    HW135996   2.840   2.653   7.708 -0.0030  0.4623 -0.7414
11525SOL    HW235997   2.802   2.578   7.583 -1.4338  0.6905 -0.4538
11526SOL     OW35998   7.072   7.884   1.391 -0.2748 -0.0571  0.0739
11526SOL    HW135999   7.161   7.856   1.412 -0.3207 -0.0687  0.2544
11526SOL    HW236000   7.016   7.816   1.428 -0.3667  0.0427  0.1171
11527SOL     OW36001   1.556   3.812   0.368  0.0116 -0.4081  0.3638
11527SOL    HW136002   1.626   3.859   0.414  0.6585 -3.1698  2.4150
11527SOL    HW236003   1.597   3.730   0.340 -1.6711 -0.8261 -1.0599
11528SOL     OW36004   8.240   8.452   1.726 -0.1769  0.4535 -0.1472
11528SOL    HW136005   8.200   8.410   1.650  0.4728  0.7892 -0.6872
11528SOL    HW236006   8.243   8.383   1.793  2.7871 -1.0768 -1.6702
11529SOL     OW36007   1.701   6.352   8.932  0.3245  0.0345 -0.1651
11529SOL    HW136008   1.778   6.372   8.877  0.5136  2.0114  0.7340
11529SOL    HW236009   1.648   6.432   8.929 -0.0931 -0.1164  1.8017
11530SOL     OW36010   5.494   2.942   5.078 -0.5189  0.0616  0.4510
11530SOL    HW136011   5.403   2.971   5.081 -0.6917 -0.4389  0.2755
11530SOL    HW236012   5.500   2.889   4.999  0.6056  2.2435 -1.0366
11531SOL     OW36013   1.578   1.692   1.678 -0.2625  0.4879 -0.4233
11531SOL    HW136014   1.528   1.767   1.644  0.5494  1.2028 -0.0895
11531SOL    HW236015   1.667   1.706   1.644 -0.4014 -1.0895 -1.5318
11532SOL     OW36016   6.602   2.566   5.880  0.4103  0.6157  0.1989
11532SOL    HW136017   6.556   2.551   5.797 -1.8142  1.0331  1.2758
11532SOL    HW236018   6.554   2.637   5.921 -0.8129 -1.7866  3.3511
11533SOL     OW36019   3.962   2.036   1.828 -0.2234 -1.0529  0.4161
11533SOL    HW136020   3.983   2.060   1.919 -1.9147  2.1347  0.1336
11533SOL    HW236021   3.873   2.001   1.833 -0.0066 -1.6431  0.0901
11534SOL     OW36022   8.575   1.345   6.334 -0.2611 -0.2227  0.2023
11534SOL    HW136023   8.505   1.382   6.280 -0.6425  1.3453  1.7170
11534SOL    HW236024   8.558   1.251   6.334 -1.0065 -0.1180 -1.3235
11535SOL     OW36025   1.679   4.246   6.513  0.1647 -0.4432 -0.4445
11535SOL    HW136026   1.737   4.282   6.447  0.3152 -2.2665 -1.3875
11535SOL    HW236027   1.737   4.213   6.582 -0.0362  2.8939  1.5176
11536SOL     OW36028   7.150   6.980   2.984  0.9605 -0.2282 -0.5103
11536SOL    HW136029   7.115   6.896   2.953 -1.3484 -0.0105  1.2300
11536SOL    HW236030   7.242   6.962   3.002  1.5103 -1.3151 -3.7467
11537SOL     OW36031   4.704   8.216   8.065 -0.2227 -0.0869  0.0399
11537SOL    HW136032   4.765   8.232   7.993 -0.6492 -1.6757 -0.7233
11537SOL    HW236033   4.619   8.205   8.023 -0.1279 -3.3532  0.4166
11538SOL     OW36034   3.488   4.883   8.268 -0.2123 -0.5803 -0.1704
11538SOL    HW136035   3.409   4.860   8.219 -0.8563 -0.2394  0.6883
11538SOL    HW236036   3.488   4.822   8.342  0.0149 -0.1921  0.1494
11539SOL     OW36037   5.560   3.617   8.924 -0.0881  0.2113 -0.2177
11539SOL    HW136038   5.654   3.608   8.913 -0.1720  0.1035 -0.9016
11539SOL    HW236039   5.546   3.616   9.019  0.6889  1.2490 -0.0817
11540SOL     OW36040   2.338   3.270   0.443 -0.2935 -0.2770 -0.8240
11540SOL    HW136041   2.314   3.304   0.357  0.7915 -0.7394 -1.3132
11540SOL    HW236042   2.394   3.195   0.426  0.4360 -0.0125  0.2865
11541SOL     OW36043   2.832   5.310   5.016  0.2000  0.0523 -0.0922
11541SOL    HW136044   2.745   5.277   4.995  0.1557 -0.2555  0.5702
11541SOL    HW236045   2.877   5.237   5.057 -0.1823  1.0241  2.2035
11542SOL     OW36046   2.292   6.063   2.244  0.3334  0.0844 -0.4742
11542SOL    HW136047   2.218   6.097   2.294  1.8417  1.0169  1.2841
11542SOL    HW236048   2.300   5.972   2.271  0.8470  0.4551  0.6959
11543SOL     OW36049   5.519   5.631   5.492 -0.1606 -0.7836  1.1787
11543SOL    HW136050   5.424   5.628   5.502 -0.5659  1.2112 -1.0891
11543SOL    HW236051   5.539   5.562   5.429 -0.4659  0.2311 -0.0740
11544SOL     OW36052   6.825   2.584   1.892 -0.6417 -0.1278 -0.6584
11544SOL    HW136053   6.893   2.642   1.856 -0.6456 -0.2180 -0.8117
11544SOL    HW236054   6.849   2.574   1.984  0.9087 -2.0355 -1.2018
11545SOL     OW36055   9.151   0.954   4.305 -0.5091  0.9006  0.5182
11545SOL    HW136056   9.120   1.029   4.356 -0.4275  1.5232 -0.3319
11545SOL    HW236057   9.116   0.969   4.217 -0.0637  0.1995  0.2149
11546SOL     OW36058   1.974   7.815   2.958  0.4243  0.3332 -0.0567
11546SOL    HW136059   1.982   7.910   2.948  1.8836  0.2596  0.1994
11546SOL    HW236060   1.985   7.800   3.052  1.3475 -0.1583 -0.2299
11547SOL     OW36061   7.326   8.406   0.963  0.4704  0.0604 -0.1359
11547SOL    HW136062   7.297   8.316   0.947 -0.7835  0.2068  1.0898
11547SOL    HW236063   7.276   8.459   0.901 -1.0260  0.1712  1.0890
11548SOL     OW36064   3.734   9.238   6.264  0.0081  0.0401  0.0741
11548SOL    HW136065   3.655   9.184   6.266  0.8636 -1.2535  0.1649
11548SOL    HW236066   3.705   9.322   6.228 -1.5289 -0.1777  0.7170
11549SOL     OW36067   1.348   4.625   7.607 -0.0259  0.1444 -0.1909
11549SOL    HW136068   1.254   4.644   7.606 -0.1722 -0.2239  1.8769
11549SOL    HW236069   1.389   4.706   7.637  0.1250 -0.2118  0.6061
11550SOL     OW36070   2.424   1.252   3.846  0.4253  0.2936  0.1880
11550SOL    HW136071   2.410   1.187   3.914 -0.7587  0.5125  0.1764
11550SOL    HW236072   2.470   1.323   3.890 -1.7144  1.1364  1.2076
11551SOL     OW36073   6.512   3.347   1.700  0.0759 -0.1541  0.0687
11551SOL    HW136074   6.584   3.309   1.650  0.9421  0.3411  0.9100
11551SOL    HW236075   6.436   3.339   1.642  1.1400  0.8871 -1.5611
11552SOL     OW36076   1.483   2.929   4.226 -0.0674  0.0175  0.0767
11552SOL    HW136077   1.480   2.998   4.160  0.7268  0.9387  0.9541
11552SOL    HW236078   1.567   2.942   4.270  0.2730 -1.7706  0.0127
11553SOL     OW36079   3.504   5.032   1.379 -0.8431  0.2524 -0.0998
11553SOL    HW136080   3.497   4.971   1.452 -0.6314  1.1209  0.6676
11553SOL    HW236081   3.590   5.014   1.341 -0.0332  1.1929  1.1902
11554SOL     OW36082   5.832   3.524   0.239  0.5653 -0.0520 -0.2942
11554SOL    HW136083   5.802   3.579   0.167 -0.3544  0.9089  0.7944
11554SOL    HW236084   5.924   3.506   0.218  0.6807  1.2827 -1.0475
11555SOL     OW36085   1.810   6.705   5.140  0.1079 -0.1128 -0.1893
11555SOL    HW136086   1.728   6.752   5.153 -1.1170 -2.3032  0.5990
11555SOL    HW236087   1.870   6.744   5.204 -0.6935  0.7248  0.0740
11556SOL     OW36088   6.391   6.307   5.139  0.2697  0.3253 -0.0644
11556SOL    HW136089   6.333   6.381   5.159 -1.3554 -1.1464  1.0760
11556SOL    HW236090   6.462   6.314   5.203 -0.3614  0.4429  0.6493
11557SOL     OW36091   3.917   7.914   7.064  0.4839 -0.6295 -0.6162
11557SOL    HW136092   3.975   7.960   7.124  2.2161 -0.6234 -2.1939
11557SOL    HW236093   3.858   7.982   7.031 -0.0962 -0.5233  0.5870
11558SOL     OW36094   7.722   3.175   8.239 -0.2683 -0.1545 -0.4354
11558SOL    HW136095   7.638   3.133   8.218 -0.4990  0.7444 -1.3615
11558SOL    HW236096   7.787   3.107   8.223 -0.6247 -0.1609 -2.0284
11559SOL     OW36097   8.068   1.973   6.590 -0.6444 -0.0319 -0.1558
11559SOL    HW136098   7.973   1.969   6.573 -0.7827  0.8422  0.3711
11559SOL    HW236099   8.078   1.939   6.679 -0.7615  2.0348  0.7074
11560SOL     OW36100   4.779   5.589   6.036 -0.5499  0.1631  0.2710
11560SOL    HW136101   4.691   5.606   6.004 -0.0017  0.6538 -1.0327
11560SOL    HW236102   4.768   5.577   6.130 -1.9122  0.9308  0.2378
11561SOL     OW36103   0.621   1.272   4.119  0.4426  0.5634 -0.0486
11561SOL    HW136104   0.594   1.183   4.143  3.3730 -1.1173 -2.2010
11561SOL    HW236105   0.702   1.287   4.168  0.3244  1.7824 -0.1932
11562SOL     OW36106   0.231   2.212   2.587 -0.0093 -0.1564  0.4749
11562SOL    HW136107   0.157   2.180   2.638 -0.0499 -0.8313 -0.0056
11562SOL    HW236108   0.301   2.149   2.604 -0.1750 -0.6708 -0.6957
11563SOL     OW36109   3.581   6.267   3.331 -0.0717 -0.6228 -0.6175
11563SOL    HW136110   3.646   6.219   3.280 -0.0339 -0.3749 -0.8025
11563SOL    HW236111   3.504   6.210   3.331  0.7442 -1.8603  1.2647
11564SOL     OW36112   2.701   6.107   1.001 -0.5009 -0.1269  0.7332
11564SOL    HW136113   2.780   6.108   0.948 -0.8889  2.6827  0.0570
11564SOL    HW236114   2.630   6.126   0.940 -1.5734 -1.4121  1.5221
11565SOL     OW36115   5.624   1.055   3.417  0.9053  0.9295 -0.0274
11565SOL    HW136116   5.580   0.990   3.363 -2.2660  2.2391  0.7899
11565SOL    HW236117   5.697   1.008   3.457  0.9333 -1.0983 -2.2229
11566SOL     OW36118   0.497   0.484   5.242 -0.4222  0.1421 -0.2547
11566SOL    HW136119   0.452   0.568   5.248 -1.6167 -0.5482  1.0744
11566SOL    HW236120   0.427   0.419   5.250  0.7167 -0.9769  1.3033
11567SOL     OW36121   0.475   6.798   3.822  0.1913 -0.0974 -0.1811
11567SOL    HW136122   0.419   6.870   3.793  1.2200  0.9159  0.2498
11567SOL    HW236123   0.458   6.727   3.760 -2.6364 -0.3802  0.7797
11568SOL     OW36124   1.899   7.125   4.580 -0.0318  0.6224 -0.1829
11568SOL    HW136125   1.820   7.175   4.560 -0.5200 -0.8014 -2.1139
11568SOL    HW236126   1.868   7.047   4.624  0.3334  0.2460 -0.5838
11569SOL     OW36127   4.461   8.214   2.772  0.0032  0.6251 -0.1005
11569SOL    HW136128   4.529   8.167   2.725  0.7894  1.0786  0.5449
11569SOL    HW236129   4.481   8.200   2.865 -1.2400  0.1276  0.1116
11570SOL     OW36130   5.949   6.631   3.270  0.2294 -0.3652  0.0808
11570SOL    HW136131   5.928   6.546   3.308 -0.1714 -0.4389 -0.3027
11570SOL    HW236132   6.041   6.623   3.243  0.3656 -0.4793  0.5638
11571SOL     OW36133   9.053   7.676   8.662  0.6044  0.4349 -0.3721
11571SOL    HW136134   9.019   7.622   8.591 -1.4504  0.9503  0.1452
11571SOL    HW236135   9.073   7.761   8.621  0.5990  0.3442 -0.5611
11572SOL     OW36136   3.476   7.241   2.685  0.7907 -0.2013  0.0745
11572SOL    HW136137   3.395   7.215   2.641  0.9109 -0.1033 -0.2028
11572SOL    HW236138   3.536   7.264   2.614  1.1221 -0.4513  0.2712
11573SOL     OW36139   6.005   6.396   3.693 -0.0275  0.0636  0.3637
11573SOL    HW136140   5.978   6.466   3.753  0.8219 -0.6084  1.5838
11573SOL    HW236141   6.051   6.333   3.749  2.6750  0.3875 -1.3223
11574SOL     OW36142   6.858   3.441   6.591  0.1701  0.0442  0.1849
11574SOL    HW136143   6.822   3.477   6.509  0.4746 -1.1205 -0.4818
11574SOL    HW236144   6.799   3.474   6.659  0.8579  2.3823 -0.2814
11575SOL     OW36145   3.806   5.773   8.369  0.3174 -0.8211  0.1199
11575SOL    HW136146   3.884   5.718   8.361 -0.3743 -1.9518  0.8897
11575SOL    HW236147   3.831   5.857   8.330  1.6070 -1.4726 -0.4827
11576SOL     OW36148   6.019   1.393   4.893  0.0533  0.1095 -0.2181
11576SOL    HW136149   6.011   1.435   4.808 -0.9162  0.0531 -0.1620
11576SOL    HW236150   6.107   1.356   4.893  0.1186  0.2436 -1.1334
11577SOL     OW36151   0.908   9.060   6.882  0.4200 -0.5127 -0.5893
11577SOL    HW136152   0.816   9.077   6.860 -0.1194 -0.5680  1.3586
11577SOL    HW236153   0.922   9.110   6.963  1.5497 -1.9703  0.1593
11578SOL     OW36154   3.835   0.408   4.962  0.0376 -0.5239 -0.2031
11578SOL    HW136155   3.876   0.420   5.048 -1.2015 -1.8362  0.6155
11578SOL    HW236156   3.888   0.462   4.903  2.0194 -0.9665  1.0432
11579SOL     OW36157   6.883   3.421   1.846  0.3130  0.6159 -0.4925
11579SOL    HW136158   6.789   3.433   1.838  0.2055 -0.2367 -0.5902
11579SOL    HW236159   6.919   3.509   1.836 -0.3830  0.7755 -1.7652
11580SOL     OW36160   3.233   8.382   0.472 -0.1593  0.3790  0.5126
11580SOL    HW136161   3.263   8.291   0.480  0.0056  0.3908  0.0673
11580SOL    HW236162   3.164   8.390   0.538 -0.1782 -0.0711  0.5535
11581SOL     OW36163   5.040   5.212   1.714  0.3068 -0.0020 -0.5691
11581SOL    HW136164   4.990   5.214   1.796  1.7224  0.1713  0.3436
11581SOL    HW236165   5.006   5.285   1.663  0.9644  1.3895  0.8836
11582SOL     OW36166   6.439   5.458   7.070  0.0923  0.3228 -0.6637
11582SOL    HW136167   6.461   5.448   7.163  1.9443 -0.1725 -1.1242
11582SOL    HW236168   6.349   5.492   7.071  0.4340  1.3332  1.3133
11583SOL     OW36169   9.023   0.781   8.672  0.5854 -0.0699 -0.6272
11583SOL    HW136170   9.059   0.793   8.760  0.3890 -0.5090 -0.4850
11583SOL    HW236171   8.957   0.712   8.682 -0.5552  0.9637 -0.8193
11584SOL     OW36172   4.734   0.026   3.828 -0.3415 -0.0420 -0.2613
11584SOL    HW136173   4.752   0.025   3.922 -0.1509  0.3587 -0.2907
11584SOL    HW236174   4.640   0.008   3.821 -0.5351  0.7821  0.0558
11585SOL     OW36175   7.519   5.807   1.956  0.0789 -0.2115 -0.4469
11585SOL    HW136176   7.528   5.777   1.866  0.9905 -0.8969 -0.1407
11585SOL    HW236177   7.597   5.862   1.971  0.4031 -0.8306  0.1939
11586SOL     OW36178   3.165   3.159   5.740  0.0209  0.1747 -0.2663
11586SOL    HW136179   3.164   3.132   5.649 -0.7902  0.5718 -0.3842
11586SOL    HW236180   3.258   3.162   5.764  0.1976 -2.7079 -0.2201
11587SOL     OW36181   0.178   0.814   6.456  0.2014  0.6557 -0.9906
11587SOL    HW136182   0.119   0.872   6.407 -0.0985  0.2865 -1.0677
11587SOL    HW236183   0.247   0.872   6.489 -0.6653  1.2414 -0.1742
11588SOL     OW36184   5.376   1.297   0.426 -0.7402 -0.3626  0.1294
11588SOL    HW136185   5.385   1.321   0.334 -1.9915 -0.0353  0.0746
11588SOL    HW236186   5.442   1.349   0.471  0.1114 -0.7758 -0.6086
11589SOL     OW36187   2.162   3.548   0.731  0.5437  0.0449 -0.5386
11589SOL    HW136188   2.246   3.507   0.712  0.2814  0.1603 -2.0670
11589SOL    HW236189   2.181   3.610   0.802  1.1593 -1.8901  1.1001
11590SOL     OW36190   1.169   4.154   7.793  0.4354  0.6553 -0.5088
11590SOL    HW136191   1.207   4.086   7.850 -1.0614  0.2521  0.0602
11590SOL    HW236192   1.220   4.232   7.813  1.3195  0.0221 -0.1836
11591SOL     OW36193   8.274   0.143   5.858 -0.4856 -0.4438 -0.0700
11591SOL    HW136194   8.255   0.236   5.854 -0.1012 -0.3842 -0.6221
11591SOL    HW236195   8.368   0.138   5.878 -0.4155 -0.7074 -0.4493
11592SOL     OW36196   2.582   0.693   0.677  0.2073 -0.0341 -0.3811
11592SOL    HW136197   2.600   0.702   0.771 -0.4326  2.1649 -0.4234
11592SOL    HW236198   2.657   0.644   0.644  1.7245  1.2697  0.9031
11593SOL     OW36199   7.106   5.921   3.043  0.1246  0.8469 -0.5398
11593SOL    HW136200   7.131   6.014   3.048 -1.3048  1.2059  1.1447
11593SOL    HW236201   7.187   5.874   3.060  0.3249  1.9084  2.0188
11594SOL     OW36202   6.165   2.527   4.404 -0.6954 -0.0324  0.3496
11594SOL    HW136203   6.228   2.559   4.469 -2.3959  0.0749  2.0115
11594SOL    HW236204   6.219   2.508   4.327  1.3734  0.0306  1.6897
11595SOL     OW36205   0.259   9.045   6.757  0.0451 -0.5182  0.6723
11595SOL    HW136206   0.193   9.096   6.804  0.8647  2.0083 -0.7677
11595SOL    HW236207   0.266   9.087   6.671  2.3625 -1.7220  0.1931
11596SOL     OW36208   8.595   4.224   1.468 -0.0993  0.1968 -0.1076
11596SOL    HW136209   8.689   4.238   1.479 -0.2128  0.2991  0.7954
11596SOL    HW236210   8.586   4.186   1.380  0.5683  2.2838 -1.1289
11597SOL     OW36211   5.636   5.891   9.266 -0.5644  0.1575 -0.0728
11597SOL    HW136212   5.681   5.811   9.292 -1.6389 -0.1704  0.8202
11597SOL    HW236213   5.626   5.884   9.171  1.1904  0.2110 -0.2947
11598SOL     OW36214   0.249   7.135   6.609 -0.3851  0.0623 -0.4487
11598SOL    HW136215   0.204   7.098   6.685  0.8315  0.0352  0.2857
11598SOL    HW236216   0.335   7.092   6.608  0.0118  0.8345 -1.2205
11599SOL     OW36217   6.458   4.921   3.342 -0.0131  0.0129 -0.4467
11599SOL    HW136218   6.473   4.956   3.430 -3.3304  0.3961  0.0955
11599SOL    HW236219   6.474   4.995   3.283 -1.0083  0.7255  0.1563
11600SOL     OW36220   7.557   2.062   7.694  0.2509 -0.1065 -0.2358
11600SOL    HW136221   7.618   2.128   7.726  0.4238 -0.5889  0.4606
11600SOL    HW236222   7.585   1.981   7.737 -0.7212 -0.3886 -0.1072
11601SOL     OW36223   0.249   6.075   8.996 -0.0837  0.2116 -0.6255
11601SOL    HW136224   0.155   6.084   9.013 -0.7627 -2.9099 -2.0492
11601SOL    HW236225   0.257   6.087   8.902  0.6405 -1.3627 -0.7807
11602SOL     OW36226   5.333   8.241   8.334  0.0529 -0.2272 -0.0567
11602SOL    HW136227   5.380   8.325   8.338  0.9769 -0.7300 -0.2028
11602SOL    HW236228   5.299   8.237   8.245 -0.1059  0.0480 -0.0117
11603SOL     OW36229   4.502   4.380   3.005  0.2445  0.4398 -0.1712
11603SOL    HW136230   4.497   4.396   3.100  2.0593  1.8495 -0.2605
11603SOL    HW236231   4.458   4.455   2.966 -1.5820 -0.7250 -0.4972
11604SOL     OW36232   7.186   8.444   5.372  0.0502  0.2223 -0.2263
11604SOL    HW136233   7.171   8.483   5.285 -1.5164  1.7237  0.6639
11604SOL    HW236234   7.273   8.477   5.397  0.1340  0.5048 -0.8531
11605SOL     OW36235   2.666   4.616   1.094 -0.4695 -0.2905 -0.2965
11605SOL    HW136236   2.662   4.711   1.096 -0.3064 -0.2896  0.5893
11605SOL    HW236237   2.577   4.589   1.070 -0.5680  0.0863 -0.3596
11606SOL     OW36238   8.966   7.103   8.340  0.4879  0.2120  0.1303
11606SOL    HW136239   8.902   7.173   8.327 -2.5832 -2.5549 -1.0633
11606SOL    HW236240   9.027   7.138   8.404 -1.8907  3.2970  0.9511
11607SOL     OW36241   5.915   8.165   3.870  0.6113 -0.8215 -0.0160
11607SOL    HW136242   5.957   8.138   3.788  2.0555  1.0422  0.0555
11607SOL    HW236243   5.968   8.126   3.938  0.2422 -1.1976  0.0621
11608SOL     OW36244   5.345   3.783   6.294  0.1164  0.5028 -0.5248
11608SOL    HW136245   5.258   3.779   6.333  0.3162  1.6047  0.0656
11608SOL    HW236246   5.334   3.842   6.219  0.3578  0.6690 -0.4294
11609SOL     OW36247   2.503   6.369   5.242  0.2331  0.5396  0.2474
11609SOL    HW136248   2.597   6.351   5.235  0.4704  0.7049  2.4107
11609SOL    HW236249   2.466   6.285   5.271 -0.3799  0.3483 -1.0308
11610SOL     OW36250   6.389   1.664   7.248 -0.0318  0.0435  0.1811
11610SOL    HW136251   6.451   1.625   7.310  0.9809  1.6323  0.2231
11610SOL    HW236252   6.388   1.603   7.174  0.1574 -0.9351  0.9609
11611SOL     OW36253   8.096   2.656   0.190 -0.5898 -0.0611  0.3299
11611SOL    HW136254   8.177   2.613   0.163  0.6570  2.2336  0.1870
11611SOL    HW236255   8.048   2.672   0.109 -0.5764 -0.2259  0.2885
11612SOL     OW36256   0.380   5.594   6.024  0.3985  0.0857 -0.1461
11612SOL    HW136257   0.320   5.532   6.066  0.1873  0.2011 -0.2813
11612SOL    HW236258   0.452   5.539   5.994 -0.6402 -0.3805 -1.9028
11613SOL     OW36259   1.627   1.963   2.893 -0.6106  0.1351  0.1099
11613SOL    HW136260   1.713   1.957   2.850 -1.0580 -1.1632 -0.6684
11613SOL    HW236261   1.645   1.943   2.985  0.0622  0.9544  0.1787
11614SOL     OW36262   8.707   3.953   2.913 -0.2703 -0.2484  0.3845
11614SOL    HW136263   8.795   3.969   2.879  0.3966 -0.8542  1.7281
11614SOL    HW236264   8.720   3.892   2.986 -2.0004 -1.7695 -0.4753
11615SOL     OW36265   7.833   6.404   5.732 -0.3537 -0.0703  0.4100
11615SOL    HW136266   7.775   6.339   5.692 -0.5307 -0.0194  0.5782
11615SOL    HW236267   7.780   6.484   5.736  0.1156  0.2970 -0.4897
11616SOL     OW36268   2.370   8.697   7.768  0.1267 -0.8582 -0.3305
11616SOL    HW136269   2.358   8.708   7.863 -1.9178 -2.0244 -0.3830
11616SOL    HW236270   2.459   8.727   7.751 -0.2513  1.6961  1.5720
11617SOL     OW36271   7.833   5.000   9.081 -0.0612 -0.3772  0.4174
11617SOL    HW136272   7.831   5.009   8.985 -1.5111  1.0498  0.5439
11617SOL    HW236273   7.785   4.919   9.099  1.2671 -1.3150 -0.0929
11618SOL     OW36274   3.344   1.627   3.731  0.5000 -0.2508  1.7773
11618SOL    HW136275   3.264   1.656   3.774  0.3376 -0.4650  1.6237
11618SOL    HW236276   3.414   1.651   3.791  0.0896 -3.3645  3.7449
11619SOL     OW36277   0.578   0.664   3.688  0.3387  0.6353 -0.2004
11619SOL    HW136278   0.567   0.754   3.657  0.1135  0.8645  0.5221
11619SOL    HW236279   0.509   0.653   3.752  1.2949  0.4524  0.8222
11620SOL     OW36280   1.551   8.053   9.123  0.1384  0.2952 -0.6814
11620SOL    HW136281   1.526   8.061   9.031 -0.7282  2.3824 -0.3143
11620SOL    HW236282   1.471   8.023   9.167  0.7543 -1.4309 -0.6724
11621SOL     OW36283   7.538   6.123   0.670  0.0686  0.4096 -0.2969
11621SOL    HW136284   7.500   6.035   0.673  3.0066 -0.9481  0.7274
11621SOL    HW236285   7.567   6.133   0.579 -1.5619  0.9559 -0.7771
11622SOL     OW36286   8.089   7.833   1.353  0.2721 -0.5895 -0.2551
11622SOL    HW136287   8.163   7.878   1.311  0.3128  0.0834  0.5165
11622SOL    HW236288   8.021   7.831   1.285  0.0699  1.1576 -0.1471
11623SOL     OW36289   2.826   6.702   4.786 -0.8405  0.7757 -0.3194
11623SOL    HW136290   2.775   6.750   4.721 -3.3782 -1.0772  0.1803
11623SOL    HW236291   2.782   6.718   4.869 -0.7760 -1.0476  0.1150
11624SOL     OW36292   5.603   4.400   4.077 -0.1873 -0.2168  0.3524
11624SOL    HW136293   5.690   4.437   4.091 -0.3594  0.1752  0.4002
11624SOL    HW236294   5.547   4.476   4.058 -0.8303 -0.2925  1.7885
11625SOL     OW36295   6.833   3.976   1.374 -0.2244  0.6345  0.7233
11625SOL    HW136296   6.899   3.920   1.331  0.5029  0.9324  1.4177
11625SOL    HW236297   6.768   3.914   1.407 -0.3856  0.3414 -0.1020
11626SOL     OW36298   2.428   2.439   7.281 -0.2155  0.2325  0.0675
11626SOL    HW136299   2.445   2.353   7.319 -0.8851  0.9782  2.1859
11626SOL    HW236300   2.348   2.426   7.229  0.0962 -0.5771 -0.2265
11627SOL     OW36301   3.639   0.217   8.249 -0.6157 -0.0329 -0.0728
11627SOL    HW136302   3.561   0.168   8.276 -1.3003  0.5222 -0.9627
11627SOL    HW236303   3.620   0.308   8.274  0.7497 -0.1967  1.8061
11628SOL     OW36304   3.580   0.920   6.142  0.3103  0.2155  0.1091
11628SOL    HW136305   3.582   1.015   6.156  0.8803  0.1084  0.8022
11628SOL    HW236306   3.612   0.908   6.053 -0.3781  0.7136 -0.2126
11629SOL     OW36307   4.266   0.029   0.620 -0.4521  0.2330 -0.0634
11629SOL    HW136308   4.279  -0.059   0.584 -1.0275  0.9557 -2.1500
11629SOL    HW236309   4.352   0.052   0.655 -0.0551 -0.8096 -0.2918
11630SOL     OW36310   3.075   4.423   0.564 -0.2622  0.6166  0.5230
11630SOL    HW136311   2.996   4.449   0.518 -0.1221  0.9715  0.4783
11630SOL    HW236312   3.141   4.413   0.495 -0.0228  1.2578  0.6490
11631SOL     OW36313   3.261   5.922   0.441  0.4049  0.0579  0.3314
11631SOL    HW136314   3.195   5.991   0.438 -0.7299 -1.0241 -1.1905
11631SOL    HW236315   3.317   5.939   0.366 -0.2134 -0.9580 -0.3823
11632SOL     OW36316   4.634   6.271   4.708  0.1427 -0.3483  0.2219
11632SOL    HW136317   4.707   6.331   4.694 -1.3010  1.3842 -0.3206
11632SOL    HW236318   4.656   6.224   4.788  1.7316  0.2788  0.1826
11633SOL     OW36319   2.040   7.360   2.065  0.0231  0.4256 -0.0976
11633SOL    HW136320   2.128   7.395   2.082  0.1583  0.8493 -1.5732
11633SOL    HW236321   2.028   7.293   2.132  1.1234  0.9572  0.6652
11634SOL     OW36322   4.193   3.995   5.864 -0.0369 -0.3619 -0.1732
11634SOL    HW136323   4.235   3.991   5.778 -0.1630  1.3337 -0.3395
11634SOL    HW236324   4.227   4.074   5.905  1.0147 -1.8068  1.9156
11635SOL     OW36325   5.300   8.644   1.435 -0.3776  0.2913  0.1901
11635SOL    HW136326   5.376   8.671   1.383 -0.0261 -0.6012  0.2134
11635SOL    HW236327   5.300   8.549   1.429 -1.3545  0.2699  0.4067
11636SOL     OW36328   0.783   1.236   0.508 -0.0262  0.5131  0.7733
11636SOL    HW136329   0.704   1.288   0.493  0.0090  0.4912  0.5077
11636SOL    HW236330   0.814   1.264   0.594 -0.0252  0.9063  0.6435
11637SOL     OW36331   8.358   5.064   5.122 -0.4333 -0.4896  0.4617
11637SOL    HW136332   8.269   5.075   5.155 -0.6980  1.0338 -0.6874
11637SOL    HW236333   8.354   4.987   5.066 -0.8525 -0.8389  0.9647
11638SOL     OW36334   5.978   7.763   4.088  0.8489 -0.3978  0.0019
11638SOL    HW136335   5.932   7.846   4.074  0.5186 -0.7353 -1.0174
11638SOL    HW236336   6.027   7.749   4.008  1.9826 -0.5367  0.6962
11639SOL     OW36337   2.882   3.392   3.486  0.3563  0.4403  0.1753
11639SOL    HW136338   2.833   3.459   3.437  2.7358  1.1410 -1.4408
11639SOL    HW236339   2.836   3.311   3.467 -0.7567  1.1843 -0.4575
11640SOL     OW36340   1.478   4.649   4.305 -0.1363  0.1816  0.8669
11640SOL    HW136341   1.483   4.735   4.265 -0.9372  0.2125  0.8219
11640SOL    HW236342   1.434   4.664   4.389 -1.7797 -0.4112  0.1395
11641SOL     OW36343   4.001   5.573   1.674  0.1612 -0.5984 -0.1816
11641SOL    HW136344   4.046   5.581   1.590  0.3441 -0.4241 -0.0686
11641SOL    HW236345   3.979   5.663   1.697  1.0122 -0.5461  0.4464
11642SOL     OW36346   3.575   8.197   0.066  0.4710  0.4032  0.4718
11642SOL    HW136347   3.543   8.120   0.113 -1.3212  1.3421  0.8695
11642SOL    HW236348   3.669   8.183   0.060  0.2758 -1.5477  1.0118
11643SOL     OW36349   1.179   8.512   0.310 -0.0493  0.2346  0.0698
11643SOL    HW136350   1.171   8.421   0.338 -1.4730  0.1811 -0.4542
11643SOL    HW236351   1.093   8.550   0.326 -0.0771  0.9540 -1.6047
11644SOL     OW36352   9.178   1.190   8.478 -0.2409 -0.1071  0.5313
11644SOL    HW136353   9.112   1.149   8.422 -0.1300  0.7788 -0.2686
11644SOL    HW236354   9.214   1.117   8.530 -1.4595 -0.6777  0.6000
11645SOL     OW36355   2.491   6.885   1.336  0.7958  0.1726 -0.2685
11645SOL    HW136356   2.431   6.816   1.367  1.6159 -0.0007  1.0129
11645SOL    HW236357   2.530   6.848   1.257 -0.8205  0.3234 -1.1867
11646SOL     OW36358   6.696   8.664   5.807 -0.1093  0.0748  0.9290
11646SOL    HW136359   6.609   8.628   5.825 -0.2801  0.2630  0.4974
11646SOL    HW236360   6.754   8.588   5.806 -0.0481  0.0629  2.4527
11647SOL     OW36361   5.725   7.724   2.905 -0.0121  0.2851 -0.4874
11647SOL    HW136362   5.781   7.721   2.827  0.2677  1.2148 -0.3311
11647SOL    HW236363   5.760   7.796   2.957  0.0849 -0.6261  0.7267
11648SOL     OW36364   0.904   1.956   6.283 -0.2758  0.6573  0.1661
11648SOL    HW136365   0.978   1.945   6.224 -0.8497  0.8962 -0.6246
11648SOL    HW236366   0.845   1.884   6.262 -1.9495  2.4425 -1.8399
11649SOL     OW36367   2.838   0.150   0.971  0.3013 -1.0798 -0.3933
11649SOL    HW136368   2.917   0.105   0.939  0.5679 -1.9435  1.3245
11649SOL    HW236369   2.766   0.094   0.943  0.6163 -2.5379  1.5061
11650SOL     OW36370   3.205   1.541   1.667 -0.2646  0.3974 -0.4792
11650SOL    HW136371   3.227   1.464   1.720 -3.9523 -0.7616 -0.3591
11650SOL    HW236372   3.225   1.616   1.723  1.7548 -0.5154  0.0803
11651SOL     OW36373   1.737   4.816   0.899 -0.4030  0.1929  0.3543
11651SOL    HW136374   1.764   4.907   0.893 -0.2270  0.1838  0.9740
11651SOL    HW236375   1.718   4.802   0.992  0.0237 -0.5241  0.3446
11652SOL     OW36376   3.037   1.820   1.442 -0.4603 -0.1864 -0.5109
11652SOL    HW136377   3.004   1.903   1.477  1.1730  0.5431 -0.5981
11652SOL    HW236378   2.970   1.791   1.381 -2.0531 -0.0409  1.0909
11653SOL     OW36379   1.983   2.935   4.661  0.0393  0.3797 -0.1609
11653SOL    HW136380   1.993   2.858   4.717  1.0992  1.7081  1.6115
11653SOL    HW236381   2.047   2.922   4.591  1.1511  0.1797  0.8418
11654SOL     OW36382   3.180   0.673   4.333 -0.3216  0.2212  0.2027
11654SOL    HW136383   3.237   0.610   4.290 -2.6574 -1.4965 -0.6030
11654SOL    HW236384   3.130   0.714   4.262  0.2748  2.1242  0.8225
11655SOL     OW36385   4.344   0.806   0.739 -0.1852 -0.0453 -0.3751
11655SOL    HW136386   4.434   0.832   0.720  0.1379 -0.3632  0.6477
11655SOL    HW236387   4.338   0.715   0.711  0.1859 -0.4017  0.6350
11656SOL     OW36388   2.180   3.692   6.664  0.6984 -0.2893  0.2523
11656SOL    HW136389   2.163   3.677   6.571 -1.4638 -0.0430  0.5673
11656SOL    HW236390   2.166   3.606   6.705  0.4275 -0.1316  0.4946
11657SOL     OW36391   2.621   8.388   3.509  0.3510  0.1797 -0.0221
11657SOL    HW136392   2.591   8.396   3.419 -0.3776 -0.8180  0.1226
11657SOL    HW236393   2.626   8.294   3.525 -0.1993  0.3335  1.1953
11658SOL     OW36394   3.993   8.022   6.239  0.5974 -0.5220  0.2068
11658SOL    HW136395   3.969   7.991   6.152  1.3706  0.0941 -0.2359
11658SOL    HW236396   3.972   7.949   6.297 -2.2890 -0.0763 -0.1238
11659SOL     OW36397   0.491   1.282   9.162 -0.4175 -0.7797  0.0097
11659SOL    HW136398   0.533   1.275   9.248 -1.7115 -0.2398  0.7162
11659SOL    HW236399   0.399   1.260   9.179 -0.9050  0.3352 -1.0376
11660SOL     OW36400   7.144   3.863   7.272 -0.1215  0.6482 -0.1045
11660SOL    HW136401   7.238   3.855   7.256 -0.0623 -0.1205  0.5173
11660SOL    HW236402   7.120   3.949   7.238  0.3824  0.0068 -2.2111
11661SOL     OW36403   6.546   1.784   2.698 -0.4014  1.0168  0.0474
11661SOL    HW136404   6.638   1.807   2.708 -0.3589  1.0762 -0.4470
11661SOL    HW236405   6.545   1.688   2.692 -0.5782  0.8379  2.1164
11662SOL     OW36406   0.463   6.322   2.498 -0.1609 -0.7648  0.0482
11662SOL    HW136407   0.519   6.280   2.564 -0.2204  1.1109  1.3756
11662SOL    HW236408   0.378   6.278   2.507  0.0887 -1.1589  0.5765
11663SOL     OW36409   1.781   3.430   0.798 -0.3433  0.4881 -0.1640
11663SOL    HW136410   1.814   3.516   0.771  1.8235 -0.3924 -0.5270
11663SOL    HW236411   1.698   3.420   0.750 -0.0316  1.8561 -1.0492
11664SOL     OW36412   0.092   3.080   5.847  0.7543  0.1572 -0.1155
11664SOL    HW136413   0.025   3.147   5.857  2.9647  2.4719  0.0523
11664SOL    HW236414   0.051   3.014   5.791 -1.7828  1.2008  0.3531
11665SOL     OW36415   8.093   1.895   5.515 -0.0449  0.0165  0.2939
11665SOL    HW136416   8.024   1.959   5.526  0.2440  0.3326  0.2859
11665SOL    HW236417   8.049   1.817   5.480 -0.3793  0.2392  0.2210
11666SOL     OW36418   7.686   6.417   7.338  0.6489 -0.5081 -0.4636
11666SOL    HW136419   7.729   6.403   7.254  1.0091  1.0035 -0.5575
11666SOL    HW236420   7.712   6.505   7.364  1.5001 -1.3378  1.7928
11667SOL     OW36421   5.014   3.572   0.221 -0.0911  0.5689 -0.4958
11667SOL    HW136422   5.033   3.568   0.315  0.6529 -2.2950 -0.6861
11667SOL    HW236423   5.017   3.665   0.200  0.4713  1.2305  2.1618
11668SOL     OW36424   3.045   8.612   5.161  0.3254 -0.6688  0.0440
11668SOL    HW136425   3.023   8.704   5.178  1.4378  0.1806 -2.4370
11668SOL    HW236426   3.128   8.599   5.207  1.1417  0.2439 -1.0636
11669SOL     OW36427   8.002   3.631   1.622  0.0571  0.2332  0.2612
11669SOL    HW136428   8.060   3.556   1.616 -0.2244 -0.0633  1.1942
11669SOL    HW236429   7.963   3.638   1.535 -1.6840 -2.1395  0.7638
11670SOL     OW36430   0.853   0.388   4.235 -0.3103 -0.7093 -0.6099
11670SOL    HW136431   0.922   0.332   4.200  2.0652  1.8574 -0.3621
11670SOL    HW236432   0.810   0.335   4.302  1.9883 -2.1286 -0.1762
11671SOL     OW36433   8.347   5.252   8.714 -0.0963  0.1200 -0.3698
11671SOL    HW136434   8.440   5.237   8.705 -0.2419 -2.0888  1.0027
11671SOL    HW236435   8.340   5.318   8.783  0.4638 -0.5832  0.3793
11672SOL     OW36436   5.160   2.988   6.627 -0.1170 -0.6832  0.9162
11672SOL    HW136437   5.187   2.900   6.602  0.4184 -0.5511  1.0303
11672SOL    HW236438   5.239   3.029   6.663 -0.3166 -0.0957  0.6998
11673SOL     OW36439   7.633   3.834   5.104 -0.6749 -0.5787 -0.0326
11673SOL    HW136440   7.661   3.827   5.196 -1.5055 -0.4654  0.2337
11673SOL    HW236441   7.676   3.914   5.073 -0.3301 -0.6559  0.2282
11674SOL     OW36442   7.462   6.490   4.270  0.1118 -0.2488  0.3921
11674SOL    HW136443   7.412   6.571   4.282  0.1742  0.1601 -1.7255
11674SOL    HW236444   7.414   6.441   4.203  0.9751 -1.2079  0.4404
11675SOL     OW36445   7.504   7.518   5.266  0.0681  0.0497  0.0835
11675SOL    HW136446   7.542   7.501   5.179  1.3748  1.3785  0.3365
11675SOL    HW236447   7.409   7.520   5.251  0.1205 -2.1124 -0.8317
11676SOL     OW36448   3.170   7.361   6.900  0.0457 -0.6749 -0.0602
11676SOL    HW136449   3.184   7.389   6.991  0.3752  2.6248 -0.9802
11676SOL    HW236450   3.232   7.414   6.850  0.0964 -2.6472 -2.2240
11677SOL     OW36451   4.574   4.419   0.839 -0.4373  0.6213  0.3989
11677SOL    HW136452   4.561   4.511   0.862 -1.0431  1.3313 -2.4483
11677SOL    HW236453   4.508   4.401   0.773  1.0206 -1.2289 -0.6527
11678SOL     OW36454   3.965   8.357   5.132 -0.5498 -0.9868 -0.1808
11678SOL    HW136455   3.915   8.431   5.096 -1.0695 -1.3369 -0.1892
11678SOL    HW236456   3.927   8.342   5.218  0.0268 -0.7956  0.1094
11679SOL     OW36457   0.003   0.263   0.048  0.5421  0.2189 -0.2858
11679SOL    HW136458  -0.082   0.221   0.059 -0.0277  0.9883 -1.5193
11679SOL    HW236459  -0.009   0.352   0.082  0.7694  0.4039 -0.6755
11680SOL     OW36460   0.347   2.260   1.116 -0.2888 -0.1948  0.1365
11680SOL    HW136461   0.302   2.299   1.191  0.6004  0.2432  0.4550
11680SOL    HW236462   0.305   2.174   1.105 -3.0018  1.1884 -1.2542
11681SOL     OW36463   2.957   9.041   8.287 -0.5208  0.0845 -0.6333
11681SOL    HW136464   2.924   9.064   8.200 -0.0731 -0.6947 -1.0198
11681SOL    HW236465   2.904   9.093   8.347  0.0239  1.6578 -1.4295
11682SOL     OW36466   0.969   7.760   5.844  0.0038 -0.1712 -0.1257
11682SOL    HW136467   1.026   7.836   5.835 -0.4084  0.1422 -0.1073
11682SOL    HW236468   0.971   7.739   5.938 -0.8124  0.5536  0.0717
11683SOL     OW36469   5.193   2.979   8.674 -0.0510  0.6958 -0.2691
11683SOL    HW136470   5.254   3.049   8.697  1.3178  0.0957 -1.9033
11683SOL    HW236471   5.242   2.924   8.613 -0.9920 -1.8353  1.1115
11684SOL     OW36472   2.744   4.249   0.996 -0.2722  0.3235  0.3165
11684SOL    HW136473   2.839   4.255   1.007 -0.0819 -0.2337 -0.8951
11684SOL    HW236474   2.719   4.334   0.961  0.0205 -0.0801 -0.8971
11685SOL     OW36475   8.015   8.783   0.327 -0.3960  0.3644 -0.1313
11685SOL    HW136476   7.993   8.818   0.241  1.5245 -0.5808 -1.0816
11685SOL    HW236477   8.008   8.857   0.386  0.4447  1.6055 -1.5153
11686SOL     OW36478   7.063   6.721   2.123 -0.0606  0.1863 -0.2480
11686SOL    HW136479   6.976   6.724   2.083 -0.1069  1.2664 -0.0858
11686SOL    HW236480   7.046   6.702   2.216 -0.1023  0.1228 -0.2684
11687SOL     OW36481   0.677   4.914   1.875 -0.4178  0.3719  0.3154
11687SOL    HW136482   0.709   4.933   1.786  1.0208  0.3439  0.7933
11687SOL    HW236483   0.582   4.906   1.865 -0.3189  0.6522 -1.1688
11688SOL     OW36484   3.637   4.129   2.526 -0.1064  0.2021 -0.3913
11688SOL    HW136485   3.552   4.156   2.561 -0.1048  0.4495 -0.5754
11688SOL    HW236486   3.619   4.107   2.434  0.0862  0.5457 -0.5125
11689SOL     OW36487   1.879   3.717   0.731  0.2013  0.5202 -0.0591
11689SOL    HW136488   1.966   3.722   0.692  0.4241  0.2398  0.4022
11689SOL    HW236489   1.858   3.807   0.756  1.5828  0.2034  2.5001
11690SOL     OW36490   4.463   6.552   4.429  0.4771  0.3514  0.3343
11690SOL    HW136491   4.368   6.550   4.442 -0.0962  1.5042 -2.7789
11690SOL    HW236492   4.480   6.480   4.368  1.3594  1.0877 -0.3137
11691SOL     OW36493   6.737   7.354   3.484 -0.5291 -0.5708 -0.0719
11691SOL    HW136494   6.793   7.315   3.551  0.0309  1.7803  0.9189
11691SOL    HW236495   6.649   7.350   3.521 -0.5221 -1.1574 -0.1146
11692SOL     OW36496   3.016   4.832   9.009  0.0482  0.0872  0.5698
11692SOL    HW136497   3.034   4.840   9.103  3.1681 -0.0418  0.0824
11692SOL    HW236498   3.057   4.909   8.970 -1.1601  0.1172 -0.7422
11693SOL     OW36499   9.199   0.597   6.760  0.0773 -0.6069 -0.6166
11693SOL    HW136500   9.175   0.513   6.797  1.6789 -0.8064  0.0655
11693SOL    HW236501   9.208   0.656   6.835  1.2656 -0.4630 -0.8385
11694SOL     OW36502   1.911   4.734   7.314  0.1688 -1.1335 -0.3695
11694SOL    HW136503   1.872   4.653   7.346 -0.5181 -0.5710  0.2328
11694SOL    HW236504   1.994   4.742   7.362  0.0439 -1.2657 -0.1314
11695SOL     OW36505   4.706   4.556   5.521  0.1010 -0.1261  0.1451
11695SOL    HW136506   4.624   4.586   5.482 -0.2866  1.0364  1.7591
11695SOL    HW236507   4.697   4.460   5.523  1.0851 -0.5650 -4.4697
11696SOL     OW36508   4.885   2.513   2.826  0.5376 -0.0730  0.7278
11696SOL    HW136509   4.944   2.445   2.795  1.1181  0.8460 -0.2584
11696SOL    HW236510   4.936   2.594   2.820 -0.8584  0.7733 -0.3429
11697SOL     OW36511   7.725   8.198   2.047 -0.5453  0.4469  0.2765
11697SOL    HW136512   7.695   8.265   1.986 -1.4762 -1.0389 -0.9771
11697SOL    HW236513   7.646   8.154   2.075  0.1221 -0.9236  0.0916
11698SOL     OW36514   2.348   2.635   6.695 -0.1884 -0.1549  0.2381
11698SOL    HW136515   2.409   2.633   6.768 -0.0699 -1.1840  0.1226
11698SOL    HW236516   2.282   2.569   6.716 -0.0695 -0.5718 -0.6476
11699SOL     OW36517   3.367   1.826   4.668  0.3412 -0.3660 -0.2904
11699SOL    HW136518   3.277   1.798   4.652  0.4321 -2.2534  1.9043
11699SOL    HW236519   3.361   1.880   4.747  0.9386  1.2147 -1.2698
11700SOL     OW36520   6.357   8.105   2.145 -0.8683 -0.9706  0.2510
11700SOL    HW136521   6.371   8.010   2.152 -0.5742 -0.9721 -0.3103
11700SOL    HW236522   6.445   8.141   2.134 -0.8658 -0.5200  1.5575
11701SOL     OW36523   6.828   6.820   7.153 -0.3599  0.0051 -0.3774
11701SOL    HW136524   6.779   6.820   7.236  0.0320 -1.0751 -0.1281
11701SOL    HW236525   6.763   6.802   7.086 -0.7534  1.3047 -0.3681
11702SOL     OW36526   4.068   2.276   3.663  0.0865 -0.5046  0.0624
11702SOL    HW136527   4.069   2.278   3.759 -1.6709  1.0549  0.0981
11702SOL    HW236528   4.019   2.197   3.641  0.9866 -1.1741  0.4245
11703SOL     OW36529   1.913   6.338   2.352  0.0330  0.7111 -0.3473
11703SOL    HW136530   1.905   6.379   2.266 -1.1003  0.8508 -0.1955
11703SOL    HW236531   1.823   6.316   2.376  0.4270 -0.1544  0.4037
11704SOL     OW36532   4.792   7.010   1.934 -0.0217  0.2762 -0.0574
11704SOL    HW136533   4.751   7.036   2.016  0.6920 -0.5196  0.5623
11704SOL    HW236534   4.723   7.020   1.868 -1.0239 -0.4277  0.8605
11705SOL     OW36535   8.901   4.400   4.184 -0.4297  0.1064 -0.0278
11705SOL    HW136536   8.841   4.331   4.212  0.2443 -0.2121  0.6831
11705SOL    HW236537   8.924   4.446   4.265  0.3515  0.1688 -0.2763
11706SOL     OW36538   0.333   2.394   4.001  0.2947 -0.3907  0.0216
11706SOL    HW136539   0.300   2.397   3.911  1.7668  1.7016 -0.5064
11706SOL    HW236540   0.256   2.370   4.054 -0.8978 -0.4142 -1.6431
11707SOL     OW36541   3.264   8.993   2.292 -0.1187 -0.1871  0.4650
11707SOL    HW136542   3.330   8.924   2.302  0.3019  0.3850  1.8340
11707SOL    HW236543   3.300   9.067   2.340 -1.4630  0.3609  0.6570
11708SOL     OW36544   8.927   9.031   1.810  0.6425 -0.0854 -0.2490
11708SOL    HW136545   8.973   8.971   1.868  1.0195  0.8164  0.4057
11708SOL    HW236546   8.840   8.992   1.800  1.1376 -1.1662 -0.5197
11709SOL     OW36547   7.542   0.667   8.137  0.7494 -0.0618 -0.0856
11709SOL    HW136548   7.551   0.762   8.128 -2.5589  0.5537  1.3763
11709SOL    HW236549   7.521   0.636   8.049 -1.6715  1.1918 -0.0280
11710SOL     OW36550   6.723   2.370   5.176  0.1923 -0.3792  0.2556
11710SOL    HW136551   6.674   2.354   5.096 -1.5262  0.7746  1.0300
11710SOL    HW236552   6.814   2.383   5.147 -0.3868 -0.0369 -1.4837
11711SOL     OW36553   2.874   8.552   8.523  0.4098 -0.1824 -0.2269
11711SOL    HW136554   2.866   8.643   8.493  1.8491  0.5521  1.4663
11711SOL    HW236555   2.784   8.526   8.543  0.0985  1.2876  0.4007
11712SOL     OW36556   7.259   6.902   7.187 -0.0653  0.6339 -0.8978
11712SOL    HW136557   7.299   6.985   7.212  1.2068 -0.0766 -0.5210
11712SOL    HW236558   7.191   6.926   7.124 -0.3421  2.0387 -0.1023
11713SOL     OW36559   2.841   0.767   4.486  0.3871 -0.0090  0.1859
11713SOL    HW136560   2.906   0.812   4.541 -0.7939  1.1741  0.6691
11713SOL    HW236561   2.859   0.674   4.498  2.1161  0.2885  0.1457
11714SOL     OW36562   2.555   6.795   3.206 -0.4697  0.6890 -0.0774
11714SOL    HW136563   2.528   6.846   3.130 -1.0215 -0.7089 -0.8514
11714SOL    HW236564   2.644   6.825   3.224 -0.2704  0.9429 -1.3572
11715SOL     OW36565   6.206   9.204   6.625 -0.7287 -0.3881  0.1749
11715SOL    HW136566   6.299   9.199   6.601 -0.3868  0.8364  1.1569
11715SOL    HW236567   6.162   9.150   6.560  0.6300 -0.7077 -0.5229
11716SOL     OW36568   1.166   5.635   7.765 -0.3162  0.1758 -0.7667
11716SOL    HW136569   1.213   5.582   7.830 -2.2011 -1.2172 -0.4499
11716SOL    HW236570   1.187   5.726   7.789  0.9311 -0.3620  0.3025
11717SOL     OW36571   6.701   5.829   0.719  0.2631  0.5727  0.4787
11717SOL    HW136572   6.719   5.872   0.635  0.8268  1.5193  1.0646
11717SOL    HW236573   6.750   5.747   0.715  0.3158  0.6299 -0.1009
11718SOL     OW36574   1.440   9.168   8.347 -0.5578 -0.3726 -0.2348
11718SOL    HW136575   1.406   9.228   8.414  0.9607 -0.3573  0.5888
11718SOL    HW236576   1.535   9.173   8.358 -0.3610 -2.2301 -0.7853
11719SOL     OW36577   7.007   0.817   5.068 -0.0328 -0.2086 -0.1111
11719SOL    HW136578   7.097   0.785   5.081  0.2991  1.2802  1.5873
11719SOL    HW236579   6.952   0.741   5.088  0.8302 -0.9105 -0.3396
11720SOL     OW36580   8.400   8.614   2.640  0.0550 -0.1404 -0.0108
11720SOL    HW136581   8.440   8.644   2.558  0.5871  0.4399  0.4487
11720SOL    HW236582   8.326   8.672   2.653 -1.5356 -1.7618 -1.3132
11721SOL     OW36583   2.166   8.390   3.394 -0.4259 -0.1402 -0.2530
11721SOL    HW136584   2.221   8.312   3.397 -2.0060 -1.3225 -0.7596
11721SOL    HW236585   2.212   8.454   3.449  1.2403 -1.1833 -0.3658
11722SOL     OW36586   8.507   7.010   4.133  0.3568 -0.3124  0.1601
11722SOL    HW136587   8.521   7.002   4.227 -0.9481 -1.3541  0.3034
11722SOL    HW236588   8.553   7.090   4.109  0.6701  0.0097  1.6940
11723SOL     OW36589   3.464   3.027   2.283  0.4232  0.2636 -0.5345
11723SOL    HW136590   3.474   3.101   2.344 -0.1671 -0.1964  0.1495
11723SOL    HW236591   3.512   3.053   2.205  0.2934  1.3413 -0.2742
11724SOL     OW36592   6.716   3.527   0.217 -0.0521  0.2722 -0.1953
11724SOL    HW136593   6.634   3.573   0.232  0.0538  0.5422 -0.4201
11724SOL    HW236594   6.779   3.596   0.197  0.1086  0.0314 -0.5433
11725SOL     OW36595   6.798   3.263   7.231 -0.2475 -0.1294  0.3060
11725SOL    HW136596   6.775   3.355   7.235 -1.3275 -0.3451 -0.3308
11725SOL    HW236597   6.761   3.225   7.310 -0.1399 -0.0821  0.3785
11726SOL     OW36598   4.148   2.340   5.627  0.3137  0.5969 -0.1203
11726SOL    HW136599   4.232   2.296   5.643 -0.7203 -1.0136  1.2241
11726SOL    HW236600   4.165   2.432   5.648  1.5055  0.1263  1.1299
11727SOL     OW36601   7.316   0.635   5.704  0.0955 -0.1931 -0.1161
11727SOL    HW136602   7.329   0.590   5.787 -0.3616  0.0021  0.0634
11727SOL    HW236603   7.221   0.634   5.690  0.2843 -2.4833 -1.8942
11728SOL     OW36604   3.097   4.022   6.963  0.2526 -0.3309  0.0563
11728SOL    HW136605   3.118   3.932   6.937 -0.1924 -0.5653  0.4947
11728SOL    HW236606   3.021   4.013   7.021 -0.9401  0.4692 -1.3143
11729SOL     OW36607   5.041   4.196   8.464  0.2425  0.8131  0.0362
11729SOL    HW136608   5.023   4.276   8.413  0.6248  1.7978  1.3991
11729SOL    HW236609   4.957   4.150   8.466 -0.9399  2.8411  1.9932
11730SOL     OW36610   2.666   1.534   0.899 -0.1684 -0.5011  0.6249
11730SOL    HW136611   2.629   1.495   0.820 -0.8588  1.0716  0.1477
11730SOL    HW236612   2.753   1.494   0.906 -0.4323 -1.3184 -0.4221
11731SOL     OW36613   0.115   7.447   0.884 -0.1920 -0.0608 -0.0523
11731SOL    HW136614   0.037   7.393   0.875 -0.0815 -0.2197 -0.0599
11731SOL    HW236615   0.166   7.431   0.805  0.5415 -1.0828  0.5975
11732SOL     OW36616   7.326   2.747   6.287 -0.0426 -0.3270  0.0955
11732SOL    HW136617   7.278   2.665   6.272  0.2354 -0.2942 -1.0406
11732SOL    HW236618   7.295   2.806   6.218 -0.5699  0.6914  1.1732
11733SOL     OW36619   8.569   7.416   2.120 -0.3249 -0.8586 -0.1679
11733SOL    HW136620   8.513   7.493   2.113 -1.5230 -1.6829 -0.0113
11733SOL    HW236621   8.550   7.365   2.040  1.5213 -0.3337 -0.9923
11734SOL     OW36622   7.875   4.289   5.130  0.3309  0.2445 -0.5511
11734SOL    HW136623   7.808   4.352   5.105  0.1335  1.7277  3.0966
11734SOL    HW236624   7.957   4.339   5.131  0.3739  0.2078  1.1741
11735SOL     OW36625   6.385   3.674   8.007 -0.0827 -0.1916 -0.0616
11735SOL    HW136626   6.407   3.690   8.099  0.6338  0.4172 -0.3256
11735SOL    HW236627   6.469   3.661   7.964 -0.5042 -2.4905 -0.3039
11736SOL     OW36628   3.283   1.446   3.954 -0.1952 -0.2335 -0.0843
11736SOL    HW136629   3.306   1.437   3.862  1.5998  1.6466  0.0955
11736SOL    HW236630   3.191   1.421   3.959 -0.5033  0.1897 -2.5002
11737SOL     OW36631   1.475   2.902   0.133 -0.3556  0.2886  0.5455
11737SOL    HW136632   1.516   2.861   0.057  1.6690  0.8685  1.2641
11737SOL    HW236633   1.409   2.839   0.162 -0.4455 -0.3952 -1.0483
11738SOL     OW36634   2.185   4.009   7.981 -0.0501  0.2470  0.3602
11738SOL    HW136635   2.213   3.985   8.069 -1.0419 -1.2537  0.2822
11738SOL    HW236636   2.090   4.017   7.986 -0.5053 -2.8351 -1.1842
11739SOL     OW36637   4.106   4.415   3.161 -0.0243 -0.2496  0.0123
11739SOL    HW136638   4.164   4.486   3.187 -0.5969  0.0090  0.5905
11739SOL    HW236639   4.084   4.434   3.069 -1.0733  0.9455  0.4843
11740SOL     OW36640   3.436   9.224   5.523 -0.2601  0.4835 -0.3664
11740SOL    HW136641   3.521   9.235   5.480  0.0336  0.4299  0.1943
11740SOL    HW236642   3.456   9.229   5.616 -0.4916 -2.0393 -0.1209
11741SOL     OW36643   4.752   2.368   1.990 -0.4718  0.3325  0.0980
11741SOL    HW136644   4.686   2.409   2.045 -0.6000  1.1521 -0.6557
11741SOL    HW236645   4.718   2.374   1.901  0.1372 -0.1753 -0.1832
11742SOL     OW36646   6.188   2.241   2.599 -0.2648  0.3952 -0.5348
11742SOL    HW136647   6.208   2.302   2.528  1.6182 -0.8303 -1.1284
11742SOL    HW236648   6.179   2.297   2.676  0.2113  1.5310 -1.2680
11743SOL     OW36649   4.267   7.638   4.986  0.2662 -0.4910  0.0894
11743SOL    HW136650   4.184   7.591   4.995  0.1860 -0.7336 -1.5546
11743SOL    HW236651   4.256   7.717   5.038  0.1717 -1.9276  2.4110
11744SOL     OW36652   5.287   8.277   3.553  0.3663  0.2298  0.2475
11744SOL    HW136653   5.355   8.332   3.514  0.3300 -1.6971 -2.9492
11744SOL    HW236654   5.207   8.329   3.547  0.9206  1.1661  0.7127
11745SOL     OW36655   1.218   5.721   8.105  0.0980 -0.2002 -0.4693
11745SOL    HW136656   1.313   5.715   8.097 -0.0632 -2.1024 -1.8080
11745SOL    HW236657   1.193   5.644   8.156 -0.7116  0.4890  0.2120
11746SOL     OW36658   2.812   0.425   2.967 -0.0813 -0.1546 -0.5259
11746SOL    HW136659   2.734   0.480   2.960  1.0205  1.4491 -0.6737
11746SOL    HW236660   2.824   0.390   2.879  1.0346  2.0355 -1.3154
11747SOL     OW36661   4.468   5.833   7.174 -0.0051  0.1289  0.1135
11747SOL    HW136662   4.562   5.826   7.156 -0.1066 -0.3598 -0.2621
11747SOL    HW236663   4.455   5.925   7.194  0.2168  0.6837 -1.9784
11748SOL     OW36664   4.496   3.256   0.073  0.1760 -0.4547  0.5499
11748SOL    HW136665   4.506   3.335   0.021 -1.7250 -0.0075  0.8259
11748SOL    HW236666   4.569   3.200   0.044 -0.0102  0.3100 -1.5870
11749SOL     OW36667   7.938   1.558   4.111  0.1784 -0.1473  0.0764
11749SOL    HW136668   7.866   1.617   4.087 -0.2510 -0.2336  1.0845
11749SOL    HW236669   7.998   1.613   4.162  0.4565 -0.2578 -0.1297
11750SOL     OW36670   4.501   5.039   2.251  0.1260 -0.3421  0.3270
11750SOL    HW136671   4.555   5.118   2.258 -0.1991 -0.0108 -0.6837
11750SOL    HW236672   4.463   5.029   2.338 -1.6460  1.9625 -0.0749
11751SOL     OW36673   9.164   0.179   5.692  0.0956  0.1606  1.0925
11751SOL    HW136674   9.113   0.221   5.622  1.5390 -1.7745 -1.2939
11751SOL    HW236675   9.115   0.198   5.772 -2.2131  1.6574 -0.5354
11752SOL     OW36676   1.276   4.554   6.396 -0.1718 -0.2546  0.0203
11752SOL    HW136677   1.355   4.500   6.406  0.5573  1.0096  1.8261
11752SOL    HW236678   1.277   4.582   6.305  2.2577  0.7689  0.2617
11753SOL     OW36679   7.929   7.275   2.874  0.1109  0.0367 -0.5940
11753SOL    HW136680   7.984   7.339   2.828 -1.0586  0.3320 -1.6423
11753SOL    HW236681   7.879   7.232   2.804 -1.6628  0.4379  0.3676
11754SOL     OW36682   9.183   0.852   2.425  0.0694  0.0091 -0.3529
11754SOL    HW136683   9.252   0.817   2.482  0.2845 -1.2577 -1.3435
11754SOL    HW236684   9.102   0.814   2.458 -0.1810  1.3877  0.7241
11755SOL     OW36685   2.954   0.449   8.641  0.0850  0.0836 -0.3297
11755SOL    HW136686   3.049   0.458   8.646  0.0837  0.1501 -0.4200
11755SOL    HW236687   2.925   0.447   8.732  0.3885 -2.2556 -0.2036
11756SOL     OW36688   6.237   0.398   4.231  0.3430 -0.1826  0.4641
11756SOL    HW136689   6.221   0.471   4.291  0.1977  1.8069 -1.8418
11756SOL    HW236690   6.150   0.374   4.199  0.5864  0.2287 -0.5299
11757SOL     OW36691   1.304   4.417   3.229 -0.7487  0.1706 -0.0645
11757SOL    HW136692   1.235   4.400   3.165 -1.2812 -0.6869  0.7141
11757SOL    HW236693   1.385   4.421   3.177 -1.0560 -1.3086 -0.7206
11758SOL     OW36694   3.697   6.804   1.814 -0.8656 -0.1279  0.5222
11758SOL    HW136695   3.670   6.841   1.899  0.8355  0.8891  0.6720
11758SOL    HW236696   3.636   6.842   1.751 -1.2839  0.2143  1.1194
11759SOL     OW36697   5.755   7.739   5.022 -0.1292  0.1294  0.0450
11759SOL    HW136698   5.665   7.713   5.003  0.1515  0.1404 -1.3586
11759SOL    HW236699   5.805   7.710   4.946  1.3298 -1.2228  1.4263
11760SOL     OW36700   2.600   0.341   4.543 -0.2207 -0.2498  0.2372
11760SOL    HW136701   2.574   0.367   4.455  0.4615 -1.0157 -0.2151
11760SOL    HW236702   2.677   0.395   4.562 -1.3674  1.1584  1.0900
11761SOL     OW36703   3.731   1.620   2.462 -0.1839  0.1294 -0.5197
11761SOL    HW136704   3.669   1.681   2.504  0.7755  1.5730 -1.1194
11761SOL    HW236705   3.692   1.603   2.376  0.5033  1.4955 -1.1225
11762SOL     OW36706   1.217   4.119   5.943 -0.1596  0.1999 -0.2998
11762SOL    HW136707   1.276   4.162   5.880 -0.3469  1.3273  0.2820
11762SOL    HW236708   1.156   4.187   5.969 -1.3168 -0.7781 -0.3633
11763SOL     OW36709   2.331   1.018   6.805  0.0794 -0.5570 -0.7325
11763SOL    HW136710   2.331   1.109   6.778 -2.8135 -0.1836  0.1208
11763SOL    HW236711   2.422   0.990   6.799  1.5151  3.0475  1.1689
11764SOL     OW36712   6.277   5.523   1.105 -0.2780 -0.0533  0.2545
11764SOL    HW136713   6.354   5.538   1.161  0.4592 -0.3342 -0.6689
11764SOL    HW236714   6.313   5.493   1.022 -1.3772  0.1387 -0.3066
11765SOL     OW36715   2.682   7.284   4.179  0.1985 -0.1415 -0.0458
11765SOL    HW136716   2.766   7.289   4.134 -0.4849  0.6454 -1.2999
11765SOL    HW236717   2.645   7.200   4.151  0.5004 -0.4150  0.3794
11766SOL     OW36718   0.732   5.596   2.088  0.2974  0.4703 -0.3528
11766SOL    HW136719   0.661   5.635   2.139  0.3037  0.3070 -0.2170
11766SOL    HW236720   0.805   5.589   2.149 -0.1493 -1.0930  0.0512
11767SOL     OW36721   6.622   6.829   6.081 -0.2420 -0.0256 -0.4813
11767SOL    HW136722   6.589   6.904   6.033 -0.0669  2.1522  2.4753
11767SOL    HW236723   6.548   6.768   6.084 -1.1942  1.0593 -1.0066
11768SOL     OW36724   2.087   1.133   0.875 -0.2129 -0.7026 -0.2479
11768SOL    HW136725   2.069   1.108   0.966  0.1011 -1.2232 -0.3226
11768SOL    HW236726   2.018   1.090   0.824 -1.7983  1.4361 -0.0704
11769SOL     OW36727   5.086   5.119   2.503 -0.7379  0.0687  0.4194
11769SOL    HW136728   5.135   5.076   2.573 -0.2178 -0.8923 -0.5087
11769SOL    HW236729   5.030   5.051   2.467  0.0593  0.1585 -1.0452
11770SOL     OW36730   2.147   2.868   0.989  0.3216 -0.2654  0.2072
11770SOL    HW136731   2.138   2.871   1.084  0.9737 -1.0415  0.3084
11770SOL    HW236732   2.152   2.960   0.962 -1.4953  0.0106  0.7355
11771SOL     OW36733   8.803   2.187   0.548  0.4656 -0.1436 -0.2489
11771SOL    HW136734   8.708   2.196   0.549  0.4925  0.3311 -0.9405
11771SOL    HW236735   8.819   2.115   0.487  0.5676  0.2639 -0.7176
11772SOL     OW36736   7.540   6.777   6.974 -0.2736  0.2414  0.0642
11772SOL    HW136737   7.482   6.710   6.938 -1.4557 -0.0307  2.2492
11772SOL    HW236738   7.481   6.848   6.999  0.8113  1.5661 -0.9904
11773SOL     OW36739   1.482   6.824   7.523  0.1690  0.7016 -0.5733
11773SOL    HW136740   1.537   6.891   7.563  2.3022 -0.9746 -0.5175
11773SOL    HW236741   1.537   6.785   7.455 -0.1132 -2.4054  0.8194
11774SOL     OW36742   6.580   1.790   5.780 -0.1543 -0.2008 -0.1352
11774SOL    HW136743   6.571   1.845   5.702 -3.3775  0.0627  0.2854
11774SOL    HW236744   6.644   1.723   5.755  1.6422  1.9660 -1.6945
11775SOL     OW36745   0.587   5.314   3.857 -0.1400  0.0195  0.3589
11775SOL    HW136746   0.683   5.318   3.861  0.3402 -2.4822 -3.1701
11775SOL    HW236747   0.566   5.349   3.771 -2.2447 -0.7388  0.5161
11776SOL     OW36748   6.731   6.402   6.557  0.1210  0.3168 -0.5059
11776SOL    HW136749   6.807   6.401   6.614  0.0463  1.3120 -0.3693
11776SOL    HW236750   6.701   6.493   6.558 -1.3338 -0.1293 -0.2027
11777SOL     OW36751   6.576   7.366   8.076 -0.3652  0.4450  0.6492
11777SOL    HW136752   6.487   7.402   8.088 -1.4103 -1.7387 -0.0139
11777SOL    HW236753   6.561   7.274   8.055  1.9358  0.6304 -2.3699
11778SOL     OW36754   1.645   0.420   0.959  0.0547  0.2980 -0.9042
11778SOL    HW136755   1.659   0.325   0.955 -0.6454  0.1649 -0.4465
11778SOL    HW236756   1.604   0.434   1.044 -0.0375  0.9882 -1.0579
11779SOL     OW36757   7.143   8.376   7.353 -0.1605  0.2865 -0.2779
11779SOL    HW136758   7.060   8.332   7.371  0.8171 -1.3096  0.6249
11779SOL    HW236759   7.207   8.330   7.409  0.9539  2.8787  0.7325
11780SOL     OW36760   1.198   5.255   3.496  0.7001  0.3396 -1.0141
11780SOL    HW136761   1.209   5.194   3.423  0.6522 -0.5872 -0.2730
11780SOL    HW236762   1.154   5.331   3.458 -1.3938 -1.0332 -1.5342
11781SOL     OW36763   5.077   2.091   8.758  0.0523 -0.0960  0.1160
11781SOL    HW136764   5.167   2.093   8.727 -0.2625 -0.7085 -0.8874
11781SOL    HW236765   5.034   2.025   8.703 -1.6867  2.0772 -1.3127
11782SOL     OW36766   1.373   2.116   4.608 -0.2633  0.3334 -0.2459
11782SOL    HW136767   1.361   2.141   4.699  1.7286  0.2470  0.0683
11782SOL    HW236768   1.333   2.188   4.559 -2.3685 -0.1537  0.6386
11783SOL     OW36769   3.683   3.491   6.306  0.0685  0.0672  0.3506
11783SOL    HW136770   3.632   3.570   6.294  2.3884  1.4434 -1.3669
11783SOL    HW236771   3.629   3.434   6.361 -2.0817  2.4236  0.8069
11784SOL     OW36772   3.153   4.581   2.504  0.9553  0.0964  0.1632
11784SOL    HW136773   3.233   4.550   2.461  1.1307 -1.1047  1.2613
11784SOL    HW236774   3.085   4.575   2.437  1.5055 -0.3251 -0.3615
11785SOL     OW36775   1.590   1.231   7.413 -0.0480 -0.2020 -0.0452
11785SOL    HW136776   1.634   1.224   7.328  0.5049 -0.4328  0.2527
11785SOL    HW236777   1.567   1.141   7.435  0.1913 -0.1910  0.2471
11786SOL     OW36778   7.276   6.840   4.697  0.6154 -0.1917 -0.4117
11786SOL    HW136779   7.369   6.823   4.683  0.5991 -0.8052  0.1929
11786SOL    HW236780   7.251   6.780   4.767 -0.0200  0.6078  0.0620
11787SOL     OW36781   7.420   4.492   2.686  0.0747  0.0366  0.1261
11787SOL    HW136782   7.347   4.485   2.625  0.4809  0.8733 -0.4806
11787SOL    HW236783   7.382   4.473   2.772 -1.1321  1.6858 -0.0012
11788SOL     OW36784   4.793   0.612   2.017  0.0951 -0.0072  0.1007
11788SOL    HW136785   4.760   0.657   1.939  1.2632  1.2133  0.2733
11788SOL    HW236786   4.879   0.578   1.990  1.3182  1.9230  1.2795
11789SOL     OW36787   3.224   2.681   3.133  0.3800  0.8476 -0.1161
11789SOL    HW136788   3.248   2.631   3.211  0.8058  0.4690 -0.4844
11789SOL    HW236789   3.142   2.641   3.102  1.3970 -0.5254 -1.1713
11790SOL     OW36790   6.454   6.215   7.587  0.4871  0.0273  0.0218
11790SOL    HW136791   6.390   6.274   7.547  0.8594  0.4178 -0.0068
11790SOL    HW236792   6.495   6.267   7.656 -0.8577 -0.9365  1.6466
11791SOL     OW36793   0.813   7.473   6.238 -0.4236 -0.1007 -0.1079
11791SOL    HW136794   0.800   7.394   6.185  0.8359 -1.5649  1.6630
11791SOL    HW236795   0.907   7.492   6.230 -0.0370 -0.7990  2.0929
11792SOL     OW36796   3.863   8.577   3.160 -0.8106  0.8395 -0.0678
11792SOL    HW136797   3.794   8.515   3.138  0.0697 -0.9712  1.9168
11792SOL    HW236798   3.935   8.555   3.101  0.2285 -1.5251  1.9181
11793SOL     OW36799   5.847   0.328   8.033 -0.7036 -0.0751  0.2789
11793SOL    HW136800   5.790   0.405   8.043  0.1597  0.2801  3.9235
11793SOL    HW236801   5.915   0.357   7.972 -0.1081  2.3141  1.9215
11794SOL     OW36802   1.458   8.365   0.601  0.0269 -0.4140 -0.2578
11794SOL    HW136803   1.431   8.454   0.582  1.6846 -0.2971 -2.3779
11794SOL    HW236804   1.437   8.315   0.522  1.8639 -1.2269 -0.2961
11795SOL     OW36805   4.786   7.916   4.405 -0.1193  0.0820 -0.3256
11795SOL    HW136806   4.827   7.850   4.460 -0.5179 -0.4640 -0.6738
11795SOL    HW236807   4.791   7.997   4.456  1.5440  0.0781 -0.4442
11796SOL     OW36808   7.035   3.302   1.648  0.2882  0.2263  0.8063
11796SOL    HW136809   7.005   3.337   1.732  1.1833 -0.0345  1.2459
11796SOL    HW236810   7.099   3.234   1.671  1.3682  0.8919 -0.0858
11797SOL     OW36811   7.035   5.416   3.435  0.8620  0.2526 -0.5525
11797SOL    HW136812   7.001   5.354   3.370  0.3602  0.9206 -0.9377
11797SOL    HW236813   7.107   5.461   3.390  1.1284  0.0647 -0.3224
11798SOL     OW36814   6.423   1.648   6.566  0.4552  0.2882  0.1965
11798SOL    HW136815   6.370   1.638   6.645  0.8333  0.7634  0.5092
11798SOL    HW236816   6.385   1.585   6.504 -0.4055  0.5412  0.4534
11799SOL     OW36817   3.251   3.589   8.076  0.2245  0.8965  0.2029
11799SOL    HW136818   3.327   3.647   8.068  0.7257  0.3416  0.8065
11799SOL    HW236819   3.217   3.606   8.165  0.2278  0.4409  0.2906
11800SOL     OW36820   2.052   1.869   0.062  0.0155  0.4621  0.2908
11800SOL    HW136821   2.140   1.836   0.041 -0.9303 -2.2925  0.3384
11800SOL    HW236822   2.052   1.877   0.158  0.4082  1.1499  0.2425
11801SOL     OW36823   1.801   5.987   4.719 -0.4740 -0.3762 -0.5580
11801SOL    HW136824   1.751   6.066   4.703 -0.8889 -0.7001 -0.8832
11801SOL    HW236825   1.749   5.917   4.680  0.3143 -0.6982 -1.0744
11802SOL     OW36826   7.527   1.599   7.555 -0.5561  0.1342  0.6173
11802SOL    HW136827   7.442   1.585   7.596 -1.5591  0.8742 -1.1321
11802SOL    HW236828   7.550   1.514   7.518 -0.3035 -0.1779  1.4614
11803SOL     OW36829   7.943   1.265   6.389  0.6379 -0.1919 -0.3231
11803SOL    HW136830   7.878   1.319   6.344 -0.1551 -1.7975 -1.1926
11803SOL    HW236831   7.893   1.216   6.454  1.3239  0.0605  0.4044
11804SOL     OW36832   0.200   8.831   1.930 -0.1553  0.4347  0.3262
11804SOL    HW136833   0.169   8.741   1.921  1.9976 -0.3997  0.5716
11804SOL    HW236834   0.185   8.870   1.844  0.4376 -0.7249 -0.3326
11805SOL     OW36835   8.988   5.849   3.659  0.1583  0.0669 -0.4657
11805SOL    HW136836   8.933   5.825   3.733 -0.0687 -0.6887 -0.8713
11805SOL    HW236837   8.979   5.945   3.653  1.1417  0.2943  1.2022
11806SOL     OW36838   9.132   7.442   8.197  0.3123 -0.4645 -0.7678
11806SOL    HW136839   9.064   7.420   8.133 -1.3729  2.0842  0.0316
11806SOL    HW236840   9.101   7.406   8.279 -0.5182  1.3082 -0.2547
11807SOL     OW36841   0.173   7.585   1.635  0.3464 -0.2472  0.3211
11807SOL    HW136842   0.203   7.672   1.659  1.2477 -0.3575 -0.3530
11807SOL    HW236843   0.191   7.531   1.712 -0.6564  0.2378  0.9208
11808SOL     OW36844   4.141   3.095   2.042  0.2878 -0.0798  0.2022
11808SOL    HW136845   4.115   3.003   2.038 -2.1432  0.5380  0.2740
11808SOL    HW236846   4.060   3.142   2.061  1.8081  1.9162  2.3549
11809SOL     OW36847   7.613   4.811   0.623  0.2318 -0.3043 -0.3071
11809SOL    HW136848   7.613   4.906   0.616  0.0179  0.1516  3.5697
11809SOL    HW236849   7.533   4.784   0.578 -1.3326  1.7322  1.0452
11810SOL     OW36850   7.797   1.750   4.679 -0.1049 -0.0534 -0.1003
11810SOL    HW136851   7.734   1.789   4.739  0.7847  0.5179  0.4836
11810SOL    HW236852   7.825   1.821   4.622 -0.4790 -0.4546 -0.8037
11811SOL     OW36853   4.650   6.039   3.066  0.6655  0.4467 -0.3957
11811SOL    HW136854   4.635   6.011   3.156  2.8765  2.4052  0.6756
11811SOL    HW236855   4.731   5.994   3.040  1.5536  1.9871 -0.3816
11812SOL     OW36856   2.934   0.697   8.258 -0.1080  0.3822 -0.2603
11812SOL    HW136857   2.996   0.757   8.299 -0.3390  0.5245 -0.1218
11812SOL    HW236858   2.868   0.680   8.325  0.1315 -0.2877 -0.1866
11813SOL     OW36859   7.744   2.958   6.615  0.4704  0.1010  0.3757
11813SOL    HW136860   7.708   3.013   6.546  1.2483  2.4513  1.7417
11813SOL    HW236861   7.819   2.915   6.574 -1.8821 -2.4795 -1.5930
11814SOL     OW36862   6.891   4.176   3.934 -0.8880 -0.0652 -0.1538
11814SOL    HW136863   6.982   4.200   3.951 -0.8557 -0.1477 -0.2092
11814SOL    HW236864   6.852   4.166   4.021 -1.2429  1.4806 -0.1038
11815SOL     OW36865   8.603   8.265   5.947 -0.1019  0.2545  0.4461
11815SOL    HW136866   8.578   8.357   5.937 -2.6776 -0.5273 -1.2633
11815SOL    HW236867   8.536   8.217   5.900  2.9439 -2.3798 -1.5745
11816SOL     OW36868   4.093   4.134   4.590  0.1624 -0.0313  0.3127
11816SOL    HW136869   4.053   4.047   4.584 -0.3427  0.1908  0.3588
11816SOL    HW236870   4.169   4.129   4.533 -1.1008  0.1644 -1.4883
11817SOL     OW36871   7.413   1.211   0.536  0.3474 -0.3846  0.3714
11817SOL    HW136872   7.435   1.137   0.480  0.8931 -1.5364  2.0453
11817SOL    HW236873   7.319   1.203   0.551  0.2983 -0.3867  0.0689
11818SOL     OW36874   1.719   2.439   5.526 -0.3337  0.2554 -0.7885
11818SOL    HW136875   1.630   2.443   5.562 -0.8646  0.9626 -2.1222
11818SOL    HW236876   1.767   2.506   5.575 -1.0495  1.2134 -1.3479
11819SOL     OW36877   1.236   6.435   2.463 -0.0240 -0.4781 -0.4037
11819SOL    HW136878   1.166   6.370   2.467 -0.0205 -0.5186 -0.8934
11819SOL    HW236879   1.240   6.459   2.370  1.0119 -0.9158 -0.4782
11820SOL     OW36880   4.300   7.810   8.309 -0.1308 -0.0105 -0.0249
11820SOL    HW136881   4.330   7.897   8.284  1.1457 -0.3527  0.2555
11820SOL    HW236882   4.338   7.751   8.244 -1.7433 -0.3018 -0.7670
11821SOL     OW36883   3.679   7.281   8.966  0.0801 -0.3128  0.2628
11821SOL    HW136884   3.764   7.242   8.946 -0.6843 -1.5466 -0.7356
11821SOL    HW236885   3.621   7.248   8.897 -0.7794  2.1340 -0.3029
11822SOL     OW36886   1.052   4.535   3.821  0.3844  0.2021 -0.4326
11822SOL    HW136887   1.079   4.446   3.796 -0.9254  0.2751 -2.2130
11822SOL    HW236888   1.128   4.589   3.802  0.7021 -0.3260 -0.7010
11823SOL     OW36889   6.417   8.653   8.743 -0.1530  0.0643 -0.2741
11823SOL    HW136890   6.438   8.622   8.832  2.2235  1.6753 -0.1700
11823SOL    HW236891   6.353   8.590   8.710  0.1866 -1.5786  1.9486
11824SOL     OW36892   0.302   0.654   8.040 -0.1230 -0.1038  0.2455
11824SOL    HW136893   0.389   0.688   8.018  0.2421 -1.4748 -0.4691
11824SOL    HW236894   0.244   0.693   7.974  0.0549  0.2203  0.2741
11825SOL     OW36895   4.761   6.796   8.093  0.5547 -0.8406  0.1273
11825SOL    HW136896   4.798   6.743   8.164 -1.0638 -1.5813  0.4688
11825SOL    HW236897   4.754   6.884   8.130 -0.0335 -1.1622  0.8132
11826SOL     OW36898   9.180   1.226   8.103 -0.1867 -0.4745 -0.0925
11826SOL    HW136899   9.104   1.221   8.162  1.2410  0.7888  1.9878
11826SOL    HW236900   9.170   1.311   8.060  0.9351  0.5527  1.5762
11827SOL     OW36901   0.751   4.638   8.054 -0.6562  0.4010  0.0614
11827SOL    HW136902   0.829   4.611   8.102 -0.0680  0.2481 -0.9473
11827SOL    HW236903   0.750   4.582   7.977 -2.0088  0.1093  0.2673
11828SOL     OW36904   5.370   6.740   8.505 -0.1800 -0.0320  0.4644
11828SOL    HW136905   5.378   6.660   8.556  1.8286  0.2782  0.7352
11828SOL    HW236906   5.393   6.715   8.416  0.6374  0.2586  0.5857
11829SOL     OW36907   3.062   0.602   1.755  0.2616 -0.6057 -0.2723
11829SOL    HW136908   3.025   0.691   1.760 -0.8019 -1.0582  0.1491
11829SOL    HW236909   3.104   0.599   1.669  0.6172  0.4137 -0.1600
11830SOL     OW36910   5.730   2.868   8.331 -0.0342 -0.0111  0.2213
11830SOL    HW136911   5.646   2.902   8.299 -0.3804 -0.1819  0.9393
11830SOL    HW236912   5.794   2.902   8.268 -0.5278  0.8838  0.1778
11831SOL     OW36913   3.727   1.778   5.208  0.2626  0.2991 -0.4464
11831SOL    HW136914   3.798   1.841   5.213  0.8751 -0.3299 -1.0321
11831SOL    HW236915   3.683   1.785   5.293  1.2165  0.4780  0.0439
11832SOL     OW36916   3.614   3.155   4.818 -0.4635 -0.0333 -0.1761
11832SOL    HW136917   3.574   3.223   4.764  0.4602  1.0952  0.5057
11832SOL    HW236918   3.677   3.112   4.761  0.3209  0.9806 -0.1172
11833SOL     OW36919   6.502   3.139   2.781 -0.0671 -0.6009  0.0212
11833SOL    HW136920   6.549   3.078   2.724 -2.4065 -1.0258 -1.6482
11833SOL    HW236921   6.560   3.213   2.791  1.8679 -2.0446  0.0491
11834SOL     OW36922   6.151   0.986   4.072 -0.0483  0.0124 -0.1589
11834SOL    HW136923   6.147   0.999   3.977 -0.5932 -2.4820 -0.5487
11834SOL    HW236924   6.244   0.989   4.093  0.2220 -1.1244 -1.0857
11835SOL     OW36925   5.618   6.456   5.592  0.1541 -0.2802 -0.7309
11835SOL    HW136926   5.633   6.539   5.637 -0.8286 -0.5073  0.0419
11835SOL    HW236927   5.693   6.446   5.534  2.3658 -0.7703  2.0022
11836SOL     OW36928   3.790   3.243   1.355 -0.1734  0.1136 -0.2232
11836SOL    HW136929   3.823   3.242   1.445 -0.5368 -0.9112 -0.0851
11836SOL    HW236930   3.705   3.198   1.361  0.3166 -1.0058 -1.2567
11837SOL     OW36931   7.278   3.088   7.576 -0.0602 -0.1902 -0.0224
11837SOL    HW136932   7.372   3.072   7.589 -0.6171 -1.3729  3.6536
11837SOL    HW236933   7.248   3.012   7.525  0.6133 -0.9272  0.6489
11838SOL     OW36934   5.210   0.890   9.207 -0.1796  0.1525 -0.0242
11838SOL    HW136935   5.158   0.865   9.131 -0.9907 -0.0186  0.5714
11838SOL    HW236936   5.211   0.812   9.262  0.4358  0.2607  0.1265
11839SOL     OW36937   5.137   4.619   1.705  0.6973 -0.1688 -0.0340
11839SOL    HW136938   5.109   4.666   1.626  0.2967 -1.3644 -0.6275
11839SOL    HW236939   5.211   4.669   1.738  1.0080  0.2393 -1.2939
11840SOL     OW36940   3.054   2.847   6.823  0.6412 -0.3118 -0.3557
11840SOL    HW136941   3.025   2.936   6.845 -2.0945 -1.0062 -0.8328
11840SOL    HW236942   3.113   2.858   6.749 -1.8838  0.9668 -2.2943
11841SOL     OW36943   8.570   0.746   5.317  0.4282 -0.1724  0.3512
11841SOL    HW136944   8.645   0.757   5.259  1.4226 -1.4015  1.3318
11841SOL    HW236945   8.582   0.814   5.384 -1.9805  2.8566 -1.9587
11842SOL     OW36946   6.795   1.132   2.468  0.4811  0.0158 -0.5122
11842SOL    HW136947   6.863   1.196   2.449 -0.3223  1.2815  0.6647
11842SOL    HW236948   6.817   1.056   2.414  2.5048  0.5819 -0.5554
11843SOL     OW36949   8.852   5.866   4.093 -0.1718 -0.4230 -0.0729
11843SOL    HW136950   8.862   5.910   4.009 -0.6135 -0.9011 -0.3760
11843SOL    HW236951   8.841   5.937   4.156 -1.8681 -0.1199 -0.6833
11844SOL     OW36952   2.239   0.070   7.554 -0.0789 -0.6436 -0.1987
11844SOL    HW136953   2.187   0.094   7.477  0.3558  0.5322 -0.1491
11844SOL    HW236954   2.231   0.146   7.612  1.0147 -0.7899  0.1639
11845SOL     OW36955   3.038   5.495   6.314  0.1983  0.2126 -0.2465
11845SOL    HW136956   3.045   5.464   6.224  0.0831  0.5141 -0.3615
11845SOL    HW236957   2.944   5.512   6.327  0.4512  2.3059 -0.8078
11846SOL     OW36958   1.960   7.847   1.009  0.2481  0.1581 -0.3508
11846SOL    HW136959   1.983   7.777   0.948  1.1219 -0.7001  0.9019
11846SOL    HW236960   1.942   7.802   1.092  0.1098  1.3597  0.2980
11847SOL     OW36961   3.099   4.013   5.815  0.4140 -0.3312  0.5993
11847SOL    HW136962   3.166   3.972   5.869  0.8167  0.5795  0.8080
11847SOL    HW236963   3.142   4.028   5.731 -0.3178 -2.0674 -0.1113
11848SOL     OW36964   4.127   5.999   7.303 -0.0030  0.4747  0.3182
11848SOL    HW136965   4.135   6.093   7.287 -0.5905  0.4434 -0.1799
11848SOL    HW236966   4.100   5.962   7.219  0.4988 -0.1826  0.4313
11849SOL     OW36967   4.137   3.773   3.340  0.2825  0.3200  0.7101
11849SOL    HW136968   4.197   3.751   3.269  0.9805  0.9478  1.0929
11849SOL    HW236969   4.071   3.829   3.300 -0.5788 -1.0769  0.0906
11850SOL     OW36970   4.999   5.189   2.088  0.0728  0.5857  0.0810
11850SOL    HW136971   4.947   5.244   2.030 -1.2549  0.5793  1.2186
11850SOL    HW236972   5.004   5.239   2.170 -0.0548 -0.4171  0.7144
11851SOL     OW36973   4.631   7.652   3.141  0.3495  0.4681 -0.5484
11851SOL    HW136974   4.623   7.599   3.062 -1.4071  1.2294 -0.9304
11851SOL    HW236975   4.667   7.592   3.207 -1.8521 -1.3166 -0.8637
11852SOL     OW36976   9.094   9.181   1.655 -0.0660  0.0698 -0.3376
11852SOL    HW136977   9.133   9.133   1.583 -0.1764  0.3460 -0.5823
11852SOL    HW236978   9.062   9.113   1.715  1.5689 -0.1711  0.2981
11853SOL     OW36979   3.248   6.213   7.668  0.4915 -0.4565 -0.1197
11853SOL    HW136980   3.284   6.128   7.694  0.6525 -0.4260 -0.2399
11853SOL    HW236981   3.171   6.224   7.723  0.9925 -0.2528  0.5613
11854SOL     OW36982   3.468   6.919   6.923  0.0963  0.2434 -0.2503
11854SOL    HW136983   3.402   6.854   6.945  0.0132  0.1426 -0.8012
11854SOL    HW236984   3.439   6.957   6.841  0.8255  0.0603 -0.6028
11855SOL     OW36985   2.445   2.379   4.520 -0.0180 -0.3293  0.6798
11855SOL    HW136986   2.443   2.412   4.610 -1.8897  1.4429  0.0622
11855SOL    HW236987   2.428   2.286   4.528 -0.2771 -0.1719  2.1654
11856SOL     OW36988   0.563   6.501   7.230 -0.0014 -0.1820  0.1758
11856SOL    HW136989   0.558   6.409   7.204 -0.6573 -0.2536  0.5328
11856SOL    HW236990   0.619   6.542   7.164  0.9744 -1.0056  0.4797
11857SOL     OW36991   6.752   5.306   5.042 -0.4408 -0.7952  0.1149
11857SOL    HW136992   6.833   5.278   5.085  1.0294  0.2441 -1.7756
11857SOL    HW236993   6.771   5.298   4.948 -3.2226 -2.2832 -0.4464
11858SOL     OW36994   8.400   7.698   0.223  0.3069 -0.5262  0.3448
11858SOL    HW136995   8.426   7.631   0.160  0.0108  0.6628 -1.1057
11858SOL    HW236996   8.379   7.775   0.169 -0.6887  0.3108  1.8478
11859SOL     OW36997   1.652   5.087   0.903 -0.3519  0.0356  0.0083
11859SOL    HW136998   1.597   5.116   0.830  0.8786  2.0512 -0.2034
11859SOL    HW236999   1.591   5.076   0.976 -1.2201  0.9888 -0.5456
11860SOL     OW37000   7.214   0.603   8.456 -0.3394 -0.5023 -0.5454
11860SOL    HW137001   7.310   0.603   8.453 -0.2074 -3.8614  0.1119
11860SOL    HW237002   7.188   0.652   8.378  1.8850  0.1450 -0.9609
11861SOL     OW37003   2.151   5.123   0.864  0.3652  0.1127  0.5449
11861SOL    HW137004   2.204   5.200   0.883  0.9554 -0.1938  0.1873
11861SOL    HW237005   2.208   5.067   0.812 -0.6443  0.1859 -0.6767
11862SOL     OW37006   2.062   1.615   4.300  0.1133  0.2885 -0.5881
11862SOL    HW137007   2.086   1.674   4.371  0.7218  0.4913 -0.9526
11862SOL    HW237008   2.131   1.549   4.299  0.0308  0.2031 -0.8950
11863SOL     OW37009   5.673   6.495   0.209  0.1600 -0.1696  0.1717
11863SOL    HW137010   5.656   6.402   0.199  0.8144 -0.2297 -0.5071
11863SOL    HW237011   5.600   6.538   0.163  0.0836 -0.3498  0.1250
11864SOL     OW37012   8.254   7.234   7.661 -0.3154  0.4136  0.4821
11864SOL    HW137013   8.335   7.183   7.661  0.4357  1.5442  1.1904
11864SOL    HW237014   8.270   7.304   7.597 -0.7549  0.6075  0.5811
11865SOL     OW37015   7.817   5.663   0.972 -0.1394  0.0557 -0.1781
11865SOL    HW137016   7.847   5.747   0.938  0.8608 -0.1612  0.1440
11865SOL    HW237017   7.730   5.682   1.007 -0.2535  0.7766 -0.8079
11866SOL     OW37018   1.539   4.489   5.172  0.1293  0.0352  0.1216
11866SOL    HW137019   1.616   4.477   5.117 -0.6701  0.0911 -1.0280
11866SOL    HW237020   1.479   4.541   5.119 -1.3856 -1.4214  0.3287
11867SOL     OW37021   7.418   3.188   8.707  0.1131  0.0653 -0.2423
11867SOL    HW137022   7.357   3.249   8.666  0.1079  0.8114  0.8387
11867SOL    HW237023   7.371   3.154   8.783  1.6265  2.0299  1.6837
11868SOL     OW37024   7.860   2.586   3.342 -0.2201 -0.5481 -0.0263
11868SOL    HW137025   7.800   2.648   3.384 -0.8064 -1.5891  0.7140
11868SOL    HW237026   7.941   2.636   3.329 -1.5442  1.2414 -2.0914
11869SOL     OW37027   1.807   8.920   1.257 -0.1237  0.6452 -0.2353
11869SOL    HW137028   1.858   8.968   1.321  1.1424  1.7962 -2.0090
11869SOL    HW237029   1.722   8.906   1.299  1.2379 -0.3598  2.3706
11870SOL     OW37030   1.488   6.336   0.003  0.2170 -0.3860  0.0188
11870SOL    HW137031   1.494   6.240   0.007  0.7421 -0.3226  0.9100
11870SOL    HW237032   1.464   6.362   0.092 -1.8832  0.1961 -0.6441
11871SOL     OW37033   2.775   0.602   0.087  0.0796  0.0290  0.0671
11871SOL    HW137034   2.816   0.531   0.038  1.0086  0.7648 -0.2557
11871SOL    HW237035   2.755   0.564   0.172 -0.2098 -0.8555 -0.3864
11872SOL     OW37036   1.678   5.105   6.441  0.3213 -0.1223  0.2091
11872SOL    HW137037   1.602   5.140   6.487  0.0095  0.1026 -0.4655
11872SOL    HW237038   1.749   5.111   6.505 -0.4227 -1.2657  1.1953
11873SOL     OW37039   4.611   6.201   2.233 -0.1454  0.3022 -0.1424
11873SOL    HW137040   4.602   6.253   2.153 -0.6737 -0.0720 -0.3308
11873SOL    HW237041   4.640   6.115   2.203 -0.6340  0.0702  0.0346
11874SOL     OW37042   5.908   2.433   6.738 -0.2124  0.3074 -0.0961
11874SOL    HW137043   5.821   2.428   6.698  0.5149  0.1714 -1.7426
11874SOL    HW237044   5.950   2.350   6.714  0.0134 -0.1201  1.6345
11875SOL     OW37045   6.151   8.099   1.939 -0.5392  0.3953  0.4202
11875SOL    HW137046   6.219   8.142   1.990  1.0169 -1.1406 -0.2514
11875SOL    HW237047   6.103   8.046   2.003  1.6815 -1.8699  0.3681
11876SOL     OW37048   4.211   6.248   4.465 -0.3892 -0.5344 -0.3931
11876SOL    HW137049   4.286   6.197   4.434 -1.6884 -1.2778 -2.5824
11876SOL    HW237050   4.225   6.336   4.430 -0.7021 -0.7874 -1.2000
11877SOL     OW37051   8.620   7.755   2.195  0.0386 -0.1414 -0.0474
11877SOL    HW137052   8.703   7.708   2.191 -0.5045 -1.0693 -1.1099
11877SOL    HW237053   8.559   7.700   2.145 -1.4344  0.0770  1.4123
11878SOL     OW37054   8.871   3.108   2.525  0.0392 -0.4491 -0.2377
11878SOL    HW137055   8.961   3.119   2.494  0.3058 -0.2702  0.5986
11878SOL    HW237056   8.862   3.169   2.598 -0.7430 -0.5163 -0.2664
11879SOL     OW37057   0.996   6.264   2.525  0.6341 -0.4243  0.2197
11879SOL    HW137058   0.916   6.317   2.521  1.0797  0.3924  1.5326
11879SOL    HW237059   0.965   6.175   2.537 -0.0985 -0.2582 -0.3358
11880SOL     OW37060   1.556   0.958   7.531 -0.2668 -0.6536 -0.2466
11880SOL    HW137061   1.558   0.912   7.615  1.1332  2.2862  1.4901
11880SOL    HW237062   1.470   1.000   7.528  0.0445  0.0337  0.2217
11881SOL     OW37063   2.939   8.731   4.404 -0.1288 -0.2491 -0.1282
11881SOL    HW137064   2.891   8.742   4.486 -2.5226  0.3995 -1.4933
11881SOL    HW237065   2.879   8.681   4.348 -0.2750  2.5193 -2.6953
11882SOL     OW37066   4.970   8.974   3.427 -0.3833 -0.3909 -0.0727
11882SOL    HW137067   5.058   9.005   3.403  0.2774 -2.0284  0.0541
11882SOL    HW237068   4.981   8.938   3.515 -1.4428  0.3445  0.3733
11883SOL     OW37069   6.094   1.272   8.190 -0.0007  0.3316  0.1005
11883SOL    HW137070   6.186   1.278   8.213 -0.1820  0.2125  0.8749
11883SOL    HW237071   6.084   1.329   8.114  1.1758 -1.4317 -1.4563
11884SOL     OW37072   7.761   7.359   3.611 -0.3108 -0.1136  0.0720
11884SOL    HW137073   7.843   7.350   3.659  0.1253 -0.6833 -0.7551
11884SOL    HW237074   7.700   7.303   3.657 -1.4807  3.3105  3.1944
11885SOL     OW37075   8.215   3.610   9.177 -0.8238 -0.5027  0.1573
11885SOL    HW137076   8.242   3.533   9.226 -1.9467 -0.8489  0.2692
11885SOL    HW237077   8.189   3.576   9.091  0.8784  0.0629 -0.6210
11886SOL     OW37078   6.432   2.065   3.536 -0.0956  0.1361  0.4011
11886SOL    HW137079   6.347   2.022   3.546  0.2004 -0.2773  1.2471
11886SOL    HW237080   6.489   2.018   3.597  0.7474  0.3916 -0.1778
11887SOL     OW37081   8.988   3.988   5.390 -0.0907 -0.1628 -0.0423
11887SOL    HW137082   9.049   4.026   5.453 -0.5358 -0.9892  0.9106
11887SOL    HW237083   8.902   4.019   5.417 -0.3994 -1.3633  0.4270
11888SOL     OW37084   3.499   6.281   0.929 -0.4213 -0.2441  0.2796
11888SOL    HW137085   3.470   6.242   1.012  1.1846 -0.4324  0.7922
11888SOL    HW237086   3.484   6.212   0.864  0.7708 -1.1203  0.8850
11889SOL     OW37087   0.864   2.947   0.732 -0.0780  0.3700 -0.4687
11889SOL    HW137088   0.826   3.003   0.664 -2.6017 -0.2337  0.3371
11889SOL    HW237089   0.880   2.864   0.689  1.7437  1.0036 -1.1443
11890SOL     OW37090   4.487   0.090   1.019  0.1579 -0.2255  0.0563
11890SOL    HW137091   4.458   0.126   0.935  0.7330  0.2621  0.0628
11890SOL    HW237092   4.451   0.001   1.019 -0.3490 -0.0369 -0.4417
11891SOL     OW37093   7.672   8.178   0.025 -0.2716  0.2564  0.6853
11891SOL    HW137094   7.655   8.145  -0.063 -2.5094  0.7656  0.8741
11891SOL    HW237095   7.710   8.265   0.011  0.2837 -0.0561  0.2256
11892SOL     OW37096   7.029   3.894   5.053  0.2880  0.1462 -0.4530
11892SOL    HW137097   7.033   3.873   5.147 -2.2333 -0.6603 -0.4415
11892SOL    HW237098   7.111   3.861   5.018  1.5341  0.9416  1.5292
11893SOL     OW37099   5.510   6.354   7.422 -0.7375  0.5784  0.0153
11893SOL    HW137100   5.544   6.370   7.334  1.9801  1.0370  1.0480
11893SOL    HW237101   5.531   6.263   7.439 -0.5714  0.6973  0.4500
11894SOL     OW37102   7.001   1.479   9.074 -0.2816  0.1514  0.1384
11894SOL    HW137103   6.972   1.478   9.166  0.2235 -0.2030  0.2987
11894SOL    HW237104   6.921   1.479   9.023 -0.6656  3.0020  0.5765
11895SOL     OW37105   8.247   2.250   6.385 -0.1169 -0.2549 -0.3173
11895SOL    HW137106   8.316   2.315   6.402  1.2367 -1.2794 -1.5831
11895SOL    HW237107   8.244   2.197   6.464  0.1458  0.1559 -0.0261
11896SOL     OW37108   0.540   8.836   1.297 -0.3800  0.1810  0.3629
11896SOL    HW137109   0.516   8.755   1.341 -0.5997  0.9586  1.7196
11896SOL    HW237110   0.615   8.869   1.346 -0.9906  1.3567  0.5469
11897SOL     OW37111   8.195   7.890   6.357 -0.0950 -0.2887 -0.2929
11897SOL    HW137112   8.236   7.936   6.429  1.6059 -0.4956 -1.0938
11897SOL    HW237113   8.168   7.958   6.296 -0.1382 -0.2110 -0.1867
11898SOL     OW37114   0.565   5.169   7.093 -0.3121 -0.2645  0.2241
11898SOL    HW137115   0.573   5.106   7.021 -0.1364 -0.2208  0.2025
11898SOL    HW237116   0.519   5.122   7.162 -0.2420 -0.3945  0.1823
11899SOL     OW37117   1.770   1.945   6.310  0.0199  0.3247 -0.5465
11899SOL    HW137118   1.756   1.938   6.215 -1.2613 -1.9463 -0.2630
11899SOL    HW237119   1.820   1.867   6.333 -2.0206 -0.6326  0.9769
11900SOL     OW37120   7.553   1.191   6.365  0.0010  0.4543 -0.3411
11900SOL    HW137121   7.550   1.105   6.322 -3.8445 -1.0966  2.4794
11900SOL    HW237122   7.626   1.183   6.427  0.6429 -0.1508 -1.1379
11901SOL     OW37123   5.367   5.983   6.353 -0.4345 -0.0644  0.6493
11901SOL    HW137124   5.353   6.035   6.273 -0.3312 -0.8867  0.0781
11901SOL    HW237125   5.447   6.019   6.391  1.9588 -2.2806 -1.8531
11902SOL     OW37126   7.905   5.812   8.645  0.2870  0.0334  0.0415
11902SOL    HW137127   7.966   5.749   8.608  2.2515  1.0922  1.3076
11902SOL    HW237128   7.939   5.897   8.618 -0.8899  0.6503  0.4246
11903SOL     OW37129   1.692   0.839   1.549 -0.1301 -0.5319 -0.4040
11903SOL    HW137130   1.713   0.892   1.472 -2.1791  0.4889 -0.3280
11903SOL    HW237131   1.771   0.787   1.565  1.4710  1.4947 -1.3071
11904SOL     OW37132   0.249   7.669   1.945  0.4382 -0.1348  0.4645
11904SOL    HW137133   0.204   7.736   1.894  1.6171 -0.3731 -0.9551
11904SOL    HW237134   0.321   7.715   1.988  0.2074 -0.1702  0.8911
11905SOL     OW37135   8.158   8.394   8.066 -0.0524  0.4091  0.1655
11905SOL    HW137136   8.215   8.319   8.048 -0.0646  0.4646 -0.1101
11905SOL    HW237137   8.203   8.468   8.027 -0.3081  0.4552 -0.0497
11906SOL     OW37138   4.052   8.161   3.696 -0.3059 -0.1634  0.1816
11906SOL    HW137139   4.050   8.066   3.686  2.4748 -0.1587 -1.5660
11906SOL    HW237140   4.043   8.175   3.791  1.4261 -2.3247  0.7523
11907SOL     OW37141   0.663   4.772   4.937 -0.4066 -0.0174 -0.6410
11907SOL    HW137142   0.744   4.816   4.913 -0.0183 -0.2097  0.2713
11907SOL    HW237143   0.595   4.838   4.922  0.2435  1.2076  1.4299
11908SOL     OW37144   9.082   5.862   6.046 -0.5022  0.1281 -0.2179
11908SOL    HW137145   9.174   5.846   6.029 -0.5149 -0.8408  0.5512
11908SOL    HW237146   9.079   5.948   6.088 -0.0753  0.6592 -1.2424
11909SOL     OW37147   0.531   9.254   7.971  0.3795  0.0604 -0.5893
11909SOL    HW137148   0.596   9.266   7.901  0.2306  0.3301 -0.6823
11909SOL    HW237149   0.564   9.308   8.043  0.0583  0.5169 -0.7744
11910SOL     OW37150   9.135   5.919   0.229  0.3356  0.3813  0.4847
11910SOL    HW137151   9.125   5.844   0.288  2.0632  0.2913  0.7336
11910SOL    HW237152   9.209   5.895   0.173  0.4422  1.5993  0.0793
11911SOL     OW37153   4.505   5.705   6.027  0.1680 -0.6778  0.7448
11911SOL    HW137154   4.506   5.722   6.121 -0.4329 -0.5814  0.7363
11911SOL    HW237155   4.447   5.772   5.991  0.2698 -0.8133  0.3276
11912SOL     OW37156   4.364   7.727   3.185 -0.4516  0.3505  0.5974
11912SOL    HW137157   4.307   7.660   3.224 -1.4423  0.1242 -1.1438
11912SOL    HW237158   4.451   7.688   3.186 -0.8599 -0.5976  0.4358
11913SOL     OW37159   5.061   3.907   7.298 -0.5878  0.1558  0.1832
11913SOL    HW137160   5.075   3.992   7.339 -2.0735  0.1118  0.8452
11913SOL    HW237161   5.066   3.844   7.371 -0.8351 -0.1764 -0.0839
11914SOL     OW37162   1.635   4.363   1.761  0.0107 -0.2229 -0.0568
11914SOL    HW137163   1.595   4.326   1.839  1.5145 -1.8627  0.0003
11914SOL    HW237164   1.640   4.290   1.699  0.2468  0.6580 -1.1223
11915SOL     OW37165   2.864   8.646   2.470  0.2362 -0.0223  0.4678
11915SOL    HW137166   2.918   8.682   2.540 -0.6873 -0.1979  1.2917
11915SOL    HW237167   2.808   8.719   2.444  0.5161  0.0171 -0.0416
11916SOL     OW37168   0.845   7.657   3.391  0.1129  0.1923 -0.1837
11916SOL    HW137169   0.896   7.698   3.461  1.7746 -3.0219  0.6887
11916SOL    HW237170   0.767   7.622   3.434 -1.1588  2.0420 -0.8693
11917SOL     OW37171   7.627   5.645   0.515  0.1438  0.1220 -0.4940
11917SOL    HW137172   7.567   5.630   0.588  1.9593  0.1282  1.0678
11917SOL    HW237173   7.618   5.567   0.460 -1.1919  0.0851 -0.2488
11918SOL     OW37174   2.897   5.846   6.241 -0.1250 -0.1023 -0.0493
11918SOL    HW137175   2.861   5.928   6.277 -2.5689 -0.8245 -0.6634
11918SOL    HW237176   2.859   5.840   6.153  1.5671 -0.9844 -0.7613
11919SOL     OW37177   5.489   8.373   3.261  0.0187  0.1191 -0.7015
11919SOL    HW137178   5.403   8.415   3.262  0.6379  1.4918 -1.8909
11919SOL    HW237179   5.538   8.418   3.330 -0.7821 -2.1304  1.5326
11920SOL     OW37180   4.949   6.102   6.300 -0.1196  0.0573 -0.2272
11920SOL    HW137181   4.954   6.130   6.209 -0.3963  0.9967  0.0335
11920SOL    HW237182   4.864   6.061   6.308 -0.2797  0.3726 -0.2921
11921SOL     OW37183   5.307   5.355   4.488  0.2286  0.1964  0.1478
11921SOL    HW137184   5.254   5.404   4.551  1.2133  0.6063  0.6638
11921SOL    HW237185   5.289   5.263   4.507  1.5382  0.2647  1.9568
11922SOL     OW37186   8.744   1.302   7.700  0.0980 -0.5199  0.1989
11922SOL    HW137187   8.694   1.349   7.767  1.5007 -0.0253  0.9414
11922SOL    HW237188   8.678   1.269   7.639 -1.1081  0.2168  1.0694
11923SOL     OW37189   2.065   0.256   3.883 -0.4282 -0.0247  0.2672
11923SOL    HW137190   2.154   0.236   3.910 -0.4206  0.9309  0.9793
11923SOL    HW237191   2.062   0.351   3.878 -1.0136 -0.0897 -1.1380
11924SOL     OW37192   6.859   4.616   2.271 -0.5336  0.1283  0.4459
11924SOL    HW137193   6.854   4.707   2.300 -1.8297  0.1017  0.3373
11924SOL    HW237194   6.807   4.567   2.334 -2.8487 -0.0263 -1.4420
11925SOL     OW37195   1.569   2.919   5.683  0.3909 -0.0110 -0.1371
11925SOL    HW137196   1.481   2.883   5.683  0.1601  0.5333  0.4200
11925SOL    HW237197   1.574   2.972   5.604  1.0875 -2.0492 -1.5506
11926SOL     OW37198   8.934   2.012   4.571  0.2068 -0.4161 -0.4393
11926SOL    HW137199   8.925   2.103   4.599  0.4390 -0.5602  0.1126
11926SOL    HW237200   8.916   1.960   4.650  0.4729 -0.8380 -0.6506
11927SOL     OW37201   7.984   3.047   7.703  0.3498  0.2314 -0.0924
11927SOL    HW137202   7.991   2.957   7.736 -1.8289  0.0008 -0.0819
11927SOL    HW237203   7.967   3.036   7.610  2.3037  0.7504 -0.5505
11928SOL     OW37204   4.790   6.016   4.388  0.2001  0.4103  0.4830
11928SOL    HW137205   4.803   6.020   4.482  1.4584  0.2357  0.3351
11928SOL    HW237206   4.696   6.031   4.376  0.0509  0.5974  1.7413
11929SOL     OW37207   5.460   5.443   7.221 -0.1029 -0.5376  0.0868
11929SOL    HW137208   5.476   5.428   7.128  1.2328  1.5084 -0.0895
11929SOL    HW237209   5.541   5.415   7.264  1.1059  2.4902  0.0771
11930SOL     OW37210   4.737   3.563   4.974  0.2759  0.5396 -0.2466
11930SOL    HW137211   4.745   3.657   4.990 -2.0240  0.6269  0.8287
11930SOL    HW237212   4.642   3.547   4.974  0.5160 -1.4269 -2.6708
11931SOL     OW37213   3.335   8.907   7.851  0.1802 -0.3223  0.0217
11931SOL    HW137214   3.241   8.920   7.864 -0.2059 -1.7832 -1.0807
11931SOL    HW237215   3.356   8.827   7.900  0.5043 -0.9070 -1.0426
11932SOL     OW37216   8.740   4.853   6.626 -0.0033  0.3380  0.1550
11932SOL    HW137217   8.715   4.892   6.709  2.1783  0.8047  0.6633
11932SOL    HW237218   8.790   4.922   6.582 -0.5745 -0.1262 -1.2657
11933SOL     OW37219   2.071   3.057   7.226  0.1557  0.1961 -0.6629
11933SOL    HW137220   2.050   3.149   7.212  2.8134  1.1735  1.0626
11933SOL    HW237221   2.162   3.049   7.199 -0.0119 -1.9586 -0.7443
11934SOL     OW37222   5.369   4.069   7.709  0.3154 -0.3004  0.0540
11934SOL    HW137223   5.402   3.988   7.748  0.8294 -0.1442 -0.0502
11934SOL    HW237224   5.317   4.109   7.779  0.9674 -0.1840  0.4825
11935SOL     OW37225   4.177   2.782   0.728  0.0759  0.1874  0.0325
11935SOL    HW137226   4.204   2.695   0.758  0.9599  0.5571  0.3710
11935SOL    HW237227   4.084   2.774   0.711  0.1484 -0.8318  0.0406
11936SOL     OW37228   4.670   4.499   9.090  0.0297 -0.1500 -0.4875
11936SOL    HW137229   4.712   4.527   9.172  1.2577 -2.0660 -0.4159
11936SOL    HW237230   4.578   4.527   9.100  0.0714 -0.6013  1.6765
11937SOL     OW37231   1.335   6.532   3.491  0.0362 -0.1485  0.7309
11937SOL    HW137232   1.424   6.527   3.527 -0.4244 -1.8989  1.7292
11937SOL    HW237233   1.298   6.611   3.530  1.1271  0.5925  0.3181
11938SOL     OW37234   5.981   6.739   3.513 -0.1026  0.2702 -0.3480
11938SOL    HW137235   6.069   6.773   3.495  0.4985 -1.2114 -0.3588
11938SOL    HW237236   5.960   6.687   3.436  0.0047 -1.2892  0.6429
11939SOL     OW37237   8.292   1.961   1.986  0.1954 -0.1919 -0.0834
11939SOL    HW137238   8.339   1.974   1.903  0.4964  1.6797  0.3310
11939SOL    HW237239   8.203   1.941   1.960 -0.3851  2.9773 -0.9553
11940SOL     OW37240   6.927   4.461   7.127 -0.3515 -0.2244 -0.1141
11940SOL    HW137241   6.875   4.381   7.123  0.6675 -0.9508  0.5208
11940SOL    HW237242   6.864   4.532   7.114 -1.8145 -0.9690  2.2408
11941SOL     OW37243   0.283   1.661   0.811 -0.0429 -0.0654 -0.1050
11941SOL    HW137244   0.199   1.662   0.764 -0.4378  0.3298  0.5868
11941SOL    HW237245   0.308   1.569   0.812  0.2962 -0.0269 -1.6216
11942SOL     OW37246   6.945   5.137   1.235  0.1120 -0.1453 -0.1775
11942SOL    HW137247   6.899   5.153   1.318  0.8726  0.9402  0.0555
11942SOL    HW237248   6.996   5.058   1.251  0.7983  0.4444  0.6448
11943SOL     OW37249   1.730   2.203   4.933  0.5390  0.1131 -0.1630
11943SOL    HW137250   1.686   2.213   5.017 -1.3532 -1.6045 -0.8779
11943SOL    HW237251   1.815   2.247   4.946 -0.1417  0.9142  2.2289
11944SOL     OW37252   1.716   0.072   7.676 -0.5446 -0.1567  0.7920
11944SOL    HW137253   1.800   0.092   7.719  0.3769  1.5179 -1.5821
11944SOL    HW237254   1.683  -0.005   7.723  1.8283 -0.2800  2.4518
11945SOL     OW37255   7.369   7.807   7.096  0.1903 -0.4094  0.2529
11945SOL    HW137256   7.430   7.739   7.068  0.5969 -0.2310  0.6919
11945SOL    HW237257   7.305   7.813   7.024  0.1146 -1.2911  0.2394
11946SOL     OW37258   6.157   2.239   1.668  0.1418  0.0548 -0.5863
11946SOL    HW137259   6.094   2.296   1.622 -0.4807  0.6963  0.9948
11946SOL    HW237260   6.172   2.167   1.607 -0.3127  1.0849 -1.9760
11947SOL     OW37261   4.879   8.384   0.648  0.5670  0.6247 -0.1400
11947SOL    HW137262   4.918   8.368   0.562  0.7819 -1.0173  0.2135
11947SOL    HW237263   4.877   8.479   0.657 -0.7979  0.9201 -2.5595
11948SOL     OW37264   6.111   8.805   4.169 -0.0775 -0.6430  0.4594
11948SOL    HW137265   6.045   8.755   4.120  0.7184 -1.7612  0.4974
11948SOL    HW237266   6.104   8.894   4.134 -1.1326 -0.8937 -0.0197
11949SOL     OW37267   5.143   3.063   0.576  0.5098  0.0984 -0.1378
11949SOL    HW137268   5.215   3.124   0.570 -0.0983  0.8681  0.2537
11949SOL    HW237269   5.145   3.031   0.666  0.0836  0.4779  0.0098
11950SOL     OW37270   5.108   8.119   7.036 -0.5949  0.4277  0.5656
11950SOL    HW137271   5.094   8.166   6.954 -0.2420  1.2101  0.9486
11950SOL    HW237272   5.105   8.186   7.104  0.4887 -0.0106  1.0746
11951SOL     OW37273   4.962   2.207   7.180  0.1210 -0.1386 -0.4738
11951SOL    HW137274   5.027   2.148   7.219 -0.8548 -0.2126  1.1759
11951SOL    HW237275   4.985   2.294   7.213 -0.5969 -0.1724  0.1614
11952SOL     OW37276   7.115   5.595   1.011  0.0348  0.1035 -0.4401
11952SOL    HW137277   7.061   5.523   1.045 -0.2075  0.4269 -0.1289
11952SOL    HW237278   7.058   5.672   1.018  0.1569  0.2632 -1.1239
11953SOL     OW37279   3.528   0.813   2.809  0.3564 -0.0060  0.4418
11953SOL    HW137280   3.486   0.880   2.864  0.3639 -2.1378  3.2653
11953SOL    HW237281   3.595   0.774   2.865  2.0667 -0.7480 -1.9541
11954SOL     OW37282   7.624   6.127   3.525 -0.6650 -0.3296 -0.3367
11954SOL    HW137283   7.558   6.169   3.580 -0.3967 -0.5125  0.1317
11954SOL    HW237284   7.697   6.109   3.585  0.1689  0.6517 -1.0225
11955SOL     OW37285   6.452   8.402   8.314  0.3164 -0.1527  0.0007
11955SOL    HW137286   6.528   8.438   8.359  0.2795  0.4628 -0.4128
11955SOL    HW237287   6.407   8.479   8.277  0.4057 -0.6362 -1.1657
11956SOL     OW37288   6.939   7.080   0.101  0.2719  0.3171  0.6603
11956SOL    HW137289   6.961   7.084   0.007 -0.6341 -0.9562  0.3625
11956SOL    HW237290   6.999   7.142   0.142  0.7510  0.8393 -0.7543
11957SOL     OW37291   4.565   1.388   2.771 -0.0209 -0.1912 -0.7075
11957SOL    HW137292   4.542   1.339   2.692 -1.0490 -0.4709 -0.2485
11957SOL    HW237293   4.655   1.362   2.790 -0.3014 -1.3541 -0.8846
11958SOL     OW37294   4.477   1.149   1.645  0.1257  0.2468  0.4126
11958SOL    HW137295   4.436   1.161   1.560 -0.4974 -0.8287  0.5310
11958SOL    HW237296   4.541   1.079   1.632  1.1684  1.1715  0.4787
11959SOL     OW37297   5.389   6.479   3.082  0.0005  1.1179  0.7047
11959SOL    HW137298   5.379   6.572   3.061  0.1403  1.3262  1.5606
11959SOL    HW237299   5.361   6.471   3.173 -1.7220  0.0137  0.1305
11960SOL     OW37300   4.039   0.670   6.122 -0.4434 -0.3478  0.4595
11960SOL    HW137301   3.963   0.644   6.175  0.1927 -1.2885  0.9353
11960SOL    HW237302   4.051   0.598   6.060 -0.6540  0.3508 -0.4146
11961SOL     OW37303   4.929   3.083   3.061 -0.2217  0.3198  0.0816
11961SOL    HW137304   4.835   3.067   3.050 -0.2530  1.0068 -0.7350
11961SOL    HW237305   4.956   3.126   2.980  1.0385 -0.8470 -0.1621
11962SOL     OW37306   7.739   1.749   7.437  0.5498  0.5713 -0.0274
11962SOL    HW137307   7.655   1.719   7.470  0.4953  0.6588 -0.0870
11962SOL    HW237308   7.803   1.713   7.499  0.4082  1.2080  0.4982
11963SOL     OW37309   7.686   0.983   7.447  0.1980  0.5730  0.0976
11963SOL    HW137310   7.678   0.889   7.435 -2.3709  0.9443 -1.9504
11963SOL    HW237311   7.641   1.001   7.529 -1.8798  0.2514 -0.9135
11964SOL     OW37312   4.531   5.735   0.348 -0.2587  0.7946 -0.2630
11964SOL    HW137313   4.545   5.719   0.441  0.0341  1.4265 -0.1923
11964SOL    HW237314   4.580   5.815   0.330  1.5156 -0.4823 -1.4458
11965SOL     OW37315   3.038   4.327   5.017  0.1473 -0.2889 -0.3803
11965SOL    HW137316   3.037   4.378   5.099 -0.2313  0.7826 -1.0261
11965SOL    HW237317   3.119   4.353   4.974  0.3909 -0.9226 -0.3108
11966SOL     OW37318   6.087   0.936   0.982  0.4342  0.4325  0.2568
11966SOL    HW137319   6.158   0.994   0.951 -0.4248  0.5935 -1.5420
11966SOL    HW237320   6.103   0.853   0.938 -0.8307  0.6654 -0.7078
11967SOL     OW37321   3.012   7.416   7.696  0.3560  0.3252 -0.0861
11967SOL    HW137322   3.082   7.474   7.727  0.8148 -0.0771 -0.3497
11967SOL    HW237323   2.931   7.461   7.721  0.6956  1.1388 -0.3887
11968SOL     OW37324   3.774   7.928   5.672 -0.1425  0.6667  0.5244
11968SOL    HW137325   3.771   7.860   5.739  0.3778  1.7738  1.7043
11968SOL    HW237326   3.825   7.999   5.711 -1.2524  2.0405 -0.3867
11969SOL     OW37327   1.819   6.269   2.893 -0.0656  0.1206 -0.4138
11969SOL    HW137328   1.872   6.305   2.963  1.5738  0.3790 -1.7301
11969SOL    HW237329   1.839   6.325   2.817 -3.9568  1.7376 -0.5028
11970SOL     OW37330   2.686   6.329   8.499 -0.0906  0.2616  0.5311
11970SOL    HW137331   2.617   6.395   8.509 -1.5194 -1.0142 -0.3275
11970SOL    HW237332   2.680   6.302   8.408  1.7458  0.2751  0.3767
11971SOL     OW37333   4.558   6.622   0.433 -0.2061  0.6720  0.3900
11971SOL    HW137334   4.647   6.588   0.442 -0.3842  0.1802  0.2977
11971SOL    HW237335   4.525   6.583   0.351  0.3146  2.6782 -0.8440
11972SOL     OW37336   6.794   5.652   6.738  0.0764 -0.1189 -0.2013
11972SOL    HW137337   6.886   5.633   6.718  0.6236  1.6343  0.4144
11972SOL    HW237338   6.758   5.569   6.767  0.7187 -1.4897 -3.0010
11973SOL     OW37339   6.870   4.735   4.086  0.4564 -0.3090  0.5642
11973SOL    HW137340   6.866   4.825   4.055 -0.0979 -0.2288  0.8579
11973SOL    HW237341   6.782   4.717   4.119  0.8324 -0.6274  1.4319
11974SOL     OW37342   4.704   7.708   5.938  0.7298  0.1756  0.1649
11974SOL    HW137343   4.640   7.672   5.876 -1.0833  0.0967  1.9803
11974SOL    HW237344   4.671   7.795   5.958  0.3197 -0.3766  2.1932
11975SOL     OW37345   8.661   7.724   5.840 -0.2976  0.2879 -0.1110
11975SOL    HW137346   8.588   7.769   5.798  0.3655  2.3158  0.7721
11975SOL    HW237347   8.620   7.657   5.895 -1.2745 -0.9099 -2.1887
11976SOL     OW37348   3.789   3.949   2.042 -0.3725  0.1247 -0.2603
11976SOL    HW137349   3.801   3.854   2.042  0.7241  0.2310 -1.0894
11976SOL    HW237350   3.776   3.972   2.134  0.6409 -0.7030  0.1200
11977SOL     OW37351   5.122   7.680   6.117  0.0341  0.4743 -0.5649
11977SOL    HW137352   5.103   7.647   6.205 -0.3329 -1.5596 -1.3567
11977SOL    HW237353   5.096   7.772   6.120 -2.4228 -0.1699  0.7344
11978SOL     OW37354   3.870   6.672   7.129 -0.2257  0.0563  0.5497
11978SOL    HW137355   3.865   6.765   7.152 -2.6123  0.3736 -0.9745
11978SOL    HW237356   3.818   6.628   7.196  0.7482 -0.2010  1.1620
11979SOL     OW37357   5.725   4.834   1.219  0.1505 -0.4260 -0.3131
11979SOL    HW137358   5.706   4.823   1.312  1.4585  0.2009  0.0541
11979SOL    HW237359   5.692   4.921   1.197 -0.5020 -0.7240 -0.5449
11980SOL     OW37360   7.926   9.235   2.100  0.0118  0.5819 -0.1982
11980SOL    HW137361   7.835   9.238   2.070  0.2489  2.3190 -0.7957
11980SOL    HW237362   7.939   9.318   2.146  0.9080 -0.2383  1.1091
11981SOL     OW37363   5.104   4.298   7.622 -0.4656 -0.4804 -0.2263
11981SOL    HW137364   5.177   4.274   7.565 -1.2527 -0.9464 -1.0614
11981SOL    HW237365   5.086   4.390   7.600  1.1631  0.2938  1.4459
11982SOL     OW37366   6.634   6.285   3.403  0.1315  0.5113 -0.0300
11982SOL    HW137367   6.558   6.238   3.369  1.0072  0.7007 -2.3900
11982SOL    HW237368   6.709   6.229   3.382  0.9307  1.7230 -0.5269
11983SOL     OW37369   0.066   0.019   8.706  0.6253  0.8863 -0.5977
11983SOL    HW137370   0.077  -0.070   8.671 -0.7760  0.4326  0.0709
11983SOL    HW237371   0.144   0.033   8.760  0.9373  0.1248 -0.8350
11984SOL     OW37372   5.230   2.488   0.115  0.0821  0.0670 -0.0897
11984SOL    HW137373   5.273   2.410   0.080 -2.2168 -0.9431 -0.8652
11984SOL    HW237374   5.251   2.488   0.208  0.3166 -1.3529 -0.1288
11985SOL     OW37375   2.049   4.829   5.395 -0.3558  0.3138 -0.4587
11985SOL    HW137376   2.068   4.812   5.487 -1.8934 -0.0778 -0.1892
11985SOL    HW237377   2.135   4.830   5.353  0.3017 -0.6429  0.7849
11986SOL     OW37378   8.721   0.787   6.526 -0.2178  0.0484 -0.0924
11986SOL    HW137379   8.777   0.829   6.591 -0.9888  1.4135 -0.2769
11986SOL    HW237380   8.633   0.819   6.545 -0.9162 -1.7340 -0.0759
11987SOL     OW37381   5.283   4.945   0.109 -0.0339  0.3355  0.4576
11987SOL    HW137382   5.199   4.917   0.073 -0.2993  1.3549  0.2554
11987SOL    HW237383   5.320   5.001   0.041  0.4755  0.4912  0.8636
11988SOL     OW37384   1.501   6.352   3.810  0.4871 -0.5832 -0.4289
11988SOL    HW137385   1.543   6.420   3.758  1.3484  0.4730  1.5548
11988SOL    HW237386   1.434   6.316   3.751  1.4442  0.4655 -2.2708
11989SOL     OW37387   5.407   3.777   8.417  0.0390 -0.2409  0.4445
11989SOL    HW137388   5.366   3.714   8.475  0.9024 -1.8460 -0.5997
11989SOL    HW237389   5.353   3.775   8.338  0.6400 -0.4352  0.0337
11990SOL     OW37390   2.722   7.695   8.177  0.1110 -0.3323 -0.5343
11990SOL    HW137391   2.741   7.653   8.093 -1.9727  1.1253 -1.8524
11990SOL    HW237392   2.783   7.768   8.182 -0.0590 -0.1574 -1.0046
11991SOL     OW37393   1.666   1.002   5.944 -0.3473 -0.2933  0.4827
11991SOL    HW137394   1.646   0.940   6.014  2.0951 -1.6207  0.1107
11991SOL    HW237395   1.665   1.088   5.986  1.6255 -1.1110  2.3403
11992SOL     OW37396   8.933   7.430   0.439  0.2770 -0.7174 -0.2246
11992SOL    HW137397   8.891   7.515   0.430 -0.7513 -1.2117 -0.2280
11992SOL    HW237398   9.019   7.449   0.476  0.7113  0.4670 -1.7303
11993SOL     OW37399   0.694   2.925   7.933 -0.4345  0.0683 -0.9248
11993SOL    HW137400   0.686   2.840   7.976  0.8906 -0.0041 -0.7791
11993SOL    HW237401   0.652   2.913   7.848 -1.8666 -0.1857 -0.2093
11994SOL     OW37402   4.601   3.957   3.284 -0.0501 -0.0901  0.5018
11994SOL    HW137403   4.518   3.991   3.250 -0.5353 -0.5280  1.2189
11994SOL    HW237404   4.668   4.001   3.232 -0.7404  0.0085 -0.3330
11995SOL     OW37405   3.608   3.883   5.554  0.4761  0.2882 -0.1383
11995SOL    HW137406   3.573   3.970   5.537  1.4620  0.6287 -0.5040
11995SOL    HW237407   3.618   3.844   5.467  0.7685  0.1134 -0.0277
11996SOL     OW37408   7.054   3.841   5.308  0.8351  0.4044  0.4558
11996SOL    HW137409   7.108   3.878   5.377  1.5319  1.0564 -0.4105
11996SOL    HW237410   7.038   3.750   5.335  1.4015  0.5452  1.2745
11997SOL     OW37411   7.692   0.119   3.036 -0.4166 -0.6893 -0.2054
11997SOL    HW137412   7.656   0.113   3.125  2.1864  0.7887  1.0570
11997SOL    HW237413   7.628   0.072   2.981 -1.6680 -2.4681  2.5406
11998SOL     OW37414   8.096   3.434   0.861 -0.0340 -0.1356  0.4782
11998SOL    HW137415   8.067   3.430   0.952 -2.1349  0.0467 -0.1318
11998SOL    HW237416   8.144   3.352   0.847  0.8200  0.1030  1.8888
11999SOL     OW37417   6.693   0.150   1.363 -0.1551  0.6316  0.4151
11999SOL    HW137418   6.616   0.143   1.419  0.8860 -0.6511  1.7225
11999SOL    HW237419   6.745   0.220   1.402  0.0237  0.5193  0.3797
12000SOL     OW37420   7.908   2.171   8.870 -0.0122 -0.3645  0.6438
12000SOL    HW137421   7.852   2.241   8.838  1.0602 -0.6941 -2.1943
12000SOL    HW237422   7.860   2.135   8.945 -2.1696  1.2105  0.1153
12001SOL     OW37423   3.905   5.632   1.205  0.1049  0.1253  0.4451
12001SOL    HW137424   3.935   5.609   1.117  0.4323 -2.3646  1.1415
12001SOL    HW237425   3.811   5.648   1.195 -0.2392 -1.9016 -0.1240
12002SOL     OW37426   9.267   3.842   7.824  0.2654  0.2926 -0.0282
12002SOL    HW137427   9.196   3.793   7.784  0.1504  0.4122  0.0299
12002SOL    HW237428   9.254   3.932   7.796 -0.9627  0.7516  1.8505
12003SOL     OW37429   2.307   6.312   4.486  0.1656  0.6384 -0.0656
12003SOL    HW137430   2.387   6.324   4.537 -0.8350 -0.4671  1.8545
12003SOL    HW237431   2.305   6.387   4.426  1.2068  2.1909  1.7582
12004SOL     OW37432   4.207   3.129   7.214  0.1664 -0.6042 -0.2638
12004SOL    HW137433   4.269   3.201   7.204 -0.7436  0.1319 -0.7636
12004SOL    HW237434   4.237   3.082   7.292 -0.4787  1.6421  1.4644
12005SOL     OW37435   9.275   5.140   1.517 -0.2463  1.0033  0.1731
12005SOL    HW137436   9.305   5.115   1.429 -1.0234  0.2000  0.1221
12005SOL    HW237437   9.237   5.227   1.506  0.0829  1.1049 -0.1875
12006SOL     OW37438   6.424   0.750   4.006  0.1371  0.5430 -0.0817
12006SOL    HW137439   6.342   0.700   4.011  0.2617  0.3691  0.2196
12006SOL    HW237440   6.412   0.822   4.067  0.0444  0.7617 -0.3526
12007SOL     OW37441   5.694   3.769   1.523 -0.1852 -0.5657 -0.0910
12007SOL    HW137442   5.706   3.685   1.480 -0.0452  0.1516 -1.5063
12007SOL    HW237443   5.783   3.801   1.540 -0.2070 -0.1064 -0.7939
12008SOL     OW37444   7.185   3.248   4.289  0.6047  0.0334 -0.1183
12008SOL    HW137445   7.114   3.246   4.226 -0.6388  0.9956  1.1979
12008SOL    HW237446   7.211   3.340   4.294  0.9786 -0.0933  0.4325
12009SOL     OW37447   8.280   6.103   6.755  0.0965  0.0374  0.4366
12009SOL    HW137448   8.307   6.119   6.846 -0.8168  2.8663  0.2993
12009SOL    HW237449   8.184   6.103   6.759  0.0443 -1.1125 -0.3838
12010SOL     OW37450   3.163   0.113   4.227  0.3678  0.3899  0.5498
12010SOL    HW137451   3.171   0.031   4.276  1.3940  0.9908  1.4464
12010SOL    HW237452   3.188   0.181   4.290 -2.2679  1.6091  0.4368
12011SOL     OW37453   3.306   0.641   1.894  0.1507  0.0840  0.6639
12011SOL    HW137454   3.223   0.633   1.847 -0.4927 -0.2655  1.8097
12011SOL    HW237455   3.281   0.642   1.987  1.4363 -0.2599  1.0393
12012SOL     OW37456   8.744   1.719   8.770  0.4640  0.5574  0.1851
12012SOL    HW137457   8.799   1.796   8.755  0.6313  0.3610 -0.2239
12012SOL    HW237458   8.766   1.659   8.698 -1.9529  1.3957 -1.3800
12013SOL     OW37459   7.670   0.072   6.806 -0.0193  0.4287 -0.0602
12013SOL    HW137460   7.703   0.040   6.722  1.8372  0.4898  0.5951
12013SOL    HW237461   7.624  -0.003   6.844  1.5580 -0.5496  0.0551
12014SOL     OW37462   2.362   8.067   3.234  0.2947  0.0368 -0.0455
12014SOL    HW137463   2.338   7.974   3.238 -0.5840  0.2978  2.1977
12014SOL    HW237464   2.408   8.076   3.150 -0.0676 -2.2926 -0.5741
12015SOL     OW37465   1.374   8.387   9.142  0.2771  0.7967 -0.4993
12015SOL    HW137466   1.395   8.453   9.208  1.4383  0.4290 -0.4846
12015SOL    HW237467   1.445   8.392   9.078  0.9625 -1.0924  0.0328
12016SOL     OW37468   6.114   2.459   8.970 -0.5921  0.2325 -0.3246
12016SOL    HW137469   6.105   2.505   8.887  1.5984 -0.0186 -0.7546
12016SOL    HW237470   6.091   2.524   9.036  0.5176  1.3767 -1.0178
12017SOL     OW37471   2.824   9.152   8.512 -0.1744  0.6375 -0.1197
12017SOL    HW137472   2.756   9.219   8.500 -1.2966 -0.3808  0.4067
12017SOL    HW237473   2.780   9.069   8.494  0.4581 -0.1966  1.8897
12018SOL     OW37474   0.514   2.892   7.708 -0.2033  0.0785  0.1276
12018SOL    HW137475   0.493   2.948   7.633  0.2090  1.5741  1.0778
12018SOL    HW237476   0.473   2.808   7.687  0.6053  0.1786 -2.1413
12019SOL     OW37477   5.557   8.066   4.329 -0.2406  0.6333  0.1281
12019SOL    HW137478   5.573   8.075   4.235  2.3919  1.7455  0.6060
12019SOL    HW237479   5.505   8.143   4.352 -1.4291  0.0378 -0.4878
12020SOL     OW37480   2.411   1.076   9.139 -0.5588 -0.5543 -0.5914
12020SOL    HW137481   2.398   1.080   9.233  0.9531 -0.6564 -0.3584
12020SOL    HW237482   2.416   0.982   9.119 -0.7763 -0.5304 -0.7746
12021SOL     OW37483   1.496   5.896   1.350 -0.3522 -0.1431 -0.2828
12021SOL    HW137484   1.553   5.820   1.342  1.0147  0.7716  0.4420
12021SOL    HW237485   1.539   5.952   1.415 -1.7340  0.8906 -0.2106
12022SOL     OW37486   3.566   8.891   1.558 -0.2594 -0.0194  0.6703
12022SOL    HW137487   3.554   8.968   1.613  0.3736  1.3079 -0.9878
12022SOL    HW237488   3.478   8.870   1.527 -0.4284  0.0304  1.0980
12023SOL     OW37489   9.114   7.511   4.455 -0.7265 -0.1103  0.2343
12023SOL    HW137490   9.111   7.513   4.550 -0.6198 -0.6325  0.2513
12023SOL    HW237491   9.207   7.517   4.433 -0.8599  2.9513  0.0654
12024SOL     OW37492   1.773   1.316   2.477 -0.4189 -0.5999 -0.6069
12024SOL    HW137493   1.798   1.320   2.569 -1.1120  1.1123 -0.4677
12024SOL    HW237494   1.760   1.222   2.460  2.5506 -1.2690  0.1975
12025SOL     OW37495   3.004   4.473   5.251  0.4505  0.1248  0.1484
12025SOL    HW137496   2.936   4.540   5.240 -0.5590 -0.7580  0.8003
12025SOL    HW237497   3.080   4.521   5.284 -0.6241  0.8135  1.7671
12026SOL     OW37498   7.276   7.390   6.834  0.2112 -0.7185  0.4361
12026SOL    HW137499   7.280   7.336   6.755  0.8166  0.4931 -0.3954
12026SOL    HW237500   7.362   7.378   6.875  0.8447  0.5683 -0.4408
12027SOL     OW37501   5.538   5.962   8.239 -0.5560  0.0826  0.0846
12027SOL    HW137502   5.481   6.033   8.210  0.3814  0.9530  0.3165
12027SOL    HW237503   5.528   5.894   8.172 -0.3892  1.0111 -0.9059
12028SOL     OW37504   1.743   4.933   8.986  0.1037 -0.4444 -0.1383
12028SOL    HW137505   1.675   4.923   9.052  0.1660  1.2266  0.2272
12028SOL    HW237506   1.705   4.991   8.920  1.2550  0.8526  0.2730
12029SOL     OW37507   5.320   7.876   2.716 -0.3799  0.5138 -0.1492
12029SOL    HW137508   5.228   7.870   2.693 -0.9376  2.2940  1.3943
12029SOL    HW237509   5.336   7.969   2.732  0.8603 -0.0759  2.6564
12030SOL     OW37510   0.647   2.103   3.678  0.0914 -0.1597  0.3452
12030SOL    HW137511   0.697   2.099   3.759 -0.5850 -0.4773  0.7517
12030SOL    HW237512   0.589   2.027   3.681 -0.2479  0.0637 -0.2342
12031SOL     OW37513   2.224   9.059   7.890 -0.2322 -0.0385  0.2660
12031SOL    HW137514   2.315   9.072   7.915 -0.4881 -0.3228  1.4195
12031SOL    HW237515   2.229   9.022   7.802  0.7838 -0.3330  0.4272
12032SOL     OW37516   6.807   6.645   7.614  0.3259  0.7418 -0.9518
12032SOL    HW137517   6.766   6.571   7.660  2.0545 -0.3762 -1.1380
12032SOL    HW237518   6.900   6.638   7.635  1.0164  0.8933 -3.6540
12033SOL     OW37519   2.402   5.478   3.000 -0.2725  0.3055  0.2835
12033SOL    HW137520   2.414   5.568   3.030  1.6228  0.1425  0.1269
12033SOL    HW237521   2.467   5.467   2.931 -0.4794 -1.1755  0.2946
12034SOL     OW37522   6.965   5.436   1.635  0.3472 -0.6292 -0.0484
12034SOL    HW137523   6.977   5.499   1.706 -0.5407 -1.2774  0.6915
12034SOL    HW237524   7.052   5.396   1.624  0.3730 -0.9053  1.0460
12035SOL     OW37525   7.267   4.014   4.904  0.1276 -0.7674  0.2691
12035SOL    HW137526   7.331   4.064   4.954 -0.0834  0.1257 -0.3272
12035SOL    HW237527   7.315   3.986   4.826 -0.1277 -0.2952 -0.0654
12036SOL     OW37528   5.798   5.544   6.213 -0.2870  0.0991 -0.0270
12036SOL    HW137529   5.778   5.457   6.248  1.7885 -0.7788 -0.8294
12036SOL    HW237530   5.845   5.588   6.284 -1.1849  0.5079  0.3180
12037SOL     OW37531   4.756   7.152   7.938 -0.2713  0.1082  0.2516
12037SOL    HW137532   4.726   7.069   7.900  1.4136 -0.2253 -0.4810
12037SOL    HW237533   4.699   7.218   7.900 -1.4356 -0.6739  0.5918
12038SOL     OW37534   2.200   9.118   5.416  0.1096 -0.0866 -0.2829
12038SOL    HW137535   2.213   9.146   5.325 -0.5958 -1.3528 -0.7898
12038SOL    HW237536   2.108   9.135   5.434 -0.5256 -2.5629 -0.8241
12039SOL     OW37537   2.594   2.955   0.326 -0.3484  1.1298 -0.0176
12039SOL    HW137538   2.560   2.927   0.241 -2.4197  0.9502  0.8291
12039SOL    HW237539   2.582   2.880   0.383  1.6504  1.0200  0.3243
12040SOL     OW37540   6.821   6.272   5.037 -0.0830  0.2125 -0.4337
12040SOL    HW137541   6.892   6.331   5.062  0.7449 -0.2723 -1.5211
12040SOL    HW237542   6.828   6.267   4.941 -1.5737  0.1263 -0.5581
12041SOL     OW37543   4.339   3.598   4.214  0.2223 -0.8011 -0.2993
12041SOL    HW137544   4.397   3.611   4.139  1.3189 -0.4814  0.5957
12041SOL    HW237545   4.357   3.671   4.272 -2.6768  0.5988 -0.9640
12042SOL     OW37546   9.173   2.124   3.223  0.2058  0.5779  0.2903
12042SOL    HW137547   9.234   2.160   3.287 -1.4424 -0.6679  2.7246
12042SOL    HW237548   9.212   2.040   3.196 -1.3142 -1.3932  3.6351
12043SOL     OW37549   4.649   3.633   8.580  0.8187 -0.0180 -0.3002
12043SOL    HW137550   4.609   3.658   8.497  1.8067  1.0778 -0.4744
12043SOL    HW237551   4.733   3.677   8.580  1.4283 -1.1304  0.6852
12044SOL     OW37552   3.009   0.351   3.542 -0.3167  0.2845 -0.5429
12044SOL    HW137553   3.066   0.427   3.533 -0.2852  0.2362 -0.7769
12044SOL    HW237554   3.063   0.285   3.586 -0.6774  0.7447  0.6263
12045SOL     OW37555   9.027   9.247   9.155  0.7913  0.2990  0.2480
12045SOL    HW137556   9.053   9.284   9.070  0.2189  0.4790  0.1520
12045SOL    HW237557   9.039   9.319   9.217  2.5788 -0.2316  0.5769
12046SOL     OW37558   7.859   4.394   1.908  0.2879 -0.1211  0.2737
12046SOL    HW137559   7.832   4.376   1.818  0.6504  3.8673 -0.8375
12046SOL    HW237560   7.953   4.411   1.902  0.3128  0.1819  1.3751
12047SOL     OW37561   1.038   6.860   4.927  0.0632 -0.7278  0.2075
12047SOL    HW137562   1.070   6.820   5.008  0.5283  0.0841  0.4386
12047SOL    HW237563   1.031   6.788   4.865  1.6746 -1.0427  0.3613
12048SOL     OW37564   0.548   1.362   8.586  0.3953  0.3744 -0.0450
12048SOL    HW137565   0.476   1.314   8.626  0.5167  0.9425  0.8735
12048SOL    HW237566   0.623   1.346   8.643  0.1218  2.7426  1.0959
12049SOL     OW37567   8.783   4.825   2.173 -0.4188  0.3237  0.2153
12049SOL    HW137568   8.726   4.864   2.239  0.3383  0.6668  0.6679
12049SOL    HW237569   8.791   4.733   2.199  0.0153  0.4961  0.6999
12050SOL     OW37570   6.085   3.902   5.728 -0.7103 -0.2847  0.3686
12050SOL    HW137571   5.996   3.922   5.756 -0.1495  0.2371  1.8822
12050SOL    HW237572   6.130   3.873   5.808  0.6156 -0.0751 -0.2609
12051SOL     OW37573   5.119   8.950   7.946  0.0513 -0.3532  0.2992
12051SOL    HW137574   5.159   9.024   7.902 -0.8771 -0.7859 -1.3395
12051SOL    HW237575   5.057   8.988   8.008 -0.1791  0.2374 -0.2959
12052SOL     OW37576   6.761   5.750   5.613 -0.4440  0.2926 -0.2243
12052SOL    HW137577   6.807   5.754   5.530 -0.2947  0.6493 -0.1294
12052SOL    HW237578   6.670   5.772   5.592 -0.9224 -1.8558 -0.6481
12053SOL     OW37579   6.645   4.479   2.723 -0.7076  0.1435  0.0912
12053SOL    HW137580   6.605   4.393   2.709  0.8638 -0.6707  0.3204
12053SOL    HW237581   6.599   4.516   2.798 -1.6290 -0.3405 -0.2200
12054SOL     OW37582   8.658   8.026   2.178 -0.1694  0.1823 -0.3552
12054SOL    HW137583   8.681   8.034   2.270  0.6916  0.5393 -0.5834
12054SOL    HW237584   8.642   7.933   2.165 -0.0124  0.0925  0.0938
12055SOL     OW37585   7.783   3.212   5.787  0.7370 -0.0084 -0.1240
12055SOL    HW137586   7.769   3.198   5.881  0.2261  1.7033  0.0926
12055SOL    HW237587   7.800   3.125   5.752 -1.9380 -1.1176  1.0547
12056SOL     OW37588   1.067   8.445   1.508  0.2408  0.2751 -0.0466
12056SOL    HW137589   1.046   8.444   1.601  1.9527 -1.5573  0.3835
12056SOL    HW237590   0.982   8.443   1.464 -0.5921  1.2147  1.4473
12057SOL     OW37591   1.533   7.654   7.593  0.0880 -0.1570  0.2528
12057SOL    HW137592   1.542   7.583   7.656 -0.8702  0.4412  1.0822
12057SOL    HW237593   1.584   7.624   7.517  0.7837 -1.1393  1.0674
12058SOL     OW37594   8.315   4.672   6.623 -0.6118  0.2947 -0.1997
12058SOL    HW137595   8.232   4.656   6.577 -0.0200 -0.0376 -1.1810
12058SOL    HW237596   8.324   4.598   6.682 -1.2811  0.6154  0.3172
12059SOL     OW37597   1.989   1.824   6.462 -0.2183  0.4821  0.4880
12059SOL    HW137598   2.063   1.774   6.429  0.4775  0.3313  2.1847
12059SOL    HW237599   1.923   1.759   6.484 -0.3647  0.5288  0.2035
12060SOL     OW37600   6.478   5.398   3.617 -0.1018  0.3626  0.0107
12060SOL    HW137601   6.408   5.380   3.680 -1.1083  1.8437 -0.6090
12060SOL    HW237602   6.446   5.362   3.535  0.0270  0.7297 -0.2015
12061SOL     OW37603   7.795   1.890   6.486  0.0891 -0.3125 -0.2973
12061SOL    HW137604   7.807   1.922   6.396 -0.5169  0.9645  0.0582
12061SOL    HW237605   7.702   1.868   6.491 -0.1626  0.8431  0.3855
12062SOL     OW37606   6.644   1.228   6.729 -0.4207  0.0587  0.1960
12062SOL    HW137607   6.697   1.296   6.687 -2.1058  1.0108 -0.5021
12062SOL    HW237608   6.650   1.153   6.669 -0.1778  0.2849 -0.0701
12063SOL     OW37609   0.818   1.868   7.710  0.0942  0.2398  0.1756
12063SOL    HW137610   0.722   1.870   7.712  0.1034  1.0218  2.2634
12063SOL    HW237611   0.844   1.940   7.766  1.8914 -1.2473  1.3455
12064SOL     OW37612   5.060   1.543   8.254  0.2270  0.0521 -0.1908
12064SOL    HW137613   5.054   1.532   8.349 -0.4030  0.4098 -0.1858
12064SOL    HW237614   5.116   1.620   8.243 -1.1038  1.0738 -0.0516
12065SOL     OW37615   7.322   2.989   4.140  0.3302 -0.3294 -0.5815
12065SOL    HW137616   7.302   3.062   4.198 -3.4414 -1.8259  0.2927
12065SOL    HW237617   7.318   3.027   4.052  2.0326  1.1512 -0.0622
12066SOL     OW37618   4.152   8.222   3.936  0.2358  0.4321 -0.0601
12066SOL    HW137619   4.139   8.220   4.030 -0.3469  2.9218 -0.0188
12066SOL    HW237620   4.246   8.203   3.925  0.1151 -0.8792  0.8915
12067SOL     OW37621   1.792   6.917   3.729 -0.9208  0.5685  0.5563
12067SOL    HW137622   1.772   6.904   3.636  0.7358  1.1567  0.0753
12067SOL    HW237623   1.747   6.845   3.773 -1.1412 -0.1599 -0.7818
12068SOL     OW37624   5.820   0.250   2.848  0.5356 -0.4591 -1.0992
12068SOL    HW137625   5.868   0.182   2.800  1.9981 -0.7676  0.6688
12068SOL    HW237626   5.886   0.315   2.870  0.4768 -1.2919  2.1337
12069SOL     OW37627   8.032   6.054   8.651  0.2869  0.3667 -0.1738
12069SOL    HW137628   8.113   6.043   8.702 -0.3420 -1.5825  0.4738
12069SOL    HW237629   7.975   6.105   8.707  0.6246  0.6990 -0.1273
12070SOL     OW37630   4.453   6.195   9.080 -0.2746 -0.5828 -0.0401
12070SOL    HW137631   4.437   6.101   9.082 -1.0491 -0.4575  1.5958
12070SOL    HW237632   4.517   6.209   9.150  0.8204 -0.0438 -1.1350
12071SOL     OW37633   6.513   0.475   4.210  0.2934 -0.2035 -0.2765
12071SOL    HW137634   6.539   0.432   4.128 -0.4007  0.1093 -0.6734
12071SOL    HW237635   6.423   0.445   4.226  1.3054 -2.3827  1.8244
12072SOL     OW37636   3.603   4.785   0.696 -0.5266 -0.6957  0.0394
12072SOL    HW137637   3.680   4.842   0.698 -0.2549 -1.0741  0.3810
12072SOL    HW237638   3.556   4.806   0.777 -0.8598 -0.3721 -0.2288
12073SOL     OW37639   6.370   0.466   2.945  0.1247  0.3930  0.0315
12073SOL    HW137640   6.317   0.424   3.012 -1.3078  2.2045  0.1240
12073SOL    HW237641   6.368   0.406   2.871 -1.9139  0.2875  0.1192
12074SOL     OW37642   1.939   7.213   7.751 -0.4824 -0.4324 -0.0944
12074SOL    HW137643   1.856   7.169   7.766 -0.4591 -0.7183 -0.7733
12074SOL    HW237644   1.985   7.157   7.688  0.8710 -1.0922  1.4136
12075SOL     OW37645   7.294   5.050   5.218 -0.6906 -0.3410 -0.7879
12075SOL    HW137646   7.371   5.064   5.162 -1.5153  0.6606 -1.7223
12075SOL    HW237647   7.301   5.117   5.286  0.0582 -1.2539  0.0736
12076SOL     OW37648   8.038   5.555   3.082 -0.3311 -0.6583 -0.0661
12076SOL    HW137649   8.060   5.464   3.097  0.1679 -0.3049  1.4981
12076SOL    HW237650   7.949   5.565   3.115 -0.1477 -0.4461  0.3789
12077SOL     OW37651   8.804   5.708   3.318 -0.0720 -0.6464  0.1099
12077SOL    HW137652   8.857   5.629   3.311 -1.2954 -1.4340 -0.6302
12077SOL    HW237653   8.849   5.771   3.261 -1.3499 -2.1658 -2.8267
12078SOL     OW37654   8.212   5.020   8.320  0.0012 -0.4081  0.2919
12078SOL    HW137655   8.175   4.981   8.241 -0.8800  1.9539 -0.5578
12078SOL    HW237656   8.306   5.025   8.304 -0.0849 -0.6482 -0.2873
12079SOL     OW37657   8.200   8.371   8.351  0.1975  0.2694 -0.4393
12079SOL    HW137658   8.156   8.451   8.380 -1.1029 -0.4626 -0.3166
12079SOL    HW237659   8.223   8.388   8.259 -1.9351  0.0582 -1.0653
12080SOL     OW37660   0.523   0.022   4.498 -0.3410 -0.3088  0.1207
12080SOL    HW137661   0.555   0.096   4.550  0.9671  0.7850 -2.0982
12080SOL    HW237662   0.445  -0.009   4.545 -0.7261  2.2300  1.3033
12081SOL     OW37663   5.186   2.641   8.865 -0.2927  0.0332 -0.1154
12081SOL    HW137664   5.239   2.717   8.888 -0.2543  0.5261 -1.6820
12081SOL    HW237665   5.212   2.620   8.775  0.0365 -2.1382  0.4204
12082SOL     OW37666   8.765   2.212   6.447  0.2011 -0.4088 -0.1577
12082SOL    HW137667   8.848   2.174   6.474  0.7238  0.6945 -0.1644
12082SOL    HW237668   8.710   2.211   6.526  0.6524 -0.0211  0.1663
12083SOL     OW37669   0.301   7.169   6.920  0.1722 -0.0635 -0.1540
12083SOL    HW137670   0.207   7.152   6.910 -0.4375  0.5695  3.1148
12083SOL    HW237671   0.314   7.256   6.883 -0.3837 -0.3995 -1.1702
12084SOL     OW37672   3.594   4.264   8.356 -0.0636  0.3327 -0.4022
12084SOL    HW137673   3.513   4.282   8.309 -1.0481 -0.1135  1.0668
12084SOL    HW237674   3.568   4.260   8.448  1.2867 -1.6740 -0.0454
12085SOL     OW37675   5.126   5.481   4.068 -0.0955  0.0934 -0.4589
12085SOL    HW137676   5.211   5.525   4.075 -0.4970  0.8561 -0.3033
12085SOL    HW237677   5.130   5.409   4.131  0.0522  0.7635  0.3036
12086SOL     OW37678   7.901   5.203   1.084  0.0629  0.0313 -0.6178
12086SOL    HW137679   7.965   5.156   1.137 -0.7535  0.5056  0.8416
12086SOL    HW237680   7.942   5.287   1.065  0.7158 -0.4723 -1.5363
12087SOL     OW37681   8.089   3.846   9.125  0.0909 -0.0585  0.7499
12087SOL    HW137682   8.119   3.755   9.126 -1.8462 -0.7507  0.3586
12087SOL    HW237683   8.097   3.874   9.034  2.0619  0.6897  1.1164
12088SOL     OW37684   3.613   3.145   2.049  0.5019 -0.7630 -0.0210
12088SOL    HW137685   3.599   3.075   1.985 -1.3945  0.3995 -0.9565
12088SOL    HW237686   3.647   3.218   1.996 -1.5385  0.3684  0.1411
12089SOL     OW37687   3.468   4.540   7.341 -0.2257 -0.2656  0.4829
12089SOL    HW137688   3.493   4.596   7.415 -0.0805  1.3085 -0.6891
12089SOL    HW237689   3.410   4.596   7.289  1.1498 -0.6618 -1.5408
12090SOL     OW37690   1.553   1.073   7.868 -0.2502  0.1773 -0.2613
12090SOL    HW137691   1.531   0.987   7.830  1.5319 -0.1483 -0.6173
12090SOL    HW237692   1.639   1.094   7.832 -0.4772  1.9447  0.1509
12091SOL     OW37693   1.491   4.725   6.820  0.2857  0.0920  0.4387
12091SOL    HW137694   1.526   4.692   6.737 -0.4944 -0.1545  0.2078
12091SOL    HW237695   1.462   4.814   6.800  0.0096 -0.0013  0.4208
12092SOL     OW37696   4.703   1.044   2.022  0.2062  0.2547 -0.3374
12092SOL    HW137697   4.764   0.993   2.074  0.5349  0.1831 -0.7862
12092SOL    HW237698   4.749   1.059   1.939 -1.1019 -1.4469 -1.4413
12093SOL     OW37699   0.932   1.525   3.301 -0.0501  0.3463 -0.1986
12093SOL    HW137700   0.961   1.615   3.312 -3.1683  1.4395  0.0135
12093SOL    HW237701   0.964   1.479   3.379 -0.1935  1.7697  0.7260
12094SOL     OW37702   2.659   4.687   0.504  0.1332 -0.4195  0.1105
12094SOL    HW137703   2.606   4.753   0.460 -0.7495 -0.8869  0.4395
12094SOL    HW237704   2.746   4.726   0.511 -0.2700  0.5358 -0.0625
12095SOL     OW37705   0.154   0.456   6.891  0.1478 -0.2735 -0.2588
12095SOL    HW137706   0.062   0.473   6.908  0.2570  0.6653 -0.5761
12095SOL    HW237707   0.180   0.396   6.961 -0.3972  0.4269  0.5598
12096SOL     OW37708   2.759   5.893   8.020  0.6872 -0.5272 -0.2515
12096SOL    HW137709   2.793   5.826   7.961  1.7611 -1.4360  1.3396
12096SOL    HW237710   2.739   5.846   8.101  2.0613  1.1572  1.1414
12097SOL     OW37711   6.545   6.940   0.610 -0.0280  0.2970 -0.5253
12097SOL    HW137712   6.555   6.895   0.694 -0.6767 -0.6160 -0.9260
12097SOL    HW237713   6.471   6.896   0.568  0.1250  0.9230 -1.4678
12098SOL     OW37714   2.984   6.289   0.204 -0.1661  0.0298 -0.4937
12098SOL    HW137715   3.078   6.300   0.190 -0.1700  1.3319  0.3707
12098SOL    HW237716   2.976   6.269   0.298 -0.4324 -4.7873 -1.2681
12099SOL     OW37717   3.688   5.328   4.665 -0.0923  0.1386  0.0498
12099SOL    HW137718   3.668   5.237   4.687  0.0411  0.1216  0.1027
12099SOL    HW237719   3.757   5.321   4.598 -0.6737  0.1822 -0.5667
12100SOL     OW37720   3.513   0.238   4.200  0.3648  0.4732 -0.3305
12100SOL    HW137721   3.536   0.237   4.107  2.0490  0.0629  0.0674
12100SOL    HW237722   3.480   0.150   4.217  2.9455 -0.4948  0.0949
12101SOL     OW37723   2.041   7.113   2.775 -0.2353  0.0480 -0.6217
12101SOL    HW137724   2.105   7.041   2.776 -0.5362 -0.2458  1.1393
12101SOL    HW237725   1.972   7.084   2.835 -1.2365  1.0592 -1.2513
12102SOL     OW37726   1.075   2.665   6.179  0.0994  0.4298  0.0415
12102SOL    HW137727   1.051   2.575   6.159  0.2306  0.3188  0.3754
12102SOL    HW237728   1.058   2.713   6.098 -0.5028  0.2129  0.0361
12103SOL     OW37729   8.074   1.065   7.526 -0.3859  0.1166  0.5187
12103SOL    HW137730   8.005   1.104   7.580 -1.6675 -0.8734 -0.3357
12103SOL    HW237731   8.094   0.982   7.569  1.5616  1.1306  1.7251
12104SOL     OW37732   3.703   6.911   4.980  0.3828 -0.1855  0.4160
12104SOL    HW137733   3.664   6.995   5.002  0.0019  0.0540 -1.1100
12104SOL    HW237734   3.777   6.903   5.040 -0.4659  0.5291  1.5950
12105SOL     OW37735   6.618   0.737   3.550 -0.1327 -0.0661 -0.1252
12105SOL    HW137736   6.558   0.728   3.624  0.7016 -0.4859  0.5128
12105SOL    HW237737   6.634   0.648   3.521  0.6514 -0.0013  0.0961
12106SOL     OW37738   3.096   3.667   0.487  0.1004  0.1639 -0.0438
12106SOL    HW137739   3.170   3.607   0.487  0.2286  0.3105  1.2629
12106SOL    HW237740   3.135   3.754   0.492 -0.1311  0.3119 -0.6549
12107SOL     OW37741   5.936   2.365   8.285  0.1062 -0.0820 -0.7405
12107SOL    HW137742   5.905   2.395   8.371 -0.0697 -1.5450 -0.2577
12107SOL    HW237743   6.023   2.330   8.302 -0.2157 -1.0312 -1.0116
12108SOL     OW37744   4.941   2.751   8.487 -0.3249 -0.1845 -0.4979
12108SOL    HW137745   4.940   2.803   8.567  0.4532  0.4559 -0.8891
12108SOL    HW237746   4.979   2.667   8.514  1.1499  0.4694 -0.4271
12109SOL     OW37747   5.258   1.575   7.356  0.2767  0.1486 -0.6770
12109SOL    HW137748   5.301   1.593   7.440  1.8266  0.6288 -1.5315
12109SOL    HW237749   5.259   1.480   7.349  0.1125  0.1007 -0.1569
12110SOL     OW37750   4.956   8.318   7.352 -0.4787 -1.0671  1.0841
12110SOL    HW137751   4.938   8.377   7.425 -1.9684  0.5744 -0.5053
12110SOL    HW237752   5.016   8.253   7.388 -0.7249 -0.0239  3.5983
12111SOL     OW37753   1.035   3.867   5.109  0.3083 -0.0433  0.4718
12111SOL    HW137754   0.987   3.854   5.027  0.9401  0.8433 -0.0694
12111SOL    HW237755   0.971   3.849   5.178 -0.3730 -0.3329 -0.2181
12112SOL     OW37756   6.913   3.091   6.210  0.1794  0.7316  0.5820
12112SOL    HW137757   6.961   3.019   6.251  0.6749  0.6235 -0.1768
12112SOL    HW237758   6.821   3.071   6.227  0.3690  0.6533  1.5732
12113SOL     OW37759   0.145   4.165   8.532  0.2720 -0.8290  0.3273
12113SOL    HW137760   0.116   4.075   8.548  0.1661 -0.8947 -0.2324
12113SOL    HW237761   0.070   4.209   8.494  0.1416 -0.3397  1.1128
12114SOL     OW37762   6.522   3.573   4.724  0.3510 -0.1707 -0.1614
12114SOL    HW137763   6.427   3.564   4.733  0.4158 -0.9005 -0.1329
12114SOL    HW237764   6.555   3.483   4.728  0.9844  0.0211 -0.8625
12115SOL     OW37765   1.671   8.382   7.646 -0.0537 -0.3010  0.2060
12115SOL    HW137766   1.661   8.456   7.587  2.2013 -1.0674 -1.2666
12115SOL    HW237767   1.583   8.343   7.650 -0.4066  0.0301 -2.3546
12116SOL     OW37768   7.860   9.273   4.049  0.4019 -0.8731  0.3822
12116SOL    HW137769   7.927   9.227   4.099 -0.1541 -0.7262  1.2918
12116SOL    HW237770   7.780   9.221   4.061 -0.0977 -0.0117  0.9420
12117SOL     OW37771   6.479   4.799   6.990  0.4588  0.3863 -0.2571
12117SOL    HW137772   6.561   4.838   7.021 -0.1997  1.4226  0.2415
12117SOL    HW237773   6.481   4.811   6.895  1.2841 -0.4045 -0.3477
12118SOL     OW37774   3.901   5.219   1.013  0.2438  1.0646 -0.1656
12118SOL    HW137775   3.843   5.145   1.032  2.4714 -0.2074  2.1162
12118SOL    HW237776   3.977   5.180   0.970  1.5957  1.9146  1.3456
12119SOL     OW37777   1.429   7.632   6.807 -0.2383 -0.0027  0.3172
12119SOL    HW137778   1.402   7.558   6.862 -1.0445 -0.1183 -0.1998
12119SOL    HW237779   1.387   7.708   6.847 -2.4526 -0.3391 -1.1484
12120SOL     OW37780   8.987   3.375   5.575 -0.0025  0.5884 -0.6367
12120SOL    HW137781   9.047   3.332   5.635  0.7140  0.0701 -1.7035
12120SOL    HW237782   8.917   3.408   5.631  1.0134  0.7649  0.5681
12121SOL     OW37783   4.417   2.933   6.520  0.0464  0.2352  0.2328
12121SOL    HW137784   4.367   3.012   6.540 -0.2461 -0.0316  0.5784
12121SOL    HW237785   4.454   2.907   6.605  1.8495  1.1423 -0.2088
12122SOL     OW37786   0.246   1.733   6.899 -0.4092  0.1623 -0.0921
12122SOL    HW137787   0.244   1.746   6.994 -0.8597 -1.6363  0.1873
12122SOL    HW237788   0.314   1.668   6.885  1.6786  2.4515 -1.3515
12123SOL     OW37789   6.810   3.168   8.633 -0.2929  0.1277  0.1382
12123SOL    HW137790   6.756   3.126   8.700  0.0927 -0.5268  0.0483
12123SOL    HW237791   6.751   3.230   8.590 -0.9197 -0.4299  0.1773
12124SOL     OW37792   2.384   3.183   2.466  0.1217  0.5090 -0.8204
12124SOL    HW137793   2.448   3.249   2.438 -3.5465  5.1827  0.4358
12124SOL    HW237794   2.334   3.164   2.387  0.0101  0.7241 -0.8020
12125SOL     OW37795   2.924   2.252   7.043 -0.6291 -0.0420 -0.1461
12125SOL    HW137796   2.890   2.198   7.114  0.7861 -1.1780 -0.2970
12125SOL    HW237797   2.890   2.340   7.061 -2.2614 -0.7945  0.5799
12126SOL     OW37798   2.897   2.150   7.373 -0.6085  0.2025 -0.5198
12126SOL    HW137799   2.897   2.058   7.399 -0.0079  0.3925  0.1932
12126SOL    HW237800   2.807   2.179   7.388 -0.6444 -0.1016 -0.1253
12127SOL     OW37801   7.529   2.795   3.191 -0.7971 -0.0021  0.6596
12127SOL    HW137802   7.452   2.826   3.142 -0.7004  0.4502  0.7897
12127SOL    HW237803   7.602   2.840   3.149 -0.5363 -0.8960  0.1430
12128SOL     OW37804   7.616   6.732   8.116  0.2357  0.0631  0.3468
12128SOL    HW137805   7.553   6.695   8.178 -1.6418  0.6224 -1.1104
12128SOL    HW237806   7.646   6.813   8.157 -0.8605  0.3445  0.6116
12129SOL     OW37807   5.445   3.664   3.776  0.5400  0.1946 -0.0462
12129SOL    HW137808   5.470   3.584   3.729 -1.0876 -0.8459  0.7859
12129SOL    HW237809   5.350   3.659   3.784  0.4900  1.7920  0.8156
12130SOL     OW37810   5.003   0.840   2.530  0.2945 -0.4080  0.0092
12130SOL    HW137811   5.034   0.930   2.518 -1.4717  0.0094 -2.0812
12130SOL    HW237812   4.924   0.849   2.584 -0.0077 -0.6601 -0.3809
12131SOL     OW37813   1.071   3.053   1.165 -0.1420  0.4790  0.2604
12131SOL    HW137814   1.153   3.086   1.128  0.3508 -0.0166  0.8921
12131SOL    HW237815   1.035   3.126   1.215 -0.5434  0.9812 -0.7413
12132SOL     OW37816   6.401   1.439   2.273 -0.2071  0.4684  0.4063
12132SOL    HW137817   6.480   1.400   2.312 -0.0480  0.4334  0.0488
12132SOL    HW237818   6.351   1.471   2.348  0.9287  2.0087  0.5679
12133SOL     OW37819   3.427   2.279   4.896  0.7808  0.0149 -0.1556
12133SOL    HW137820   3.468   2.204   4.939 -2.3091 -0.0326  3.1483
12133SOL    HW237821   3.341   2.246   4.868  0.6029  1.5392 -1.5708
12134SOL     OW37822   6.175   2.656   2.209 -0.1245  0.1881  0.4279
12134SOL    HW137823   6.125   2.720   2.160  0.0312 -0.3535 -0.4583
12134SOL    HW237824   6.238   2.621   2.147 -0.6539 -1.3143  0.6812
12135SOL     OW37825   9.163   1.284   2.884 -0.3291 -0.2131  0.3935
12135SOL    HW137826   9.132   1.360   2.933 -0.4084  0.5647 -0.8227
12135SOL    HW237827   9.249   1.311   2.850 -1.3235  0.2675 -1.9645
12136SOL     OW37828   8.736   7.086   6.408 -0.2512  0.5839  0.1143
12136SOL    HW137829   8.703   7.005   6.369 -0.8741 -0.1602  2.0603
12136SOL    HW237830   8.823   7.062   6.440 -0.2583  0.8174  0.3063
12137SOL     OW37831   5.246   5.337   5.442  0.1634  0.2723 -0.2319
12137SOL    HW137832   5.271   5.426   5.466  0.4686  0.5348 -1.4731
12137SOL    HW237833   5.184   5.347   5.371 -0.9146 -0.4901  0.5643
12138SOL     OW37834   2.743   3.344   0.021 -0.5724  0.3163  0.4373
12138SOL    HW137835   2.820   3.393   0.047  1.7929 -2.6532 -0.4145
12138SOL    HW237836   2.721   3.378  -0.066 -0.5641  1.4947  0.8733
12139SOL     OW37837   6.943   6.120   1.545  0.1774  0.0767  0.5842
12139SOL    HW137838   6.935   6.215   1.554  2.5171  0.5073 -0.9781
12139SOL    HW237839   6.866   6.093   1.495  0.7978  1.5955 -1.2912
12140SOL     OW37840   5.454   2.809   4.748 -0.0294 -0.1824  0.0141
12140SOL    HW137841   5.508   2.733   4.771  0.3666  0.5254  1.5212
12140SOL    HW237842   5.365   2.775   4.745  0.3216 -1.0722 -1.1265
12141SOL     OW37843   4.222   6.682   2.413  0.0515  0.1431 -0.0473
12141SOL    HW137844   4.245   6.766   2.454  0.1951  0.8351 -1.4529
12141SOL    HW237845   4.205   6.623   2.486 -0.6650  1.5700  0.9886
12142SOL     OW37846   3.067   3.739   6.934 -0.5816  0.1070  0.1344
12142SOL    HW137847   3.016   3.702   6.861  1.0735 -3.2871  0.4634
12142SOL    HW237848   3.030   3.697   7.012 -0.0106  0.9138  0.8560
12143SOL     OW37849   5.450   8.607   0.754 -0.5618 -0.6236  0.6828
12143SOL    HW137850   5.384   8.616   0.685  1.7581 -0.1861 -1.6478
12143SOL    HW237851   5.458   8.694   0.792 -0.1153 -0.2283 -0.2748
12144SOL     OW37852   6.168   6.429   3.063  0.1279 -0.3319  0.2607
12144SOL    HW137853   6.131   6.341   3.069 -1.2269  0.2845  1.8351
12144SOL    HW237854   6.121   6.471   2.991 -0.9124 -0.1848  0.9987
12145SOL     OW37855   1.950   8.733   4.822 -0.3312  0.5567  0.7365
12145SOL    HW137856   1.908   8.667   4.877 -0.5166 -1.1274 -1.3331
12145SOL    HW237857   1.882   8.760   4.760  0.0272  2.0308  0.9388
12146SOL     OW37858   6.314   4.692   8.481  0.2780 -0.2737 -0.2281
12146SOL    HW137859   6.262   4.769   8.456  1.3334  0.1222 -1.3095
12146SOL    HW237860   6.301   4.684   8.575  1.4349  2.2398  0.2215
12147SOL     OW37861   0.470   4.065   6.800 -0.3281 -0.0522 -0.2809
12147SOL    HW137862   0.535   4.019   6.854 -1.0097 -0.1718  0.4664
12147SOL    HW237863   0.503   4.154   6.792 -0.0315 -0.1315  0.0364
12148SOL     OW37864   1.472   6.587   4.182 -0.1270 -0.1005  0.6501
12148SOL    HW137865   1.426   6.598   4.266 -2.1601 -0.6777 -0.3102
12148SOL    HW237866   1.466   6.493   4.164  1.1958 -0.1349  0.3234
12149SOL     OW37867   5.617   2.280   5.764  0.4855  0.2695 -0.5119
12149SOL    HW137868   5.633   2.332   5.685  2.3562  0.2356 -0.1922
12149SOL    HW237869   5.606   2.345   5.833  1.0351  0.2634 -0.4199
12150SOL     OW37870   4.444   1.010   8.279 -0.1523 -0.2203  0.1145
12150SOL    HW137871   4.494   1.068   8.222 -0.1623 -0.9938 -0.7202
12150SOL    HW237872   4.505   0.983   8.347 -0.0517  0.4954  0.3106
12151SOL     OW37873   5.924   3.752   7.740  0.3430 -0.1791 -0.1178
12151SOL    HW137874   5.922   3.798   7.656  1.9561  1.0498  0.4592
12151SOL    HW237875   6.016   3.751   7.764  0.3170 -3.3079  0.1973
12152SOL     OW37876   2.907   3.501   0.588 -0.0138 -0.1031  0.2691
12152SOL    HW137877   2.992   3.546   0.581  0.0077 -0.3487 -1.8235
12152SOL    HW237878   2.929   3.410   0.608  0.1637 -0.0146  0.4843
12153SOL     OW37879   0.514   5.777   8.614 -0.3850  0.2885  0.5558
12153SOL    HW137880   0.516   5.683   8.599  0.2394  0.3024  0.5334
12153SOL    HW237881   0.427   5.805   8.585 -0.7233 -0.3406  0.9476
12154SOL     OW37882   8.278   5.764   0.962  0.6067  0.1755 -0.1146
12154SOL    HW137883   8.193   5.793   0.995  1.7599  2.4537  1.0531
12154SOL    HW237884   8.333   5.842   0.963  2.8958 -1.3314 -0.2989
12155SOL     OW37885   1.231   5.043   2.972  0.0137  0.0022 -0.5923
12155SOL    HW137886   1.316   5.085   2.963 -0.0140  0.1914  0.0282
12155SOL    HW237887   1.200   5.032   2.882 -0.7439  2.8591 -0.7716
12156SOL     OW37888   7.924   6.260   1.442  0.7707  0.0160 -0.4608
12156SOL    HW137889   7.887   6.339   1.481  4.1021  1.8799 -0.7286
12156SOL    HW237890   7.940   6.202   1.515 -0.6697  0.0089 -0.1233
12157SOL     OW37891   5.365   8.772   7.025  0.2078 -0.2093  0.0550
12157SOL    HW137892   5.434   8.820   6.980 -0.1432  0.6684  0.4303
12157SOL    HW237893   5.353   8.818   7.108  0.8258 -1.7736  1.0729
12158SOL     OW37894   4.621   4.229   7.651  0.3451 -0.2220  0.5036
12158SOL    HW137895   4.567   4.213   7.574 -1.2010  0.3074  1.4440
12158SOL    HW237896   4.590   4.166   7.716 -0.0782  0.9744  1.4929
12159SOL     OW37897   8.537   7.017   4.405  1.2966 -0.1091 -0.4244
12159SOL    HW137898   8.575   6.981   4.485 -0.3259 -1.3472 -0.1475
12159SOL    HW237899   8.598   7.085   4.378  1.8783  0.3874  1.8864
12160SOL     OW37900   8.084   5.981   3.097  0.5757 -0.3238 -0.1597
12160SOL    HW137901   8.148   5.960   3.029 -0.3392 -1.0746 -0.8110
12160SOL    HW237902   8.007   5.927   3.075 -0.3101  0.6241  0.5489
12161SOL     OW37903   9.047   0.583   3.619 -0.6374  0.5934 -0.2043
12161SOL    HW137904   9.139   0.583   3.593 -0.5219  0.2779  0.1888
12161SOL    HW237905   9.017   0.673   3.605 -0.6886  0.3528 -1.7912
12162SOL     OW37906   0.700   5.198   4.603  0.3842 -0.1584 -1.0686
12162SOL    HW137907   0.719   5.180   4.511  1.8113  0.3067 -0.8992
12162SOL    HW237908   0.768   5.151   4.651 -0.5782 -0.7230 -0.2085
12163SOL     OW37909   4.004   4.450   8.142 -0.0555 -0.7255 -0.5455
12163SOL    HW137910   3.962   4.508   8.079 -0.7477 -1.1885 -0.5305
12163SOL    HW237911   3.951   4.370   8.139  0.7278 -1.2581 -0.3845
12164SOL     OW37912   1.281   4.230   8.565 -0.4300  0.1435 -0.1129
12164SOL    HW137913   1.301   4.242   8.658 -1.4541 -0.4632  0.2140
12164SOL    HW237914   1.188   4.253   8.558 -0.3191  0.3404 -1.0227
12165SOL     OW37915   0.414   2.895   1.057 -0.3773  0.4055  0.3338
12165SOL    HW137916   0.495   2.867   1.014  0.5249  1.1011  1.5129
12165SOL    HW237917   0.399   2.829   1.125  0.1361  1.1408  1.1907
12166SOL     OW37918   7.829   9.084   7.424  0.0007  0.4686  0.4764
12166SOL    HW137919   7.750   9.088   7.478 -0.3572 -2.5412  0.3879
12166SOL    HW237920   7.798   9.086   7.334 -0.0281 -0.6922  0.4413
12167SOL     OW37921   5.086   1.606   2.186  0.0053  0.1527  0.2950
12167SOL    HW137922   5.032   1.527   2.182  0.8325 -0.4038 -0.2885
12167SOL    HW237923   5.151   1.587   2.253 -0.0981  0.5498  0.5120
12168SOL     OW37924   5.925   6.673   7.063  0.1786  0.4909 -0.0201
12168SOL    HW137925   5.992   6.740   7.079  0.7284 -0.5033  2.3219
12168SOL    HW237926   5.970   6.608   7.009  0.8544  0.2500  0.8044
12169SOL     OW37927   2.076   0.058   8.280 -0.2491  0.1757  0.1184
12169SOL    HW137928   2.159   0.070   8.327  0.2666  1.6900 -1.0953
12169SOL    HW237929   2.008   0.070   8.346  0.4597 -1.1654  1.1507
12170SOL     OW37930   1.103   1.705   8.274  0.3125 -0.0764 -0.3180
12170SOL    HW137931   1.080   1.673   8.361 -1.7754  1.2373 -0.3068
12170SOL    HW237932   1.115   1.799   8.285  0.8150 -0.0084 -1.3066
12171SOL     OW37933   3.396   9.276   1.371  0.1412 -0.0396  0.1883
12171SOL    HW137934   3.405   9.365   1.405 -1.5710  0.4110 -0.4188
12171SOL    HW237935   3.484   9.251   1.345  0.9635  0.7421  2.1154
12172SOL     OW37936   7.114   2.478   0.009 -0.3451 -0.1956 -0.4290
12172SOL    HW137937   7.107   2.548   0.075  0.4769  0.5764 -1.1180
12172SOL    HW237938   7.064   2.406   0.045  1.5824 -0.4930  1.9593
12173SOL     OW37939   3.659   4.168   4.677 -0.0973  0.1250 -0.1968
12173SOL    HW137940   3.727   4.205   4.733  1.5973 -1.9561 -0.7406
12173SOL    HW237941   3.703   4.151   4.594 -2.5230  3.1195 -2.3124
12174SOL     OW37942   5.739   0.966   4.650  1.1761  0.6167 -0.0674
12174SOL    HW137943   5.758   1.059   4.643 -0.5117  0.9281 -1.3782
12174SOL    HW237944   5.766   0.930   4.566  2.5555 -0.2489  0.7269
12175SOL     OW37945   4.289   8.003   1.121 -0.3138 -0.4003 -0.0875
12175SOL    HW137946   4.250   7.924   1.083 -0.7801 -0.6821  0.9499
12175SOL    HW237947   4.227   8.031   1.188  0.1245  0.5271 -0.0531
12176SOL     OW37948   4.052   5.784   1.880  0.5360 -0.2434 -0.4627
12176SOL    HW137949   4.080   5.848   1.815 -0.5555  0.1921 -0.5373
12176SOL    HW237950   4.115   5.713   1.874  0.7529  0.0343 -1.6178
12177SOL     OW37951   5.423   0.028   8.594 -0.0982  0.3377 -0.1944
12177SOL    HW137952   5.370   0.105   8.615  0.6503  0.4528  1.3795
12177SOL    HW237953   5.382  -0.044   8.642  0.3609  0.1473 -0.0782
12178SOL     OW37954   5.832   7.866   7.125 -0.1725  0.3613  0.4060
12178SOL    HW137955   5.837   7.786   7.072 -1.8034  0.1738  0.4623
12178SOL    HW237956   5.817   7.936   7.061 -1.2398  0.2547  0.5121
12179SOL     OW37957   1.408   4.602   5.623  0.0704 -0.0930  0.3323
12179SOL    HW137958   1.465   4.561   5.558  1.3202 -0.1191  1.4197
12179SOL    HW237959   1.374   4.680   5.579  0.1977 -0.5662 -0.6379
12180SOL     OW37960   7.583   6.874   9.133  0.2892  0.3332  0.5489
12180SOL    HW137961   7.606   6.846   9.222  0.4618 -0.5146  0.2561
12180SOL    HW237962   7.556   6.793   9.090 -0.1024  0.7938 -0.0758
12181SOL     OW37963   2.399   2.901   1.966 -0.1664 -0.0876 -0.3827
12181SOL    HW137964   2.480   2.881   2.014  0.4211  1.1770 -0.8040
12181SOL    HW237965   2.425   2.965   1.900 -1.3326 -0.3993 -1.1805
12182SOL     OW37966   5.497   2.336   2.790  0.1338  0.1693  0.5569
12182SOL    HW137967   5.489   2.253   2.837  0.5072  0.7440  1.6671
12182SOL    HW237968   5.451   2.400   2.845 -0.7400  0.5935 -0.6133
12183SOL     OW37969   4.762   9.221   5.760 -0.4709  0.3006  0.2356
12183SOL    HW137970   4.717   9.137   5.772 -0.7840  0.2901 -0.9375
12183SOL    HW237971   4.699   9.276   5.714 -0.0041  0.9504  0.3608
12184SOL     OW37972   8.354   8.048   7.453  0.0058  0.7422  0.1877
12184SOL    HW137973   8.445   8.075   7.469  0.0858 -0.6511  2.4363
12184SOL    HW237974   8.336   7.982   7.520 -2.1409 -0.2810 -1.2860
12185SOL     OW37975   9.200   8.284   2.261  0.1090 -0.3468 -0.0414
12185SOL    HW137976   9.245   8.257   2.181  1.6245  0.6497  0.4373
12185SOL    HW237977   9.144   8.356   2.234 -0.0994 -0.6261 -0.3657
12186SOL     OW37978   6.890   5.926   2.902 -0.7017 -0.5533 -0.2086
12186SOL    HW137979   6.955   5.931   2.972 -2.5527  0.9608  1.5345
12186SOL    HW237980   6.819   5.983   2.931 -2.4018 -1.3530 -2.4687
12187SOL     OW37981   8.132   3.510   8.935 -0.2063  0.6150 -0.4487
12187SOL    HW137982   8.051   3.551   8.906  0.1580  1.0580 -0.8633
12187SOL    HW237983   8.115   3.416   8.928 -0.5273  0.7085 -0.9831
12188SOL     OW37984   1.543   6.626   6.593  0.3060  0.2628 -0.1113
12188SOL    HW137985   1.629   6.613   6.553  0.9737  0.4615  1.2048
12188SOL    HW237986   1.510   6.707   6.555  1.6258  1.3076  0.8808
12189SOL     OW37987   6.745   8.067   7.173  0.9787  0.7428 -0.0491
12189SOL    HW137988   6.686   8.035   7.105  4.2160 -0.9267 -2.3389
12189SOL    HW237989   6.702   8.043   7.255 -0.9250 -1.5475 -1.5772
12190SOL     OW37990   1.040   4.956   6.196  0.4643  0.0431  0.4517
12190SOL    HW137991   1.074   4.867   6.206  0.7848  0.1841  0.6479
12190SOL    HW237992   1.037   4.970   6.102 -0.9535 -0.6903  0.3580
12191SOL     OW37993   1.853   6.089   1.049 -0.0358 -0.3619  0.3729
12191SOL    HW137994   1.948   6.088   1.038 -0.0528 -0.8310  0.2682
12191SOL    HW237995   1.819   6.126   0.968 -0.0844 -2.5673 -0.6711
12192SOL     OW37996   4.825   8.125   4.954 -0.2920 -0.2820 -0.4302
12192SOL    HW137997   4.740   8.169   4.957 -1.0416 -1.7403  1.0653
12192SOL    HW237998   4.885   8.185   4.998 -0.8155  0.2152 -0.3882
12193SOL     OW37999   4.655   6.271   2.739  0.0079 -0.0883  0.2690
12193SOL    HW138000   4.688   6.183   2.758 -0.0680 -0.1858 -0.0595
12193SOL    HW238001   4.657   6.278   2.644  0.3517  0.3961  0.3085
12194SOL     OW38002   8.502   1.319   1.809  0.1782 -0.2046  0.0448
12194SOL    HW138003   8.481   1.408   1.784  0.2391 -0.4852 -1.0207
12194SOL    HW238004   8.494   1.319   1.905  3.3055  1.7805  0.4528
12195SOL     OW38005   0.910   4.017   6.304 -0.3980 -0.0867 -0.2617
12195SOL    HW138006   0.962   4.097   6.297  0.2048 -0.5245 -0.9915
12195SOL    HW238007   0.840   4.039   6.366 -0.6622  1.2332 -0.9823
12196SOL     OW38008   6.781   6.084   0.856 -0.0365  0.1670  0.0003
12196SOL    HW138009   6.710   6.147   0.858  0.7340  1.0519  0.4391
12196SOL    HW238010   6.738   5.999   0.863 -0.9670  0.7557  2.5533
12197SOL     OW38011   9.061   0.334   1.854 -0.3005  0.1130  0.3117
12197SOL    HW138012   9.100   0.263   1.802 -2.0756 -0.9992  0.4347
12197SOL    HW238013   9.007   0.382   1.792  1.1840  1.6790  0.1365
12198SOL     OW38014   5.652   7.406   5.105  0.0438 -0.5859  0.1182
12198SOL    HW138015   5.678   7.403   5.013  0.7815 -1.1660  0.3351
12198SOL    HW238016   5.605   7.489   5.114  0.6373 -0.1572 -0.6073
12199SOL     OW38017   6.921   3.573   3.098  0.1425 -0.3815  0.2009
12199SOL    HW138018   6.854   3.578   3.166 -1.8361 -0.1510 -1.6849
12199SOL    HW238019   6.984   3.641   3.122 -0.8091  0.1054  1.4498
12200SOL     OW38020   5.423   0.029   4.926 -0.2728 -0.3846 -0.1095
12200SOL    HW138021   5.385  -0.047   4.883 -2.5547  1.5102 -1.7443
12200SOL    HW238022   5.485   0.064   4.861  0.0063 -0.2710  0.2150
12201SOL     OW38023   7.812   0.276   5.363 -0.2794 -0.6319 -0.1584
12201SOL    HW138024   7.854   0.233   5.438 -0.6539 -1.1144 -0.2210
12201SOL    HW238025   7.720   0.280   5.386 -0.1953  0.5299  0.0224
12202SOL     OW38026   7.276   5.107   1.806  0.2884 -0.1016 -0.0988
12202SOL    HW138027   7.212   5.090   1.875 -0.4485 -1.7374 -1.1255
12202SOL    HW238028   7.361   5.101   1.850 -0.1895  1.6101  1.1882
12203SOL     OW38029   2.056   5.535   8.371  0.6486 -0.5000 -0.0722
12203SOL    HW138030   2.022   5.622   8.389 -1.9010 -1.6886  1.4038
12203SOL    HW238031   2.083   5.501   8.457 -0.4988 -1.9490 -0.2464
12204SOL     OW38032   2.225   7.318   1.543 -0.3074  0.1908 -0.3424
12204SOL    HW138033   2.268   7.233   1.544 -2.4440 -0.9588 -0.4819
12204SOL    HW238034   2.275   7.369   1.479  1.3730 -0.7210  0.1858
12205SOL     OW38035   3.930   2.450   1.599 -0.1779  0.2789 -0.2710
12205SOL    HW138036   3.943   2.514   1.669  1.6413 -0.3083 -0.0115
12205SOL    HW238037   3.890   2.375   1.642  1.1372 -0.1652  0.2201
12206SOL     OW38038   4.860   2.163   0.704 -0.2403 -0.3609  0.0164
12206SOL    HW138039   4.799   2.123   0.767  0.0808  0.3310  0.7847
12206SOL    HW238040   4.947   2.143   0.740 -0.0687  2.5958  1.4767
12207SOL     OW38041   6.403   0.552   6.721 -0.1979 -0.3275 -0.3477
12207SOL    HW138042   6.388   0.467   6.680  1.1042  0.2598 -2.1737
12207SOL    HW238043   6.355   0.548   6.804 -2.3417 -1.8597 -1.5741
12208SOL     OW38044   4.080   0.193   5.271 -0.0524  0.0149  0.4417
12208SOL    HW138045   3.985   0.189   5.283  0.0892  0.9777  2.3043
12208SOL    HW238046   4.115   0.149   5.349  1.0254  1.2078  0.6562
12209SOL     OW38047   3.717   6.608   9.055 -0.3719 -0.3414  0.3316
12209SOL    HW138048   3.799   6.558   9.060 -0.2671 -0.1600  0.4437
12209SOL    HW238049   3.648   6.542   9.051 -0.1411 -0.5290 -1.2966
12210SOL     OW38050   0.578   3.377   6.992 -0.0340  0.2776 -0.0219
12210SOL    HW138051   0.658   3.429   7.004  0.1781 -0.0813  0.1412
12210SOL    HW238052   0.590   3.303   7.051 -0.0735 -0.2607 -0.6850
12211SOL     OW38053   2.336   6.024   4.456 -0.2436 -0.0827  0.0948
12211SOL    HW138054   2.326   6.120   4.462 -0.5651 -0.1092 -0.0005
12211SOL    HW238055   2.279   5.999   4.384 -0.1176 -0.3431  0.0863
12212SOL     OW38056   3.638   5.050   3.609  0.0353  0.5739 -0.0230
12212SOL    HW138057   3.596   5.084   3.530 -2.2905  0.4028  1.0634
12212SOL    HW238058   3.565   5.023   3.665  1.5297  2.0153  2.8198
12213SOL     OW38059   9.191   4.557   8.760  0.3592 -0.4476 -0.5585
12213SOL    HW138060   9.199   4.623   8.691 -0.5951  0.7884  0.4570
12213SOL    HW238061   9.163   4.606   8.837  0.6867 -1.8957  0.5358
12214SOL     OW38062   5.972   5.636   1.094 -0.6757 -1.1439 -1.0056
12214SOL    HW138063   6.052   5.589   1.068 -0.4332 -0.2794 -1.8674
12214SOL    HW238064   5.942   5.678   1.014 -0.5161  0.7293 -0.1364
12215SOL     OW38065   0.315   6.130   3.907 -0.1071 -0.0087 -0.2724
12215SOL    HW138066   0.389   6.173   3.949 -1.5811  1.2145  1.2038
12215SOL    HW238067   0.330   6.141   3.814  1.8402 -0.3263 -0.0418
12216SOL     OW38068   1.748   4.727   4.357  0.0543  0.6279 -0.2075
12216SOL    HW138069   1.654   4.709   4.356  0.4826 -2.0232 -0.5793
12216SOL    HW238070   1.775   4.708   4.447  0.4572 -0.1935 -0.4909
12217SOL     OW38071   5.720   8.464   4.158  0.0553 -0.3083 -0.2363
12217SOL    HW138072   5.733   8.541   4.214  0.4994 -0.7488  0.2759
12217SOL    HW238073   5.659   8.494   4.091 -0.0582  0.3892  0.1638
12218SOL     OW38074   2.517   7.110   1.037  0.2057 -0.3955  0.0192
12218SOL    HW138075   2.446   7.160   0.996 -0.4207  1.2399  2.8435
12218SOL    HW238076   2.551   7.168   1.106  1.9972 -2.4614  0.9976
12219SOL     OW38077   1.997   1.843   7.812 -0.2053 -0.4722  0.6531
12219SOL    HW138078   1.906   1.871   7.817  0.2378  1.0708  0.4092
12219SOL    HW238079   1.995   1.751   7.840 -1.8234 -0.4679  0.6415
12220SOL     OW38080   1.375   8.931   2.703  0.1587  0.8294 -0.3510
12220SOL    HW138081   1.304   8.959   2.645  0.0663  0.7497 -0.2766
12220SOL    HW238082   1.379   8.836   2.692 -0.4715  0.6957  0.4618
12221SOL     OW38083   1.205   7.218   3.392  0.0691 -0.0826  0.0992
12221SOL    HW138084   1.135   7.152   3.397  0.1027 -0.0300  3.6618
12221SOL    HW238085   1.158   7.302   3.397  0.2049 -0.0380  4.7020
12222SOL     OW38086   8.305   3.992   8.260 -0.3238 -0.2806  0.3196
12222SOL    HW138087   8.221   3.945   8.257 -1.6789  2.0182 -0.3448
12222SOL    HW238088   8.314   4.019   8.352 -0.0371 -0.9653  0.4973
12223SOL     OW38089   2.423   8.343   6.322 -0.4988  0.1217 -0.1969
12223SOL    HW138090   2.513   8.322   6.297 -0.7709 -0.1967 -0.9198
12223SOL    HW238091   2.390   8.397   6.251 -0.5798  1.0542  0.5205
12224SOL     OW38092   0.085   8.275   4.264 -0.3299  0.4905 -0.8625
12224SOL    HW138093   0.064   8.192   4.308  1.4728  0.5667  0.2103
12224SOL    HW238094   0.069   8.257   4.172 -4.0839  0.2759 -0.3586
12225SOL     OW38095   8.669   4.755   6.250  0.0664 -0.0276 -0.2034
12225SOL    HW138096   8.753   4.743   6.207  0.9014  0.1449  1.3065
12225SOL    HW238097   8.627   4.669   6.245  0.1694 -0.0209 -1.2755
12226SOL     OW38098   7.441   1.602   1.111  0.0998  0.3147  0.2712
12226SOL    HW138099   7.357   1.579   1.151 -1.5445  1.5984 -2.2135
12226SOL    HW238100   7.467   1.523   1.063 -0.8388  0.6032 -0.7438
12227SOL     OW38101   2.369   2.756   4.097 -0.2877  0.4075  0.7466
12227SOL    HW138102   2.332   2.698   4.030 -1.1118  2.4038 -0.6490
12227SOL    HW238103   2.439   2.706   4.137  0.0169 -1.0047 -1.4190
12228SOL     OW38104   0.174   2.191   7.594  0.3176  0.5450  0.3561
12228SOL    HW138105   0.130   2.178   7.510  1.3872 -0.8239 -0.0161
12228SOL    HW238106   0.144   2.119   7.649  0.0222  1.1407  0.9898
12229SOL     OW38107   4.866   5.107   1.238 -0.3611 -0.9025 -0.3192
12229SOL    HW138108   4.908   5.054   1.306  0.5082 -1.1594 -1.0318
12229SOL    HW238109   4.929   5.108   1.166 -1.3242 -0.7744 -1.1905
12230SOL     OW38110   1.837   2.917   5.409 -0.5014  0.4490  0.0477
12230SOL    HW138111   1.742   2.928   5.422 -0.4938  0.1082  0.4181
12230SOL    HW238112   1.846   2.882   5.321 -0.6995  0.7864 -0.1103
12231SOL     OW38113   4.187   2.329   2.585  0.4118 -0.2158  0.1171
12231SOL    HW138114   4.260   2.348   2.643  1.1164 -0.4280 -0.6797
12231SOL    HW238115   4.159   2.241   2.610  1.1895 -0.6005 -0.3467
12232SOL     OW38116   1.338   6.458   6.439 -0.3306 -0.0294 -0.0386
12232SOL    HW138117   1.367   6.371   6.414  0.3271  0.4489 -0.9882
12232SOL    HW238118   1.414   6.514   6.426 -1.0956  0.9021 -0.6622
12233SOL     OW38119   8.014   3.542   6.316  0.2871 -0.1386  0.0308
12233SOL    HW138120   7.974   3.584   6.240  1.7760 -0.6528 -1.0797
12233SOL    HW238121   8.071   3.608   6.353 -0.1601 -0.0091  0.5100
12234SOL     OW38122   2.001   9.272   0.142  0.2857 -0.3005 -0.2742
12234SOL    HW138123   2.041   9.345   0.095 -0.2895  0.7373  0.7541
12234SOL    HW238124   1.997   9.303   0.233 -2.4668 -0.4708 -0.2621
12235SOL     OW38125   0.495   3.034   4.271 -0.5625  0.1299  0.4124
12235SOL    HW138126   0.442   2.955   4.279  1.2576 -1.1421  0.4338
12235SOL    HW238127   0.542   3.024   4.189 -1.8893  2.2607 -0.6967
12236SOL     OW38128   3.935   6.350   2.266  0.3288  0.0822  0.1823
12236SOL    HW138129   3.854   6.300   2.281  0.7276 -0.0830  2.0287
12236SOL    HW238130   3.929   6.423   2.327  0.8279  1.0109 -0.8590
12237SOL     OW38131   6.138   8.071   4.045 -0.2384 -0.1421  0.1236
12237SOL    HW138132   6.223   8.108   4.070 -0.4125  0.3730 -0.0191
12237SOL    HW238133   6.159   8.001   3.984  0.0278  1.3647 -1.6292
12238SOL     OW38134   6.846   2.927   7.248  0.0480  0.5390  0.1026
12238SOL    HW138135   6.760   2.889   7.229  1.2705 -1.1028 -2.7257
12238SOL    HW238136   6.828   3.020   7.263 -2.2560  0.1421  0.2433
12239SOL     OW38137   2.758   8.643   5.331 -0.5475 -0.0948  0.4275
12239SOL    HW138138   2.825   8.623   5.397 -0.2548 -0.0154  0.1566
12239SOL    HW238139   2.791   8.722   5.287  0.3599 -1.3742 -1.2928
12240SOL     OW38140   2.713   4.360   5.452  0.3535 -0.3589 -0.0090
12240SOL    HW138141   2.795   4.377   5.498  1.0431 -2.3181 -0.4616
12240SOL    HW238142   2.738   4.316   5.372 -1.0680  0.2635 -0.8387
12241SOL     OW38143   2.958   1.183   8.602  0.0362 -0.0117 -0.2682
12241SOL    HW138144   2.997   1.099   8.577 -1.3688 -1.4593  2.0054
12241SOL    HW238145   3.023   1.223   8.659  0.7259  0.5141 -1.3852
12242SOL     OW38146   2.175   6.787   5.738 -0.3670 -0.0005 -0.4594
12242SOL    HW138147   2.139   6.791   5.826 -0.7172 -1.0767 -0.5455
12242SOL    HW238148   2.106   6.748   5.685 -0.1155  0.5187 -1.1945
12243SOL     OW38149   3.509   6.198   6.026 -0.0968  0.1137 -0.2913
12243SOL    HW138150   3.424   6.161   6.050 -0.1893 -1.0665 -2.1807
12243SOL    HW238151   3.491   6.291   6.011 -0.9882 -0.0509 -0.3324
12244SOL     OW38152   8.989   0.531   0.481 -0.0605  0.5925  0.1196
12244SOL    HW138153   9.003   0.596   0.412  0.6171 -0.5000 -0.7956
12244SOL    HW238154   8.933   0.465   0.442  0.9482 -0.4279  0.3454
12245SOL     OW38155   3.322   3.372   9.060  0.3776 -1.1246 -0.0392
12245SOL    HW138156   3.262   3.316   9.110  0.0134 -1.6294 -1.0121
12245SOL    HW238157   3.401   3.376   9.113 -0.4848 -0.4773  1.2583
12246SOL     OW38158   5.449   4.427   7.056  0.1622  0.0689  0.5185
12246SOL    HW138159   5.404   4.410   7.139  0.9286  0.1638  0.9653
12246SOL    HW238160   5.403   4.502   7.019 -1.2605 -0.9966  0.0308
12247SOL     OW38161   3.383   8.125   3.945  0.1306 -0.3321  0.1070
12247SOL    HW138162   3.389   8.205   3.893  1.1548 -0.5358 -0.1099
12247SOL    HW238163   3.333   8.065   3.890 -0.6488  0.1563  0.2725
12248SOL     OW38164   4.450   1.838   2.161 -0.0587  0.0123 -0.1209
12248SOL    HW138165   4.395   1.881   2.227  2.2659  1.7971  0.8149
12248SOL    HW238166   4.533   1.823   2.206  1.2288  0.2266 -2.2926
12249SOL     OW38167   4.170   4.231   8.412  0.2900  0.2429  0.1879
12249SOL    HW138168   4.082   4.268   8.414 -0.5342 -1.2958 -2.3581
12249SOL    HW238169   4.156   4.136   8.405  2.1489 -0.0811  0.1938
12250SOL     OW38170   9.089   2.029   4.273 -0.0214 -0.2810  0.2421
12250SOL    HW138171   9.042   2.105   4.239  1.8384  1.1572  0.7025
12250SOL    HW238172   9.084   2.039   4.369 -1.5762 -1.9688  0.4013
12251SOL     OW38173   2.370   2.983   5.437  0.5499 -0.4212  0.3791
12251SOL    HW138174   2.339   3.054   5.382 -0.6886  0.1871  1.7895
12251SOL    HW238175   2.384   3.023   5.523 -0.7592 -1.9504  1.3646
12252SOL     OW38176   4.367   3.728   3.479  0.5234 -0.6619 -0.0504
12252SOL    HW138177   4.428   3.712   3.406  2.2781  2.0571  0.6416
12252SOL    HW238178   4.293   3.773   3.439  0.2205 -1.5469 -0.5080
12253SOL     OW38179   2.963   8.097   4.456 -0.0200 -0.2184  0.4482
12253SOL    HW138180   3.009   8.014   4.462  1.5068  0.6701  2.3180
12253SOL    HW238181   2.901   8.086   4.384  1.1820 -2.4337 -0.3260
12254SOL     OW38182   2.065   5.470   6.156  0.1295  0.3411  0.3102
12254SOL    HW138183   2.127   5.397   6.147  0.6391  0.8486 -0.3676
12254SOL    HW238184   2.034   5.464   6.246  1.8123  0.5880  0.9326
12255SOL     OW38185   2.300   3.529   7.111 -0.0105 -0.0804 -0.3973
12255SOL    HW138186   2.350   3.603   7.147 -0.6560  0.5462 -0.7659
12255SOL    HW238187   2.367   3.463   7.092  0.2779 -1.3834  3.9329
12256SOL     OW38188   1.852   7.609   4.154 -0.8437  0.3465 -0.0852
12256SOL    HW138189   1.846   7.516   4.176 -2.7354  0.8146  1.6228
12256SOL    HW238190   1.767   7.630   4.115 -1.1202  1.7246  1.1706
12257SOL     OW38191   1.749   0.502   1.547 -0.6243  0.1111  0.6676
12257SOL    HW138192   1.670   0.555   1.537 -1.7297 -1.5656  0.1389
12257SOL    HW238193   1.722   0.413   1.524  0.7746 -1.0121  2.9169
12258SOL     OW38194   6.143   0.548   7.453 -0.1498  0.1892 -0.0128
12258SOL    HW138195   6.162   0.475   7.512  0.1139 -0.2252 -0.6011
12258SOL    HW238196   6.074   0.597   7.497 -1.1685 -1.0715 -0.1425
12259SOL     OW38197   1.449   8.237   0.347 -0.0613 -0.8025  0.3120
12259SOL    HW138198   1.363   8.209   0.315  0.0989 -1.2797  0.2984
12259SOL    HW238199   1.498   8.259   0.268 -0.0330 -0.9238  0.2961
12260SOL     OW38200   5.249   9.123   4.806 -0.1630 -0.1389 -0.2419
12260SOL    HW138201   5.260   9.093   4.716  1.3573  0.3109 -0.2221
12260SOL    HW238202   5.190   9.058   4.846 -1.7112  0.2254 -1.8162
12261SOL     OW38203   6.377   4.061   1.348  0.2209 -0.4807  0.1237
12261SOL    HW138204   6.340   4.064   1.260  3.0305 -0.8094 -1.1738
12261SOL    HW238205   6.350   3.975   1.382  1.6509 -1.7296 -1.7019
12262SOL     OW38206   2.054   0.199   7.348  0.5176  0.1495  0.3212
12262SOL    HW138207   2.002   0.274   7.376  0.7327 -0.3780  2.2584
12262SOL    HW238208   2.106   0.233   7.275 -0.7379  1.3442 -0.0635
12263SOL     OW38209   8.025   8.582   5.778  0.3801 -0.4583  0.1191
12263SOL    HW138210   8.066   8.567   5.693 -0.8291  3.2979 -1.3115
12263SOL    HW238211   8.095   8.568   5.841  1.6300 -2.1344 -1.5287
12264SOL     OW38212   8.489   2.249   3.980  0.0286  0.1919  0.2910
12264SOL    HW138213   8.518   2.312   3.914  1.7467  0.4135  1.2028
12264SOL    HW238214   8.558   2.249   4.046 -0.3125 -2.0554  0.7466
12265SOL     OW38215   1.530   5.613   1.646  0.4375 -0.1964 -0.4614
12265SOL    HW138216   1.574   5.537   1.684 -0.3173  0.0452  0.9648
12265SOL    HW238217   1.560   5.687   1.699  0.6542  0.4338 -1.4203
12266SOL     OW38218   8.672   2.222   5.692  0.1803 -0.2023 -0.7888
12266SOL    HW138219   8.631   2.142   5.724  0.3213 -1.1456 -2.7695
12266SOL    HW238220   8.759   2.194   5.664  0.9692  1.0794  0.2852
12267SOL     OW38221   0.045   5.355   5.613  0.3714  0.7264 -0.2500
12267SOL    HW138222   0.025   5.400   5.695 -0.0141  0.9803 -0.4775
12267SOL    HW238223  -0.035   5.304   5.594  0.1859  1.2227 -0.8268
12268SOL     OW38224   5.821   4.587   0.805  0.2563  0.2651  0.6797
12268SOL    HW138225   5.817   4.629   0.890 -2.1161  2.0310 -0.1909
12268SOL    HW238226   5.853   4.499   0.823  0.5656  0.8405  3.2663
12269SOL     OW38227   3.551   2.736   4.244 -0.1782 -0.4271  0.3310
12269SOL    HW138228   3.501   2.655   4.259 -2.2624  0.7071 -0.1450
12269SOL    HW238229   3.593   2.722   4.159  1.9176 -2.1207  1.5411
12270SOL     OW38230   6.202   2.232   0.596 -0.1356 -0.1970 -0.0680
12270SOL    HW138231   6.196   2.138   0.576 -1.9095 -0.1935  0.2716
12270SOL    HW238232   6.133   2.272   0.543 -1.2146  0.5273  1.7921
12271SOL     OW38233   0.107   7.940   3.278  0.5959  0.1087  0.5279
12271SOL    HW138234   0.034   7.902   3.327 -0.3438  1.4323  0.2020
12271SOL    HW238235   0.120   7.880   3.204  1.4187 -1.3975  1.8363
12272SOL     OW38236   3.497   1.762   2.532  0.0352  0.4631  0.2965
12272SOL    HW138237   3.446   1.804   2.462 -1.1030  0.3739  1.0537
12272SOL    HW238238   3.446   1.777   2.611  1.1479  0.2774  1.0696
12273SOL     OW38239   8.773   0.479   2.628 -0.0897 -0.2203 -0.1487
12273SOL    HW138240   8.830   0.429   2.687 -2.3523 -2.5882  0.1709
12273SOL    HW238241   8.798   0.450   2.540 -0.5251 -0.9676 -0.0305
12274SOL     OW38242   8.373   4.866   9.191 -0.1928 -0.1825 -0.2123
12274SOL    HW138243   8.433   4.905   9.128  0.0550 -0.1590  0.0370
12274SOL    HW238244   8.338   4.941   9.241 -0.8306 -0.1432 -0.6981
12275SOL     OW38245   8.407   9.146   4.990 -0.3930 -0.1789 -0.3973
12275SOL    HW138246   8.478   9.174   5.047 -0.8961 -0.7230  0.5188
12275SOL    HW238247   8.385   9.224   4.938 -0.6111  0.6268  0.8686
12276SOL     OW38248   2.885   3.651   6.746  0.0048 -0.0824  0.3804
12276SOL    HW138249   2.819   3.655   6.816 -0.0540  4.0811  0.3374
12276SOL    HW238250   2.835   3.658   6.665  0.3238  0.7848  0.2431
12277SOL     OW38251   1.150   5.514   6.507 -0.4707  0.6077  0.4761
12277SOL    HW138252   1.239   5.498   6.474 -0.6990  0.2893 -0.0044
12277SOL    HW238253   1.163   5.550   6.594  0.1557  1.3130  0.1076
12278SOL     OW38254   2.852   3.169   4.482 -0.2761 -0.0053  0.1384
12278SOL    HW138255   2.795   3.145   4.555  0.4859  0.7157  0.9884
12278SOL    HW238256   2.837   3.263   4.470 -3.3970 -0.6892 -3.2807
12279SOL     OW38257   8.372   3.937   2.002  0.4964 -0.0756 -0.2765
12279SOL    HW138258   8.330   4.020   2.027  0.7828 -0.7911  2.9673
12279SOL    HW238259   8.460   3.943   2.038  0.5154 -1.7841  0.0217
12280SOL     OW38260   7.738   0.880   3.963 -0.2672 -0.1373  0.1980
12280SOL    HW138261   7.685   0.957   3.945  0.5309  0.2396 -0.6062
12280SOL    HW238262   7.687   0.830   4.027 -1.9428 -0.1749 -1.0838
12281SOL     OW38263   4.960   5.687   7.263 -0.3133 -0.3547  0.5356
12281SOL    HW138264   4.984   5.650   7.178  0.7026  2.1296 -0.3604
12281SOL    HW238265   5.043   5.697   7.309 -0.0929  3.1498 -0.3551
12282SOL     OW38266   7.275   6.248   2.141 -0.0137 -0.2681  0.3433
12282SOL    HW138267   7.186   6.237   2.108 -0.2986  1.1552  0.6048
12282SOL    HW238268   7.264   6.278   2.231  0.7545 -1.3580  0.8269
12283SOL     OW38269   7.307   7.959   6.113 -0.0405  0.2485 -0.8528
12283SOL    HW138270   7.257   8.004   6.045  1.1400  1.3043 -1.0602
12283SOL    HW238271   7.320   8.024   6.181 -0.1381 -0.4288 -0.1691
12284SOL     OW38272   3.380   4.213   2.533 -0.2254  0.6042 -0.4488
12284SOL    HW138273   3.339   4.278   2.590 -0.1325  1.2599 -1.1111
12284SOL    HW238274   3.314   4.144   2.524 -0.3754  0.6658  0.1535
12285SOL     OW38275   8.038   2.253   6.215 -0.1909  0.5542  0.3047
12285SOL    HW138276   8.035   2.333   6.161  0.9143  0.4700  0.0940
12285SOL    HW238277   8.118   2.263   6.268  0.0536 -0.4863  0.1531
12286SOL     OW38278   7.655   0.048   5.857  0.2066  0.0337 -0.0523
12286SOL    HW138279   7.717  -0.007   5.808 -0.0584  0.8996 -1.4444
12286SOL    HW238280   7.699   0.133   5.863  0.0254  0.0676  0.8087
12287SOL     OW38281   1.585   0.276   3.854  0.6743 -0.2967 -0.1858
12287SOL    HW138282   1.505   0.242   3.893  1.9756 -0.6637  2.3948
12287SOL    HW238283   1.559   0.306   3.767 -2.0708 -1.0624  0.2822
12288SOL     OW38284   5.884   4.392   4.463  0.2701  0.2336 -0.6073
12288SOL    HW138285   5.820   4.462   4.460 -0.4422 -0.3895 -0.3023
12288SOL    HW238286   5.887   4.365   4.554  0.7645  0.0737 -0.6679
12289SOL     OW38287   2.538   3.134   5.054  0.2325  0.4185 -0.4015
12289SOL    HW138288   2.462   3.110   5.002 -0.5232  0.6628  0.5663
12289SOL    HW238289   2.540   3.230   5.052  1.2920  0.4092 -1.4821
12290SOL     OW38290   2.442   6.141   4.151  0.3270 -0.7203  0.3178
12290SOL    HW138291   2.384   6.210   4.120 -1.5570 -1.3530  2.1510
12290SOL    HW238292   2.497   6.184   4.218  0.4849 -0.5954  0.1091
12291SOL     OW38293   9.234   4.317   8.941 -0.0608  0.3862 -0.2832
12291SOL    HW138294   9.200   4.400   8.908 -0.7386 -0.2778 -1.3130
12291SOL    HW238295   9.298   4.290   8.875 -0.9093 -0.6127 -0.7243
12292SOL     OW38296   7.510   7.499   0.549  0.1759  0.2763 -0.0910
12292SOL    HW138297   7.424   7.511   0.509 -0.6396  0.0857  1.5164
12292SOL    HW238298   7.525   7.404   0.544  1.3365  0.4993 -2.3197
12293SOL     OW38299   4.253   8.549   4.065 -0.2897 -0.1718 -0.0748
12293SOL    HW138300   4.284   8.492   4.135  0.8408 -1.7707 -1.7858
12293SOL    HW238301   4.165   8.575   4.092  0.1832 -0.5416  2.0091
12294SOL     OW38302   6.622   3.325   3.985  0.3188  0.3153 -0.2873
12294SOL    HW138303   6.718   3.330   3.992  0.3430  0.2598 -0.5548
12294SOL    HW238304   6.590   3.405   4.027  0.4428 -0.0862  0.5934
12295SOL     OW38305   5.411   2.053   8.433 -0.5766  0.1474 -0.4729
12295SOL    HW138306   5.409   1.969   8.387  0.6709 -0.9730  1.3471
12295SOL    HW238307   5.494   2.051   8.481 -1.4028  1.5731  1.1265
12296SOL     OW38308   2.913   0.019   1.811  0.0253 -0.1936  0.0097
12296SOL    HW138309   3.008   0.005   1.815 -0.1009 -0.7946  1.2307
12296SOL    HW238310   2.896   0.094   1.867 -0.3142 -0.6292  0.5021
12297SOL     OW38311   6.102   0.289   3.525 -0.3453  0.3234  0.4979
12297SOL    HW138312   6.129   0.307   3.615 -2.5700  2.2300  0.8746
12297SOL    HW238313   6.009   0.268   3.532  0.1205 -2.8693 -1.0567
12298SOL     OW38314   5.587   3.612   7.353  0.0973  0.1558 -0.3663
12298SOL    HW138315   5.553   3.622   7.441  1.2466  0.2687  0.0852
12298SOL    HW238316   5.515   3.573   7.303 -0.6786  0.4246  0.5295
12299SOL     OW38317   2.099   1.764   3.254 -0.4413  0.2302  0.9717
12299SOL    HW138318   2.134   1.851   3.234  0.9068 -0.2977  0.9484
12299SOL    HW238319   2.037   1.746   3.183  1.1063  0.1706 -0.4499
12300SOL     OW38320   6.629   3.841   3.636  0.3522 -0.0167 -0.0826
12300SOL    HW138321   6.564   3.883   3.579  0.8876 -0.1343 -0.7880
12300SOL    HW238322   6.699   3.813   3.577  0.2088 -1.5328  0.4213
12301SOL     OW38323   0.351   2.211   0.721  0.4109 -0.0301  0.1130
12301SOL    HW138324   0.390   2.234   0.636  0.9521  2.8402  1.0499
12301SOL    HW238325   0.311   2.291   0.752  0.2394 -0.9885  2.6146
12302SOL     OW38326   1.763   5.805   0.091 -0.6905  0.7471 -0.1460
12302SOL    HW138327   1.748   5.870   0.160 -2.6432  1.1456 -0.8857
12302SOL    HW238328   1.827   5.847   0.033 -0.0810  0.9768  0.6598
12303SOL     OW38329   0.355   3.394   3.125  0.2133 -0.2730 -0.0718
12303SOL    HW138330   0.319   3.433   3.046 -0.8514  0.3241  0.6871
12303SOL    HW238331   0.305   3.433   3.196  0.2507 -1.7801  0.8218
12304SOL     OW38332   0.821   3.927   2.545  0.0581 -0.0596  0.4298
12304SOL    HW138333   0.756   3.924   2.615 -0.3467 -0.0052  0.0617
12304SOL    HW238334   0.789   3.863   2.481 -0.5092  1.1170 -0.5055
12305SOL     OW38335   1.989   6.122   5.077 -0.0743  0.3645  0.0265
12305SOL    HW138336   1.927   6.098   5.146 -0.7686  0.3673 -0.5794
12305SOL    HW238337   1.940   6.184   5.022  0.6837  0.8509 -0.1049
12306SOL     OW38338   7.313   0.969   8.949 -0.0527  0.5938  0.6625
12306SOL    HW138339   7.224   1.004   8.946 -0.5707 -0.7075 -0.5003
12306SOL    HW238340   7.370   1.046   8.949 -1.1349  1.4597 -1.3614
12307SOL     OW38341   7.555   0.281   5.472 -0.0556  0.0299 -0.6328
12307SOL    HW138342   7.521   0.370   5.460  0.0935  0.5807  2.2635
12307SOL    HW238343   7.484   0.225   5.442 -0.9992  1.1426 -0.5720
12308SOL     OW38344   2.443   1.039   5.058  0.0445  0.2458  0.3846
12308SOL    HW138345   2.372   1.073   5.004 -0.0445 -1.5564 -0.7204
12308SOL    HW238346   2.402   0.974   5.115  0.6148  0.0101  0.5336
12309SOL     OW38347   2.207   8.273   0.792 -1.4259  0.6447  0.4068
12309SOL    HW138348   2.250   8.267   0.877  0.5593  0.7306 -0.5177
12309SOL    HW238349   2.188   8.183   0.767 -1.3126  0.5645  0.6111
12310SOL     OW38350   7.306   3.225   1.313 -0.3716 -0.3968 -0.4125
12310SOL    HW138351   7.222   3.269   1.327 -0.3648 -0.9121  1.7248
12310SOL    HW238352   7.324   3.236   1.220 -1.4037  2.2331 -0.3886
12311SOL     OW38353   0.633   0.538   2.264 -0.3247 -0.2701 -0.1046
12311SOL    HW138354   0.539   0.521   2.264 -0.6071  1.1304 -1.4082
12311SOL    HW238355   0.642   0.620   2.313  0.3222 -0.7850  0.6681
12312SOL     OW38356   8.391   0.006   0.681 -0.0621 -0.2754 -0.3136
12312SOL    HW138357   8.432   0.078   0.728 -1.7481 -0.6604  1.8828
12312SOL    HW238358   8.347   0.049   0.607 -0.2267  0.8399  0.4041
12313SOL     OW38359   4.527   6.953   0.886  0.3351 -0.3545  0.5330
12313SOL    HW138360   4.433   6.970   0.880  0.3805 -0.1459  0.3764
12313SOL    HW238361   4.550   6.914   0.802  0.9741  2.5621 -0.7906
12314SOL     OW38362   7.557   6.134   3.054  0.1778  0.0174 -0.0872
12314SOL    HW138363   7.637   6.082   3.065 -0.1200 -0.4770 -0.2064
12314SOL    HW238364   7.524   6.108   2.968  0.4915  1.0684 -0.5517
12315SOL     OW38365   8.924   8.735   4.584 -0.6537  0.4114 -0.5599
12315SOL    HW138366   8.941   8.650   4.543  0.4812 -0.1255  0.9488
12315SOL    HW238367   8.914   8.715   4.677 -3.2266  1.5917 -0.5096
12316SOL     OW38368   2.533   8.244   6.630 -0.6241  0.1400 -0.3152
12316SOL    HW138369   2.562   8.197   6.708  2.0018  2.2978  0.1553
12316SOL    HW238370   2.439   8.257   6.643 -0.6151 -1.2161  1.5100
12317SOL     OW38371   4.301   0.718   1.311 -0.2737 -0.2972  0.2851
12317SOL    HW138372   4.384   0.677   1.286 -0.2841  0.7047 -1.5969
12317SOL    HW238373   4.252   0.723   1.229 -1.3684  0.9876  0.9826
12318SOL     OW38374   6.226   5.314   5.430  0.6825 -0.5270  0.0647
12318SOL    HW138375   6.218   5.406   5.406  1.6155 -0.3314  0.4622
12318SOL    HW238376   6.315   5.305   5.464 -0.0894 -1.0689  2.1387
12319SOL     OW38377   5.223   5.479   1.076  0.4385 -0.0757  0.7940
12319SOL    HW138378   5.275   5.462   0.997  0.2542 -0.7520  0.8075
12319SOL    HW238379   5.187   5.566   1.063 -2.0513 -1.2870 -1.2782
12320SOL     OW38380   3.559   2.967   7.611  0.0220  0.3168  1.0302
12320SOL    HW138381   3.607   2.947   7.531 -0.5204  1.4789  0.3812
12320SOL    HW238382   3.599   2.912   7.679  1.4747  0.4186  0.2781
12321SOL     OW38383   2.042   8.351   7.883 -0.2854  0.4271  0.1041
12321SOL    HW138384   2.017   8.261   7.904 -0.6405  0.4018 -0.3945
12321SOL    HW238385   2.089   8.343   7.800 -1.6309  0.8553 -0.7415
12322SOL     OW38386   4.993   2.668   2.549 -0.3523  0.1587  0.3526
12322SOL    HW138387   5.080   2.689   2.583 -0.7765  1.3556  0.7474
12322SOL    HW238388   4.944   2.749   2.558 -1.4104 -0.4033 -0.2069
12323SOL     OW38389   6.881   1.994   6.339  0.1792 -0.0965 -0.6436
12323SOL    HW138390   6.935   2.056   6.386 -1.2372  0.7045  0.0010
12323SOL    HW238391   6.847   2.044   6.264 -0.3524 -0.3065 -0.5503
12324SOL     OW38392   7.457   8.973   8.911  0.1819 -0.0566  0.0686
12324SOL    HW138393   7.500   8.899   8.954 -0.5350 -0.3479  0.3053
12324SOL    HW238394   7.493   8.974   8.823  0.1934 -0.6976  0.0620
12325SOL     OW38395   2.551   6.200   0.776 -0.2939 -0.0641  0.6986
12325SOL    HW138396   2.523   6.286   0.745  0.4147  0.3646  1.1991
12325SOL    HW238397   2.496   6.138   0.729  1.0398  0.5056 -1.7888
12326SOL     OW38398   0.418   1.283   1.107 -0.6196 -0.4918 -0.0504
12326SOL    HW138399   0.412   1.376   1.083 -1.1587 -0.2868  0.8185
12326SOL    HW238400   0.327   1.252   1.104 -0.4555 -0.9503 -0.2087
12327SOL     OW38401   4.162   8.644   8.290  0.1511  0.0142  0.3895
12327SOL    HW138402   4.124   8.674   8.373 -2.3224 -1.7481 -0.0120
12327SOL    HW238403   4.102   8.677   8.223 -0.2058 -2.0478 -0.3602
12328SOL     OW38404   6.109   2.490   6.991 -0.4767  0.2537 -0.1116
12328SOL    HW138405   6.096   2.403   6.954  0.3096  0.3443 -0.6149
12328SOL    HW238406   6.078   2.483   7.081  0.4967 -0.8172  0.1645
12329SOL     OW38407   4.755   7.729   4.014 -0.3616 -0.4584 -0.3705
12329SOL    HW138408   4.722   7.684   4.092 -0.2151  0.0076 -0.0395
12329SOL    HW238409   4.828   7.675   3.985  0.3325 -0.0089  0.4971
12330SOL     OW38410   4.276   8.808   2.295 -0.3580 -0.4016 -0.3112
12330SOL    HW138411   4.251   8.768   2.211  1.6633 -0.0650 -1.1350
12330SOL    HW238412   4.301   8.898   2.272 -1.1497  0.1643  0.9164
12331SOL     OW38413   2.495   6.533   6.094  0.4943 -0.2107  0.7405
12331SOL    HW138414   2.533   6.514   6.008 -1.6567 -0.3569 -0.2321
12331SOL    HW238415   2.497   6.629   6.100  0.8763 -0.2107  0.6481
12332SOL     OW38416   2.624   3.581   1.028 -0.0710  0.5715 -0.4682
12332SOL    HW138417   2.666   3.595   0.943  0.1471  1.4648 -0.2341
12332SOL    HW238418   2.694   3.598   1.092  0.0310 -1.0834 -0.1162
12333SOL     OW38419   6.250   3.146   8.245  0.5068  0.2951  0.3189
12333SOL    HW138420   6.175   3.135   8.303  0.9026 -0.0386  0.7775
12333SOL    HW238421   6.281   3.057   8.229  1.0726  0.4562  0.4968
12334SOL     OW38422   6.179   7.723   8.810 -0.5745  0.1654 -0.2192
12334SOL    HW138423   6.217   7.672   8.881 -1.2956 -0.0761  0.0079
12334SOL    HW238424   6.252   7.740   8.750  0.1577  0.7949  0.8127
12335SOL     OW38425   3.355   6.454   5.462 -0.9319 -0.0824  0.1346
12335SOL    HW138426   3.349   6.416   5.550 -1.4444  0.5955  0.3977
12335SOL    HW238427   3.329   6.545   5.473  1.4284  0.7163 -0.2824
12336SOL     OW38428   5.909   2.531   2.269  0.1402 -0.3268 -0.6187
12336SOL    HW138429   6.002   2.529   2.247 -0.4270 -0.2616 -3.2732
12336SOL    HW238430   5.880   2.440   2.257 -0.5814  0.0765 -1.9987
12337SOL     OW38431   6.589   1.703   8.891  0.5243  1.0787 -0.5559
12337SOL    HW138432   6.497   1.709   8.915 -0.0763  1.0833 -2.7435
12337SOL    HW238433   6.592   1.720   8.797  2.8656  1.9435 -0.4013
12338SOL     OW38434   2.758   6.993   3.260 -0.4143 -0.4042 -0.0051
12338SOL    HW138435   2.714   7.073   3.231 -0.6568  0.2646  2.0557
12338SOL    HW238436   2.824   6.976   3.193 -1.3509  0.6588 -1.2470
12339SOL     OW38437   5.724   4.767   3.401  0.4311  0.6039  0.1233
12339SOL    HW138438   5.680   4.829   3.460  0.3931 -0.2590  1.0337
12339SOL    HW238439   5.816   4.793   3.403  0.2176  1.4659 -0.5805
12340SOL     OW38440   8.732   2.881   0.815 -0.0358  0.4525  0.1750
12340SOL    HW138441   8.768   2.809   0.764  0.4856 -0.0657  1.2353
12340SOL    HW238442   8.797   2.896   0.884 -0.7756  1.0438  0.7612
12341SOL     OW38443   8.787   3.197   7.694 -0.3750 -0.4736  0.3959
12341SOL    HW138444   8.742   3.217   7.776 -0.0419 -3.5960  1.4921
12341SOL    HW238445   8.716   3.174   7.633 -0.6168  1.7582 -0.2288
12342SOL     OW38446   8.048   5.580   7.558 -0.0048 -0.8403  0.3151
12342SOL    HW138447   8.036   5.675   7.549 -0.7009 -0.7845  1.5389
12342SOL    HW238448   7.990   5.543   7.491 -0.6934 -0.4093  0.6539
12343SOL     OW38449   0.477   1.645   5.659  0.1914  0.0002  0.4873
12343SOL    HW138450   0.419   1.721   5.655 -0.2482 -0.3313  0.4493
12343SOL    HW238451   0.527   1.658   5.739 -0.0896  0.1805  0.6372
12344SOL     OW38452   0.250   7.798   2.553  0.7847  0.1532 -0.2710
12344SOL    HW138453   0.291   7.712   2.559  1.4573  0.3823 -1.3331
12344SOL    HW238454   0.188   7.800   2.626  2.7497 -0.1400  1.4885
12345SOL     OW38455   1.203   0.437   1.779 -0.1622  0.5666  0.1428
12345SOL    HW138456   1.241   0.412   1.863  1.3863  1.3587 -0.2700
12345SOL    HW238457   1.133   0.374   1.764  1.2726 -1.2568  0.7679
12346SOL     OW38458   4.580   2.601   1.418  0.1446 -1.1868  0.2988
12346SOL    HW138459   4.657   2.656   1.404  0.6161 -1.7106  0.7586
12346SOL    HW238460   4.613   2.512   1.405 -0.9349 -1.3253 -2.0161
12347SOL     OW38461   3.962   4.615   4.321 -0.2801  0.1717  0.6202
12347SOL    HW138462   3.948   4.520   4.320  0.5150  0.0424 -1.1889
12347SOL    HW238463   3.889   4.650   4.270  1.0736  0.2449 -1.3276
12348SOL     OW38464   3.244   4.346   8.749 -0.0506  0.2200  0.4476
12348SOL    HW138465   3.300   4.423   8.740  1.5013 -1.0546 -1.9488
12348SOL    HW238466   3.279   4.299   8.825 -0.7902  1.6081  1.7112
12349SOL     OW38467   5.917   5.467   0.530 -0.5005  0.0554 -0.1388
12349SOL    HW138468   5.835   5.474   0.481  0.3987  0.9761 -1.5517
12349SOL    HW238469   5.903   5.392   0.588 -1.8603 -0.6234 -1.2842
12350SOL     OW38470   0.396   4.009   1.329  0.2547 -0.5322  0.4209
12350SOL    HW138471   0.400   3.925   1.283  0.5982  0.1292 -0.8125
12350SOL    HW238472   0.329   4.059   1.281  1.3147  0.5245 -0.0086
12351SOL     OW38473   2.000   3.129   7.765 -0.4026 -0.0586  0.9526
12351SOL    HW138474   1.990   3.139   7.671  1.6966  1.2514  0.7978
12351SOL    HW238475   2.089   3.096   7.776 -0.3731  0.4543  2.4923
12352SOL     OW38476   6.544   8.934   6.634 -0.4098 -0.1211 -0.1939
12352SOL    HW138477   6.479   8.930   6.705  1.3208  0.2829  1.5068
12352SOL    HW238478   6.525   9.016   6.589 -1.1603 -0.0701  0.1983
12353SOL     OW38479   3.754   3.428   0.318  0.0560  0.3521  0.2721
12353SOL    HW138480   3.789   3.500   0.370  0.6520  0.5336 -0.3736
12353SOL    HW238481   3.813   3.421   0.243 -1.3938  0.8237 -0.9783
12354SOL     OW38482   1.451   5.213   6.630  0.1651 -0.4656  0.6576
12354SOL    HW138483   1.514   5.199   6.701  2.8541 -1.2878 -1.7190
12354SOL    HW238484   1.393   5.136   6.634 -0.8640  0.3300  2.9080
12355SOL     OW38485   3.559   2.049   5.555 -0.0210 -0.4946 -0.4625
12355SOL    HW138486   3.582   1.969   5.510 -1.4311  0.2970 -2.7686
12355SOL    HW238487   3.478   2.078   5.513 -0.2737  1.4547  1.1891
12356SOL     OW38488   6.679   0.912   2.289  0.1143  0.5748 -0.1542
12356SOL    HW138489   6.609   0.901   2.353  0.5366  0.6916  0.3405
12356SOL    HW238490   6.635   0.929   2.206 -0.5335 -1.8039 -0.3827
12357SOL     OW38491   1.038   7.039   1.333  0.1187 -0.0305 -0.2433
12357SOL    HW138492   1.088   7.099   1.388  1.0913 -2.2167  1.3935
12357SOL    HW238493   0.952   7.033   1.375  0.3087 -0.4129  0.1015
12358SOL     OW38494   1.179   1.988   4.883 -0.4813  0.1734 -0.5700
12358SOL    HW138495   1.093   2.026   4.900  0.1517  1.0761  0.8266
12358SOL    HW238496   1.235   2.064   4.865  0.6255 -0.0963  1.4020
12359SOL     OW38497   5.957   0.289   6.016 -0.2428 -0.0458  0.1359
12359SOL    HW138498   5.895   0.362   6.019  0.1440  0.2737  0.6399
12359SOL    HW238499   5.944   0.249   5.931 -2.3092 -1.0079  0.8617
12360SOL     OW38500   1.430   0.208   4.664  0.2787  0.4235  0.2143
12360SOL    HW138501   1.430   0.151   4.587 -0.5256  0.6698  0.0203
12360SOL    HW238502   1.337   0.222   4.684  0.4145 -1.6650  2.7611
12361SOL     OW38503   4.510   0.610   4.846 -0.1087 -0.0863 -0.4735
12361SOL    HW138504   4.484   0.658   4.767 -0.8825  0.0032 -0.1769
12361SOL    HW238505   4.438   0.625   4.907 -0.7825 -2.2675 -0.6365
12362SOL     OW38506   5.080   5.290   5.193  0.0312  0.5125  0.2244
12362SOL    HW138507   5.050   5.214   5.242 -0.1057  0.3398 -0.1280
12362SOL    HW238508   5.135   5.254   5.123 -0.6075  0.6786 -0.3794
12363SOL     OW38509   0.611   8.649   5.228  0.2346  0.4053 -0.2721
12363SOL    HW138510   0.619   8.730   5.177  0.6501  1.5548  1.4946
12363SOL    HW238511   0.537   8.603   5.189  0.4914  1.2377 -1.8433
12364SOL     OW38512   7.061   1.158   0.324  0.0806 -0.3463 -0.1839
12364SOL    HW138513   7.081   1.072   0.289 -2.3501 -2.3216  2.7895
12364SOL    HW238514   7.108   1.163   0.407 -1.5179  0.1994  0.7449
12365SOL     OW38515   3.333   8.929   5.751  0.4603 -0.2869  0.3021
12365SOL    HW138516   3.297   8.840   5.754  0.3638 -0.3137 -1.2577
12365SOL    HW238517   3.361   8.946   5.841 -1.4182 -1.0992  1.1015
12366SOL     OW38518   6.095   3.352   2.151  0.1819 -0.3045  0.0073
12366SOL    HW138519   6.161   3.302   2.102 -0.5966 -1.6233  0.2554
12366SOL    HW238520   6.112   3.332   2.243 -0.4970 -0.5840  0.0808
12367SOL     OW38521   1.884   2.336   1.284 -0.5656 -0.5099  0.1827
12367SOL    HW138522   1.876   2.422   1.326 -1.5615 -0.6443  0.2804
12367SOL    HW238523   1.911   2.278   1.355 -0.2822 -0.3577  0.2015
12368SOL     OW38524   0.692   4.702   4.576 -0.3004 -0.1046  0.1186
12368SOL    HW138525   0.656   4.689   4.488  1.5753 -1.8295 -0.4635
12368SOL    HW238526   0.776   4.745   4.561  1.1584 -2.5396  0.7854
12369SOL     OW38527   5.453   5.851   4.095 -0.6427  0.6440 -0.5309
12369SOL    HW138528   5.472   5.847   4.189  0.5620 -0.7983 -0.8052
12369SOL    HW238529   5.516   5.915   4.061 -2.2738  2.5753 -0.1463
12370SOL     OW38530   0.111   8.655   6.357 -0.1033  0.4904  0.0246
12370SOL    HW138531   0.055   8.707   6.416 -1.0294  1.9101 -1.9982
12370SOL    HW238532   0.175   8.717   6.323 -0.5062  0.0676 -1.5730
12371SOL     OW38533   6.957   8.882   8.098 -0.0971 -0.1997  0.0515
12371SOL    HW138534   6.986   8.814   8.160  0.5856  0.5772  0.6010
12371SOL    HW238535   6.924   8.833   8.023 -1.0586 -1.1711  1.0701
12372SOL     OW38536   2.722   1.924   3.454 -0.6257  0.3600  0.1841
12372SOL    HW138537   2.644   1.911   3.508 -1.8951  1.6871 -1.2549
12372SOL    HW238538   2.733   2.019   3.450  0.1235  0.2463 -0.9488
12373SOL     OW38539   0.783   0.991   7.853 -0.1841  0.6062 -0.2079
12373SOL    HW138540   0.818   1.013   7.766 -0.1556 -0.1300 -0.3909
12373SOL    HW238541   0.689   0.982   7.840  0.0298 -1.8073 -0.7162
12374SOL     OW38542   5.420   4.759   5.667  0.1468  0.5313 -0.0696
12374SOL    HW138543   5.498   4.796   5.627  0.3918  0.5742  0.4323
12374SOL    HW238544   5.446   4.669   5.691 -0.7622 -0.3757 -2.2370
12375SOL     OW38545   7.500   7.395   2.328  0.4156  0.1567 -0.8312
12375SOL    HW138546   7.563   7.360   2.265  0.2466  2.0276 -2.1309
12375SOL    HW238547   7.428   7.333   2.328  1.2002 -0.7689 -1.1667
12376SOL     OW38548   8.055   8.388   1.310 -0.4692  0.4164 -0.1404
12376SOL    HW138549   7.979   8.341   1.344 -1.1077  2.4199  1.4782
12376SOL    HW238550   8.035   8.404   1.218 -0.6172 -1.6319 -0.4954
12377SOL     OW38551   7.687   3.358   5.491  0.1126 -0.6196 -0.0161
12377SOL    HW138552   7.625   3.334   5.560  0.2246  0.3458  0.4381
12377SOL    HW238553   7.772   3.330   5.523  0.0904 -0.6885 -0.0181
12378SOL     OW38554   3.119   6.356   3.496 -0.4895 -0.2631  0.2240
12378SOL    HW138555   3.172   6.290   3.450  1.6335  0.9432  0.8071
12378SOL    HW238556   3.106   6.425   3.432 -1.6167 -0.6457  0.0151
12379SOL     OW38557   5.591   5.668   7.094 -0.0195  0.1213 -0.1351
12379SOL    HW138558   5.600   5.592   7.036  0.1799 -0.7131  0.9499
12379SOL    HW238559   5.570   5.631   7.179  4.0787  0.8601  1.4737
12380SOL     OW38560   4.256   6.927   2.527  0.3934 -0.0982 -0.2667
12380SOL    HW138561   4.334   6.929   2.582  1.2797  0.3506 -1.5265
12380SOL    HW238562   4.265   7.003   2.469 -0.9845 -0.0295 -0.4257
12381SOL     OW38563   3.234   2.637   8.089  0.0815 -0.0184  0.3053
12381SOL    HW138564   3.182   2.612   8.165 -0.9630 -1.2800 -0.7607
12381SOL    HW238565   3.184   2.708   8.048 -1.0731 -1.4699 -0.9177
12382SOL     OW38566   0.942   8.643   7.938 -0.3687  0.4046  0.1643
12382SOL    HW138567   0.986   8.588   7.873 -1.5756 -1.3054  0.7199
12382SOL    HW238568   0.919   8.723   7.890  1.8540  0.7006 -0.5433
12383SOL     OW38569   0.886   5.508   1.270  0.3247 -0.5068  0.5312
12383SOL    HW138570   0.792   5.516   1.255  0.3823  3.5402  1.1870
12383SOL    HW238571   0.923   5.505   1.182 -0.3276 -3.4976  0.2407
12384SOL     OW38572   0.687   7.040   3.134 -0.8826 -0.1646  0.1925
12384SOL    HW138573   0.683   7.109   3.200 -0.4155 -0.7211  0.8234
12384SOL    HW238574   0.596   7.025   3.109 -1.2113 -0.7644  1.6025
12385SOL     OW38575   7.533   5.161   8.346 -0.1384 -0.3532  0.5596
12385SOL    HW138576   7.607   5.115   8.386 -0.9300 -1.1941  1.0789
12385SOL    HW238577   7.487   5.095   8.296 -0.2067  0.3055 -0.2718
12386SOL     OW38578   8.517   0.632   3.873  0.1672 -0.0284 -0.4931
12386SOL    HW138579   8.580   0.659   3.807  0.4339  0.6458  0.0120
12386SOL    HW238580   8.473   0.714   3.898  0.1741 -0.2428  0.2509
12387SOL     OW38581   4.248   0.413   8.991 -0.5717  0.0344 -0.1259
12387SOL    HW138582   4.257   0.368   8.907 -0.5194  0.1468 -0.1814
12387SOL    HW238583   4.338   0.424   9.022 -0.6536 -1.2923  0.6317
12388SOL     OW38584   1.233   1.749   7.229  0.0527 -0.0659  0.2277
12388SOL    HW138585   1.155   1.706   7.193  0.4168  0.3616 -1.1305
12388SOL    HW238586   1.255   1.697   7.306 -2.0160  0.2594  1.1075
12389SOL     OW38587   1.960   4.022   4.434 -0.5553 -0.2526  0.2817
12389SOL    HW138588   2.044   3.990   4.467 -0.2475  0.1525 -0.0894
12389SOL    HW238589   1.940   3.966   4.360 -0.4156 -0.1078  0.1317
12390SOL     OW38590   7.174   7.773   4.032 -0.0986  0.2540  0.1794
12390SOL    HW138591   7.228   7.779   3.954 -2.1103  0.1787 -1.2792
12390SOL    HW238592   7.176   7.680   4.055  1.2907  0.4274  0.8448
12391SOL     OW38593   8.452   6.927   6.583  0.7301  1.0780 -0.3086
12391SOL    HW138594   8.369   6.906   6.540  1.0218 -0.2418 -0.2799
12391SOL    HW238595   8.451   7.022   6.594 -2.4330  0.8910  2.9975
12392SOL     OW38596   0.651   6.628   7.716 -0.7291 -0.2697  0.4207
12392SOL    HW138597   0.613   6.580   7.642  0.3325  0.6004 -0.7114
12392SOL    HW238598   0.614   6.584   7.793 -0.1231 -2.6810 -0.5511
12393SOL     OW38599   4.154   1.333   1.450 -0.3990 -0.2231  0.2626
12393SOL    HW138600   4.110   1.359   1.531 -1.6620 -0.0445 -0.4511
12393SOL    HW238601   4.112   1.251   1.425  0.3212 -0.5342  0.0295
12394SOL     OW38602   0.820   5.571   3.059  1.0100  0.2925 -0.8981
12394SOL    HW138603   0.875   5.516   3.003 -0.9956 -2.1974 -0.5879
12394SOL    HW238604   0.756   5.610   2.999  0.8151  0.1725 -0.7685
12395SOL     OW38605   8.560   3.568   4.734 -0.5945  0.0845 -0.5855
12395SOL    HW138606   8.653   3.549   4.746 -0.6200  1.0722  1.5566
12395SOL    HW238607   8.515   3.519   4.803 -1.4621  1.0722 -0.4117
12396SOL     OW38608   0.311   8.398   9.196 -0.4692  0.2190 -0.0713
12396SOL    HW138609   0.297   8.476   9.250 -0.5562 -0.0973  0.3648
12396SOL    HW238610   0.355   8.431   9.118 -1.9731  0.9826 -0.6558
12397SOL     OW38611   0.359   0.710   5.338  0.1032 -0.0170 -0.2731
12397SOL    HW138612   0.380   0.682   5.427 -3.9990 -0.9286  0.5964
12397SOL    HW238613   0.346   0.804   5.346  1.2112  0.1503 -0.2873
12398SOL     OW38614   4.515   4.452   5.899  0.9796  0.1301  0.0323
12398SOL    HW138615   4.523   4.453   5.803  0.0347  0.9732 -0.0548
12398SOL    HW238616   4.516   4.359   5.922 -1.5573 -0.2765 -1.0832
12399SOL     OW38617   6.374   1.655   3.698  0.1425  0.3909 -0.6106
12399SOL    HW138618   6.394   1.664   3.605 -0.3782 -1.1320 -0.8981
12399SOL    HW238619   6.279   1.644   3.702  0.0345  1.4067  0.2052
12400SOL     OW38620   3.651   3.114   6.461 -0.2558  0.6460  0.5899
12400SOL    HW138621   3.602   3.080   6.536  0.8477 -1.5384  0.3811
12400SOL    HW238622   3.644   3.045   6.395 -0.2833  2.0630 -0.9465
12401SOL     OW38623   7.820   8.531   3.470  0.1665  0.5948 -0.1764
12401SOL    HW138624   7.760   8.558   3.401  0.2468  2.1456  0.3305
12401SOL    HW238625   7.783   8.570   3.550  2.7376  3.1437 -0.0926
12402SOL     OW38626   0.264   6.609   7.316 -0.1358  0.0691  0.4952
12402SOL    HW138627   0.242   6.648   7.231  0.1137 -0.7542  0.0398
12402SOL    HW238628   0.347   6.563   7.300 -0.5156 -0.7978  0.9708
12403SOL     OW38629   5.681   1.149   5.099 -0.1349 -0.5475  0.1238
12403SOL    HW138630   5.774   1.132   5.111 -0.0305 -0.2873 -0.2977
12403SOL    HW238631   5.637   1.083   5.153  0.2908 -0.6417  0.3606
12404SOL     OW38632   3.124   0.905   4.511 -0.1499  0.1333 -0.0981
12404SOL    HW138633   3.073   0.957   4.449 -1.0310 -1.3650 -0.7081
12404SOL    HW238634   3.157   0.832   4.459  2.7215  1.0475  0.2752
12405SOL     OW38635   7.997   0.837   4.705  0.3922  0.3096 -0.4669
12405SOL    HW138636   8.013   0.766   4.767 -1.4192 -0.6005 -0.9628
12405SOL    HW238637   8.064   0.902   4.725  0.1780 -0.1614  2.1123
12406SOL     OW38638   8.516   3.866   0.695 -0.1230 -0.2003  0.3068
12406SOL    HW138639   8.440   3.815   0.723 -0.1270 -1.1975 -1.3591
12406SOL    HW238640   8.591   3.809   0.714 -0.1533 -1.1261 -1.9238
12407SOL     OW38641   5.087   3.834   4.510 -0.5580  0.4501  0.2682
12407SOL    HW138642   5.055   3.770   4.574 -1.1252  0.8891  0.4349
12407SOL    HW238643   5.082   3.789   4.426  0.0484 -0.0788  0.5115
12408SOL     OW38644   4.176   8.161   6.410 -0.1773  0.8320  0.5252
12408SOL    HW138645   4.209   8.100   6.476  0.6946  1.3049  0.5379
12408SOL    HW238646   4.109   8.111   6.364  0.1790  0.0193  0.8573
12409SOL     OW38647   2.997   3.661   3.739 -0.4798 -0.2883  0.3394
12409SOL    HW138648   2.978   3.578   3.782  0.4634  0.1769  1.6886
12409SOL    HW238649   3.035   3.636   3.654 -2.4121 -1.2055 -0.3188
12410SOL     OW38650   5.467   5.733   7.661 -0.1153  0.0572 -0.1684
12410SOL    HW138651   5.407   5.731   7.737  1.5729  0.4388  1.2408
12410SOL    HW238652   5.541   5.679   7.688  1.0673  1.1794 -1.0741
12411SOL     OW38653   7.652   9.197   8.705 -0.0975 -0.5353  0.6581
12411SOL    HW138654   7.699   9.116   8.690  1.1042  0.2847 -0.1886
12411SOL    HW238655   7.585   9.200   8.637 -0.2655 -0.8903  0.8060
12412SOL     OW38656   1.379   0.659   5.405  0.0521  0.0550  0.1883
12412SOL    HW138657   1.466   0.694   5.386 -0.7418  1.0008 -2.0668
12412SOL    HW238658   1.338   0.650   5.319 -1.1151 -3.0478  0.9371
12413SOL     OW38659   1.347   3.168   5.989 -0.3354  0.2593  0.3896
12413SOL    HW138660   1.385   3.105   6.050 -0.8008 -0.3284  0.0795
12413SOL    HW238661   1.299   3.230   6.045  0.8399  0.8717  0.7667
12414SOL     OW38662   5.294   8.074   1.055 -0.2378 -0.5046 -0.5966
12414SOL    HW138663   5.240   8.139   1.100  0.4539  2.0016 -3.0244
12414SOL    HW238664   5.381   8.085   1.093 -0.1818 -0.1654 -0.8131
12415SOL     OW38665   7.922   9.164   4.693 -0.0543 -0.6078 -0.3170
12415SOL    HW138666   7.943   9.171   4.786  2.2229 -2.5615 -0.5985
12415SOL    HW238667   7.838   9.118   4.691  0.3784 -1.4988  0.7807
12416SOL     OW38668   0.233   7.667   8.942  0.2461 -0.0700 -0.4825
12416SOL    HW138669   0.200   7.577   8.945 -0.1517  0.1001  1.7951
12416SOL    HW238670   0.156   7.719   8.918 -0.4873  0.0087  1.8579
12417SOL     OW38671   1.201   2.987   8.911  0.1762 -0.1846 -0.3238
12417SOL    HW138672   1.135   3.053   8.890 -0.1888 -0.1533  0.8275
12417SOL    HW238673   1.208   2.933   8.832 -1.9078 -0.7685 -0.1641
12418SOL     OW38674   2.216   7.945   0.714 -0.3721  0.2993 -0.5087
12418SOL    HW138675   2.130   7.914   0.686 -0.8608  0.1084  1.1278
12418SOL    HW238676   2.250   7.876   0.770  1.7426 -0.5309 -2.6388
12419SOL     OW38677   2.149   7.316   0.262  0.2372 -0.1912  0.2333
12419SOL    HW138678   2.122   7.317   0.354  0.8455 -0.2271  0.4116
12419SOL    HW238679   2.238   7.351   0.262  0.0834  0.2297 -0.3981
12420SOL     OW38680   8.602   8.324   2.185  0.0318 -0.3405  0.0103
12420SOL    HW138681   8.577   8.286   2.101 -1.5133  0.2724  0.1537
12420SOL    HW238682   8.688   8.362   2.169  0.7196 -2.0650 -0.6837
12421SOL     OW38683   9.084   2.774   7.091 -0.0540  0.6497 -0.2475
12421SOL    HW138684   9.133   2.843   7.137 -0.6820  1.3010 -0.5340
12421SOL    HW238685   9.010   2.820   7.051 -1.0410 -0.3521  0.3716
12422SOL     OW38686   0.398   2.730   3.606  0.3644 -0.0941 -0.3794
12422SOL    HW138687   0.468   2.681   3.563 -0.0962  0.8082 -2.2911
12422SOL    HW238688   0.440   2.771   3.682  1.4094 -1.1555 -0.3579
12423SOL     OW38689   6.802   1.873   7.403  0.1852  0.1223 -0.0430
12423SOL    HW138690   6.849   1.839   7.328  1.1361 -0.4590  0.7899
12423SOL    HW238691   6.776   1.794   7.453  0.4166  0.5230  0.7287
12424SOL     OW38692   5.082   2.240   4.611 -0.2911 -0.1831  0.0046
12424SOL    HW138693   5.024   2.214   4.682 -1.3316 -1.2303 -1.2020
12424SOL    HW238694   5.104   2.158   4.566 -1.0598  0.6077 -1.9241
12425SOL     OW38695   4.279   3.324   1.334 -0.5319  0.1948  0.3434
12425SOL    HW138696   4.323   3.384   1.274  1.2373 -1.6535 -0.3349
12425SOL    HW238697   4.194   3.308   1.293  0.3338 -0.4271 -1.3466
12426SOL     OW38698   7.854   7.727   5.608  0.5605  0.2849  0.1001
12426SOL    HW138699   7.760   7.738   5.626  0.4664 -1.1228  0.5370
12426SOL    HW238700   7.861   7.732   5.512 -0.0039  0.0299  0.0437
12427SOL     OW38701   5.953   3.815   4.572  0.1131  0.0143 -0.2050
12427SOL    HW138702   6.038   3.789   4.537 -0.1953 -2.2711  0.6216
12427SOL    HW238703   5.898   3.738   4.561 -1.3265  0.8282  1.0064
12428SOL     OW38704   1.124   4.696   6.164 -0.1142  0.3663  0.6289
12428SOL    HW138705   1.080   4.645   6.232 -2.3127  1.7418  0.3334
12428SOL    HW238706   1.101   4.653   6.082 -0.9241  1.0423  0.4813
12429SOL     OW38707   0.403   4.843   4.341  0.2210 -0.1787 -0.4581
12429SOL    HW138708   0.492   4.821   4.312  0.3815  0.4513 -0.4521
12429SOL    HW238709   0.353   4.764   4.325  0.7643 -0.5121 -0.5528
12430SOL     OW38710   5.011   7.607   2.328 -0.3686  0.5470  0.3294
12430SOL    HW138711   4.939   7.591   2.390 -0.7748  0.4917 -0.1557
12430SOL    HW238712   5.084   7.559   2.366 -0.6758  0.3238  0.6559
12431SOL     OW38713   6.934   7.542   1.920 -0.1539 -0.5078 -0.7819
12431SOL    HW138714   6.920   7.617   1.978  0.9757 -0.4380 -0.5783
12431SOL    HW238715   6.850   7.531   1.875 -0.9379 -0.3326  0.5760
12432SOL     OW38716   5.852   5.834   2.779  0.6630  0.3145 -0.4332
12432SOL    HW138717   5.901   5.780   2.841  1.1515  1.5455  0.2973
12432SOL    HW238718   5.904   5.831   2.699 -0.1834 -1.6188 -0.9622
12433SOL     OW38719   5.296   1.263   0.968  0.2928  0.3251 -0.2321
12433SOL    HW138720   5.239   1.262   0.891  1.6493  0.0787 -1.2785
12433SOL    HW238721   5.287   1.175   1.005 -0.0038  0.2888 -0.3809
12434SOL     OW38722   3.813   3.507   1.327 -0.4701  0.3171  0.1242
12434SOL    HW138723   3.802   3.544   1.415 -2.3991  1.4806 -0.5479
12434SOL    HW238724   3.795   3.413   1.338  2.0237 -0.1028  1.3964
12435SOL     OW38725   4.648   9.221   6.930 -0.1549  0.0754 -0.3983
12435SOL    HW138726   4.715   9.284   6.957 -0.5001  0.4497 -0.4077
12435SOL    HW238727   4.689   9.135   6.942  0.2790  0.2999 -0.2802
12436SOL     OW38728   0.018   7.201   4.364 -0.7484 -0.0531  0.0775
12436SOL    HW138729   0.075   7.124   4.360 -1.4261 -0.5767  0.3062
12436SOL    HW238730   0.065   7.262   4.421  0.0884 -0.0342 -0.6054
12437SOL     OW38731   5.412   3.997   0.506  0.4199  0.2727 -0.3839
12437SOL    HW138732   5.337   4.045   0.541  0.5382 -0.7102  1.3456
12437SOL    HW238733   5.486   4.029   0.557  0.6972 -0.7942 -0.0928
12438SOL     OW38734   2.109   4.024   6.796 -0.3351 -0.3392 -0.0888
12438SOL    HW138735   2.145   4.108   6.823 -0.8438 -0.3373  0.6055
12438SOL    HW238736   2.110   4.028   6.700  0.6371  0.0219 -0.0693
12439SOL     OW38737   5.921   5.202   9.057 -0.1613 -0.1124  0.1694
12439SOL    HW138738   5.843   5.147   9.062 -0.5993  0.2757 -1.7165
12439SOL    HW238739   5.974   5.162   8.988 -0.0583  1.2463 -0.5881
12440SOL     OW38740   2.923   8.461   2.250  0.6523 -0.1935 -0.4741
12440SOL    HW138741   2.909   8.533   2.312 -0.7685 -0.3763 -0.5518
12440SOL    HW238742   2.883   8.491   2.169 -0.2027 -1.1607 -0.4327
12441SOL     OW38743   3.124   0.965   0.627 -0.8184  0.8919 -0.4588
12441SOL    HW138744   3.206   0.921   0.645 -0.7072  0.4086 -1.9583
12441SOL    HW238745   3.076   0.905   0.569 -2.8855  0.4927  1.5162
12442SOL     OW38746   5.710   8.356   2.449 -0.4442 -0.3381  0.0676
12442SOL    HW138747   5.805   8.354   2.442 -0.2972  1.8650  0.5207
12442SOL    HW238748   5.693   8.388   2.538 -1.5486  0.7576 -0.5066
12443SOL     OW38749   8.852   8.092   8.205 -0.0577 -0.2697  0.3936
12443SOL    HW138750   8.927   8.034   8.202  0.5429  0.5202 -1.1234
12443SOL    HW238751   8.805   8.076   8.123 -1.4499 -0.5983  1.2103
12444SOL     OW38752   4.075   7.893   3.670 -0.1670  0.6303  0.0210
12444SOL    HW138753   4.156   7.854   3.704  0.6449  2.1433 -0.0640
12444SOL    HW238754   4.093   7.907   3.577 -0.4773  1.0440  0.0194
12445SOL     OW38755   4.157   6.228   0.727  0.3582 -0.1279  0.5169
12445SOL    HW138756   4.125   6.190   0.809  0.0662 -1.1070 -0.0303
12445SOL    HW238757   4.182   6.317   0.749 -0.9942  0.0613  1.3821
12446SOL     OW38758   3.368   0.745   8.319 -0.2621 -0.4458  0.1378
12446SOL    HW138759   3.392   0.827   8.277  1.3403 -0.1073  1.5802
12446SOL    HW238760   3.393   0.677   8.256  3.2882 -0.0291  0.8493
12447SOL     OW38761   6.581   7.601   3.530 -0.4311 -0.3382 -0.3254
12447SOL    HW138762   6.674   7.586   3.546 -0.3317 -1.1828 -1.4773
12447SOL    HW238763   6.540   7.515   3.544 -0.6949 -0.4983 -1.8095
12448SOL     OW38764   7.596   7.225   0.956 -0.6149  0.5590 -0.4744
12448SOL    HW138765   7.670   7.170   0.927 -0.7399  0.8833 -1.4442
12448SOL    HW238766   7.629   7.270   1.034  0.2256  0.7156 -0.9071
12449SOL     OW38767   8.099   8.133   6.971  0.3792  0.2494 -0.5558
12449SOL    HW138768   8.118   8.144   6.878 -0.3435  0.2276 -0.7094
12449SOL    HW238769   8.061   8.216   6.998  0.0331  0.0522 -0.4261
12450SOL     OW38770   3.514   6.105   4.842 -0.3852  0.4989  0.0083
12450SOL    HW138771   3.426   6.095   4.879 -0.1066 -0.4256  0.4236
12450SOL    HW238772   3.518   6.040   4.772 -0.4437  1.3534 -0.8178
12451SOL     OW38773   0.695   6.779   8.788 -0.6237 -0.2140 -0.8408
12451SOL    HW138774   0.654   6.865   8.777  0.8891  0.4077 -2.0691
12451SOL    HW238775   0.768   6.796   8.848 -1.0176 -0.9171 -0.1433
12452SOL     OW38776   7.318   4.358   4.711  0.1723 -0.2109  0.6574
12452SOL    HW138777   7.270   4.382   4.632  0.9198 -1.5858 -0.2667
12452SOL    HW238778   7.382   4.428   4.723  2.1346 -1.4193 -1.8019
12453SOL     OW38779   7.721   6.009   2.146 -0.1658 -0.5797  0.9418
12453SOL    HW138780   7.646   6.064   2.121 -0.2527 -1.3405 -0.5565
12453SOL    HW238781   7.693   5.965   2.226  0.0625  1.8260  2.4541
12454SOL     OW38782   0.263   3.965   6.564  1.3393  0.2802  0.1831
12454SOL    HW138783   0.322   3.998   6.631  2.2678  0.5354 -0.7250
12454SOL    HW238784   0.296   3.877   6.545  0.2821 -0.3040  0.9685
12455SOL     OW38785   3.907   6.177   7.528 -0.0355 -0.8395  0.3585
12455SOL    HW138786   3.950   6.227   7.458 -0.6001 -0.6543  0.1299
12455SOL    HW238787   3.816   6.170   7.498  0.3445 -3.3830 -0.3940
12456SOL     OW38788   9.224   6.855   4.445  0.8738 -0.2519 -0.0865
12456SOL    HW138789   9.281   6.874   4.519  0.3954 -0.9003  0.4595
12456SOL    HW238790   9.164   6.929   4.441 -0.2363 -1.0173  1.3030
12457SOL     OW38791   3.630   6.677   2.385 -0.8692  0.0009 -0.0730
12457SOL    HW138792   3.609   6.701   2.295 -0.0248  1.5403  0.1092
12457SOL    HW238793   3.723   6.698   2.395 -0.6416 -1.3006  0.8072
12458SOL     OW38794   0.463   2.389   2.573  0.1389 -0.3173  0.0463
12458SOL    HW138795   0.367   2.381   2.578  0.2056 -0.5579  1.1351
12458SOL    HW238796   0.493   2.372   2.662  1.4269 -3.3277 -0.8600
12459SOL     OW38797   8.501   2.497   1.903 -0.2242  0.0417  0.3480
12459SOL    HW138798   8.504   2.404   1.927 -1.5301  0.0319  0.5322
12459SOL    HW238799   8.567   2.538   1.960  0.6452 -0.8167 -0.0146
12460SOL     OW38800   2.469   1.960   7.013  0.4554  0.2394  0.2640
12460SOL    HW138801   2.395   1.924   6.964  0.1619  0.0673  0.8229
12460SOL    HW238802   2.435   1.972   7.102  1.1745 -0.0900  0.5909
12461SOL     OW38803   7.942   2.820   6.455  0.0841  0.3771 -0.0367
12461SOL    HW138804   7.922   2.734   6.417  2.5467 -0.0421 -0.5211
12461SOL    HW238805   8.000   2.862   6.391  1.3942  1.1357  1.5787
12462SOL     OW38806   8.903   3.016   3.074 -0.1925  0.4998 -0.1364
12462SOL    HW138807   8.912   2.943   3.013 -0.2259  0.8474 -0.5644
12462SOL    HW238808   8.813   3.047   3.062  0.0593  1.1041 -0.5318
12463SOL     OW38809   1.373   8.267   7.410 -0.1069  0.0473  0.5382
12463SOL    HW138810   1.332   8.206   7.471 -0.8641 -0.3839 -0.3713
12463SOL    HW238811   1.301   8.300   7.357  0.6764 -0.5587 -0.9628
12464SOL     OW38812   2.875   4.648   4.511 -0.1290  0.4301 -0.4827
12464SOL    HW138813   2.870   4.558   4.481  1.7684 -0.1332  0.7214
12464SOL    HW238814   2.817   4.651   4.588 -1.0665  0.5766 -1.1687
12465SOL     OW38815   1.120   2.841   5.946 -0.2396  0.0428 -0.2128
12465SOL    HW138816   1.208   2.809   5.930 -0.9684 -2.2251 -0.0238
12465SOL    HW238817   1.075   2.831   5.863 -0.8089 -0.5466  0.1580
12466SOL     OW38818   5.049   2.286   8.545  0.1196 -0.2887 -0.1157
12466SOL    HW138819   5.052   2.220   8.476 -0.3475 -0.7235  0.2803
12466SOL    HW238820   5.092   2.245   8.620  0.4059  0.0944 -0.0623
12467SOL     OW38821   5.791   1.374   1.959 -0.0278  0.2353 -0.4555
12467SOL    HW138822   5.760   1.436   1.893  1.6542  1.1010 -0.5115
12467SOL    HW238823   5.879   1.350   1.928  0.0005 -0.8730  0.4573
12468SOL     OW38824   0.158   4.107   2.634  0.0141 -0.1876 -0.0819
12468SOL    HW138825   0.171   4.029   2.579 -1.8971 -0.0390 -0.8007
12468SOL    HW238826   0.093   4.079   2.700  0.0556  0.5189  0.2627
12469SOL     OW38827   7.886   8.284   0.442 -0.3161  0.1228 -0.3511
12469SOL    HW138828   7.909   8.231   0.366 -0.8198  0.5919 -0.8510
12469SOL    HW238829   7.801   8.322   0.419 -1.0323 -0.6307  0.9294
12470SOL     OW38830   1.308   9.185   0.543 -0.1961  0.0081 -0.3326
12470SOL    HW138831   1.380   9.149   0.491 -1.5962 -0.7510 -1.8228
12470SOL    HW238832   1.292   9.272   0.504 -1.1137 -0.4792 -1.0722
12471SOL     OW38833   8.776   2.997   4.012 -0.1160  0.0035 -0.0864
12471SOL    HW138834   8.761   2.929   3.946 -1.5711  0.6304 -0.4401
12471SOL    HW238835   8.821   3.067   3.965  1.2849 -0.6331  0.2524
12472SOL     OW38836   7.312   7.175   5.122  0.3057 -0.3760  0.2858
12472SOL    HW138837   7.375   7.137   5.061  0.5826  0.4559  0.0440
12472SOL    HW238838   7.241   7.208   5.066  1.2302  1.7020  0.2302
12473SOL     OW38839   0.180   5.614   5.566  0.0366 -0.0023  0.0158
12473SOL    HW138840   0.146   5.669   5.495 -1.1227  0.1403  0.6634
12473SOL    HW238841   0.196   5.529   5.524  1.8619  0.7847 -0.9915
12474SOL     OW38842   0.216   4.337   7.479  0.1015  0.1880  0.5633
12474SOL    HW138843   0.283   4.405   7.468 -0.7539  0.9380 -0.2060
12474SOL    HW238844   0.198   4.337   7.573  1.2914 -0.1603  0.8178
12475SOL     OW38845   7.370   0.665   6.919 -0.1875 -0.4766  0.4026
12475SOL    HW138846   7.379   0.753   6.883  0.4501 -0.4149  0.7010
12475SOL    HW238847   7.294   0.671   6.977 -1.2087 -0.5725 -0.8795
12476SOL     OW38848   0.233   7.945   3.973  0.1543  0.7001 -0.1466
12476SOL    HW138849   0.223   7.850   3.978 -1.0520  0.6680 -2.0746
12476SOL    HW238850   0.149   7.980   4.003  1.3157  1.3286  2.7020
12477SOL     OW38851   9.251   0.255   2.565  0.5381  0.3274 -0.0666
12477SOL    HW138852   9.178   0.200   2.593  0.8197  0.4227  0.8775
12477SOL    HW238853   9.280   0.216   2.482  0.3585 -0.5926  0.2952
12478SOL     OW38854   1.077   3.262   2.119 -0.4225  0.0440 -0.0165
12478SOL    HW138855   0.995   3.213   2.111 -1.1030  0.9034  1.2651
12478SOL    HW238856   1.103   3.251   2.210  0.6854  0.1252 -0.3037
12479SOL     OW38857   7.605   6.645   1.561 -0.5482 -0.0964  0.5170
12479SOL    HW138858   7.657   6.703   1.617  0.2895  1.1019 -1.4043
12479SOL    HW238859   7.535   6.701   1.528 -0.2818 -0.4128 -0.6221
12480SOL     OW38860   8.065   0.361   0.441 -0.2238  0.4461 -0.5458
12480SOL    HW138861   8.066   0.372   0.536 -0.5140  0.5464 -0.5522
12480SOL    HW238862   7.973   0.375   0.416 -0.1266  0.5464 -0.8556
12481SOL     OW38863   0.055   2.565   1.029 -0.5581  0.2209  0.0238
12481SOL    HW138864   0.141   2.522   1.028 -0.2769  0.7572  0.1045
12481SOL    HW238865   0.050   2.609   0.944 -0.2429  1.1431  0.4683
12482SOL     OW38866   7.810   3.637   3.942  0.0434 -0.4764 -0.0650
12482SOL    HW138867   7.824   3.631   4.037  0.0563 -1.4808 -0.1246
12482SOL    HW238868   7.771   3.553   3.918  0.2189 -0.3037 -0.9841
12483SOL     OW38869   5.789   4.421   5.165  0.3151 -0.4394  0.7039
12483SOL    HW138870   5.840   4.495   5.130  0.0557 -0.3064  0.6084
12483SOL    HW238871   5.856   4.357   5.189  0.6563  0.4779  2.3384
12484SOL     OW38872   6.336   2.372   3.057  0.2438  0.2537  0.5484
12484SOL    HW138873   6.395   2.300   3.082  2.6650  2.2631  1.0371
12484SOL    HW238874   6.339   2.432   3.132 -1.9830  0.7403  0.3046
12485SOL     OW38875   5.516   6.954   7.377  0.2181 -0.1725 -0.5530
12485SOL    HW138876   5.464   6.891   7.427 -1.9300 -0.1165 -2.5229
12485SOL    HW238877   5.566   6.901   7.316  0.6265 -0.0876 -0.2986
12486SOL     OW38878   8.976   7.935   0.028 -0.0308  0.6118  0.3496
12486SOL    HW138879   9.043   8.003   0.031 -0.2932  0.8391  1.2543
12486SOL    HW238880   9.021   7.855   0.052 -0.3164  0.9747  2.2746
12487SOL     OW38881   0.568   2.736   4.430 -0.3397  0.0868 -0.0887
12487SOL    HW138882   0.538   2.646   4.418 -2.2511  0.4221  1.7389
12487SOL    HW238883   0.520   2.787   4.364 -0.7272  0.0413  0.1570
12488SOL     OW38884   3.441   7.974   1.539  0.3462  0.4836 -0.1773
12488SOL    HW138885   3.396   7.890   1.539  0.0519  0.6285 -0.9789
12488SOL    HW238886   3.521   7.959   1.489 -0.6502  1.1303 -2.0792
12489SOL     OW38887   4.148   6.673   3.145 -0.0988  0.2073  0.0264
12489SOL    HW138888   4.070   6.729   3.140 -1.2094 -1.2393  0.4620
12489SOL    HW238889   4.114   6.587   3.172  1.4305 -0.9452 -1.5129
12490SOL     OW38890   4.696   2.042   0.905 -0.1026 -0.2043 -0.1923
12490SOL    HW138891   4.605   2.035   0.936 -0.5214  1.5046 -0.9195
12490SOL    HW238892   4.731   1.954   0.915 -0.8965 -0.2838  2.9091
12491SOL     OW38893   4.427   5.447   8.053  0.2017 -0.1321  0.1574
12491SOL    HW138894   4.430   5.378   7.987  1.8121  0.6354 -0.6229
12491SOL    HW238895   4.428   5.529   8.003 -0.5901  0.4748  1.0897
12492SOL     OW38896   5.247   1.298   4.377  0.1290  0.1110  0.4910
12492SOL    HW138897   5.309   1.236   4.416  1.1916  0.0171 -1.2435
12492SOL    HW238898   5.189   1.243   4.323  0.3169  0.4866 -0.1017
12493SOL     OW38899   6.880   8.476   5.874 -0.1591  0.2331 -0.3218
12493SOL    HW138900   6.856   8.383   5.868 -1.0584  0.4153  0.3855
12493SOL    HW238901   6.896   8.490   5.967  2.2604  0.2439 -0.6748
12494SOL     OW38902   4.824   6.727   2.203  0.0060 -0.5433  0.1349
12494SOL    HW138903   4.793   6.647   2.162  0.4512 -0.6719  0.0410
12494SOL    HW238904   4.809   6.795   2.137  0.4633 -0.7042 -0.1429
12495SOL     OW38905   4.418   6.993   8.489 -0.2643  0.1734  0.0825
12495SOL    HW138906   4.446   7.084   8.497 -2.4970  0.9826 -0.4483
12495SOL    HW238907   4.461   6.961   8.410 -0.8104  1.3594 -0.7349
12496SOL     OW38908   6.708   7.239   1.662 -0.5610  0.3444  0.1019
12496SOL    HW138909   6.701   7.145   1.645  0.4190  0.0339  1.2639
12496SOL    HW238910   6.621   7.264   1.693 -1.5510  0.3564 -2.4320
12497SOL     OW38911   1.988   8.032   0.361 -0.2187  0.3175 -0.1281
12497SOL    HW138912   1.967   7.959   0.419 -0.3269 -0.6594 -1.3404
12497SOL    HW238913   2.029   7.990   0.285 -3.0315  1.1124 -2.2735
12498SOL     OW38914   3.580   8.887   3.817  0.2326  0.3398  0.0664
12498SOL    HW138915   3.671   8.885   3.789  0.1830  1.7627 -0.3297
12498SOL    HW238916   3.543   8.804   3.788  1.6163 -0.6539  1.0777
12499SOL     OW38917   8.767   1.242   7.256  0.0690 -1.1103  0.0275
12499SOL    HW138918   8.769   1.171   7.191 -1.2497 -0.2909 -0.9533
12499SOL    HW238919   8.853   1.238   7.298  1.2365 -1.2397 -2.2404
12500SOL     OW38920   6.185   3.239   4.825  0.1859  0.4994  0.2660
12500SOL    HW138921   6.179   3.243   4.920  1.8395  0.4505  0.3974
12500SOL    HW238922   6.228   3.321   4.799  0.9067 -0.0436 -0.3086
12501SOL     OW38923   4.916   9.230   1.081 -0.6434  0.5041 -0.0850
12501SOL    HW138924   4.910   9.154   1.139 -0.4861 -0.0906 -0.8314
12501SOL    HW238925   4.955   9.196   1.000  0.0470  1.5087 -0.2031
12502SOL     OW38926   0.427   4.616   4.940  0.1318  0.4893  0.0173
12502SOL    HW138927   0.521   4.637   4.946  0.0091  1.0774 -0.0481
12502SOL    HW238928   0.390   4.652   5.021  0.2477 -1.3790  0.9570
12503SOL     OW38929   6.255   3.800   3.224  0.6147 -0.2241  0.0943
12503SOL    HW138930   6.307   3.858   3.167  2.5626 -0.7570  1.2630
12503SOL    HW238931   6.236   3.854   3.301  0.4586 -0.4266  0.1965
12504SOL     OW38932   3.159   0.861   1.502 -0.3300  0.3554  0.2132
12504SOL    HW138933   3.246   0.896   1.519  1.1474 -2.6574 -0.3389
12504SOL    HW238934   3.155   0.854   1.406 -0.8366 -0.2286  0.2713
12505SOL     OW38935   0.235   4.044   2.126  0.1008  0.0683 -0.9592
12505SOL    HW138936   0.157   4.076   2.171  0.6968  1.0445 -0.5753
12505SOL    HW238937   0.205   3.971   2.073 -0.6873 -0.9853  0.8601
12506SOL     OW38938   8.054   7.092   0.638  0.2460  0.0271 -0.3668
12506SOL    HW138939   8.045   7.148   0.714  1.6863 -0.4177  0.1712
12506SOL    HW238940   8.079   7.006   0.674  1.9851  0.0659 -1.3315
12507SOL     OW38941   6.694   5.402   0.600 -0.5723  0.1280 -0.5617
12507SOL    HW138942   6.635   5.429   0.671  0.7499  0.4284  0.4558
12507SOL    HW238943   6.710   5.309   0.616  0.8160  0.5001  0.3891
12508SOL     OW38944   2.809   8.646   7.088 -0.3913  0.2102 -0.2344
12508SOL    HW138945   2.743   8.705   7.051  0.4732  0.9401 -0.6356
12508SOL    HW238946   2.875   8.638   7.019 -0.4053 -1.0988 -0.1188
12509SOL     OW38947   2.954   4.661   2.314 -0.3234  0.0732  0.0764
12509SOL    HW138948   2.905   4.740   2.333 -1.8795 -0.3539 -1.8725
12509SOL    HW238949   2.989   4.674   2.226  2.8502  0.1960  1.2242
12510SOL     OW38950   3.405   0.457   7.663  0.3901 -0.1008 -0.5073
12510SOL    HW138951   3.348   0.383   7.683  0.5046 -0.3633 -1.1362
12510SOL    HW238952   3.473   0.421   7.605  0.8972  0.3205 -0.1913
12511SOL     OW38953   5.712   5.428   2.882  0.5563  0.0588  0.2151
12511SOL    HW138954   5.660   5.348   2.873  0.4546  0.2217 -0.7477
12511SOL    HW238955   5.751   5.421   2.969  0.4319 -0.9655  0.2060
12512SOL     OW38956   7.768   1.056   6.947  0.3052  0.4763 -0.5185
12512SOL    HW138957   7.826   0.999   6.896 -0.1315  1.1027 -1.7622
12512SOL    HW238958   7.806   1.056   7.035  0.7706 -1.0802 -0.6895
12513SOL     OW38959   1.195   1.042   7.850 -0.1848  0.0182  0.6485
12513SOL    HW138960   1.242   1.122   7.874 -0.1125  0.1378  0.1137
12513SOL    HW238961   1.102   1.066   7.860 -0.1907  0.4329 -0.3105
12514SOL     OW38962   1.783   6.876   0.478 -0.2284 -0.1989 -0.0603
12514SOL    HW138963   1.878   6.884   0.473 -0.0138 -1.4851  1.3378
12514SOL    HW238964   1.763   6.797   0.428 -0.4281 -0.5780  0.6052
12515SOL     OW38965   3.170   7.175   2.083  0.4784 -0.4752 -0.1194
12515SOL    HW138966   3.198   7.100   2.031  1.3926 -1.5390  1.7884
12515SOL    HW238967   3.185   7.251   2.026  1.6321 -1.5540 -1.3191
12516SOL     OW38968   0.301   2.450   7.750  0.2254  0.5155  0.2187
12516SOL    HW138969   0.327   2.441   7.842 -0.5373 -0.1601  0.3764
12516SOL    HW238970   0.209   2.476   7.753  0.5352  1.7696 -0.3508
12517SOL     OW38971   1.971   4.764   7.734  0.7899  0.1003  0.5624
12517SOL    HW138972   2.057   4.768   7.775 -0.6876  2.2907  3.8292
12517SOL    HW238973   1.987   4.786   7.642  3.5647  1.8336  1.3526
12518SOL     OW38974   7.676   6.141   0.445 -0.2651 -0.4193  0.1716
12518SOL    HW138975   7.682   6.046   0.452 -2.2017 -0.5578  0.4564
12518SOL    HW238976   7.630   6.157   0.363  0.4700  0.3112 -0.1199
12519SOL     OW38977   6.522   6.157   4.006 -0.0893 -0.2265 -0.3074
12519SOL    HW138978   6.460   6.229   3.999 -1.3670 -1.2488  0.0140
12519SOL    HW238979   6.474   6.089   4.053  0.4864 -1.8869 -1.9672
12520SOL     OW38980   1.796   8.039   5.873 -0.2324  0.3787  0.0425
12520SOL    HW138981   1.854   8.071   5.943 -0.3064 -0.2160  0.3777
12520SOL    HW238982   1.816   7.946   5.867  0.9410  0.7020 -1.8281
12521SOL     OW38983   6.717   6.205   1.938 -0.2438 -0.3044  0.1144
12521SOL    HW138984   6.697   6.213   2.031  0.8858 -1.0276  0.4409
12521SOL    HW238985   6.786   6.269   1.922  0.8759 -1.4392  0.2177
12522SOL     OW38986   6.800   1.417   0.548 -0.0250 -0.0124 -0.1770
12522SOL    HW138987   6.821   1.361   0.474 -0.6391 -0.5738  0.0602
12522SOL    HW238988   6.857   1.493   0.538  1.4646 -1.0795 -0.0190
12523SOL     OW38989   0.167   3.234   7.805  0.3758 -0.6090  0.5117
12523SOL    HW138990   0.151   3.176   7.879 -0.3848 -0.3337  0.5665
12523SOL    HW238991   0.206   3.178   7.738 -0.9667 -1.3344  0.3169
12524SOL     OW38992   1.869   7.746   3.855 -0.1749  0.0352 -0.1102
12524SOL    HW138993   1.873   7.842   3.852  2.8167 -0.0099 -1.8661
12524SOL    HW238994   1.959   7.718   3.838 -0.9370 -3.1136  0.4504
12525SOL     OW38995   1.166   3.643   3.555  0.1903 -0.1093 -0.5174
12525SOL    HW138996   1.173   3.729   3.514  0.7309  0.8065  1.3754
12525SOL    HW238997   1.212   3.584   3.495  1.1640  1.1900 -1.1104
12526SOL     OW38998   5.722   2.141   8.342 -0.1251 -0.3084  0.2777
12526SOL    HW138999   5.786   2.188   8.288 -1.0354 -0.2394 -0.7727
12526SOL    HW239000   5.684   2.208   8.398 -2.5547  0.6578 -2.2951
12527SOL     OW39001   2.824   4.904   2.371  0.7371  0.1326 -0.2200
12527SOL    HW139002   2.764   4.979   2.378  2.0075  1.3571 -1.6854
12527SOL    HW239003   2.833   4.872   2.460 -1.1277  0.6874  0.2059
12528SOL     OW39004   2.042   0.340   2.809 -0.0804  0.7774 -0.3212
12528SOL    HW139005   2.065   0.320   2.719 -0.4698  1.3513 -0.5570
12528SOL    HW239006   2.079   0.427   2.825  0.4047  0.4777  0.2319
12529SOL     OW39007   3.246   8.907   1.881  0.4767  0.6729  0.3411
12529SOL    HW139008   3.311   8.877   1.944  2.2462  0.6335 -1.4170
12529SOL    HW239009   3.191   8.968   1.930  0.3069 -1.1004  2.4977
12530SOL     OW39010   5.788   3.403   9.101 -0.0544  0.1564  0.1275
12530SOL    HW139011   5.836   3.466   9.154  1.0529  0.1177 -0.7835
12530SOL    HW239012   5.852   3.371   9.037 -1.0415 -0.6246 -0.5171
12531SOL     OW39013   7.019   5.925   5.063  0.5860  0.3445  0.1555
12531SOL    HW139014   7.077   5.957   5.131  2.1084  0.6850 -1.2537
12531SOL    HW239015   7.077   5.896   4.993 -0.9341  0.3448 -1.1651
12532SOL     OW39016   4.521   9.225   5.610 -0.0519  0.6342 -0.3249
12532SOL    HW139017   4.567   9.187   5.535  1.2298  0.3788  0.5622
12532SOL    HW239018   4.476   9.151   5.651 -0.6398  0.7514 -0.7349
12533SOL     OW39019   6.656   1.070   8.782  0.4481 -0.1050  0.1506
12533SOL    HW139020   6.651   1.147   8.725 -2.7475 -0.6802 -0.5120
12533SOL    HW239021   6.695   1.002   8.728 -1.4063 -0.2994 -1.0009
12534SOL     OW39022   2.684   8.840   8.826  0.0577 -0.0386 -0.5961
12534SOL    HW139023   2.724   8.890   8.897 -0.2322 -0.7765  0.1042
12534SOL    HW239024   2.624   8.901   8.784 -0.5810  0.0995  0.4958
12535SOL     OW39025   7.896   1.358   6.010  0.0371  0.2710 -0.2626
12535SOL    HW139026   7.848   1.424   5.960 -1.6817 -0.5233  0.2468
12535SOL    HW239027   7.836   1.283   6.014  1.2571 -0.7038  0.6016
12536SOL     OW39028   1.119   7.657   1.293  0.3211  0.4134  0.0195
12536SOL    HW139029   1.052   7.594   1.267  0.6809  0.0776 -0.0998
12536SOL    HW239030   1.073   7.741   1.297 -0.4159 -0.0316  1.2892
12537SOL     OW39031   5.060   5.436   3.637  0.0614 -0.2364  0.0067
12537SOL    HW139032   5.086   5.379   3.565 -0.3464  1.9259 -1.9815
12537SOL    HW239033   5.004   5.502   3.596 -1.4054  0.2783  2.5927
12538SOL     OW39034   8.908   5.631   0.240  0.1751 -0.3197  0.0732
12538SOL    HW139035   8.848   5.705   0.246  0.2510 -0.2772  0.3230
12538SOL    HW239036   8.851   5.554   0.233  0.0463 -0.4114  1.6724
12539SOL     OW39037   0.300   2.770   1.307  0.2816 -0.1629 -0.1172
12539SOL    HW139038   0.386   2.791   1.341 -0.1908  0.6983  0.5938
12539SOL    HW239039   0.258   2.718   1.375 -0.9405  2.1949  1.0495
12540SOL     OW39040   5.014   0.156   5.814  0.1156 -0.2083  0.2926
12540SOL    HW139041   5.057   0.078   5.778 -0.8319 -1.0661  0.9574
12540SOL    HW239042   4.923   0.149   5.786 -0.4429 -0.4176  2.0247
12541SOL     OW39043   1.995   0.564   2.197 -0.3175 -0.0052  0.0329
12541SOL    HW139044   2.055   0.490   2.188 -1.2167 -0.9813  1.4799
12541SOL    HW239045   1.919   0.539   2.144 -1.0365 -0.6250  1.3082
12542SOL     OW39046   3.642   4.721   6.950 -0.0661  0.2388 -0.5881
12542SOL    HW139047   3.665   4.651   7.010  1.6751 -0.1087 -1.5721
12542SOL    HW239048   3.605   4.790   7.005  3.2621  0.7534  1.2385
12543SOL     OW39049   6.212   5.148   0.542 -0.2550  0.3214 -0.0829
12543SOL    HW139050   6.213   5.074   0.603  0.2259  0.0468 -0.4101
12543SOL    HW239051   6.129   5.139   0.495 -0.4088  0.2575  0.1964
12544SOL     OW39052   2.341   3.177   4.259  0.3310 -0.0877 -0.4500
12544SOL    HW139053   2.261   3.191   4.207 -0.7692  0.5826  1.3362
12544SOL    HW239054   2.400   3.247   4.230  0.8386 -1.3457 -2.7123
12545SOL     OW39055   2.156   6.925   7.166 -0.3013  0.6788  0.2254
12545SOL    HW139056   2.119   6.845   7.128  0.3154  0.8995 -0.8700
12545SOL    HW239057   2.145   6.992   7.099  1.7511  0.8421 -0.0249
12546SOL     OW39058   5.956   6.119   0.075 -0.3870  0.5028  0.2704
12546SOL    HW139059   6.003   6.180   0.132 -0.9401  0.7562  0.4636
12546SOL    HW239060   5.909   6.062   0.135  0.1620 -0.1467  0.0907
12547SOL     OW39061   9.266   1.580   4.138  0.5094  0.5481  0.4402
12547SOL    HW139062   9.329   1.631   4.189  0.4800  0.4860  0.5389
12547SOL    HW239063   9.275   1.612   4.049  2.3747 -1.0525 -0.0320
12548SOL     OW39064   2.524   5.902   4.067  0.4846  0.0713  0.1732
12548SOL    HW139065   2.615   5.890   4.040  1.1992  0.0386  2.3638
12548SOL    HW239066   2.514   5.996   4.079  0.4292  0.0210  0.5412
12549SOL     OW39067   6.756   8.672   7.112 -0.3116 -0.5875 -0.5052
12549SOL    HW139068   6.756   8.764   7.086  0.0932 -0.0292  1.3431
12549SOL    HW239069   6.830   8.634   7.064  0.2042  0.3174 -0.4620
12550SOL     OW39070   9.080   8.529   8.368 -0.3232 -0.0133 -0.6263
12550SOL    HW139071   9.131   8.539   8.288 -2.1579  0.2379 -1.8285
12550SOL    HW239072   9.036   8.614   8.379  1.7809  0.8804  2.0985
12551SOL     OW39073   4.083   5.080   2.738  0.3049 -0.3182 -0.2560
12551SOL    HW139074   4.067   5.135   2.814 -1.5877  1.6218 -1.9262
12551SOL    HW239075   4.031   5.002   2.753 -0.5488  0.3165  0.2045
12552SOL     OW39076   2.362   3.094   1.763 -0.4014 -0.4350  0.8817
12552SOL    HW139077   2.440   3.082   1.708 -0.8067 -2.6065  0.6772
12552SOL    HW239078   2.367   3.185   1.793  1.0488  0.1257 -0.8791
12553SOL     OW39079   0.844   1.185   4.428  0.2821 -0.1259 -0.4004
12553SOL    HW139080   0.764   1.132   4.418  0.6819 -0.6372 -0.9331
12553SOL    HW239081   0.838   1.251   4.360 -0.6481  1.0917  0.8224
12554SOL     OW39082   6.990   1.310   5.538  0.1227 -0.1180  0.1495
12554SOL    HW139083   6.955   1.271   5.458 -2.1196  0.8328  0.5905
12554SOL    HW239084   7.019   1.235   5.590 -0.7164 -0.9364 -0.5291
12555SOL     OW39085   8.070   1.993   8.750  0.1911  0.5492 -0.0437
12555SOL    HW139086   8.022   2.058   8.801 -1.1449  0.0423 -0.6219
12555SOL    HW239087   8.088   1.922   8.812  0.9040  1.0703  0.3681
12556SOL     OW39088   1.311   3.507   7.799  0.0209 -0.0621 -0.2782
12556SOL    HW139089   1.311   3.532   7.891 -2.8125  1.2558 -0.5278
12556SOL    HW239090   1.341   3.585   7.752 -0.6184  0.0103 -0.5766
12557SOL     OW39091   7.621   2.312   0.109 -0.3578 -0.2385  0.5421
12557SOL    HW139092   7.660   2.290   0.025  0.3976 -0.5003  0.9541
12557SOL    HW239093   7.694   2.342   0.163 -1.0060  1.0764  0.7427
12558SOL     OW39094   0.173   5.327   4.159 -0.0867  0.3887  0.0283
12558SOL    HW139095   0.180   5.328   4.063  2.6168 -0.1802  0.1543
12558SOL    HW239096   0.172   5.234   4.182  1.0043  0.5106  0.6145
12559SOL     OW39097   2.624   1.132   8.740  0.1361  0.3917  0.3609
12559SOL    HW139098   2.618   1.059   8.679  0.1414 -0.4368  1.3281
12559SOL    HW239099   2.716   1.135   8.765 -0.1468 -0.3045  1.5439
12560SOL     OW39100   4.039   5.243   0.457  0.3177 -0.4903  0.0972
12560SOL    HW139101   3.995   5.203   0.382  0.6104 -0.8260  0.1034
12560SOL    HW239102   4.099   5.175   0.488  1.0950  0.0866 -0.1242
12561SOL     OW39103   1.380   6.978   3.899  0.3422 -0.0417  0.3277
12561SOL    HW139104   1.453   7.040   3.899  1.4097 -1.2379 -0.8947
12561SOL    HW239105   1.363   6.962   3.992  3.5234 -1.8106  0.7372
12562SOL     OW39106   1.050   8.101   6.697  0.2312  0.0375  0.1724
12562SOL    HW139107   1.019   8.132   6.782  1.4802  0.4911  0.4898
12562SOL    HW239108   1.076   8.010   6.712 -1.4536 -0.5381 -0.2420
12563SOL     OW39109   2.390   6.747   8.081  0.3245  0.3043  0.0656
12563SOL    HW139110   2.395   6.723   8.174  1.4480 -1.2100 -0.3278
12563SOL    HW239111   2.460   6.811   8.069  1.0062 -0.4279  0.0400
12564SOL     OW39112   0.514   2.021   5.252 -0.5947 -0.7449 -0.2004
12564SOL    HW139113   0.527   2.109   5.288  0.8225  0.4107 -3.2295
12564SOL    HW239114   0.565   1.965   5.310  2.1878  1.1194 -0.6356
12565SOL     OW39115   0.155   3.822   5.381 -0.3786 -0.1943 -0.4232
12565SOL    HW139116   0.237   3.869   5.364 -0.5195 -0.5063 -2.1752
12565SOL    HW239117   0.173   3.732   5.354 -0.1215 -1.2813  2.8847
12566SOL     OW39118   4.169   0.670   1.533 -0.2805 -1.0948  0.3221
12566SOL    HW139119   4.247   0.644   1.582 -1.0774 -1.7614  1.2606
12566SOL    HW239120   4.195   0.663   1.441  0.6336 -1.7192  0.6169
12567SOL     OW39121   1.660   3.333   8.960 -0.4695  0.3495  0.3267
12567SOL    HW139122   1.679   3.251   9.005  1.9527 -0.3313 -1.7137
12567SOL    HW239123   1.582   3.315   8.909  0.4802 -1.0053 -0.7140
12568SOL     OW39124   0.816   1.920   3.907 -0.8273 -0.0321  0.0375
12568SOL    HW139125   0.786   1.900   3.996  0.6981  0.1208  0.6173
12568SOL    HW239126   0.817   2.015   3.903  1.2205  0.0266  0.6708
12569SOL     OW39127   2.851   7.500   6.773 -0.1988 -0.4250  0.0621
12569SOL    HW139128   2.823   7.451   6.696 -0.7544 -1.7332  1.0679
12569SOL    HW239129   2.925   7.552   6.742 -0.2981 -1.0527 -1.3100
12570SOL     OW39130   1.554   7.968   5.704  0.0715  0.4570  0.1278
12570SOL    HW139131   1.488   7.984   5.637 -0.4100  0.4562  0.5951
12570SOL    HW239132   1.596   7.886   5.678 -0.8491 -0.1142  0.4049
12571SOL     OW39133   9.137   2.912   0.749  0.2455 -0.0105 -0.0774
12571SOL    HW139134   9.132   3.007   0.743  2.0353  0.0948 -0.4408
12571SOL    HW239135   9.061   2.887   0.802 -0.2664  1.6059 -0.0058
12572SOL     OW39136   8.762   0.604   3.749 -0.1214  0.1292  0.0774
12572SOL    HW139137   8.789   0.589   3.659 -1.8527  0.8339 -0.6005
12572SOL    HW239138   8.829   0.661   3.785  1.0292 -0.8184 -0.4783
12573SOL     OW39139   2.145   8.123   3.576 -0.1002 -0.0733 -0.2179
12573SOL    HW139140   2.146   8.027   3.584 -0.4101 -0.0269  0.4440
12573SOL    HW239141   2.228   8.144   3.534  0.6306 -0.5301  0.9557
12574SOL     OW39142   7.759   9.114   7.108  0.0405  0.4774 -0.3848
12574SOL    HW139143   7.809   9.192   7.084 -0.6805  1.5133  1.3321
12574SOL    HW239144   7.685   9.113   7.048  0.5094  0.6014 -0.9775
12575SOL     OW39145   8.880   3.345   2.736 -0.2487  0.4022 -0.4369
12575SOL    HW139146   8.851   3.413   2.796  0.2422 -2.3431  3.2928
12575SOL    HW239147   8.975   3.339   2.750  0.0610  0.2980 -2.2987
12576SOL     OW39148   2.111   3.198   4.475  0.1662  0.4231 -0.0266
12576SOL    HW139149   2.160   3.221   4.554 -0.9878 -0.1376  0.8825
12576SOL    HW239150   2.177   3.159   4.417  0.7981 -0.3330  1.1623
12577SOL     OW39151   8.489   6.023   5.409 -0.1052  0.0312 -0.1743
12577SOL    HW139152   8.445   5.982   5.484 -2.2582  2.0211 -0.2176
12577SOL    HW239153   8.431   6.096   5.385  2.8895  2.3990 -0.7847
12578SOL     OW39154   6.536   8.406   4.340  0.3376 -0.1811 -0.3180
12578SOL    HW139155   6.442   8.387   4.346  0.3644 -0.8987 -1.7373
12578SOL    HW239156   6.578   8.343   4.398 -0.0877  0.7974  1.1243
12579SOL     OW39157   0.768   7.375   7.914 -0.1855  0.5789  0.2582
12579SOL    HW139158   0.762   7.280   7.918  1.1158  0.4237 -0.5927
12579SOL    HW239159   0.773   7.395   7.820 -2.0271  1.6320  0.3319
12580SOL     OW39160   0.801   3.328   0.414 -0.1091 -0.2426  0.2431
12580SOL    HW139161   0.873   3.377   0.374 -0.4715 -1.5186 -2.1678
12580SOL    HW239162   0.835   3.302   0.500  1.8390  0.2563 -0.3230
12581SOL     OW39163   7.839   8.137   6.108  0.1760  0.0323 -0.7601
12581SOL    HW139164   7.867   8.157   6.019  1.4749  0.1516 -0.3471
12581SOL    HW239165   7.745   8.157   6.109  0.1077 -0.1419 -2.1398
12582SOL     OW39166   6.449   2.071   8.742 -0.1041 -0.3336  0.4490
12582SOL    HW139167   6.539   2.075   8.774 -0.5220  0.3036  1.6344
12582SOL    HW239168   6.406   2.147   8.783 -0.8065  0.2438 -1.2863
12583SOL     OW39169   4.799   6.831   4.676  0.2838  0.6629 -0.7221
12583SOL    HW139170   4.707   6.834   4.704  0.4016 -0.3441 -0.1941
12583SOL    HW239171   4.795   6.846   4.581 -0.4737  0.2295 -0.7686
12584SOL     OW39172   4.125   7.937   8.474 -0.3085  0.2249 -0.7397
12584SOL    HW139173   4.160   7.998   8.540 -2.1169 -0.6263  1.1014
12584SOL    HW239174   4.198   7.878   8.455  0.3461  0.6844  0.2636
12585SOL     OW39175   0.505   3.209   5.223 -0.0477 -0.1637  0.3648
12585SOL    HW139176   0.582   3.153   5.227  0.1928  0.1973  0.9121
12585SOL    HW239177   0.463   3.187   5.140  1.3144  0.5084 -0.5346
12586SOL     OW39178   4.636   2.615   8.210  0.1278 -0.4520 -0.3080
12586SOL    HW139179   4.640   2.620   8.306  0.9965 -0.6410 -0.3312
12586SOL    HW239180   4.689   2.538   8.188 -0.2881 -0.5666 -0.9254
12587SOL     OW39181   7.483   5.001   7.921 -0.7481 -0.5563 -0.1134
12587SOL    HW139182   7.478   4.908   7.946 -1.3948 -0.0977  1.5558
12587SOL    HW239183   7.577   5.018   7.911 -0.4891 -0.9107  1.5241
12588SOL     OW39184   1.374   4.362   6.849 -0.2388  0.0168  0.0055
12588SOL    HW139185   1.313   4.435   6.840  2.2728  2.0938 -1.4640
12588SOL    HW239186   1.360   4.309   6.771 -1.8789 -1.0550  0.9480
12589SOL     OW39187   7.169   3.596   3.905 -0.3351  0.2396  0.0661
12589SOL    HW139188   7.169   3.627   3.995  0.4048 -0.3941  0.2924
12589SOL    HW239189   7.261   3.590   3.882 -0.5208  0.7683 -0.8718
12590SOL     OW39190   6.906   1.549   4.045  0.1163  0.1492 -0.2982
12590SOL    HW139191   6.884   1.551   3.952  0.6922  0.2345 -0.4347
12590SOL    HW239192   6.859   1.624   4.082 -1.3427 -0.7513 -0.2312
12591SOL     OW39193   3.619   4.863   9.024 -0.0059  0.4395  0.4597
12591SOL    HW139194   3.710   4.841   9.001  0.0248  1.2625 -0.2813
12591SOL    HW239195   3.626   4.948   9.067 -0.5105  1.0395 -0.5876
12592SOL     OW39196   7.301   8.141   3.269 -0.0056  0.0765  0.3170
12592SOL    HW139197   7.293   8.159   3.175  0.7134  1.0382  0.4173
12592SOL    HW239198   7.288   8.047   3.277  0.4568 -0.1003 -0.8161
12593SOL     OW39199   4.398   7.466   7.100  0.0067  0.6274 -0.3670
12593SOL    HW139200   4.473   7.511   7.138  1.0360  0.0068 -1.6082
12593SOL    HW239201   4.400   7.488   7.007 -1.7402  1.1205 -0.3238
12594SOL     OW39202   0.144   8.877   8.707 -0.0264  0.5718 -0.3393
12594SOL    HW139203   0.182   8.910   8.788 -0.1274 -0.4238  0.1192
12594SOL    HW239204   0.157   8.949   8.644 -0.2208  1.4704  0.6178
12595SOL     OW39205   3.651   3.151   5.621 -0.0538 -0.7585 -0.3895
12595SOL    HW139206   3.680   3.155   5.712 -2.9316  1.4375  0.6033
12595SOL    HW239207   3.652   3.242   5.592 -0.6072 -1.2599 -2.0531
12596SOL     OW39208   0.815   8.086   4.254 -0.1109 -0.7846 -0.5093
12596SOL    HW139209   0.797   8.173   4.291 -1.7011  0.2814 -3.4317
12596SOL    HW239210   0.738   8.035   4.277  0.8107 -1.4971  1.1809
12597SOL     OW39211   3.569   8.476   0.049 -0.4264  0.2795 -0.1643
12597SOL    HW139212   3.568   8.386   0.081 -0.7391 -0.0413 -1.0561
12597SOL    HW239213   3.661   8.496   0.037 -0.3698 -0.0221 -0.2405
12598SOL     OW39214   4.692   5.245   3.406 -0.0488 -0.3022 -0.0917
12598SOL    HW139215   4.734   5.187   3.470 -1.2375  2.0452  3.1433
12598SOL    HW239216   4.600   5.243   3.430 -0.7877 -0.2297 -2.6643
12599SOL     OW39217   1.964   8.420   6.334 -0.2703 -0.9644  0.2390
12599SOL    HW139218   1.915   8.483   6.387 -1.4394 -0.5334 -1.2958
12599SOL    HW239219   2.003   8.473   6.264 -0.1757 -1.7606 -0.3171
12600SOL     OW39220   5.681   0.564   8.122 -0.3475  0.0553 -0.4570
12600SOL    HW139221   5.595   0.559   8.165  0.3646 -0.4203  0.9434
12600SOL    HW239222   5.677   0.645   8.072 -1.5802  0.0937 -0.3420
12601SOL     OW39223   0.242   8.374   7.148  0.0166  0.4776 -0.3774
12601SOL    HW139224   0.191   8.303   7.109  1.5819 -0.2154 -1.2199
12601SOL    HW239225   0.240   8.444   7.083  1.2690 -0.0667 -1.0143
12602SOL     OW39226   3.976   2.856   8.721 -0.3697  0.1264  0.0685
12602SOL    HW139227   3.932   2.798   8.660 -0.2226  0.5198 -0.4182
12602SOL    HW239228   4.016   2.798   8.786 -3.0640 -0.2179  1.5850
12603SOL     OW39229   4.173   3.728   6.939  0.2933 -0.5878 -0.0588
12603SOL    HW139230   4.248   3.670   6.957  1.0104  0.6669  1.2146
12603SOL    HW239231   4.096   3.673   6.955  0.9497 -1.2155  1.1276
12604SOL     OW39232   4.330   6.532   2.930  0.3434  0.4315 -0.0170
12604SOL    HW139233   4.284   6.615   2.917 -0.1215 -0.0061 -1.3597
12604SOL    HW239234   4.407   6.538   2.873 -1.4023 -1.3051 -2.7518
12605SOL     OW39235   9.065   6.188   2.587 -0.3853 -0.1297  0.5756
12605SOL    HW139236   9.149   6.158   2.620  0.0333 -1.1262 -1.3091
12605SOL    HW239237   9.083   6.220   2.499 -2.1241 -1.2810 -0.2456
12606SOL     OW39238   3.169   0.274   7.739  0.7400  0.5894  0.0821
12606SOL    HW139239   3.096   0.212   7.748  0.5948  0.8167  0.5148
12606SOL    HW239240   3.247   0.220   7.751  0.6976  0.1487 -1.4566
12607SOL     OW39241   1.977   4.295   4.542  0.0704 -0.2986  0.0697
12607SOL    HW139242   1.985   4.208   4.504  1.2625 -0.2394  0.1334
12607SOL    HW239243   2.063   4.335   4.527 -1.0797  1.6518 -1.8354
12608SOL     OW39244   8.053   4.716   0.668 -0.0729  0.1076 -0.3613
12608SOL    HW139245   8.043   4.647   0.602  2.3114 -0.5053 -0.1549
12608SOL    HW239246   8.041   4.797   0.618  0.0718 -0.3781 -1.2108
12609SOL     OW39247   1.749   6.640   3.336 -0.2780 -0.2180 -0.8814
12609SOL    HW139248   1.771   6.733   3.344  0.9075 -0.5250 -0.4781
12609SOL    HW239249   1.783   6.600   3.416 -0.7520 -1.0174 -1.0669
12610SOL     OW39250   8.064   0.373   8.258 -0.3339  0.0105 -0.1103
12610SOL    HW139251   7.993   0.434   8.237 -0.2414  0.0736 -0.2407
12610SOL    HW239252   8.134   0.396   8.197  0.5633  1.3169  1.3557
12611SOL     OW39253   7.077   1.109   9.134  0.0694  0.0300  0.3232
12611SOL    HW139254   7.009   1.149   9.078  2.2732 -0.1124 -2.7094
12611SOL    HW239255   7.093   1.174   9.202 -0.5742  1.6875 -1.0263
12612SOL     OW39256   6.580   0.661   2.880 -0.3855 -0.0939 -0.1754
12612SOL    HW139257   6.515   0.598   2.911 -1.6226  1.0394 -0.3266
12612SOL    HW239258   6.664   0.626   2.908 -0.7527 -3.0421 -2.3557
12613SOL     OW39259   4.268   0.625   7.807  0.5839 -0.5588 -0.3604
12613SOL    HW139260   4.181   0.585   7.812  0.5880 -0.4593  0.5729
12613SOL    HW239261   4.302   0.596   7.722 -0.7258  0.1721 -1.1825
12614SOL     OW39262   4.199   4.591   7.367  0.5358  0.1051 -0.3579
12614SOL    HW139263   4.281   4.580   7.318  0.6470  2.1217 -0.7168
12614SOL    HW239264   4.222   4.651   7.438 -0.1013 -1.1993  0.9933
12615SOL     OW39265   6.891   8.205   2.315 -0.2375  0.2283 -0.0651
12615SOL    HW139266   6.968   8.195   2.260  0.0722 -1.8253  0.6470
12615SOL    HW239267   6.918   8.172   2.401 -1.2345  1.6865  0.8519
12616SOL     OW39268   8.190   2.846   2.040  0.1608 -0.4834 -0.2193
12616SOL    HW139269   8.132   2.770   2.047  0.4085 -0.8866 -2.1186
12616SOL    HW239270   8.158   2.894   1.964  0.1075  1.2882  0.8447
12617SOL     OW39271   2.225   5.228   6.099 -0.5832 -0.7892  0.3494
12617SOL    HW139272   2.254   5.307   6.054 -0.5532 -0.9512  0.0794
12617SOL    HW239273   2.300   5.198   6.149 -0.6705 -0.5088  0.6444
12618SOL     OW39274   4.964   2.615   5.072  0.0111  0.3355 -0.1275
12618SOL    HW139275   4.964   2.554   5.146 -1.5847  1.4585  0.8311
12618SOL    HW239276   5.047   2.596   5.027  0.5200 -1.1181  1.3006
12619SOL     OW39277   8.917   0.695   6.930  0.3005 -0.2889 -0.2073
12619SOL    HW139278   8.922   0.600   6.942  0.1337 -0.5700 -2.0392
12619SOL    HW239279   8.828   0.718   6.955 -0.6443 -1.1249 -2.4940
12620SOL     OW39280   4.261   2.167   9.129 -0.5495  0.2558  0.3152
12620SOL    HW139281   4.336   2.162   9.187  0.0247 -0.2214 -0.4493
12620SOL    HW239282   4.187   2.185   9.187  0.3985  2.6091  0.9005
12621SOL     OW39283   3.671   5.473   7.441  0.0608  0.0834  0.6224
12621SOL    HW139284   3.730   5.542   7.473  1.2913  0.1545 -1.5921
12621SOL    HW239285   3.594   5.521   7.409  0.4462  0.3574  0.0830
12622SOL     OW39286   3.062   0.511   7.817 -0.2560  0.2717 -0.1378
12622SOL    HW139287   3.009   0.580   7.777 -2.0064 -0.6038  0.6000
12622SOL    HW239288   3.075   0.447   7.748 -0.0581  0.5257 -0.3410
12623SOL     OW39289   3.632   2.118   4.453  0.5394  0.6916 -0.2531
12623SOL    HW139290   3.574   2.043   4.467  0.7714  0.7587  1.2466
12623SOL    HW239291   3.608   2.181   4.521  3.5643 -0.0481  1.7225
12624SOL     OW39292   8.218   3.986   0.595  0.3666  0.1086 -0.0260
12624SOL    HW139293   8.300   3.950   0.561  0.1597 -0.0038 -0.4201
12624SOL    HW239294   8.238   4.078   0.613  0.4644  0.1937 -0.5414
12625SOL     OW39295   0.037   1.414   8.335 -0.2405  0.4697  0.0259
12625SOL    HW139296   0.130   1.412   8.358 -0.3108  1.4525  0.4721
12625SOL    HW239297   0.000   1.335   8.374  0.5119 -0.2788 -0.7126
12626SOL     OW39298   8.026   8.584   8.454  0.2882 -0.7466  0.5054
12626SOL    HW139299   8.013   8.556   8.545  1.1656 -0.2554  0.7953
12626SOL    HW239300   7.941   8.571   8.413  0.1990 -2.1221  1.0837
12627SOL     OW39301   7.400   0.326   9.053  0.2993 -0.5094  0.2771
12627SOL    HW139302   7.361   0.246   9.089  1.9414 -1.7960 -0.6548
12627SOL    HW239303   7.372   0.327   8.961 -1.9463  1.5022  0.8940
12628SOL     OW39304   1.897   6.877   9.145 -0.1436  0.1334  0.4131
12628SOL    HW139305   1.864   6.830   9.068 -0.0553  0.0698  0.4138
12628SOL    HW239306   1.988   6.899   9.122 -1.1176  3.2907 -1.0299
12629SOL     OW39307   8.047   1.600   8.077 -0.2533  0.0888 -0.3768
12629SOL    HW139308   8.123   1.543   8.067 -0.3910 -0.3827  0.9855
12629SOL    HW239309   8.064   1.673   8.019 -0.0331 -1.2867 -2.1240
12630SOL     OW39310   8.996   0.325   5.295  0.6395 -0.1252  0.0453
12630SOL    HW139311   8.993   0.354   5.386  0.6531  0.8805 -0.2633
12630SOL    HW239312   8.927   0.258   5.289  0.3352  0.1291  0.6784
12631SOL     OW39313   0.460   2.138   4.575 -0.5505  0.1096  0.1173
12631SOL    HW139314   0.391   2.168   4.634 -1.1931  1.6540 -1.3080
12631SOL    HW239315   0.482   2.216   4.524  1.8892 -0.4817  0.1463
12632SOL     OW39316   2.301   1.617   2.326 -0.2682 -0.0220  0.8221
12632SOL    HW139317   2.276   1.604   2.234  2.2209  2.8166 -0.4299
12632SOL    HW239318   2.222   1.595   2.375 -1.9370 -1.0067 -2.0294
12633SOL     OW39319   2.169   0.487   1.263 -0.3450 -0.0551  0.5611
12633SOL    HW139320   2.097   0.520   1.317  0.1547 -0.7827  1.7109
12633SOL    HW239321   2.138   0.496   1.173 -2.2079 -1.0710  1.0490
12634SOL     OW39322   4.916   0.281   2.173  0.1096 -0.8150  0.0662
12634SOL    HW139323   4.873   0.259   2.255  0.6861 -1.2354  0.2667
12634SOL    HW239324   4.951   0.198   2.141  3.2643 -0.1446  1.3694
12635SOL     OW39325   7.191   2.552   8.262  0.5592 -0.1527 -0.1787
12635SOL    HW139326   7.199   2.531   8.169  1.4498  0.0176 -0.1461
12635SOL    HW239327   7.232   2.478   8.307 -0.2551 -0.4446  0.1048
12636SOL     OW39328   8.969   8.999   2.741 -0.4132  0.2771  0.1788
12636SOL    HW139329   8.903   8.965   2.801  0.9196 -2.0311  0.4470
12636SOL    HW239330   9.037   8.932   2.739  1.7249  2.3406 -0.4668
12637SOL     OW39331   6.616   2.974   2.605  0.2768  0.3236  0.0261
12637SOL    HW139332   6.696   2.925   2.585  0.6090  0.5693  0.7372
12637SOL    HW239333   6.549   2.906   2.617  0.2933  0.1293 -0.8617
12638SOL     OW39334   0.864   5.599   8.036  0.3329 -0.3963 -0.0788
12638SOL    HW139335   0.871   5.505   8.052  0.8256 -0.1158  1.5694
12638SOL    HW239336   0.887   5.610   7.944  0.7950 -1.8192 -0.1531
12639SOL     OW39337   5.289   8.078   3.147  0.5929  0.6163  0.2742
12639SOL    HW139338   5.219   8.106   3.087  0.1375 -0.9394  0.0495
12639SOL    HW239339   5.370   8.098   3.099  0.2624  0.5147 -0.3421
12640SOL     OW39340   8.007   5.580   6.182  0.2143  0.2603  0.2009
12640SOL    HW139341   8.024   5.649   6.246 -0.3523 -0.6112  1.3360
12640SOL    HW239342   8.081   5.583   6.122 -0.5153  2.8368 -0.6996
12641SOL     OW39343   0.950   7.742   2.810  0.1901 -0.1818  0.4440
12641SOL    HW139344   0.876   7.799   2.788  0.4692 -0.1282 -0.3759
12641SOL    HW239345   0.934   7.662   2.761  1.3186  0.2995 -0.7813
12642SOL     OW39346   9.220   4.093   0.533  0.3615 -0.9050  0.4778
12642SOL    HW139347   9.268   4.158   0.585 -0.9172 -0.2798  0.9280
12642SOL    HW239348   9.193   4.027   0.597 -2.4638  0.5869  1.0018
12643SOL     OW39349   1.350   2.057   2.944 -0.0706  0.2177 -0.1112
12643SOL    HW139350   1.432   2.018   2.912 -0.0212  0.9463 -0.8913
12643SOL    HW239351   1.352   2.147   2.912 -1.6722 -0.0545 -1.0366
12644SOL     OW39352   9.021   1.584   5.329  0.7028 -0.6237 -0.2712
12644SOL    HW139353   9.104   1.598   5.285  1.8204  0.5354  2.0292
12644SOL    HW239354   8.988   1.672   5.348 -0.8056 -1.0633 -0.6711
12645SOL     OW39355   7.877   2.795   4.002 -0.4917  0.0022 -0.8375
12645SOL    HW139356   7.904   2.886   4.017 -2.6276  0.5526 -0.0471
12645SOL    HW239357   7.881   2.785   3.906 -0.8567  1.1301 -0.9808
12646SOL     OW39358   4.011   2.587   0.932 -0.8648  0.0864  0.0812
12646SOL    HW139359   3.997   2.596   0.837 -1.1630  2.7382  0.3010
12646SOL    HW239360   3.931   2.547   0.965 -0.6075 -1.2221 -0.7897
12647SOL     OW39361   5.219   6.652   4.466 -0.0440 -0.1525 -0.4140
12647SOL    HW139362   5.215   6.593   4.541 -1.4274  0.6222  0.1736
12647SOL    HW239363   5.241   6.737   4.504  2.2079 -0.2748 -1.2757
12648SOL     OW39364   1.642   6.147   5.655 -0.1049  0.0606  0.3160
12648SOL    HW139365   1.692   6.087   5.600 -1.0070 -0.5262  0.1236
12648SOL    HW239366   1.683   6.233   5.641 -0.0744 -0.1541 -0.9686
12649SOL     OW39367   3.392   0.856   3.795  0.2451 -0.1534  0.2971
12649SOL    HW139368   3.427   0.828   3.711  0.8328 -0.8711  0.7707
12649SOL    HW239369   3.429   0.943   3.809  1.3239 -0.6257  0.4783
12650SOL     OW39370   8.965   9.177   0.402  0.2035  0.0333 -0.3051
12650SOL    HW139371   8.890   9.234   0.422 -0.8014 -1.7741  1.3548
12650SOL    HW239372   8.969   9.177   0.306  0.6541  3.3079 -0.4154
12651SOL     OW39373   4.414   7.980   4.203 -0.4165 -0.6325  0.5576
12651SOL    HW139374   4.484   8.011   4.145  1.9414 -2.8237  2.0226
12651SOL    HW239375   4.410   8.046   4.272 -1.5090  0.6931 -0.6940
12652SOL     OW39376   6.976   2.908   9.182  0.4077 -0.6925  0.0706
12652SOL    HW139377   7.055   2.869   9.220 -0.8221 -2.6953  0.7250
12652SOL    HW239378   6.977   2.881   9.091  1.4212  0.9108 -0.4234
12653SOL     OW39379   8.934   1.908   8.763 -0.4418 -0.0605  0.2967
12653SOL    HW139380   8.963   1.997   8.784 -0.5983  0.7575 -2.5478
12653SOL    HW239381   9.009   1.853   8.784  0.3093  0.9728  0.4047
12654SOL     OW39382   7.465   7.200   1.967  0.3631 -0.3482  0.1139
12654SOL    HW139383   7.471   7.105   1.961  1.5350 -0.3309  0.7660
12654SOL    HW239384   7.549   7.228   2.002  0.5310  1.0570 -1.2856
12655SOL     OW39385   5.309   1.504   5.436 -0.0410  0.4040  0.3399
12655SOL    HW139386   5.362   1.571   5.394 -1.2146  1.7634  0.9638
12655SOL    HW239387   5.219   1.521   5.407 -0.2648 -1.4977 -0.2403
12656SOL     OW39388   7.263   5.590   8.625  0.3526 -0.4314  0.3421
12656SOL    HW139389   7.237   5.678   8.651 -1.1808 -0.2845 -1.4996
12656SOL    HW239390   7.326   5.605   8.554  0.3610 -0.8325  0.2666
12657SOL     OW39391   5.354   4.814   1.405  0.4256  0.3669 -0.9499
12657SOL    HW139392   5.383   4.742   1.462 -0.1228  0.7138 -0.2130
12657SOL    HW239393   5.357   4.891   1.461 -1.7112  0.4536 -0.8759
12658SOL     OW39394   0.275   8.019   4.260 -0.4698  0.0176  0.0348
12658SOL    HW139395   0.193   8.011   4.309 -0.0232  0.3050  0.8583
12658SOL    HW239396   0.249   8.012   4.168 -1.3553 -0.3496  0.2994
12659SOL     OW39397   9.069   0.506   5.877 -0.2287 -0.8278 -0.5716
12659SOL    HW139398   9.029   0.438   5.930 -2.5569  1.7297  1.2657
12659SOL    HW239399   9.030   0.496   5.791 -1.6413 -1.0211  0.0587
12660SOL     OW39400   3.984   0.791   5.237  0.2214 -0.2250 -0.1002
12660SOL    HW139401   3.940   0.828   5.314  2.4518  1.1329  0.6216
12660SOL    HW239402   4.001   0.867   5.180 -0.0466 -0.9900 -1.2192
12661SOL     OW39403   0.809   7.075   4.930 -0.2034 -0.4096  0.1046
12661SOL    HW139404   0.804   7.136   5.004  1.1168  1.9078 -1.5895
12661SOL    HW239405   0.902   7.057   4.920  0.0147  1.6121 -2.6227
12662SOL     OW39406   6.884   2.113   4.916  0.0856 -0.3556  0.0795
12662SOL    HW139407   6.870   2.025   4.951  0.0264 -0.6664 -0.7056
12662SOL    HW239408   6.914   2.099   4.827  0.0789  0.4251 -0.0526
12663SOL     OW39409   2.001   7.598   5.344  0.3239  0.2009 -0.0762
12663SOL    HW139410   2.036   7.510   5.359  0.2478  0.4151  1.5388
12663SOL    HW239411   2.061   7.638   5.281  0.6240 -0.8413 -0.4609
12664SOL     OW39412   2.278   2.453   5.256 -0.0456  0.0397  0.0602
12664SOL    HW139413   2.365   2.466   5.219 -0.1401  1.9128  0.3630
12664SOL    HW239414   2.290   2.391   5.327  1.4578  1.7411  1.4029
12665SOL     OW39415   8.756   2.872   3.739 -0.0075  0.1310 -0.5179
12665SOL    HW139416   8.714   2.916   3.665 -0.0829 -0.0423 -0.5769
12665SOL    HW239417   8.836   2.834   3.703 -1.1358 -1.8695 -1.0216
12666SOL     OW39418   1.903   4.856   0.065  0.2119  0.2890 -0.0856
12666SOL    HW139419   1.984   4.859   0.117  0.1079  0.2186  0.0837
12666SOL    HW239420   1.856   4.935   0.091  1.0432  1.3025 -1.5472
12667SOL     OW39421   1.509   0.109   5.748 -0.5062  0.0341 -0.3489
12667SOL    HW139422   1.465   0.194   5.742  1.0326  0.8357 -0.6914
12667SOL    HW239423   1.559   0.114   5.829 -1.0735 -0.9067  0.0801
12668SOL     OW39424   6.868   6.794   6.737  0.3346  0.1658 -1.1625
12668SOL    HW139425   6.824   6.756   6.814  2.0079  0.1120 -0.1903
12668SOL    HW239426   6.806   6.779   6.665 -0.3040 -1.8855 -0.2779
12669SOL     OW39427   4.840   1.545   1.027 -0.2866 -0.3738  0.1018
12669SOL    HW139428   4.844   1.506   1.114 -1.4360 -0.1107  0.2956
12669SOL    HW239429   4.807   1.475   0.970 -0.2225 -0.3396  0.0220
12670SOL     OW39430   4.992   5.275   7.281  0.3235  0.0892  0.0033
12670SOL    HW139431   4.950   5.303   7.363  1.9237  1.2420  0.4840
12670SOL    HW239432   5.085   5.296   7.293  0.6687 -0.1069 -1.9509
12671SOL     OW39433   6.885   6.783   5.961 -0.4146 -0.4364  0.1353
12671SOL    HW139434   6.802   6.824   5.984  1.0895  1.2424  3.0991
12671SOL    HW239435   6.892   6.707   6.018  0.9926  0.6924  1.5417
12672SOL     OW39436   1.830   6.036   8.224  0.1130 -0.2363 -0.0105
12672SOL    HW139437   1.816   6.114   8.170  1.4667 -1.0901 -1.6790
12672SOL    HW239438   1.924   6.021   8.219 -0.0263 -1.5179  0.9575
12673SOL     OW39439   5.162   0.261   6.023  0.1522 -0.3611  0.0592
12673SOL    HW139440   5.219   0.209   5.967  1.2164  0.4687  0.3512
12673SOL    HW239441   5.204   0.346   6.029 -2.3784  1.1636 -1.7557
12674SOL     OW39442   0.463   8.053   4.901  0.3708  0.3248 -0.7880
12674SOL    HW139443   0.451   7.980   4.962 -1.8445  1.3455  0.1222
12674SOL    HW239444   0.530   8.108   4.942 -0.9326  0.8893  0.7365
12675SOL     OW39445   1.025   0.449   6.139  0.3733 -1.0552  0.2422
12675SOL    HW139446   1.026   0.543   6.154  0.4803 -0.8524 -0.9777
12675SOL    HW239447   1.052   0.411   6.223  1.2142  0.0321  0.4795
12676SOL     OW39448   4.929   7.382   7.565  0.5073 -0.5262 -0.1951
12676SOL    HW139449   4.857   7.360   7.506  0.4101  0.1421 -0.3297
12676SOL    HW239450   4.947   7.300   7.612 -0.1582 -0.7718 -0.3545
12677SOL     OW39451   2.596   8.094   5.867  0.3183  0.4985  0.3236
12677SOL    HW139452   2.574   8.165   5.927 -1.4037 -0.0581  0.4068
12677SOL    HW239453   2.512   8.050   5.850  1.2792 -1.3416  0.0688
12678SOL     OW39454   7.747   1.104   1.214  0.4158 -0.7609 -0.2504
12678SOL    HW139455   7.706   1.026   1.176  1.0323 -2.3837  2.2024
12678SOL    HW239456   7.825   1.071   1.258  0.1728  1.0848  1.7062
12679SOL     OW39457   5.364   1.122   4.168  0.7562 -0.0509  0.1267
12679SOL    HW139458   5.352   1.042   4.220  0.2437 -1.0453 -1.4568
12679SOL    HW239459   5.376   1.191   4.233  0.9651 -1.3697  1.5463
12680SOL     OW39460   3.805   4.956   0.734  0.5356 -0.2047  0.2027
12680SOL    HW139461   3.829   4.966   0.826 -0.4581 -0.7675  0.5431
12680SOL    HW239462   3.888   4.948   0.687  1.0365 -0.2555  1.0926
12681SOL     OW39463   6.777   7.510   4.649  0.1137  0.1034  0.1721
12681SOL    HW139464   6.744   7.496   4.561 -1.6047  0.2513  0.7671
12681SOL    HW239465   6.811   7.600   4.647 -0.2840  0.2465 -0.2183
12682SOL     OW39466   6.883   4.978   7.625  0.0902  0.0448  0.1249
12682SOL    HW139467   6.842   5.058   7.592 -0.9120 -0.5277 -0.0792
12682SOL    HW239468   6.952   5.009   7.684 -1.7249  1.1032  1.8347
12683SOL     OW39469   8.333   4.982   7.199 -0.8437  0.9954 -0.2397
12683SOL    HW139470   8.381   4.900   7.194 -2.3054  0.1328 -0.5542
12683SOL    HW239471   8.292   4.992   7.113 -2.8748  0.6479  0.6381
12684SOL     OW39472   4.394   0.325   3.824 -0.1486 -0.7506  0.8764
12684SOL    HW139473   4.337   0.250   3.807 -1.5289  0.5062 -0.5027
12684SOL    HW239474   4.449   0.331   3.746 -0.0102 -0.3903  0.9993
12685SOL     OW39475   7.095   2.046   1.832 -0.5370 -0.3113  0.1386
12685SOL    HW139476   7.086   2.134   1.868 -1.3782 -0.6963  0.9233
12685SOL    HW239477   7.049   2.049   1.748 -0.7376 -0.0506  0.2568
12686SOL     OW39478   3.445   1.360   1.435 -0.1626  0.1512 -0.0564
12686SOL    HW139479   3.453   1.382   1.342 -1.2197  1.8451  0.2145
12686SOL    HW239480   3.466   1.441   1.481  2.3221 -1.1631  1.3168
12687SOL     OW39481   6.721   7.418   2.109 -0.3977 -0.1112  0.5628
12687SOL    HW139482   6.762   7.498   2.143  0.8982 -0.4669 -0.1141
12687SOL    HW239483   6.670   7.448   2.034 -1.1239  0.2865  1.2049
12688SOL     OW39484   9.235   2.908   0.484  0.3091 -0.0419  0.1602
12688SOL    HW139485   9.264   2.830   0.438 -1.3030  0.1386 -1.2888
12688SOL    HW239486   9.203   2.876   0.568  0.3603 -0.8504 -0.1172
12689SOL     OW39487   4.097   5.348   5.758  0.2245 -0.2770 -0.7368
12689SOL    HW139488   4.101   5.432   5.804  0.1758 -0.3116 -0.6704
12689SOL    HW239489   4.186   5.313   5.764  0.6459  0.4878 -2.0945
12690SOL     OW39490   7.723   2.595   3.113  0.0031 -0.3217  0.6457
12690SOL    HW139491   7.669   2.671   3.134  0.0887 -0.0950  0.0742
12690SOL    HW239492   7.778   2.582   3.190 -0.8469 -0.5493  1.2282
12691SOL     OW39493   5.186   2.835   2.055 -0.1964 -0.6432 -0.2250
12691SOL    HW139494   5.134   2.914   2.039 -0.1421 -0.5145  0.2235
12691SOL    HW239495   5.229   2.818   1.971 -0.3244 -0.2840 -0.3683
12692SOL     OW39496   8.632   4.638   5.907  0.5697  0.2263  0.2028
12692SOL    HW139497   8.658   4.659   5.817 -0.5577 -0.1732 -0.2362
12692SOL    HW239498   8.629   4.723   5.951 -0.2904  0.6054 -0.5485
12693SOL     OW39499   8.608   4.637   8.605 -0.7340  0.9179  0.3325
12693SOL    HW139500   8.595   4.560   8.661 -0.7726  1.5820  1.2743
12693SOL    HW239501   8.653   4.604   8.527 -0.2739  0.0323  0.9579
12694SOL     OW39502   7.138   0.774   2.763 -0.3307 -0.4690 -0.0943
12694SOL    HW139503   7.145   0.775   2.859 -1.0740 -0.2979 -0.0338
12694SOL    HW239504   7.081   0.700   2.744 -1.3068  0.3087 -0.3040
12695SOL     OW39505   7.764   8.239   2.812 -0.4170  0.0405 -0.8225
12695SOL    HW139506   7.841   8.293   2.797 -0.9405  1.4512  1.1301
12695SOL    HW239507   7.745   8.199   2.727  2.4820 -0.4378 -1.3281
12696SOL     OW39508   0.407   4.870   1.918 -0.3614 -0.3905  0.1309
12696SOL    HW139509   0.322   4.910   1.900  0.6176  1.3342 -0.9839
12696SOL    HW239510   0.428   4.899   2.007  0.3788  1.8344 -0.6902
12697SOL     OW39511   3.006   7.512   6.219 -0.0425 -0.3666  0.4522
12697SOL    HW139512   3.038   7.577   6.282  1.6862 -1.0230  0.3284
12697SOL    HW239513   2.911   7.512   6.230 -0.2164  2.7069 -0.1005
12698SOL     OW39514   4.850   4.628   1.874  0.1454  0.4362 -0.2025
12698SOL    HW139515   4.798   4.693   1.827 -0.0633  0.2461 -0.2384
12698SOL    HW239516   4.941   4.648   1.850 -0.0200 -0.4420 -1.7278
12699SOL     OW39517   8.853   4.668   7.095  0.0953 -0.7399 -0.2342
12699SOL    HW139518   8.794   4.703   7.028  1.0501  1.1046 -0.1673
12699SOL    HW239519   8.925   4.629   7.045  0.7558  0.5433 -0.3328
12700SOL     OW39520   3.434   2.500   8.985 -0.1897 -0.8065  0.1611
12700SOL    HW139521   3.404   2.409   8.985 -0.5680 -0.7692 -2.7592
12700SOL    HW239522   3.356   2.551   8.960  1.1238 -0.3445 -3.7523
12701SOL     OW39523   1.616   1.282   2.196 -0.5111 -0.0593  0.4449
12701SOL    HW139524   1.542   1.278   2.256  1.1347  0.6087  2.6832
12701SOL    HW239525   1.609   1.203   2.143 -2.2841 -0.4657  1.2341
12702SOL     OW39526   3.743   7.781   4.017 -0.0871  0.1247 -0.0854
12702SOL    HW139527   3.803   7.856   4.018 -0.7960  0.7125 -0.2765
12702SOL    HW239528   3.793   7.711   3.976  0.7804  0.3214  0.6166
12703SOL     OW39529   4.308   5.317   6.630 -0.5086 -0.0033 -0.6141
12703SOL    HW139530   4.260   5.291   6.552 -0.4355 -0.0818 -0.6334
12703SOL    HW239531   4.371   5.247   6.644  0.4805  0.7136 -1.3350
12704SOL     OW39532   3.455   3.328   3.925  0.0584 -0.5795  0.0381
12704SOL    HW139533   3.370   3.360   3.957 -0.3123 -0.2419 -1.1862
12704SOL    HW239534   3.433   3.251   3.873  0.5744 -0.8171  0.1649
12705SOL     OW39535   4.026   0.651   9.120 -0.0646  0.1976 -0.2506
12705SOL    HW139536   4.067   0.682   9.039  0.9971  0.9892  0.5531
12705SOL    HW239537   4.066   0.566   9.135  1.0279  0.7865  0.3101
12706SOL     OW39538   1.209   2.263   8.841  0.1044 -0.3782 -0.1035
12706SOL    HW139539   1.212   2.175   8.878  1.1288 -0.6652 -0.8320
12706SOL    HW239540   1.151   2.311   8.899 -0.0778 -1.4030  0.5904
12707SOL     OW39541   1.788   8.875   2.748  0.1470  0.3978  0.0974
12707SOL    HW139542   1.719   8.936   2.773 -1.7096 -1.2233 -0.8137
12707SOL    HW239543   1.793   8.813   2.821  0.9076  0.7035  0.3129
12708SOL     OW39544   8.101   7.821   7.816  0.0578 -0.2516 -0.0167
12708SOL    HW139545   8.140   7.876   7.884  0.2296 -0.3181 -0.0601
12708SOL    HW239546   8.128   7.732   7.839 -0.8645 -0.4124  0.4927
12709SOL     OW39547   7.841   8.666   7.093  0.1866  0.1221 -0.2969
12709SOL    HW139548   7.850   8.649   6.999  1.8055  0.2225 -0.1992
12709SOL    HW239549   7.768   8.612   7.121  0.2426 -0.5895 -1.4547
12710SOL     OW39550   4.393   3.297   8.050 -0.0827  0.0219  0.0114
12710SOL    HW139551   4.424   3.283   7.961  0.5030  0.3730  0.1543
12710SOL    HW239552   4.454   3.362   8.087 -0.8846  0.5983  0.3524
12711SOL     OW39553   2.475   3.732   8.752  0.5263 -0.5564  0.5753
12711SOL    HW139554   2.493   3.648   8.711 -0.3102 -0.2728 -0.4220
12711SOL    HW239555   2.480   3.715   8.846 -0.8717 -2.0343  0.4197
12712SOL     OW39556   6.441   5.620   7.546 -0.2232  0.1675 -0.4131
12712SOL    HW139557   6.433   5.709   7.581 -2.4075  0.3181 -1.1317
12712SOL    HW239558   6.364   5.574   7.581  0.5927 -1.3093 -0.4794
12713SOL     OW39559   2.734   7.867   1.884  0.1531 -0.3354  0.5384
12713SOL    HW139560   2.823   7.833   1.893 -0.5664 -1.8865  2.8801
12713SOL    HW239561   2.745   7.952   1.841  2.3877 -1.9361 -2.4129
12714SOL     OW39562   5.535   7.396   3.525  0.1177 -0.0167  0.2888
12714SOL    HW139563   5.624   7.389   3.560 -0.4272  0.6540  1.9016
12714SOL    HW239564   5.489   7.451   3.588 -1.3424 -0.0161 -0.7348
12715SOL     OW39565   2.579   5.129   2.106  0.3598 -0.3014  0.0146
12715SOL    HW139566   2.605   5.039   2.089 -0.3573 -0.0409 -3.0411
12715SOL    HW239567   2.522   5.152   2.033 -0.4024  2.3049  1.2844
12716SOL     OW39568   6.845   4.046   0.012  0.3397 -0.0370  0.3424
12716SOL    HW139569   6.767   4.098   0.031  0.3352 -0.4681  1.6152
12716SOL    HW239570   6.892   4.042   0.096  1.7580  0.2403 -0.3941
12717SOL     OW39571   6.183   8.952   7.073 -0.7533  0.2070 -0.2936
12717SOL    HW139572   6.254   8.894   7.103 -0.1837 -0.2410 -2.3747
12717SOL    HW239573   6.104   8.915   7.113 -0.1138 -0.7182  0.1495
12718SOL     OW39574   0.028   9.149   4.764 -0.0721  0.1044  0.0949
12718SOL    HW139575  -0.042   9.084   4.763 -0.2603  0.2965  0.5010
12718SOL    HW239576   0.058   9.151   4.855 -0.1142  0.6334  0.1024
12719SOL     OW39577   3.636   7.604   0.077 -0.3856  0.7131  0.3353
12719SOL    HW139578   3.677   7.551   0.008  0.8855 -0.7561  2.1093
12719SOL    HW239579   3.621   7.689   0.037 -0.9419 -0.4621 -2.1469
12720SOL     OW39580   6.745   9.006   8.499  0.4320 -0.5097 -0.2690
12720SOL    HW139581   6.683   8.937   8.521  0.9488 -0.7208  0.5472
12720SOL    HW239582   6.778   8.982   8.413 -0.7561 -0.2868 -0.8192
12721SOL     OW39583   7.751   4.832   4.882  0.1710  0.0375 -0.2019
12721SOL    HW139584   7.763   4.915   4.928  0.8716  0.5975 -1.3685
12721SOL    HW239585   7.713   4.774   4.948  1.5078  0.6899  1.2182
12722SOL     OW39586   7.478   3.272   6.968 -0.9297 -0.0981  0.1809
12722SOL    HW139587   7.469   3.214   6.893 -0.4203 -0.4059  0.3543
12722SOL    HW239588   7.404   3.251   7.024 -1.4216  0.2649 -0.3183
12723SOL     OW39589   3.855   7.226   3.627 -0.2432 -0.3361 -0.2403
12723SOL    HW139590   3.862   7.152   3.688 -1.2319  0.4697  0.8842
12723SOL    HW239591   3.772   7.212   3.582 -0.7188  0.3618  0.3869
12724SOL     OW39592   3.967   5.448   9.166 -0.4078  0.0996  0.7525
12724SOL    HW139593   4.007   5.471   9.250 -0.1606 -0.5666  0.8231
12724SOL    HW239594   3.875   5.472   9.176 -0.1740  1.0106  0.8333
12725SOL     OW39595   9.113   7.790   1.307 -0.3891  0.0866  0.3515
12725SOL    HW139596   9.168   7.733   1.361 -1.7603 -1.2412  0.3959
12725SOL    HW239597   9.155   7.790   1.221 -1.8199 -3.3624 -0.4885
12726SOL     OW39598   3.644   3.432   5.585 -0.3619  0.3290  0.1526
12726SOL    HW139599   3.723   3.469   5.545  0.7810 -1.8645  0.2437
12726SOL    HW239600   3.644   3.467   5.674  0.2302  0.7377  0.0021
12727SOL     OW39601   3.310   8.247   5.195 -0.5413  0.0387 -0.1996
12727SOL    HW139602   3.391   8.276   5.152 -0.4096 -0.8257 -0.5537
12727SOL    HW239603   3.298   8.157   5.165 -0.6446 -0.4712  1.2994
12728SOL     OW39604   1.880   8.565   1.097  0.4610 -0.7097 -0.1581
12728SOL    HW139605   1.957   8.610   1.133  1.5048 -0.2603 -2.7601
12728SOL    HW239606   1.812   8.579   1.163  2.7344 -1.7741  2.6168
12729SOL     OW39607   6.814   7.174   2.077  0.1250  0.0065  0.1040
12729SOL    HW139608   6.809   7.137   2.165 -2.6009 -0.3581 -0.0931
12729SOL    HW239609   6.765   7.257   2.084 -0.1033 -0.0183 -1.0528
12730SOL     OW39610   2.444   2.160   4.144 -0.4885  0.2507  0.4547
12730SOL    HW139611   2.412   2.246   4.171 -0.5120  0.3163  0.2238
12730SOL    HW239612   2.538   2.173   4.133 -0.8935  1.2423 -3.1098
12731SOL     OW39613   1.334   4.928   6.566 -0.2296  0.5854  0.1105
12731SOL    HW139614   1.351   4.834   6.561  0.3223  0.6296  1.0136
12731SOL    HW239615   1.239   4.935   6.553 -0.0773  0.0577 -1.6014
12732SOL     OW39616   0.429   5.722   7.353  0.2831  0.3272 -0.3272
12732SOL    HW139617   0.455   5.638   7.390  0.9533  0.1812 -1.1100
12732SOL    HW239618   0.482   5.732   7.275  2.0898  2.6246  1.0446
12733SOL     OW39619   0.114   7.211   3.842  0.4600 -0.1128 -0.4329
12733SOL    HW139620   0.022   7.235   3.851  1.1312  2.5053  0.3827
12733SOL    HW239621   0.152   7.230   3.928  2.0600  0.5275 -1.2407
12734SOL     OW39622   3.853   3.235   5.332  0.0315 -0.2762 -0.0027
12734SOL    HW139623   3.805   3.217   5.250 -1.1943 -1.7675  0.9875
12734SOL    HW239624   3.910   3.309   5.310 -0.9875  0.0168 -1.9263
12735SOL     OW39625   0.400   5.357   2.787 -0.0022  0.4189  0.3021
12735SOL    HW139626   0.335   5.290   2.804 -0.0136  0.0038 -1.1751
12735SOL    HW239627   0.364   5.437   2.825 -0.8452 -0.0379  0.4775
12736SOL     OW39628   1.495   2.196   6.281  0.2401 -0.6642  0.0901
12736SOL    HW139629   1.440   2.238   6.348  0.3763 -0.2942 -0.0283
12736SOL    HW239630   1.550   2.267   6.247 -2.2696  0.0410 -2.9855
12737SOL     OW39631   1.579   0.398   3.591 -0.0092  0.4767  0.2154
12737SOL    HW139632   1.536   0.474   3.631 -0.6780  0.1022  0.2279
12737SOL    HW239633   1.546   0.396   3.501  1.0657  0.9932 -0.2066
12738SOL     OW39634   0.546   6.323   5.604  0.1806 -0.3537  0.1625
12738SOL    HW139635   0.463   6.346   5.645  1.3441  1.2965  1.7637
12738SOL    HW239636   0.564   6.234   5.634 -1.9161 -1.5541 -1.8638
12739SOL     OW39637   1.445   6.912   0.927 -0.0558  0.0026  0.6820
12739SOL    HW139638   1.514   6.869   0.876 -1.9052  0.7983 -2.8404
12739SOL    HW239639   1.448   7.003   0.899 -2.2994  0.1097  0.6034
12740SOL     OW39640   1.951   8.594   9.276  0.5425  0.1944  0.3230
12740SOL    HW139641   2.024   8.589   9.338  0.8000 -0.8448 -0.0460
12740SOL    HW239642   1.934   8.687   9.267  1.3694  0.4195  0.9484
12741SOL     OW39643   6.235   4.719   4.149  0.7198  0.5558  0.2619
12741SOL    HW139644   6.251   4.713   4.054  1.7506  1.8959  0.3274
12741SOL    HW239645   6.141   4.735   4.156  0.2535 -1.5219 -0.4111
12742SOL     OW39646   8.730   8.016   6.328  0.0111  0.0600  0.4265
12742SOL    HW139647   8.693   7.952   6.268  0.1636  0.0742  0.3167
12742SOL    HW239648   8.794   7.967   6.379 -0.8119 -0.1849  1.2605
12743SOL     OW39649   8.124   2.536   4.393  0.0438  0.1950 -0.2991
12743SOL    HW139650   8.219   2.547   4.399 -0.1107  1.3157  0.3781
12743SOL    HW239651   8.093   2.616   4.350 -0.6659  0.2026  0.2102
12744SOL     OW39652   1.622   6.126   0.546 -0.1554  0.1186  0.1308
12744SOL    HW139653   1.540   6.172   0.565  0.5499  1.9422 -0.9178
12744SOL    HW239654   1.690   6.186   0.576  0.8204 -0.2295 -1.2943
12745SOL     OW39655   9.276   5.555   1.952 -0.0653  0.2308 -0.4640
12745SOL    HW139656   9.334   5.598   2.015  0.3321 -0.5115 -0.3136
12745SOL    HW239657   9.193   5.604   1.959 -0.2227 -0.1810  1.0535
12746SOL     OW39658   8.410   2.178   0.994  0.0909  0.1518  0.1696
12746SOL    HW139659   8.393   2.262   1.037  0.6932 -0.1273  0.9685
12746SOL    HW239660   8.455   2.126   1.060 -0.5049 -0.8988 -0.2301
12747SOL     OW39661   9.228   3.249   1.978  0.1655  1.1828 -0.3399
12747SOL    HW139662   9.275   3.292   1.907 -0.2890  1.6361 -0.3699
12747SOL    HW239663   9.207   3.162   1.943 -0.0044  1.3811 -0.7331
12748SOL     OW39664   1.676   5.941   6.142 -0.1694  0.4938 -0.1074
12748SOL    HW139665   1.633   6.004   6.199  0.8451  0.9631  0.1691
12748SOL    HW239666   1.717   5.878   6.202  1.0726  1.1027 -0.2663
12749SOL     OW39667   8.675   6.853   6.291 -0.1794 -0.4244  0.1218
12749SOL    HW139668   8.611   6.895   6.234  0.3928  2.1247  1.2548
12749SOL    HW239669   8.622   6.801   6.352 -1.0225 -0.1003 -0.3146
12750SOL     OW39670   0.458   6.414   8.181 -0.3937 -0.5296  0.0398
12750SOL    HW139671   0.491   6.495   8.218  3.5202 -2.4094  1.1902
12750SOL    HW239672   0.412   6.371   8.253 -1.8485  0.2349 -0.3782
12751SOL     OW39673   3.737   1.673   8.614  0.1258  0.1781  0.1237
12751SOL    HW139674   3.723   1.739   8.546 -0.4152 -0.5234 -0.4561
12751SOL    HW239675   3.729   1.589   8.569  2.5754 -0.3161  0.4953
12752SOL     OW39676   7.194   2.929   5.788  0.2760  0.1492 -0.0002
12752SOL    HW139677   7.284   2.951   5.766  0.9868 -1.1655  1.4738
12752SOL    HW239678   7.182   2.839   5.756 -0.3846  0.1567  0.1971
12753SOL     OW39679   6.180   6.126   5.465  0.0147 -0.4920 -0.2936
12753SOL    HW139680   6.252   6.092   5.411  1.3439  2.0954 -0.3431
12753SOL    HW239681   6.128   6.179   5.404 -0.7685 -0.7079  0.1794
12754SOL     OW39682   6.265   8.097   7.124  0.2550 -0.1266 -0.2077
12754SOL    HW139683   6.253   8.102   7.030 -0.2647 -0.2298 -0.1462
12754SOL    HW239684   6.202   8.033   7.154 -0.1299  0.4756  0.3111
12755SOL     OW39685   2.769   3.128   8.478 -0.3537  0.1378 -0.0511
12755SOL    HW139686   2.771   3.032   8.482  2.1358  0.1206  0.0568
12755SOL    HW239687   2.715   3.154   8.552 -1.3852 -1.1710 -0.3059
12756SOL     OW39688   4.234   7.786   6.293 -0.3850 -0.0654 -0.4071
12756SOL    HW139689   4.155   7.836   6.313 -0.4057  0.0418 -0.7486
12756SOL    HW239690   4.234   7.778   6.198 -1.0502 -1.8126 -0.2985
12757SOL     OW39691   8.121   2.257   2.171  0.3925  0.1857  0.2557
12757SOL    HW139692   8.080   2.298   2.095  1.1443  0.6583  0.0919
12757SOL    HW239693   8.050   2.209   2.214  0.2911 -1.5241 -1.6825
12758SOL     OW39694   0.820   4.571   3.941  0.4466 -0.4669  0.1337
12758SOL    HW139695   0.906   4.557   3.902  1.0003  1.1458  0.6841
12758SOL    HW239696   0.830   4.649   3.995 -1.1988 -0.6231  0.7420
12759SOL     OW39697   5.939   1.458   8.796  0.2550  0.0639 -0.0070
12759SOL    HW139698   5.863   1.463   8.738  0.6826 -0.0249 -0.5943
12759SOL    HW239699   5.979   1.545   8.790  0.6109 -0.1154 -0.2879
12760SOL     OW39700   9.217   4.187   8.285 -0.1648 -0.3212 -0.0646
12760SOL    HW139701   9.144   4.228   8.238  0.5910  0.3348 -0.7035
12760SOL    HW239702   9.215   4.096   8.256  1.2026  0.3782 -2.6351
12761SOL     OW39703   3.324   3.738   1.066  0.0481 -0.1004  0.1513
12761SOL    HW139704   3.362   3.777   0.987  0.1083 -0.0134  0.2240
12761SOL    HW239705   3.255   3.799   1.092  0.3692  0.1265  0.4604
12762SOL     OW39706   1.245   3.725   3.835  0.0150 -0.0170 -0.6187
12762SOL    HW139707   1.335   3.706   3.861  0.1799  0.3273 -0.9354
12762SOL    HW239708   1.249   3.737   3.740  0.0720  2.3510 -0.3704
12763SOL     OW39709   5.455   6.090   1.341  0.1136 -0.2570  0.7512
12763SOL    HW139710   5.503   6.105   1.423  1.9372 -1.5496 -0.0229
12763SOL    HW239711   5.520   6.103   1.272 -0.7492 -1.6152 -0.3725
12764SOL     OW39712   7.927   3.600   7.058 -0.1054 -0.5322 -0.7695
12764SOL    HW139713   7.869   3.676   7.051 -1.4014 -1.5168 -1.1501
12764SOL    HW239714   7.970   3.610   7.143 -1.9723 -0.5319  0.2341
12765SOL     OW39715   6.386   4.330   5.054  0.3093  0.2740 -0.5451
12765SOL    HW139716   6.326   4.384   5.004 -2.5731 -1.0591  1.1755
12765SOL    HW239717   6.378   4.243   5.014  0.6189 -0.0508  0.0893
12766SOL     OW39718   0.829   1.356   5.024  0.3508  0.1560  0.2035
12766SOL    HW139719   0.881   1.339   4.945  1.6460  1.5259  0.7012
12766SOL    HW239720   0.772   1.429   5.000 -1.3664 -1.2816 -0.3085
12767SOL     OW39721   3.055   3.531   4.234  0.2227  0.3177 -0.1397
12767SOL    HW139722   2.988   3.495   4.291  0.4482  1.2053  0.7148
12767SOL    HW239723   3.011   3.604   4.189  1.2803  2.8637  2.6024
12768SOL     OW39724   1.737   1.148   6.766  0.4098  0.7341 -0.1689
12768SOL    HW139725   1.666   1.097   6.728 -1.4014  2.1764  1.1046
12768SOL    HW239726   1.773   1.197   6.692  0.2805 -0.2075 -0.8763
12769SOL     OW39727   3.137   1.307   8.874 -0.6254 -0.2290 -0.0900
12769SOL    HW139728   3.168   1.331   8.786 -2.3976 -1.4373 -1.1276
12769SOL    HW239729   3.216   1.285   8.923  0.4688  1.1549 -1.1388
12770SOL     OW39730   8.571   5.626   3.941  0.2519  0.2096 -0.5936
12770SOL    HW139731   8.575   5.714   3.904 -2.2368 -0.0777 -1.7413
12770SOL    HW239732   8.575   5.568   3.866 -4.2080 -0.3982 -0.6288
12771SOL     OW39733   3.304   9.099   1.708  0.3972 -0.5823 -0.5366
12771SOL    HW139734   3.277   9.024   1.760 -0.1590 -0.1745 -0.2303
12771SOL    HW239735   3.281   9.076   1.618  2.8764 -2.0071 -0.9022
12772SOL     OW39736   8.075   4.699   6.842  0.0925  0.4509  0.5040
12772SOL    HW139737   8.038   4.664   6.761 -1.8442  0.4775  1.3116
12772SOL    HW239738   8.028   4.782   6.856  1.2893  1.0708  1.0135
12773SOL     OW39739   2.165   6.368   7.382 -0.4485  0.3018  0.0924
12773SOL    HW139740   2.157   6.284   7.427  1.0321  0.4874  0.7521
12773SOL    HW239741   2.230   6.417   7.433  0.2073  1.0844 -1.4161
12774SOL     OW39742   3.831   5.164   4.964  0.3545  0.5747 -0.0503
12774SOL    HW139743   3.895   5.127   5.025 -0.7977 -0.5872  0.5074
12774SOL    HW239744   3.846   5.258   4.968 -0.3020  0.6698  2.8366
12775SOL     OW39745   4.503   0.305   1.518 -0.5909 -0.2821 -0.1454
12775SOL    HW139746   4.539   0.247   1.585 -0.1271  0.0286 -0.1200
12775SOL    HW239747   4.496   0.250   1.440 -0.7775 -0.5443  0.0526
12776SOL     OW39748   4.443   8.650   0.148 -0.1830  0.2819 -0.6168
12776SOL    HW139749   4.381   8.722   0.160 -2.2811 -1.1925 -1.8329
12776SOL    HW239750   4.498   8.679   0.074  0.6795  1.6168  0.4878
12777SOL     OW39751   3.138   4.999   3.643  0.1274  0.7278  0.2076
12777SOL    HW139752   3.127   4.905   3.657  2.7999  0.5451  1.6456
12777SOL    HW239753   3.083   5.019   3.567  1.2384 -2.4421 -1.5806
12778SOL     OW39754   3.470   7.131   3.221 -0.7215  0.0814 -0.1319
12778SOL    HW139755   3.508   7.136   3.133 -2.5850  0.6433 -0.9449
12778SOL    HW239756   3.508   7.206   3.267 -0.4915  0.3653 -0.7725
12779SOL     OW39757   2.899   1.069   3.452  0.6579  0.0370 -0.0630
12779SOL    HW139758   2.967   1.007   3.480  0.9870 -0.5013 -1.9072
12779SOL    HW239759   2.854   1.023   3.381 -1.2875  0.6183  0.7235
12780SOL     OW39760   2.179   8.274   2.742  0.1612 -0.4974  0.1347
12780SOL    HW139761   2.240   8.313   2.804 -1.6216  0.6087  1.2707
12780SOL    HW239762   2.230   8.207   2.696  1.9478 -0.2404  1.6700
12781SOL     OW39763   0.557   8.491   8.422  0.0501  0.9079 -0.1367
12781SOL    HW139764   0.549   8.429   8.495 -0.1000  1.5037  0.3647
12781SOL    HW239765   0.597   8.569   8.461  1.3581  0.7026 -1.0148
12782SOL     OW39766   7.022   2.679   6.148 -0.4306  0.0938 -0.1912
12782SOL    HW139767   6.949   2.656   6.091 -0.0306 -0.7811 -0.3719
12782SOL    HW239768   7.045   2.597   6.191  0.4900  0.3453 -0.1861
12783SOL     OW39769   7.469   6.978   0.402  0.0856  0.7300 -0.6771
12783SOL    HW139770   7.453   7.000   0.310  0.6770  0.1481 -0.9288
12783SOL    HW239771   7.443   6.887   0.410 -0.8921  1.0464 -0.0128
12784SOL     OW39772   9.158   4.243   0.140  0.3961  0.3504  0.2726
12784SOL    HW139773   9.173   4.327   0.185  0.3239  0.4919  0.0336
12784SOL    HW239774   9.095   4.197   0.196 -0.4261  0.9224 -0.1714
12785SOL     OW39775   4.493   6.930   1.491 -0.1388  0.3037  0.0126
12785SOL    HW139776   4.546   6.857   1.460 -0.1856  0.0493  0.5124
12785SOL    HW239777   4.488   6.990   1.417  1.2216  0.5504  0.0839
12786SOL     OW39778   6.266   4.575   0.325 -1.0009 -0.4315 -0.1550
12786SOL    HW139779   6.185   4.623   0.335 -0.8905  0.3429 -2.4542
12786SOL    HW239780   6.331   4.641   0.300 -0.1410 -1.3066 -0.3284
12787SOL     OW39781   9.035   2.800   6.280 -0.0397  0.6750 -0.3985
12787SOL    HW139782   8.985   2.728   6.240  0.5523  1.2723 -2.3320
12787SOL    HW239783   9.101   2.756   6.332  0.3451 -0.2248 -1.5938
12788SOL     OW39784   8.579   4.170   3.263 -0.3330  0.0036 -0.3907
12788SOL    HW139785   8.671   4.144   3.270  0.1849  0.5889 -3.5479
12788SOL    HW239786   8.531   4.088   3.269  0.3550 -0.3202  1.2369
12789SOL     OW39787   4.270   4.898   1.798  0.1810  0.3462 -0.2246
12789SOL    HW139788   4.298   4.827   1.857 -0.0642  0.3988 -0.0429
12789SOL    HW239789   4.198   4.940   1.845  2.2542  2.6755  1.1015
12790SOL     OW39790   4.332   4.158   4.954 -0.3019 -0.4366 -0.2308
12790SOL    HW139791   4.352   4.247   4.924 -0.2333 -0.1355  0.6767
12790SOL    HW239792   4.329   4.106   4.874  0.7300  0.1780 -0.6894
12791SOL     OW39793   6.976   5.228   2.511  0.2031  0.0728 -1.2235
12791SOL    HW139794   6.904   5.228   2.448 -0.3120 -1.2833 -0.6781
12791SOL    HW239795   7.054   5.248   2.459 -0.4865  1.1426 -1.8949
12792SOL     OW39796   5.979   5.971   4.825  0.5540 -0.2938 -0.4006
12792SOL    HW139797   5.953   5.949   4.914  1.1679  1.0711  0.1450
12792SOL    HW239798   6.074   5.984   4.830  1.0246 -2.5538 -1.7899
12793SOL     OW39799   5.522   2.795   8.731 -0.1493 -0.6789 -0.2254
12793SOL    HW139800   5.462   2.848   8.784 -0.2632 -1.5973  0.5935
12793SOL    HW239801   5.495   2.810   8.641  0.4287  1.3896 -0.0941
12794SOL     OW39802   7.271   1.091   4.843  0.2608 -0.0362 -0.7655
12794SOL    HW139803   7.355   1.089   4.797  0.5676 -0.0853 -0.2002
12794SOL    HW239804   7.251   1.183   4.854  0.6640 -0.0201 -0.1304
12795SOL     OW39805   6.310   4.186   0.092  0.7171 -0.2118 -0.2118
12795SOL    HW139806   6.288   4.205   0.183  2.1168 -1.1243  0.3492
12795SOL    HW239807   6.227   4.158   0.053  0.1703 -0.1784  0.8802
12796SOL     OW39808   4.554   5.654   2.838 -0.3204 -0.8548 -0.1745
12796SOL    HW139809   4.510   5.736   2.863  0.5283 -0.1423 -0.9126
12796SOL    HW239810   4.598   5.625   2.917 -0.5118 -0.5218  0.0567
12797SOL     OW39811   6.491   6.432   2.069  0.4125  0.2643  0.4051
12797SOL    HW139812   6.484   6.401   1.979 -0.4190 -0.9394  0.8573
12797SOL    HW239813   6.562   6.380   2.107  0.7604  0.7667  0.4472
12798SOL     OW39814   8.349   4.915   0.249 -0.0957 -0.5966  0.4422
12798SOL    HW139815   8.285   4.844   0.240 -0.7878  0.1961 -1.4607
12798SOL    HW239816   8.330   4.973   0.176  2.0130  0.3166  0.5581
12799SOL     OW39817   2.099   5.713   0.144 -0.4543  0.5284  0.0857
12799SOL    HW139818   2.060   5.661   0.073  0.8096  1.0687 -1.0586
12799SOL    HW239819   2.076   5.804   0.122 -0.1195  0.6943  0.4077
12800SOL     OW39820   2.894   8.192   6.074  0.0472  0.1003  0.0851
12800SOL    HW139821   2.951   8.179   5.999  1.2833  0.5895  0.9120
12800SOL    HW239822   2.848   8.109   6.084  1.9378 -0.9494  0.4618
12801SOL     OW39823   2.337   1.241   1.601 -0.4613  0.0464  0.0825
12801SOL    HW139824   2.366   1.332   1.595  0.6844 -0.3790 -1.5955
12801SOL    HW239825   2.268   1.242   1.667  0.5123  1.8729  1.1600
12802SOL     OW39826   6.500   0.123   2.475 -0.4981  0.1164  0.0227
12802SOL    HW139827   6.469   0.214   2.483  0.0370  0.3557 -0.5364
12802SOL    HW239828   6.543   0.105   2.559  1.3032  1.1323 -0.6399
12803SOL     OW39829   3.333   2.312   6.756 -0.1951 -0.5635  0.3301
12803SOL    HW139830   3.247   2.270   6.761 -1.3653  1.4360 -1.5403
12803SOL    HW239831   3.315   2.402   6.731  2.3259  0.7025  2.5564
12804SOL     OW39832   0.855   6.735   1.410 -0.2986  0.2295  0.3344
12804SOL    HW139833   0.851   6.708   1.318  0.4675  2.1018 -0.3050
12804SOL    HW239834   0.826   6.827   1.409 -1.0746  0.0488  2.0984
12805SOL     OW39835   4.021   7.272   4.809 -0.0390  0.3747  0.0140
12805SOL    HW139836   3.992   7.186   4.778  0.0072 -0.3188  1.7533
12805SOL    HW239837   4.094   7.253   4.867 -0.8452  1.4458  1.4486
12806SOL     OW39838   7.659   1.456   2.295  0.1960 -0.1879 -0.0652
12806SOL    HW139839   7.572   1.417   2.290 -0.0164  0.4179 -1.7395
12806SOL    HW239840   7.701   1.432   2.213  1.4844 -0.1495  0.5556
12807SOL     OW39841   5.185   7.542   2.982 -0.1675  0.0281 -0.4768
12807SOL    HW139842   5.216   7.630   3.006 -1.5571  0.5257 -0.4174
12807SOL    HW239843   5.253   7.483   3.014  0.7643  1.0782 -0.4711
12808SOL     OW39844   8.431   3.063   0.664 -0.1448 -0.1414 -0.7820
12808SOL    HW139845   8.402   2.972   0.654 -0.1547 -0.2433  0.1454
12808SOL    HW239846   8.525   3.057   0.679 -0.2260 -0.0394 -0.2019
12809SOL     OW39847   8.122   0.844   1.014 -0.0148  0.1418  0.3322
12809SOL    HW139848   8.209   0.881   1.029 -0.0125  1.1014 -1.7643
12809SOL    HW239849   8.138   0.751   0.996  0.9515  0.7686 -2.6044
12810SOL     OW39850   2.402   9.229   0.570 -0.2566 -0.0809  0.4734
12810SOL    HW139851   2.473   9.253   0.511 -0.7282  1.5452  0.5118
12810SOL    HW239852   2.325   9.221   0.513 -0.0042 -2.3527  0.3511
12811SOL     OW39853   2.970   7.947   4.737 -0.5180  0.0759  0.2758
12811SOL    HW139854   3.039   7.984   4.683 -0.2918 -0.2596  0.3326
12811SOL    HW239855   2.891   7.953   4.682 -0.5026  0.7034  0.3156
12812SOL     OW39856   1.190   0.583   8.151 -0.8568 -0.3615 -0.0558
12812SOL    HW139857   1.111   0.572   8.098 -2.1729  2.7134  0.9885
12812SOL    HW239858   1.168   0.655   8.211  2.1588 -0.5645  1.4829
12813SOL     OW39859   5.513   2.201   8.153  0.4134 -0.1894 -0.2629
12813SOL    HW139860   5.583   2.265   8.139  1.8517 -2.1455 -3.1590
12813SOL    HW239861   5.555   2.130   8.202  0.8603 -1.7430 -2.7062
12814SOL     OW39862   2.665   6.457   2.507 -0.2920  0.1033 -0.6809
12814SOL    HW139863   2.661   6.441   2.601 -0.1613 -0.0201 -0.6952
12814SOL    HW239864   2.575   6.440   2.476 -0.2652 -0.1565 -0.6230
12815SOL     OW39865   6.228   6.161   9.162  0.0378  0.3815 -0.6434
12815SOL    HW139866   6.234   6.249   9.124  0.0347  1.5899  1.9611
12815SOL    HW239867   6.141   6.159   9.203  0.9087  0.0559  1.2910
12816SOL     OW39868   8.215   0.319   1.445 -0.0591 -0.3825  0.1427
12816SOL    HW139869   8.178   0.315   1.533 -0.0206  0.2489  0.1981
12816SOL    HW239870   8.167   0.391   1.403  1.4271  0.8173  0.3860
12817SOL     OW39871   1.836   5.017   5.395  0.3441 -0.3849  0.1705
12817SOL    HW139872   1.845   5.047   5.486  1.0995 -0.0676 -0.0027
12817SOL    HW239873   1.925   5.021   5.360  0.3917 -2.3153 -0.0315
12818SOL     OW39874   1.263   2.909   7.063 -0.0925  0.7992  0.2460
12818SOL    HW139875   1.214   2.842   7.016  0.2473 -0.3741  1.4680
12818SOL    HW239876   1.276   2.979   7.000 -3.3215  1.1956 -0.1447
12819SOL     OW39877   0.459   2.991   1.826  0.1263  0.0278 -0.2410
12819SOL    HW139878   0.424   2.986   1.915  0.5058 -1.0039 -0.1400
12819SOL    HW239879   0.392   3.040   1.777 -0.2133  0.3685  0.5418
12820SOL     OW39880   6.066   8.379   5.783 -0.2460  0.4254  0.1539
12820SOL    HW139881   6.024   8.389   5.698  0.6480 -0.6822 -0.4448
12820SOL    HW239882   6.140   8.441   5.781 -0.2466  0.4260  0.1382
12821SOL     OW39883   2.292   2.175   5.410  0.3677  0.5676  0.3428
12821SOL    HW139884   2.386   2.185   5.427  0.6097 -0.7771 -0.0770
12821SOL    HW239885   2.268   2.095   5.455 -0.5877  0.8866  0.4223
12822SOL     OW39886   7.323   3.686   0.746  0.0262 -0.3098  0.6196
12822SOL    HW139887   7.266   3.701   0.822  0.3165  0.1928  0.7460
12822SOL    HW239888   7.381   3.762   0.746 -0.4594  0.0785 -0.5453
12823SOL     OW39889   5.519   0.837   1.913 -0.3592 -0.1306 -0.6625
12823SOL    HW139890   5.442   0.813   1.963  0.3593 -0.5850  0.2658
12823SOL    HW239891   5.562   0.754   1.893 -0.9748 -0.0147 -2.6552
12824SOL     OW39892   3.258   2.139   4.071 -0.0699  0.1736 -0.3537
12824SOL    HW139893   3.244   2.217   4.018 -1.3817 -0.3427 -0.8060
12824SOL    HW239894   3.259   2.067   4.007 -0.9949 -0.3816  0.2352
12825SOL     OW39895   9.262   8.801   4.939  0.1256  0.1357 -0.3062
12825SOL    HW139896   9.227   8.820   4.852 -0.8296 -0.9765 -0.1866
12825SOL    HW239897   9.353   8.832   4.935  0.5425 -1.1467 -2.1548
12826SOL     OW39898   0.797   2.356   1.234 -0.6855  0.4197  0.0375
12826SOL    HW139899   0.774   2.296   1.305  0.8765 -1.0560 -0.6164
12826SOL    HW239900   0.726   2.346   1.170 -0.0537 -1.4551 -0.4430
12827SOL     OW39901   1.041   6.538   9.176  0.2218  0.4085  0.5268
12827SOL    HW139902   1.000   6.597   9.239  1.0355  1.0159  0.4962
12827SOL    HW239903   1.113   6.588   9.138 -0.8234  0.4073 -1.6168
12828SOL     OW39904   6.194   1.329   8.525  0.3871  0.5351 -0.2924
12828SOL    HW139905   6.156   1.413   8.498  0.1647  0.4534 -0.2304
12828SOL    HW239906   6.125   1.287   8.576  0.8651  0.7676  0.5683
12829SOL     OW39907   9.071   0.773   8.414 -0.3800 -0.2322 -0.2563
12829SOL    HW139908   9.035   0.775   8.503 -1.2139 -1.7129 -0.5210
12829SOL    HW239909   9.165   0.789   8.426 -0.5362 -0.0658  0.8496
12830SOL     OW39910   0.720   8.776   2.881  0.1081 -0.6291 -0.1713
12830SOL    HW139911   0.728   8.830   2.802 -0.2379 -1.8458 -1.0726
12830SOL    HW239912   0.635   8.733   2.872  1.6857 -3.8754 -1.2046
12831SOL     OW39913   6.433   2.886   1.044  0.1341 -0.1249 -0.2720
12831SOL    HW139914   6.352   2.917   1.003 -1.2991 -1.3863  1.4868
12831SOL    HW239915   6.433   2.791   1.031  0.9225 -0.2433  0.4506
12832SOL     OW39916   3.088   2.805   4.324  0.5037 -0.6617 -0.4061
12832SOL    HW139917   3.108   2.714   4.347 -0.6279 -1.5009 -2.4675
12832SOL    HW239918   3.150   2.827   4.254  1.4259  0.5342  0.7345
12833SOL     OW39919   0.231   2.323   5.933 -0.3461 -0.1123  0.0756
12833SOL    HW139920   0.241   2.276   6.015 -0.2870 -1.3539 -0.6112
12833SOL    HW239921   0.152   2.286   5.894  0.7561 -1.0726 -1.3736
12834SOL     OW39922   4.584   4.998   7.460 -0.2098  0.1600  0.0775
12834SOL    HW139923   4.577   4.907   7.431 -0.5899  0.4887 -0.9250
12834SOL    HW239924   4.520   5.045   7.407  2.0175  1.5008 -1.6267
12835SOL     OW39925   1.662   3.109   1.903  0.7613 -0.6265  0.3487
12835SOL    HW139926   1.639   3.125   1.994  0.1109  0.0190  0.0742
12835SOL    HW239927   1.725   3.036   1.907  0.0345 -1.2233  1.2320
12836SOL     OW39928   6.447   0.164   7.345 -0.4538 -0.4762  0.0656
12836SOL    HW139929   6.448   0.242   7.291 -1.7202  0.1308  0.8737
12836SOL    HW239930   6.424   0.093   7.285 -0.7153 -0.0006 -0.4010
12837SOL     OW39931   0.396   2.440   1.747  0.3599 -0.1523 -0.6142
12837SOL    HW139932   0.474   2.469   1.699  1.3071 -0.7194  0.5185
12837SOL    HW239933   0.424   2.361   1.792 -0.8941 -0.3725 -0.1878
12838SOL     OW39934   1.003   2.806   5.020 -0.3202  0.0889  0.3869
12838SOL    HW139935   0.960   2.821   5.104 -1.2771  0.4614 -0.1598
12838SOL    HW239936   0.942   2.841   4.955  0.0028 -1.0073 -0.5298
12839SOL     OW39937   6.441   8.290   3.197  0.4971 -0.3367  0.4779
12839SOL    HW139938   6.447   8.221   3.263 -0.1616  0.1997  1.1117
12839SOL    HW239939   6.347   8.304   3.185  0.6069 -0.3825 -0.5415
12840SOL     OW39940   0.332   7.627   7.116 -0.1480 -0.3560  0.3263
12840SOL    HW139941   0.341   7.719   7.141  0.1314 -0.5751  1.0733
12840SOL    HW239942   0.418   7.603   7.082  0.4544 -0.8854  2.0811
12841SOL     OW39943   5.008   7.855   1.577 -0.6582 -0.1433  0.1411
12841SOL    HW139944   4.958   7.917   1.631  0.6040  1.2427 -0.1938
12841SOL    HW239945   5.009   7.896   1.490  0.1573 -0.6768 -0.1045
12842SOL     OW39946   2.956   8.697   8.956  0.2170 -0.6601 -0.5448
12842SOL    HW139947   3.037   8.694   9.008 -1.7946  0.9799  3.0151
12842SOL    HW239948   2.932   8.789   8.954 -2.1757 -1.2131 -0.3601
12843SOL     OW39949   4.007   4.837   7.447 -0.0643  0.3332  0.2398
12843SOL    HW139950   3.974   4.889   7.520  0.8858 -1.4774  2.0740
12843SOL    HW239951   4.097   4.867   7.435 -0.0260  0.2070  0.2134
12844SOL     OW39952   7.578   6.661   1.275 -0.4148 -0.0643  0.1696
12844SOL    HW139953   7.528   6.608   1.214  0.4582  0.0201 -0.6318
12844SOL    HW239954   7.512   6.698   1.334 -1.2188 -0.5040 -0.4416
12845SOL     OW39955   3.105   4.774   5.587 -0.0278  0.0720 -0.5515
12845SOL    HW139956   3.161   4.702   5.616 -0.1328  0.6512  1.2477
12845SOL    HW239957   3.069   4.810   5.669 -1.6653  0.8016 -1.5528
12846SOL     OW39958   5.492   6.038   3.434 -0.2554  0.1680  0.0464
12846SOL    HW139959   5.500   6.127   3.401 -0.2721  0.7882  1.6671
12846SOL    HW239960   5.422   6.042   3.499 -0.6919 -1.1688 -0.2983
12847SOL     OW39961   7.786   1.776   1.379  0.5218 -0.3565  0.0572
12847SOL    HW139962   7.810   1.843   1.314 -2.1417  0.5051 -0.1438
12847SOL    HW239963   7.724   1.720   1.334  0.2953 -1.0672  1.2216
12848SOL     OW39964   7.586   1.079   3.791 -0.1168 -0.5626 -0.0787
12848SOL    HW139965   7.675   1.088   3.756 -0.6426  0.4264 -1.2239
12848SOL    HW239966   7.530   1.079   3.714 -1.0798 -2.0445  0.5737
12849SOL     OW39967   9.088   1.467   2.555  0.1139 -0.3646 -0.1350
12849SOL    HW139968   9.080   1.496   2.464 -1.0663  2.2590  0.7157
12849SOL    HW239969   9.167   1.413   2.555 -0.0089 -0.6983 -2.7534
12850SOL     OW39970   3.419   6.790   3.508  0.3093 -0.6454 -0.0969
12850SOL    HW139971   3.440   6.698   3.490 -0.9231 -0.8986 -0.3376
12850SOL    HW239972   3.483   6.816   3.574  0.0483 -1.9869  0.7238
12851SOL     OW39973   1.740   0.929   1.256  0.2724 -0.2519  0.1120
12851SOL    HW139974   1.787   0.980   1.189  2.3766 -2.0041  0.1202
12851SOL    HW239975   1.660   0.979   1.273  1.2631  1.9783 -1.2763
12852SOL     OW39976   4.464   9.273   7.960  0.4191 -0.8722  0.1936
12852SOL    HW139977   4.499   9.242   7.876  2.9698  0.4755  0.6602
12852SOL    HW239978   4.481   9.367   7.959 -1.7380 -0.4134  1.2557
12853SOL     OW39979   1.726   6.682   3.879 -0.2800 -0.0632  0.1126
12853SOL    HW139980   1.724   6.596   3.919  1.3524 -0.8878 -1.4434
12853SOL    HW239981   1.818   6.707   3.879 -0.5881  1.1930 -0.4689
12854SOL     OW39982   6.855   8.739   8.822 -0.3798  0.1019  0.1822
12854SOL    HW139983   6.786   8.723   8.757  0.3619 -0.0202 -0.6007
12854SOL    HW239984   6.853   8.833   8.837  0.0667  0.2753 -0.7583
12855SOL     OW39985   2.450   5.933   5.678  0.3577  0.1458  0.5217
12855SOL    HW139986   2.522   5.989   5.651  0.5566 -0.3331  0.0351
12855SOL    HW239987   2.464   5.918   5.772  0.4496  0.6871  0.5957
12856SOL     OW39988   4.749   1.292   4.194  0.1434 -0.0398  0.0419
12856SOL    HW139989   4.706   1.236   4.258 -2.7580  0.3916 -1.3593
12856SOL    HW239990   4.786   1.231   4.130 -1.1832 -0.4276 -0.3818
12857SOL     OW39991   4.575   1.580   7.714 -0.0046 -0.2096 -0.5732
12857SOL    HW139992   4.492   1.572   7.761 -1.1944 -0.6562 -2.6372
12857SOL    HW239993   4.569   1.665   7.669  0.9423  0.0428 -0.2405
12858SOL     OW39994   4.355   8.958   5.601  0.3647 -0.3069  0.1794
12858SOL    HW139995   4.417   8.940   5.530 -0.2589  0.3816 -0.5587
12858SOL    HW239996   4.356   8.878   5.655 -0.7397 -1.7543 -1.7853
12859SOL     OW39997   4.313   7.859   7.601 -0.0234 -0.5871  0.1829
12859SOL    HW139998   4.382   7.830   7.542 -0.5834 -1.3618 -0.1113
12859SOL    HW239999   4.347   7.841   7.689 -0.1153 -1.6045  0.0199
12860SOL     OW40000   0.516   7.186   4.867 -0.0911 -0.1559 -0.6749
12860SOL    HW140001   0.428   7.158   4.839  0.6271 -2.3394 -0.9453
12860SOL    HW240002   0.533   7.135   4.946  0.8799  0.3702 -0.5300
12861SOL     OW40003   3.145   6.033   5.873  0.6393 -0.2261 -0.0550
12861SOL    HW140004   3.165   6.111   5.822  0.5441 -0.5137 -0.5400
12861SOL    HW240005   3.180   5.961   5.821 -0.7742 -0.6581 -0.4322
12862SOL     OW40006   8.173   4.090   2.899  0.2995  0.0882 -0.0188
12862SOL    HW140007   8.197   4.059   2.987  1.3355 -1.5633 -0.8364
12862SOL    HW240008   8.142   4.179   2.913  0.3892 -0.1533  2.0340
12863SOL     OW40009   6.575   2.326   6.392  0.0143  0.4707  0.0598
12863SOL    HW140010   6.553   2.238   6.362  2.0835  0.1881 -0.8003
12863SOL    HW240011   6.528   2.336   6.474 -1.2670 -0.9415 -0.4608
12864SOL     OW40012   2.105   1.170   4.501 -0.1608 -0.2552  0.2579
12864SOL    HW140013   2.074   1.261   4.495  1.0666  0.1698  0.0127
12864SOL    HW240014   2.196   1.174   4.472 -0.3803 -1.7507 -0.7314
12865SOL     OW40015   6.737   2.702   9.002  0.2453 -0.0329  0.8658
12865SOL    HW140016   6.814   2.731   8.954 -0.6097  1.3868  0.3069
12865SOL    HW240017   6.749   2.608   9.012  1.7689  0.0832  0.2901
12866SOL     OW40018   7.643   9.062   2.669  0.5990  0.8271 -0.7483
12866SOL    HW140019   7.619   9.056   2.761  0.5494  3.0400 -0.5612
12866SOL    HW240020   7.604   8.984   2.629  0.8706 -0.3317  1.1201
12867SOL     OW40021   0.364   3.930   9.205 -0.3672 -0.1712 -0.3289
12867SOL    HW140022   0.322   4.013   9.180 -0.6171 -0.1070  0.2791
12867SOL    HW240023   0.386   3.889   9.122 -0.7889  0.2320 -0.6515
12868SOL     OW40024   8.739   2.059   2.651  0.4487 -0.5014 -0.4532
12868SOL    HW140025   8.648   2.089   2.657  0.3996 -0.9014  1.3744
12868SOL    HW240026   8.732   1.966   2.627  0.2649 -0.9267  1.1053
12869SOL     OW40027   6.024   5.242   2.352 -0.8216 -0.1925 -0.0319
12869SOL    HW140028   6.034   5.176   2.284  0.1678 -1.0481  0.9006
12869SOL    HW240029   6.079   5.210   2.424 -0.1504  1.7439  0.3771
12870SOL     OW40030   4.450   7.477   7.976 -0.0945  0.4596 -0.1577
12870SOL    HW140031   4.494   7.413   7.920 -0.0676 -0.5256  0.9541
12870SOL    HW240032   4.361   7.482   7.942 -0.7301 -1.7798  0.9771
12871SOL     OW40033   5.134   1.197   0.076 -1.1290 -0.1602  0.6131
12871SOL    HW140034   5.138   1.139   0.152 -0.8161  1.9334  2.3009
12871SOL    HW240035   5.195   1.268   0.097 -1.2838  0.6522 -1.4629
12872SOL     OW40036   8.313   1.008   5.945 -0.0739 -0.2371  0.3793
12872SOL    HW140037   8.246   0.940   5.938 -1.0410  0.4944  1.9574
12872SOL    HW240038   8.322   1.024   6.039  1.1595  0.8203  0.1198
12873SOL     OW40039   5.403   5.189   5.655  0.4636 -0.5867 -0.0508
12873SOL    HW140040   5.356   5.257   5.608 -1.2291 -1.4435  0.3279
12873SOL    HW240041   5.444   5.234   5.729  1.0229  0.3204 -0.8856
12874SOL     OW40042   2.317   3.572   2.918 -0.5645  0.0627  0.4927
12874SOL    HW140043   2.312   3.659   2.956 -1.3257  0.2000  0.1083
12874SOL    HW240044   2.244   3.524   2.958 -0.8863 -0.0234 -0.1716
12875SOL     OW40045   0.475   7.629   9.138 -0.5927  0.0837 -0.1118
12875SOL    HW140046   0.480   7.536   9.117 -0.6898  0.0589 -0.0264
12875SOL    HW240047   0.535   7.640   9.212 -0.3446  0.1474 -0.3236
12876SOL     OW40048   4.355   4.891   4.999 -0.4740  0.0612 -0.4127
12876SOL    HW140049   4.339   4.975   5.044 -1.8843  0.1066 -0.9397
12876SOL    HW240050   4.296   4.893   4.924  0.8675 -0.5959 -1.5265
12877SOL     OW40051   4.275   1.079   0.717 -0.5250  0.3413 -0.1176
12877SOL    HW140052   4.291   0.985   0.713 -2.3273 -0.0430  0.4819
12877SOL    HW240053   4.201   1.093   0.657  0.3860  1.5571 -0.9976
12878SOL     OW40054   2.601   5.726   2.584 -0.1975  0.1490  0.7033
12878SOL    HW140055   2.656   5.753   2.511 -0.8389 -0.9546 -0.2272
12878SOL    HW240056   2.515   5.711   2.546 -0.5485 -0.4490  1.6730
12879SOL     OW40057   7.318   7.451   1.506  0.1269 -0.0260 -0.3335
12879SOL    HW140058   7.386   7.397   1.547  1.6725  1.6860 -0.4790
12879SOL    HW240059   7.289   7.509   1.576  1.4205  1.6354 -1.1044
12880SOL     OW40060   9.058   3.757   6.285  0.2961 -0.3961  0.5085
12880SOL    HW140061   9.130   3.803   6.242 -0.2997 -0.6610 -0.8053
12880SOL    HW240062   9.101   3.690   6.338  1.0845  0.4675  1.0001
12881SOL     OW40063   3.839   4.592   7.462 -0.1007  0.6092  0.2585
12881SOL    HW140064   3.925   4.634   7.462 -0.0338  0.6554 -2.1728
12881SOL    HW240065   3.851   4.513   7.516  1.7376  0.1862 -0.6785
12882SOL     OW40066   4.249   1.462   3.609  0.3550  0.0183  0.4519
12882SOL    HW140067   4.162   1.467   3.568  0.8689  1.1854 -0.5639
12882SOL    HW240068   4.231   1.454   3.702 -0.8641  0.5440  0.2847
12883SOL     OW40069   2.383   3.965   7.456  0.5004  0.1325  0.0048
12883SOL    HW140070   2.445   4.005   7.395 -1.5645  1.1161 -1.5913
12883SOL    HW240071   2.367   4.033   7.522  3.2954 -1.1897  2.2339
12884SOL     OW40072   0.505   0.776   6.652  0.0704  0.2730 -0.0754
12884SOL    HW140073   0.434   0.835   6.626 -1.0107 -1.6772 -1.8026
12884SOL    HW240074   0.461   0.699   6.688  1.3993 -0.0916  0.8466
12885SOL     OW40075   4.855   8.443   8.463 -0.2398 -0.5956  0.0688
12885SOL    HW140076   4.892   8.355   8.470  0.0766 -0.4449  0.3413
12885SOL    HW240077   4.881   8.474   8.376 -1.3522 -1.2149 -0.4988
12886SOL     OW40078   2.451   2.259   3.688  0.4960  0.5552  0.0804
12886SOL    HW140079   2.511   2.231   3.758  1.9989  0.8405 -1.0365
12886SOL    HW240080   2.444   2.183   3.631  1.5004  1.1711 -0.9034
12887SOL     OW40081   8.157   7.870   3.792  0.0901  0.4165 -0.5715
12887SOL    HW140082   8.198   7.893   3.709 -0.8348 -0.8457 -1.4327
12887SOL    HW240083   8.136   7.776   3.783 -2.3105  0.8189  0.0423
12888SOL     OW40084   8.744   7.973   1.496  0.2747 -0.0232  0.2601
12888SOL    HW140085   8.799   7.939   1.426  0.5544  1.5399 -0.3340
12888SOL    HW240086   8.670   7.913   1.501  0.5381 -0.4705 -0.9937
12889SOL     OW40087   1.476   5.249   3.265  0.2853 -0.2794 -0.1187
12889SOL    HW140088   1.469   5.344   3.257  0.4405 -0.2920 -0.4302
12889SOL    HW240089   1.387   5.217   3.253  0.3503 -0.2231 -0.7855
12890SOL     OW40090   2.921   8.080   2.493  0.3335 -0.2968  0.1804
12890SOL    HW140091   2.848   8.125   2.537  0.4238 -0.6643  0.7173
12890SOL    HW240092   2.910   8.101   2.400 -0.9046 -0.9821  0.1544
12891SOL     OW40093   7.851   5.835   7.457  0.4175  0.3884 -0.2567
12891SOL    HW140094   7.937   5.845   7.498  0.7259 -0.4949 -0.6565
12891SOL    HW240095   7.798   5.906   7.493  0.9160  0.1265  1.0330
12892SOL     OW40096   5.146   4.600   8.083  0.3036  0.1802  0.7071
12892SOL    HW140097   5.110   4.688   8.072  0.1984  0.2151  1.3120
12892SOL    HW240098   5.239   4.614   8.098  0.1198  0.2660  1.8691
12893SOL     OW40099   5.881   3.096   2.193 -0.1708  0.3429 -0.1915
12893SOL    HW140100   5.820   3.060   2.257 -0.5923  1.1544 -0.1231
12893SOL    HW240101   5.863   3.190   2.193 -0.3782  0.3389 -1.6948
12894SOL     OW40102   1.196   7.750   4.002 -0.7049  0.0765  0.0640
12894SOL    HW140103   1.119   7.707   3.964  0.0647 -0.6373 -0.7259
12894SOL    HW240104   1.258   7.757   3.929  0.8600 -1.4143  1.1671
12895SOL     OW40105   7.720   2.344   8.807 -0.2587 -0.2433 -0.3143
12895SOL    HW140106   7.755   2.428   8.836  0.1344 -0.5995  0.2626
12895SOL    HW240107   7.650   2.324   8.869  0.2242 -0.7534  0.0648
12896SOL     OW40108   5.556   1.797   9.151  0.3137  0.1485  0.0476
12896SOL    HW140109   5.522   1.772   9.065 -2.3202  0.4775  0.9156
12896SOL    HW240110   5.549   1.892   9.153  0.4677  0.1498  0.6099
12897SOL     OW40111   6.124   8.120   5.127 -0.5795  0.6458 -0.0768
12897SOL    HW140112   6.048   8.063   5.142  0.0963 -0.5819 -1.2204
12897SOL    HW240113   6.102   8.200   5.175 -2.9790  0.6465 -1.0325
12898SOL     OW40114   7.796   7.667   5.111  0.4022  0.0044 -0.4585
12898SOL    HW140115   7.789   7.757   5.079  0.2057  0.5132  0.9638
12898SOL    HW240116   7.721   7.622   5.071  0.8550  0.2845 -1.6854
12899SOL     OW40117   7.360   6.082   4.843  0.2303 -0.6901 -0.1660
12899SOL    HW140118   7.373   6.163   4.894 -0.7862 -0.6260  0.0160
12899SOL    HW240119   7.396   6.102   4.757  0.2169 -0.1258 -0.0446
12900SOL     OW40120   8.031   2.637   2.115  0.5309 -0.1411 -0.1796
12900SOL    HW140121   8.027   2.589   2.032 -0.1119  0.3202 -0.4244
12900SOL    HW240122   8.101   2.594   2.164  2.8973  1.2981 -2.0492
12901SOL     OW40123   2.119   5.623   9.144  0.0773  0.2426  0.0411
12901SOL    HW140124   2.049   5.581   9.094  0.6680 -0.2590 -0.3899
12901SOL    HW240125   2.192   5.627   9.082  0.5531  0.3964  0.6088
12902SOL     OW40126   6.566   2.075   4.836  0.0077  0.1436  0.4257
12902SOL    HW140127   6.483   2.030   4.855 -0.1082 -0.1079 -0.6374
12902SOL    HW240128   6.566   2.150   4.896  0.1855 -1.2050  2.1973
12903SOL     OW40129   2.475   6.034   2.968 -0.4263  0.2740 -0.0348
12903SOL    HW140130   2.473   5.944   2.999  0.9986 -0.8648 -2.8778
12903SOL    HW240131   2.519   6.082   3.038  2.0054 -1.9744  0.1306
12904SOL     OW40132   8.177   0.281   7.880 -0.1554  0.2010  0.4155
12904SOL    HW140133   8.180   0.202   7.933  0.5355  0.3154  0.5588
12904SOL    HW240134   8.196   0.252   7.791  1.8099  0.4064  0.7242
12905SOL     OW40135   8.988   0.229   9.265  0.4613 -0.6015  0.4956
12905SOL    HW140136   8.893   0.222   9.263  0.2878  1.0050  1.6057
12905SOL    HW240137   9.011   0.286   9.192  0.5045 -0.4159  0.6524
12906SOL     OW40138   8.007   4.201   1.542  0.2436 -0.8885  0.1457
12906SOL    HW140139   8.052   4.175   1.462 -0.5600 -2.1548  0.0740
12906SOL    HW240140   8.070   4.257   1.588  0.6210  0.0692 -1.4647
12907SOL     OW40141   1.856   7.992   6.615 -0.6548  1.1610 -0.2571
12907SOL    HW140142   1.866   7.944   6.698  0.8184  1.7926 -0.0463
12907SOL    HW240143   1.833   7.924   6.551  2.2184 -0.0693 -0.1424
12908SOL     OW40144   9.090   4.999   8.577 -0.1259 -0.4479  0.1136
12908SOL    HW140145   9.073   5.018   8.485  1.5453 -0.6565 -0.2818
12908SOL    HW240146   9.172   5.045   8.596 -0.7074  0.0176  1.6537
12909SOL     OW40147   2.104   6.794   8.008 -0.1694  0.5775  0.0007
12909SOL    HW140148   2.181   6.765   8.058 -1.1847 -2.0448  0.2047
12909SOL    HW240149   2.135   6.795   7.917  0.4947  1.0118  0.2201
12910SOL     OW40150   1.705   1.315   0.998  0.3611 -0.2360 -0.2738
12910SOL    HW140151   1.794   1.349   1.008  0.4400 -0.3658 -0.5130
12910SOL    HW240152   1.649   1.392   1.008  0.6531  0.5567 -3.4565
12911SOL     OW40153   2.884   7.862   1.213 -0.3556 -0.2881  0.1675
12911SOL    HW140154   2.924   7.864   1.126 -0.7078  1.4302  0.0058
12911SOL    HW240155   2.945   7.910   1.269 -1.2649  0.7274  0.3229
12912SOL     OW40156   3.098   8.191   8.494  0.2946  0.1046  0.1393
12912SOL    HW140157   3.038   8.225   8.428 -2.1362  1.3747  2.7975
12912SOL    HW240158   3.169   8.255   8.496 -0.6842  1.2291  0.1915
12913SOL     OW40159   3.105   1.565   8.110 -0.0130 -0.1328  0.4914
12913SOL    HW140160   3.154   1.545   8.030 -1.9667  0.2803 -0.8689
12913SOL    HW240161   3.024   1.516   8.101  0.1258 -0.8671  2.7330
12914SOL     OW40162   2.812   4.874   0.041  0.0851 -0.3054 -0.5410
12914SOL    HW140163   2.719   4.865   0.061 -0.4825 -0.7626 -3.0006
12914SOL    HW240164   2.813   4.912  -0.047  2.2231 -0.6883 -0.7264
12915SOL     OW40165   7.814   3.159   3.465 -0.4024  0.0055  0.5849
12915SOL    HW140166   7.729   3.188   3.499 -1.6822 -2.0713 -0.6136
12915SOL    HW240167   7.797   3.134   3.374  0.8883 -2.6997  0.9694
12916SOL     OW40168   3.699   2.908   8.036  0.6983  0.5230  0.0352
12916SOL    HW140169   3.656   2.862   8.108 -0.1127  0.8352 -0.2391
12916SOL    HW240170   3.646   2.987   8.023 -0.4652 -0.5163 -2.2780
12917SOL     OW40171   7.718   5.112   7.896  0.4894  0.3457 -0.4169
12917SOL    HW140172   7.735   5.160   7.977  0.0316  1.5825 -1.0255
12917SOL    HW240173   7.743   5.172   7.826  0.0768 -0.3764 -1.2112
12918SOL     OW40174   3.541   5.115   0.091  0.0805 -0.3145  0.0015
12918SOL    HW140175   3.601   5.050   0.127  3.1118  0.4598 -3.1308
12918SOL    HW240176   3.566   5.197   0.135  0.5489 -0.2024 -0.4646
12919SOL     OW40177   2.627   8.927   2.086 -0.7054 -0.6248 -0.7492
12919SOL    HW140178   2.710   8.942   2.041 -0.5953 -0.2830 -0.4404
12919SOL    HW240179   2.564   8.983   2.039 -0.2931  0.8746  0.4058
12920SOL     OW40180   5.472   7.068   0.068 -0.0612 -0.1392 -0.3073
12920SOL    HW140181   5.411   7.134   0.035 -0.8744 -0.7070  0.0199
12920SOL    HW240182   5.419   6.989   0.078  0.8949 -0.8626 -0.7192
12921SOL     OW40183   8.499   3.151   4.745 -0.2584  0.3593  0.1487
12921SOL    HW140184   8.486   3.092   4.671 -0.7951  1.7179 -0.8903
12921SOL    HW240185   8.585   3.191   4.729  0.3095 -0.4538  1.0877
12922SOL     OW40186   3.145   8.919   4.353  0.3681  0.2397  0.2289
12922SOL    HW140187   3.062   8.874   4.338 -0.3832  0.6200  2.7163
12922SOL    HW240188   3.183   8.874   4.429  2.6506 -0.1342 -1.0397
12923SOL     OW40189   6.010   4.236   2.618  0.6708 -0.0368 -0.2056
12923SOL    HW140190   6.102   4.248   2.640  1.0536 -1.1950 -1.0565
12923SOL    HW240191   5.964   4.244   2.702  1.7647 -1.4355  0.5829
12924SOL     OW40192   2.437   5.275   8.022 -0.4059 -0.3453 -0.5619
12924SOL    HW140193   2.386   5.300   8.099  2.9770  3.9978  0.6386
12924SOL    HW240194   2.403   5.330   7.952 -1.1943 -1.8004 -1.3614
12925SOL     OW40195   8.503   7.423   2.879  0.4225 -0.2846  0.5502
12925SOL    HW140196   8.501   7.342   2.829  0.0567 -1.1549  1.9138
12925SOL    HW240197   8.448   7.405   2.956 -1.1210  1.8362  0.0355
12926SOL     OW40198   0.418   3.386   4.342 -0.6043 -0.0169  0.5223
12926SOL    HW140199   0.443   3.377   4.250 -0.1590 -1.6934  0.7824
12926SOL    HW240200   0.326   3.362   4.344 -0.9633  1.2316  0.3592
12927SOL     OW40201   4.423   7.204   5.808 -0.1172  0.0609  0.2304
12927SOL    HW140202   4.403   7.297   5.821 -1.9517 -0.1279 -0.9228
12927SOL    HW240203   4.501   7.189   5.861  0.1522  2.2251  0.5472
12928SOL     OW40204   3.314   0.211   4.921  0.3157 -0.3432 -0.0099
12928SOL    HW140205   3.343   0.227   5.011 -0.1093 -0.7871  0.2057
12928SOL    HW240206   3.236   0.265   4.910 -1.0582 -2.0879  0.6832
12929SOL     OW40207   2.430   9.055   1.947 -0.6104 -0.3359 -0.2132
12929SOL    HW140208   2.364   9.074   2.014 -2.2457  0.2658 -1.9220
12929SOL    HW240209   2.412   9.118   1.877  0.4036 -1.5854 -1.6569
12930SOL     OW40210   8.953   6.320   0.041  0.2934  0.1148 -0.0243
12930SOL    HW140211   9.033   6.268   0.040  0.0952 -0.2018  0.4516
12930SOL    HW240212   8.919   6.313  -0.048 -0.2019 -1.3131  0.2459
12931SOL     OW40213   6.291   3.411   4.206  0.4047 -0.5963  0.1238
12931SOL    HW140214   6.304   3.391   4.299  0.8637  0.3874  0.2891
12931SOL    HW240215   6.375   3.449   4.178 -0.1221  0.2523 -0.3683
12932SOL     OW40216   4.724   6.478   6.709 -0.3164  0.5785  0.6614
12932SOL    HW140217   4.641   6.430   6.712  0.1223 -0.1294  1.7709
12932SOL    HW240218   4.707   6.550   6.648 -1.9802  0.8589  1.3942
12933SOL     OW40219   3.622   1.121   0.816 -0.3071 -0.2232  0.4269
12933SOL    HW140220   3.572   1.079   0.885  0.8109 -1.7843  0.3357
12933SOL    HW240221   3.646   1.206   0.853 -0.4340 -0.6881  1.6346
12934SOL     OW40222   8.168   3.699   6.813 -0.0791 -0.3016 -0.7672
12934SOL    HW140223   8.210   3.661   6.890  2.3022 -1.3104 -2.4521
12934SOL    HW240224   8.103   3.634   6.787  0.2499 -0.7288 -0.5430
12935SOL     OW40225   6.898   5.434   4.247 -0.5098  0.8811 -0.2796
12935SOL    HW140226   6.869   5.501   4.185  2.4715  2.0011 -0.6727
12935SOL    HW240227   6.882   5.472   4.333 -0.4395  1.3577 -0.4711
12936SOL     OW40228   7.435   6.945   1.037  0.0213  0.1953  0.0812
12936SOL    HW140229   7.419   6.896   0.957 -1.7477  1.2345 -0.2513
12936SOL    HW240230   7.476   7.026   1.008  1.1708 -0.2369  0.4425
12937SOL     OW40231   8.079   6.614   7.906 -0.0706  0.4680  0.1472
12937SOL    HW140232   8.143   6.684   7.895  2.1734 -1.6799 -1.6132
12937SOL    HW240233   8.099   6.578   7.992 -0.4358  1.2022  0.5500
12938SOL     OW40234   7.837   8.388   0.007 -0.2467  0.0229 -0.3157
12938SOL    HW140235   7.907   8.397  -0.058  1.5587  1.7065  1.7042
12938SOL    HW240236   7.801   8.477   0.015  0.6175  0.2229  2.0108
12939SOL     OW40237   4.840   2.389   2.563  0.0557  0.4599  0.6469
12939SOL    HW140238   4.901   2.330   2.607  1.2537  0.3720 -1.0576
12939SOL    HW240239   4.894   2.461   2.531 -0.7858  0.6028 -0.5270
12940SOL     OW40240   7.683   2.659   1.408 -0.1208 -0.0515 -0.4087
12940SOL    HW140241   7.622   2.694   1.473 -1.8591 -0.6563 -1.6598
12940SOL    HW240242   7.769   2.674   1.447 -1.0590  0.2321  1.7229
12941SOL     OW40243   1.019   6.904   6.650 -0.0891  0.2278  1.0325
12941SOL    HW140244   1.093   6.958   6.677  0.1690  0.2380  0.3257
12941SOL    HW240245   1.059   6.827   6.610 -0.4537 -0.4347  1.9021
12942SOL     OW40246   0.824   3.677   5.975 -0.8100 -0.6773 -0.7836
12942SOL    HW140247   0.740   3.708   5.940  0.3102  0.7714 -2.3416
12942SOL    HW240248   0.866   3.756   6.009  1.4605 -0.5889 -3.4414
12943SOL     OW40249   7.548   0.375   6.391  0.2569  0.1598 -0.2878
12943SOL    HW140250   7.602   0.450   6.366 -0.9099  1.2432  0.3140
12943SOL    HW240251   7.579   0.350   6.478  1.0177 -0.4366 -0.7178
12944SOL     OW40252   7.424   6.568   3.937 -0.0663 -0.1309  0.3561
12944SOL    HW140253   7.425   6.478   3.969  1.2101 -0.7762 -1.3320
12944SOL    HW240254   7.516   6.595   3.940 -0.1911  0.4808 -0.8106
12945SOL     OW40255   6.741   4.994   4.093 -0.2352  0.4522  0.3200
12945SOL    HW140256   6.781   5.031   4.172  1.1957 -0.2503 -0.0413
12945SOL    HW240257   6.747   5.064   4.028 -1.1979  0.9491  0.7513
12946SOL     OW40258   8.635   8.357   0.960  0.4236 -0.3001 -0.5433
12946SOL    HW140259   8.605   8.411   1.032  0.8014  1.1262 -1.4183
12946SOL    HW240260   8.697   8.412   0.913  1.0485 -1.6075 -1.3020
12947SOL     OW40261   2.059   6.133   3.373 -0.5833 -0.1888 -0.3033
12947SOL    HW140262   2.044   6.087   3.291 -0.3608 -1.9666  0.5937
12947SOL    HW240263   1.972   6.137   3.415 -0.6210  0.3334 -0.4177
12948SOL     OW40264   3.366   8.338   6.717  0.1523 -0.1560  0.1959
12948SOL    HW140265   3.426   8.384   6.776 -1.2962  3.1949 -0.6967
12948SOL    HW240266   3.283   8.336   6.763  0.3277 -2.8729  0.5602
12949SOL     OW40267   4.281   0.473   5.772  0.0034  0.4441  0.0345
12949SOL    HW140268   4.235   0.436   5.847  1.7245  0.6237  1.2622
12949SOL    HW240269   4.330   0.547   5.808 -0.2532  1.4552 -1.5789
12950SOL     OW40270   0.372   2.335   7.076 -0.3478 -0.3324  0.9172
12950SOL    HW140271   0.308   2.405   7.063  0.6848  0.6395  0.9299
12950SOL    HW240272   0.359   2.277   7.001  0.0849  0.9243 -0.1756
12951SOL     OW40273   2.493   3.444   1.684 -0.6783 -0.3408  0.6667
12951SOL    HW140274   2.516   3.353   1.662 -2.9895 -1.2283  1.5841
12951SOL    HW240275   2.422   3.466   1.625 -0.0218  0.9719  0.3361
12952SOL     OW40276   9.270   5.091   9.070  0.2415  0.3071  0.4367
12952SOL    HW140277   9.253   5.154   9.001  0.1521  2.7590  2.5561
12952SOL    HW240278   9.204   5.110   9.137  0.6623 -1.5870  1.4650
12953SOL     OW40279   4.603   5.959   0.030  0.1388  0.8818 -0.4349
12953SOL    HW140280   4.570   5.976   0.118 -1.0164  0.8574 -0.8381
12953SOL    HW240281   4.696   5.942   0.042  0.2888  2.2661  0.6126
12954SOL     OW40282   6.210   6.059   3.611  0.0507  0.0078  0.0611
12954SOL    HW140283   6.299   6.047   3.644  0.7894  0.3515 -1.6888
12954SOL    HW240284   6.209   6.014   3.527 -1.0313  1.1393 -0.5646
12955SOL     OW40285   1.502   6.060   7.120  0.3381  0.0206 -0.4035
12955SOL    HW140286   1.535   6.053   7.210  1.1726  1.6479 -0.5400
12955SOL    HW240287   1.564   6.120   7.077  0.4465 -1.3735 -2.3104
12956SOL     OW40288   1.373   8.403   3.670  0.0400  0.2601  0.0577
12956SOL    HW140289   1.421   8.425   3.590 -0.3998 -0.4817 -0.4287
12956SOL    HW240290   1.313   8.476   3.684 -1.3515 -0.5113 -1.4798
12957SOL     OW40291   5.978   7.219   0.268  0.0612 -0.0220 -0.1552
12957SOL    HW140292   5.904   7.266   0.306  1.6435  2.2121  0.4049
12957SOL    HW240293   5.983   7.137   0.318 -2.3427 -0.5352 -0.6495
12958SOL     OW40294   8.902   4.482   4.917 -0.0906  0.1666 -0.4780
12958SOL    HW140295   8.873   4.401   4.875 -0.5913  0.3471 -0.4853
12958SOL    HW240296   8.878   4.551   4.855 -1.6227  0.5223  0.4537
12959SOL     OW40297   8.203   3.071   8.694  0.4628  0.6094  0.4523
12959SOL    HW140298   8.147   3.119   8.633  1.2201  1.6263  0.5295
12959SOL    HW240299   8.273   3.036   8.639 -0.1960 -0.5953  0.3658
12960SOL     OW40300   9.094   2.554   5.425  0.3605  0.3631  0.4429
12960SOL    HW140301   9.129   2.637   5.390  0.4343  0.1282 -0.0538
12960SOL    HW240302   9.156   2.488   5.395  0.2116  0.1098  0.6991
12961SOL     OW40303   2.933   1.608   3.851  0.0233  0.2343 -0.2995
12961SOL    HW140304   2.958   1.598   3.759  0.8275  1.4142 -0.2285
12961SOL    HW240305   2.965   1.529   3.894 -0.0658 -0.1686 -0.9646
12962SOL     OW40306   8.074   8.347   7.730  0.3537  0.1334 -0.7139
12962SOL    HW140307   8.011   8.276   7.744  1.1671 -0.7995 -1.5902
12962SOL    HW240308   8.021   8.424   7.716 -0.5688  0.1203  2.0434
12963SOL     OW40309   2.693   7.353   5.992 -0.1654  0.2714 -0.0095
12963SOL    HW140310   2.620   7.415   5.994  1.3260  2.1259 -0.3319
12963SOL    HW240311   2.756   7.391   5.931  0.8638 -1.5400 -0.1592
12964SOL     OW40312   3.333   6.368   5.727  0.0251  0.4319  0.3318
12964SOL    HW140313   3.243   6.384   5.756 -0.4294  2.8751 -2.0721
12964SOL    HW240314   3.333   6.277   5.698 -1.6308  0.3474  0.5062
12965SOL     OW40315   6.214   0.345   3.130 -0.1114 -0.3214  0.4460
12965SOL    HW140316   6.256   0.259   3.128 -1.1471 -0.8410 -0.9123
12965SOL    HW240317   6.129   0.329   3.173 -0.4530 -0.0624 -0.1167
12966SOL     OW40318   5.317   3.894   2.888 -1.0178 -0.2117 -0.0009
12966SOL    HW140319   5.298   3.802   2.906 -0.9371 -0.2439 -0.0779
12966SOL    HW240320   5.411   3.896   2.868 -0.4471  0.2500  2.4257
12967SOL     OW40321   1.769   7.560   1.330 -0.1369  0.3930 -0.6264
12967SOL    HW140322   1.746   7.504   1.255 -0.9963  0.5049 -0.4570
12967SOL    HW240323   1.709   7.533   1.399 -0.1999  1.1593 -0.3740
12968SOL     OW40324   8.879   2.952   7.572  0.1742 -0.2557  0.1315
12968SOL    HW140325   8.895   2.898   7.495  0.3904 -0.2209  0.1501
12968SOL    HW240326   8.812   3.013   7.545 -0.2085 -0.6554  0.1679
12969SOL     OW40327   4.851   2.876   2.638  0.4228  0.1816  0.2865
12969SOL    HW140328   4.909   2.869   2.713  0.3646  0.4721  0.3623
12969SOL    HW240329   4.819   2.967   2.642  0.8924  0.3849 -0.4380
12970SOL     OW40330   2.529   6.926   2.782 -0.0842  0.2284 -0.4319
12970SOL    HW140331   2.515   7.012   2.742 -0.4697 -0.4919 -1.9438
12970SOL    HW240332   2.470   6.868   2.733  0.6375 -1.0069  0.1281
12971SOL     OW40333   5.552   2.111   0.903  0.9601 -0.2968  0.0430
12971SOL    HW140334   5.633   2.161   0.890 -0.3508  2.1236  0.4094
12971SOL    HW240335   5.542   2.059   0.823  1.9688  0.7477 -0.7976
12972SOL     OW40336   8.369   2.034   6.284  0.2427 -0.8180  0.2541
12972SOL    HW140337   8.332   2.122   6.272  2.8462  0.2983 -0.1726
12972SOL    HW240338   8.387   2.029   6.378 -0.9305 -1.3899  0.4734
12973SOL     OW40339   2.465   9.020   0.775 -0.5699  0.3397  0.1205
12973SOL    HW140340   2.557   9.043   0.760 -0.8195  0.4596 -1.4109
12973SOL    HW240341   2.416   9.078   0.717 -1.5671 -0.2576  0.3429
12974SOL     OW40342   6.415   9.090   1.567 -0.4533  0.3686 -0.8956
12974SOL    HW140343   6.499   9.078   1.523  0.1511  0.2810  0.2574
12974SOL    HW240344   6.351   9.060   1.503  0.4968 -1.1560 -1.1897
12975SOL     OW40345   6.099   3.494   1.635 -0.6465 -0.5005  0.3056
12975SOL    HW140346   6.169   3.438   1.601 -0.9641 -1.1117  0.6476
12975SOL    HW240347   6.025   3.435   1.648 -1.2045  0.1257  0.0264
12976SOL     OW40348   5.636   3.335   0.835 -0.3977 -0.0894 -0.1942
12976SOL    HW140349   5.540   3.330   0.830 -0.5443 -1.0190  2.2112
12976SOL    HW240350   5.664   3.245   0.847  0.5952  0.3476  0.9975
12977SOL     OW40351   9.214   7.890   5.861  1.1730 -0.3367  0.3943
12977SOL    HW140352   9.118   7.896   5.852  1.2274  1.5301  0.6474
12977SOL    HW240353   9.246   7.892   5.771  1.0144  0.8372  0.3425
12978SOL     OW40354   0.549   2.266   5.380 -0.3570 -0.0492  0.4138
12978SOL    HW140355   0.634   2.298   5.350 -0.4559 -1.1349 -1.1052
12978SOL    HW240356   0.502   2.345   5.408  0.3464  0.8316 -0.8201
12979SOL     OW40357   1.598   4.513   3.680  0.4002 -1.0450  1.0752
12979SOL    HW140358   1.503   4.514   3.668  0.6236  0.1674 -0.8576
12979SOL    HW240359   1.617   4.424   3.713 -1.4209 -1.1436  1.9690
12980SOL     OW40360   1.364   0.358   1.519  0.7655  0.1515 -0.0447
12980SOL    HW140361   1.319   0.404   1.590  2.6917  2.0642  0.0301
12980SOL    HW240362   1.319   0.386   1.440 -0.6556 -1.0915  0.2704
12981SOL     OW40363   0.083   3.953   4.339  0.1523  0.1610  0.4165
12981SOL    HW140364   0.132   4.031   4.365  0.6798 -0.3882  1.0935
12981SOL    HW240365   0.108   3.886   4.403 -0.5940 -0.4545  0.0766
12982SOL     OW40366   9.140   8.033   8.970 -0.1623 -0.4413  0.2180
12982SOL    HW140367   9.198   8.109   8.968 -0.5339 -0.1642 -0.1700
12982SOL    HW240368   9.200   7.958   8.966  0.2205 -0.1820  0.9284
12983SOL     OW40369   0.073   8.557   1.210 -0.1556  0.3616  0.0722
12983SOL    HW140370   0.002   8.504   1.245 -0.0886 -0.5182 -1.0584
12983SOL    HW240371   0.131   8.494   1.167  1.1130  1.1100  0.6313
12984SOL     OW40372   6.028   2.278   9.168 -0.1561  0.6073  0.4950
12984SOL    HW140373   6.066   2.191   9.179 -3.3888 -1.0260 -0.0883
12984SOL    HW240374   6.065   2.310   9.086 -1.0177 -1.4953 -0.7869
12985SOL     OW40375   6.802   4.938   5.142  0.5186 -0.1582 -0.1224
12985SOL    HW140376   6.885   4.906   5.177  0.6261 -0.5188 -0.6873
12985SOL    HW240377   6.769   4.997   5.209  2.3330  1.7779 -0.8144
12986SOL     OW40378   3.765   1.627   7.133  0.3559  0.7036 -0.0935
12986SOL    HW140379   3.751   1.692   7.064  1.2211  0.6412 -0.3332
12986SOL    HW240380   3.792   1.548   7.086 -1.1794 -0.0126  0.1491
12987SOL     OW40381   6.704   5.580   0.910  0.3629 -0.0338 -0.3715
12987SOL    HW140382   6.753   5.591   0.829 -0.6262  1.7727 -0.7668
12987SOL    HW240383   6.761   5.619   0.977  0.9282 -1.0174 -0.2547
12988SOL     OW40384   6.626   5.192   6.953 -0.1111 -0.2530  0.1660
12988SOL    HW140385   6.632   5.164   6.862  0.0741 -0.7909  0.3369
12988SOL    HW240386   6.613   5.111   7.002 -0.3847  0.0518  0.6018
12989SOL     OW40387   3.783   0.851   8.422 -0.0696 -0.3276 -0.6450
12989SOL    HW140388   3.785   0.764   8.383 -0.8198 -0.8723  0.4780
12989SOL    HW240389   3.869   0.888   8.403  1.0830 -2.1633  0.7048
12990SOL     OW40390   3.942   4.162   8.819  0.1201  0.4236 -0.2082
12990SOL    HW140391   3.992   4.156   8.901  0.9614  3.9979 -0.2899
12990SOL    HW240392   3.937   4.256   8.801 -0.1751 -0.1970 -4.1941
12991SOL     OW40393   3.014   0.648   4.933 -0.2006 -0.2018  0.1055
12991SOL    HW140394   2.935   0.597   4.950 -0.8478  0.3788 -1.0354
12991SOL    HW240395   3.064   0.594   4.871 -0.0925 -0.1850  0.1768
12992SOL     OW40396   5.690   4.709   6.501  0.0040 -0.0986  0.2825
12992SOL    HW140397   5.719   4.646   6.434 -0.0285 -1.0882  1.1820
12992SOL    HW240398   5.611   4.670   6.538  0.2159  0.2684  1.1405
12993SOL     OW40399   5.154   5.221   6.144 -0.9711 -0.1588 -0.2902
12993SOL    HW140400   5.205   5.143   6.122  0.8142  1.2596 -1.4910
12993SOL    HW240401   5.065   5.189   6.156 -0.6846 -2.1150 -2.7003
12994SOL     OW40402   5.626   8.812   5.295  0.1208  0.9550  0.1878
12994SOL    HW140403   5.607   8.733   5.244  0.1791  0.6217  0.6766
12994SOL    HW240404   5.705   8.848   5.254 -0.6759  1.5348 -0.9112
12995SOL     OW40405   0.074   8.125   5.082  0.1204 -0.3660 -0.4514
12995SOL    HW140406   0.015   8.144   5.009 -1.8335 -0.5801  0.9856
12995SOL    HW240407   0.109   8.210   5.107  0.6006 -0.2567 -1.4302
12996SOL     OW40408   3.136   3.733   8.500  0.2846 -0.3758  0.5418
12996SOL    HW140409   3.069   3.727   8.568  0.0423 -0.3400  0.3090
12996SOL    HW240410   3.133   3.824   8.471  0.4292 -0.3759  0.5263
12997SOL     OW40411   8.197   8.789   2.654 -0.6416 -0.1797  0.3488
12997SOL    HW140412   8.186   8.824   2.742 -2.0325  0.7160 -0.1477
12997SOL    HW240413   8.111   8.753   2.631  0.0275 -1.5241 -0.1930
12998SOL     OW40414   0.172   6.627   2.674 -0.2406  0.7773 -0.0559
12998SOL    HW140415   0.143   6.658   2.760  0.6724 -0.6937  0.8246
12998SOL    HW240416   0.251   6.575   2.693 -0.3568 -0.0652 -1.7197
12999SOL     OW40417   1.941   5.926   7.937 -0.1264 -0.0141  0.0333
12999SOL    HW140418   1.922   5.893   8.025  3.7747 -0.5639  0.8799
12999SOL    HW240419   2.030   5.895   7.919 -0.1019  1.6163 -3.3986
13000SOL     OW40420   1.959   9.136   7.742  0.1966  0.2600 -0.0998
13000SOL    HW140421   1.931   9.227   7.753  0.4549  0.3582 -0.2253
13000SOL    HW240422   2.038   9.129   7.796 -0.3902 -0.1736  0.7240
13001SOL     OW40423   0.541   3.121   9.129 -0.4316 -0.1977  0.5631
13001SOL    HW140424   0.604   3.174   9.080  0.5172 -2.5786 -0.9859
13001SOL    HW240425   0.457   3.139   9.088  0.1869 -1.3214 -1.3853
13002SOL     OW40426   5.021   2.777   8.169  0.1969 -0.2919  0.5348
13002SOL    HW140427   4.974   2.783   8.252  0.5086  0.2298  0.6779
13002SOL    HW240428   4.952   2.758   8.104 -0.0504 -0.6768  0.8999
13003SOL     OW40429   2.361   6.541   1.383 -0.0951  0.2506  0.0783
13003SOL    HW140430   2.281   6.575   1.424 -0.5034 -0.5497 -0.0474
13003SOL    HW240431   2.378   6.458   1.427 -0.6720 -0.7546 -1.4785
13004SOL     OW40432   6.797   5.117   6.497  0.4773 -0.2842 -0.2992
13004SOL    HW140433   6.775   5.209   6.487 -0.3835 -0.5480 -0.9645
13004SOL    HW240434   6.877   5.106   6.445  1.9246  0.5542  1.6491
13005SOL     OW40435   6.634   8.176   2.158  0.8317  0.3779 -0.0893
13005SOL    HW140436   6.723   8.171   2.192  0.2121 -0.3769  1.5764
13005SOL    HW240437   6.644   8.196   2.065  2.7317 -0.1468 -0.0349
13006SOL     OW40438   0.707   5.808   6.147  0.1281  0.0470 -0.1132
13006SOL    HW140439   0.710   5.888   6.199  0.0031  0.3797 -0.6062
13006SOL    HW240440   0.702   5.737   6.211 -1.1205  0.4893  0.3033
13007SOL     OW40441   9.173   5.856   1.383  0.1623  0.5521 -0.1239
13007SOL    HW140442   9.251   5.805   1.405 -0.1631 -0.6564 -1.6219
13007SOL    HW240443   9.177   5.866   1.288 -1.7603  0.0542 -0.2819
13008SOL     OW40444   1.745   4.000   1.829  0.5795 -0.1389 -0.5070
13008SOL    HW140445   1.692   3.928   1.865  0.5039 -0.9569 -2.1740
13008SOL    HW240446   1.726   4.074   1.887 -1.1405 -0.8471 -0.0933
13009SOL     OW40447   5.610   5.710   6.467 -0.2846 -0.5082 -0.0404
13009SOL    HW140448   5.644   5.767   6.398 -1.9926 -0.5783 -0.9851
13009SOL    HW240449   5.686   5.658   6.494  0.4515 -0.4697 -1.8592
13010SOL     OW40450   1.770   4.636   1.388 -0.0874 -0.0418  0.3690
13010SOL    HW140451   1.783   4.629   1.483  1.5634  0.2093  0.1890
13010SOL    HW240452   1.712   4.563   1.367  0.2759 -0.6699  1.4468
13011SOL     OW40453   7.425   3.464   5.385  0.3234 -0.5596 -0.0866
13011SOL    HW140454   7.506   3.440   5.429  0.3026 -0.3323  0.0739
13011SOL    HW240455   7.362   3.481   5.455  0.6909  1.2314 -0.1493
13012SOL     OW40456   7.484   7.635   3.070  0.1944 -1.1611 -0.4950
13012SOL    HW140457   7.446   7.548   3.079 -2.2075 -0.0385  1.0838
13012SOL    HW240458   7.415   7.689   3.032  0.6831  0.6160  0.9438
13013SOL     OW40459   8.147   1.793   7.871 -0.2189 -0.1762  0.1532
13013SOL    HW140460   8.074   1.854   7.882  0.2867  0.3864  0.5270
13013SOL    HW240461   8.217   1.832   7.924  0.5192 -0.4113 -0.6348
13014SOL     OW40462   4.573   5.510   1.973  0.3183  0.1878  0.1250
13014SOL    HW140463   4.493   5.562   1.965 -0.1314 -0.1831  1.8918
13014SOL    HW240464   4.595   5.514   2.066  3.2238  1.5328 -0.5260
13015SOL     OW40465   2.197   6.674   9.274  0.0132 -0.0689 -0.0181
13015SOL    HW140466   2.292   6.682   9.285 -0.0539 -0.5522  0.9699
13015SOL    HW240467   2.186   6.642   9.184  0.7780  0.0446 -0.1568
13016SOL     OW40468   6.862   8.720   7.887  0.5864  0.6528  0.1128
13016SOL    HW140469   6.768   8.713   7.903  0.9788 -0.0841  2.4621
13016SOL    HW240470   6.876   8.670   7.806 -0.6544 -1.9625  1.3776
13017SOL     OW40471   0.529   3.990   5.577 -0.5383  0.0914  0.0658
13017SOL    HW140472   0.622   3.986   5.556 -1.0690 -0.2087 -2.5183
13017SOL    HW240473   0.526   4.015   5.669  2.0594  2.1127 -0.3097
13018SOL     OW40474   6.697   0.213   2.976  0.5385 -0.9686  0.1662
13018SOL    HW140475   6.618   0.189   2.928  0.8524 -0.7717 -0.4615
13018SOL    HW240476   6.761   0.147   2.951  0.1267 -2.1152  1.9548
13019SOL     OW40477   8.118   8.518   5.052 -0.4088 -0.4314  0.0887
13019SOL    HW140478   8.152   8.457   4.987  0.3674 -1.4977  1.4380
13019SOL    HW240479   8.181   8.591   5.053  0.6541 -1.3158  0.9465
13020SOL     OW40480   2.031   8.381   5.409 -0.1942 -0.0863  0.7667
13020SOL    HW140481   2.084   8.304   5.430 -0.1182  0.1988  1.6767
13020SOL    HW240482   2.079   8.425   5.339  0.7700  0.1522  1.5619
13021SOL     OW40483   3.953   1.589   7.334  0.9136 -0.5155 -0.1813
13021SOL    HW140484   3.890   1.619   7.269  0.9603 -0.8721 -0.3917
13021SOL    HW240485   4.038   1.614   7.297  0.9774 -1.2329 -0.5354
13022SOL     OW40486   2.270   1.103   5.946 -0.1220  0.3246 -0.1011
13022SOL    HW140487   2.278   1.010   5.967  1.0360 -0.0864 -2.0789
13022SOL    HW240488   2.199   1.135   6.002  0.5814 -1.3349  1.8430
13023SOL     OW40489   0.578   7.772   4.166  0.2960 -0.1188  0.5433
13023SOL    HW140490   0.590   7.803   4.076 -0.7324 -2.0723 -0.3356
13023SOL    HW240491   0.608   7.844   4.221  0.5406  1.2992 -1.3609
13024SOL     OW40492   5.813   1.795   3.485  0.1609 -0.5337  0.3281
13024SOL    HW140493   5.814   1.851   3.562  0.4721 -0.8409  0.5493
13024SOL    HW240494   5.766   1.846   3.419  0.3951 -0.0292  0.5426
13025SOL     OW40495   7.008   8.560   7.554  0.2166  0.2321  0.8534
13025SOL    HW140496   7.043   8.527   7.471 -0.7711  0.4552  0.3326
13025SOL    HW240497   7.078   8.615   7.589 -0.5999  3.1086 -1.6020
13026SOL     OW40498   0.479   4.483   2.390  0.2920 -0.5049  0.2341
13026SOL    HW140499   0.397   4.457   2.346 -0.0682  3.4031 -1.8744
13026SOL    HW240500   0.546   4.430   2.347 -0.5170  0.5799 -2.6241
13027SOL     OW40501   3.722   3.549   4.523  0.3591 -0.4106 -0.0608
13027SOL    HW140502   3.788   3.604   4.565 -0.6512  1.2873 -0.5954
13027SOL    HW240503   3.698   3.485   4.590  0.5310  0.7089  1.1116
13028SOL     OW40504   1.206   5.176   2.308 -0.3652 -0.2936 -0.2722
13028SOL    HW140505   1.232   5.084   2.297 -0.5197 -0.3067 -0.5576
13028SOL    HW240506   1.285   5.226   2.290 -0.0244 -0.4043  0.8695
13029SOL     OW40507   0.610   1.899   1.243  0.3863  0.1649  0.2710
13029SOL    HW140508   0.668   1.840   1.195 -0.8564 -0.2407 -0.7673
13029SOL    HW240509   0.532   1.847   1.261 -0.7940  1.4966 -0.7928
13030SOL     OW40510   1.624   0.057   0.388  0.1872  0.1047 -0.2737
13030SOL    HW140511   1.612   0.072   0.481 -1.7665 -0.0440 -0.4690
13030SOL    HW240512   1.584  -0.029   0.372  2.4312 -0.9127 -0.9002
13031SOL     OW40513   7.135   4.596   1.211  0.3586 -0.3235 -0.2864
13031SOL    HW140514   7.196   4.659   1.248  0.9230 -0.1496 -1.4882
13031SOL    HW240515   7.173   4.511   1.232  0.4233 -0.2383 -0.0575
13032SOL     OW40516   0.527   6.103   1.894 -0.1614  0.0092 -0.7350
13032SOL    HW140517   0.540   6.107   1.799 -0.9569  0.7487 -0.8268
13032SOL    HW240518   0.438   6.136   1.907 -0.2614 -0.5966  0.2246
13033SOL     OW40519   7.903   3.255   2.683 -0.1821  0.1500 -0.2916
13033SOL    HW140520   7.975   3.200   2.715  0.8590  0.8193 -1.4207
13033SOL    HW240521   7.940   3.342   2.676 -2.1933  1.4355  2.8559
13034SOL     OW40522   2.569   0.861   2.258 -0.1128 -0.0782 -0.1436
13034SOL    HW140523   2.562   0.954   2.279 -0.0671  0.0144 -0.5379
13034SOL    HW240524   2.582   0.859   2.163  0.1821 -0.4740 -0.0937
13035SOL     OW40525   4.710   2.668   1.839 -0.3886  0.1291  0.5156
13035SOL    HW140526   4.738   2.584   1.802 -1.7007 -1.5187  2.9619
13035SOL    HW240527   4.752   2.671   1.925 -1.6975  1.1603  1.1499
13036SOL     OW40528   8.112   0.834   5.830  0.0561 -0.0873 -0.3126
13036SOL    HW140529   8.051   0.881   5.773 -1.2631 -1.5956 -0.2048
13036SOL    HW240530   8.058   0.769   5.874  1.6029 -0.8909  0.4710
13037SOL     OW40531   7.755   8.594   0.745 -0.0347  0.4816 -0.3281
13037SOL    HW140532   7.804   8.572   0.666 -0.1740 -0.5171 -0.1435
13037SOL    HW240533   7.806   8.664   0.786  0.6623  0.2002 -0.7013
13038SOL     OW40534   4.435   2.969   6.218  0.4558  0.2265 -0.6740
13038SOL    HW140535   4.361   3.030   6.221  2.0922  2.3320 -0.8473
13038SOL    HW240536   4.450   2.945   6.309 -1.1087 -1.1201 -0.7417
13039SOL     OW40537   0.425   4.596   7.892 -0.0929  0.1859 -0.3373
13039SOL    HW140538   0.506   4.622   7.936  0.6524 -0.6368 -1.1905
13039SOL    HW240539   0.384   4.534   7.952  0.2459  0.0851 -0.2089
13040SOL     OW40540   5.555   3.620   6.315 -0.2573  0.2503  0.2616
13040SOL    HW140541   5.574   3.602   6.407  3.0160 -0.2748 -0.3977
13040SOL    HW240542   5.476   3.674   6.317  0.3960  1.2900  3.4713
13041SOL     OW40543   8.927   8.348   5.111 -0.4162  0.1546  0.5357
13041SOL    HW140544   8.870   8.296   5.054 -1.0348  0.0592  1.2274
13041SOL    HW240545   9.014   8.309   5.102  0.0280  1.5024 -2.0656
13042SOL     OW40546   3.711   9.051   8.034  0.5708 -0.0196  0.1951
13042SOL    HW140547   3.725   8.958   8.017  0.8014  0.3541 -1.9075
13042SOL    HW240548   3.621   9.067   8.005  0.8611  0.5908 -0.4022
13043SOL     OW40549   3.420   5.292   1.488 -0.2801  0.1185  0.8764
13043SOL    HW140550   3.484   5.314   1.556 -0.6957 -0.2525  1.4019
13043SOL    HW240551   3.465   5.230   1.431  0.3125  0.9857  0.3898
13044SOL     OW40552   7.920   0.956   4.201  0.2448  0.5296  0.1002
13044SOL    HW140553   7.843   0.900   4.193  0.0990  0.6467  0.6951
13044SOL    HW240554   7.919   1.009   4.121 -0.2467  0.4798  0.0698
13045SOL     OW40555   4.106   1.455   0.901 -0.9152 -0.4988 -0.3093
13045SOL    HW140556   4.194   1.421   0.920 -0.3370  1.2122  0.2030
13045SOL    HW240557   4.049   1.380   0.916  0.3639 -1.4091  0.2657
13046SOL     OW40558   2.844   2.272   7.996 -0.0731 -0.1495 -0.0516
13046SOL    HW140559   2.818   2.183   8.020  0.3200  0.0702  1.2758
13046SOL    HW240560   2.838   2.274   7.901 -0.8538 -1.3547 -0.0440
13047SOL     OW40561   9.120   7.611   6.732  0.6644 -0.3726 -0.6940
13047SOL    HW140562   9.057   7.657   6.787  0.4261 -0.8970 -0.5274
13047SOL    HW240563   9.204   7.623   6.777  0.3599 -1.4297  0.1990
13048SOL     OW40564   5.665   3.084   6.350 -0.2888 -0.4361 -0.4449
13048SOL    HW140565   5.587   3.028   6.358  0.1725 -1.0745 -0.3277
13048SOL    HW240566   5.709   3.052   6.272  0.1382 -0.4472 -0.2042
13049SOL     OW40567   2.481   7.240   5.779 -0.2822  0.5213  0.3236
13049SOL    HW140568   2.550   7.296   5.744 -0.1735  0.0209 -0.2740
13049SOL    HW240569   2.409   7.300   5.798 -0.0026  0.9237  0.1229
13050SOL     OW40570   8.203   4.903   2.129 -0.1425 -0.0415 -0.3525
13050SOL    HW140571   8.174   4.994   2.122 -0.0506 -0.0327 -0.6598
13050SOL    HW240572   8.298   4.910   2.143 -0.0195 -0.0999 -1.1109
13051SOL     OW40573   3.116   2.787   8.517  0.5366 -0.2219  0.5168
13051SOL    HW140574   3.044   2.732   8.486 -0.1163 -0.4760  2.3319
13051SOL    HW240575   3.157   2.821   8.438 -1.8098  0.2268 -0.5708
13052SOL     OW40576   7.750   7.116   1.930  0.2500  0.6118  0.1863
13052SOL    HW140577   7.821   7.056   1.906 -0.0011  0.1354  0.6208
13052SOL    HW240578   7.717   7.082   2.013 -1.8249 -0.3952 -0.9590
13053SOL     OW40579   0.508   5.411   1.747 -0.0828 -0.8815  0.0134
13053SOL    HW140580   0.533   5.420   1.839 -0.4738  1.0871 -0.0236
13053SOL    HW240581   0.419   5.375   1.749 -0.3134 -0.3126  0.4576
13054SOL     OW40582   4.966   2.918   4.740  0.6294  0.4788  0.5323
13054SOL    HW140583   4.948   2.918   4.834  0.6503 -0.8571  0.5426
13054SOL    HW240584   5.048   2.967   4.732  0.7429  0.4066  1.2259
13055SOL     OW40585   7.768   0.401   0.523 -0.1764  0.5257 -0.3515
13055SOL    HW140586   7.683   0.397   0.566  0.1426 -1.4139  0.1786
13055SOL    HW240587   7.830   0.370   0.589  0.8344  1.1357 -0.9897
13056SOL     OW40588   1.672   3.741   1.967  0.0361  0.2486  0.0267
13056SOL    HW140589   1.751   3.687   1.972  0.4998  1.0061  1.8930
13056SOL    HW240590   1.605   3.683   1.932  0.3674 -1.7588  2.4818
13057SOL     OW40591   7.839   3.558   5.325  0.0751 -0.3911  0.5407
13057SOL    HW140592   7.764   3.503   5.345 -2.2430  2.4042  0.3034
13057SOL    HW240593   7.818   3.642   5.366  2.7525  0.7310 -0.2030
13058SOL     OW40594   1.477   7.533   4.273  0.2138 -0.0678  0.0711
13058SOL    HW140595   1.548   7.485   4.317  1.5636  1.0601 -0.7900
13058SOL    HW240596   1.478   7.619   4.315  0.7170  0.6222 -1.3216
13059SOL     OW40597   1.248   8.584   5.356  0.9028  0.4836  0.0182
13059SOL    HW140598   1.302   8.644   5.304  1.5028  0.2329  0.3456
13059SOL    HW240599   1.204   8.641   5.419  0.6457  0.7115 -0.3615
13060SOL     OW40600   0.199   2.594   5.420  0.5153 -0.0620 -1.2537
13060SOL    HW140601   0.188   2.670   5.477 -0.3998  0.1560 -1.6992
13060SOL    HW240602   0.284   2.607   5.379  2.3633 -1.4355  1.8222
13061SOL     OW40603   2.298   5.536   8.944  0.4868  0.4104  0.4982
13061SOL    HW140604   2.364   5.584   8.894  1.1527 -0.0437  0.9287
13061SOL    HW240605   2.332   5.447   8.950 -0.5156 -0.0232  0.1098
13062SOL     OW40606   4.093   5.113   0.870 -0.1609 -0.2397  0.1676
13062SOL    HW140607   4.173   5.080   0.911  0.5719  2.3244  0.9959
13062SOL    HW240608   4.090   5.070   0.785  1.2314 -1.5759  0.7504
13063SOL     OW40609   8.819   0.063   4.272  0.2301 -0.1462 -0.4887
13063SOL    HW140610   8.773   0.051   4.355  0.5120 -1.2690 -0.4848
13063SOL    HW240611   8.880   0.134   4.289  1.1522 -1.1702  0.6624
13064SOL     OW40612   2.964   3.480   9.239  0.2805 -0.1644  0.2259
13064SOL    HW140613   2.963   3.525   9.155 -0.9524  1.2012  0.9315
13064SOL    HW240614   2.993   3.546   9.302  1.1482 -1.1506  0.9103
13065SOL     OW40615   7.727   0.291   1.022 -0.0086 -0.3404 -0.6270
13065SOL    HW140616   7.738   0.244   0.939  1.6540  0.7521 -1.0833
13065SOL    HW240617   7.659   0.243   1.068  0.6338 -2.3645 -1.6587
13066SOL     OW40618   0.835   6.621   8.567  0.3423 -0.2282  0.0960
13066SOL    HW140619   0.891   6.543   8.568 -1.8075 -1.8757 -0.3612
13066SOL    HW240620   0.877   6.681   8.628  2.5096 -1.4140 -0.1111
13067SOL     OW40621   8.225   2.698   1.491  0.2112 -0.3584 -0.6036
13067SOL    HW140622   8.298   2.734   1.441  0.7702  0.5267  0.7894
13067SOL    HW240623   8.265   2.672   1.575 -0.8729 -0.9202 -0.2454
13068SOL     OW40624   7.485   4.381   3.863 -0.5685  0.9267 -0.2897
13068SOL    HW140625   7.502   4.408   3.954 -0.1559 -0.7535  0.1675
13068SOL    HW240626   7.566   4.403   3.816  0.3085 -0.7093  0.3801
13069SOL     OW40627   8.143   2.058   3.566  0.2507  0.5927 -0.3130
13069SOL    HW140628   8.190   1.977   3.587 -1.3224 -0.6342 -1.3171
13069SOL    HW240629   8.191   2.126   3.613  1.4658 -0.9454  0.7888
13070SOL     OW40630   3.729   5.135   2.083 -0.4076  0.5538  0.2394
13070SOL    HW140631   3.791   5.065   2.102  1.4172  2.0664  0.0970
13070SOL    HW240632   3.694   5.113   1.997 -0.5689 -0.6550  0.5970
13071SOL     OW40633   6.037   8.053   3.290  0.1763 -0.2813  0.0509
13071SOL    HW140634   5.985   8.082   3.216  0.9087 -0.5105 -0.5739
13071SOL    HW240635   5.973   8.029   3.358 -0.4971 -0.0523 -0.5002
13072SOL     OW40636   3.788   1.472   7.538 -0.4790  0.2137 -0.2857
13072SOL    HW140637   3.823   1.479   7.449  2.0720 -0.8303  0.5404
13072SOL    HW240638   3.699   1.507   7.532 -0.1598  0.7553 -3.0935
13073SOL     OW40639   6.407   1.375   3.432  0.1089 -0.0480  0.1114
13073SOL    HW140640   6.476   1.387   3.498 -0.0460  1.1815  0.0749
13073SOL    HW240641   6.404   1.459   3.386  1.0318 -1.2412 -2.2830
13074SOL     OW40642   5.631   1.334   4.906  0.1893  0.4633 -0.0385
13074SOL    HW140643   5.682   1.404   4.946  0.3331 -0.7957  2.1044
13074SOL    HW240644   5.656   1.255   4.954 -1.0749 -0.8155 -1.3832
13075SOL     OW40645   3.162   2.590   7.001  0.5106 -0.0065 -0.3055
13075SOL    HW140646   3.082   2.546   6.973  2.5938 -3.3987 -1.5571
13075SOL    HW240647   3.208   2.525   7.055  3.3584  0.9075 -1.4251
13076SOL     OW40648   1.562   2.274   6.803  0.5448  0.0479 -0.3621
13076SOL    HW140649   1.529   2.304   6.888  1.6133  1.8790 -0.5607
13076SOL    HW240650   1.654   2.297   6.804  0.8359 -0.9828 -1.5809
13077SOL     OW40651   1.993   0.333   8.045 -0.0347  0.5549 -0.6080
13077SOL    HW140652   2.077   0.379   8.045 -0.3690  1.1940  0.4061
13077SOL    HW240653   2.008   0.256   8.101  0.0648  0.2970 -0.9866
13078SOL     OW40654   0.886   8.344   8.317  0.3040 -0.3742  0.5784
13078SOL    HW140655   0.923   8.352   8.229  1.5654 -1.2079  0.9946
13078SOL    HW240656   0.806   8.396   8.315  0.9560  0.6394 -0.6977
13079SOL     OW40657   3.890   4.081   6.359 -0.1956  0.3923  0.5656
13079SOL    HW140658   3.849   4.082   6.446  0.3592  1.8750  0.8266
13079SOL    HW240659   3.848   4.153   6.312  0.2403  0.2521 -0.0491
13080SOL     OW40660   6.171   1.969   8.930  0.4013  0.0193 -0.2436
13080SOL    HW140661   6.223   1.894   8.902  0.2169 -0.4895  0.7194
13080SOL    HW240662   6.098   1.973   8.869  0.1127 -0.9406  0.0213
13081SOL     OW40663   1.839   0.468   3.649 -0.2136 -0.0363 -0.5832
13081SOL    HW140664   1.770   0.410   3.682  1.4183 -1.1870  0.9768
13081SOL    HW240665   1.873   0.512   3.727  1.9409 -0.7789 -1.0428
13082SOL     OW40666   7.710   8.536   7.913 -0.2330 -0.4296  0.6687
13082SOL    HW140667   7.774   8.602   7.885 -0.8200  0.1994  0.7693
13082SOL    HW240668   7.631   8.557   7.863 -1.0015  0.1064  2.0516
13083SOL     OW40669   2.611   5.092   7.170  0.3025 -0.5550  0.4555
13083SOL    HW140670   2.547   5.024   7.151 -0.3257  0.1650 -0.0697
13083SOL    HW240671   2.649   5.114   7.086 -1.4030  1.5737  0.1264
13084SOL     OW40672   2.788   2.100   1.306  0.2611  0.8415 -0.1511
13084SOL    HW140673   2.701   2.131   1.329  0.4446  0.9969  0.3586
13084SOL    HW240674   2.774   2.017   1.262 -0.0203 -0.4581  2.2453
13085SOL     OW40675   2.006   5.554   7.912  0.3192 -0.3366 -0.2634
13085SOL    HW140676   2.006   5.493   7.986  2.5840 -0.4848 -0.3026
13085SOL    HW240677   1.915   5.559   7.884 -0.4742 -0.9358  1.9984
13086SOL     OW40678   5.036   5.738   2.437 -0.6150  0.4153  0.0706
13086SOL    HW140679   5.022   5.650   2.400 -1.4723  0.7922 -0.5540
13086SOL    HW240680   5.059   5.792   2.361 -0.3432  0.7837  0.4138
13087SOL     OW40681   2.437   4.500   4.724  0.3455 -0.1859  0.5191
13087SOL    HW140682   2.433   4.419   4.774 -0.0845 -0.6968 -0.3189
13087SOL    HW240683   2.446   4.569   4.790 -0.2924 -0.8321  1.2918
13088SOL     OW40684   1.580   2.422   2.757 -0.1628 -0.4445 -0.9018
13088SOL    HW140685   1.653   2.361   2.756 -0.6465 -1.1532  1.3280
13088SOL    HW240686   1.615   2.503   2.719  2.4171 -0.1392  1.7995
13089SOL     OW40687   3.062   3.019   5.493 -0.1375  0.4522 -0.6736
13089SOL    HW140688   3.084   2.933   5.529 -0.6129  0.0672 -1.2804
13089SOL    HW240689   3.122   3.030   5.420  0.5825  1.0761 -0.0065
13090SOL     OW40690   1.504   1.748   6.748 -0.4876 -0.0222  0.6710
13090SOL    HW140691   1.428   1.717   6.797  0.0010 -1.9809  0.2668
13090SOL    HW240692   1.563   1.673   6.745  0.0750  0.4304 -1.7912
13091SOL     OW40693   7.998   0.903   3.263 -0.4574 -0.0663  0.4628
13091SOL    HW140694   7.956   0.866   3.185 -1.4562 -0.2544  1.0761
13091SOL    HW240695   8.000   0.831   3.326 -0.6862  0.4021  1.0081
13092SOL     OW40696   0.122   2.416   6.421 -0.1513  0.5749  0.0774
13092SOL    HW140697   0.159   2.356   6.486 -0.4314 -0.0656 -0.3359
13092SOL    HW240698   0.145   2.377   6.337 -1.0971  0.5584 -0.1930
13093SOL     OW40699   4.936   2.680   3.630  0.1064  0.4608  0.2058
13093SOL    HW140700   4.847   2.651   3.646 -0.2841  1.5546  0.1007
13093SOL    HW240701   4.991   2.607   3.658 -0.8230 -0.2868  0.1086
13094SOL     OW40702   4.764   3.149   5.322  0.1591  0.2232 -0.0348
13094SOL    HW140703   4.832   3.081   5.323  0.4577  0.5027 -0.5544
13094SOL    HW240704   4.737   3.153   5.230 -1.0256 -0.3334  0.2792
13095SOL     OW40705   1.225   7.758   0.091  0.9548 -0.0953  0.6067
13095SOL    HW140706   1.186   7.800   0.015  0.3172 -1.0501  0.3793
13095SOL    HW240707   1.307   7.804   0.105  1.7054 -0.7040 -1.4365
13096SOL     OW40708   5.515   0.290   5.035  0.0921  0.3439 -0.0513
13096SOL    HW140709   5.454   0.218   5.017 -0.2334  0.8651 -1.1452
13096SOL    HW240710   5.493   0.318   5.123 -1.2294  0.4813 -0.4015
13097SOL     OW40711   8.113   6.340   0.294 -0.2365 -0.3355  0.2606
13097SOL    HW140712   8.197   6.349   0.339  0.3225  1.4131 -1.0434
13097SOL    HW240713   8.132   6.289   0.216 -0.3266  0.2774 -0.1662
13098SOL     OW40714   5.011   2.465   8.919 -0.0927 -0.3469  0.0686
13098SOL    HW140715   4.962   2.461   8.836 -0.4732 -1.2168  0.3224
13098SOL    HW240716   5.071   2.538   8.908 -0.3162 -0.2949 -0.8825
13099SOL     OW40717   2.361   1.409   0.459  0.1854 -0.3487  0.7642
13099SOL    HW140718   2.352   1.317   0.436  1.0349 -0.4786  0.9254
13099SOL    HW240719   2.285   1.451   0.419 -0.0525 -1.0678  0.4418
13100SOL     OW40720   6.783   4.339   3.123 -0.6420 -0.5144 -0.6372
13100SOL    HW140721   6.720   4.303   3.186 -1.1899  0.3186 -0.6926
13100SOL    HW240722   6.775   4.434   3.133 -0.0835 -0.3898 -1.3294
13101SOL     OW40723   6.302   3.414   7.367  0.5987  0.3831 -0.5894
13101SOL    HW140724   6.375   3.356   7.388  1.6437  1.4840 -1.0539
13101SOL    HW240725   6.226   3.356   7.361  1.7505 -1.0734 -1.9023
13102SOL     OW40726   4.919   3.845   7.712 -0.7898 -0.1669 -0.3019
13102SOL    HW140727   4.947   3.879   7.797 -0.8366 -0.0072 -0.3498
13102SOL    HW240728   4.946   3.912   7.650 -5.5738  2.5726  0.0528
13103SOL     OW40729   6.626   3.055   3.650  0.6185  0.0021 -0.4707
13103SOL    HW140730   6.628   3.037   3.556  0.3093 -0.8255 -0.3238
13103SOL    HW240731   6.583   3.140   3.657  2.4520  1.0645 -1.2032
13104SOL     OW40732   0.824   3.347   3.663 -0.3599  0.0485  0.3384
13104SOL    HW140733   0.815   3.361   3.568 -0.6696  2.1795  0.6258
13104SOL    HW240734   0.883   3.417   3.691 -0.9411 -0.0573  1.8601
13105SOL     OW40735   1.280   3.860   4.087 -0.1363  0.4940 -0.5146
13105SOL    HW140736   1.368   3.841   4.120 -0.6390  0.2699  0.7275
13105SOL    HW240737   1.267   3.798   4.016 -0.0590 -0.8900  0.6369
13106SOL     OW40738   3.215   0.564   1.535  0.5056  0.0555 -0.3516
13106SOL    HW140739   3.296   0.542   1.490  1.1602  2.6210 -0.5410
13106SOL    HW240740   3.195   0.653   1.507 -0.8024  0.5660  1.9781
13107SOL     OW40741   9.229   3.007   7.610  0.8519 -1.1620  0.2269
13107SOL    HW140742   9.172   3.079   7.637  1.0678 -0.3887 -1.2238
13107SOL    HW240743   9.276   2.981   7.689  2.5144  1.9132  0.4106
13108SOL     OW40744   3.644   1.880   8.841  0.3581 -0.5541 -0.5420
13108SOL    HW140745   3.706   1.945   8.874 -0.2398 -1.0152  1.6347
13108SOL    HW240746   3.688   1.840   8.767  2.2464 -0.1745  0.3193
13109SOL     OW40747   6.040   4.815   2.683 -0.1112 -0.0071  0.1583
13109SOL    HW140748   6.034   4.894   2.629 -0.8463  0.2133  0.5589
13109SOL    HW240749   6.052   4.744   2.620  0.7831  0.4412 -0.1969
13110SOL     OW40750   5.561   2.672   4.062 -0.3900 -0.0951  0.2191
13110SOL    HW140751   5.531   2.616   3.989 -1.9730  0.9546  0.0269
13110SOL    HW240752   5.542   2.620   4.140  1.8226 -1.4681 -0.0626
13111SOL     OW40753   3.869   4.930   3.110 -0.1394 -0.0938  0.4546
13111SOL    HW140754   3.882   4.844   3.070 -0.4265  0.3582 -0.6429
13111SOL    HW240755   3.794   4.967   3.063  0.1517  0.8692  0.7301
13112SOL     OW40756   1.826   7.991   1.730 -0.6532  0.0139 -0.1829
13112SOL    HW140757   1.872   7.961   1.808 -0.7812 -1.4956 -0.6552
13112SOL    HW240758   1.867   7.944   1.658 -1.4257  0.3670 -0.8723
13113SOL     OW40759   6.113   8.610   1.600 -0.8102  0.2297 -0.0481
13113SOL    HW140760   6.128   8.528   1.647  1.4893  0.9829  0.6778
13113SOL    HW240761   6.018   8.621   1.602 -1.1374 -2.0711  0.3929
13114SOL     OW40762   7.862   3.239   8.791  0.0155  0.1916 -0.3380
13114SOL    HW140763   7.801   3.281   8.730  0.6228  0.4045 -0.8188
13114SOL    HW240764   7.827   3.151   8.804  0.0844  0.0020 -1.3275
13115SOL     OW40765   4.657   1.670   1.970  0.3791 -0.2359  0.5675
13115SOL    HW140766   4.748   1.699   1.978  1.4183 -2.5621 -1.1891
13115SOL    HW240767   4.627   1.707   1.887 -0.2886  0.4854  1.1176
13116SOL     OW40768   0.798   1.257   5.535 -0.5139 -0.3518 -0.2142
13116SOL    HW140769   0.855   1.203   5.590  1.2458  1.2012 -0.4041
13116SOL    HW240770   0.785   1.337   5.585 -2.0898 -0.4475 -0.4378
13117SOL     OW40771   8.269   5.860   0.582 -0.1238  0.1195  0.7215
13117SOL    HW140772   8.272   5.948   0.620  0.2279 -0.1163  1.2457
13117SOL    HW240773   8.353   5.851   0.537 -0.0085 -0.0840  0.9764
13118SOL     OW40774   2.537   0.942   3.120 -0.9474 -0.4653 -0.4579
13118SOL    HW140775   2.484   0.903   3.189 -0.1359 -0.7623  0.0107
13118SOL    HW240776   2.624   0.952   3.158 -0.7219  0.2743 -1.1199
13119SOL     OW40777   0.516   1.976   8.935 -0.6140 -0.0471 -0.1068
13119SOL    HW140778   0.520   2.070   8.915 -1.3005 -0.0442 -0.2688
13119SOL    HW240779   0.517   1.971   9.030  0.1219  0.0858 -0.1066
13120SOL     OW40780   7.577   4.270   3.235  0.1033 -0.3539 -0.3209
13120SOL    HW140781   7.582   4.194   3.294  1.1215 -0.3936 -0.4468
13120SOL    HW240782   7.655   4.264   3.181 -0.3788  0.1725 -1.0985
13121SOL     OW40783   0.172   8.003   6.298  0.0232  0.0672  0.4302
13121SOL    HW140784   0.224   7.923   6.294  0.8485  0.6304 -0.6424
13121SOL    HW240785   0.134   8.011   6.210  2.5182  2.4592 -0.5744
13122SOL     OW40786   5.636   8.865   5.625 -0.0130 -0.1828  0.0472
13122SOL    HW140787   5.689   8.793   5.592  1.0062  0.9425 -0.8649
13122SOL    HW240788   5.603   8.833   5.710 -0.4038 -2.0547 -0.7554
13123SOL     OW40789   5.993   2.121   8.091 -0.1674 -0.5651 -0.5369
13123SOL    HW140790   6.036   2.036   8.099  2.0152  0.4551 -0.8009
13123SOL    HW240791   6.045   2.179   8.146 -2.2574  0.4312  0.5179
13124SOL     OW40792   5.332   2.326   5.706  0.1685  0.3067 -0.5256
13124SOL    HW140793   5.415   2.279   5.712 -0.2672 -0.3297  0.8605
13124SOL    HW240794   5.355   2.418   5.717  0.6319  0.0742  0.5696
13125SOL     OW40795   3.062   6.824   4.520 -0.4964  0.3259  0.4522
13125SOL    HW140796   3.112   6.773   4.456 -0.6739  2.4004 -1.4650
13125SOL    HW240797   2.971   6.811   4.494 -0.8294 -1.1541  2.1760
13126SOL     OW40798   3.116   5.715   3.143 -0.2823 -0.7833 -0.8256
13126SOL    HW140799   3.141   5.623   3.139 -0.7640 -0.9455 -0.3112
13126SOL    HW240800   3.055   5.726   3.069 -1.3247 -1.2435 -0.0701
13127SOL     OW40801   2.909   0.028   2.221 -0.4631 -0.7488  0.0957
13127SOL    HW140802   2.878   0.116   2.199 -0.6562 -0.9202 -0.3281
13127SOL    HW240803   2.917   0.029   2.317 -1.4019 -0.5737  0.1831
13128SOL     OW40804   4.090   7.407   6.012  0.0162 -0.2967  0.0317
13128SOL    HW140805   4.081   7.443   5.924  1.9819 -0.0675 -0.1156
13128SOL    HW240806   4.000   7.388   6.040 -0.8335  1.7876 -1.1024
13129SOL     OW40807   6.360   4.413   4.117  0.3397  0.2502  0.0134
13129SOL    HW140808   6.316   4.421   4.202 -0.3956 -0.7375 -0.2639
13129SOL    HW240809   6.298   4.365   4.062  1.9967 -1.7725 -0.2054
13130SOL     OW40810   8.802   0.078   8.082 -0.0086 -0.0967  0.3344
13130SOL    HW140811   8.766   0.166   8.079  0.2009 -0.0183 -0.0419
13130SOL    HW240812   8.743   0.026   8.027  1.0165  0.2577 -1.1749
13131SOL     OW40813   3.965   6.891   2.585 -0.1322  0.2981 -0.9337
13131SOL    HW140814   4.056   6.909   2.562 -0.2952  0.4554 -1.4701
13131SOL    HW240815   3.917   6.904   2.504 -0.6773  0.5094 -0.5795
13132SOL     OW40816   8.128   0.663   0.224  0.2853 -0.1219  0.3410
13132SOL    HW140817   8.145   0.592   0.287 -0.3448 -1.4998 -0.9741
13132SOL    HW240818   8.039   0.692   0.244 -0.3670 -1.3724 -0.6266
13133SOL     OW40819   1.567   4.636   0.782  0.4484  0.0601  0.3856
13133SOL    HW140820   1.545   4.655   0.691  0.8688 -0.3022  0.2041
13133SOL    HW240821   1.622   4.710   0.810 -0.3704  0.5959  0.6129
13134SOL     OW40822   2.046   8.088   2.457 -0.2207  0.0949  0.4603
13134SOL    HW140823   1.969   8.144   2.444 -0.9655 -1.4011 -2.2014
13134SOL    HW240824   2.120   8.144   2.433 -0.7572  0.5848 -0.0854
13135SOL     OW40825   8.439   3.006   1.495  0.6148 -0.4074  0.1077
13135SOL    HW140826   8.519   3.055   1.472  1.0247 -1.2992 -0.4159
13135SOL    HW240827   8.413   2.962   1.414  2.1016 -3.6421  1.1943
13136SOL     OW40828   1.706   7.762   5.103 -1.0163 -0.2295 -0.6151
13136SOL    HW140829   1.784   7.780   5.050 -0.7929  2.3986  0.4808
13136SOL    HW240830   1.652   7.840   5.093 -2.3328 -0.9392  0.7031
13137SOL     OW40831   2.154   0.348   7.648  0.6630  0.1621  0.0289
13137SOL    HW140832   2.235   0.394   7.625  0.4308  1.1818  1.1158
13137SOL    HW240833   2.084   0.403   7.613  0.3796  0.7123  1.3873
13138SOL     OW40834   1.638   8.910   6.213  0.9888 -0.3368 -0.0687
13138SOL    HW140835   1.597   8.994   6.195 -0.8627 -1.4989 -1.6592
13138SOL    HW240836   1.728   8.932   6.236 -0.0689  2.2312  2.1383
13139SOL     OW40837   2.953   6.597   8.184 -0.4334  0.4037 -0.3664
13139SOL    HW140838   2.979   6.600   8.276  0.0710  3.1814 -0.5208
13139SOL    HW240839   3.031   6.564   8.138 -0.6029 -0.7465  0.1296
13140SOL     OW40840   8.353   2.104   7.484  0.0243  0.1707 -0.4444
13140SOL    HW140841   8.439   2.065   7.466 -0.8331 -2.7508  1.2466
13140SOL    HW240842   8.366   2.154   7.565  0.2351  0.2141 -0.5034
13141SOL     OW40843   5.091   4.281   0.130 -0.0418  0.2351 -0.3955
13141SOL    HW140844   5.012   4.329   0.106  0.7575  1.4973 -0.6521
13141SOL    HW240845   5.063   4.220   0.198 -1.4307 -0.1085 -1.2362
13142SOL     OW40846   3.892   4.244   2.513  0.0660 -0.3194 -0.2952
13142SOL    HW140847   3.941   4.190   2.451  0.9367  2.2273 -1.9555
13142SOL    HW240848   3.804   4.206   2.513  0.1422 -0.6730 -2.8307
13143SOL     OW40849   6.897   3.769   5.891  0.0991  0.8696  0.0774
13143SOL    HW140850   6.841   3.846   5.899  0.0780  0.7692  0.9958
13143SOL    HW240851   6.909   3.738   5.981 -1.9852 -1.7045 -0.3734
13144SOL     OW40852   6.154   3.075   3.421 -0.5244 -0.0745 -0.0263
13144SOL    HW140853   6.089   3.085   3.490  2.0524  0.6401  2.5034
13144SOL    HW240854   6.193   2.989   3.438 -0.3865 -0.2391 -1.1306
13145SOL     OW40855   8.251   0.926   3.084 -0.0447  0.3232  0.2641
13145SOL    HW140856   8.251   0.837   3.119 -2.1043  0.4056  0.5597
13145SOL    HW240857   8.197   0.976   3.145  0.6491  1.6778 -0.1951
13146SOL     OW40858   7.707   1.736   1.054 -0.1488  0.3169  0.2184
13146SOL    HW140859   7.796   1.702   1.061  0.1541  0.8555 -0.8894
13146SOL    HW240860   7.651   1.658   1.056  0.3732 -0.0569  0.3726
13147SOL     OW40861   8.022   8.258   8.691 -0.3331 -0.0857  0.5266
13147SOL    HW140862   7.987   8.188   8.745 -3.4895  0.5316 -0.4785
13147SOL    HW240863   8.084   8.215   8.632 -1.4789 -1.8979  0.5749
13148SOL     OW40864   1.861   1.478   2.734 -0.5328  0.0588 -0.0712
13148SOL    HW140865   1.879   1.426   2.813 -0.7107  0.5942  0.3292
13148SOL    HW240866   1.788   1.534   2.760  0.2529  1.1638 -0.1986
13149SOL     OW40867   0.592   6.612   0.481 -0.1092  0.4615 -0.3452
13149SOL    HW140868   0.688   6.614   0.480 -0.0042 -0.4195  1.7250
13149SOL    HW240869   0.568   6.681   0.543 -0.6862 -0.4534  0.4898
13150SOL     OW40870   8.263   8.266   3.032 -0.1060 -0.8109  0.5945
13150SOL    HW140871   8.208   8.326   3.083  0.1517  0.3184 -0.4187
13150SOL    HW240872   8.208   8.189   3.019 -1.0075 -0.1972  0.6486
13151SOL     OW40873   2.262   1.627   4.989  0.0982  0.0991  0.4967
13151SOL    HW140874   2.315   1.686   5.043 -0.9213 -0.2462  1.9541
13151SOL    HW240875   2.189   1.602   5.047 -0.8051 -0.6460 -0.9186
13152SOL     OW40876   0.570   0.238   0.953  0.0731 -0.0372 -0.0909
13152SOL    HW140877   0.527   0.276   0.877 -1.9084 -0.8212  0.5858
13152SOL    HW240878   0.664   0.254   0.938 -0.1159 -1.2718 -3.2954
13153SOL     OW40879   3.568   5.253   8.175  0.3108  0.3518 -0.2040
13153SOL    HW140880   3.544   5.343   8.154 -0.6219 -0.0333 -0.8302
13153SOL    HW240881   3.512   5.229   8.248  0.6645  0.3225  0.0610
13154SOL     OW40882   2.528   0.728   3.519  0.0584  0.2119 -0.2941
13154SOL    HW140883   2.540   0.642   3.559  0.5922  0.6171  0.4393
13154SOL    HW240884   2.538   0.790   3.592 -0.7770  0.8775 -0.7207
13155SOL     OW40885   0.543   2.793   4.075  0.1959 -0.1156  0.3352
13155SOL    HW140886   0.631   2.792   4.113  0.3259 -1.5272  0.0460
13155SOL    HW240887   0.508   2.705   4.093 -1.9963  1.0378  2.3175
13156SOL     OW40888   7.960   3.293   3.166  0.4236  0.0093  1.0831
13156SOL    HW140889   8.048   3.326   3.182  0.5705  0.0703  0.2069
13156SOL    HW240890   7.910   3.371   3.141  0.6606 -0.3195 -0.5420
13157SOL     OW40891   2.800   6.079   0.094  0.2838  0.4704  0.3828
13157SOL    HW140892   2.815   6.172   0.110  4.3038  0.0119  0.2495
13157SOL    HW240893   2.799   6.039   0.180  1.6547  0.3356  0.3564
13158SOL     OW40894   4.067   1.047   4.448  0.5083 -0.0863  0.0758
13158SOL    HW140895   4.075   1.085   4.535  2.4052  1.2141 -0.5840
13158SOL    HW240896   3.980   1.073   4.418 -0.3281 -0.8938  1.6904
13159SOL     OW40897   7.321   4.782   5.942  0.1905 -0.0709  0.2896
13159SOL    HW140898   7.239   4.831   5.936  0.1616 -0.2208 -0.7123
13159SOL    HW240899   7.315   4.716   5.872  1.5573  0.5310 -0.4282
13160SOL     OW40900   0.023   3.337   6.254  0.4750  0.3731 -0.6745
13160SOL    HW140901   0.031   3.418   6.305 -1.6425  2.3787 -3.2471
13160SOL    HW240902   0.109   3.327   6.213  0.0264  3.0846 -2.5749
13161SOL     OW40903   0.318   5.068   5.823 -0.2518  0.2993  0.1864
13161SOL    HW140904   0.296   5.066   5.729 -1.8489 -0.0943  0.5374
13161SOL    HW240905   0.240   5.034   5.866  0.0216  1.5561  1.7542
13162SOL     OW40906   2.585   4.864   2.826 -0.2079 -0.1561 -0.1528
13162SOL    HW140907   2.611   4.889   2.915  1.7271  1.7429 -1.1524
13162SOL    HW240908   2.490   4.872   2.825 -0.2409  0.0716  1.6471
13163SOL     OW40909   8.320   4.395   7.167  0.2894  0.1767  0.1548
13163SOL    HW140910   8.375   4.334   7.118  1.1092  0.7057  0.4006
13163SOL    HW240911   8.323   4.362   7.257 -1.4336 -0.9515 -0.1564
13164SOL     OW40912   2.049   6.807   6.368 -0.0677 -0.1479  0.5875
13164SOL    HW140913   2.035   6.720   6.333 -0.9826 -0.3595  1.4152
13164SOL    HW240914   1.993   6.811   6.446 -0.9284  1.5652 -0.0666
13165SOL     OW40915   7.079   7.157   7.390 -0.4346 -0.0276  0.2856
13165SOL    HW140916   7.104   7.190   7.304  0.2508 -2.4116 -0.5049
13165SOL    HW240917   7.116   7.220   7.452  0.0825  1.0918 -1.0997
13166SOL     OW40918   7.690   0.022   1.971 -0.0564  0.0358 -0.2718
13166SOL    HW140919   7.678   0.056   1.882 -2.1351  1.2650  0.4292
13166SOL    HW240920   7.670   0.095   2.028 -0.7152 -1.2666  1.2432
13167SOL     OW40921   0.877   0.584   8.676 -0.3170  0.4271  0.0124
13167SOL    HW140922   0.872   0.647   8.605 -0.6600 -0.3755 -0.7018
13167SOL    HW240923   0.885   0.499   8.632  3.0624  0.1241  0.8943
13168SOL     OW40924   4.709   2.505   9.045  0.2627  0.0613 -0.1465
13168SOL    HW140925   4.669   2.418   9.033 -1.2165  0.6706  0.1826
13168SOL    HW240926   4.797   2.496   9.006 -0.2399 -1.2765 -1.0668
13169SOL     OW40927   4.674   9.183   7.500 -0.5803 -0.0893 -0.3429
13169SOL    HW140928   4.694   9.203   7.409  0.8573  0.0322 -0.0282
13169SOL    HW240929   4.620   9.256   7.530 -2.3832 -0.8709 -1.4857
13170SOL     OW40930   1.202   3.891   1.891 -0.2810 -0.0591 -0.0473
13170SOL    HW140931   1.260   3.876   1.965 -0.1813 -1.5282 -0.3965
13170SOL    HW240932   1.221   3.980   1.863  2.6753 -0.8407 -0.8714
13171SOL     OW40933   6.661   8.568   0.185  0.8752 -0.3495  0.0482
13171SOL    HW140934   6.586   8.587   0.242 -0.5636  0.4101 -1.9811
13171SOL    HW240935   6.674   8.474   0.193  1.4841 -0.1136  2.4801
13172SOL     OW40936   6.933   8.462   3.584 -0.0181  0.4715  0.2733
13172SOL    HW140937   6.984   8.512   3.520 -0.7392 -0.0339 -0.7191
13172SOL    HW240938   6.961   8.372   3.572 -0.5339  0.3029  0.3049
13173SOL     OW40939   2.913   2.402   6.054 -0.6209  0.2119 -0.1809
13173SOL    HW140940   2.835   2.370   6.009 -0.4520  0.3668 -0.5892
13173SOL    HW240941   2.911   2.496   6.040  0.1077  0.1266 -0.9612
13174SOL     OW40942   4.058   5.450   4.349 -0.1937  0.7448  0.4015
13174SOL    HW140943   4.126   5.398   4.306  0.1476 -0.5305  2.3582
13174SOL    HW240944   4.021   5.503   4.278  2.4724  1.1321 -0.8336
13175SOL     OW40945   7.763   6.909   3.738  0.2893  0.1103 -0.2325
13175SOL    HW140946   7.814   6.854   3.679 -1.8978 -0.7696 -1.4410
13175SOL    HW240947   7.732   6.849   3.806 -1.4712 -0.0526 -1.1269
13176SOL     OW40948   4.408   5.264   3.538  0.3662  0.9981  0.0224
13176SOL    HW140949   4.435   5.178   3.572  1.5115  1.2110 -0.2910
13176SOL    HW240950   4.331   5.246   3.485 -0.3322  0.3951  1.2121
13177SOL     OW40951   3.666   1.567   8.866 -0.8355  0.3627 -0.4078
13177SOL    HW140952   3.575   1.559   8.895 -1.3835 -1.2711 -2.3626
13177SOL    HW240953   3.660   1.587   8.773  0.8026  0.0111 -0.6169
13178SOL     OW40954   8.300   0.287   3.231 -0.3067  0.2531 -0.0665
13178SOL    HW140955   8.260   0.303   3.145  1.0043 -0.4998 -0.8413
13178SOL    HW240956   8.290   0.193   3.245  2.2455 -0.2063 -0.8667
13179SOL     OW40957   5.630   0.590   9.192 -0.3658 -0.3792  0.1456
13179SOL    HW140958   5.596   0.631   9.272 -0.1884  1.4355 -0.6557
13179SOL    HW240959   5.552   0.568   9.141 -0.4763 -1.4744  0.7756
13180SOL     OW40960   2.041   8.463   0.838 -0.0489  0.0513 -0.2173
13180SOL    HW140961   1.956   8.420   0.853  0.5292 -1.1364 -0.2605
13180SOL    HW240962   2.097   8.394   0.801  0.6023  1.1283 -1.3075
13181SOL     OW40963   7.727   7.013   3.296 -0.5049 -0.6122  0.3612
13181SOL    HW140964   7.675   6.932   3.289  0.1363 -1.0808  0.9203
13181SOL    HW240965   7.701   7.051   3.379 -0.4559 -0.4840  0.3170
13182SOL     OW40966   5.221   4.102   6.928 -0.4859  0.5036 -0.0216
13182SOL    HW140967   5.244   4.147   7.010  1.0965  1.8788 -1.1504
13182SOL    HW240968   5.203   4.012   6.955  1.5600  0.5128  1.6716
13183SOL     OW40969   5.682   1.725   5.743  0.4373 -0.1786  0.2102
13183SOL    HW140970   5.615   1.678   5.693  0.8338  0.9809 -1.5108
13183SOL    HW240971   5.763   1.677   5.724  0.5522  0.1320 -0.0878
13184SOL     OW40972   2.026   8.026   8.404 -0.0151  0.2278 -0.3277
13184SOL    HW140973   2.109   8.036   8.451  0.3715  2.8037 -1.3812
13184SOL    HW240974   1.966   7.987   8.469  1.2366  1.0558  1.4088
13185SOL     OW40975   7.971   8.675   7.889  0.1114  0.4501  0.2169
13185SOL    HW140976   7.900   8.739   7.888  1.2111  1.7299 -0.6858
13185SOL    HW240977   8.032   8.708   7.954  0.5097  0.1025  0.0269
13186SOL     OW40978   6.468   7.880   4.047 -0.2598 -0.6445 -0.1567
13186SOL    HW140979   6.534   7.912   3.986 -1.4124 -0.0655 -1.1549
13186SOL    HW240980   6.391   7.864   3.993 -0.4341 -3.0206  0.6709
13187SOL     OW40981   1.586   7.010   1.813 -0.2131 -0.6831 -0.7168
13187SOL    HW140982   1.511   7.037   1.866  1.1340  0.4531  0.7019
13187SOL    HW240983   1.599   6.918   1.836 -1.0384 -0.8379 -0.8305
13188SOL     OW40984   6.415   9.278   0.703 -0.7297  0.3616 -0.0669
13188SOL    HW140985   6.388   9.284   0.794  0.5457 -1.2776  0.4814
13188SOL    HW240986   6.474   9.352   0.690  0.8030 -0.5600  1.1532
13189SOL     OW40987   1.943   5.289   4.539  0.6375 -0.2840  0.5135
13189SOL    HW140988   1.923   5.362   4.598  0.2712 -0.5768  0.7526
13189SOL    HW240989   1.990   5.330   4.466  1.7978 -0.0321  1.3757
13190SOL     OW40990   0.056   4.721   3.347  0.6811  0.1993  0.0850
13190SOL    HW140991   0.147   4.694   3.338  0.9047  1.1597 -0.7773
13190SOL    HW240992   0.006   4.654   3.301  1.1343  0.7128 -1.1852
13191SOL     OW40993   2.282   1.534   4.042  0.1413 -0.3742 -0.4308
13191SOL    HW140994   2.190   1.547   4.068 -0.4024 -0.7276 -2.0429
13191SOL    HW240995   2.278   1.520   3.947  1.8723 -0.4379 -0.5218
13192SOL     OW40996   3.172   9.123   1.239  0.2329 -0.8742 -0.9321
13192SOL    HW140997   3.142   9.201   1.194 -0.3371 -1.9264 -2.4643
13192SOL    HW240998   3.257   9.148   1.277 -0.5374  0.8418 -0.2559
13193SOL     OW40999   8.586   4.638   6.551  0.1427 -0.7320  0.3491
13193SOL    HW141000   8.500   4.664   6.583  0.2206  0.0614 -0.0707
13193SOL    HW241001   8.643   4.712   6.571 -0.1706  0.6851 -3.2530
13194SOL     OW41002   1.511   5.161   4.130 -0.1823  0.6816 -0.1983
13194SOL    HW141003   1.571   5.218   4.178  1.9328 -0.4044 -1.3819
13194SOL    HW241004   1.499   5.203   4.045 -0.8363  0.7245 -0.0870
13195SOL     OW41005   7.904   0.172   2.281  0.6972 -0.1018 -0.2706
13195SOL    HW141006   7.987   0.215   2.301 -0.2998  2.1405 -0.5701
13195SOL    HW241007   7.837   0.236   2.306 -0.9915 -1.9941  0.3674
13196SOL     OW41008   8.956   5.416   8.909 -0.4402  0.2577  0.4593
13196SOL    HW141009   9.042   5.389   8.943  0.0400  3.0286  1.6528
13196SOL    HW241010   8.935   5.349   8.843  2.9895 -0.1562 -0.4201
13197SOL     OW41011   5.329   8.669   3.635  0.1106  0.6001  0.0879
13197SOL    HW141012   5.302   8.760   3.649  1.0233  0.6590  1.6635
13197SOL    HW241013   5.263   8.634   3.575 -1.2441  1.8220  0.7910
13198SOL     OW41014   1.702   8.664   5.466  0.5166  0.0223 -0.1005
13198SOL    HW141015   1.781   8.695   5.421  0.7379  0.7537  0.7460
13198SOL    HW241016   1.678   8.736   5.524 -0.6109 -0.3098 -0.1204
13199SOL     OW41017   6.360   4.678   7.515 -0.4134  0.2747 -0.0853
13199SOL    HW141018   6.347   4.765   7.477  1.2591  0.6606  0.1439
13199SOL    HW241019   6.296   4.673   7.586 -1.1701  0.9235 -0.6943
13200SOL     OW41020   7.087   2.993   6.619 -1.1166 -0.1156  0.1962
13200SOL    HW141021   7.076   3.088   6.613 -0.7607  0.0677  1.8974
13200SOL    HW241022   7.096   2.976   6.713  0.2459 -1.6868 -0.1802
13201SOL     OW41023   0.099   5.223   3.656 -0.0580 -0.0858 -0.7868
13201SOL    HW141024   0.167   5.291   3.654  0.7082 -0.7894  0.0050
13201SOL    HW241025   0.022   5.267   3.691  0.5909  0.2770  0.2635
13202SOL     OW41026   6.609   7.578   4.857 -0.0052 -0.4200  0.1759
13202SOL    HW141027   6.644   7.665   4.874 -0.8569  0.0173 -0.2603
13202SOL    HW241028   6.652   7.551   4.776 -0.8916  0.2516 -0.5366
13203SOL     OW41029   6.935   2.877   0.648 -0.2475 -0.0960  0.3156
13203SOL    HW141030   7.028   2.899   0.637  0.1718 -1.6801  0.3429
13203SOL    HW241031   6.917   2.816   0.576 -0.8594 -0.9222  1.1458
13204SOL     OW41032   7.689   7.603   1.109 -0.2178 -0.5801 -0.1364
13204SOL    HW141033   7.702   7.611   1.015 -0.9577  0.3186 -0.1714
13204SOL    HW241034   7.692   7.509   1.126  0.2094 -0.7297 -1.0088
13205SOL     OW41035   6.713   4.350   1.238 -0.4291  0.2485  0.2363
13205SOL    HW141036   6.639   4.290   1.246  0.5670 -0.7497  3.2971
13205SOL    HW241037   6.719   4.369   1.145 -2.3078 -2.4620 -0.5379
13206SOL     OW41038   7.683   6.128   8.488  0.0665  0.1335 -0.5538
13206SOL    HW141039   7.611   6.110   8.548  0.1089 -0.4110 -0.6577
13206SOL    HW241040   7.677   6.058   8.422  1.0966 -0.3278 -0.1829
13207SOL     OW41041   6.553   8.989   2.585  0.5584  0.4590 -0.0159
13207SOL    HW141042   6.618   8.922   2.562 -1.5376 -1.8749  0.4305
13207SOL    HW241043   6.565   9.057   2.519  2.8399 -0.2854 -0.4669
13208SOL     OW41044   3.452   3.463   3.081 -0.1163  0.4187  0.2294
13208SOL    HW141045   3.507   3.471   3.003  1.3330  1.3137  1.2888
13208SOL    HW241046   3.513   3.471   3.155 -1.3045 -1.2053  1.4895
13209SOL     OW41047   8.608   2.484   1.668  0.3555  0.7488 -0.2142
13209SOL    HW141048   8.596   2.389   1.664  0.1704  0.7997 -0.8625
13209SOL    HW241049   8.585   2.507   1.758 -1.7085  0.4661 -0.6281
13210SOL     OW41050   6.032   1.993   0.865  0.2134  0.0526 -0.1896
13210SOL    HW141051   6.108   2.011   0.809  1.6287 -0.6097  1.4328
13210SOL    HW241052   6.062   1.926   0.926 -0.7899  1.6634  2.2300
13211SOL     OW41053   4.757   1.421   0.539  0.0864  0.4297 -0.2247
13211SOL    HW141054   4.686   1.417   0.476  0.3298 -1.1870 -0.4397
13211SOL    HW241055   4.827   1.368   0.501  0.8675  0.7790  0.6537
13212SOL     OW41056   4.476   7.763   5.272  0.2767 -0.1071  0.3543
13212SOL    HW141057   4.403   7.808   5.229  0.3821  0.7883  1.0841
13212SOL    HW241058   4.519   7.715   5.202 -0.6187 -0.1045 -0.2098
13213SOL     OW41059   4.079   8.058   8.865  0.1592  0.0738 -0.7648
13213SOL    HW141060   3.997   8.064   8.914  0.2543 -0.0707 -0.5913
13213SOL    HW241061   4.139   8.012   8.923  0.5861  0.8183 -0.5984
13214SOL     OW41062   0.335   6.399   1.827 -0.0776 -0.4358  0.3767
13214SOL    HW141063   0.418   6.437   1.800  0.8121 -2.4428  0.1079
13214SOL    HW241064   0.275   6.417   1.754  0.3803  0.1722  0.1426
13215SOL     OW41065   4.739   3.487   9.250  0.8894 -0.1753  0.3414
13215SOL    HW141066   4.690   3.560   9.287 -1.3736 -1.4348  0.0520
13215SOL    HW241067   4.720   3.489   9.156 -0.8972 -2.2198  0.5783
13216SOL     OW41068   7.395   0.535   3.114  0.6153  0.5274  0.3066
13216SOL    HW141069   7.411   0.580   3.196  2.4228 -0.1789  0.4105
13216SOL    HW241070   7.330   0.468   3.134  1.5459 -0.0953  1.3748
13217SOL     OW41071   0.854   7.305   0.443 -0.3496 -0.5042 -0.4417
13217SOL    HW141072   0.935   7.341   0.406  0.0885 -0.7926  0.2011
13217SOL    HW241073   0.806   7.381   0.476  0.9755 -0.5043  1.7183
13218SOL     OW41074   2.189   5.724   2.600 -0.4381 -0.4106  0.1242
13218SOL    HW141075   2.239   5.657   2.554  0.4358 -0.1339  0.6328
13218SOL    HW241076   2.209   5.805   2.554 -0.7446 -0.3548  0.0868
13219SOL     OW41077   9.122   0.860   7.280  0.0534 -0.0857  0.2128
13219SOL    HW141078   9.183   0.790   7.255  0.5802  0.3941  0.1447
13219SOL    HW241079   9.156   0.938   7.237 -0.8657  0.1049 -0.1891
13220SOL     OW41080   8.097   4.435   0.834  0.5474 -0.5591  0.6199
13220SOL    HW141081   8.148   4.479   0.766  1.0944 -1.7442  0.2370
13220SOL    HW241082   8.110   4.487   0.913 -0.0688  0.8243 -0.1570
13221SOL     OW41083   9.177   1.757   0.804  0.4116 -0.3571 -0.3323
13221SOL    HW141084   9.239   1.688   0.780  2.4274  1.2971 -0.1819
13221SOL    HW241085   9.219   1.838   0.776 -1.9956  0.8310 -0.7448
13222SOL     OW41086   5.784   2.047   4.199  0.0584  0.2200 -0.4381
13222SOL    HW141087   5.791   2.125   4.144 -3.1543  0.6064 -0.4978
13222SOL    HW241088   5.690   2.028   4.203  0.5320 -2.4008  1.3484
13223SOL     OW41089   3.866   6.334   1.495  0.5959  0.2701  0.3683
13223SOL    HW141090   3.863   6.429   1.495  1.0253  0.3211 -1.4585
13223SOL    HW241091   3.948   6.312   1.538 -0.2629  0.6339  2.2825
13224SOL     OW41092   2.901   4.630   0.858 -0.1395  0.1838  0.1707
13224SOL    HW141093   2.993   4.622   0.832 -0.5338  0.7905 -1.5813
13224SOL    HW241094   2.888   4.560   0.921  0.2477 -3.5080 -3.4280
13225SOL     OW41095   6.006   0.870   6.311 -0.2966  0.3124  0.0821
13225SOL    HW141096   5.919   0.859   6.348  0.6382  0.7227  2.6042
13225SOL    HW241097   6.027   0.785   6.272 -2.0915  0.4543 -1.3343
13226SOL     OW41098   1.244   2.033   6.454 -0.4904 -0.2890  0.2671
13226SOL    HW141099   1.305   2.053   6.525  0.0968 -0.8260 -0.0774
13226SOL    HW241100   1.220   1.941   6.468  0.5115 -0.7490 -0.8605
13227SOL     OW41101   3.980   9.050   4.273  0.5070 -0.2356 -0.0515
13227SOL    HW141102   3.915   9.052   4.343 -0.1849 -0.1182 -0.6781
13227SOL    HW241103   3.928   9.047   4.192  1.2869 -0.6242 -0.5529
13228SOL     OW41104   6.653   4.094   7.612 -0.5016  0.3617 -0.2284
13228SOL    HW141105   6.710   4.121   7.540  0.5857  1.8688  1.1397
13228SOL    HW241106   6.643   4.000   7.600  1.6129  0.1830 -0.9943
13229SOL     OW41107   3.887   7.083   0.854  0.2615  0.6794  0.0743
13229SOL    HW141108   3.893   7.171   0.891  0.3353  1.0480 -0.7939
13229SOL    HW241109   3.966   7.073   0.802 -0.5293  0.7380 -1.1821
13230SOL     OW41110   0.561   2.283   8.105 -0.0150  0.3629 -0.8673
13230SOL    HW141111   0.636   2.300   8.162  0.8227  1.3208 -2.1849
13230SOL    HW241112   0.513   2.213   8.148  0.2131  1.4647  1.3295
13231SOL     OW41113   7.677   0.861   2.965 -0.6721  0.4905 -0.1130
13231SOL    HW141114   7.618   0.865   2.889 -0.9930 -0.1412  0.0936
13231SOL    HW241115   7.743   0.929   2.948 -0.7980  0.4246 -0.9064
13232SOL     OW41116   0.018   7.957   0.785  0.5012 -0.5419  0.0961
13232SOL    HW141117   0.059   7.871   0.791  1.1696 -0.1843  0.7919
13232SOL    HW241118  -0.016   7.961   0.696  1.2938 -1.1515 -0.2391
13233SOL     OW41119   1.001   9.126   6.242 -0.3940  0.3956 -0.4181
13233SOL    HW141120   1.019   9.040   6.279  1.0996  1.7826  2.4201
13233SOL    HW241121   0.918   9.115   6.196  0.5034 -2.8667 -1.5001
13234SOL     OW41122   0.260   6.339   1.529  0.2499  0.1633 -0.4580
13234SOL    HW141123   0.258   6.252   1.489  1.0529  1.2926 -3.1761
13234SOL    HW241124   0.199   6.391   1.477 -0.7627  1.1149  1.5666
13235SOL     OW41125   3.711   8.591   4.472 -0.6804 -0.0741 -0.0616
13235SOL    HW141126   3.658   8.590   4.393 -0.5291  0.6217 -0.1808
13235SOL    HW241127   3.747   8.680   4.476  0.5545 -0.5474 -0.0477
13236SOL     OW41128   6.342   6.430   0.498  0.1921  0.3627 -0.2854
13236SOL    HW141129   6.371   6.343   0.527 -0.7219 -0.8528 -2.7677
13236SOL    HW241130   6.247   6.425   0.500  0.1318  1.2635 -0.5826
13237SOL     OW41131   5.143   8.210   7.554 -0.4899  0.3112  0.0188
13237SOL    HW141132   5.156   8.119   7.578  0.5913  0.6818  0.9193
13237SOL    HW241133   5.232   8.246   7.548 -0.8815  2.1954  3.3029
13238SOL     OW41134   8.405   2.864   2.194  0.1228  0.2868 -0.0593
13238SOL    HW141135   8.418   2.959   2.192  2.6819  0.0067 -1.6021
13238SOL    HW241136   8.321   2.851   2.150 -1.0424  1.8607  1.5419
13239SOL     OW41137   6.440   0.155   3.680 -0.3242  0.4230  0.0504
13239SOL    HW141138   6.474   0.112   3.602 -1.3493  0.6344 -0.5212
13239SOL    HW241139   6.374   0.216   3.648 -1.3523 -0.0686  1.1423
13240SOL     OW41140   5.216   2.311   1.546  0.4755 -0.2361  0.3874
13240SOL    HW141141   5.183   2.365   1.617  2.8770  1.3719  0.3975
13240SOL    HW241142   5.216   2.369   1.470 -0.4256 -1.4095 -0.5451
13241SOL     OW41143   4.801   2.734   1.601  0.1008 -0.0793  0.4067
13241SOL    HW141144   4.755   2.749   1.684 -1.6271 -1.6385 -0.2166
13241SOL    HW241145   4.861   2.662   1.619  0.7102  0.4654  0.6192
13242SOL     OW41146   9.200   8.202   8.280  0.4415  0.1461  0.6270
13242SOL    HW141147   9.172   8.111   8.274  0.4658  0.1900 -0.3857
13242SOL    HW241148   9.254   8.215   8.202 -1.0029  1.5140 -0.1934
13243SOL     OW41149   8.946   5.467   3.256 -0.6779  0.1523  0.2072
13243SOL    HW141150   8.905   5.382   3.268  1.0529 -0.8550 -0.6001
13243SOL    HW241151   9.024   5.464   3.311 -0.2945  1.0004 -0.2666
13244SOL     OW41152   2.772   4.195   8.698  0.2299 -0.3515  0.1492
13244SOL    HW141153   2.724   4.272   8.729  0.5117  0.8123 -2.1025
13244SOL    HW241154   2.716   4.121   8.721 -2.1449  0.8634 -1.3397
13245SOL     OW41155   6.432   5.633   6.248 -0.2970  0.0762  0.2835
13245SOL    HW141156   6.508   5.690   6.257 -0.6097  0.7345 -1.1209
13245SOL    HW241157   6.368   5.668   6.310 -0.1138  0.6287  0.1637
13246SOL     OW41158   2.952   7.816   3.143  0.2495  0.0828 -0.4527
13246SOL    HW141159   2.922   7.725   3.144 -2.4132  0.8756 -1.0117
13246SOL    HW241160   3.036   7.813   3.096 -0.3389 -1.9362 -1.5050
13247SOL     OW41161   4.848   4.770   6.405 -0.0257  0.4237 -0.5151
13247SOL    HW141162   4.775   4.831   6.416  0.4052  0.7296  0.8757
13247SOL    HW241163   4.898   4.806   6.332 -1.3059  0.1372 -1.5858
13248SOL     OW41164   1.449   0.966   0.595  0.3953  0.3845  0.2210
13248SOL    HW141165   1.524   0.999   0.646  0.5041 -0.4143  0.5941
13248SOL    HW241166   1.487   0.904   0.533 -0.1053 -1.2571  1.4880
13249SOL     OW41167   8.305   1.898   1.500 -0.4289  0.0051 -0.2153
13249SOL    HW141168   8.389   1.871   1.537 -0.6300 -0.3341 -0.0062
13249SOL    HW241169   8.255   1.817   1.490  0.1716 -0.1458 -2.7239
13250SOL     OW41170   1.363   5.035   8.531 -0.1986  0.2479 -0.2519
13250SOL    HW141171   1.427   5.104   8.512 -1.6656  2.4351  2.1978
13250SOL    HW241172   1.279   5.071   8.502 -0.9231 -0.7615  0.5150
13251SOL     OW41173   0.780   7.693   6.568 -0.1648  0.1659 -0.6290
13251SOL    HW141174   0.838   7.617   6.575  1.7127  1.4941 -0.9004
13251SOL    HW241175   0.780   7.732   6.656 -2.3712 -0.9519 -0.0706
13252SOL     OW41176   7.211   0.345   3.219  0.7006  0.1711  0.5840
13252SOL    HW141177   7.146   0.299   3.165  1.0969  0.7851 -0.4589
13252SOL    HW241178   7.248   0.277   3.275 -0.9711 -0.1555  1.3696
13253SOL     OW41179   8.464   8.937   0.433 -0.8585  0.0496 -0.3022
13253SOL    HW141180   8.516   8.944   0.353 -1.6778  1.3557 -0.7512
13253SOL    HW241181   8.463   8.843   0.453  0.5904 -0.1366 -0.9794
13254SOL     OW41182   4.366   7.926   2.053  0.1548 -0.2850  0.2373
13254SOL    HW141183   4.435   7.861   2.048  1.0759  0.4392  2.5321
13254SOL    HW241184   4.309   7.906   1.979  1.8259 -2.0176 -0.6564
13255SOL     OW41185   3.089   1.748   6.977 -0.0348 -0.1253  0.1043
13255SOL    HW141186   3.179   1.728   7.003  0.0651 -1.8246 -1.3388
13255SOL    HW241187   3.036   1.680   7.020 -0.1670 -1.2954 -1.7844
13256SOL     OW41188   8.236   3.802   5.163 -0.3069 -0.6842 -0.5110
13256SOL    HW141189   8.197   3.781   5.248 -0.6914  2.4535  0.2177
13256SOL    HW241190   8.323   3.762   5.166 -0.8725 -1.8979  0.7142
13257SOL     OW41191   4.118   0.045   3.002  0.0198  0.1120 -0.2961
13257SOL    HW141192   4.161  -0.010   2.937  2.0494  2.6205 -1.2446
13257SOL    HW241193   4.060   0.102   2.952 -1.0245 -0.2191  0.5038
13258SOL     OW41194   4.928   0.855   2.091  0.2818 -0.0079  0.5723
13258SOL    HW141195   4.982   0.849   2.170  0.0509  0.9919  0.8239
13258SOL    HW241196   4.860   0.789   2.103 -0.1148  0.5572  1.5093
13259SOL     OW41197   2.284   4.989   9.028 -0.1859  0.2105 -0.0950
13259SOL    HW141198   2.197   4.970   8.992 -0.3374 -0.5913  0.6504
13259SOL    HW241199   2.344   4.974   8.955 -0.3843 -2.4242  0.1786
13260SOL     OW41200   2.421   2.255   8.868  0.3717  0.7958 -0.5359
13260SOL    HW141201   2.361   2.190   8.905 -0.9965  1.5626 -1.3311
13260SOL    HW241202   2.453   2.214   8.787 -0.5248  1.1033 -1.0604
13261SOL     OW41203   7.197   3.984   6.282  0.1405  0.2754  0.5291
13261SOL    HW141204   7.231   4.073   6.282 -1.3749  0.9055  1.5332
13261SOL    HW241205   7.104   3.994   6.303 -0.4223 -1.4353 -0.9135
13262SOL     OW41206   8.447   2.401   7.162  0.2782 -0.1821  0.2133
13262SOL    HW141207   8.391   2.432   7.091  1.7263 -0.1758 -0.9677
13262SOL    HW241208   8.417   2.311   7.178  0.3056 -0.3926 -0.8198
13263SOL     OW41209   0.081   4.782   2.036  0.7613 -0.1910 -0.3810
13263SOL    HW141210   0.154   4.739   1.991  1.5978 -0.8295  1.5080
13263SOL    HW241211   0.078   4.742   2.123 -2.2305 -0.6035 -0.5456
13264SOL     OW41212   4.947   2.874   3.245  0.0549 -0.4815 -0.2080
13264SOL    HW141213   4.945   2.945   3.182 -1.8369 -0.5172 -0.2507
13264SOL    HW241214   5.005   2.808   3.207 -0.0341  0.0499 -1.2771
13265SOL     OW41215   8.532   5.811   1.183 -0.4198 -0.2304 -0.2748
13265SOL    HW141216   8.453   5.758   1.192 -0.6401  0.0117 -0.7140
13265SOL    HW241217   8.575   5.805   1.268 -1.7792  1.0082  0.5490
13266SOL     OW41218   1.563   2.885   0.956 -0.3753 -0.3766  0.1258
13266SOL    HW141219   1.533   2.878   1.047 -1.6820 -0.6884 -0.3052
13266SOL    HW241220   1.604   2.971   0.951  0.0473 -0.5077  1.1004
13267SOL     OW41221   4.778   5.920   2.451 -0.0533 -0.3053 -0.2621
13267SOL    HW141222   4.746   5.970   2.527 -0.5979 -0.0749 -0.6364
13267SOL    HW241223   4.842   5.859   2.488 -0.9233 -0.7811  0.5091
13268SOL     OW41224   5.599   7.397   1.670 -0.0001 -0.0636  0.3396
13268SOL    HW141225   5.693   7.397   1.683 -0.0552 -0.2935  0.7925
13268SOL    HW241226   5.580   7.313   1.629 -0.1416 -0.5706  1.4050
13269SOL     OW41227   3.487   6.938   4.035  0.3834  0.4544  0.0341
13269SOL    HW141228   3.410   6.914   4.087  0.3860 -1.7058 -0.8731
13269SOL    HW241229   3.534   7.001   4.090 -0.6573 -0.1951  1.7580
13270SOL     OW41230   1.556   2.517   0.257 -0.2647 -0.3591  0.4479
13270SOL    HW141231   1.614   2.471   0.196 -0.5687 -0.5390  0.2933
13270SOL    HW241232   1.604   2.597   0.279 -2.1508  2.3444 -3.8915
13271SOL     OW41233   8.901   8.989   1.094 -0.0489  0.1036  0.1729
13271SOL    HW141234   8.960   8.936   1.041  1.2497  0.9457  0.7335
13271SOL    HW241235   8.919   8.962   1.184 -1.3224 -0.4012  0.3051
13272SOL     OW41236   4.001   8.415   4.808  0.6087 -0.0275 -0.4654
13272SOL    HW141237   4.079   8.361   4.796 -0.0870 -0.7339 -2.0547
13272SOL    HW241238   3.930   8.364   4.771 -0.9372 -0.0552  2.2425
13273SOL     OW41239   3.471   7.829   1.801  0.2690 -0.0499 -0.2211
13273SOL    HW141240   3.421   7.823   1.720  1.4309 -2.0851 -0.8812
13273SOL    HW241241   3.478   7.922   1.819  0.4721  0.5086 -2.8060
13274SOL     OW41242   0.341   4.172   4.612  0.4244 -0.2702 -0.5561
13274SOL    HW141243   0.351   4.236   4.541 -1.4136  0.2003 -0.4528
13274SOL    HW241244   0.342   4.087   4.568  0.4469 -0.0428 -1.0027
13275SOL     OW41245   6.730   1.181   4.690  0.0270  0.7064  0.1748
13275SOL    HW141246   6.643   1.217   4.704 -0.3677 -0.2855  0.3772
13275SOL    HW241247   6.750   1.200   4.598 -0.6116  0.5160 -0.0058
13276SOL     OW41248   5.503   8.570   4.013 -0.1222  0.2394 -0.7173
13276SOL    HW141249   5.459   8.530   3.938 -0.6809 -1.2136  0.3459
13276SOL    HW241250   5.537   8.653   3.979 -1.5101  0.2473 -2.2227
13277SOL     OW41251   2.330   7.646   6.741 -0.6725 -0.7706  0.2294
13277SOL    HW141252   2.363   7.567   6.698 -0.3126 -0.3376 -0.2869
13277SOL    HW241253   2.324   7.711   6.672  1.7573  0.5385  1.1444
13278SOL     OW41254   5.936   5.990   5.844  0.0129  0.2955  0.0955
13278SOL    HW141255   5.911   6.075   5.807  0.2530  0.6506  0.7197
13278SOL    HW241256   5.904   5.926   5.781 -1.5028  0.7711  0.3386
13279SOL     OW41257   4.861   0.762   0.763 -0.2321  0.3350 -0.2286
13279SOL    HW141258   4.946   0.776   0.721  0.9213  1.4510  2.2627
13279SOL    HW241259   4.822   0.849   0.765 -0.6405  0.1412  0.2204
13280SOL     OW41260   8.454   7.965   6.428  0.4199 -0.0524  0.2519
13280SOL    HW141261   8.530   7.912   6.404 -0.7365 -1.4368 -0.5581
13280SOL    HW241262   8.411   7.916   6.498  0.3712  0.8227  0.8549
13281SOL     OW41263   2.501   2.168   0.810 -0.3448 -0.2031  0.4886
13281SOL    HW141264   2.452   2.158   0.729  1.1477  0.5035 -0.5478
13281SOL    HW241265   2.478   2.256   0.841 -1.0994 -0.5651  0.9743
13282SOL     OW41266   5.661   7.994   6.803 -0.5931 -0.0267  0.2043
13282SOL    HW141267   5.647   8.047   6.882 -1.4141 -1.4284  1.0591
13282SOL    HW241268   5.628   8.048   6.732 -1.1384  0.7374  1.0104
13283SOL     OW41269   6.875   6.025   8.910  0.4952 -0.0814 -0.0113
13283SOL    HW141270   6.845   5.955   8.968  1.1872  0.0895  0.5787
13283SOL    HW241271   6.948   6.065   8.958 -0.5302  1.6985  0.1328
13284SOL     OW41272   1.946   3.684   5.985 -0.6744 -0.0106  1.1745
13284SOL    HW141273   1.891   3.761   5.997 -0.3760  0.3751  0.2324
13284SOL    HW241274   2.032   3.710   6.019 -0.4315  0.2750  0.3643
13285SOL     OW41275   5.301   2.181   0.386  0.3360  0.1158  0.0880
13285SOL    HW141276   5.392   2.161   0.365  0.0860  0.2175 -1.1850
13285SOL    HW241277   5.264   2.096   0.412  1.0654  0.2840  1.7912
13286SOL     OW41278   7.392   1.085   3.166  0.0052  0.5401 -0.7808
13286SOL    HW141279   7.340   1.164   3.180  1.1928  1.2366 -0.0389
13286SOL    HW241280   7.392   1.041   3.251  2.4978  1.7838 -0.0174
13287SOL     OW41281   1.647   8.618   1.209 -0.2798 -0.1931  0.7747
13287SOL    HW141282   1.651   8.637   1.303 -2.1038 -1.6964  1.2122
13287SOL    HW241283   1.635   8.523   1.204 -1.0335 -0.0365 -0.9475
13288SOL     OW41284   0.358   8.735   3.192 -0.9708  0.1645  0.3213
13288SOL    HW141285   0.425   8.725   3.259  0.4880  0.5088 -1.0247
13288SOL    HW241286   0.305   8.655   3.199 -0.8965  0.2333  1.8959
13289SOL     OW41287   4.454   2.138   2.142 -0.1348  0.5861 -0.6017
13289SOL    HW141288   4.384   2.092   2.096  0.7743 -0.4868 -0.9689
13289SOL    HW241289   4.436   2.122   2.235 -0.7839  0.9560 -0.6586
13290SOL     OW41290   2.495   3.162   6.024  0.2540  0.5053  0.9269
13290SOL    HW141291   2.579   3.194   5.991  0.8060 -0.1689  1.6541
13290SOL    HW241292   2.438   3.162   5.947  1.2823 -0.2574  0.1282
13291SOL     OW41293   1.343   4.458   8.156  0.4406  0.1293 -0.0110
13291SOL    HW141294   1.291   4.451   8.076 -0.3858 -0.1496  0.5345
13291SOL    HW241295   1.428   4.492   8.127  0.1238  0.1144 -0.9863
13292SOL     OW41296   5.824   8.277   6.479  0.1323  0.1371 -0.1528
13292SOL    HW141297   5.825   8.209   6.412  1.5614 -0.1368  0.0953
13292SOL    HW241298   5.734   8.280   6.511  0.3341 -2.7033  0.8888
13293SOL     OW41299   3.230   8.138   5.510  0.5202 -0.3432  0.1385
13293SOL    HW141300   3.210   8.204   5.443 -1.0098 -0.7320  0.1751
13293SOL    HW241301   3.259   8.062   5.460  2.5975  0.4269  0.1113
13294SOL     OW41302   5.920   3.381   5.760 -0.0736 -0.4251  0.2587
13294SOL    HW141303   5.943   3.460   5.809 -2.0349  0.3547  0.0365
13294SOL    HW241304   5.890   3.319   5.827 -2.3189  0.4802  0.1878
13295SOL     OW41305   6.927   0.817   4.654 -0.2986 -0.0457  0.2807
13295SOL    HW141306   6.976   0.877   4.599  0.1190  0.1435  0.8431
13295SOL    HW241307   6.896   0.871   4.727 -1.3092 -0.1730 -0.0478
13296SOL     OW41308   2.500   8.616   2.322  0.2307  0.1315  0.1232
13296SOL    HW141309   2.473   8.597   2.412 -2.6527 -0.3915 -0.7268
13296SOL    HW241310   2.565   8.685   2.330 -0.7453  0.8793  2.5751
13297SOL     OW41311   1.812   7.364   3.992  0.2859  0.1330 -0.4509
13297SOL    HW141312   1.725   7.390   4.023 -1.2255 -1.8890 -2.6996
13297SOL    HW241313   1.837   7.292   4.049  0.8204  1.0999  0.5817
13298SOL     OW41314   8.105   8.037   9.088 -0.8938  0.3450 -0.0990
13298SOL    HW141315   8.037   8.073   9.032 -0.6275  2.7545  0.9959
13298SOL    HW241316   8.187   8.059   9.044 -0.7456 -0.9657 -0.5228
13299SOL     OW41317   8.436   0.119   7.281 -0.1004  0.4964  0.1896
13299SOL    HW141318   8.481   0.035   7.280  0.5155  0.8237 -1.0421
13299SOL    HW241319   8.344   0.097   7.262  0.2824  0.1970 -1.4974
13300SOL     OW41320   1.622   1.135   1.851 -0.2082 -0.2096  0.6036
13300SOL    HW141321   1.598   1.050   1.815 -0.4313  0.1714 -0.1688
13300SOL    HW241322   1.574   1.198   1.799  0.8373  0.4558  0.4011
13301SOL     OW41323   8.863   6.472   1.753  0.4136  0.1651 -0.0576
13301SOL    HW141324   8.811   6.546   1.785  1.3943  1.0100 -0.3375
13301SOL    HW241325   8.937   6.466   1.814  0.8341  0.0282 -0.5657
13302SOL     OW41326   2.974   3.587   0.257 -0.5036  0.1939  0.3723
13302SOL    HW141327   2.878   3.585   0.253 -0.6238 -0.2492  2.2980
13302SOL    HW241328   2.993   3.614   0.347  1.2191  2.5372 -0.6020
13303SOL     OW41329   2.667   4.352   0.054 -0.2765  0.4244 -0.1695
13303SOL    HW141330   2.700   4.394  -0.025 -1.6503  0.1631 -0.9106
13303SOL    HW241331   2.742   4.305   0.090  0.6075  1.3540 -0.7678
13304SOL     OW41332   3.407   4.420   5.466  0.1473  0.3702 -0.4154
13304SOL    HW141333   3.489   4.391   5.505  0.3217  1.4457  0.0530
13304SOL    HW241334   3.397   4.366   5.387  0.7710 -0.4831  0.0752
13305SOL     OW41335   7.719   0.889   9.194  0.3488  0.1903 -0.1373
13305SOL    HW141336   7.664   0.942   9.136  0.9294 -0.1111 -1.0004
13305SOL    HW241337   7.720   0.802   9.153  2.4990  0.5103 -0.9190
13306SOL     OW41338   1.651   5.308   2.113  0.0045 -0.7391  0.3809
13306SOL    HW141339   1.708   5.375   2.151 -0.5497 -0.4005  0.6251
13306SOL    HW241340   1.587   5.357   2.061  0.4673 -1.1684 -0.6272
13307SOL     OW41341   6.263   8.142   2.440  0.6696  0.6460 -0.8883
13307SOL    HW141342   6.267   8.051   2.410 -1.5808  0.5352 -1.0114
13307SOL    HW241343   6.353   8.174   2.432  1.5092 -1.5412 -0.8809
13308SOL     OW41344   1.887   3.668   7.185  0.1727 -0.4915 -0.1404
13308SOL    HW141345   1.903   3.608   7.113  2.0142  2.7126 -2.6927
13308SOL    HW241346   1.969   3.716   7.195 -1.0647  1.4211  1.8788
13309SOL     OW41347   2.644   7.117   1.977 -0.0035  0.1210 -0.0315
13309SOL    HW141348   2.641   7.165   2.059 -2.7899 -0.9074  0.5548
13309SOL    HW241349   2.636   7.025   2.002  3.0375 -0.6132 -1.2721
13310SOL     OW41350   5.097   5.069   6.417  0.2047 -0.1360  0.4360
13310SOL    HW141351   5.180   5.029   6.391 -0.1664 -0.1619 -0.7709
13310SOL    HW241352   5.120   5.160   6.438  0.5589 -0.1700  0.2158
13311SOL     OW41353   6.127   0.662   1.538  0.3027  0.0002 -0.1452
13311SOL    HW141354   6.155   0.748   1.507  0.2708 -0.2436 -0.8608
13311SOL    HW241355   6.089   0.679   1.624  0.0367  0.7463 -0.3998
13312SOL     OW41356   6.830   8.179   8.677  0.0803  0.5109 -0.0974
13312SOL    HW141357   6.863   8.121   8.609  0.9090  0.5757  0.2360
13312SOL    HW241358   6.750   8.217   8.640 -1.5697 -2.2427  0.3692
13313SOL     OW41359   7.780   9.042   8.501 -0.1586 -0.4306 -0.2727
13313SOL    HW141360   7.770   8.970   8.563 -1.5499 -0.3123 -0.3292
13313SOL    HW241361   7.692   9.058   8.468  0.1506  1.1563 -0.4258
13314SOL     OW41362   7.073   0.035   2.806 -0.0352  0.2159  0.1628
13314SOL    HW141363   7.103   0.091   2.734 -1.8786 -1.2334 -1.8485
13314SOL    HW241364   7.093  -0.054   2.778  1.4000 -0.3105  2.5918
13315SOL     OW41365   9.078   9.189   4.034  0.2739  0.3205  0.0125
13315SOL    HW141366   9.068   9.282   4.013 -0.2594  0.2098 -0.2436
13315SOL    HW241367   8.988   9.157   4.044  0.4719  0.4942  3.1871
13316SOL     OW41368   1.732   2.507   4.834 -0.1307  0.3918 -0.3440
13316SOL    HW141369   1.716   2.414   4.849  1.7391 -0.4331 -2.8730
13316SOL    HW241370   1.659   2.535   4.778 -1.9649  1.1479  2.2182
13317SOL     OW41371   7.543   4.585   5.851  0.2761 -0.2357  0.1028
13317SOL    HW141372   7.621   4.529   5.859 -0.0687 -0.5534  1.7360
13317SOL    HW241373   7.471   4.529   5.879 -0.4813  0.2214 -0.8806
13318SOL     OW41374   2.455   8.203   0.419  0.3056 -0.2052 -0.5562
13318SOL    HW141375   2.435   8.120   0.377  1.3100 -1.5122  1.4428
13318SOL    HW241376   2.372   8.230   0.459  0.0448 -0.3445 -0.9884
13319SOL     OW41377   7.773   3.434   8.217 -0.4056 -0.5352  0.4366
13319SOL    HW141378   7.736   3.347   8.208  2.2028 -1.5767 -1.4231
13319SOL    HW241379   7.854   3.432   8.165  0.3268  2.6596  1.2001
13320SOL     OW41380   8.212   2.387   2.506  0.5254 -0.2267 -0.1847
13320SOL    HW141381   8.154   2.447   2.553  0.2195 -0.7182  0.0876
13320SOL    HW241382   8.215   2.420   2.417  0.2674  0.1241 -0.0639
13321SOL     OW41383   1.267   1.610   6.780  0.2784 -0.2218 -0.3533
13321SOL    HW141384   1.247   1.575   6.694  2.4236  0.9026 -1.3989
13321SOL    HW241385   1.215   1.691   6.786  0.5150 -0.0280 -0.8404
13322SOL     OW41386   5.556   0.659   2.806  0.1576  0.0962 -0.1359
13322SOL    HW141387   5.479   0.715   2.791 -1.7261 -2.6785 -1.8910
13322SOL    HW241388   5.529   0.601   2.877  1.0517 -0.2188 -0.0498
13323SOL     OW41389   7.799   1.689   8.188  0.6532  0.2637  0.5415
13323SOL    HW141390   7.877   1.667   8.136 -0.6028 -0.0036 -1.3368
13323SOL    HW241391   7.834   1.724   8.270  2.7406  0.1780 -0.2472
13324SOL     OW41392   3.369   1.194   1.144 -0.0546  0.0936  0.0602
13324SOL    HW141393   3.282   1.219   1.173 -0.2747  0.3820 -0.8324
13324SOL    HW241394   3.407   1.274   1.107  1.2708  0.4389  2.0026
13325SOL     OW41395   6.833   2.631   1.033  0.4451 -0.2631 -0.1787
13325SOL    HW141396   6.771   2.703   1.046  0.9848  0.2794 -0.5705
13325SOL    HW241397   6.872   2.648   0.947  1.3177 -0.4691  0.1729
13326SOL     OW41398   4.410   6.364   4.825  0.9192 -0.1520 -0.0490
13326SOL    HW141399   4.475   6.320   4.770  1.0952  0.9147 -0.7110
13326SOL    HW241400   4.442   6.351   4.915  1.9955  0.2772 -0.3585
13327SOL     OW41401   5.823   2.883   0.672 -0.0695  0.0765  0.1144
13327SOL    HW141402   5.800   2.925   0.589  0.9162  1.1006  0.3386
13327SOL    HW241403   5.823   2.789   0.652  1.6301  0.3651 -1.4373
13328SOL     OW41404   3.577   6.138   4.132  0.3358  0.2298  0.4697
13328SOL    HW141405   3.554   6.231   4.139  0.9676  0.2604  3.0314
13328SOL    HW241406   3.667   6.134   4.164  0.6842 -1.1460 -0.6134
13329SOL     OW41407   2.181   4.527   0.243  0.3123  0.0320  0.5314
13329SOL    HW141408   2.144   4.589   0.179  1.0252  0.3450  0.4123
13329SOL    HW241409   2.263   4.498   0.203 -0.0413 -1.0498  0.5577
13330SOL     OW41410   1.134   1.161   0.284  0.3759 -0.7477  0.3478
13330SOL    HW141411   1.197   1.172   0.213 -0.1547 -1.8658 -0.3278
13330SOL    HW241412   1.063   1.222   0.264  0.6391 -0.4271  0.3965
13331SOL     OW41413   6.641   3.051   0.554 -0.0910 -0.1405  0.5992
13331SOL    HW141414   6.550   3.077   0.538 -0.0026  0.0188  0.3560
13331SOL    HW241415   6.645   3.038   0.649 -0.9531 -2.3536  0.3980
13332SOL     OW41416   6.798   0.976   7.275  0.1107 -0.1802 -0.0104
13332SOL    HW141417   6.713   0.936   7.292  0.8779 -1.5792  0.6466
13332SOL    HW241418   6.834   0.993   7.361  1.1498 -1.0279 -0.2642
13333SOL     OW41419   0.562   9.232   5.818  0.0721 -0.0481 -0.3419
13333SOL    HW141420   0.640   9.178   5.802  0.0870 -0.4491  1.0110
13333SOL    HW241421   0.489   9.171   5.812  0.1299 -0.3717  1.7703
13334SOL     OW41422   2.915   7.597   2.939  0.3866  0.0528  0.6512
13334SOL    HW141423   2.897   7.503   2.944 -0.0518  0.0711 -0.3002
13334SOL    HW241424   2.834   7.639   2.968  0.3413  0.1325  0.4151
13335SOL     OW41425   2.204   3.704   5.376  0.2574  0.5084 -0.5132
13335SOL    HW141426   2.225   3.772   5.440 -1.3427 -0.4732  1.1443
13335SOL    HW241427   2.197   3.623   5.427 -1.9976 -0.1658 -1.7356
13336SOL     OW41428   8.254   8.386   4.845  0.5023 -0.4176  0.4845
13336SOL    HW141429   8.222   8.297   4.863 -3.8614  0.7054 -0.3815
13336SOL    HW241430   8.234   8.400   4.753 -0.2239  1.8372  0.9225
13337SOL     OW41431   8.604   5.794   2.151 -0.1569 -0.1744  0.4273
13337SOL    HW141432   8.580   5.842   2.072 -1.1324 -0.8209  0.3033
13337SOL    HW241433   8.629   5.707   2.119  0.8852  0.0129  0.7062
13338SOL     OW41434   4.947   4.665   4.008  0.2878 -0.0287 -0.1621
13338SOL    HW141435   4.897   4.658   3.927 -0.6445  0.1586  0.3718
13338SOL    HW241436   4.901   4.608   4.070 -1.0562  2.3187  1.1808
13339SOL     OW41437   4.915   0.716   1.349  0.1108  0.2053 -0.0020
13339SOL    HW141438   4.925   0.704   1.444  2.6044 -2.0814 -0.4365
13339SOL    HW241439   4.865   0.639   1.321  0.6073  0.1179 -0.6751
13340SOL     OW41440   8.016   5.267   5.568 -0.0741  0.1328  0.3663
13340SOL    HW141441   7.921   5.280   5.566 -0.2931 -1.3508 -0.1750
13340SOL    HW241442   8.038   5.267   5.661 -0.8231 -0.7751  0.5638
13341SOL     OW41443   7.707   8.126   3.045  0.2753  0.0817  0.7802
13341SOL    HW141444   7.671   8.038   3.044  1.7485 -0.5809  2.0712
13341SOL    HW241445   7.727   8.145   2.953  0.0574 -0.9620  0.5071
13342SOL     OW41446   5.283   6.365   6.778  0.1767  0.5173 -0.4062
13342SOL    HW141447   5.321   6.409   6.854 -0.5621  0.6038 -0.0807
13342SOL    HW241448   5.189   6.385   6.783 -0.1500 -0.9489 -0.3434
13343SOL     OW41449   5.577   6.321   3.360  0.1996  0.1814 -0.3908
13343SOL    HW141450   5.571   6.364   3.446  1.6219 -0.9522  0.3078
13343SOL    HW241451   5.615   6.388   3.303  0.6368  0.4704  0.2233
13344SOL     OW41452   0.520   7.168   5.332  0.5475 -0.1480  0.1563
13344SOL    HW141453   0.544   7.113   5.406  1.2671  0.6697  0.5493
13344SOL    HW241454   0.546   7.256   5.358 -2.4422  0.7711  0.3860
13345SOL     OW41455   8.340   3.175   3.695  0.3212  0.3768  0.2935
13345SOL    HW141456   8.376   3.238   3.632 -0.3475 -0.1154 -0.5941
13345SOL    HW241457   8.266   3.135   3.650  0.2671 -0.5063  1.1336
13346SOL     OW41458   2.474   5.985   7.239 -0.1418 -0.7146  0.5562
13346SOL    HW141459   2.559   5.977   7.194 -0.9136 -1.8055 -0.7822
13346SOL    HW241460   2.477   6.071   7.280  0.9528 -0.0078 -0.9192
13347SOL     OW41461   8.869   6.604   7.855  0.1413  0.2652  0.6183
13347SOL    HW141462   8.821   6.521   7.862  1.7095 -0.7577 -0.0683
13347SOL    HW241463   8.946   6.591   7.910  0.0547  1.5592  1.0707
13348SOL     OW41464   0.926   1.746   5.675 -0.3435  0.6180 -0.0384
13348SOL    HW141465   0.980   1.817   5.640  2.4120 -1.0448  0.4828
13348SOL    HW241466   0.839   1.761   5.638  0.6708  2.9543 -1.7373
13349SOL     OW41467   7.590   3.542   7.958 -0.7004  0.3297 -0.4761
13349SOL    HW141468   7.574   3.530   8.052  0.4135  0.1557 -0.2907
13349SOL    HW241469   7.586   3.454   7.921  0.7943  0.1418 -0.2473
13350SOL     OW41470   7.734   5.321   9.225  0.1465 -0.8545 -0.2450
13350SOL    HW141471   7.650   5.312   9.270  0.3867  1.1536  0.7332
13350SOL    HW241472   7.714   5.374   9.148  0.8110  1.9350  1.3438
13351SOL     OW41473   0.524   6.225   4.613 -0.2082 -0.2838 -0.4368
13351SOL    HW141474   0.498   6.209   4.704 -1.6065  0.6299 -0.6489
13351SOL    HW241475   0.475   6.303   4.587  0.1139 -0.5720 -2.0079
13352SOL     OW41476   1.388   2.331   0.643  0.6497  0.2156  0.2171
13352SOL    HW141477   1.386   2.246   0.687 -0.1365  0.4104  0.5824
13352SOL    HW241478   1.455   2.380   0.689 -1.1241  0.9222  2.2117
13353SOL     OW41479   1.123   6.028   7.329  1.1432  0.2700 -0.3519
13353SOL    HW141480   1.187   6.023   7.400 -0.7014 -0.3512  1.3870
13353SOL    HW241481   1.126   6.118   7.299  2.2477  0.4521  0.2742
13354SOL     OW41482   5.016   7.411   3.832  0.8414  0.5949 -0.0435
13354SOL    HW141483   4.925   7.383   3.831  0.7971  0.7108  0.3637
13354SOL    HW241484   5.057   7.357   3.900  1.1291  0.3834 -0.3829
13355SOL     OW41485   8.125   4.883   5.649 -0.3594 -0.0423  0.4987
13355SOL    HW141486   8.042   4.854   5.688 -0.6641 -0.1786 -0.2294
13355SOL    HW241487   8.111   4.875   5.554  0.2134  0.6755  0.3408
13356SOL     OW41488   4.495   3.166   3.158 -0.0288  0.2457 -0.5734
13356SOL    HW141489   4.540   3.134   3.079  2.0686 -1.9933  1.3525
13356SOL    HW241490   4.508   3.261   3.156 -0.0331  0.2710 -2.8587
13357SOL     OW41491   3.881   4.816   8.963  1.0664  0.0647  0.3149
13357SOL    HW141492   3.925   4.741   9.003  0.1392 -1.4893 -1.4222
13357SOL    HW241493   3.895   4.805   8.869 -3.0374 -0.7069 -0.4281
13358SOL     OW41494   6.086   6.469   7.727 -0.4598  0.6434 -0.3217
13358SOL    HW141495   6.125   6.426   7.651 -0.6534  1.1892 -0.7344
13358SOL    HW241496   5.993   6.479   7.704 -0.8423 -0.5325  0.5977
13359SOL     OW41497   8.395   8.241   3.649 -0.1676 -0.0244  0.2097
13359SOL    HW141498   8.437   8.159   3.675 -1.5030 -1.1616 -1.0518
13359SOL    HW241499   8.362   8.224   3.561  2.1559  2.8869 -1.4210
13360SOL     OW41500   7.397   6.645   1.770  0.1523  0.5949 -0.3601
13360SOL    HW141501   7.343   6.630   1.848  0.2687  1.0984 -0.1735
13360SOL    HW241502   7.364   6.583   1.705  0.8123 -0.6321  0.4475
13361SOL     OW41503   2.362   7.576   1.689 -0.0090 -0.1089  0.0223
13361SOL    HW141504   2.384   7.513   1.621 -0.1810 -0.2002  0.0493
13361SOL    HW241505   2.443   7.589   1.737 -0.0404 -0.5317  0.1982
13362SOL     OW41506   6.309   8.717   3.159  0.1380 -0.0909  0.1768
13362SOL    HW141507   6.223   8.756   3.171  0.9504  1.6707  0.6291
13362SOL    HW241508   6.324   8.720   3.064 -0.2762 -0.3917  0.0983
13363SOL     OW41509   5.768   2.162   0.245 -0.0004 -0.1010 -0.1358
13363SOL    HW141510   5.827   2.088   0.230  1.1355  0.8184 -0.3126
13363SOL    HW241511   5.801   2.232   0.189 -0.6399  0.7652  0.5337
13364SOL     OW41512   1.358   5.643   8.607 -0.0848 -0.2174 -0.2456
13364SOL    HW141513   1.404   5.719   8.571 -1.3418  1.8246  2.1144
13364SOL    HW241514   1.267   5.654   8.579 -1.1022  1.4394  3.1746
13365SOL     OW41515   3.379   4.892   1.607  0.1275  0.2735  0.2989
13365SOL    HW141516   3.300   4.857   1.567 -0.0162  2.3222 -1.3968
13365SOL    HW241517   3.348   4.951   1.675  0.3108 -0.9020  1.4446
13366SOL     OW41518   4.440   1.701   2.798 -0.0385 -0.0211 -0.6610
13366SOL    HW141519   4.364   1.643   2.800 -0.8941  1.0895  1.7175
13366SOL    HW241520   4.515   1.641   2.789 -0.9423 -1.4407  0.7636
13367SOL     OW41521   2.088   0.351   8.668 -0.3503  0.3190 -0.1953
13367SOL    HW141522   2.091   0.259   8.642 -1.5842  0.0384  0.5341
13367SOL    HW241523   2.076   0.398   8.586  0.5324 -0.1479 -0.6007
13368SOL     OW41524   4.184   4.533   0.501 -0.3703 -0.4393  0.1571
13368SOL    HW141525   4.254   4.546   0.565 -1.1177  0.2769  0.8508
13368SOL    HW241526   4.144   4.450   0.525  2.1562 -2.5257 -2.1321
13369SOL     OW41527   6.566   7.968   9.108  0.5988 -0.3736 -0.4536
13369SOL    HW141528   6.634   7.908   9.141  1.0750  0.7646  0.6989
13369SOL    HW241529   6.615   8.037   9.063  0.2526  0.7300  0.8374
13370SOL     OW41530   0.952   2.051   5.883 -0.2601  0.4328  0.6708
13370SOL    HW141531   1.007   2.024   5.956 -2.5071 -0.4350  2.1499
13370SOL    HW241532   0.990   2.008   5.806  0.9424 -0.3342  1.6704
13371SOL     OW41533   0.213   2.584   1.512 -0.6699 -0.1146 -0.1923
13371SOL    HW141534   0.126   2.623   1.522  0.4355  2.3348  0.7047
13371SOL    HW241535   0.232   2.546   1.598 -0.1745  0.9434  0.1828
13372SOL     OW41536   8.970   6.851   8.429 -0.0415 -0.6749  0.1867
13372SOL    HW141537   8.895   6.802   8.396 -0.2965  0.8181 -1.6024
13372SOL    HW241538   8.963   6.937   8.387  2.2831 -0.2569  0.5100
13373SOL     OW41539   2.561   1.779   8.950  0.1173  0.2382  0.2562
13373SOL    HW141540   2.603   1.865   8.953  1.7954 -0.4044 -1.9187
13373SOL    HW241541   2.614   1.724   9.007  1.1056 -0.0957 -0.9395
13374SOL     OW41542   7.646   4.552   1.921  0.9691  0.2398  0.6267
13374SOL    HW141543   7.611   4.529   2.008  1.2592  0.5206  0.8201
13374SOL    HW241544   7.733   4.512   1.920  0.0992 -1.7642 -0.4288
13375SOL     OW41545   5.360   6.146   1.000 -0.6624 -0.0106  0.4786
13375SOL    HW141546   5.343   6.238   0.979  1.0135  0.6914  1.9267
13375SOL    HW241547   5.277   6.114   1.035 -0.8520  1.4332  1.4568
13376SOL     OW41548   1.695   0.271   5.236 -0.5442  0.0078  0.4987
13376SOL    HW141549   1.735   0.348   5.277 -1.2524  1.4887 -1.4462
13376SOL    HW241550   1.609   0.265   5.276 -0.6818  0.5582  0.2991
13377SOL     OW41551   4.219   3.678   4.557 -0.0019 -0.0658 -0.0726
13377SOL    HW141552   4.306   3.646   4.583 -0.0625 -0.2316 -0.0716
13377SOL    HW241553   4.159   3.607   4.583 -0.0804 -0.1677 -0.5294
13378SOL     OW41554   1.251   7.622   0.981  1.0609  0.2950 -0.3005
13378SOL    HW141555   1.254   7.717   0.965  1.1501  0.3130 -0.1768
13378SOL    HW241556   1.217   7.614   1.070  1.1340  0.2128 -0.2806
13379SOL     OW41557   0.597   7.411   5.426 -0.2134  0.5299  0.3705
13379SOL    HW141558   0.657   7.426   5.499 -0.5070 -0.0285  0.7374
13379SOL    HW241559   0.634   7.460   5.353  1.4616 -0.9044  0.1912
13380SOL     OW41560   4.800   8.051   4.669 -0.0284  0.4939  0.0354
13380SOL    HW141561   4.862   8.123   4.662  2.9082 -1.7767  0.8951
13380SOL    HW241562   4.795   8.032   4.762  0.5653 -1.4262 -0.2828
13381SOL     OW41563   8.419   5.556   4.723  0.5195 -0.1603 -0.3448
13381SOL    HW141564   8.504   5.523   4.750 -0.1697 -0.8483  1.1041
13381SOL    HW241565   8.372   5.479   4.691 -0.9113 -0.6391  2.5677
13382SOL     OW41566   2.200   5.904   7.567  0.0721  0.1999  0.6483
13382SOL    HW141567   2.274   5.963   7.551 -0.1776  0.0519 -1.4025
13382SOL    HW241568   2.137   5.925   7.497 -1.1825 -0.6733  1.4692
13383SOL     OW41569   3.474   9.104   6.260  0.1964  0.1496 -0.6771
13383SOL    HW141570   3.411   9.161   6.305  0.9868 -0.0740  0.7835
13383SOL    HW241571   3.445   9.016   6.282  1.9846  0.0344  1.5296
13384SOL     OW41572   2.993   3.915   3.831  0.0247 -0.0832  0.1170
13384SOL    HW141573   3.012   3.822   3.842 -3.4308 -1.1404 -1.4370
13384SOL    HW241574   2.995   3.929   3.736  2.3005  1.9659  0.3770
13385SOL     OW41575   0.352   1.689   8.322 -0.2968 -0.4274 -0.2514
13385SOL    HW141576   0.402   1.622   8.274  1.6409 -1.5368  2.9824
13385SOL    HW241577   0.324   1.645   8.402 -0.7149  2.0928  1.0817
13386SOL     OW41578   1.009   4.747   2.540  0.3790  0.2093 -0.3134
13386SOL    HW141579   1.084   4.707   2.583 -0.3113  0.6944  1.4171
13386SOL    HW241580   1.007   4.707   2.453  0.7810 -2.1830  0.6948
13387SOL     OW41581   8.012   5.208   6.617  0.8136  0.2392  0.0167
13387SOL    HW141582   7.942   5.208   6.552  2.2691 -2.2790 -1.7544
13387SOL    HW241583   8.082   5.260   6.576  0.5730  1.4320  1.0786
13388SOL     OW41584   0.427   8.141   8.846 -0.4297  0.0808 -0.0121
13388SOL    HW141585   0.400   8.227   8.878 -1.1827  0.1518 -0.7946
13388SOL    HW241586   0.349   8.107   8.802 -0.4404 -1.3842  1.0446
13389SOL     OW41587   4.834   2.210   1.643 -0.2348 -0.0536  0.3773
13389SOL    HW141588   4.891   2.169   1.579 -0.1964  0.6530 -0.0476
13389SOL    HW241589   4.865   2.178   1.727 -0.5607 -1.3240  0.0252
13390SOL     OW41590   1.364   1.438   0.606 -0.1571 -0.4756  0.2470
13390SOL    HW141591   1.392   1.390   0.684  1.6961  0.0101 -0.0771
13390SOL    HW241592   1.358   1.371   0.538 -0.5369 -0.7027  0.4992
13391SOL     OW41593   6.312   8.919   6.804  0.0974  0.6197 -0.0433
13391SOL    HW141594   6.278   8.972   6.877  0.3982  0.7954 -0.0283
13391SOL    HW241595   6.237   8.867   6.776  0.3944 -0.7433  1.5164
13392SOL     OW41596   9.165   2.570   8.244 -0.2689 -0.1674 -0.9596
13392SOL    HW141597   9.203   2.657   8.235 -1.3002  0.2529 -1.4506
13392SOL    HW241598   9.191   2.524   8.164 -1.4157  0.3835 -1.6760
13393SOL     OW41599   5.586   1.731   5.031  0.1186 -0.1614 -0.0812
13393SOL    HW141600   5.675   1.713   5.062  0.4913 -0.6788 -1.3777
13393SOL    HW241601   5.595   1.742   4.936 -1.4157 -1.8914 -0.4945
13394SOL     OW41602   1.653   5.585   8.372 -0.2252  0.1810 -0.3630
13394SOL    HW141603   1.677   5.556   8.460 -0.0216 -0.1026 -0.5106
13394SOL    HW241604   1.596   5.660   8.386 -0.8067 -0.3287  0.0267
13395SOL     OW41605   7.238   8.401   8.505 -0.8490 -0.1923  0.0046
13395SOL    HW141606   7.184   8.387   8.583 -1.4118 -0.3976 -0.4104
13395SOL    HW241607   7.328   8.387   8.534 -0.8232  1.8602  1.1307
13396SOL     OW41608   8.695   6.925   0.411 -0.2772  0.2180  0.4070
13396SOL    HW141609   8.703   7.016   0.439 -0.9350 -0.3629  2.7239
13396SOL    HW241610   8.602   6.915   0.389 -0.0032  0.3433 -0.8741
13397SOL     OW41611   3.863   2.422   8.491  0.0319 -0.1792 -0.1261
13397SOL    HW141612   3.923   2.347   8.496  0.5448  0.2719  0.9530
13397SOL    HW241613   3.846   2.444   8.583 -0.1760  0.9688 -0.4338
13398SOL     OW41614   0.674   2.368   3.112 -0.2215 -0.6256 -0.4422
13398SOL    HW141615   0.618   2.417   3.052 -3.6013 -0.9475  2.1409
13398SOL    HW241616   0.643   2.278   3.104 -0.2360 -0.7906  1.1239
13399SOL     OW41617   0.002   7.032   1.168 -0.2354  1.0160  0.3974
13399SOL    HW141618   0.054   7.111   1.151  0.0998  0.5786 -0.7068
13399SOL    HW241619  -0.062   7.030   1.096  0.5253 -0.3416 -0.2815
13400SOL     OW41620   7.289   0.014   5.735 -0.1123 -0.0297 -0.3084
13400SOL    HW141621   7.205   0.035   5.695  0.0626  0.6759 -0.3112
13400SOL    HW241622   7.319   0.096   5.774  0.0046 -0.5679  0.7622
13401SOL     OW41623   1.717   5.506   5.172  0.4528  0.2651  0.3565
13401SOL    HW141624   1.754   5.543   5.091 -2.2774 -0.6142 -1.4140
13401SOL    HW241625   1.754   5.418   5.177  1.9105  0.8828  1.0300
13402SOL     OW41626   3.133   4.765   2.106  0.4539 -0.0704  0.1012
13402SOL    HW141627   3.201   4.769   2.039 -0.9782 -3.3561 -1.7429
13402SOL    HW241628   3.112   4.857   2.124  3.7539  0.9988 -0.8416
13403SOL     OW41629   1.644   1.405   4.053  0.1869 -0.4634 -0.3701
13403SOL    HW141630   1.588   1.425   4.128 -1.8941  3.5223 -2.6482
13403SOL    HW241631   1.588   1.357   3.992  0.0050  1.1407 -1.5367
13404SOL     OW41632   0.367   0.581   4.162 -0.3476  0.3517  0.6709
13404SOL    HW141633   0.446   0.562   4.211 -0.7766 -1.9409  0.5904
13404SOL    HW241634   0.317   0.640   4.219  0.7171  0.5714  1.4028
13405SOL     OW41635   6.614   2.091   9.142 -0.4799  0.9940 -0.0025
13405SOL    HW141636   6.600   2.114   9.050  0.0499 -2.4076 -1.0631
13405SOL    HW241637   6.577   2.003   9.151  0.0894  0.9424  2.9013
13406SOL     OW41638   0.957   3.011   8.705 -0.1125 -0.3969  0.7436
13406SOL    HW141639   0.932   3.041   8.618  2.7764 -1.9202 -0.7498
13406SOL    HW241640   0.897   3.058   8.764 -0.0941  3.2229 -1.7544
13407SOL     OW41641   2.846   8.521   1.992  0.2139  0.0518  0.5458
13407SOL    HW141642   2.784   8.448   1.987  2.3015 -1.7842  0.3584
13407SOL    HW241643   2.866   8.541   1.900 -0.2071  0.8041  0.6002
13408SOL     OW41644   2.314   3.052   9.049 -0.4771  0.4799  0.3501
13408SOL    HW141645   2.307   2.963   9.015  0.9841 -0.1032  1.4489
13408SOL    HW241646   2.240   3.061   9.109 -1.2719  0.4225 -0.5988
13409SOL     OW41647   2.611   5.486   4.755  0.4864  0.3096 -0.1852
13409SOL    HW141648   2.525   5.468   4.794  0.9212 -0.2670  0.5589
13409SOL    HW241649   2.639   5.401   4.719  1.4255  0.0733  1.0177
13410SOL     OW41650   2.853   5.261   1.684  0.4865  0.1637  0.1854
13410SOL    HW141651   2.902   5.316   1.744  0.4767 -0.8118  1.1265
13410SOL    HW241652   2.891   5.173   1.696 -0.2677 -0.2544 -0.4052
13411SOL     OW41653   3.262   8.005   5.127  0.6104  0.4742  0.0362
13411SOL    HW141654   3.171   8.001   5.098 -0.7098  0.3726  3.6965
13411SOL    HW241655   3.308   7.944   5.069 -2.1156 -1.3125 -0.4344
13412SOL     OW41656   0.389   8.728   5.574  0.2325  0.2270  0.5082
13412SOL    HW141657   0.437   8.801   5.535 -0.7144  0.1450 -0.8832
13412SOL    HW241658   0.315   8.714   5.515  0.7263 -2.2691  0.3681
13413SOL     OW41659   5.907   3.465   3.074 -0.2952 -0.2196 -1.0036
13413SOL    HW141660   5.859   3.494   2.997 -1.2945 -0.0751 -0.3506
13413SOL    HW241661   5.915   3.543   3.128  1.0921 -0.1377 -1.2885
13414SOL     OW41662   3.444   0.160   9.277  0.0012  0.1358  0.0057
13414SOL    HW141663   3.374   0.096   9.269  0.0724  0.0371  0.1573
13414SOL    HW241664   3.402   0.244   9.260 -0.4168  0.2045  1.2507
13415SOL     OW41665   7.930   2.510   5.765  0.0980  0.6972 -0.2405
13415SOL    HW141666   7.928   2.429   5.713  1.3597 -0.9128  2.0227
13415SOL    HW241667   7.841   2.544   5.760 -0.6574 -1.2133 -0.7462
13416SOL     OW41668   7.387   4.940   3.868 -0.0617  0.3073 -0.3528
13416SOL    HW141669   7.461   4.884   3.891  0.0928  0.8470  0.5362
13416SOL    HW241670   7.335   4.888   3.807 -0.3731 -1.1408  1.0949
13417SOL     OW41671   8.839   5.377   2.005 -0.1134 -0.1040 -0.7558
13417SOL    HW141672   8.905   5.351   1.941  0.9431  0.8372 -0.1016
13417SOL    HW241673   8.849   5.315   2.077  2.2748  1.7893  0.7207
13418SOL     OW41674   5.095   1.755   7.177 -0.5956  0.2609 -0.4400
13418SOL    HW141675   5.156   1.689   7.211 -1.2721  0.3188  0.9699
13418SOL    HW241676   5.017   1.704   7.153 -0.6895  0.4079 -0.4455
13419SOL     OW41677   5.149   6.756   3.289 -0.2026  0.9395  0.4098
13419SOL    HW141678   5.201   6.685   3.328 -0.4701 -0.4299 -1.5816
13419SOL    HW241679   5.187   6.836   3.325  0.0926 -0.1820  2.7670
13420SOL     OW41680   0.421   8.088   1.119 -0.0009 -0.2590  0.0978
13420SOL    HW141681   0.505   8.132   1.111 -0.9522  1.5775 -0.3442
13420SOL    HW241682   0.409   8.077   1.213  0.4719  0.0104  0.1962
13421SOL     OW41683   7.544   6.166   6.735 -0.2587  0.5363  0.1740
13421SOL    HW141684   7.499   6.204   6.660  0.6418  0.0599 -0.6356
13421SOL    HW241685   7.541   6.072   6.719  0.9006  0.4916  0.1666
13422SOL     OW41686   7.361   2.910   2.125 -0.0800 -0.7528 -0.4609
13422SOL    HW141687   7.289   2.925   2.064  0.2553 -0.2684 -0.7405
13422SOL    HW241688   7.440   2.931   2.075  0.3308 -2.0892 -0.4311
13423SOL     OW41689   6.655   0.581   8.259  0.3173  0.2075 -0.0667
13423SOL    HW141690   6.575   0.610   8.215  0.6402  1.4844  0.1549
13423SOL    HW241691   6.726   0.627   8.214  0.7439  0.6649  1.0376
13424SOL     OW41692   0.319   5.558   6.993 -0.3715 -0.2877 -0.1996
13424SOL    HW141693   0.386   5.616   7.029  0.4614 -0.9187 -0.6908
13424SOL    HW241694   0.262   5.537   7.067 -0.7172  1.1785 -0.0250
13425SOL     OW41695   2.554   5.330   1.031 -0.0074  0.8883 -0.2872
13425SOL    HW141696   2.534   5.248   0.987  1.2656 -0.7618  2.0079
13425SOL    HW241697   2.483   5.343   1.093 -0.1699  1.5308 -0.5892
13426SOL     OW41698   8.885   0.395   2.395  0.0562  0.1013 -0.3541
13426SOL    HW141699   8.867   0.301   2.390  2.2623 -0.3780 -0.4197
13426SOL    HW241700   8.968   0.401   2.443 -0.2869  2.0661  0.0963
13427SOL     OW41701   8.253   6.653   5.565  0.2616  0.1999  0.1634
13427SOL    HW141702   8.183   6.656   5.629  0.1679  0.5816  0.0479
13427SOL    HW241703   8.315   6.589   5.599  0.4107  0.6970  0.8420
13428SOL     OW41704   2.878   0.229   4.799  0.6696  0.3802  0.1680
13428SOL    HW141705   2.969   0.202   4.815  0.3874 -1.1039 -0.5249
13428SOL    HW241706   2.825   0.161   4.842 -0.0899  0.1482 -1.0782
13429SOL     OW41707   5.977   0.853   5.167 -0.3648  0.0012  0.0949
13429SOL    HW141708   6.069   0.841   5.192 -0.2123 -1.8977 -1.1264
13429SOL    HW241709   5.979   0.862   5.072 -1.3918  0.8623  0.1324
13430SOL     OW41710   3.444   5.321   7.604  0.6953  0.3584 -0.1984
13430SOL    HW141711   3.516   5.341   7.544 -0.0690  1.7787 -0.6999
13430SOL    HW241712   3.403   5.405   7.621 -1.0592 -0.4361 -0.2145
13431SOL     OW41713   0.626   3.367   7.358 -0.2666  0.3130  0.3413
13431SOL    HW141714   0.640   3.286   7.309 -0.9379  0.2329  0.2769
13431SOL    HW241715   0.703   3.373   7.415  0.6498  0.5502 -0.8841
13432SOL     OW41716   7.710   2.357   1.067 -0.2524 -0.0385  0.0715
13432SOL    HW141717   7.738   2.449   1.072  0.8560 -0.3569  0.0874
13432SOL    HW241718   7.782   2.309   1.108 -0.3569 -0.9956 -0.8417
13433SOL     OW41719   6.096   7.038   7.659  0.5954 -0.0451  0.0058
13433SOL    HW141720   6.058   6.990   7.732  0.6866 -1.7072 -0.9630
13433SOL    HW241721   6.179   7.072   7.693 -0.1278  0.6462  1.1249
13434SOL     OW41722   0.628   4.231   5.918  0.8709  0.3124  0.1115
13434SOL    HW141723   0.654   4.139   5.917  0.5276  0.2083  0.6307
13434SOL    HW241724   0.679   4.270   5.989  0.7135  0.4350  0.1570
13435SOL     OW41725   8.595   3.030   1.174 -0.2786  0.5688 -0.5562
13435SOL    HW141726   8.681   3.004   1.207  0.2538  1.8188 -0.8879
13435SOL    HW241727   8.599   3.125   1.169 -2.6079  0.9400  1.9658
13436SOL     OW41728   6.931   7.324   3.994 -0.0673 -0.1854 -0.2699
13436SOL    HW141729   6.881   7.257   4.039  1.6146 -1.0675  0.3851
13436SOL    HW241730   7.009   7.278   3.961  0.7628  1.2862 -0.4683
13437SOL     OW41731   2.650   6.726   0.933 -0.0710  0.2877  0.2630
13437SOL    HW141732   2.595   6.707   1.009 -0.7273 -0.1641 -0.3099
13437SOL    HW241733   2.589   6.762   0.868  0.4473  0.4957 -0.1155
13438SOL     OW41734   5.499   8.235   3.866  0.3658  0.2252 -0.1350
13438SOL    HW141735   5.450   8.311   3.834  0.1401  0.1919  0.1346
13438SOL    HW241736   5.513   8.181   3.787 -0.0628  0.2138 -0.2059
13439SOL     OW41737   0.153   0.227   6.001  0.2585 -0.5342 -0.7397
13439SOL    HW141738   0.141   0.190   5.914  1.4509  0.6267 -1.4287
13439SOL    HW241739   0.245   0.252   6.005  0.1177 -0.1178  0.6710
13440SOL     OW41740   5.738   1.120   1.757 -0.5171 -0.0282 -0.2706
13440SOL    HW141741   5.728   1.171   1.838 -1.4760  0.8458 -0.9156
13440SOL    HW241742   5.649   1.088   1.739 -0.4243  0.2739 -1.2872
13441SOL     OW41743   3.199   9.167   5.765  0.4222 -0.2001 -0.0245
13441SOL    HW141744   3.255   9.089   5.764 -0.4857 -0.8940  0.5858
13441SOL    HW241745   3.137   9.152   5.694 -0.4924 -0.6304  0.8336
13442SOL     OW41746   1.789   1.876   6.002  0.5274 -0.3119 -0.0454
13442SOL    HW141747   1.702   1.841   6.021  0.7180 -1.9453 -1.9051
13442SOL    HW241748   1.849   1.807   6.030  1.2675  0.8634  1.3621
13443SOL     OW41749   8.023   6.314   2.508  0.0821 -0.1985  0.2463
13443SOL    HW141750   7.984   6.235   2.545 -0.0836 -0.8055 -1.1629
13443SOL    HW241751   7.953   6.379   2.514 -0.5376 -0.7684 -0.5708
13444SOL     OW41752   0.889   2.779   3.009  0.0663 -0.1477  0.1455
13444SOL    HW141753   0.810   2.787   3.062  0.1725 -1.0629  0.4675
13444SOL    HW241754   0.922   2.868   3.001 -0.6054  0.1510  0.6131
13445SOL     OW41755   8.946   5.001   6.495  0.1782 -0.2095  0.6319
13445SOL    HW141756   8.928   5.038   6.408  0.1822 -0.0375  0.7041
13445SOL    HW241757   9.003   4.925   6.477 -0.4214 -0.6174  0.4217
13446SOL     OW41758   5.638   7.216   6.190  0.5985  0.3427  0.1927
13446SOL    HW141759   5.586   7.283   6.146  0.7925  1.3923  1.4902
13446SOL    HW241760   5.678   7.166   6.119 -1.2283  0.2396 -0.8146
13447SOL     OW41761   0.356   4.194   8.370 -0.5649 -0.1752  0.4620
13447SOL    HW141762   0.396   4.281   8.372 -0.7487 -0.0482 -0.7846
13447SOL    HW241763   0.290   4.196   8.440 -1.3060  1.0552 -0.2424
13448SOL     OW41764   0.663   1.545   4.932  0.5833 -0.1896 -0.2122
13448SOL    HW141765   0.624   1.515   4.850  0.4524 -0.4171 -0.0667
13448SOL    HW241766   0.589   1.571   4.986  0.6507 -0.3602 -0.0377
13449SOL     OW41767   1.432   3.658   7.024  0.4209  0.3358  0.2626
13449SOL    HW141768   1.407   3.747   6.997  0.5451  0.2342 -0.2009
13449SOL    HW241769   1.364   3.631   7.085 -0.1315  0.3873 -0.3298
13450SOL     OW41770   5.772   3.854   1.249  0.1837  0.2489 -0.2887
13450SOL    HW141771   5.722   3.934   1.234 -1.0815 -0.0825  1.6522
13450SOL    HW241772   5.831   3.875   1.322  1.6002  0.0853 -1.3450
13451SOL     OW41773   2.577   0.327   2.337 -0.8041  0.0429 -0.2187
13451SOL    HW141774   2.502   0.268   2.330 -0.0917 -0.6707 -2.6864
13451SOL    HW241775   2.539   0.414   2.341 -1.7936 -0.2909 -1.7551
13452SOL     OW41776   5.052   3.186   2.267 -0.0745  0.4377  0.2034
13452SOL    HW141777   5.097   3.187   2.182  0.6977  0.3958  0.5948
13452SOL    HW241778   4.976   3.130   2.254  1.8397 -2.4202  0.4210
13453SOL     OW41779   4.919   4.038   1.259  0.1199 -0.0595 -0.4386
13453SOL    HW141780   4.949   4.080   1.178  0.9258 -1.2558 -0.7794
13453SOL    HW241781   4.824   4.051   1.258  0.3020  1.5003 -0.6635
13454SOL     OW41782   0.340   3.058   0.491 -0.3113  0.3177  0.0382
13454SOL    HW141783   0.264   3.114   0.506 -0.7987 -0.4090  0.3260
13454SOL    HW241784   0.400   3.079   0.562  1.2947  3.3447 -1.9511
13455SOL     OW41785   8.224   2.262   7.815  0.3130 -0.0363  0.5601
13455SOL    HW141786   8.250   2.183   7.768  0.2326 -0.7620  1.7210
13455SOL    HW241787   8.288   2.328   7.788  1.1999 -0.8477  0.6238
13456SOL     OW41788   0.993   2.878   7.602 -0.0073  0.0444  0.7363
13456SOL    HW141789   1.050   2.824   7.547  1.0158 -0.5119  2.2685
13456SOL    HW241790   0.918   2.898   7.547 -0.0514 -2.2857 -0.1535
13457SOL     OW41791   1.246   3.848   1.619 -0.0186 -0.2934 -0.0064
13457SOL    HW141792   1.223   3.897   1.698  0.7528 -2.1465  1.4365
13457SOL    HW241793   1.162   3.817   1.585 -0.8587  3.8206 -2.3681
13458SOL     OW41794   4.751   7.269   4.299  0.0037 -0.0049 -0.1660
13458SOL    HW141795   4.709   7.261   4.214 -0.0648  2.0077 -0.3716
13458SOL    HW241796   4.679   7.264   4.362 -0.2012  0.4470 -0.3558
13459SOL     OW41797   3.911   3.282   0.743 -0.0097  0.0559 -0.1778
13459SOL    HW141798   3.893   3.213   0.808 -0.3869  0.9261  0.6613
13459SOL    HW241799   3.825   3.310   0.712  0.1815 -0.7736 -1.5437
13460SOL     OW41800   0.706   0.015   2.164 -0.0386  0.0917 -0.4255
13460SOL    HW141801   0.702   0.110   2.175  0.2874  0.0936 -0.3257
13460SOL    HW241802   0.789  -0.001   2.119  0.0662 -0.1733 -0.1432
13461SOL     OW41803   2.108   4.559   9.045 -0.7783 -0.1716  0.0082
13461SOL    HW141804   2.065   4.605   8.974  0.0599  0.9388  0.1808
13461SOL    HW241805   2.045   4.562   9.117 -1.0866 -0.0876 -0.2623
13462SOL     OW41806   5.984   6.303   5.999 -0.0169 -0.0316 -0.1592
13462SOL    HW141807   6.003   6.395   5.977  1.4132 -0.2235  0.1447
13462SOL    HW241808   5.992   6.257   5.915 -1.1391  0.1567 -0.3882
13463SOL     OW41809   8.074   9.171   5.475  0.5663 -0.0402 -0.3356
13463SOL    HW141810   8.128   9.148   5.400  0.4233  0.3540 -0.5679
13463SOL    HW241811   8.136   9.193   5.544  0.7886  2.5160 -1.2309
13464SOL     OW41812   2.395   6.360   8.975 -0.3669  0.1522 -0.0801
13464SOL    HW141813   2.455   6.422   8.932  1.1013 -1.2813 -0.2125
13464SOL    HW241814   2.426   6.356   9.066  2.1947 -3.2278 -0.8992
13465SOL     OW41815   5.016   6.060   8.868 -0.0959  0.0476  0.3093
13465SOL    HW141816   4.956   6.090   8.936  0.7581  0.5470  0.8609
13465SOL    HW241817   4.988   5.970   8.849 -2.7479  1.0817 -1.4191
13466SOL     OW41818   5.314   4.125   4.352  0.1002  0.3296 -0.2939
13466SOL    HW141819   5.344   4.050   4.402 -0.2389  1.6802  2.0699
13466SOL    HW241820   5.391   4.156   4.305  0.2985 -1.2787 -1.1072
13467SOL     OW41821   7.823   1.392   3.547  0.3008 -0.0514  0.1055
13467SOL    HW141822   7.880   1.329   3.502  0.4800 -0.8152  1.3641
13467SOL    HW241823   7.825   1.365   3.639 -0.1054  1.4365  0.5785
13468SOL     OW41824   6.565   7.262   8.702  0.3203  0.7791 -0.1607
13468SOL    HW141825   6.554   7.337   8.761  1.3387 -0.3420  1.5420
13468SOL    HW241826   6.476   7.236   8.679 -0.0617  2.0754 -0.2498
13469SOL     OW41827   3.909   8.906   6.577 -0.6242 -0.3426 -0.4957
13469SOL    HW141828   3.892   8.996   6.548  0.5014  0.1612  0.3361
13469SOL    HW241829   3.969   8.870   6.512 -1.3243 -0.6168 -1.0035
13470SOL     OW41830   2.889   5.741   2.979  0.1400  0.1146 -0.2071
13470SOL    HW141831   2.859   5.766   2.892 -0.8649 -1.2525 -0.2893
13470SOL    HW241832   2.841   5.800   3.038 -0.6497 -0.2309 -0.4911
13471SOL     OW41833   7.939   1.684   0.802  0.3207 -0.0493 -0.0619
13471SOL    HW141834   7.845   1.671   0.814 -0.0186  0.7950 -1.5505
13471SOL    HW241835   7.954   1.774   0.831  1.1731 -0.9144  2.4939
13472SOL     OW41836   0.170   6.397   7.937  0.2574  0.4052  0.0381
13472SOL    HW141837   0.160   6.315   7.890  1.0096  0.9385 -1.1070
13472SOL    HW241838   0.242   6.381   7.999 -0.2045 -0.0528  0.4735
13473SOL     OW41839   4.315   4.841   7.608  0.7052  0.0780 -0.1594
13473SOL    HW141840   4.404   4.811   7.594  0.1392 -1.1299 -1.3821
13473SOL    HW241841   4.279   4.783   7.675  0.4005 -0.3719 -0.7037
13474SOL     OW41842   0.117   0.748   1.294 -0.0911 -0.4884  0.4852
13474SOL    HW141843   0.140   0.694   1.219 -0.3678 -0.3393  0.2892
13474SOL    HW241844   0.201   0.771   1.334  0.0176 -1.1666  0.6467
13475SOL     OW41845   3.319   8.839   8.186  0.2696 -0.3406 -0.1894
13475SOL    HW141846   3.371   8.762   8.163  1.2545 -0.4663  2.1473
13475SOL    HW241847   3.261   8.808   8.256  0.3916  0.9315  0.4952
13476SOL     OW41848   0.007   0.318   3.207 -0.1337 -0.3795 -0.0552
13476SOL    HW141849  -0.080   0.276   3.211 -0.3642  0.1201  0.2194
13476SOL    HW241850   0.002   0.390   3.270  0.9202 -1.1356  0.9304
13477SOL     OW41851   0.775   1.515   0.108 -0.0490 -0.4981 -0.0996
13477SOL    HW141852   0.708   1.472   0.161 -1.1537  2.2636  0.9492
13477SOL    HW241853   0.743   1.510   0.018 -0.2893 -1.5400  0.0340
13478SOL     OW41854   1.859   0.327   2.430  0.5501 -0.3882  0.6762
13478SOL    HW141855   1.776   0.280   2.425  1.5319 -2.3517  1.8576
13478SOL    HW241856   1.902   0.308   2.347  0.9759 -1.6904  1.1794
13479SOL     OW41857   6.638   4.661   4.529  0.0498  0.7056 -0.1746
13479SOL    HW141858   6.569   4.674   4.594  0.0653 -0.3130  0.0622
13479SOL    HW241859   6.653   4.748   4.493  1.1376  1.6314  2.2858
13480SOL     OW41860   4.524   5.089   2.561 -0.0870 -0.1130  0.1399
13480SOL    HW141861   4.573   5.158   2.517  0.3630 -1.1303 -1.0220
13480SOL    HW241862   4.436   5.125   2.572 -0.1151  0.3116 -1.2846
13481SOL     OW41863   0.824   3.969   5.730  0.2702 -0.0249  0.0330
13481SOL    HW141864   0.834   3.912   5.807 -0.5507  0.4476  0.5041
13481SOL    HW241865   0.894   4.034   5.739  0.1244  0.0795  0.4290
13482SOL     OW41866   5.689   5.524   2.098 -0.1515 -0.8284  0.5265
13482SOL    HW141867   5.622   5.474   2.145 -1.4868  0.9505  0.6396
13482SOL    HW241868   5.650   5.611   2.087  2.0045  0.1720  0.2565
13483SOL     OW41869   8.258   7.078   6.843  0.0533  0.3558 -0.3367
13483SOL    HW141870   8.309   7.012   6.890 -0.4126  1.0145  1.1941
13483SOL    HW241871   8.314   7.156   6.843 -0.2034  0.5425 -0.2960
13484SOL     OW41872   8.180   2.442   4.706  0.0821 -0.7731 -0.4223
13484SOL    HW141873   8.131   2.404   4.633 -1.0092 -1.4587  0.6241
13484SOL    HW241874   8.131   2.416   4.784  0.7103  0.6884  0.5124
13485SOL     OW41875   6.620   3.594   7.867 -0.4526  0.2568  0.0632
13485SOL    HW141876   6.709   3.604   7.832 -0.7151  0.4890 -0.5327
13485SOL    HW241877   6.634   3.560   7.956  0.1971 -0.8090 -0.4198
13486SOL     OW41878   9.225   7.360   6.728  0.0118  0.0000  0.1068
13486SOL    HW141879   9.168   7.437   6.734 -0.8875 -0.6500  0.1975
13486SOL    HW241880   9.306   7.393   6.689 -0.5072  0.9105 -0.2393
13487SOL     OW41881   4.081   8.869   6.366  0.1706 -0.7606  0.1022
13487SOL    HW141882   4.016   8.917   6.315  0.9642 -0.9976 -1.1777
13487SOL    HW241883   4.108   8.797   6.309  1.5642 -0.6547  0.5861
13488SOL     OW41884   2.450   0.200   2.746  0.0511 -0.2181  0.2669
13488SOL    HW141885   2.520   0.170   2.689 -1.0172 -1.3418 -0.4996
13488SOL    HW241886   2.473   0.290   2.767  1.0497 -0.1444 -1.0325
13489SOL     OW41887   2.785   6.627   4.176 -0.2918  0.3974  0.2596
13489SOL    HW141888   2.818   6.561   4.116 -1.9100  0.3308 -0.6091
13489SOL    HW241889   2.812   6.710   4.137 -1.9646  0.3882 -1.0205
13490SOL     OW41890   7.831   8.305   1.524 -0.5352  0.0920  0.8143
13490SOL    HW141891   7.850   8.372   1.589  4.1352 -1.4558  1.4200
13490SOL    HW241892   7.833   8.223   1.572 -2.6242 -0.7951 -0.4742
13491SOL     OW41893   7.652   0.385   5.723 -0.0509 -0.3243 -0.4494
13491SOL    HW141894   7.621   0.352   5.639 -0.4791 -1.5960  0.1839
13491SOL    HW241895   7.649   0.480   5.714 -2.2792 -0.4105 -1.0917
13492SOL     OW41896   2.832   0.220   8.543  0.1773 -0.2351  0.4090
13492SOL    HW141897   2.867   0.307   8.561 -0.6299  0.0478  0.6635
13492SOL    HW241898   2.833   0.213   8.448 -0.9030  0.5671  0.3099
13493SOL     OW41899   6.449   2.067   1.677 -0.6056  0.0364 -0.9048
13493SOL    HW141900   6.404   2.062   1.761  0.2800 -0.7545 -0.4563
13493SOL    HW241901   6.381   2.051   1.612 -1.2693  0.4990 -0.3453
13494SOL     OW41902   7.189   8.607   5.136 -0.5878 -0.1052  0.6183
13494SOL    HW141903   7.210   8.586   5.046 -1.5021 -2.8292  0.9669
13494SOL    HW241904   7.096   8.629   5.135 -0.2958  1.2360  0.7285
13495SOL     OW41905   7.318   8.241   3.000 -0.0141  0.1426 -0.0525
13495SOL    HW141906   7.229   8.274   2.988 -0.3768 -1.0875 -0.8528
13495SOL    HW241907   7.374   8.314   2.973 -0.7987 -0.1256 -2.6910
13496SOL     OW41908   1.718   0.241   1.483  0.6232  0.1548 -0.4866
13496SOL    HW141909   1.665   0.162   1.492  1.2518 -0.0523  2.0860
13496SOL    HW241910   1.808   0.210   1.478  0.8055  0.6828 -0.5745
13497SOL     OW41911   8.146   6.504   8.152 -0.6685 -0.2551  0.4823
13497SOL    HW141912   8.217   6.446   8.126 -0.0883  0.4820  0.3795
13497SOL    HW241913   8.171   6.536   8.238  0.5858  2.2093 -0.6945
13498SOL     OW41914   6.355   5.170   1.140  0.1726  0.0009  0.0511
13498SOL    HW141915   6.346   5.118   1.219  1.0594  0.0946  0.2217
13498SOL    HW241916   6.446   5.200   1.141 -0.2532  1.3693 -0.1534
13499SOL     OW41917   5.526   1.504   0.643  0.3572 -0.5133 -1.0018
13499SOL    HW141918   5.539   1.463   0.728  2.3290 -1.5308 -1.7172
13499SOL    HW241919   5.438   1.542   0.647  0.5870 -0.0865  1.6423
13500SOL     OW41920   2.675   3.934   8.758 -0.4699  0.0302  0.1140
13500SOL    HW141921   2.613   3.862   8.768 -1.4515  0.6312 -1.3159
13500SOL    HW241922   2.731   3.909   8.685  0.4306 -0.1129  0.8369
13501SOL     OW41923   0.898   6.599   5.878 -0.4748  0.3039 -0.3715
13501SOL    HW141924   0.950   6.522   5.902 -0.2687  0.6444  0.3070
13501SOL    HW241925   0.856   6.626   5.960 -1.0111  0.5685 -0.7250
13502SOL     OW41926   2.913   7.779   5.670 -0.1730 -0.0086  0.4806
13502SOL    HW141927   3.005   7.763   5.650 -0.2505 -0.1400  0.2269
13502SOL    HW241928   2.895   7.865   5.632 -0.1386  0.0477  0.5904
13503SOL     OW41929   4.243   8.358   2.790  0.3382 -0.3900 -0.2701
13503SOL    HW141930   4.282   8.444   2.774  0.4668 -0.1946  1.0227
13503SOL    HW241931   4.318   8.300   2.805  0.2334 -0.6336 -0.6752
13504SOL     OW41932   9.085   2.735   9.095  0.0755 -0.6040  0.1149
13504SOL    HW141933   9.116   2.818   9.057  1.4501 -0.6197  1.1104
13504SOL    HW241934   8.996   2.726   9.063 -0.3877  1.6496  0.5672
13505SOL     OW41935   9.049   7.742   5.269  0.0201 -0.2328  0.0703
13505SOL    HW141936   9.082   7.655   5.291  1.0199 -0.3923 -1.8834
13505SOL    HW241937   9.107   7.802   5.316  0.5846 -0.5941 -0.1506
13506SOL     OW41938   6.130   2.444   7.271 -0.0281  0.3681  0.4228
13506SOL    HW141939   6.133   2.435   7.367  1.0106 -0.0666  0.3602
13506SOL    HW241940   6.214   2.409   7.241 -1.8809 -3.3974 -0.9951
13507SOL     OW41941   0.183   1.698   6.395  0.4468  0.0234 -0.0933
13507SOL    HW141942   0.244   1.626   6.410  2.3381  1.2517 -1.4245
13507SOL    HW241943   0.192   1.755   6.471 -0.1428 -0.5122  0.3861
13508SOL     OW41944   6.404   5.987   5.376  0.9881  0.8339  0.3663
13508SOL    HW141945   6.414   5.897   5.407 -2.2514  0.6238  1.1725
13508SOL    HW241946   6.449   6.040   5.441  0.9207 -0.0768  1.1743
13509SOL     OW41947   7.892   3.593   3.061  0.3196 -0.1559  0.4241
13509SOL    HW141948   7.829   3.613   3.130 -0.6329 -2.0287  0.1598
13509SOL    HW241949   7.848   3.618   2.980  0.3346 -0.4994  0.3092
13510SOL     OW41950   5.478   0.270   3.590 -0.0616  0.6522 -0.2992
13510SOL    HW141951   5.413   0.311   3.647 -0.0551  0.4270 -0.1289
13510SOL    HW241952   5.461   0.176   3.597  0.3557  0.5854 -0.1610
13511SOL     OW41953   7.834   1.139   7.973  0.1837  0.1930  0.0488
13511SOL    HW141954   7.899   1.188   8.024 -0.5303 -1.8831  3.2805
13511SOL    HW241955   7.750   1.179   7.996 -0.0890 -0.1750 -0.2948
13512SOL     OW41956   7.849   2.187   1.698 -0.0085 -0.3776 -0.0203
13512SOL    HW141957   7.829   2.249   1.628  0.3239 -0.5135 -0.2375
13512SOL    HW241958   7.907   2.234   1.757  1.4596 -0.9547 -0.9650
13513SOL     OW41959   3.436   3.917   5.258  0.2621  0.0501  0.2507
13513SOL    HW141960   3.501   3.850   5.279  0.5712  0.6343  1.2594
13513SOL    HW241961   3.372   3.911   5.329 -0.2926  0.0972 -0.2394
13514SOL     OW41962   7.270   0.809   0.452 -0.6377  0.2625 -0.0353
13514SOL    HW141963   7.338   0.813   0.519 -0.9355  0.6414  0.2483
13514SOL    HW241964   7.243   0.717   0.450 -0.0786  0.0997 -0.1895
13515SOL     OW41965   0.619   4.006   7.216 -0.5140  0.0122  0.2699
13515SOL    HW141966   0.621   4.019   7.121  1.0308 -1.7892 -0.0027
13515SOL    HW241967   0.530   3.978   7.235 -1.0569  1.1149 -0.5040
13516SOL     OW41968   1.672   5.553   0.603  0.1457 -0.0682 -0.0225
13516SOL    HW141969   1.590   5.596   0.578 -0.2184 -1.5796 -1.6083
13516SOL    HW241970   1.738   5.621   0.594 -0.7758  0.9163  0.3341
13517SOL     OW41971   1.326   4.605   4.795  0.2486 -0.7250  0.3614
13517SOL    HW141972   1.232   4.623   4.793  0.3418 -0.2246  0.4391
13517SOL    HW241973   1.351   4.614   4.887  0.5683  0.2045  0.1975
13518SOL     OW41974   8.846   0.682   7.845  0.0360  0.3433  0.7182
13518SOL    HW141975   8.812   0.769   7.826  0.1798 -0.2063 -2.8678
13518SOL    HW241976   8.937   0.685   7.815 -0.3869 -1.3577 -0.9755
13519SOL     OW41977   0.900   4.879   4.586 -0.4294 -0.2977 -0.0370
13519SOL    HW141978   0.976   4.930   4.557 -0.9476  0.2445 -0.4550
13519SOL    HW241979   0.854   4.936   4.646 -0.2039 -0.8438  0.6692
13520SOL     OW41980   3.296   8.361   7.986  0.0041 -0.7802 -0.3629
13520SOL    HW141981   3.280   8.277   7.943 -1.4529  0.4906 -2.5257
13520SOL    HW241982   3.215   8.380   8.033  0.3696 -0.6004  0.2103
13521SOL     OW41983   6.815   2.931   3.448  0.0288  0.1203 -0.0359
13521SOL    HW141984   6.797   2.870   3.376  0.5573  0.9457 -0.8981
13521SOL    HW241985   6.819   3.017   3.406 -3.1718  1.1409  1.4787
13522SOL     OW41986   5.599   8.679   2.537 -0.4506  0.4405 -0.5659
13522SOL    HW141987   5.517   8.691   2.488  0.1405  0.1146 -1.6718
13522SOL    HW241988   5.616   8.585   2.532 -0.7975  0.2710  0.9945
13523SOL     OW41989   4.402   6.859   5.734  0.3612 -0.3977 -0.5720
13523SOL    HW141990   4.388   6.876   5.827 -0.5716  0.9727 -0.9279
13523SOL    HW241991   4.487   6.816   5.730  0.5244 -0.2677  0.8868
13524SOL     OW41992   0.873   6.377   4.252  0.5760  0.1103 -0.3334
13524SOL    HW141993   0.960   6.369   4.212  1.2747  1.4437  0.8263
13524SOL    HW241994   0.850   6.469   4.241 -1.1521 -0.4151 -1.4590
13525SOL     OW41995   6.879   7.694   0.977 -0.7470 -0.3695  0.0208
13525SOL    HW141996   6.800   7.745   0.998 -0.5529 -0.2456  0.4775
13525SOL    HW241997   6.855   7.604   0.998 -0.2081 -0.1248  1.9135
13526SOL     OW41998   0.120   8.009   7.458 -0.6878 -0.1923 -0.3769
13526SOL    HW141999   0.118   7.934   7.517  0.3513  0.9224  1.1690
13526SOL    HW242000   0.040   8.001   7.406 -0.1398 -2.8534 -0.9648
13527SOL     OW42001   1.693   1.145   7.175  0.2643 -0.5161  1.0267
13527SOL    HW142002   1.639   1.073   7.143 -0.4429  0.9388 -1.2775
13527SOL    HW242003   1.781   1.125   7.144 -0.2415  0.3959 -1.1754
13528SOL     OW42004   8.125   7.623   5.196  0.0005  0.2166  0.5781
13528SOL    HW142005   8.181   7.566   5.144  1.1671  1.4767  0.3833
13528SOL    HW242006   8.128   7.707   5.150 -3.1034  0.0498 -0.1654
13529SOL     OW42007   4.191   2.401   1.341  0.0530  0.0320 -0.0182
13529SOL    HW142008   4.115   2.348   1.366  0.6269 -0.5805  0.4817
13529SOL    HW242009   4.206   2.457   1.417  1.4154 -1.3893  0.8324
13530SOL     OW42010   3.156   6.699   7.791  0.0841 -0.1167 -0.1675
13530SOL    HW142011   3.234   6.688   7.847 -1.5388 -2.6144  1.8705
13530SOL    HW242012   3.119   6.782   7.818  1.5649  0.7277 -0.6000
13531SOL     OW42013   1.219   7.074   4.918 -0.0240 -0.7387  0.6765
13531SOL    HW142014   1.154   7.003   4.915 -1.6475  0.6740  0.9001
13531SOL    HW242015   1.219   7.110   4.829 -0.0808 -0.2744  0.8625
13532SOL     OW42016   3.011   5.603   3.884  0.3278 -0.5526 -0.0216
13532SOL    HW142017   3.008   5.632   3.793  1.3000 -0.3769 -0.0070
13532SOL    HW242018   3.104   5.606   3.907 -0.0209  0.7316  1.3885
13533SOL     OW42019   8.546   7.221   0.045 -0.0514  0.1029 -0.1772
13533SOL    HW142020   8.586   7.169  -0.025  0.4661 -2.2481  1.7058
13533SOL    HW242021   8.468   7.171   0.071 -1.3668  1.9555 -0.3420
13534SOL     OW42022   0.710   6.972   1.385 -0.5132  0.6037  0.1465
13534SOL    HW142023   0.713   7.056   1.339  1.1914 -0.7353 -2.4401
13534SOL    HW242024   0.616   6.950   1.388 -0.8182  1.5130 -1.3529
13535SOL     OW42025   2.477   5.031   7.939  0.1161 -0.0225  0.3794
13535SOL    HW142026   2.473   5.121   7.970 -0.3584  0.0209  0.2002
13535SOL    HW242027   2.534   4.986   8.002  0.8321  0.5299  0.1338
13536SOL     OW42028   8.929   4.169   1.818 -0.1131 -0.5068  0.1345
13536SOL    HW142029   8.958   4.106   1.753 -0.5734 -1.4783  0.8417
13536SOL    HW242030   8.991   4.241   1.812  0.6413 -1.1972 -0.4382
13537SOL     OW42031   7.085   7.184   4.954 -0.0400  0.0971 -0.7164
13537SOL    HW142032   7.056   7.238   4.881  0.4722 -1.4400 -2.1347
13537SOL    HW242033   7.006   7.168   5.006 -0.7318  0.0020 -1.7761
13538SOL     OW42034   4.540   6.925   4.146  0.5495  0.3237 -0.1799
13538SOL    HW142035   4.502   6.966   4.068  0.2511  0.0794 -0.1625
13538SOL    HW242036   4.466   6.904   4.201  0.7402  0.2222  0.0396
13539SOL     OW42037   2.972   6.281   7.533 -0.4051 -0.1257  0.6046
13539SOL    HW142038   2.903   6.308   7.594  0.2730  0.4914  1.1102
13539SOL    HW242039   3.040   6.347   7.543 -0.0782 -0.2711 -0.4888
13540SOL     OW42040   6.670   0.449   6.937 -0.3916 -0.1597  0.4010
13540SOL    HW142041   6.630   0.532   6.962 -1.3570 -0.4482 -0.1293
13540SOL    HW242042   6.686   0.457   6.843  1.0064  0.0199  0.6353
13541SOL     OW42043   5.258   5.352   1.305 -0.4612 -0.0167 -0.4646
13541SOL    HW142044   5.271   5.260   1.284 -0.2134 -0.0546 -0.1572
13541SOL    HW242045   5.240   5.394   1.221 -0.5325 -0.3370 -0.6111
13542SOL     OW42046   1.433   2.566   7.013  0.0537  0.3833 -0.8547
13542SOL    HW142047   1.444   2.471   7.009  0.0387  0.3895 -1.0582
13542SOL    HW242048   1.365   2.586   6.948  0.5326  0.6046 -1.3007
13543SOL     OW42049   0.816   8.799   3.133 -0.7941 -0.3065  0.0665
13543SOL    HW142050   0.908   8.785   3.108 -0.6238  0.0018  0.5147
13543SOL    HW242051   0.769   8.804   3.050 -0.2067  0.8728 -0.2183
13544SOL     OW42052   4.740   1.003   0.476 -0.2249 -0.1170  0.0276
13544SOL    HW142053   4.726   1.032   0.386  0.7208  3.5590  0.8986
13544SOL    HW242054   4.833   0.979   0.479 -0.0892  0.4074  0.1465
13545SOL     OW42055   5.340   8.817   2.944 -0.6886  0.2330 -0.4690
13545SOL    HW142056   5.296   8.748   2.993 -0.2925 -0.3850 -0.9669
13545SOL    HW242057   5.408   8.849   3.003 -0.0967 -0.6296 -0.6730
13546SOL     OW42058   4.847   7.337   6.103 -0.0206 -0.5008 -0.2140
13546SOL    HW142059   4.936   7.303   6.111 -0.2439 -1.1599 -0.4664
13546SOL    HW242060   4.851   7.401   6.032  0.0424 -1.2688 -0.9180
13547SOL     OW42061   2.337   2.849   5.921 -0.0394 -0.0638  0.0075
13547SOL    HW142062   2.323   2.930   5.970 -0.4666  0.5456 -1.0936
13547SOL    HW242063   2.287   2.783   5.968 -0.7982  0.6015  0.1454
13548SOL     OW42064   5.111   1.052   2.006 -0.2703  0.2855  0.2067
13548SOL    HW142065   5.140   1.041   1.915  1.5622 -1.0591  0.8783
13548SOL    HW242066   5.042   0.987   2.017  0.8830 -0.9630  0.2935
13549SOL     OW42067   8.929   0.872   6.695 -0.4641  0.1639  0.4543
13549SOL    HW142068   8.933   0.819   6.775  1.3896  0.4079  0.5655
13549SOL    HW242069   8.990   0.829   6.635 -1.9600 -0.1163 -0.9295
13550SOL     OW42070   4.235   2.448   0.798 -0.2476 -0.3584 -0.7700
13550SOL    HW142071   4.214   2.402   0.879 -0.8989 -0.1164 -0.7934
13550SOL    HW242072   4.318   2.492   0.816 -0.5236 -0.0795 -0.1318
13551SOL     OW42073   5.648   9.076   7.197  0.2271  0.0161 -0.1725
13551SOL    HW142074   5.737   9.075   7.230 -0.0148 -2.0756  0.5197
13551SOL    HW242075   5.657   9.080   7.102  1.0235  0.6505 -0.0777
13552SOL     OW42076   1.238   6.586   1.750  0.2165 -0.4933 -0.4746
13552SOL    HW142077   1.219   6.504   1.705  2.5478 -1.0286 -0.6111
13552SOL    HW242078   1.287   6.638   1.687 -1.4229  1.1618 -0.4718
13553SOL     OW42079   0.358   5.106   4.390 -0.7984  0.5969  0.0857
13553SOL    HW142080   0.366   5.011   4.382  0.5074  0.5675  1.4098
13553SOL    HW242081   0.297   5.119   4.463  2.3394  0.6554  2.9243
13554SOL     OW42082   7.570   2.707   8.424 -0.1457  0.0532  0.2335
13554SOL    HW142083   7.547   2.797   8.448  1.8243 -0.1136  3.4180
13554SOL    HW242084   7.542   2.654   8.499  1.9580 -1.4050  0.0880
13555SOL     OW42085   7.806   0.724   8.407 -0.1085  0.5231 -0.0752
13555SOL    HW142086   7.844   0.732   8.494 -0.1145 -0.3795  0.0174
13555SOL    HW242087   7.831   0.805   8.362 -2.4111  2.3482  1.6384
13556SOL     OW42088   6.880   5.232   0.240 -0.3739 -0.0980 -0.4278
13556SOL    HW142089   6.840   5.267   0.160  2.4790  1.3179 -1.3727
13556SOL    HW242090   6.959   5.187   0.209  0.5597  0.0723  1.5580
13557SOL     OW42091   0.674   6.741   2.593 -0.2177 -0.6438 -0.3385
13557SOL    HW142092   0.685   6.743   2.688 -1.0501 -0.5627 -0.2339
13557SOL    HW242093   0.608   6.673   2.578 -1.0713  0.2396 -0.7409
13558SOL     OW42094   3.683   5.151   5.853  0.2000 -0.0501 -0.1320
13558SOL    HW142095   3.685   5.246   5.849  0.6957 -0.1092 -2.1505
13558SOL    HW242096   3.632   5.124   5.776  0.2498 -1.4158  0.2816
13559SOL     OW42097   0.767   7.243   2.134 -0.4546  0.5358  0.2729
13559SOL    HW142098   0.756   7.184   2.210 -1.4030 -0.2692 -0.4653
13559SOL    HW242099   0.861   7.261   2.132 -0.3893  0.4768  1.5662
13560SOL     OW42100   4.636   4.503   8.581  0.0317  0.5336 -0.3464
13560SOL    HW142101   4.616   4.557   8.504 -0.6019  0.5193 -0.1958
13560SOL    HW242102   4.691   4.433   8.546 -1.6647 -0.4608 -1.1491
13561SOL     OW42103   3.139   3.934   1.160  0.3902  0.2879  0.4722
13561SOL    HW142104   3.216   3.986   1.183  0.2542  0.2499  1.0350
13561SOL    HW242105   3.070   3.968   1.216 -0.1105  0.5845 -0.3055
13562SOL     OW42106   8.420   7.589   4.615  0.5101  0.1204 -0.3131
13562SOL    HW142107   8.336   7.634   4.623 -0.1029 -1.1529  0.8529
13562SOL    HW242108   8.469   7.616   4.693  0.2478 -0.9269  0.2443
13563SOL     OW42109   5.418   7.336   8.733 -0.4703 -0.1830  0.0778
13563SOL    HW142110   5.437   7.413   8.787 -1.3706  0.5384 -0.6096
13563SOL    HW242111   5.396   7.268   8.797 -1.5450  0.6644  0.6469
13564SOL     OW42112   0.465   3.538   3.403 -0.2121 -0.5085 -0.1224
13564SOL    HW142113   0.513   3.524   3.484 -0.3184 -4.2072 -0.5268
13564SOL    HW242114   0.532   3.534   3.334 -0.3924  0.4049 -0.3631
13565SOL     OW42115   4.032   2.510   0.512  0.0629  0.5011  0.0098
13565SOL    HW142116   4.043   2.592   0.464 -1.5954  0.6916 -0.1292
13565SOL    HW242117   3.943   2.516   0.549 -0.5247 -1.6583 -0.8749
13566SOL     OW42118   2.822   5.608   0.281  0.3541 -0.0542  0.7846
13566SOL    HW142119   2.830   5.513   0.293 -1.2556 -0.1149  1.6587
13566SOL    HW242120   2.733   5.628   0.308  0.1513  1.5130 -0.8663
13567SOL     OW42121   0.261   1.931   2.029  0.1604  0.3469  0.0081
13567SOL    HW142122   0.281   1.891   2.113  0.4840 -0.7404 -0.5664
13567SOL    HW242123   0.259   2.025   2.047 -0.5010  0.0929  1.3633
13568SOL     OW42124   1.956   4.503   4.240  0.1885 -0.0892  0.0752
13568SOL    HW142125   1.923   4.577   4.291 -1.1709  0.4245 -1.4819
13568SOL    HW242126   1.958   4.534   4.150  3.1621 -0.7696 -0.1868
13569SOL     OW42127   8.831   8.002   7.363  0.4253 -0.4563 -0.2396
13569SOL    HW142128   8.766   8.028   7.428 -0.3274 -2.0230 -0.3292
13569SOL    HW242129   8.813   8.057   7.287 -0.9216 -0.9936 -0.3209
13570SOL     OW42130   4.251   6.526   1.488 -0.3843  0.3370 -0.5058
13570SOL    HW142131   4.346   6.530   1.482 -0.4074  0.2933 -0.9178
13570SOL    HW242132   4.232   6.434   1.506 -0.3782  0.2293 -1.0355
13571SOL     OW42133   3.779   4.599   8.400 -0.4498 -0.4598 -0.1108
13571SOL    HW142134   3.865   4.564   8.423  0.1408  1.7790  1.3022
13571SOL    HW242135   3.770   4.580   8.306  1.3695 -1.1178 -0.1826
13572SOL     OW42136   1.404   3.955   6.965 -0.2929 -0.3870 -0.1802
13572SOL    HW142137   1.376   4.039   7.001 -1.2444 -0.9673  0.4801
13572SOL    HW242138   1.492   3.972   6.930 -0.2144  0.7210  0.5053
13573SOL     OW42139   6.204   4.735   2.939 -0.0194  0.0044  0.2889
13573SOL    HW142140   6.151   4.780   2.873  0.4486  0.7483  0.4110
13573SOL    HW242141   6.295   4.750   2.912  0.2252  1.2290  1.6535
13574SOL     OW42142   0.798   2.069   0.399 -0.3156 -0.5721  0.5273
13574SOL    HW142143   0.790   2.099   0.489  0.9487 -1.1018  0.8430
13574SOL    HW242144   0.821   2.148   0.350  0.3234 -0.5129  0.9050
13575SOL     OW42145   2.757   9.120   1.632  0.1427 -0.3726 -0.2707
13575SOL    HW142146   2.782   9.101   1.541  1.5528 -0.0613  0.0277
13575SOL    HW242147   2.820   9.186   1.661 -1.4176  0.8903  0.3734
13576SOL     OW42148   2.230   4.036   8.728  0.9300  0.2010 -0.4886
13576SOL    HW142149   2.136   4.019   8.728  1.1655 -1.4491  1.5219
13576SOL    HW242150   2.242   4.103   8.796  1.3430 -0.6642  0.3053
13577SOL     OW42151   5.323   4.448   4.148  0.2076 -0.8009 -0.0555
13577SOL    HW142152   5.233   4.414   4.152  0.1308 -0.5932  0.0086
13577SOL    HW242153   5.348   4.461   4.239  0.5667 -1.5390 -0.0448
13578SOL     OW42154   6.337   0.344   1.923  0.1729 -0.4108 -0.3174
13578SOL    HW142155   6.320   0.433   1.892  2.4969 -0.0835 -0.8762
13578SOL    HW242156   6.360   0.356   2.015 -0.5873 -0.5925 -0.0978
13579SOL     OW42157   4.703   0.730   1.741 -0.0004 -0.6383 -0.1546
13579SOL    HW142158   4.715   0.673   1.665  1.6832 -0.4965 -0.0504
13579SOL    HW242159   4.629   0.693   1.788  0.4776 -2.2075 -0.5797
13580SOL     OW42160   7.162   1.342   0.987 -0.0407 -0.0761 -0.1330
13580SOL    HW142161   7.164   1.390   0.904 -0.7724  0.9815  0.4205
13580SOL    HW242162   7.083   1.288   0.982 -0.3027  0.2870  0.0201
13581SOL     OW42163   6.106   3.472   0.239  0.7269  0.7799  0.4423
13581SOL    HW142164   6.180   3.497   0.184  0.8595 -0.6516 -0.0613
13581SOL    HW242165   6.118   3.523   0.319  1.9108  1.0414  0.1190
13582SOL     OW42166   0.224   3.683   6.166  0.2689  0.1341  0.1634
13582SOL    HW142167   0.234   3.598   6.208 -1.6737 -0.2341 -0.0043
13582SOL    HW242168   0.258   3.672   6.078 -2.0130 -1.2126 -0.6346
13583SOL     OW42169   7.378   6.954   1.857  0.0995 -0.2541  0.0080
13583SOL    HW142170   7.342   6.913   1.778 -1.9160  1.5354 -0.0707
13583SOL    HW242171   7.305   6.958   1.918  1.3206 -0.4796  1.5656
13584SOL     OW42172   7.934   4.853   3.411  0.4744 -0.0575  0.2968
13584SOL    HW142173   7.975   4.767   3.401 -1.6845 -1.0853 -0.2538
13584SOL    HW242174   7.936   4.892   3.323  1.6333  0.5889  0.5842
13585SOL     OW42175   2.355   9.105   3.651  0.6573 -0.0144 -0.7740
13585SOL    HW142176   2.309   9.038   3.702  0.8987  0.3241 -0.0891
13585SOL    HW242177   2.288   9.142   3.594 -0.4677  1.8172  1.5673
13586SOL     OW42178   2.396   3.090   7.046  0.9332 -0.0890  0.2376
13586SOL    HW142179   2.366   2.999   7.042 -0.6539  0.3232  1.6736
13586SOL    HW242180   2.404   3.109   7.139 -1.2732  1.9761  0.1137
13587SOL     OW42181   5.757   0.349   0.571 -0.2281 -0.5279 -0.2482
13587SOL    HW142182   5.844   0.385   0.554  0.5707 -1.9265  0.6492
13587SOL    HW242183   5.732   0.386   0.655 -0.4616 -0.1961 -0.4637
13588SOL     OW42184   2.016   4.309   8.119  0.1125 -0.2693 -0.4803
13588SOL    HW142185   1.948   4.373   8.140  0.3142 -0.0751 -0.4070
13588SOL    HW242186   1.990   4.229   8.165 -0.1523 -0.2466 -0.5874
13589SOL     OW42187   3.058   7.104   2.511 -0.9309 -0.0963  0.1135
13589SOL    HW142188   3.061   7.008   2.513 -1.2460 -0.1255 -0.5632
13589SOL    HW242189   2.997   7.124   2.441  0.1648  0.6142 -0.6579
13590SOL     OW42190   2.183   1.621   2.008 -0.7295  0.1355  0.7838
13590SOL    HW142191   2.275   1.630   2.036  0.9106 -2.5461 -2.9108
13590SOL    HW242192   2.167   1.527   2.010 -1.8581  0.1220 -2.6364
13591SOL     OW42193   7.450   2.430   4.897  0.5647  0.5422  0.0415
13591SOL    HW142194   7.487   2.448   4.811  2.4095 -2.2071  0.1749
13591SOL    HW242195   7.451   2.515   4.941  1.1082  1.6904 -2.0480
13592SOL     OW42196   4.452   1.197   1.007  0.3664 -0.5604 -0.2514
13592SOL    HW142197   4.452   1.272   1.067 -0.6873 -1.0763  0.4202
13592SOL    HW242198   4.469   1.236   0.921 -0.8230  0.5592 -0.0238
13593SOL     OW42199   7.098   7.981   0.070  0.1905 -0.1835 -0.9228
13593SOL    HW142200   7.158   7.994   0.143 -0.8469  0.5798 -0.1854
13593SOL    HW242201   7.152   7.940   0.002  1.0866 -1.2560  0.3897
13594SOL     OW42202   1.040   8.001   5.086  0.6757 -0.1688 -0.8807
13594SOL    HW142203   1.063   8.010   4.994 -1.5867  1.0339 -1.3994
13594SOL    HW242204   0.987   8.079   5.106  0.2824 -0.8793  1.1555
13595SOL     OW42205   4.359   0.453   6.603 -0.6346  0.4948  0.3809
13595SOL    HW142206   4.424   0.387   6.582  1.8014  3.4431 -2.5643
13595SOL    HW242207   4.376   0.475   6.695  0.9731 -0.4090  0.3374
13596SOL     OW42208   9.130   1.737   7.106 -0.3293 -0.2470 -0.2314
13596SOL    HW142209   9.047   1.690   7.113  1.1902 -3.1094 -0.2446
13596SOL    HW242210   9.177   1.693   7.036  1.1718  1.3970 -0.3128
13597SOL     OW42211   5.488   8.376   5.885  0.0490 -0.3580  0.1598
13597SOL    HW142212   5.506   8.284   5.867 -0.0599 -0.4562  0.5435
13597SOL    HW242213   5.574   8.419   5.876  0.1710 -0.5577  0.3448
13598SOL     OW42214   6.415   2.517   7.789  0.3259 -0.1569  0.6787
13598SOL    HW142215   6.413   2.601   7.745 -1.4129  0.8040  2.4585
13598SOL    HW242216   6.387   2.454   7.723  1.1170  0.7133 -0.5205
13599SOL     OW42217   0.288   1.363   3.133 -0.1192  0.2878 -0.1571
13599SOL    HW142218   0.209   1.353   3.187  0.3104  1.3049  0.7057
13599SOL    HW242219   0.314   1.274   3.111 -0.4837 -0.1529  1.0962
13600SOL     OW42220   2.446   1.731   4.201 -0.2895  0.1017  0.0282
13600SOL    HW142221   2.375   1.716   4.139 -0.6869 -0.4827  0.6067
13600SOL    HW242222   2.415   1.802   4.257 -1.1917 -1.3175  1.3900
13601SOL     OW42223   1.185   4.544   5.314  0.4633 -0.1126  0.3744
13601SOL    HW142224   1.256   4.481   5.308 -1.0464 -1.9943  0.8984
13601SOL    HW242225   1.149   4.530   5.402  0.7109  2.2551  0.9102
13602SOL     OW42226   0.733   8.433   1.884 -0.4703 -0.2734 -0.0233
13602SOL    HW142227   0.733   8.458   1.976 -0.8730  0.5825 -0.2478
13602SOL    HW242228   0.646   8.459   1.852 -0.4301 -0.8009 -0.5774
13603SOL     OW42229   3.423   5.161   2.248 -0.2198  0.0720 -0.1799
13603SOL    HW142230   3.416   5.250   2.213  0.2533  0.3268  0.3514
13603SOL    HW242231   3.484   5.169   2.321  1.6343 -1.0857 -1.5085
13604SOL     OW42232   5.187   7.662   4.475  0.0581 -0.1634 -0.3348
13604SOL    HW142233   5.184   7.758   4.480 -0.3533 -0.0038 -2.6859
13604SOL    HW242234   5.133   7.640   4.399 -0.8411 -2.3688  0.8566
13605SOL     OW42235   1.600   3.481   6.471  0.4753  0.0420 -0.8212
13605SOL    HW142236   1.557   3.513   6.551  1.2103  3.1492 -1.5358
13605SOL    HW242237   1.529   3.468   6.409 -0.1325 -2.6011  0.2564
13606SOL     OW42238   1.189   7.730   2.485  0.4350  0.1425 -0.1042
13606SOL    HW142239   1.179   7.813   2.532  1.8796  0.5744 -0.5089
13606SOL    HW242240   1.125   7.671   2.525 -2.2000  2.0277 -1.2318
13607SOL     OW42241   2.497   0.293   8.222  0.2439  0.0194  0.4789
13607SOL    HW142242   2.450   0.225   8.269 -1.6707  1.8754  1.4076
13607SOL    HW242243   2.553   0.334   8.289  0.8126 -0.1364  0.1062
13608SOL     OW42244   4.698   8.574   3.460  0.4481  0.3989 -0.8138
13608SOL    HW142245   4.751   8.571   3.539 -1.4074  0.2171  0.4833
13608SOL    HW242246   4.690   8.667   3.440  1.2430  0.4265 -1.0393
13609SOL     OW42247   6.710   1.842   4.920 -0.4125 -0.8832  0.3286
13609SOL    HW142248   6.644   1.909   4.902  0.0648 -0.9240 -1.8177
13609SOL    HW242249   6.677   1.796   4.998 -3.1690 -1.2068 -0.9156
13610SOL     OW42250   4.065   1.831   8.365 -0.2094 -0.6525  0.6432
13610SOL    HW142251   4.118   1.778   8.425  2.5708  0.8644 -0.3153
13610SOL    HW242252   4.037   1.770   8.297  1.8194 -1.2218  0.2564
13611SOL     OW42253   5.724   3.384   2.874  0.0757  0.5610  0.4111
13611SOL    HW142254   5.743   3.453   2.811 -0.3614  1.3716  1.1460
13611SOL    HW242255   5.640   3.409   2.913 -0.9161 -1.2143 -0.4471
13612SOL     OW42256   8.793   7.654   6.417 -0.2215 -0.8543  0.4557
13612SOL    HW142257   8.814   7.676   6.326  1.9735  3.5923  1.6977
13612SOL    HW242258   8.856   7.585   6.440  2.1414  0.8485 -0.4259
13613SOL     OW42259   2.573   5.211   3.204  0.4632 -0.0002 -0.4258
13613SOL    HW142260   2.659   5.188   3.169  0.7044 -1.0670  0.7818
13613SOL    HW242261   2.580   5.303   3.228  1.1122  0.0499 -0.7843
13614SOL     OW42262   1.338   2.836   2.336  0.2320 -0.0500 -0.3299
13614SOL    HW142263   1.362   2.746   2.313  2.1251  0.8492 -2.2736
13614SOL    HW242264   1.412   2.869   2.385  0.0695  0.8102 -0.6516
13615SOL     OW42265   0.545   5.934   8.841  0.1141 -0.1401 -0.0133
13615SOL    HW142266   0.543   5.871   8.769  0.7237  0.4641 -0.5715
13615SOL    HW242267   0.613   5.902   8.900 -0.6716 -0.8674  0.5370
13616SOL     OW42268   0.494   5.584   5.243 -0.3399 -0.4170 -0.2489
13616SOL    HW142269   0.437   5.532   5.299 -0.6251 -2.0840 -1.9835
13616SOL    HW242270   0.489   5.673   5.279 -2.9794 -0.7660  0.4230
13617SOL     OW42271   8.642   7.690   0.358  0.0531  0.0780 -0.1916
13617SOL    HW142272   8.707   7.663   0.293 -0.3694  0.4344 -0.7641
13617SOL    HW242273   8.560   7.697   0.309  0.1524  2.5551 -0.1201
13618SOL     OW42274   0.217   3.175   8.499 -0.0342 -0.0316 -0.6332
13618SOL    HW142275   0.146   3.238   8.503 -0.6656 -0.8176  1.2467
13618SOL    HW242276   0.294   3.224   8.530  0.2712  0.7639 -2.4978
13619SOL     OW42277   2.190   0.472   7.349 -0.7431 -0.0004  0.0689
13619SOL    HW142278   2.246   0.537   7.390  0.0597 -0.0102 -0.9638
13619SOL    HW242279   2.247   0.396   7.337 -1.3634 -0.5013  0.2441
13620SOL     OW42280   3.670   1.787   1.778  0.0965  0.5083  0.4182
13620SOL    HW142281   3.649   1.697   1.756 -0.0088  0.4051  0.9328
13620SOL    HW242282   3.661   1.835   1.695  1.0119 -0.0981 -0.0533
13621SOL     OW42283   3.600   2.724   3.316 -0.2431 -0.0590 -0.1856
13621SOL    HW142284   3.537   2.768   3.374  0.5148  1.6285 -0.5773
13621SOL    HW242285   3.580   2.757   3.229 -1.3574 -2.5631 -0.9706
13622SOL     OW42286   0.517   1.505   1.024  0.0926 -0.1513  0.2548
13622SOL    HW142287   0.508   1.600   1.015 -1.3951 -0.2052  0.8704
13622SOL    HW242288   0.516   1.473   0.934  0.3115  0.3853  0.0533
13623SOL     OW42289   1.514   6.806   8.380  0.1660 -0.1058 -0.9831
13623SOL    HW142290   1.503   6.850   8.464  1.7455 -0.6479 -0.4542
13623SOL    HW242291   1.429   6.814   8.337 -0.6239  0.3201  0.5895
13624SOL     OW42292   2.766   5.505   8.377  0.4093  0.0795  0.1245
13624SOL    HW142293   2.756   5.469   8.289  1.2146  1.6347 -0.6405
13624SOL    HW242294   2.851   5.549   8.376 -0.4749  1.9177  1.0134
13625SOL     OW42295   1.859   5.337   1.859 -0.5255  0.1739  0.0395
13625SOL    HW142296   1.766   5.359   1.856 -0.5388 -0.0171 -1.6327
13625SOL    HW242297   1.871   5.273   1.789  0.9701  0.5584 -0.0853
13626SOL     OW42298   4.726   6.807   8.795 -0.0071 -0.0594  0.5912
13626SOL    HW142299   4.747   6.901   8.795  0.1199 -0.0847  1.0979
13626SOL    HW242300   4.800   6.766   8.839  0.3482 -0.5040 -0.3948
13627SOL     OW42301   0.116   1.898   8.522  0.0576  0.1732  0.1146
13627SOL    HW142302   0.035   1.945   8.541  1.3941  2.2482  1.0647
13627SOL    HW242303   0.143   1.862   8.606  1.2712  1.5201  0.3498
13628SOL     OW42304   8.859   8.030   2.731 -0.0826  0.2096 -0.5482
13628SOL    HW142305   8.800   8.077   2.791 -0.5041 -1.7844  0.6863
13628SOL    HW242306   8.865   7.942   2.767 -0.4455 -1.1505 -3.5604
13629SOL     OW42307   5.315   6.685   1.712  0.4983  0.4612  0.4703
13629SOL    HW142308   5.386   6.645   1.661  0.3946  0.8478  0.0174
13629SOL    HW242309   5.280   6.754   1.656 -0.4417  0.0809  0.5614
13630SOL     OW42310   6.286   0.829   6.021 -0.6720  0.1614  0.4717
13630SOL    HW142311   6.266   0.922   6.012 -0.8333  0.2040  1.1605
13630SOL    HW242312   6.381   0.823   6.008 -0.8311  0.2383 -0.8338
13631SOL     OW42313   8.868   8.617   0.228 -0.4207 -0.1705  0.4920
13631SOL    HW142314   8.916   8.661   0.158 -0.9779 -0.2407  0.0640
13631SOL    HW242315   8.869   8.525   0.203  3.3135 -0.9957  2.8232
13632SOL     OW42316   7.498   3.290   6.617 -0.1136  0.0121 -0.3996
13632SOL    HW142317   7.486   3.197   6.635  1.7172  0.1163  1.7928
13632SOL    HW242318   7.409   3.323   6.600 -1.4009 -1.3936  2.8120
13633SOL     OW42319   4.124   6.920   1.829  0.5122 -0.1338  0.0449
13633SOL    HW142320   4.037   6.923   1.788 -0.1519 -2.8044  1.0527
13633SOL    HW242321   4.183   6.891   1.760  0.2758 -0.0407 -0.1976
13634SOL     OW42322   8.723   8.328   2.871  0.6795 -0.5485 -0.1971
13634SOL    HW142323   8.734   8.415   2.834  0.0794  0.0716  1.0088
13634SOL    HW242324   8.732   8.341   2.966  1.6394 -1.9763 -0.0684
13635SOL     OW42325   8.876   6.811   1.409 -0.3059  0.4283 -0.0861
13635SOL    HW142326   8.839   6.726   1.435  1.0314 -0.6754 -1.5958
13635SOL    HW242327   8.893   6.802   1.316  1.1421  1.8836  0.0020
13636SOL     OW42328   3.483   6.212   3.652  0.3554 -0.5038 -0.2728
13636SOL    HW142329   3.526   6.293   3.678  1.6806 -1.2177 -0.1551
13636SOL    HW242330   3.554   6.157   3.619 -0.0884 -2.5391  1.8766
13637SOL     OW42331   5.277   2.310   6.859  0.0583 -0.6548  0.6075
13637SOL    HW142332   5.337   2.265   6.918  0.9484  0.0357  0.2545
13637SOL    HW242333   5.210   2.245   6.838 -0.0018 -1.0591  1.9705
13638SOL     OW42334   5.191   5.444   4.727 -0.1633 -0.4030  0.7997
13638SOL    HW142335   5.251   5.507   4.767 -0.7048  0.1334  0.7818
13638SOL    HW242336   5.112   5.494   4.709  0.6380 -0.1560 -2.5934
13639SOL     OW42337   0.405   4.007   8.744  0.1742 -0.2986  0.3829
13639SOL    HW142338   0.456   3.965   8.674 -0.9262 -0.5241 -0.3132
13639SOL    HW242339   0.449   4.091   8.758  0.2168 -0.0886 -0.8537
13640SOL     OW42340   1.532   5.102   1.149 -0.6778  0.3745  0.5529
13640SOL    HW142341   1.490   5.188   1.140 -1.1299  0.1476  0.4721
13640SOL    HW242342   1.477   5.055   1.211 -0.6150  0.0304  0.3509
13641SOL     OW42343   6.442   8.576   0.364  0.1935 -0.0318 -0.2733
13641SOL    HW142344   6.351   8.571   0.333  0.4396  0.8859 -1.1916
13641SOL    HW242345   6.436   8.559   0.458 -0.8461 -0.6803 -0.4351
13642SOL     OW42346   7.457   2.424   6.233 -0.7126 -0.5479 -0.1663
13642SOL    HW142347   7.402   2.502   6.232  0.0747  0.0414 -2.0976
13642SOL    HW242348   7.479   2.412   6.326  0.3953  2.4643  0.0816
13643SOL     OW42349   1.087   3.330   3.287 -0.0880 -0.0868 -0.2203
13643SOL    HW142350   1.042   3.262   3.337  0.2726 -0.6780 -0.6823
13643SOL    HW242351   1.153   3.365   3.347 -0.6354  0.2478  0.2002
13644SOL     OW42352   3.110   9.012   7.371 -0.2362 -0.2825 -0.3147
13644SOL    HW142353   3.054   9.026   7.447  0.5257  0.0828  0.1848
13644SOL    HW242354   3.049   8.994   7.300 -0.9459 -1.0125  0.4577
13645SOL     OW42355   1.072   5.484   2.548 -0.4099  0.5828 -0.1208
13645SOL    HW142356   1.051   5.426   2.475 -0.0978  2.4670 -1.8150
13645SOL    HW242357   0.987   5.521   2.573 -0.4706  0.2014  0.2427
13646SOL     OW42358   1.288   1.802   2.076 -0.0562  0.4070 -0.5043
13646SOL    HW142359   1.318   1.865   2.142 -0.8733 -1.1253  1.4410
13646SOL    HW242360   1.335   1.721   2.098  0.7143  0.1917 -2.7282
13647SOL     OW42361   8.721   0.726   0.468 -0.6284 -0.1175 -0.9336
13647SOL    HW142362   8.664   0.653   0.445 -1.7952  0.9637 -1.5963
13647SOL    HW242363   8.807   0.703   0.433 -0.0840 -2.6312  1.6683
13648SOL     OW42364   8.454   4.783   8.845 -0.1119 -0.9361 -0.6278
13648SOL    HW142365   8.366   4.816   8.829  0.0877 -0.7009 -1.3015
13648SOL    HW242366   8.446   4.729   8.923 -1.1180 -1.9851 -1.4258
13649SOL     OW42367   0.223   8.884   1.635 -0.5517  0.5756 -0.0520
13649SOL    HW142368   0.189   8.819   1.575  0.5294 -1.0306  0.9817
13649SOL    HW242369   0.313   8.898   1.606 -0.6148  1.2221  0.0543
13650SOL     OW42370   3.250   4.751   7.250 -0.0916 -0.1484  0.0360
13650SOL    HW142371   3.319   4.817   7.261 -0.3853  0.0038  1.0640
13650SOL    HW242372   3.256   4.725   7.158  0.1018  1.2285 -0.3516
13651SOL     OW42373   7.677   4.697   6.308 -0.0250  0.3833 -0.1400
13651SOL    HW142374   7.715   4.637   6.244 -0.3252 -0.2588  0.2742
13651SOL    HW242375   7.630   4.640   6.370 -1.0040  1.0923 -0.2011
13652SOL     OW42376   6.395   5.306   3.364 -0.9261  0.1920 -0.0055
13652SOL    HW142377   6.357   5.242   3.424  2.5102  0.1927  2.4546
13652SOL    HW242378   6.432   5.252   3.293  0.3753 -0.4636  1.1271
13653SOL     OW42379   5.741   0.625   1.313  0.4001  0.4494 -0.4987
13653SOL    HW142380   5.828   0.631   1.274  0.3103  0.3585 -0.7144
13653SOL    HW242381   5.752   0.659   1.401  0.4448  1.4035 -0.8591
13654SOL     OW42382   9.116   2.647   5.668  0.6190  0.1739  0.2431
13654SOL    HW142383   9.100   2.616   5.579  0.3405 -0.1563  0.4086
13654SOL    HW242384   9.149   2.570   5.715  0.4127  0.2544  0.5227
13655SOL     OW42385   3.385   2.140   1.517 -0.0024  0.5165  0.5333
13655SOL    HW142386   3.331   2.070   1.553  0.9055  0.4033  1.7562
13655SOL    HW242387   3.328   2.217   1.517 -0.2051  0.3811  1.7332
13656SOL     OW42388   2.579   3.664   8.362 -0.1058  0.2642  0.0291
13656SOL    HW142389   2.565   3.659   8.267 -0.4785 -1.2032  0.1252
13656SOL    HW242390   2.505   3.714   8.395  0.2792  1.2058 -0.4931
13657SOL     OW42391   4.033   7.208   7.140  0.0928 -0.4359 -0.5953
13657SOL    HW142392   3.987   7.186   7.220  0.4616 -3.3722 -1.0633
13657SOL    HW242393   3.976   7.270   7.095 -1.4036 -0.8100  0.7052
13658SOL     OW42394   4.902   6.697   5.753 -0.8836 -0.6761 -0.3053
13658SOL    HW142395   4.932   6.692   5.844  0.2626 -1.2625 -0.7037
13658SOL    HW242396   4.909   6.608   5.720  2.4015  0.0795 -2.0902
13659SOL     OW42397   2.511   4.280   5.070 -0.4565  0.3980  0.2684
13659SOL    HW142398   2.418   4.270   5.091 -0.5057 -1.3677 -0.5698
13659SOL    HW242399   2.521   4.241   4.983  1.2963 -0.8719  0.9547
13660SOL     OW42400   1.778   3.418   3.405  0.2753  0.8390 -0.1068
13660SOL    HW142401   1.764   3.370   3.487  1.5098  1.0098  0.2138
13660SOL    HW242402   1.698   3.470   3.394 -1.1479 -1.2919 -0.5009
13661SOL     OW42403   5.373   3.846   5.250 -0.1088 -0.4898  0.6062
13661SOL    HW142404   5.380   3.880   5.339 -1.5608 -0.0663  0.5855
13661SOL    HW242405   5.448   3.883   5.204 -0.1241  0.4161  1.2940
13662SOL     OW42406   6.064   3.867   1.984 -0.4885  0.0897 -0.2800
13662SOL    HW142407   6.156   3.885   2.004  0.2723  1.2196 -4.0491
13662SOL    HW242408   6.066   3.783   1.938 -1.1648  0.6646 -1.3850
13663SOL     OW42409   5.598   1.137   0.615  0.1330  0.3437 -0.2525
13663SOL    HW142410   5.624   1.066   0.674 -1.4035 -0.3297 -0.3457
13663SOL    HW242411   5.547   1.196   0.670  0.9735  1.1322 -0.2974
13664SOL     OW42412   4.138   2.219   0.153 -0.1084  0.2943 -0.2285
13664SOL    HW142413   4.071   2.261   0.207  0.0174 -0.4981  0.5731
13664SOL    HW242414   4.191   2.170   0.216  1.8651  1.6994 -0.7038
13665SOL     OW42415   6.518   1.730   5.107  0.2689  0.5379  0.3989
13665SOL    HW142416   6.467   1.650   5.118  1.1419 -0.4688 -2.1278
13665SOL    HW242417   6.584   1.726   5.177  0.3971 -1.0673  0.2251
13666SOL     OW42418   8.405   7.171   2.070 -0.1031 -0.1761 -0.0596
13666SOL    HW142419   8.443   7.112   2.135  0.0561 -1.7898 -1.5433
13666SOL    HW242420   8.345   7.227   2.120  2.4856  0.9565  1.9954
13667SOL     OW42421   6.406   8.783   1.927 -0.1452  0.9611  0.0070
13667SOL    HW142422   6.326   8.789   1.874 -0.7304  0.2677  0.7736
13667SOL    HW242423   6.458   8.859   1.901 -0.3948  0.6319 -1.5674
13668SOL     OW42424   6.384   2.502   9.173 -0.0167  0.3905 -0.1060
13668SOL    HW142425   6.354   2.412   9.190 -2.6229  0.7247 -2.3115
13668SOL    HW242426   6.303   2.554   9.174  1.5160  2.9865  2.1194
13669SOL     OW42427   7.225   4.637   5.744  0.7557 -0.0461 -0.1440
13669SOL    HW142428   7.130   4.645   5.753  0.8611  0.2503  0.7699
13669SOL    HW242429   7.243   4.543   5.755  0.6028 -0.0583 -0.0106
13670SOL     OW42430   1.096   7.760   5.170 -0.0093  0.2481 -0.3610
13670SOL    HW142431   1.088   7.855   5.168 -2.4548  0.1479  0.8256
13670SOL    HW242432   1.069   7.731   5.083  0.2253  0.6087 -0.5551
13671SOL     OW42433   3.797   7.267   8.220 -0.1918  0.6750  0.5353
13671SOL    HW142434   3.862   7.337   8.227  0.1639  0.1909  3.3165
13671SOL    HW242435   3.713   7.311   8.224 -0.0168  1.1035 -0.3095
13672SOL     OW42436   9.048   3.989   8.109 -0.4917 -0.0271 -0.1641
13672SOL    HW142437   9.006   4.049   8.047  0.6704 -0.8497 -1.8017
13672SOL    HW242438   8.975   3.956   8.162 -1.1276  3.2729  1.3130
13673SOL     OW42439   7.056   0.662   1.845 -0.5134  0.0136 -0.1533
13673SOL    HW142440   6.999   0.722   1.894 -0.2155  0.0803  0.1160
13673SOL    HW242441   6.997   0.593   1.814 -0.4608 -1.0118  1.8280
13674SOL     OW42442   3.786   4.540   1.803  0.4736  0.5534  0.4799
13674SOL    HW142443   3.720   4.567   1.740  0.6675 -1.5890 -0.7331
13674SOL    HW242444   3.737   4.505   1.877  0.1934 -1.1335 -0.4635
13675SOL     OW42445   5.454   5.499   4.877  0.4260 -0.0923  0.1206
13675SOL    HW142446   5.431   5.440   4.948  1.1900 -0.1791  0.3073
13675SOL    HW242447   5.444   5.446   4.798 -0.5156  0.0322  0.1488
13676SOL     OW42448   5.826   6.462   2.072  0.2566 -0.1124 -0.1313
13676SOL    HW142449   5.893   6.462   2.140 -1.9964 -3.0731  2.3752
13676SOL    HW242450   5.809   6.555   2.055  1.5674  0.7727  2.7355
13677SOL     OW42451   5.609   4.333   5.902  0.0600 -0.2405 -0.6031
13677SOL    HW142452   5.643   4.352   5.989 -0.2237 -1.5332 -0.1868
13677SOL    HW242453   5.672   4.271   5.865  0.8008  1.1558 -1.7873
13678SOL     OW42454   5.626   1.141   5.544  0.2954 -0.5220  0.2128
13678SOL    HW142455   5.634   1.149   5.639  1.4496 -1.0083  0.1695
13678SOL    HW242456   5.566   1.212   5.520  0.9866  0.4247  1.1608
13679SOL     OW42457   0.902   6.155   4.710 -0.0452  0.2541 -0.1842
13679SOL    HW142458   0.831   6.200   4.756 -1.5778 -1.6575 -0.5379
13679SOL    HW242459   0.981   6.186   4.753 -1.2665  0.2541  2.3077
13680SOL     OW42460   4.944   4.794   0.315  0.1001 -0.5189 -0.1424
13680SOL    HW142461   5.030   4.760   0.292  0.2069  0.7639 -1.8893
13680SOL    HW242462   4.883   4.724   0.291  0.5687 -1.0056  0.0727
13681SOL     OW42463   4.178   5.065   4.258 -0.8718  0.4617 -0.2052
13681SOL    HW142464   4.173   5.041   4.350  3.2076  1.2423  0.3906
13681SOL    HW242465   4.186   4.982   4.211  1.6785  0.0926  0.7141
13682SOL     OW42466   7.276   4.940   5.633 -0.2361  0.8133  0.0806
13682SOL    HW142467   7.279   4.861   5.580 -2.2910  0.5298  0.3061
13682SOL    HW242468   7.185   4.945   5.663  0.5536  1.6279  2.5514
13683SOL     OW42469   6.822   8.188   4.746  0.4741 -0.1523 -0.1518
13683SOL    HW142470   6.841   8.282   4.749 -2.0242  0.3932  0.1077
13683SOL    HW242471   6.880   8.151   4.813  0.0804  1.4989  1.1695
13684SOL     OW42472   8.305   6.782   5.045 -0.5110 -0.0351  0.1686
13684SOL    HW142473   8.357   6.721   4.993  0.7294  1.1519 -0.0443
13684SOL    HW242474   8.320   6.754   5.136 -0.0164 -0.1197  0.0662
13685SOL     OW42475   4.100   5.081   6.956  0.4747 -0.3014  0.3294
13685SOL    HW142476   4.150   5.154   6.991  1.0274  0.2358 -1.4725
13685SOL    HW242477   4.028   5.068   7.018  1.7015  0.2185  1.9074
13686SOL     OW42478   4.480   8.718   5.255  0.6775 -0.4269  0.0054
13686SOL    HW142479   4.490   8.623   5.268  0.2318 -0.5540 -0.5285
13686SOL    HW242480   4.410   8.726   5.190 -0.0928  0.3062  0.8964
13687SOL     OW42481   0.572   1.099   8.975 -0.9732  0.6062 -0.5544
13687SOL    HW142482   0.582   1.180   9.025 -2.1053  0.4304 -0.0029
13687SOL    HW242483   0.489   1.062   9.006  0.7185 -2.1234  1.1522
13688SOL     OW42484   5.954   8.077   7.570  0.4905 -0.0729 -0.0134
13688SOL    HW142485   6.005   8.095   7.491  0.7796  0.9597  0.3796
13688SOL    HW242486   5.998   8.004   7.612  1.1253  0.2255 -0.1475
13689SOL     OW42487   8.282   6.429   0.677 -0.9249  0.3876 -0.0286
13689SOL    HW142488   8.372   6.463   0.671 -1.0433  1.0315  1.5206
13689SOL    HW242489   8.226   6.505   0.662 -1.2066  0.2139  0.1331
13690SOL     OW42490   2.277   4.809   5.986  0.0929 -0.0784 -0.0144
13690SOL    HW142491   2.330   4.761   5.922  1.9183 -0.9140  2.0349
13690SOL    HW242492   2.202   4.752   6.002 -0.4795  0.2188 -1.4821
13691SOL     OW42493   0.194   2.062   2.857 -0.0458 -0.3680 -0.1981
13691SOL    HW142494   0.159   2.020   2.936  1.1122 -0.1376  0.4602
13691SOL    HW242495   0.116   2.093   2.810 -0.7774 -0.8545  0.6515
13692SOL     OW42496   7.153   2.404   2.459  0.0900 -0.4917  0.5200
13692SOL    HW142497   7.108   2.351   2.393  3.8354 -2.6046 -0.6219
13692SOL    HW242498   7.137   2.359   2.542  0.3601 -1.3854  0.0936
13693SOL     OW42499   8.191   9.145   8.844  0.3334  0.4622  0.0330
13693SOL    HW142500   8.195   9.090   8.766 -0.1521  0.9020 -0.3124
13693SOL    HW242501   8.151   9.089   8.911  2.9895 -0.7541  0.7201
13694SOL     OW42502   5.259   7.212   5.705  0.4499  0.2145 -0.2693
13694SOL    HW142503   5.212   7.140   5.746  0.9847 -1.2970 -2.1707
13694SOL    HW242504   5.203   7.289   5.721 -1.9419 -1.2211 -1.1101
13695SOL     OW42505   1.025   7.607   2.296 -0.0402  0.1320  0.4677
13695SOL    HW142506   1.095   7.662   2.331 -0.0955  0.2602  0.3783
13695SOL    HW242507   1.070   7.546   2.237 -0.0232  0.3223  0.2833
13696SOL     OW42508   6.518   5.214   4.911 -0.7778 -0.2231 -0.4621
13696SOL    HW142509   6.503   5.154   4.984 -0.9061 -0.8028 -0.9576
13696SOL    HW242510   6.571   5.285   4.949  2.1499 -2.1900 -0.5313
13697SOL     OW42511   2.297   6.952   1.070 -0.0228 -0.0275  0.7036
13697SOL    HW142512   2.350   6.999   1.135 -0.8124 -0.0504  1.3837
13697SOL    HW242513   2.216   7.003   1.063 -0.0928 -0.2239 -0.0008
13698SOL     OW42514   4.305   1.395   1.142 -0.9105 -0.1494  0.0459
13698SOL    HW142515   4.373   1.433   1.086  0.7674 -0.4136  1.7988
13698SOL    HW242516   4.264   1.470   1.185 -0.5279 -0.0970  0.3140
13699SOL     OW42517   8.671   7.025   5.533 -0.1262  0.1068  0.1678
13699SOL    HW142518   8.657   7.055   5.623 -0.4568  0.2618  0.0644
13699SOL    HW242519   8.642   6.933   5.533  0.6197 -0.1421  0.4126
13700SOL     OW42520   2.222   7.400   4.232  0.4680  0.1329 -0.3686
13700SOL    HW142521   2.199   7.484   4.272  0.8442  0.2577 -0.4111
13700SOL    HW242522   2.310   7.413   4.197 -0.3873  0.4902 -2.5336
13701SOL     OW42523   3.934   4.179   8.139  0.4863  0.3428 -0.0938
13701SOL    HW142524   3.978   4.158   8.222  1.4499  0.6581 -0.5060
13701SOL    HW242525   3.854   4.126   8.140  0.8205 -0.1751  0.7276
13702SOL     OW42526   1.290   2.372   7.477  0.2408  0.2981  0.2461
13702SOL    HW142527   1.204   2.339   7.504 -0.4950  1.7828 -0.1548
13702SOL    HW242528   1.302   2.451   7.530  0.5103  1.1235 -1.0179
13703SOL     OW42529   4.699   5.173   1.035  0.0966 -0.0800  0.2224
13703SOL    HW142530   4.744   5.138   0.958 -0.1831 -0.3662  0.1854
13703SOL    HW242531   4.736   5.126   1.109  0.0736 -0.1003  0.2209
13704SOL     OW42532   1.204   2.824   9.102 -0.2115 -0.1034  0.5261
13704SOL    HW142533   1.118   2.822   9.144 -1.4484 -0.1086 -1.8443
13704SOL    HW242534   1.197   2.890   9.033  0.7824 -1.8609 -1.4096
13705SOL     OW42535   8.980   6.964   6.493  0.1235  0.0758 -0.6821
13705SOL    HW142536   9.039   7.030   6.458  0.0584  0.2433 -0.4729
13705SOL    HW242537   9.025   6.881   6.478  0.6516  0.2376 -0.0361
13706SOL     OW42538   5.795   1.351   3.771  0.1557  0.1708  0.7705
13706SOL    HW142539   5.798   1.444   3.792  1.8804 -0.2146  2.5051
13706SOL    HW242540   5.754   1.311   3.847 -0.3245 -0.5369  0.1520
13707SOL     OW42541   1.059   3.494   3.743 -0.9060  0.1367  0.4740
13707SOL    HW142542   1.121   3.537   3.683 -0.6990 -1.7996 -0.8239
13707SOL    HW242543   1.115   3.442   3.801 -1.2505 -1.7051 -0.7704
13708SOL     OW42544   0.752   3.071   5.262  0.1415 -0.0098 -0.1665
13708SOL    HW142545   0.762   2.978   5.281 -0.1276  0.0937  0.5314
13708SOL    HW242546   0.841   3.104   5.251  0.3722 -0.0025  1.3956
13709SOL     OW42547   1.330   0.321   6.888  0.4010 -0.6103  0.2257
13709SOL    HW142548   1.348   0.374   6.811 -0.0560 -0.2420  0.3661
13709SOL    HW242549   1.238   0.338   6.908 -0.1557 -2.4837 -0.5233
13710SOL     OW42550   7.465   1.158   2.058  0.2099 -0.0224 -0.6509
13710SOL    HW142551   7.519   1.208   1.998  1.8592 -0.4623  0.3932
13710SOL    HW242552   7.471   1.067   2.027 -2.6264  0.2720 -2.4329
13711SOL     OW42553   7.759   7.589   1.667  0.1348 -0.2692  0.3990
13711SOL    HW142554   7.712   7.581   1.750  1.6903 -4.2533  1.1248
13711SOL    HW242555   7.851   7.592   1.692  0.5792  1.0893 -1.1874
13712SOL     OW42556   5.038   1.510   5.563  0.2154 -0.1155 -0.5966
13712SOL    HW142557   5.078   1.458   5.633 -0.9684 -0.4551 -0.1530
13712SOL    HW242558   4.981   1.448   5.516 -0.6216  0.5980 -0.5424
13713SOL     OW42559   6.686   0.888   1.873 -0.4018  0.1528  0.1214
13713SOL    HW142560   6.678   0.917   1.782  2.6655  1.1654  0.0701
13713SOL    HW242561   6.633   0.950   1.923 -2.2664 -0.5239 -0.9252
13714SOL     OW42562   2.625   3.824   6.420 -0.1438 -0.4147 -0.0727
13714SOL    HW142563   2.642   3.838   6.327  3.0963 -0.5463  0.3975
13714SOL    HW242564   2.542   3.869   6.436 -0.0308  0.9129 -2.6883
13715SOL     OW42565   4.003   7.686   8.504  0.2579  0.6529  0.9530
13715SOL    HW142566   3.922   7.693   8.554 -1.7817  0.7719 -2.1477
13715SOL    HW242567   4.041   7.774   8.508 -1.6671  1.6061 -0.4708
13716SOL     OW42568   0.589   3.361   1.732 -0.5589  0.1470  0.2289
13716SOL    HW142569   0.637   3.278   1.736 -2.0040 -0.7343  0.1355
13716SOL    HW242570   0.501   3.339   1.762 -0.6166  1.9628  1.5473
13717SOL     OW42571   7.466   3.882   4.762  0.1932  0.2123 -0.4276
13717SOL    HW142572   7.497   3.931   4.686  0.7666  0.2486 -0.1763
13717SOL    HW242573   7.539   3.824   4.785 -0.4575 -0.7272 -0.6942
13718SOL     OW42574   4.384   5.565   1.757  0.0027 -0.3189  0.0111
13718SOL    HW142575   4.365   5.566   1.663  0.8861 -1.7910 -0.2277
13718SOL    HW242576   4.339   5.487   1.790  0.7482 -0.5468  0.5328
13719SOL     OW42577   4.726   3.793   4.013  0.0903 -0.0722 -0.5835
13719SOL    HW142578   4.662   3.723   4.003 -0.8719  0.8012 -0.6393
13719SOL    HW242579   4.750   3.790   4.106 -1.2988  0.6487 -0.1701
13720SOL     OW42580   1.205   5.652   5.924 -0.0744  0.0669  0.5502
13720SOL    HW142581   1.165   5.726   5.970 -2.1614 -2.2830  2.8582
13720SOL    HW242582   1.153   5.643   5.844  0.2706  1.1485  0.1960
13721SOL     OW42583   1.849   7.928   7.500 -0.0524 -0.2319 -0.1251
13721SOL    HW142584   1.916   7.929   7.432  0.6461 -1.9493  0.4667
13721SOL    HW242585   1.771   7.966   7.459  1.3654  2.3326 -0.6827
13722SOL     OW42586   4.749   3.901   4.649  0.0023  0.2584  0.2268
13722SOL    HW142587   4.684   3.916   4.718  0.3198  0.2706  0.5265
13722SOL    HW242588   4.806   3.833   4.684  0.5473  0.7117  0.2417
13723SOL     OW42589   4.360   1.684   8.942  0.0383  0.6068 -0.0881
13723SOL    HW142590   4.371   1.732   9.025 -0.7006  1.1771 -0.3057
13723SOL    HW242591   4.374   1.593   8.965 -1.3659  0.6141  0.9385
13724SOL     OW42592   2.091   4.292   2.814 -0.2703 -0.3091  0.3144
13724SOL    HW142593   2.126   4.375   2.847  0.8571 -0.0418 -1.3933
13724SOL    HW242594   2.026   4.318   2.749 -1.2256 -0.8121  1.0378
13725SOL     OW42595   7.232   4.086   1.100 -0.0904  0.0093 -0.2560
13725SOL    HW142596   7.145   4.111   1.071  1.1089  0.5320 -3.9435
13725SOL    HW242597   7.291   4.144   1.052  2.3752 -1.8909  0.2428
13726SOL     OW42598   5.842   3.682   0.011  0.1828 -0.2810  0.0065
13726SOL    HW142599   5.847   3.751   0.077  0.2689 -0.5173  0.2495
13726SOL    HW242600   5.932   3.674  -0.022  0.1619 -0.2409 -0.0609
13727SOL     OW42601   6.538   6.936   5.703 -0.1671  0.3639 -0.7420
13727SOL    HW142602   6.557   6.959   5.794 -0.5703 -0.7034 -0.3866
13727SOL    HW242603   6.546   7.020   5.656  0.4835  0.8480  0.1865
13728SOL     OW42604   3.858   7.297   6.098  0.0990 -0.6598 -0.1755
13728SOL    HW142605   3.877   7.262   6.186 -0.3935  0.7610  0.5212
13728SOL    HW242606   3.770   7.332   6.105  0.1722 -0.2635 -1.1635
13729SOL     OW42607   4.854   6.512   4.395  0.1370 -0.1268  0.4855
13729SOL    HW142608   4.809   6.596   4.403 -0.2944 -0.2411 -0.5986
13729SOL    HW242609   4.895   6.499   4.480 -0.4150  0.8241  0.9160
13730SOL     OW42610   6.879   8.320   2.579 -0.3840 -0.3566  0.2798
13730SOL    HW142611   6.899   8.347   2.489  1.2093 -0.8136  0.4838
13730SOL    HW242612   6.812   8.383   2.607  1.9403  2.3812  0.1269
13731SOL     OW42613   4.666   8.928   4.090 -0.1007  0.4637 -0.2617
13731SOL    HW142614   4.585   8.978   4.088  0.0144  0.6283 -1.6179
13731SOL    HW242615   4.689   8.923   4.183 -1.3869  0.8462  0.0946
13732SOL     OW42616   2.554   7.654   1.336  0.5510  0.1145  0.5775
13732SOL    HW142617   2.541   7.695   1.421  1.1621  1.4752  0.0335
13732SOL    HW242618   2.576   7.726   1.277 -0.3862 -0.7176 -0.8639
13733SOL     OW42619   5.224   2.570   6.898  0.3775  0.6308 -0.0287
13733SOL    HW142620   5.236   2.476   6.882  0.2601  0.6497 -0.2249
13733SOL    HW242621   5.160   2.597   6.832  0.8306  0.9664 -0.3316
13734SOL     OW42622   7.848   5.754   8.941  0.1008 -0.0608 -0.4170
13734SOL    HW142623   7.843   5.660   8.924 -1.0501  0.0416 -0.6886
13734SOL    HW242624   7.858   5.794   8.855  0.9310  0.0581 -0.2755
13735SOL     OW42625   4.335   0.268   0.799 -0.1792 -0.4299  0.0387
13735SOL    HW142626   4.338   0.227   0.712  0.1020 -1.3549  0.4750
13735SOL    HW242627   4.426   0.284   0.821 -0.2590 -0.0823  0.1126
13736SOL     OW42628   5.017   6.939   2.261 -0.0934 -0.2554  0.3697
13736SOL    HW142629   4.960   6.867   2.237  0.0198 -0.2338  0.0204
13736SOL    HW242630   5.071   6.906   2.333  0.0333 -0.5554  0.1365
13737SOL     OW42631   4.535   1.983   4.672  0.6189  0.4161 -0.1990
13737SOL    HW142632   4.561   1.900   4.712  0.8919  1.3725  1.7070
13737SOL    HW242633   4.440   1.987   4.685  0.4501 -0.0390 -1.2060
13738SOL     OW42634   9.213   1.170   3.881  0.0597 -0.4600 -0.3176
13738SOL    HW142635   9.254   1.084   3.869  0.0059 -0.4657 -0.4731
13738SOL    HW242636   9.132   1.165   3.829  0.5879  0.0576 -1.2215
13739SOL     OW42637   1.188   1.112   1.164 -0.0485  0.0244  0.6908
13739SOL    HW142638   1.138   1.053   1.221 -0.7331  0.6432  0.7445
13739SOL    HW242639   1.191   1.066   1.080  1.1636 -1.0003  1.2616
13740SOL     OW42640   0.167   5.725   5.296  0.0389  0.2197 -0.1372
13740SOL    HW142641   0.193   5.817   5.283  0.6684  0.3676  1.8552
13740SOL    HW242642   0.227   5.675   5.241  0.1696  0.9549 -0.6767
13741SOL     OW42643   1.436   6.266   1.459 -0.3855 -0.5102 -0.3804
13741SOL    HW142644   1.426   6.301   1.370 -1.3187 -0.0090 -0.0968
13741SOL    HW242645   1.490   6.331   1.504 -2.1241  0.6570  0.1476
13742SOL     OW42646   1.539   4.570   7.378  0.1658  0.1679 -0.3951
13742SOL    HW142647   1.546   4.652   7.329  1.9292 -0.5007 -1.3218
13742SOL    HW242648   1.507   4.598   7.464 -2.1759  1.4519 -1.5798
13743SOL     OW42649   5.725   5.165   8.113  0.1141  0.6355  0.7365
13743SOL    HW142650   5.728   5.151   8.018 -0.4031 -1.8820  1.0151
13743SOL    HW242651   5.804   5.214   8.133  1.4143 -0.7511 -0.7457
13744SOL     OW42652   7.531   2.718   4.079 -0.1504 -0.0230  1.0647
13744SOL    HW142653   7.508   2.765   4.159  0.6789  1.0195  0.7152
13744SOL    HW242654   7.528   2.785   4.010  2.6036 -0.0694  0.7862
13745SOL     OW42655   5.925   4.537   8.430 -0.1076  0.7439 -0.5344
13745SOL    HW142656   5.977   4.581   8.363  1.3635 -0.7865 -0.4464
13745SOL    HW242657   5.844   4.512   8.384  0.7320  0.0110 -1.6805
13746SOL     OW42658   8.982   4.378   6.982  0.1907 -0.2942  0.4660
13746SOL    HW142659   9.042   4.326   7.037  1.7069 -0.0818 -0.9097
13746SOL    HW242660   8.964   4.322   6.907 -0.6719 -0.0169  0.4642
13747SOL     OW42661   0.543   5.078   1.678  0.5465 -0.2631 -0.0225
13747SOL    HW142662   0.468   5.126   1.642 -0.3940 -1.0459  0.8594
13747SOL    HW242663   0.561   5.122   1.761 -0.7702 -1.7992  1.1388
13748SOL     OW42664   7.144   6.490   3.665  0.5140  0.0009 -0.6613
13748SOL    HW142665   7.148   6.570   3.611 -0.2849 -0.2613 -1.1380
13748SOL    HW242666   7.106   6.424   3.607  1.5730 -0.8554 -0.4075
13749SOL     OW42667   0.285   4.350   1.405 -0.4982 -0.2298 -0.2391
13749SOL    HW142668   0.239   4.318   1.328  0.2320  0.5108 -1.0177
13749SOL    HW242669   0.217   4.369   1.469 -1.0752 -1.3398 -0.5107
13750SOL     OW42670   2.134   8.516   8.453 -0.3823 -0.2650  0.1782
13750SOL    HW142671   2.149   8.488   8.363  0.2031  0.4609  0.0449
13750SOL    HW242672   2.063   8.580   8.447 -0.4568 -0.3390  0.2600
13751SOL     OW42673   5.297   0.925   8.037  0.3355  0.5669  0.2369
13751SOL    HW142674   5.320   0.987   8.106  0.3270  0.2340  0.5376
13751SOL    HW242675   5.239   0.976   7.979  0.5415  0.9201  0.3355
13752SOL     OW42676   3.646   8.589   3.339  0.5730  0.8365 -0.2911
13752SOL    HW142677   3.581   8.615   3.274  0.7161  0.0371 -0.7651
13752SOL    HW242678   3.731   8.606   3.297  0.6661  0.7268 -0.1486
13753SOL     OW42679   5.292   3.700   8.854  0.0956  0.1784  0.2451
13753SOL    HW142680   5.385   3.677   8.857  0.4035  1.2647 -0.1777
13753SOL    HW242681   5.258   3.678   8.941  0.8408  0.1162  0.5233
13754SOL     OW42682   2.037   3.928   2.724 -0.6284 -0.3279  0.0590
13754SOL    HW142683   2.057   3.889   2.809  0.3878  1.6192  0.7940
13754SOL    HW242684   1.944   3.910   2.710 -0.1811 -3.1818  0.1456
13755SOL     OW42685   7.331   4.302   4.126  0.1463 -0.0578 -0.7851
13755SOL    HW142686   7.354   4.377   4.181 -0.5559 -0.1786 -0.3120
13755SOL    HW242687   7.411   4.250   4.121  0.8804  1.0860 -1.7354
13756SOL     OW42688   5.749   4.941   6.727  0.0388  0.2366 -0.2319
13756SOL    HW142689   5.815   4.956   6.796 -1.5208  1.2001  1.1253
13756SOL    HW242690   5.794   4.885   6.663  1.8468  0.0281  1.1270
13757SOL     OW42691   3.054   3.392   4.762 -0.3428 -0.3572 -0.1782
13757SOL    HW142692   3.023   3.400   4.672  2.5861 -0.8480 -1.3388
13757SOL    HW242693   3.146   3.420   4.759  0.0870 -1.1389  2.5095
13758SOL     OW42694   8.195   4.581   1.076 -0.1221  0.0107 -0.4530
13758SOL    HW142695   8.274   4.575   1.130 -0.4612  0.2239  0.0759
13758SOL    HW242696   8.220   4.639   1.003 -0.3850  1.8509  0.8376
13759SOL     OW42697   6.830   6.975   8.637 -0.6335  0.0264  0.2468
13759SOL    HW142698   6.812   7.061   8.599  0.1853  0.3432  0.5668
13759SOL    HW242699   6.873   6.994   8.720  1.5938 -0.6983 -0.6646
13760SOL     OW42700   0.556   1.214   5.223  0.5641  0.2852  0.0276
13760SOL    HW142701   0.572   1.179   5.135 -0.2112  0.6976 -0.2895
13760SOL    HW242702   0.607   1.158   5.281 -1.2887 -1.9527 -0.3638
13761SOL     OW42703   6.520   5.521   5.255  0.1685 -0.5635  0.1677
13761SOL    HW142704   6.461   5.596   5.256  0.1929 -0.5295  1.5229
13761SOL    HW242705   6.566   5.528   5.172  0.8253  1.4462  0.6446
13762SOL     OW42706   1.470   5.825   2.127 -0.5529 -0.1526  0.3987
13762SOL    HW142707   1.426   5.847   2.209 -2.1300  3.4830 -1.2229
13762SOL    HW242708   1.557   5.865   2.135 -0.3667 -0.5761  0.5763
13763SOL     OW42709   9.274   8.988   1.521  0.7884  0.2811  0.1122
13763SOL    HW142710   9.366   8.981   1.549  1.2773  0.1139 -1.3932
13763SOL    HW242711   9.277   8.964   1.428 -0.8803 -0.2575  0.1756
13764SOL     OW42712   2.158   7.187   1.122  0.0625 -0.0312 -0.6758
13764SOL    HW142713   2.142   7.142   1.205 -0.4108 -0.1121 -0.8091
13764SOL    HW242714   2.095   7.259   1.121  1.4052  1.1977 -0.0601
13765SOL     OW42715   2.105   6.867   2.416  0.1180  0.0455 -0.0830
13765SOL    HW142716   2.020   6.905   2.391  0.4393  1.1883  0.5105
13765SOL    HW242717   2.163   6.942   2.425  1.7887 -0.8217 -2.5007
13766SOL     OW42718   7.420   1.899   5.349  0.1781  0.2007 -0.0688
13766SOL    HW142719   7.475   1.957   5.297 -0.6644  1.2262  0.1717
13766SOL    HW242720   7.359   1.861   5.287 -0.8479  1.4493  0.1483
13767SOL     OW42721   4.389   8.290   6.198 -0.0694  0.0444  0.0640
13767SOL    HW142722   4.331   8.259   6.129  1.2461 -2.1931 -0.1401
13767SOL    HW242723   4.333   8.292   6.276 -1.1521  0.9465 -0.7073
13768SOL     OW42724   8.521   2.415   6.172  0.1322  0.3411 -0.1812
13768SOL    HW142725   8.469   2.360   6.114  0.0185  0.2886 -0.0318
13768SOL    HW242726   8.463   2.486   6.198  0.0492  0.1438  0.1864
13769SOL     OW42727   3.533   6.827   7.500  0.1249  0.1540  0.1788
13769SOL    HW142728   3.624   6.830   7.471  0.6828  0.8747  1.9059
13769SOL    HW242729   3.483   6.812   7.420  1.8200 -1.3524 -0.6838
13770SOL     OW42730   4.175   4.816   4.089 -0.1536 -0.8777 -0.1638
13770SOL    HW142731   4.172   4.721   4.074 -0.7715 -0.7796 -0.6957
13770SOL    HW242732   4.083   4.843   4.085  0.1060 -0.1034 -1.0170
13771SOL     OW42733   5.064   2.651   0.417  0.2587 -0.0976  0.0600
13771SOL    HW142734   5.055   2.716   0.348 -0.6980  0.9020  1.0919
13771SOL    HW242735   5.149   2.611   0.402  1.2593  1.9915 -0.0955
13772SOL     OW42736   8.994   8.527   2.943  0.8317 -0.0128  0.9940
13772SOL    HW142737   8.906   8.564   2.937  0.9393  0.1749  0.5851
13772SOL    HW242738   9.021   8.515   2.852  1.6269  0.8611  1.1013
13773SOL     OW42739   8.430   0.833   1.862 -0.2771 -0.4386  0.0729
13773SOL    HW142740   8.354   0.864   1.912 -0.1477  0.1400 -0.0786
13773SOL    HW242741   8.495   0.810   1.928 -0.0150  0.5608  0.1770
13774SOL     OW42742   8.141   5.136   1.980 -0.1505 -0.8599 -0.2688
13774SOL    HW142743   8.164   5.096   1.896  0.6446 -0.4279 -0.2662
13774SOL    HW242744   8.160   5.229   1.968  4.0960 -1.2896  1.6941
13775SOL     OW42745   8.858   3.083   4.485 -0.3005  0.1148  0.4746
13775SOL    HW142746   8.829   3.118   4.569 -2.1620  1.4755 -0.6651
13775SOL    HW242747   8.930   3.141   4.459 -0.3258  0.2575  0.7161
13776SOL     OW42748   4.157   5.135   5.595 -0.6883  0.5495  0.3157
13776SOL    HW142749   4.087   5.177   5.644 -2.0434 -0.9703 -0.2074
13776SOL    HW242750   4.123   5.048   5.575  0.5638  0.4351 -1.6430
13777SOL     OW42751   1.975   2.738   0.830  0.1121 -0.0405  0.7873
13777SOL    HW142752   1.906   2.713   0.890 -2.0148  3.0399 -0.1410
13777SOL    HW242753   2.020   2.811   0.873 -0.9028  1.6529 -0.8823
13778SOL     OW42754   4.960   6.721   7.034 -0.3823  0.5131 -0.2725
13778SOL    HW142755   4.873   6.683   7.022  0.2121 -1.1432  0.2670
13778SOL    HW242756   4.985   6.753   6.948 -1.4288  0.8085 -0.4755
13779SOL     OW42757   3.918   4.811   2.181 -0.1179 -0.7447  0.3775
13779SOL    HW142758   3.894   4.789   2.271 -1.5356  0.0819  0.2429
13779SOL    HW242759   3.868   4.749   2.128  0.1655 -0.7740  0.1446
13780SOL     OW42760   6.665   8.394   0.565 -0.4785  0.0967 -0.4752
13780SOL    HW142761   6.573   8.419   0.563 -1.2161 -2.2325  0.4661
13780SOL    HW242762   6.704   8.449   0.633 -0.9269  1.6939 -1.4612
13781SOL     OW42763   1.118   3.362   2.720  0.0071  0.6046 -0.3929
13781SOL    HW142764   1.099   3.285   2.773 -0.7138  0.7884 -0.3661
13781SOL    HW242765   1.193   3.337   2.666 -0.5667 -0.3016 -0.7835
13782SOL     OW42766   7.616   8.410   2.355  0.8040 -0.0061  0.1238
13782SOL    HW142767   7.704   8.402   2.390  0.8621 -0.1925 -0.0645
13782SOL    HW242768   7.622   8.482   2.292  1.3419 -1.4246 -1.5023
13783SOL     OW42769   9.058   2.332   8.642 -0.7111 -0.8757  0.0398
13783SOL    HW142770   8.970   2.312   8.672 -0.8055  0.9351  1.0700
13783SOL    HW242771   9.059   2.426   8.628  0.7926 -0.9869 -0.9260
13784SOL     OW42772   8.726   6.567   4.790 -0.6566 -0.3543 -1.3220
13784SOL    HW142773   8.774   6.626   4.731 -0.6954 -0.2641 -1.2648
13784SOL    HW242774   8.793   6.525   4.842 -0.6032 -0.6277 -1.6099
13785SOL     OW42775   2.877   8.420   8.880 -0.4429  0.0475  0.1763
13785SOL    HW142776   2.862   8.514   8.882  0.8970  0.2858  0.5608
13785SOL    HW242777   2.867   8.392   8.971 -0.2807 -0.0781  0.1568
13786SOL     OW42778   4.172   0.241   1.716  0.0384  0.1002 -1.0277
13786SOL    HW142779   4.239   0.201   1.771  0.4887  0.1278 -1.5505
13786SOL    HW242780   4.114   0.169   1.692 -0.5182  0.1908 -0.0278
13787SOL     OW42781   0.712   2.530   2.514  0.2868  0.5298  0.0437
13787SOL    HW142782   0.622   2.500   2.516  0.1164  0.6568 -2.5237
13787SOL    HW242783   0.764   2.451   2.502  0.5538  0.4818  1.2985
13788SOL     OW42784   2.526   0.002   7.150  0.5818  0.8574 -0.0053
13788SOL    HW142785   2.575   0.017   7.230 -0.2426  0.6196  0.5540
13788SOL    HW242786   2.475   0.081   7.137 -0.8844  0.0937  0.8751
13789SOL     OW42787   3.589   5.776   8.163 -0.1572 -0.5060 -0.1042
13789SOL    HW142788   3.573   5.870   8.173 -0.6672 -0.4246 -1.4861
13789SOL    HW242789   3.652   5.755   8.232  0.4509  0.9740 -0.1812
13790SOL     OW42790   0.841   5.327   6.714 -0.6979  0.5817  0.4729
13790SOL    HW142791   0.781   5.393   6.747 -0.3906  0.5960  1.0144
13790SOL    HW242792   0.873   5.363   6.631 -0.8723  0.9051  0.5457
13791SOL     OW42793   4.936   6.341   2.466 -0.0401 -0.4421 -0.0479
13791SOL    HW142794   4.968   6.267   2.414 -1.2706 -1.1105  0.1112
13791SOL    HW242795   4.842   6.327   2.472 -0.4268  1.5507 -0.6506
13792SOL     OW42796   5.006   4.323   8.017 -0.3122 -0.2631  0.0372
13792SOL    HW142797   4.929   4.304   7.964 -0.0535  0.6683 -0.7065
13792SOL    HW242798   5.031   4.411   7.992  0.1805 -0.0251  1.2977
13793SOL     OW42799   7.736   5.470   1.589  0.3612  0.2891 -0.2437
13793SOL    HW142800   7.729   5.397   1.527 -1.2353  0.1944  0.0106
13793SOL    HW242801   7.777   5.432   1.667  0.2423 -0.1502 -0.3944
13794SOL     OW42802   5.944   6.982   5.578 -0.1405  0.1376 -0.2123
13794SOL    HW142803   5.865   6.975   5.524 -1.1721  0.5328  1.1783
13794SOL    HW242804   5.976   7.071   5.563 -1.1288  0.6810  0.6911
13795SOL     OW42805   6.168   8.719   3.476 -0.1948  0.0982  0.3714
13795SOL    HW142806   6.174   8.803   3.523  1.1556  0.6627 -0.7386
13795SOL    HW242807   6.259   8.693   3.463 -0.5927 -1.6665  0.8544
13796SOL     OW42808   2.668   4.323   8.412 -0.2428 -0.3154 -0.5567
13796SOL    HW142809   2.579   4.309   8.444 -0.7529 -0.1660 -1.8293
13796SOL    HW242810   2.699   4.235   8.388 -0.2350 -0.3089 -0.5708
13797SOL     OW42811   8.321   8.907   6.278 -0.1927  0.6855 -0.0054
13797SOL    HW142812   8.270   8.842   6.325  0.9553 -0.0534  0.2682
13797SOL    HW242813   8.407   8.904   6.320  0.3055  1.3293 -0.9553
13798SOL     OW42814   5.568   6.784   2.765 -0.3603  0.6802  1.1049
13798SOL    HW142815   5.477   6.758   2.752  0.2792 -1.1677 -0.1542
13798SOL    HW242816   5.577   6.865   2.715 -0.7303 -0.5288 -1.0734
13799SOL     OW42817   1.694   6.452   0.555  0.3073  0.4588  0.2782
13799SOL    HW142818   1.601   6.456   0.532 -0.2229 -1.9320  1.6707
13799SOL    HW242819   1.739   6.490   0.480 -1.7660  1.4001 -0.5603
13800SOL     OW42820   8.235   7.312   9.069  0.4466  0.0243  0.2007
13800SOL    HW142821   8.213   7.288   9.159  0.2718  0.9224  0.4064
13800SOL    HW242822   8.161   7.366   9.041 -0.8805 -2.4638 -1.4428
13801SOL     OW42823   8.208   6.910   7.677  0.4628  0.2849 -0.1601
13801SOL    HW142824   8.127   6.958   7.696  1.6613  2.4323 -0.1655
13801SOL    HW242825   8.182   6.845   7.611 -1.4866  0.0525  0.7562
13802SOL     OW42826   1.355   0.282   6.573  0.0640  0.2083  0.4049
13802SOL    HW142827   1.386   0.228   6.500  0.6146  0.1715  0.6600
13802SOL    HW242828   1.267   0.250   6.590 -0.2820  0.5788 -0.5901
13803SOL     OW42829   5.301   0.694   4.816  0.3457  0.0081 -0.0086
13803SOL    HW142830   5.385   0.738   4.818 -0.1161  0.9352 -0.3370
13803SOL    HW242831   5.321   0.604   4.789  1.4861 -0.4636  2.1973
13804SOL     OW42832   2.052   1.520   3.861 -0.2283 -0.2435 -0.0814
13804SOL    HW142833   2.020   1.605   3.830 -0.0868 -0.4367 -0.7938
13804SOL    HW242834   2.133   1.506   3.812  0.6682 -0.0142  1.2852
13805SOL     OW42835   2.198   3.106   0.674  0.2444 -0.4005  0.3280
13805SOL    HW142836   2.171   3.025   0.631  0.2464 -0.2524  0.0472
13805SOL    HW242837   2.165   3.176   0.617  0.4523 -0.2085  0.4401
13806SOL     OW42838   5.657   6.670   7.094  0.2421 -0.1659 -0.5191
13806SOL    HW142839   5.750   6.659   7.075  0.2733 -0.6273 -0.1322
13806SOL    HW242840   5.654   6.745   7.153  0.2210  0.7572 -1.6540
13807SOL     OW42841   2.720   3.176   1.394  0.8198  0.2515  0.1005
13807SOL    HW142842   2.664   3.229   1.337 -2.0792 -0.6769  1.8603
13807SOL    HW242843   2.725   3.091   1.352  0.3079  0.1478  0.2360
13808SOL     OW42844   6.127   7.308   0.754  0.6662 -0.1086 -0.6110
13808SOL    HW142845   6.198   7.341   0.808 -0.4891 -0.6334  1.3452
13808SOL    HW242846   6.111   7.377   0.690  2.3514  0.3643 -0.5623
13809SOL     OW42847   8.075   1.130   6.670 -0.4361 -0.2747  0.7019
13809SOL    HW142848   8.160   1.123   6.625 -0.7637 -1.5269  0.2348
13809SOL    HW242849   8.029   1.200   6.623 -0.8228 -1.6433 -1.0588
13810SOL     OW42850   8.977   0.721   1.534 -0.2041  0.5265 -0.3916
13810SOL    HW142851   8.932   0.804   1.550 -0.6956  0.1287  0.3524
13810SOL    HW242852   8.950   0.664   1.607  0.0820 -0.3059 -0.9161
13811SOL     OW42853   3.831   0.798   4.975 -0.1986  0.4704  0.2170
13811SOL    HW142854   3.736   0.792   4.975 -0.0986 -1.6332 -0.1051
13811SOL    HW242855   3.860   0.730   5.035  1.1835 -2.3179 -3.2643
13812SOL     OW42856   3.270   5.838   7.343 -0.7491 -0.4326 -0.2906
13812SOL    HW142857   3.223   5.883   7.413 -2.6563  0.1146 -1.8506
13812SOL    HW242858   3.330   5.904   7.308 -1.3953  0.0042 -0.6023
13813SOL     OW42859   3.208   7.135   3.354  0.1355  0.1062  0.1600
13813SOL    HW142860   3.290   7.131   3.304  0.1441 -1.7159  0.2639
13813SOL    HW242861   3.236   7.152   3.444  0.2077  1.9090 -0.1548
13814SOL     OW42862   5.370   4.956   8.149  0.1914  0.2520 -0.5422
13814SOL    HW142863   5.363   4.987   8.240  0.0119  2.8666 -1.3528
13814SOL    HW242864   5.284   4.921   8.129 -0.9014  2.7527 -0.6382
13815SOL     OW42865   4.949   4.197   1.869 -0.4578 -0.0835  0.0822
13815SOL    HW142866   4.880   4.137   1.841  1.0530 -1.2746 -1.2616
13815SOL    HW242867   4.982   4.236   1.788  1.8496 -1.1397  0.4258
13816SOL     OW42868   5.504   3.231   3.662 -0.1934  0.0992  0.3254
13816SOL    HW142869   5.473   3.157   3.609  0.1703 -1.3238  2.0141
13816SOL    HW242870   5.423   3.274   3.690 -0.3927  0.9245 -1.3895
13817SOL     OW42871   8.081   8.088   2.880 -0.1098  0.6174  0.9018
13817SOL    HW142872   8.074   8.178   2.848  0.1560  0.6394  0.8991
13817SOL    HW242873   8.132   8.043   2.813 -1.2223  0.1757  0.3349
13818SOL     OW42874   8.752   9.268   8.953 -0.0765 -0.4177 -0.5242
13818SOL    HW142875   8.771   9.176   8.933 -0.9552 -0.5719 -0.6909
13818SOL    HW242876   8.778   9.278   9.044  3.5029  0.1542 -1.4694
13819SOL     OW42877   8.132   6.294   5.656  0.3780 -0.3412  0.5375
13819SOL    HW142878   8.226   6.291   5.636  0.4969  2.4462  0.3446
13819SOL    HW242879   8.123   6.363   5.721 -1.2123 -2.9217  3.3417
13820SOL     OW42880   2.616   4.721   4.109 -0.3033 -0.3557 -0.4382
13820SOL    HW142881   2.646   4.775   4.182  0.7009  0.0381 -1.1274
13820SOL    HW242882   2.693   4.670   4.083 -0.6091 -0.4051 -1.2934
13821SOL     OW42883   9.124   1.213   4.689 -1.1058 -0.1234 -0.7480
13821SOL    HW142884   9.207   1.226   4.735 -0.1518  1.2496 -2.6970
13821SOL    HW242885   9.059   1.258   4.742  0.1470  2.4390 -1.2228
13822SOL     OW42886   6.523   2.803   9.188  0.2113  0.1310 -0.1901
13822SOL    HW142887   6.510   2.764   9.274 -0.0623 -1.7511 -1.0132
13822SOL    HW242888   6.611   2.776   9.163  0.4269  0.9713 -0.3624
13823SOL     OW42889   6.734   3.270   5.832  0.2145  0.0918 -0.3009
13823SOL    HW142890   6.824   3.301   5.840  0.1645  1.0903 -2.7539
13823SOL    HW242891   6.680   3.343   5.861  0.1613 -0.1698  0.2784
13824SOL     OW42892   0.151   1.497   5.428  0.1666 -0.3325 -0.4568
13824SOL    HW142893   0.191   1.563   5.485 -0.0692 -0.1844 -0.4576
13824SOL    HW242894   0.206   1.420   5.437  0.7423  0.0254 -0.8505
13825SOL     OW42895   0.824   3.465   6.185 -0.6204 -0.6138  0.2252
13825SOL    HW142896   0.753   3.423   6.137  0.2522 -0.3749 -1.3121
13825SOL    HW242897   0.853   3.536   6.129  0.4169 -0.2962  1.1263
13826SOL     OW42898   4.342   0.702   4.340  0.0896  0.1985 -0.3831
13826SOL    HW142899   4.284   0.722   4.413 -0.6941 -1.1909 -0.5966
13826SOL    HW242900   4.399   0.779   4.333  0.2399  0.3239  1.7324
13827SOL     OW42901   3.760   3.523   1.603  0.4092 -0.6089 -0.6238
13827SOL    HW142902   3.697   3.451   1.602 -1.5435  0.9989  0.3739
13827SOL    HW242903   3.732   3.579   1.675  0.3304  2.4127 -2.8038
13828SOL     OW42904   1.660   8.594   7.479  0.0816 -0.5868  0.1687
13828SOL    HW142905   1.616   8.581   7.395 -0.2957  1.1215  0.0666
13828SOL    HW242906   1.638   8.684   7.504  0.7203 -0.8467  1.7883
13829SOL     OW42907   7.281   0.901   7.568  0.1229 -0.2574 -0.9653
13829SOL    HW142908   7.210   0.842   7.591  0.0587  0.2454  0.2115
13829SOL    HW242909   7.357   0.845   7.556  0.0213 -0.6119 -0.0451
13830SOL     OW42910   6.774   8.249   3.711 -0.0190  0.1814  0.2894
13830SOL    HW142911   6.798   8.207   3.629  1.3127  0.2981  0.5863
13830SOL    HW242912   6.840   8.220   3.773 -1.3234 -0.3466  1.4820
13831SOL     OW42913   8.039   4.769   6.449  0.0223  0.3504 -0.2849
13831SOL    HW142914   8.120   4.765   6.398  0.0295  0.6059 -0.2949
13831SOL    HW242915   7.977   4.813   6.391 -0.4121 -0.7368 -0.6598
13832SOL     OW42916   4.692   1.016   8.886 -0.5478  0.2788 -0.1313
13832SOL    HW142917   4.754   0.973   8.946 -1.9537 -1.3495  0.2553
13832SOL    HW242918   4.607   0.979   8.910 -1.5643  1.8118 -1.2018
13833SOL     OW42919   7.015   0.172   5.831 -0.3159  0.3819 -0.1046
13833SOL    HW142920   6.978   0.178   5.919 -0.4291 -1.3019 -0.0070
13833SOL    HW242921   7.000   0.081   5.805 -1.1843  1.0980 -2.2748
13834SOL     OW42922   3.883   2.028   8.431  0.6102 -0.5146 -0.2267
13834SOL    HW142923   3.932   2.111   8.429  0.8283 -0.3877  3.5927
13834SOL    HW242924   3.949   1.961   8.409  1.0725  0.0794 -0.6947
13835SOL     OW42925   0.312   2.605   6.064 -0.0565  0.0428  0.0299
13835SOL    HW142926   0.228   2.561   6.054 -1.1258  1.9547  0.0949
13835SOL    HW242927   0.323   2.615   6.158 -0.5074  1.0913 -0.0116
13836SOL     OW42928   5.357   3.594   2.404 -0.7172 -0.3945 -0.2512
13836SOL    HW142929   5.315   3.613   2.321 -1.4060  0.8387  0.3430
13836SOL    HW242930   5.410   3.672   2.422 -0.0084 -0.9488  0.1293
13837SOL     OW42931   4.697   8.305   1.780 -0.5247 -0.3068  0.0675
13837SOL    HW142932   4.646   8.313   1.699  0.7848 -1.3532 -0.9068
13837SOL    HW242933   4.658   8.231   1.826 -1.6951  0.6943  0.7645
13838SOL     OW42934   1.778   0.349   7.330 -0.0773  0.0224 -0.4733
13838SOL    HW142935   1.715   0.414   7.298 -2.3675 -2.1628 -0.7648
13838SOL    HW242936   1.731   0.302   7.398  2.5169  0.4447  1.7936
13839SOL     OW42937   8.574   4.164   8.235 -0.0114  0.2507  0.5088
13839SOL    HW142938   8.493   4.118   8.256 -1.1933  1.7421 -0.6418
13839SOL    HW242939   8.562   4.252   8.269  0.7619  0.7498 -0.4472
13840SOL     OW42940   6.353   3.206   7.637 -0.3993  0.4971  0.3408
13840SOL    HW142941   6.313   3.289   7.664 -0.3012  0.2734  1.2188
13840SOL    HW242942   6.426   3.231   7.581 -0.6420  0.9847  0.2391
13841SOL     OW42943   2.790   7.741   0.781  0.5332 -0.3052 -0.2434
13841SOL    HW142944   2.872   7.741   0.831 -0.8646  1.2112  2.2417
13841SOL    HW242945   2.808   7.795   0.704  1.7141  0.5085  0.5739
13842SOL     OW42946   5.730   3.952   7.790  0.3498  0.0685  0.5109
13842SOL    HW142947   5.644   3.917   7.768  0.9242  0.7630 -3.6993
13842SOL    HW242948   5.791   3.881   7.768  1.0027  0.5338  0.7771
13843SOL     OW42949   6.870   8.353   1.697  0.2174  0.0800  0.2910
13843SOL    HW142950   6.890   8.261   1.677  2.0729  0.2992  0.9511
13843SOL    HW242951   6.839   8.389   1.614 -0.2062 -1.0445 -0.0665
13844SOL     OW42952   4.830   3.472   3.807  0.2911 -0.5195  0.2685
13844SOL    HW142953   4.832   3.479   3.903 -2.0440 -0.4888  0.3914
13844SOL    HW242954   4.892   3.403   3.786  2.9070  1.2843  1.5266
13845SOL     OW42955   3.081   7.791   3.545  0.2355  0.4952 -0.0475
13845SOL    HW142956   3.002   7.813   3.496  0.7952  0.7906 -0.8392
13845SOL    HW242957   3.127   7.729   3.489  0.8545  0.7898  0.1284
13846SOL     OW42958   0.581   2.255   3.469 -0.3126  0.4211 -0.2325
13846SOL    HW142959   0.630   2.210   3.400 -0.8866  0.2135 -0.5155
13846SOL    HW242960   0.615   2.219   3.551  0.0979  0.3800 -0.4196
13847SOL     OW42961   8.380   2.674   6.211  0.1514 -0.2997 -0.7592
13847SOL    HW142962   8.403   2.755   6.257 -1.4110 -0.2649  0.0068
13847SOL    HW242963   8.315   2.702   6.146 -1.4950 -1.1025  0.4627
13848SOL     OW42964   8.835   0.295   2.063  0.2107  0.7849 -0.1891
13848SOL    HW142965   8.904   0.346   2.021  0.1556  1.0625  0.0605
13848SOL    HW242966   8.827   0.216   2.008 -1.2141  2.0225 -1.9033
13849SOL     OW42967   2.745   2.502   3.131 -0.6379  0.1272 -0.1666
13849SOL    HW142968   2.720   2.563   3.061 -2.0600  0.6889  0.7789
13849SOL    HW242969   2.728   2.550   3.212  0.3814 -0.7389  0.5846
13850SOL     OW42970   9.258   2.850   5.995  0.7625 -0.1706 -0.3698
13850SOL    HW142971   9.224   2.864   5.907 -1.1671 -1.1302  0.1607
13850SOL    HW242972   9.205   2.908   6.050  0.4965 -1.1228  0.3983
13851SOL     OW42973   0.289   8.789   0.126  0.3520  0.0132  0.4033
13851SOL    HW142974   0.214   8.804   0.184  0.0178 -1.2281  0.3160
13851SOL    HW242975   0.332   8.711   0.161 -0.2546 -1.1711 -1.3761
13852SOL     OW42976   2.848   1.675   8.762 -0.4809 -0.0627  0.2513
13852SOL    HW142977   2.874   1.614   8.832 -0.1485 -0.1393  0.0635
13852SOL    HW242978   2.753   1.665   8.756 -0.1760 -3.0312 -1.9923
13853SOL     OW42979   6.870   3.103   2.751 -0.1327  0.3535 -0.4991
13853SOL    HW142980   6.879   3.168   2.682  0.4898  0.8291  0.0231
13853SOL    HW242981   6.853   3.021   2.704 -0.0670  0.7291 -1.1980
13854SOL     OW42982   0.751   3.057   3.342 -0.1483  0.8511  0.3579
13854SOL    HW142983   0.696   3.134   3.327 -0.1969  0.6832 -0.3755
13854SOL    HW242984   0.747   3.008   3.259  0.9430  0.7413  0.3556
13855SOL     OW42985   3.264   6.326   0.166 -0.1604  0.2128 -0.1470
13855SOL    HW142986   3.330   6.303   0.231 -0.2586  0.2282 -0.0409
13855SOL    HW242987   3.300   6.403   0.122 -0.8320  1.2332  1.0175
13856SOL     OW42988   5.095   9.113   5.186 -0.3040  0.3461  0.3826
13856SOL    HW142989   5.164   9.052   5.212  1.3794  2.4252  1.1385
13856SOL    HW242990   5.116   9.134   5.095 -0.5546  0.2210  0.2957
13857SOL     OW42991   0.962   8.762   6.288 -0.4021  0.6646  0.4911
13857SOL    HW142992   0.983   8.669   6.281 -1.6802  0.3598  0.2886
13857SOL    HW242993   1.031   8.799   6.343  0.5024 -0.2638  0.0172
13858SOL     OW42994   3.970   8.777   4.401 -0.0548  0.0427  0.4624
13858SOL    HW142995   3.968   8.858   4.350  0.0404  0.1802  0.6775
13858SOL    HW242996   3.988   8.708   4.336 -0.1387  0.1915  0.2800
13859SOL     OW42997   1.942   2.296   8.720  0.7407 -0.3377 -0.3254
13859SOL    HW142998   1.870   2.250   8.762  0.8835 -1.5037 -1.3173
13859SOL    HW242999   2.011   2.230   8.709  0.7129 -0.0996 -2.3472
13860SOL     OW43000   4.723   4.894   4.569  0.1062 -0.1249  0.2060
13860SOL    HW143001   4.673   4.957   4.620  0.2571  0.5369 -0.4480
13860SOL    HW243002   4.672   4.813   4.572 -0.5857  0.3116  0.2232
13861SOL     OW43003   7.690   5.302   3.894 -0.3201  0.0171 -0.2329
13861SOL    HW143004   7.709   5.209   3.903  0.2368  0.1292 -0.2035
13861SOL    HW243005   7.595   5.307   3.887 -0.3470 -0.5583 -0.3010
13862SOL     OW43006   2.218   6.822   7.747  0.3405  0.0395 -0.0135
13862SOL    HW143007   2.138   6.824   7.695  1.5161  0.0779 -1.9487
13862SOL    HW243008   2.282   6.869   7.693  2.3061 -2.1566  0.2244
13863SOL     OW43009   5.416   3.039   1.705 -0.1179  0.3434  0.2565
13863SOL    HW143010   5.493   3.005   1.659  0.4826  0.1080  1.3919
13863SOL    HW243011   5.358   3.070   1.635 -0.6236 -2.7473 -0.8535
13864SOL     OW43012   2.585   1.258   7.880 -0.2606  0.0278 -0.0919
13864SOL    HW143013   2.679   1.244   7.868  0.1496  1.5290  1.1488
13864SOL    HW243014   2.555   1.289   7.794  0.9241  2.0944  0.1741
13865SOL     OW43015   6.098   0.095   4.876 -0.0611 -0.0029 -0.0710
13865SOL    HW143016   6.022   0.088   4.817  0.0115  1.6186 -0.3982
13865SOL    HW243017   6.123   0.004   4.893  0.3069 -0.5738 -3.0775
13866SOL     OW43018   0.985   0.190   8.129 -0.1702 -0.0519  0.2199
13866SOL    HW143019   1.041   0.215   8.202 -0.0546  0.1899  0.0526
13866SOL    HW243020   1.045   0.160   8.061 -0.1200  1.4779 -0.4597
13867SOL     OW43021   3.053   4.651   6.266  0.0822 -0.5012  0.5693
13867SOL    HW143022   2.975   4.621   6.313  0.1384 -1.4810  0.0590
13867SOL    HW243023   3.026   4.652   6.174  0.3423  0.2229  0.4974
13868SOL     OW43024   3.171   0.291   3.234 -0.3165  0.1850 -0.0236
13868SOL    HW143025   3.081   0.318   3.218 -0.4436 -0.1458  0.1175
13868SOL    HW243026   3.165   0.196   3.248  0.3620 -0.2702 -2.3636
13869SOL     OW43027   3.640   6.135   1.515  0.2732 -0.9483 -0.6896
13869SOL    HW143028   3.722   6.092   1.540  0.2421 -1.3835 -1.3054
13869SOL    HW243029   3.664   6.226   1.501  0.8366 -1.2438 -1.7286
13870SOL     OW43030   6.967   5.347   1.043 -0.2485 -0.0725 -0.2107
13870SOL    HW143031   6.960   5.288   0.968 -1.5690  0.2077 -0.3458
13870SOL    HW243032   6.932   5.296   1.116  1.4807 -0.5132  0.3398
13871SOL     OW43033   7.079   8.083   5.981 -0.1200 -0.3101  0.4491
13871SOL    HW143034   7.055   8.122   5.897  1.1574 -0.0071  0.2117
13871SOL    HW243035   6.996   8.052   6.017 -1.2614  2.6723  0.6927
13872SOL     OW43036   7.364   6.801   8.686  0.5392 -0.1812 -0.0624
13872SOL    HW143037   7.418   6.731   8.650 -1.0798 -1.5227  0.0034
13872SOL    HW243038   7.277   6.786   8.650 -0.7793 -0.5922  2.9814
13873SOL     OW43039   5.741   5.959   5.400 -0.0762 -0.9867 -0.6916
13873SOL    HW143040   5.751   5.899   5.474  0.3223  0.6980  0.6772
13873SOL    HW243041   5.826   6.003   5.392 -0.7830  0.4431 -0.6920
13874SOL     OW43042   2.060   0.420   0.742 -0.0697  0.2088  0.5501
13874SOL    HW143043   2.106   0.337   0.733 -0.5603 -0.0992  0.8416
13874SOL    HW243044   2.129   0.485   0.754  0.2578 -0.3286  1.6283
13875SOL     OW43045   7.022   5.046   2.244 -0.1310  0.3673 -0.7751
13875SOL    HW143046   6.974   5.124   2.272  0.7311  0.7490 -0.3244
13875SOL    HW243047   6.993   4.977   2.304 -0.4318  0.4804 -0.7854
13876SOL     OW43048   2.420   4.329   7.545 -0.2529  0.0909  0.7639
13876SOL    HW143049   2.513   4.313   7.530  0.2488  3.0186  0.0066
13876SOL    HW243050   2.384   4.341   7.457 -0.9305  0.8423  1.1336
13877SOL     OW43051   6.473   0.263   0.799 -0.0501 -0.0307 -0.1291
13877SOL    HW143052   6.544   0.315   0.761 -0.8545  2.2877  1.3450
13877SOL    HW243053   6.498   0.253   0.891 -0.3011 -1.6888 -0.2050
13878SOL     OW43054   6.259   7.652   0.209 -0.0476 -0.5874 -0.0386
13878SOL    HW143055   6.179   7.694   0.179 -1.1176 -1.5855  1.2893
13878SOL    HW243056   6.325   7.674   0.143 -1.3048  0.5920 -0.9380
13879SOL     OW43057   1.851   3.950   7.884  0.0779  0.3425  0.6232
13879SOL    HW143058   1.854   3.855   7.867 -2.3849 -0.0494  1.8307
13879SOL    HW243059   1.867   3.990   7.798  0.5895 -1.1727 -0.0265
13880SOL     OW43060   7.975   3.632   0.543  0.4467  0.2541  0.4701
13880SOL    HW143061   7.884   3.615   0.568  1.0700 -0.5168  2.3681
13880SOL    HW243062   7.986   3.727   0.553  0.1847  0.1859  1.4578
13881SOL     OW43063   6.049   1.077   6.468 -0.2499  0.3097  0.9773
13881SOL    HW143064   6.139   1.105   6.448  0.3511  0.1530  3.1068
13881SOL    HW243065   6.040   0.992   6.426  0.8686  0.0177  1.2930
13882SOL     OW43066   2.804   2.660   7.873  0.7544 -0.1643  0.4538
13882SOL    HW143067   2.736   2.665   7.940  1.5433  2.1644  1.1786
13882SOL    HW243068   2.885   2.646   7.922  1.3761  1.7810  0.0865
13883SOL     OW43069   7.429   3.075   8.289 -0.0367 -0.5583  0.2607
13883SOL    HW143070   7.413   3.003   8.228  0.7627 -1.0955  0.6680
13883SOL    HW243071   7.440   3.032   8.374  4.4816 -0.4216 -0.0624
13884SOL     OW43072   3.435   0.768   2.322 -0.0849 -0.2209 -0.0643
13884SOL    HW143073   3.351   0.748   2.362 -0.7211  0.8991 -0.7833
13884SOL    HW243074   3.498   0.764   2.394 -1.1416  1.4031  1.0296
13885SOL     OW43075   0.090   7.000   2.011 -0.1558 -0.7115  0.8045
13885SOL    HW143076   0.123   6.937   1.947 -0.5872 -1.1596  1.0158
13885SOL    HW243077   0.167   7.050   2.039 -0.1645  0.4615 -1.1025
13886SOL     OW43078   2.768   7.950   3.720  0.3677 -0.6977 -0.6418
13886SOL    HW143079   2.776   7.855   3.730  0.0271 -0.8237 -1.5061
13886SOL    HW243080   2.695   7.974   3.777  0.1467 -1.0209 -0.7873
13887SOL     OW43081   5.246   8.591   5.842 -0.0279 -0.0751 -0.0315
13887SOL    HW143082   5.307   8.563   5.910 -1.0549 -0.2607  0.8608
13887SOL    HW243083   5.180   8.643   5.890 -2.0739 -2.1419 -0.4337
13888SOL     OW43084   6.187   4.578   8.261  0.0152  0.5759  0.0819
13888SOL    HW143085   6.239   4.579   8.341 -0.7733 -1.7668  0.7072
13888SOL    HW243086   6.223   4.649   8.208  1.4704  1.3001  1.9213
13889SOL     OW43087   1.122   0.182   6.661 -0.0394  0.0350  0.4954
13889SOL    HW143088   1.050   0.227   6.705 -0.5968  0.5442 -0.8829
13889SOL    HW243089   1.081   0.104   6.623  0.4141 -0.3422  0.7658
13890SOL     OW43090   0.687   7.517   4.193  0.7408 -0.1819 -0.0916
13890SOL    HW143091   0.767   7.522   4.245  1.6323  1.5717 -1.4931
13890SOL    HW243092   0.657   7.608   4.187 -0.9490 -0.7196 -0.2144
13891SOL     OW43093   1.857   3.207   0.599  0.2616 -0.1468  0.4769
13891SOL    HW143094   1.926   3.273   0.586  0.2044  0.2002  1.8048
13891SOL    HW243095   1.789   3.253   0.648 -1.6882 -0.0075 -2.1493
13892SOL     OW43096   6.670   3.934   3.891  0.2230  0.3339  0.4327
13892SOL    HW143097   6.639   4.025   3.898 -1.1982 -0.1712  1.1310
13892SOL    HW243098   6.639   3.905   3.805 -0.4025  0.1430  0.7154
13893SOL     OW43099   4.913   6.235   5.870  0.4852  0.6338 -0.6888
13893SOL    HW143100   4.948   6.290   5.941  1.0523  1.1426 -1.3429
13893SOL    HW243101   4.931   6.146   5.898  1.4389  0.8519 -0.5455
13894SOL     OW43102   8.598   8.540   7.757 -0.9194  0.3462 -0.0517
13894SOL    HW143103   8.602   8.446   7.776 -0.8068  0.6679  1.6494
13894SOL    HW243104   8.519   8.550   7.703 -0.8917 -0.7265 -0.3111
13895SOL     OW43105   6.081   8.035   5.884  0.2999  0.6167 -0.2518
13895SOL    HW143106   6.141   7.974   5.927  0.4337  0.2953 -0.8780
13895SOL    HW243107   6.139   8.098   5.841  0.1759  0.6732 -0.3351
13896SOL     OW43108   0.987   6.972   2.049  0.5238  0.0919 -0.3237
13896SOL    HW143109   1.061   6.929   2.005 -0.1719 -0.5608 -0.8756
13896SOL    HW243110   0.913   6.914   2.034  0.2127 -0.0249  1.5422
13897SOL     OW43111   7.737   2.550   0.338 -0.9100  0.4442  0.3933
13897SOL    HW143112   7.659   2.499   0.358  0.3390 -0.9292  2.1166
13897SOL    HW243113   7.704   2.632   0.303 -3.1134 -0.1494  0.9308
13898SOL     OW43114   7.080   2.300   4.333 -0.7926 -0.2605  0.5084
13898SOL    HW143115   7.053   2.240   4.265  0.2259  1.4552 -1.5269
13898SOL    HW243116   7.014   2.369   4.333 -0.0004  0.5244  0.1678
13899SOL     OW43117   3.145   3.005   3.217  0.2294 -0.4625 -0.5960
13899SOL    HW143118   3.140   2.952   3.137 -2.1861  0.8015 -1.3795
13899SOL    HW243119   3.076   3.070   3.207 -0.5022 -0.5368  2.7353
13900SOL     OW43120   3.207   6.620   5.170 -0.2977 -0.2503  0.2526
13900SOL    HW143121   3.283   6.634   5.113  0.0282 -0.1709  0.7056
13900SOL    HW243122   3.234   6.653   5.256 -0.9148 -0.0269  0.3726
13901SOL     OW43123   7.618   1.916   5.726  0.0857  0.1016  0.3738
13901SOL    HW143124   7.532   1.947   5.751 -0.0064 -0.1193  0.3320
13901SOL    HW243125   7.604   1.827   5.694 -0.0173  0.8227 -1.7545
13902SOL     OW43126   2.358   4.669   7.355 -0.0714 -0.1385 -0.0226
13902SOL    HW143127   2.396   4.702   7.274  0.0235  0.7945  0.3938
13902SOL    HW243128   2.369   4.574   7.349  0.3355 -0.0455 -0.9005
13903SOL     OW43129   8.578   6.415   4.367 -0.1344 -0.0445 -0.0647
13903SOL    HW143130   8.667   6.448   4.380 -0.8193  1.7291  0.4168
13903SOL    HW243131   8.561   6.361   4.444  0.4224 -0.2189 -0.0520
13904SOL     OW43132   3.727   3.431   2.979 -0.0902  0.1526  0.1476
13904SOL    HW143133   3.803   3.461   3.029  1.5747  0.4123 -2.3658
13904SOL    HW243134   3.719   3.494   2.907 -2.5332 -0.0551  0.1340
13905SOL     OW43135   3.624   5.174   6.974  0.0737 -0.1472  0.4648
13905SOL    HW143136   3.585   5.260   6.987  1.5164  0.3802  1.5484
13905SOL    HW243137   3.695   5.189   6.912 -1.8287 -1.2458 -2.1422
13906SOL     OW43138   7.647   5.627   7.678  0.7940  0.0424 -0.0473
13906SOL    HW143139   7.624   5.700   7.620 -0.3372 -0.9288 -0.8677
13906SOL    HW243140   7.648   5.666   7.765 -0.7828  0.8585 -0.3500
13907SOL     OW43141   7.851   7.153   9.093 -0.2894 -0.1049 -0.0741
13907SOL    HW143142   7.853   7.140   9.187 -0.4416  1.4022  0.1569
13907SOL    HW243143   7.928   7.106   9.060  0.3979  0.3106  0.9230
13908SOL     OW43144   1.959   1.068   7.395  0.1870 -0.2508 -0.2123
13908SOL    HW143145   1.908   1.042   7.319 -0.4551  0.6772 -0.1143
13908SOL    HW243146   1.923   1.153   7.421 -1.2586 -1.5465  2.5434
13909SOL     OW43147   2.985   0.102   7.821  0.2533  0.4362  0.2893
13909SOL    HW143148   3.055   0.050   7.861 -1.1266 -0.8988  1.0870
13909SOL    HW243149   2.961   0.166   7.887  0.2143  0.3953  0.3148
13910SOL     OW43150   2.145   7.032   4.541  0.1654 -0.6205  0.4401
13910SOL    HW143151   2.052   7.044   4.559  0.1937  0.1957  0.0879
13910SOL    HW243152   2.185   7.021   4.627 -0.1212  0.0688  0.6689
13911SOL     OW43153   4.305   1.322   2.572 -0.1262 -0.0852  0.8824
13911SOL    HW143154   4.334   1.349   2.485 -0.6745 -1.5906  0.1801
13911SOL    HW243155   4.371   1.259   2.601 -0.9855 -1.1559  0.6229
13912SOL     OW43156   0.225   6.574   5.174 -0.0745 -0.6877  0.1948
13912SOL    HW143157   0.277   6.583   5.254 -2.0225 -0.1004  1.4635
13912SOL    HW243158   0.205   6.480   5.169 -1.3638 -0.4979  1.3738
13913SOL     OW43159   8.116   6.877   7.047  0.3106 -0.2975 -0.7380
13913SOL    HW143160   8.099   6.934   6.972  2.0106  0.5280 -0.5579
13913SOL    HW243161   8.118   6.937   7.122 -3.4643 -1.3449  0.4116
13914SOL     OW43162   4.546   8.644   1.816 -0.0629  0.0440 -0.5317
13914SOL    HW143163   4.538   8.577   1.748  2.2266  1.0686 -1.9454
13914SOL    HW243164   4.538   8.597   1.898 -0.1094 -1.7071 -1.4986
13915SOL     OW43165   0.464   0.284   3.947 -0.7685 -0.4593  0.0628
13915SOL    HW143166   0.493   0.323   4.030 -0.9531 -0.1628 -0.0093
13915SOL    HW243167   0.544   0.259   3.902 -0.6422 -0.0597  0.0625
13916SOL     OW43168   3.568   9.198   1.669 -0.2215 -0.3739  0.4763
13916SOL    HW143169   3.475   9.188   1.689 -0.2615 -0.3568  0.3051
13916SOL    HW243170   3.570   9.262   1.598  0.0329  0.9101  1.6073
13917SOL     OW43171   0.948   5.841   3.533  0.0953 -0.0284  0.7551
13917SOL    HW143172   0.940   5.775   3.602  0.6364 -1.3967 -0.4313
13917SOL    HW243173   0.888   5.812   3.464 -0.3020  1.2119  0.5504
13918SOL     OW43174   4.519   3.568   8.039 -0.1334 -0.3248 -0.2055
13918SOL    HW143175   4.513   3.634   8.109 -1.9186 -0.2508 -0.3644
13918SOL    HW243176   4.492   3.615   7.960  0.9216 -0.6610 -0.7838
13919SOL     OW43177   5.948   2.943   3.970 -0.1456  0.1190 -0.0423
13919SOL    HW143178   5.930   2.855   4.003 -0.3770 -0.1082 -0.7482
13919SOL    HW243179   5.862   2.979   3.950  0.0241 -0.0592 -1.1594
13920SOL     OW43180   1.083   1.718   5.914 -0.2484 -0.0483 -0.1779
13920SOL    HW143181   1.033   1.718   5.832 -0.8391 -1.2355  0.1611
13920SOL    HW243182   1.129   1.634   5.915 -0.5353 -0.2100  0.8743
13921SOL     OW43183   6.053   6.247   5.697  0.6532 -0.4235  0.0572
13921SOL    HW143184   6.062   6.342   5.707 -0.1537 -0.3843  0.5682
13921SOL    HW243185   6.112   6.224   5.625  1.4488  0.3468  0.4479
13922SOL     OW43186   9.051   3.293   6.357  0.3726  0.7132 -0.1282
13922SOL    HW143187   9.018   3.381   6.338  1.3823  0.9327 -0.9713
13922SOL    HW243188   9.142   3.295   6.327 -0.0036 -1.0714 -1.5923
13923SOL     OW43189   0.473   2.493   4.382 -0.3405 -0.3046 -0.0189
13923SOL    HW143190   0.529   2.419   4.359 -1.5700 -1.2093 -0.2241
13923SOL    HW243191   0.457   2.482   4.476  0.4359  0.3990  0.2070
13924SOL     OW43192   0.072   1.284   9.031 -0.2936  0.3564 -0.3786
13924SOL    HW143193   0.094   1.245   8.946  0.4998 -1.3956  0.5875
13924SOL    HW243194   0.049   1.375   9.010 -2.3966 -0.6071 -2.7570
13925SOL     OW43195   3.962   7.435   5.268 -0.2203  0.4865  0.3336
13925SOL    HW143196   4.055   7.445   5.286  0.2799 -2.3690 -0.1032
13925SOL    HW243197   3.957   7.424   5.173 -0.8324 -0.5994  0.4751
13926SOL     OW43198   7.387   6.461   6.617 -0.6410  0.1816  0.1349
13926SOL    HW143199   7.384   6.537   6.675 -0.1238 -0.2837  0.7921
13926SOL    HW243200   7.480   6.450   6.596 -0.8451  0.4901 -0.9949
13927SOL     OW43201   1.353   4.334   1.229 -0.0552  0.6694 -0.1524
13927SOL    HW143202   1.282   4.382   1.188 -1.5548 -0.4949  0.9564
13927SOL    HW243203   1.318   4.246   1.244  2.3539 -0.6511 -1.5383
13928SOL     OW43204   4.542   0.201   1.255 -0.0654  0.1652 -0.2378
13928SOL    HW143205   4.516   0.168   1.169 -1.0886  0.7070 -0.1578
13928SOL    HW243206   4.638   0.198   1.254 -0.0928 -1.5648 -0.6934
13929SOL     OW43207   8.293   0.371   7.218 -0.0536 -0.1216 -0.0689
13929SOL    HW143208   8.222   0.344   7.160 -0.2697  1.7876 -0.7569
13929SOL    HW243209   8.253   0.373   7.305  0.0522 -2.1957  0.0599
13930SOL     OW43210   6.158   4.470   1.323 -0.4806 -0.6140 -0.0307
13930SOL    HW143211   6.209   4.530   1.269 -2.6810  1.6482  0.2083
13930SOL    HW243212   6.078   4.454   1.272 -2.0644  0.6048  1.9390
13931SOL     OW43213   2.198   6.752   1.451 -0.5174 -0.0171  0.0190
13931SOL    HW143214   2.179   6.845   1.465 -2.1329 -0.4040  0.6476
13931SOL    HW243215   2.139   6.727   1.380  0.8969 -0.2741 -1.1122
13932SOL     OW43216   5.967   1.037   6.128  0.1636 -0.1419 -0.1631
13932SOL    HW143217   6.051   1.038   6.083 -0.1975  0.9549 -0.8721
13932SOL    HW243218   5.982   0.986   6.207  1.2223 -0.8141 -0.7715
13933SOL     OW43219   6.060   8.414   3.686  0.0072  0.0712  0.2529
13933SOL    HW143220   6.038   8.453   3.771 -0.0445  0.3857  0.0981
13933SOL    HW243221   5.978   8.375   3.656  0.1000 -0.3006  0.4843
13934SOL     OW43222   8.394   3.639   4.011 -0.2006  0.6216 -0.1820
13934SOL    HW143223   8.383   3.567   3.948 -0.1117  0.3623  0.0959
13934SOL    HW243224   8.474   3.683   3.983 -0.0222  0.3520 -0.1011
13935SOL     OW43225   4.182   7.131   0.843  0.1332  0.5160 -0.4190
13935SOL    HW143226   4.247   7.135   0.772  1.3455 -0.4347  0.5758
13935SOL    HW243227   4.147   7.219   0.849 -0.6417  0.4345 -2.7622
13936SOL     OW43228   6.465   8.969   4.223 -0.0273 -0.1514 -0.2306
13936SOL    HW143229   6.434   9.045   4.273  3.2399  0.3487  1.3763
13936SOL    HW243230   6.429   8.981   4.136 -1.9120  1.7120  0.7003
13937SOL     OW43231   7.896   5.095   0.058 -0.1282  0.1136 -0.1708
13937SOL    HW143232   7.921   5.187   0.049 -0.3347  0.1975  0.1117
13937SOL    HW243233   7.887   5.065  -0.033 -1.5710  0.7953 -0.2943
13938SOL     OW43234   2.498   3.166   1.206  0.1961 -0.4383  0.6305
13938SOL    HW143235   2.424   3.223   1.227  0.5838  0.2704  0.1007
13938SOL    HW243236   2.479   3.084   1.253 -2.3805 -1.3704 -1.7905
13939SOL     OW43237   1.462   5.793   3.091  0.1554 -0.3226  0.4908
13939SOL    HW143238   1.552   5.783   3.059 -0.0910 -0.5089 -0.1455
13939SOL    HW243239   1.418   5.712   3.066 -0.4054  0.1056  0.0800
13940SOL     OW43240   0.431   4.580   2.060 -0.6138  0.8145 -0.1819
13940SOL    HW143241   0.406   4.489   2.045  1.6240  0.0869  0.1194
13940SOL    HW243242   0.351   4.622   2.092 -2.4359 -0.3438 -2.8572
13941SOL     OW43243   6.715   5.376   1.841  0.0923  0.6935  0.7117
13941SOL    HW143244   6.689   5.287   1.820 -1.6957  1.0469  1.2574
13941SOL    HW243245   6.771   5.403   1.768  0.2226 -0.6764  0.2859
13942SOL     OW43246   2.324   2.430   0.508  0.7001  0.2610  0.4765
13942SOL    HW143247   2.292   2.348   0.546  1.3028  0.6539  1.8779
13942SOL    HW243248   2.402   2.403   0.458  1.1055  0.0166  1.2247
13943SOL     OW43249   1.802   4.068   8.514 -0.0540  0.9299  0.0362
13943SOL    HW143250   1.821   4.070   8.420  1.2505  1.2865  0.2898
13943SOL    HW243251   1.707   4.072   8.519 -0.3921 -2.2789 -1.3694
13944SOL     OW43252   0.321   8.054   0.758  0.5826 -0.1505 -0.3022
13944SOL    HW143253   0.276   8.089   0.835  2.0507  0.7982  0.1546
13944SOL    HW243254   0.251   8.026   0.699 -0.6837  3.1099 -0.4957
13945SOL     OW43255   1.061   4.999   5.602  0.1275 -0.3541  0.0474
13945SOL    HW143256   0.993   4.980   5.538 -0.0140 -0.7896  0.3233
13945SOL    HW243257   1.086   5.089   5.584  0.7098 -0.7340 -1.1960
13946SOL     OW43258   1.174   7.306   8.922 -0.4035  0.5184  0.0966
13946SOL    HW143259   1.179   7.383   8.866 -1.4759 -0.5783 -1.5621
13946SOL    HW243260   1.231   7.241   8.880 -1.4946 -0.4369  0.0367
13947SOL     OW43261   5.622   6.715   5.970 -0.0975  0.2321 -0.2155
13947SOL    HW143262   5.656   6.708   6.059  0.0025 -0.2884 -0.2938
13947SOL    HW243263   5.527   6.707   5.979 -0.0315 -0.5897 -0.2367
13948SOL     OW43264   2.833   0.743   1.927 -0.0779 -0.3142  0.0357
13948SOL    HW143265   2.861   0.781   1.844 -0.2549 -0.1076  0.0682
13948SOL    HW243266   2.886   0.788   1.993 -2.2017  1.9368  0.3391
13949SOL     OW43267   5.767   7.867   5.282 -0.6231  0.3647 -0.0030
13949SOL    HW143268   5.783   7.817   5.201 -0.8181 -0.5770  0.5266
13949SOL    HW243269   5.831   7.833   5.344  0.7729  2.3896 -0.2784
13950SOL     OW43270   5.314   7.262   2.104  0.4956 -0.3461  0.4584
13950SOL    HW143271   5.332   7.235   2.014  0.3548  0.2558  0.2499
13950SOL    HW243272   5.226   7.230   2.123 -0.9315  2.4926 -0.8137
13951SOL     OW43273   4.264   2.978   5.499 -0.0469 -0.1162  0.0781
13951SOL    HW143274   4.228   2.982   5.587 -1.5738  0.5931 -0.5466
13951SOL    HW243275   4.191   3.002   5.441  1.4537  1.5813 -1.2538
13952SOL     OW43276   8.668   7.841   7.060 -0.3942 -0.5882 -0.4145
13952SOL    HW143277   8.732   7.912   7.058 -0.2494 -0.7103 -0.1517
13952SOL    HW243278   8.619   7.850   6.978 -0.8214  0.2234 -0.0799
13953SOL     OW43279   7.621   2.348   8.310 -0.0892 -0.0764 -0.1656
13953SOL    HW143280   7.665   2.306   8.385 -0.6727 -1.3174 -0.4988
13953SOL    HW243281   7.598   2.276   8.252 -1.7338  0.6303 -0.4459
13954SOL     OW43282   2.887   1.391   7.995  0.1311 -0.2818  0.4720
13954SOL    HW143283   2.813   1.411   7.938 -2.2845 -3.8702  1.9942
13954SOL    HW243284   2.854   1.405   8.084  1.7971 -0.5143  1.1620
13955SOL     OW43285   7.863   6.269   2.257  0.1612 -0.0637  0.2076
13955SOL    HW143286   7.925   6.252   2.328 -1.3647 -0.8051  1.4516
13955SOL    HW243287   7.812   6.188   2.251 -2.6311  1.4484  1.3355
13956SOL     OW43288   8.908   1.015   2.196  0.4546  0.1873  0.3870
13956SOL    HW143289   8.965   0.951   2.153 -0.7502  0.2125 -1.3690
13956SOL    HW243290   8.960   1.049   2.268  1.7374 -1.5605  0.3534
13957SOL     OW43291   3.169   5.365   2.027 -0.0697 -0.2870 -0.5898
13957SOL    HW143292   3.122   5.347   2.109  0.2664 -0.4100 -0.4207
13957SOL    HW243293   3.257   5.391   2.056  1.4479 -4.2892 -0.9505
13958SOL     OW43294   8.931   8.202   2.318  0.3521 -0.5271  0.2094
13958SOL    HW143295   9.025   8.219   2.308  1.1984 -3.3330  2.0668
13958SOL    HW243296   8.918   8.115   2.281 -2.3903  1.1327 -3.3004
13959SOL     OW43297   3.931   6.202   3.636  0.3531 -0.8706  0.6502
13959SOL    HW143298   3.881   6.242   3.565 -1.7549 -1.0359  1.9419
13959SOL    HW243299   4.014   6.250   3.637 -0.6895  1.0815 -0.0996
13960SOL     OW43300   6.163   5.472   6.401 -0.7191  0.1532  0.4892
13960SOL    HW143301   6.153   5.401   6.337  0.2247 -1.6277  2.2011
13960SOL    HW243302   6.121   5.439   6.480 -1.8410  2.2935  0.8613
13961SOL     OW43303   6.799   1.711   2.002 -0.0244 -0.5873 -0.0253
13961SOL    HW143304   6.781   1.740   1.912  0.5711 -1.6408 -0.5044
13961SOL    HW243305   6.776   1.618   2.002  2.4445 -1.2657  0.1517
13962SOL     OW43306   3.680   2.664   1.722 -0.6195 -0.9264  0.0097
13962SOL    HW143307   3.735   2.587   1.710  0.5503 -0.0418 -0.5641
13962SOL    HW243308   3.650   2.686   1.634  0.0802 -0.0220 -0.0212
13963SOL     OW43309   6.242   3.530   0.822 -0.0214 -0.9436 -0.1226
13963SOL    HW143310   6.301   3.598   0.856  0.4575 -1.0548 -0.7024
13963SOL    HW243311   6.204   3.489   0.900 -0.7079  0.3192  0.2257
13964SOL     OW43312   4.598   8.427   8.240  0.2296 -0.2383  0.0086
13964SOL    HW143313   4.541   8.470   8.177 -0.3615 -1.8942 -0.6515
13964SOL    HW243314   4.683   8.419   8.196  0.7423  1.3950  0.6407
13965SOL     OW43315   4.802   1.902   8.335 -0.9074 -0.2375 -0.5291
13965SOL    HW143316   4.805   1.810   8.362  0.3762 -0.8055 -2.3905
13965SOL    HW243317   4.807   1.951   8.417 -0.0625 -1.8345  0.4292
13966SOL     OW43318   8.029   2.401   7.562  0.4147  0.1956 -0.0804
13966SOL    HW143319   8.104   2.425   7.508  0.8207 -1.2489 -0.2212
13966SOL    HW243320   8.027   2.305   7.558 -1.4782  0.2006 -0.1394
13967SOL     OW43321   7.991   6.523   2.873 -0.2778 -0.0161 -0.4661
13967SOL    HW143322   7.940   6.541   2.952  2.1615 -0.7156  1.4089
13967SOL    HW243323   8.000   6.428   2.871  0.7907  0.0761 -0.8206
13968SOL     OW43324   7.678   3.647   8.595 -0.3586  0.2006  0.8397
13968SOL    HW143325   7.645   3.557   8.592 -1.5406  0.5881 -2.4653
13968SOL    HW243326   7.602   3.699   8.621 -0.5878  0.4858 -0.3362
13969SOL     OW43327   3.508   7.729   9.087  0.1823 -0.2460 -0.7705
13969SOL    HW143328   3.420   7.758   9.063  0.3016  0.5116 -0.2991
13969SOL    HW243329   3.498   7.635   9.103 -0.6208 -0.0926 -0.3219
13970SOL     OW43330   5.203   6.328   6.222  0.1215 -0.2664 -0.0001
13970SOL    HW143331   5.128   6.354   6.168  2.1918  0.9974 -2.5081
13970SOL    HW243332   5.211   6.234   6.207 -0.2417 -0.1925 -0.7059
13971SOL     OW43333   6.221   3.449   3.266  0.1024 -0.0230 -0.6782
13971SOL    HW143334   6.128   3.432   3.285  0.4702 -0.4725  0.8910
13971SOL    HW243335   6.260   3.362   3.260  0.2427  0.1359 -2.5077
13972SOL     OW43336   2.439   7.594   7.579 -0.5658 -0.5607  0.6523
13972SOL    HW143337   2.363   7.566   7.631 -0.7880 -0.4107  0.4083
13972SOL    HW243338   2.408   7.670   7.531 -0.1283 -0.2399  0.8807
13973SOL     OW43339   0.551   3.161   0.693  0.8158 -0.2551 -0.2990
13973SOL    HW143340   0.552   3.250   0.658 -4.3864 -0.9984 -3.3374
13973SOL    HW243341   0.595   3.108   0.625  0.2158 -0.4308 -0.5609
13974SOL     OW43342   5.131   4.885   3.630 -0.3174 -0.0916  0.5206
13974SOL    HW143343   5.080   4.900   3.710 -0.5989 -0.0104  0.3245
13974SOL    HW243344   5.192   4.959   3.626 -2.5567  1.8110 -1.1349
13975SOL     OW43345   3.414   1.875   0.302  0.3973 -1.1504  0.0784
13975SOL    HW143346   3.457   1.898   0.220  0.0729 -2.3914 -0.4442
13975SOL    HW243347   3.484   1.839   0.356  0.6888  0.0104  0.5110
13976SOL     OW43348   4.592   6.557   3.111 -0.0211 -0.0166  0.9053
13976SOL    HW143349   4.531   6.605   3.167 -0.2561  0.9880 -0.1705
13976SOL    HW243350   4.537   6.494   3.064  0.3179 -1.5574  2.4750
13977SOL     OW43351   6.456   2.827   5.891 -0.2624 -0.1501  0.3631
13977SOL    HW143352   6.441   2.865   5.805  1.0091 -0.3501  0.0291
13977SOL    HW243353   6.443   2.900   5.952 -0.7287  0.0970 -0.0293
13978SOL     OW43354   0.801   1.362   8.222  0.2715 -0.0771  0.0499
13978SOL    HW143355   0.722   1.308   8.226  1.8203 -2.4597  0.7567
13978SOL    HW243356   0.835   1.360   8.312  2.0483 -0.6404 -0.5969
13979SOL     OW43357   1.166   2.356   1.911  0.1387 -0.6577  0.3064
13979SOL    HW143358   1.195   2.444   1.888  0.6663 -1.2895 -1.6436
13979SOL    HW243359   1.094   2.338   1.850 -0.2398 -1.4130  0.9684
13980SOL     OW43360   6.328   9.002   3.305  0.5693 -0.3285  0.6459
13980SOL    HW143361   6.386   9.074   3.327  0.1068  1.2635 -2.7775
13980SOL    HW243362   6.385   8.925   3.303  1.8522  0.5869  0.7059
13981SOL     OW43363   9.002   9.231   2.385  0.2193 -0.4028 -0.2400
13981SOL    HW143364   8.983   9.139   2.364 -0.7962 -0.1102 -0.7003
13981SOL    HW243365   8.927   9.279   2.349  1.0872  0.6859 -0.6556
13982SOL     OW43366   6.930   5.255   3.230  0.1889 -0.0884  0.1978
13982SOL    HW143367   6.903   5.318   3.162 -0.0362 -0.0308  0.3365
13982SOL    HW243368   6.941   5.173   3.183 -0.5760 -0.1971  0.1832
13983SOL     OW43369   4.902   5.526   4.239  0.1082  0.6877 -0.5364
13983SOL    HW143370   4.965   5.509   4.168 -0.5880 -2.7165 -0.5002
13983SOL    HW243371   4.947   5.497   4.318 -0.7061  0.2937 -0.2083
13984SOL     OW43372   1.715   6.443   0.146 -0.3856  0.3836 -0.0547
13984SOL    HW143373   1.795   6.471   0.102  0.8402 -1.1638  1.0968
13984SOL    HW243374   1.662   6.403   0.077  0.8415 -0.6332 -0.4287
13985SOL     OW43375   8.720   6.135   3.895 -0.3748  0.5719  0.2454
13985SOL    HW143376   8.650   6.129   3.959 -2.0354  1.6674 -1.3598
13985SOL    HW243377   8.755   6.224   3.905  0.4717  0.2018  0.6937
13986SOL     OW43378   1.136   1.000   2.999 -0.0478 -0.2505  0.0150
13986SOL    HW143379   1.217   1.022   3.046  1.2519 -1.6522 -1.4239
13986SOL    HW243380   1.067   1.046   3.046  1.6721  1.5754  0.9043
13987SOL     OW43381   7.632   8.080   6.391  0.2676 -0.5807 -0.4601
13987SOL    HW143382   7.625   8.131   6.472 -0.6500 -0.6641 -0.4681
13987SOL    HW243383   7.725   8.079   6.371  0.3176  1.1069 -0.4722
13988SOL     OW43384   4.500   2.056   3.806  0.2976  0.3510  0.0492
13988SOL    HW143385   4.522   2.044   3.898  0.9755 -0.6075 -0.2263
13988SOL    HW243386   4.407   2.034   3.800  0.2083  0.5985  0.5352
13989SOL     OW43387   8.890   2.527   4.213  0.1950  0.0071  0.3238
13989SOL    HW143388   8.929   2.615   4.206  1.2141 -0.4124  0.5209
13989SOL    HW243389   8.880   2.513   4.307  0.5880 -0.3166  0.3207
13990SOL     OW43390   0.712   0.957   8.611  0.2575 -0.3531 -0.3154
13990SOL    HW143391   0.759   0.902   8.549  1.0356  0.8560 -0.8342
13990SOL    HW243392   0.620   0.946   8.588  0.5960  1.6590 -3.1492
13991SOL     OW43393   1.237   2.876   3.730  0.1186  0.3273 -0.6138
13991SOL    HW143394   1.149   2.859   3.697 -0.4331 -0.8991  1.3022
13991SOL    HW243395   1.249   2.971   3.719 -1.8251  0.6761 -0.0613
13992SOL     OW43396   6.582   1.078   7.928  0.3512  0.4300  0.9475
13992SOL    HW143397   6.613   1.123   8.006 -0.9947 -1.7167  2.8450
13992SOL    HW243398   6.653   1.019   7.904  0.0940 -0.1730  1.6448
13993SOL     OW43399   7.214   6.843   1.631  0.3235  0.3075 -0.1802
13993SOL    HW143400   7.235   6.769   1.688  0.4972 -0.1705 -0.8472
13993SOL    HW243401   7.119   6.845   1.628  0.3149 -0.2002 -0.5354
13994SOL     OW43402   2.216   4.791   9.233  0.1118 -0.6648  0.0532
13994SOL    HW143403   2.166   4.712   9.212  1.1310 -1.3752  0.2330
13994SOL    HW243404   2.302   4.776   9.193 -0.3875  1.4236 -2.0689
13995SOL     OW43405   3.946   2.608   7.611  0.3337 -0.6208  0.8120
13995SOL    HW143406   3.909   2.544   7.672  1.1548 -0.7650  1.1748
13995SOL    HW243407   4.020   2.646   7.659  1.4063 -1.2133 -0.3431
13996SOL     OW43408   8.945   6.678   3.451 -0.0489  0.3713 -0.2691
13996SOL    HW143409   8.859   6.715   3.431 -0.1652 -0.2570 -0.9399
13996SOL    HW243410   8.979   6.735   3.521 -0.3000  1.6478 -1.1483
13997SOL     OW43411   9.270   0.171   7.638  0.0753 -1.0016 -0.1191
13997SOL    HW143412   9.327   0.096   7.623  1.1620 -0.7947  2.5103
13997SOL    HW243413   9.228   0.154   7.722 -0.3314  0.8868  0.1186
13998SOL     OW43414   2.703   0.072   8.108  0.1001  0.0680 -0.5242
13998SOL    HW143415   2.634   0.007   8.125 -0.7203  0.7077 -1.3313
13998SOL    HW243416   2.656   0.152   8.085  1.1119  0.6091 -0.7649
13999SOL     OW43417   8.493   7.599   6.026 -0.2240 -0.0425  0.7643
13999SOL    HW143418   8.445   7.518   6.012 -0.4817  0.2463 -0.1058
13999SOL    HW243419   8.463   7.630   6.111 -1.0303 -0.2485  0.5660
14000SOL     OW43420   7.682   2.978   2.778  0.4001 -0.3308 -0.2834
14000SOL    HW143421   7.591   2.962   2.751  0.4012 -1.9857  0.5483
14000SOL    HW243422   7.718   2.890   2.794  2.2807  0.2557 -0.9863
14001SOL     OW43423   8.376   1.663   2.704 -0.1432  0.0063 -0.0578
14001SOL    HW143424   8.454   1.618   2.736 -1.6697 -0.8676  2.8015
14001SOL    HW243425   8.394   1.756   2.717 -0.3679 -0.2634  2.9595
14002SOL     OW43426   5.018   3.330   0.445  0.5510 -0.0122  0.0783
14002SOL    HW143427   5.045   3.325   0.536  1.5714 -0.2448 -0.2197
14002SOL    HW243428   4.976   3.415   0.436 -0.3352 -0.3507  0.9600
14003SOL     OW43429   6.368   6.580   4.545  0.1950  0.5890  0.7799
14003SOL    HW143430   6.444   6.528   4.520 -0.4365 -0.0959  0.2207
14003SOL    HW243431   6.379   6.662   4.497 -0.1007 -0.0361 -0.4014
14004SOL     OW43432   1.355   8.369   8.334  0.4798  0.1865 -0.3613
14004SOL    HW143433   1.423   8.430   8.365  0.2804  0.4647 -0.4641
14004SOL    HW243434   1.297   8.357   8.409  0.9730 -0.5208 -0.0926
14005SOL     OW43435   4.136   0.918   2.374 -0.2213 -0.2333 -0.2148
14005SOL    HW143436   4.199   0.990   2.382  0.5510 -0.9873  0.7536
14005SOL    HW243437   4.099   0.909   2.462 -0.3529 -0.9930 -0.3445
14006SOL     OW43438   7.329   3.495   4.188 -0.2347 -0.2016 -0.1177
14006SOL    HW143439   7.307   3.523   4.276 -1.0792 -0.0558 -0.3685
14006SOL    HW243440   7.380   3.567   4.151  0.1115 -0.2593  0.2368
14007SOL     OW43441   4.063   1.633   2.549 -0.3231 -0.0302  0.2815
14007SOL    HW143442   4.092   1.585   2.627  0.3787  0.8893  0.5969
14007SOL    HW243443   4.089   1.577   2.476 -0.9255 -0.8709  0.6882
14008SOL     OW43444   5.701   7.500   4.443 -0.0953  0.0304 -0.0196
14008SOL    HW143445   5.685   7.561   4.514  3.4543 -0.0415  1.0159
14008SOL    HW243446   5.742   7.553   4.374 -1.9792 -0.2351 -1.4557
14009SOL     OW43447   4.973   7.417   4.480 -0.0994  0.8142 -0.0558
14009SOL    HW143448   5.010   7.359   4.546 -0.1840 -0.2147 -0.9011
14009SOL    HW243449   4.896   7.370   4.447  0.7827  0.6167 -1.9477
14010SOL     OW43450   6.051   3.153   4.478  0.1023  0.1348  0.5233
14010SOL    HW143451   6.065   3.100   4.556 -0.4952 -0.0330  0.5197
14010SOL    HW243452   6.074   3.094   4.406 -1.3813 -0.4308  0.4742
14011SOL     OW43453   1.838   4.459   7.516 -0.1297 -0.1035 -0.2667
14011SOL    HW143454   1.782   4.506   7.578 -0.1878 -0.6403  0.0978
14011SOL    HW243455   1.776   4.412   7.459 -0.0787 -2.1913  1.2937
14012SOL     OW43456   2.916   5.458   8.903  0.9663 -0.5273  0.4662
14012SOL    HW143457   2.861   5.424   8.973  0.7365  0.5605  0.8393
14012SOL    HW243458   2.993   5.400   8.902  1.0930 -0.4141  1.8012
14013SOL     OW43459   3.935   0.456   3.725 -0.3512  0.3405  0.1607
14013SOL    HW143460   4.015   0.460   3.672  0.7491 -1.0929  1.6095
14013SOL    HW243461   3.965   0.472   3.814 -1.1691 -2.8011  1.1186
14014SOL     OW43462   4.094   6.495   6.256 -0.7905  0.0370 -0.0409
14014SOL    HW143463   4.060   6.485   6.167  1.3924  3.9309 -1.5710
14014SOL    HW243464   4.037   6.560   6.296 -0.0966  0.4296  0.3305
14015SOL     OW43465   9.055   0.192   3.244 -0.6020 -0.2030 -0.1626
14015SOL    HW143466   9.009   0.111   3.227  2.3209 -1.7980 -1.2321
14015SOL    HW243467   9.031   0.215   3.334 -2.2492 -1.6815 -0.1687
14016SOL     OW43468   2.106   1.527   2.602  0.1886  0.2509 -0.5017
14016SOL    HW143469   2.042   1.496   2.666  0.9118 -1.7714 -0.6687
14016SOL    HW243470   2.190   1.496   2.636  1.1770  3.0378 -0.1722
14017SOL     OW43471   6.642   6.876   8.397 -0.2866 -0.2315 -0.2775
14017SOL    HW143472   6.672   6.868   8.488 -0.8329 -3.6222 -0.2509
14017SOL    HW243473   6.701   6.939   8.357  0.5536  0.6633  2.1675
14018SOL     OW43474   7.252   9.193   3.159 -0.4079  0.1146 -0.1398
14018SOL    HW143475   7.172   9.165   3.203  0.8985  0.4215  2.6835
14018SOL    HW243476   7.279   9.272   3.207  0.0148  1.8250 -2.9935
14019SOL     OW43477   5.691   0.701   5.925  0.1605 -0.3148 -0.4163
14019SOL    HW143478   5.755   0.771   5.939  0.4725 -0.6563 -0.1355
14019SOL    HW243479   5.664   0.713   5.834 -0.8433  1.0390  0.0219
14020SOL     OW43480   1.921   5.419   6.792 -0.0310  0.2084  0.0506
14020SOL    HW143481   1.963   5.334   6.780 -1.1132 -0.2761 -0.4901
14020SOL    HW243482   1.960   5.475   6.725 -1.4179 -0.7084 -1.5922
14021SOL     OW43483   1.450   0.567   8.069  0.0951  0.0539 -0.1318
14021SOL    HW143484   1.497   0.635   8.116  1.6537 -0.3995 -0.9921
14021SOL    HW243485   1.358   0.580   8.094  0.5287  1.5943  0.7717
14022SOL     OW43486   1.941   3.914   6.961 -0.0207  0.0142 -0.1453
14022SOL    HW143487   2.012   3.951   6.909  1.1905 -0.3899  1.1692
14022SOL    HW243488   1.975   3.911   7.050 -0.4978 -3.1411  0.0487
14023SOL     OW43489   0.096   0.531   5.052 -0.2859  0.2984  0.2003
14023SOL    HW143490   0.098   0.442   5.017  1.0590 -0.3918  1.9344
14023SOL    HW243491   0.036   0.527   5.126  1.8722  0.1008  2.0242
14024SOL     OW43492   5.839   5.306   1.983 -0.6800  0.3162  0.1475
14024SOL    HW143493   5.813   5.377   2.040 -1.5456 -0.9827  1.4293
14024SOL    HW243494   5.780   5.311   1.908 -0.0734  1.5309 -0.2664
14025SOL     OW43495   6.242   7.678   7.948 -0.0108 -0.3155 -0.4873
14025SOL    HW143496   6.244   7.771   7.923  0.4300  0.1863  1.3130
14025SOL    HW243497   6.150   7.653   7.939 -0.0777  0.1700 -1.3366
14026SOL     OW43498   8.167   4.235   8.640  0.0924  0.0929  0.3226
14026SOL    HW143499   8.075   4.214   8.654  0.2554  0.1337  1.5567
14026SOL    HW243500   8.211   4.208   8.721  1.0054  0.9796  0.1456
14027SOL     OW43501   6.383   5.182   7.561  0.4124  0.2459 -0.4033
14027SOL    HW143502   6.353   5.150   7.646 -1.3099  1.5103 -0.4837
14027SOL    HW243503   6.325   5.139   7.498  0.9905  0.1303 -0.8649
14028SOL     OW43504   4.760   4.529   6.095  0.4463 -0.4089  0.1313
14028SOL    HW143505   4.761   4.625   6.089 -1.3406 -0.3152  0.6605
14028SOL    HW243506   4.704   4.501   6.022  0.9862 -1.0592 -0.0382
14029SOL     OW43507   7.975   9.245   3.337 -0.4038 -0.1073  0.0524
14029SOL    HW143508   7.925   9.306   3.393 -0.1251  0.2155 -0.0467
14029SOL    HW243509   7.918   9.169   3.328 -1.2541  0.5981 -0.7559
14030SOL     OW43510   5.116   0.025   1.573 -0.2201 -0.1481  0.0951
14030SOL    HW143511   5.097   0.038   1.666  0.0953 -0.0694  0.1496
14030SOL    HW243512   5.051  -0.040   1.545 -0.3254 -0.1637  0.3659
14031SOL     OW43513   7.652   4.412   4.133  0.5034 -0.5863 -0.0266
14031SOL    HW143514   7.596   4.465   4.190  2.7466  1.0147  0.8669
14031SOL    HW243515   7.697   4.353   4.193  0.9151 -0.7707 -0.5145
14032SOL     OW43516   4.996   6.320   7.589  0.0410 -1.2232  0.0595
14032SOL    HW143517   5.026   6.274   7.511  0.0716 -1.9855  0.5113
14032SOL    HW243518   4.916   6.276   7.615 -2.8262  2.0422 -2.2929
14033SOL     OW43519   7.204   2.184   7.468 -0.0232 -0.2023  0.3193
14033SOL    HW143520   7.118   2.227   7.468 -0.0338 -0.2232  0.5955
14033SOL    HW243521   7.200   2.124   7.394 -0.5491 -0.8091  0.8252
14034SOL     OW43522   7.976   1.220   2.312  0.8631 -0.1557  0.5899
14034SOL    HW143523   7.967   1.311   2.284 -0.4861 -0.6472 -0.7310
14034SOL    HW243524   7.983   1.224   2.407 -2.0877  1.2184  0.8487
14035SOL     OW43525   5.886   7.406   2.838  0.6126  0.0047 -0.4896
14035SOL    HW143526   5.829   7.368   2.771 -0.7773 -0.6957  1.0026
14035SOL    HW243527   5.887   7.500   2.818 -1.6546  0.1451 -0.2082
14036SOL     OW43528   6.523   6.494   1.587 -0.1862 -0.4979 -0.0927
14036SOL    HW143529   6.541   6.425   1.523 -0.1943 -0.2975 -0.3143
14036SOL    HW243530   6.475   6.450   1.657 -1.0876 -0.5260 -0.7092
14037SOL     OW43531   8.816   0.694   9.146  0.5043 -0.8463  0.6640
14037SOL    HW143532   8.785   0.623   9.090  1.5716 -0.2013 -0.8413
14037SOL    HW243533   8.745   0.758   9.145  0.9894 -0.2523 -1.1335
14038SOL     OW43534   4.092   1.972   4.051  0.5686  0.0996 -1.0187
14038SOL    HW143535   4.012   2.023   4.056  0.3615 -0.2403 -0.8160
14038SOL    HW243536   4.104   1.936   4.139  0.4848 -0.5264 -1.2539
14039SOL     OW43537   8.479   1.192   9.237 -0.0319  0.3471  0.2921
14039SOL    HW143538   8.419   1.203   9.311 -1.7249  1.8144 -1.2104
14039SOL    HW243539   8.514   1.280   9.222  2.1672 -0.3764  0.7802
14040SOL     OW43540   1.565   6.663   2.558  0.7940  0.1381 -0.1521
14040SOL    HW143541   1.530   6.579   2.529  1.8387 -0.3346 -0.0910
14040SOL    HW243542   1.518   6.682   2.640  0.8556 -0.5966  0.0542
14041SOL     OW43543   0.403   7.395   2.190 -0.3446  0.1854 -0.6404
14041SOL    HW143544   0.329   7.449   2.162 -0.7018  0.1639  0.2096
14041SOL    HW243545   0.434   7.352   2.110 -0.4220  1.1985 -1.2313
14042SOL     OW43546   2.255   2.641   7.441  0.2634  0.1843  0.3723
14042SOL    HW143547   2.182   2.591   7.478 -0.9638  0.4259 -1.5620
14042SOL    HW243548   2.297   2.581   7.380  0.0748  0.8296 -0.4122
14043SOL     OW43549   2.762   7.123   7.827  0.6927  0.4105  0.0329
14043SOL    HW143550   2.760   7.128   7.923  1.3895  1.6110  0.0100
14043SOL    HW243551   2.699   7.055   7.805 -1.1627  1.6363  1.2313
14044SOL     OW43552   5.829   9.093   6.232  0.3107 -0.8030 -0.3488
14044SOL    HW143553   5.847   9.186   6.220 -1.8957 -0.1576  0.6977
14044SOL    HW243554   5.915   9.052   6.241  1.3114  1.5373  1.8175
14045SOL     OW43555   1.372   6.183   8.774  0.2604  0.2205 -0.7114
14045SOL    HW143556   1.413   6.196   8.688  0.2608  2.3046 -0.4615
14045SOL    HW243557   1.442   6.154   8.831  0.3547 -0.7593 -1.3083
14046SOL     OW43558   1.304   1.863   5.777 -0.0858  0.4657  0.2988
14046SOL    HW143559   1.323   1.774   5.748 -1.5891  0.1418  0.2258
14046SOL    HW243560   1.281   1.854   5.869  2.7308  1.2365  1.1910
14047SOL     OW43561   2.399   7.405   6.617  0.1243 -0.0292  0.2067
14047SOL    HW143562   2.389   7.325   6.565 -0.5700  0.2060 -0.0278
14047SOL    HW243563   2.484   7.395   6.660  0.5211 -0.4133 -0.6539
14048SOL     OW43564   3.185   9.252   9.187  0.3813  0.3285  0.3316
14048SOL    HW143565   3.136   9.312   9.244 -0.1746  0.9234 -0.7462
14048SOL    HW243566   3.151   9.165   9.209  0.7530  0.4539  1.4667
14049SOL     OW43567   3.983   7.569   1.197 -0.1087 -0.5283  0.1993
14049SOL    HW143568   4.046   7.566   1.125  0.0996  0.6338  0.3126
14049SOL    HW243569   3.965   7.662   1.210 -1.2835 -0.7991  0.6689
14050SOL     OW43570   7.076   4.448   0.552  0.7357 -0.8801 -0.5127
14050SOL    HW143571   7.044   4.502   0.625  1.7032 -1.9380  0.7364
14050SOL    HW243572   7.089   4.511   0.481  2.2913  0.6825  1.0384
14051SOL     OW43573   6.892   3.290   3.141  0.1249  0.1076  0.1241
14051SOL    HW143574   6.817   3.347   3.160  0.4379  0.2684  0.9495
14051SOL    HW243575   6.966   3.350   3.136  0.2920 -0.1149 -0.1034
14052SOL     OW43576   4.839   7.504   6.679 -0.7902 -0.4990 -0.2681
14052SOL    HW143577   4.840   7.426   6.736  0.6801 -0.6048 -0.3935
14052SOL    HW243578   4.922   7.547   6.697  0.3820 -1.2731 -3.3149
14053SOL     OW43579   7.498   7.121   3.514  0.6251 -0.2710  0.1220
14053SOL    HW143580   7.498   7.156   3.603 -0.0963  2.1536 -0.7486
14053SOL    HW243581   7.443   7.043   3.519  0.9330 -0.4172  1.8630
14054SOL     OW43582   9.245   1.415   4.488 -0.3287  0.2643  0.1640
14054SOL    HW143583   9.231   1.375   4.403 -0.0254 -1.2370  0.7900
14054SOL    HW243584   9.181   1.374   4.546  0.0833  0.5694  0.8618
14055SOL     OW43585   3.587   6.523   1.500 -0.6133 -0.0004 -0.2765
14055SOL    HW143586   3.640   6.567   1.567 -3.0259 -0.1404  1.8926
14055SOL    HW243587   3.634   6.538   1.419  3.3158 -1.1247  1.5783
14056SOL     OW43588   6.580   6.607   8.386 -0.0083 -0.3890  0.0667
14056SOL    HW143589   6.598   6.701   8.383  1.1849 -0.5826  0.5087
14056SOL    HW243590   6.574   6.580   8.295  0.7318 -0.0638 -0.0887
14057SOL     OW43591   1.396   7.117   5.673 -0.3617 -0.8241 -0.5872
14057SOL    HW143592   1.473   7.129   5.618  0.4611 -0.6853  0.5546
14057SOL    HW243593   1.422   7.049   5.735 -1.1768 -0.8033 -0.2146
14058SOL     OW43594   0.855   1.459   7.465 -0.1543  0.3421 -0.0733
14058SOL    HW143595   0.810   1.436   7.546 -3.1914  2.2393 -1.0879
14058SOL    HW243596   0.794   1.434   7.396  2.3809 -1.3000 -1.8901
14059SOL     OW43597   1.230   3.369   8.970 -0.2078  0.9265 -0.1001
14059SOL    HW143598   1.310   3.360   9.022  0.4452  1.4877 -0.9816
14059SOL    HW243599   1.160   3.341   9.030  0.1559  4.1104  2.0719
14060SOL     OW43600   7.687   2.513   1.750 -0.1378 -0.2338  0.2181
14060SOL    HW143601   7.672   2.604   1.725 -0.7808 -0.5193 -0.5182
14060SOL    HW243602   7.781   2.500   1.739  0.2374  0.7655  1.8961
14061SOL     OW43603   1.028   4.567   1.320  0.2981  0.2559 -0.9699
14061SOL    HW143604   1.070   4.487   1.353 -1.3807 -0.5379 -0.6501
14061SOL    HW243605   1.050   4.634   1.384  0.2906 -0.3702 -0.3008
14062SOL     OW43606   8.847   4.672   6.826  0.2315 -0.2369 -0.3363
14062SOL    HW143607   8.815   4.584   6.808 -0.1895 -0.3032  0.6567
14062SOL    HW243608   8.801   4.728   6.763 -0.2072 -0.6125 -0.3520
14063SOL     OW43609   4.903   3.544   4.402  0.2345 -0.3071  0.3288
14063SOL    HW143610   4.889   3.542   4.307  1.2902 -0.3791  0.1659
14063SOL    HW243611   4.998   3.541   4.412  0.1183 -0.6292  1.4037
14064SOL     OW43612   0.258   0.071   4.959 -0.8587  0.6021  0.3668
14064SOL    HW143613   0.315   0.102   4.889 -0.6250 -2.0916 -0.7326
14064SOL    HW243614   0.299  -0.010   4.990 -1.1576  1.4573  3.4045
14065SOL     OW43615   2.202   8.431   4.485 -0.1693 -0.1388  0.5189
14065SOL    HW143616   2.131   8.403   4.427 -1.0421  0.2802  1.3430
14065SOL    HW243617   2.182   8.522   4.505  0.0260 -0.3140  1.5842
14066SOL     OW43618   8.014   5.029   4.985 -0.1430 -0.0801 -0.1625
14066SOL    HW143619   8.033   5.118   4.954  1.1495 -0.4589 -0.5014
14066SOL    HW243620   7.930   5.037   5.029 -0.4936  1.1304 -0.9955
14067SOL     OW43621   7.831   0.723   7.670  0.5238  0.2378 -0.0239
14067SOL    HW143622   7.799   0.780   7.740  0.0114  1.6560 -1.3538
14067SOL    HW243623   7.780   0.749   7.593 -0.2147 -2.5042 -0.5699
14068SOL     OW43624   4.268   7.191   0.422 -0.1657 -0.0399 -0.1142
14068SOL    HW143625   4.287   7.175   0.330  2.2764 -1.1390  0.5037
14068SOL    HW243626   4.185   7.239   0.421  0.1328  0.6023 -2.8923
14069SOL     OW43627   7.331   8.936   1.008 -0.3051  0.1264 -0.0626
14069SOL    HW143628   7.412   8.900   0.970 -0.2732  0.3519 -0.2061
14069SOL    HW243629   7.263   8.874   0.981 -0.4016  0.6645 -1.0989
14070SOL     OW43630   4.019   7.422   0.728 -0.4271  0.3393  0.4743
14070SOL    HW143631   3.960   7.497   0.729 -0.0963  0.6037  0.5503
14070SOL    HW243632   4.072   7.433   0.649 -0.2977  0.2520  0.5470
14071SOL     OW43633   0.994   8.403   1.780 -0.2628  0.2530 -0.1204
14071SOL    HW143634   1.040   8.483   1.808 -0.3986  0.5204 -0.6582
14071SOL    HW243635   0.903   8.418   1.806 -0.2956  0.2867 -0.2572
14072SOL     OW43636   2.929   3.630   8.998  0.2937  0.2251 -0.1149
14072SOL    HW143637   3.013   3.660   8.961 -0.0241  0.1465 -0.9137
14072SOL    HW243638   2.870   3.627   8.924 -0.1184 -0.8472  0.2386
14073SOL     OW43639   7.418   7.061   6.976  0.6016  0.1406 -0.3645
14073SOL    HW143640   7.454   7.149   6.968  2.4598 -0.5641 -0.3497
14073SOL    HW243641   7.419   7.044   7.070  0.9600 -0.1639 -0.4218
14074SOL     OW43642   1.357   4.985   1.348 -0.2241 -0.1304  0.4873
14074SOL    HW143643   1.410   4.926   1.402 -0.1154  1.2692  1.9730
14074SOL    HW243644   1.341   5.061   1.404 -0.9402  0.9596 -1.1289
14075SOL     OW43645   5.100   7.366   3.564 -0.0882  0.0309 -0.1682
14075SOL    HW143646   5.187   7.327   3.563 -0.2783 -0.4527  0.8853
14075SOL    HW243647   5.072   7.359   3.655 -1.7303 -0.9508 -0.7036
14076SOL     OW43648   5.042   8.027   1.358  0.0157  0.7084  0.4276
14076SOL    HW143649   4.953   8.027   1.321 -0.5902 -0.1232  1.8325
14076SOL    HW243650   5.047   8.109   1.407  0.1326  0.8772  0.1401
14077SOL     OW43651   5.657   4.121   7.356  0.0890  0.7115  0.1030
14077SOL    HW143652   5.592   4.059   7.324  1.1310 -0.7660  0.7734
14077SOL    HW243653   5.739   4.072   7.358  0.8828  2.0041  0.9679
14078SOL     OW43654   7.473   6.560   3.364  0.8211  0.0748 -0.0265
14078SOL    HW143655   7.447   6.561   3.456  0.9445  0.7441  0.0055
14078SOL    HW243656   7.473   6.468   3.340  0.5099 -0.0820  0.5671
14079SOL     OW43657   3.620   0.428   6.076  0.1086  0.4296  0.4173
14079SOL    HW143658   3.658   0.459   5.994 -0.5197  0.5884  0.1864
14079SOL    HW243659   3.610   0.507   6.130 -0.1902  0.4328  0.3574
14080SOL     OW43660   2.938   5.861   5.659 -0.3020 -0.0576  0.5735
14080SOL    HW143661   2.997   5.934   5.644 -1.1503  0.2337 -1.8538
14080SOL    HW243662   2.989   5.783   5.638 -0.1733  0.0360  0.5428
14081SOL     OW43663   8.848   6.614   6.335  0.6179  0.4340  0.6265
14081SOL    HW143664   8.924   6.652   6.380  1.6720 -0.0798 -0.6589
14081SOL    HW243665   8.797   6.690   6.306  2.0022  0.8867 -0.7382
14082SOL     OW43666   3.784   8.698   5.202  0.2856 -0.3376  0.1741
14082SOL    HW143667   3.833   8.657   5.131 -0.8246  1.0228 -1.4376
14082SOL    HW243668   3.692   8.684   5.180 -0.1064 -0.8408  1.9417
14083SOL     OW43669   4.265   0.446   2.110  0.1886  0.2253 -0.3649
14083SOL    HW143670   4.356   0.474   2.117 -0.6485  3.5925 -1.1606
14083SOL    HW243671   4.219   0.495   2.179 -1.2012 -0.4063 -0.7954
14084SOL     OW43672   1.240   1.519   8.081 -0.3628  0.6410 -0.3667
14084SOL    HW143673   1.158   1.552   8.119 -1.5728  0.2971 -2.5204
14084SOL    HW243674   1.309   1.568   8.126 -1.8270  2.1621  0.3295
14085SOL     OW43675   3.991   5.836   2.798 -0.0826 -0.0321  0.3567
14085SOL    HW143676   4.007   5.805   2.709 -0.0926  1.6490 -0.2674
14085SOL    HW243677   3.963   5.758   2.846 -0.2440 -0.9425 -1.1541
14086SOL     OW43678   1.397   2.293   0.365 -0.8292 -0.0310 -0.2986
14086SOL    HW143679   1.351   2.298   0.448 -1.5146  0.6379 -0.7045
14086SOL    HW243680   1.460   2.365   0.368 -1.8368  0.9174 -0.9143
14087SOL     OW43681   6.464   3.712   8.269 -0.4280 -0.0072  0.3334
14087SOL    HW143682   6.519   3.790   8.278  0.7350 -0.8651  0.6962
14087SOL    HW243683   6.510   3.643   8.317 -0.5837 -1.3652 -1.3804
14088SOL     OW43684   9.175   4.382   7.530  1.2188 -0.5148 -0.2503
14088SOL    HW143685   9.098   4.341   7.568  2.0730 -0.3444  1.8155
14088SOL    HW243686   9.206   4.319   7.465  0.0722 -1.1566 -0.2007
14089SOL     OW43687   5.403   3.032   7.389 -0.4548 -0.0465 -0.1768
14089SOL    HW143688   5.421   3.033   7.295  0.9513  0.2368  0.0607
14089SOL    HW243689   5.344   2.958   7.402 -1.3401  0.4197 -1.3852
14090SOL     OW43690   1.212   8.615   6.268  0.2991  0.4935  0.1708
14090SOL    HW143691   1.262   8.694   6.247 -0.8362  1.3057  0.4156
14090SOL    HW243692   1.190   8.578   6.183 -0.8743  1.5721 -0.0313
14091SOL     OW43693   0.921   7.935   7.999  0.8167  0.0911 -0.0096
14091SOL    HW143694   0.940   8.020   8.039  1.1743 -0.5691  1.2549
14091SOL    HW243695   0.942   7.871   8.067 -0.6033 -0.9526 -0.5134
14092SOL     OW43696   7.459   1.898   0.062 -0.1917 -0.1129  0.0639
14092SOL    HW143697   7.452   1.910   0.157  0.4912  0.0033  0.1012
14092SOL    HW243698   7.414   1.974   0.025 -2.5131 -1.2921  0.2632
14093SOL     OW43699   2.798   6.707   2.496 -0.7235 -0.2221 -0.9988
14093SOL    HW143700   2.770   6.616   2.506 -1.1438 -0.2080 -1.9531
14093SOL    HW243701   2.799   6.741   2.585 -0.3168 -1.2257 -0.5983
14094SOL     OW43702   4.417   6.040   1.970  0.1107  0.8647  0.5290
14094SOL    HW143703   4.416   6.117   1.913 -1.1578  0.5467  0.0968
14094SOL    HW243704   4.367   6.067   2.047 -0.5624  0.3838  0.2600
14095SOL     OW43705   1.052   7.238   2.043  0.2489  0.1450  0.0002
14095SOL    HW143706   1.019   7.149   2.056  0.3139  0.2227  0.7353
14095SOL    HW243707   1.107   7.255   2.119  2.0843 -0.0097 -1.2102
14096SOL     OW43708   5.974   2.673   8.173  0.3311  0.2221  0.2999
14096SOL    HW143709   6.039   2.645   8.238 -0.6384 -2.0802  0.4048
14096SOL    HW243710   5.890   2.655   8.215 -0.3508  1.0640 -0.6594
14097SOL     OW43711   2.655   6.213   0.355  0.3906 -0.2173 -0.0103
14097SOL    HW143712   2.693   6.125   0.353  0.3947 -0.2087 -0.4264
14097SOL    HW243713   2.680   6.248   0.440  1.1983 -0.2689 -0.2162
14098SOL     OW43714   7.049   4.063   1.868  0.2734  0.3753 -0.0390
14098SOL    HW143715   7.021   3.974   1.846 -0.8555  0.6884  0.0210
14098SOL    HW243716   7.115   4.051   1.936  1.4364 -0.4658 -1.2815
14099SOL     OW43717   6.574   4.193   3.857  0.2335 -0.1654 -0.0748
14099SOL    HW143718   6.515   4.208   3.784  3.2828 -1.0947 -2.9372
14099SOL    HW243719   6.640   4.263   3.850  0.8856 -0.5583  1.5189
14100SOL     OW43720   3.055   7.007   6.648  0.7685  0.3744  0.1329
14100SOL    HW143721   3.014   7.084   6.688  1.7337  1.4289 -0.8282
14100SOL    HW243722   3.072   7.033   6.558  0.2060 -1.3497 -0.5150
14101SOL     OW43723   3.052   6.858   5.344 -0.0159  0.1893  0.0153
14101SOL    HW143724   3.032   6.950   5.325 -0.3688  0.2466  0.6505
14101SOL    HW243725   3.069   6.856   5.438  1.8001 -0.0796 -0.2851
14102SOL     OW43726   3.107   2.972   7.129 -0.0706  0.0762 -0.2123
14102SOL    HW143727   3.020   2.983   7.168  0.5411 -0.6522  1.4660
14102SOL    HW243728   3.160   3.040   7.169  0.8019 -1.2719  1.0396
14103SOL     OW43729   6.269   6.438   8.386  0.3904  0.2952  0.1639
14103SOL    HW143730   6.353   6.394   8.373  0.9832  1.7749 -1.5374
14103SOL    HW243731   6.225   6.389   8.455  2.1279 -1.2687  0.2053
14104SOL     OW43732   0.833   1.849   9.154 -0.0592  0.0687  0.2417
14104SOL    HW143733   0.889   1.821   9.227  1.2841 -0.1149 -0.8312
14104SOL    HW243734   0.753   1.798   9.165  0.2919 -0.2829  1.3358
14105SOL     OW43735   7.583   7.530   0.223  0.2486  0.2285 -0.0089
14105SOL    HW143736   7.642   7.601   0.196 -1.2877  1.4168 -0.3947
14105SOL    HW243737   7.500   7.574   0.241 -0.4999 -1.3819  0.6174
14106SOL     OW43738   7.886   0.694   0.660  0.0874 -0.1150  0.0008
14106SOL    HW143739   7.967   0.742   0.645 -0.3716  1.2890  1.6669
14106SOL    HW243740   7.912   0.602   0.657  1.0462  0.1702 -2.9917
14107SOL     OW43741   1.608   6.344   7.111 -0.2532  0.3539  0.3111
14107SOL    HW143742   1.602   6.439   7.122 -1.1912  0.2218  1.0596
14107SOL    HW243743   1.699   6.329   7.084 -0.0798  1.4526  0.2236
14108SOL     OW43744   1.137   4.074   4.734 -0.0266 -0.3960  0.2755
14108SOL    HW143745   1.221   4.029   4.722 -0.0803 -0.4502  0.1074
14108SOL    HW243746   1.155   4.140   4.801 -0.3550 -1.7928  1.8025
14109SOL     OW43747   7.001   1.044   3.227  0.1481 -0.2255  0.2189
14109SOL    HW143748   6.992   0.958   3.186  1.6934 -0.3288  0.0396
14109SOL    HW243749   6.993   1.026   3.321  0.0194 -0.4966  0.1589
14110SOL     OW43750   1.700   5.755   5.454  0.3860  0.0097  0.7172
14110SOL    HW143751   1.725   5.837   5.495 -1.2728  0.5863  0.6423
14110SOL    HW243752   1.672   5.780   5.366 -0.7489 -0.5372  0.9119
14111SOL     OW43753   1.640   3.838   5.666  0.0428  0.0586 -0.3761
14111SOL    HW143754   1.697   3.879   5.602  0.5336  0.5629  0.3655
14111SOL    HW243755   1.600   3.911   5.713  0.4433 -0.3039  0.5459
14112SOL     OW43756   0.634   4.505   7.383  0.1146 -0.1645 -0.0476
14112SOL    HW143757   0.560   4.500   7.444 -0.0074  2.3433  0.1308
14112SOL    HW243758   0.711   4.499   7.439  0.0040  0.7096  0.2200
14113SOL     OW43759   1.607   5.455   2.496 -0.2568 -0.0174  0.2794
14113SOL    HW143760   1.571   5.540   2.470  0.0869 -0.1445 -0.6756
14113SOL    HW243761   1.549   5.391   2.455  1.6153 -0.2344 -2.2683
14114SOL     OW43762   3.834   1.413   1.435  0.3857 -0.0130 -0.0708
14114SOL    HW143763   3.929   1.423   1.430  0.5156 -0.8547  0.6169
14114SOL    HW243764   3.809   1.379   1.349  0.7289  0.0471 -0.1960
14115SOL     OW43765   2.393   0.214   5.091  0.1995  0.1266  0.4630
14115SOL    HW143766   2.398   0.241   4.999  0.1206  0.0047  0.4229
14115SOL    HW243767   2.450   0.276   5.137  1.6994 -0.9043  0.0837
14116SOL     OW43768   4.066   6.726   1.594  0.1228  0.2952  0.2530
14116SOL    HW143769   3.986   6.674   1.599 -1.0469  2.0104  0.1355
14116SOL    HW243770   4.127   6.671   1.545 -1.1430 -0.8403 -0.1139
14117SOL     OW43771   8.904   1.309   6.061 -0.6393 -0.0320 -0.9171
14117SOL    HW143772   8.879   1.384   6.008  0.8865  0.5997 -0.7975
14117SOL    HW243773   8.919   1.345   6.149  2.8676  0.1743 -1.4493
14118SOL     OW43774   5.332   1.839   4.135 -0.0900 -0.2747 -0.3527
14118SOL    HW143775   5.242   1.850   4.167 -0.1753 -1.9587  0.1099
14118SOL    HW243776   5.337   1.895   4.058 -0.8083  1.6055  0.9002
14119SOL     OW43777   4.413   3.368   9.078  0.7586 -0.2911 -0.0527
14119SOL    HW143778   4.455   3.324   9.003 -1.1921 -0.4512 -1.1152
14119SOL    HW243779   4.340   3.310   9.102 -1.1191  1.6827 -0.6796
14120SOL     OW43780   0.276   7.780   5.507  0.3661  0.2209  0.4478
14120SOL    HW143781   0.297   7.722   5.434 -0.5323 -0.7998  0.9683
14120SOL    HW243782   0.333   7.750   5.578  0.3225  0.3668  0.5439
14121SOL     OW43783   6.616   6.013   4.356  0.2604  0.4597 -0.4380
14121SOL    HW143784   6.632   5.919   4.361  0.5101  0.5649  1.2221
14121SOL    HW243785   6.540   6.022   4.299  0.7154 -0.6782 -1.2558
14122SOL     OW43786   8.555   9.247   3.547 -0.3357 -0.3214 -0.4885
14122SOL    HW143787   8.464   9.224   3.525 -0.7349  0.8828 -0.1546
14122SOL    HW243788   8.594   9.163   3.572 -2.2835 -0.4884  2.5744
14123SOL     OW43789   3.291   3.229   6.754 -0.5259  0.3052 -0.6841
14123SOL    HW143790   3.333   3.312   6.779 -1.4618  0.8351 -0.7990
14123SOL    HW243791   3.217   3.256   6.698  0.1944 -0.7099 -2.1964
14124SOL     OW43792   5.452   0.914   5.205  0.4346 -0.5298  0.0928
14124SOL    HW143793   5.520   0.924   5.272  0.9527  0.0896 -0.5055
14124SOL    HW243794   5.494   0.863   5.136  1.2997  2.1289 -1.5329
14125SOL     OW43795   2.411   0.491   3.039  0.1620  0.1586  0.4828
14125SOL    HW143796   2.428   0.547   3.115 -0.3628  1.0954 -0.0739
14125SOL    HW243797   2.400   0.552   2.966 -1.8625 -0.5811  0.1172
14126SOL     OW43798   6.890   1.592   1.365  0.4738 -0.6420  0.4698
14126SOL    HW143799   6.918   1.684   1.357 -0.6578 -0.2111  1.1630
14126SOL    HW243800   6.850   1.572   1.281 -1.8591  0.4653  1.2157
14127SOL     OW43801   4.701   2.062   2.024  0.2458 -0.3150  0.1508
14127SOL    HW143802   4.706   1.989   2.085 -0.7897 -0.5521 -0.0256
14127SOL    HW243803   4.613   2.097   2.036  0.2046 -0.0379 -0.8264
14128SOL     OW43804   5.470   4.962   3.056 -0.4302  0.4069 -0.1883
14128SOL    HW143805   5.543   4.905   3.032 -0.8320 -0.6451  0.9912
14128SOL    HW243806   5.511   5.039   3.095  0.0578 -0.8267  1.8476
14129SOL     OW43807   7.254   3.797   2.858 -0.2000  0.3095 -0.3232
14129SOL    HW143808   7.311   3.859   2.903 -1.4600  1.6844 -0.5356
14129SOL    HW243809   7.277   3.712   2.895  1.1682  0.9659  0.4136
14130SOL     OW43810   4.448   7.737   4.801  0.3002  0.3977  0.0798
14130SOL    HW143811   4.527   7.750   4.853  0.5326  1.2107 -0.4631
14130SOL    HW243812   4.378   7.726   4.866  0.9482 -1.0418  0.5667
14131SOL     OW43813   8.882   3.705   2.278 -0.0283 -0.0343 -0.1778
14131SOL    HW143814   8.890   3.785   2.226  3.0040 -0.2789 -0.2591
14131SOL    HW243815   8.884   3.736   2.369 -1.3216  0.1106 -0.1817
14132SOL     OW43816   4.196   2.680   7.017 -0.4256 -0.4123  0.2075
14132SOL    HW143817   4.170   2.633   7.097 -0.7688  0.4748  0.6347
14132SOL    HW243818   4.127   2.661   6.954 -1.0568  0.2704  0.6810
14133SOL     OW43819   4.782   6.080   9.059 -0.1123 -0.2037  0.1691
14133SOL    HW143820   4.817   6.028   9.131  0.4342  0.7942  0.6469
14133SOL    HW243821   4.730   6.018   9.008  2.0785 -1.7001 -0.3916
14134SOL     OW43822   7.675   5.967   3.251 -0.4850  0.5563  0.1537
14134SOL    HW143823   7.731   5.898   3.285 -1.2150  0.3739  1.0185
14134SOL    HW243824   7.728   6.046   3.257 -0.3423  0.4002  1.0381
14135SOL     OW43825   8.365   3.783   8.877  0.1685  0.8401 -0.7807
14135SOL    HW143826   8.424   3.803   8.804 -0.5946  2.2074 -1.0536
14135SOL    HW243827   8.411   3.815   8.955  0.0847  1.2737 -0.9093
14136SOL     OW43828   7.748   6.001   7.651 -0.6341  0.7382 -0.2446
14136SOL    HW143829   7.728   6.093   7.630 -2.0232  0.2933 -0.9741
14136SOL    HW243830   7.681   5.977   7.715 -0.0041  0.3459  0.2729
14137SOL     OW43831   1.195   8.273   0.464  0.2262  0.5239  0.3595
14137SOL    HW143832   1.099   8.272   0.467  0.2162 -0.2857 -0.0454
14137SOL    HW243833   1.220   8.340   0.528 -0.5420 -1.0301  2.4011
14138SOL     OW43834   3.542   8.122   7.323  0.0097  0.0739  0.4911
14138SOL    HW143835   3.524   8.082   7.238 -0.1269  1.0397  0.0556
14138SOL    HW243836   3.493   8.069   7.385 -0.0949 -0.4889 -0.0659
14139SOL     OW43837   4.604   7.459   5.128  0.4083  0.3105 -0.1267
14139SOL    HW143838   4.641   7.402   5.196  0.3683 -1.9466 -1.8963
14139SOL    HW243839   4.520   7.419   5.106 -0.3817  1.9874 -0.3745
14140SOL     OW43840   3.255   5.151   0.239 -0.2517 -0.6681 -0.2457
14140SOL    HW143841   3.166   5.162   0.205  0.1342  2.6445 -0.4490
14140SOL    HW243842   3.310   5.146   0.160  0.1131  1.7061 -0.1994
14141SOL     OW43843   5.048   8.718   5.130  0.2688  0.0508  0.4864
14141SOL    HW143844   4.989   8.647   5.104  3.0777 -1.9434 -1.1226
14141SOL    HW243845   5.072   8.697   5.221 -0.4039  0.0641  0.6666
14142SOL     OW43846   7.514   4.149   4.966  0.3211  0.0119 -0.1847
14142SOL    HW143847   7.577   4.129   4.897  0.0979 -1.7784  0.0894
14142SOL    HW243848   7.532   4.240   4.989  0.8947  0.4240 -2.0689
14143SOL     OW43849   8.033   4.359   5.481 -0.5074 -0.6954 -0.8702
14143SOL    HW143850   7.967   4.396   5.423 -0.8649 -0.3975 -0.2838
14143SOL    HW243851   8.039   4.422   5.553  1.7500  0.2508 -1.7988
14144SOL     OW43852   1.887   6.971   1.017 -0.6680 -0.2159 -0.5724
14144SOL    HW143853   1.955   6.920   1.060 -1.5073 -1.8547 -1.0952
14144SOL    HW243854   1.891   6.945   0.925 -1.9774 -0.3620 -0.6156
14145SOL     OW43855   4.608   7.910   2.283 -0.8102  0.0645  0.0571
14145SOL    HW143856   4.649   7.876   2.203  0.1205  4.3659 -1.5567
14145SOL    HW243857   4.680   7.937   2.339 -1.4808 -0.1319  1.0520
14146SOL     OW43858   5.581   1.236   2.683 -0.2590 -0.1984  0.0727
14146SOL    HW143859   5.603   1.271   2.769  2.3088 -2.4414  0.4330
14146SOL    HW243860   5.584   1.141   2.693  1.6992 -0.5576 -2.7911
14147SOL     OW43861   9.203   8.721   8.985 -0.1170 -0.2106  0.3977
14147SOL    HW143862   9.166   8.766   8.909  1.1078  1.3567  0.6867
14147SOL    HW243863   9.238   8.791   9.039  3.0427 -1.5619  0.2830
14148SOL     OW43864   2.563   8.573   8.911  0.3182 -0.1416 -0.8162
14148SOL    HW143865   2.598   8.653   8.871  0.1655  0.0024 -0.6614
14148SOL    HW243866   2.525   8.602   8.993 -1.3068 -0.0798 -1.5509
14149SOL     OW43867   5.374   2.162   5.373 -0.1394 -0.0275 -0.1178
14149SOL    HW143868   5.281   2.181   5.386  0.0328  1.7729 -1.2423
14149SOL    HW243869   5.375   2.096   5.304 -0.5644  0.8441 -0.9826
14150SOL     OW43870   3.892   7.944   2.824 -0.0583 -0.0730 -0.2918
14150SOL    HW143871   3.860   7.943   2.914  1.3135  0.1859  0.2225
14150SOL    HW243872   3.919   7.853   2.807 -0.4463 -0.1512 -0.4893
14151SOL     OW43873   7.294   7.107   8.348  0.6214 -0.2359 -0.0040
14151SOL    HW143874   7.327   7.049   8.279 -0.2546 -0.1797 -0.4738
14151SOL    HW243875   7.342   7.189   8.335  2.1467 -0.9207  0.8925
14152SOL     OW43876   4.137   8.467   4.491  0.6235 -0.1285  0.0581
14152SOL    HW143877   4.045   8.494   4.500  0.7107 -0.3809  2.6406
14152SOL    HW243878   4.187   8.541   4.526  1.5709  0.6502 -2.7383
14153SOL     OW43879   0.762   7.849   3.054  0.2172  0.7481 -0.1607
14153SOL    HW143880   0.775   7.810   2.968  1.5501  0.0887  0.3064
14153SOL    HW243881   0.851   7.872   3.083 -0.1149  0.1846  1.3820
14154SOL     OW43882   8.050   5.348   2.194 -0.6215  0.6915  0.3354
14154SOL    HW143883   8.088   5.319   2.277  1.7194 -0.8614 -1.1585
14154SOL    HW243884   8.042   5.269   2.142 -2.5099  1.5596 -0.8067
14155SOL     OW43885   2.593   8.655   8.007 -0.2372 -0.5120 -0.7097
14155SOL    HW143886   2.606   8.632   8.099 -1.1086 -3.1640 -1.1387
14155SOL    HW243887   2.645   8.590   7.959  0.0128  0.6647 -2.1215
14156SOL     OW43888   7.641   1.682   6.805  0.4118 -0.0740 -0.3161
14156SOL    HW143889   7.703   1.666   6.734  0.6892 -3.3859  0.5185
14156SOL    HW243890   7.560   1.706   6.761  0.9185 -0.7887 -1.7058
14157SOL     OW43891   2.983   6.612   0.778  0.3360 -0.0590  0.3711
14157SOL    HW143892   2.921   6.636   0.709  1.4147  0.7227 -0.3707
14157SOL    HW243893   2.931   6.610   0.858 -0.4619  1.7225 -0.0472
14158SOL     OW43894   8.282   4.264   4.951  0.1918  0.0902 -0.7573
14158SOL    HW143895   8.351   4.214   4.995  0.0268  2.0631  2.0013
14158SOL    HW243896   8.320   4.289   4.867  1.1634 -2.4914 -1.1601
14159SOL     OW43897   1.834   5.246   5.171  0.0753  0.4167 -1.0493
14159SOL    HW143898   1.917   5.210   5.200  0.6810  3.2406  1.1654
14159SOL    HW243899   1.767   5.191   5.212  0.8778 -0.2711 -0.6543
14160SOL     OW43900   1.000   6.595   5.132  0.2777  0.5498 -0.1255
14160SOL    HW143901   1.061   6.670   5.128 -0.9339  1.5339 -3.5886
14160SOL    HW243902   1.049   6.523   5.094  0.7626  0.0278  1.3968
14161SOL     OW43903   0.228   6.366   3.480  0.1021  0.1982  0.1315
14161SOL    HW143904   0.237   6.422   3.558 -0.8472  1.2184 -0.4765
14161SOL    HW243905   0.141   6.386   3.445  0.1723 -0.8784 -0.7257
14162SOL     OW43906   6.333   3.979   5.355  0.5645  0.2532  0.2024
14162SOL    HW143907   6.268   3.983   5.285  1.1410  0.1212 -0.3508
14162SOL    HW243908   6.412   3.945   5.312  1.4223  1.7488  0.5387
14163SOL     OW43909   7.471   2.140   1.656  0.2579 -0.0689 -0.0471
14163SOL    HW143910   7.386   2.142   1.612  0.3469 -2.3280 -0.4152
14163SOL    HW243911   7.523   2.078   1.604  2.3375  1.6557 -0.1559
14164SOL     OW43912   7.225   2.887   7.368 -0.2702 -0.0346  0.4665
14164SOL    HW143913   7.282   2.823   7.410 -0.0101  0.0497  0.2479
14164SOL    HW243914   7.140   2.874   7.409 -0.2455 -0.5845  0.3530
14165SOL     OW43915   5.836   9.006   5.785  0.4667 -0.3062 -0.4522
14165SOL    HW143916   5.823   9.037   5.695 -1.5733 -1.6172 -0.6749
14165SOL    HW243917   5.783   9.064   5.839  1.4843  0.3170 -0.0843
14166SOL     OW43918   2.603   7.979   3.931 -0.1737  0.2018  0.5242
14166SOL    HW143919   2.628   7.903   3.983 -0.7921  0.1641  0.7697
14166SOL    HW243920   2.509   7.988   3.945 -0.4120  0.0211 -0.8183
14167SOL     OW43921   3.286   7.449   1.387  0.0257  0.0349 -0.6852
14167SOL    HW143922   3.246   7.430   1.472  0.3872  0.6351 -0.3729
14167SOL    HW243923   3.286   7.365   1.341  0.4941 -0.4688  0.1939
14168SOL     OW43924   5.060   4.332   3.155 -0.0667  0.1371 -0.2221
14168SOL    HW143925   5.124   4.393   3.191  0.8612 -1.0818  0.2790
14168SOL    HW243926   5.101   4.300   3.075 -0.6418  0.3259 -0.5960
14169SOL     OW43927   6.500   2.834   4.107  0.5375  0.0620  0.2371
14169SOL    HW143928   6.416   2.825   4.064  1.5368 -1.4817 -1.5313
14169SOL    HW243929   6.556   2.879   4.043  1.6116 -0.7700  0.5514
14170SOL     OW43930   5.390   1.601   8.745 -0.2742 -0.2146  0.6505
14170SOL    HW143931   5.400   1.510   8.770  3.0999 -0.5347 -1.2135
14170SOL    HW243932   5.448   1.649   8.805  1.2475  0.0571 -0.9363
14171SOL     OW43933   6.014   0.626   1.280 -0.4954  0.4298 -0.3730
14171SOL    HW143934   6.061   0.636   1.363  0.7241  1.0443 -1.1149
14171SOL    HW243935   6.077   0.653   1.213 -1.5838  0.3069 -1.4790
14172SOL     OW43936   8.803   6.490   0.486  0.4822  0.1547  0.3325
14172SOL    HW143937   8.731   6.532   0.534  0.0396  0.7611 -0.8204
14172SOL    HW243938   8.882   6.535   0.516  0.1603  0.8387  0.1598
14173SOL     OW43939   8.132   1.713   1.622 -0.3505  0.2051 -0.3073
14173SOL    HW143940   8.056   1.665   1.589 -0.5608 -0.4938  1.1023
14173SOL    HW243941   8.098   1.800   1.642 -0.3940  0.3958 -1.1877
14174SOL     OW43942   9.032   7.960   6.192 -0.1504 -0.5665  0.4125
14174SOL    HW143943   8.943   7.942   6.160 -0.2071 -3.1787  1.7518
14174SOL    HW243944   9.085   7.969   6.112 -1.4054 -0.1368 -0.3973
14175SOL     OW43945   6.825   7.810   8.858  0.3410 -0.4453  0.7031
14175SOL    HW143946   6.812   7.783   8.949 -1.7856 -2.7898 -0.1685
14175SOL    HW243947   6.855   7.731   8.814 -1.1579 -0.1071 -1.0573
14176SOL     OW43948   7.174   3.577   5.073  0.6455  0.1297  0.1560
14176SOL    HW143949   7.174   3.560   4.978  2.1202  2.2819 -0.3118
14176SOL    HW243950   7.252   3.631   5.087 -0.8166  1.8777  2.1948
14177SOL     OW43951   7.531   7.392   2.630 -0.2246 -0.0070 -0.1701
14177SOL    HW143952   7.555   7.384   2.538  2.0174 -0.0551  0.3596
14177SOL    HW243953   7.593   7.456   2.665 -0.8275 -0.2386  1.3923
14178SOL     OW43954   9.075   7.517   4.729 -0.5026  0.1097  0.1493
14178SOL    HW143955   8.985   7.496   4.753  0.1200 -1.3750  1.3345
14178SOL    HW243956   9.087   7.608   4.756 -1.4416  0.1003  0.6204
14179SOL     OW43957   2.401   3.081   7.517  0.1732  0.1329  0.2956
14179SOL    HW143958   2.454   3.160   7.506  2.4840 -1.2320  0.9319
14179SOL    HW243959   2.456   3.022   7.566 -1.9399 -1.4968  0.8619
14180SOL     OW43960   6.748   8.986   5.200 -0.4931  0.2578  0.0451
14180SOL    HW143961   6.660   9.000   5.166 -0.6701 -2.7167 -1.0515
14180SOL    HW243962   6.803   8.976   5.122  0.7296  1.5223  0.7124
14181SOL     OW43963   1.359   4.921   7.463 -0.1917  0.4201 -0.5466
14181SOL    HW143964   1.374   4.967   7.381 -1.4753  2.4037  0.2449
14181SOL    HW243965   1.264   4.910   7.468 -0.1100  0.0090  0.5123
14182SOL     OW43966   4.123   7.329   8.155 -0.2036 -0.3377  0.1154
14182SOL    HW143967   4.156   7.392   8.219 -0.6206  0.0603 -0.0557
14182SOL    HW243968   4.142   7.243   8.193 -1.9225 -0.1382  1.5613
14183SOL     OW43969   0.420   7.732   8.047  0.2003 -0.5477 -0.0818
14183SOL    HW143970   0.509   7.751   8.017  0.1372 -1.1212 -0.6458
14183SOL    HW243971   0.397   7.649   8.006 -1.1237  0.2623 -1.0906
14184SOL     OW43972   0.054   5.542   6.157 -0.6964  0.1172 -0.3454
14184SOL    HW143973   0.101   5.517   6.236  0.4020  1.5223 -0.5217
14184SOL    HW243974   0.008   5.462   6.130  1.2127 -1.1891  0.0926
14185SOL     OW43975   4.154   7.972   4.099 -0.8070  0.1078  0.6202
14185SOL    HW143976   4.248   7.986   4.110 -0.6453 -0.5069  0.0591
14185SOL    HW243977   4.117   7.992   4.185 -0.2460  0.9997  0.6675
14186SOL     OW43978   7.811   3.673   2.223  0.4166 -0.3111 -0.4243
14186SOL    HW143979   7.792   3.702   2.312 -1.0160 -1.1317 -0.4399
14186SOL    HW243980   7.907   3.667   2.220  0.5927  1.3332  0.5138
14187SOL     OW43981   3.539   5.131   0.428 -0.6908 -0.1592 -0.2277
14187SOL    HW143982   3.594   5.054   0.418 -0.1787 -0.0196  1.1674
14187SOL    HW243983   3.576   5.196   0.368  1.3676  0.2721  1.3755
14188SOL     OW43984   1.731   7.558   5.272 -0.0191  0.2085  0.1767
14188SOL    HW143985   1.709   7.625   5.207  0.4538  1.9712  1.7724
14188SOL    HW243986   1.819   7.581   5.303  0.0455 -0.9865  0.9836
14189SOL     OW43987   7.301   8.794   0.275 -0.4285  0.2049  0.2566
14189SOL    HW143988   7.275   8.878   0.237  0.7907 -0.2179 -1.6515
14189SOL    HW243989   7.339   8.817   0.359 -1.1500  1.4373  0.2758
14190SOL     OW43990   8.981   4.004   2.813 -0.2827  0.0889 -0.0258
14190SOL    HW143991   9.061   3.983   2.766  0.5521  1.3798  0.7618
14190SOL    HW243992   9.010   4.046   2.893 -1.7600  0.9102  0.1236
14191SOL     OW43993   7.917   3.602   6.064  0.1957 -0.0019 -0.3392
14191SOL    HW143994   7.889   3.576   5.976  0.5579  0.0919 -0.4834
14191SOL    HW243995   7.882   3.690   6.074  0.6103  0.1960 -0.6004
14192SOL     OW43996   8.450   0.640   4.609 -0.1085 -0.0657 -0.0968
14192SOL    HW143997   8.450   0.736   4.611  0.8549 -0.0249 -0.9457
14192SOL    HW243998   8.502   0.618   4.532 -1.1295 -1.2787 -0.4732
14193SOL     OW43999   7.342   2.363   4.431 -0.3706 -0.2781  0.3172
14193SOL    HW144000   7.247   2.355   4.439 -0.4199  1.0830  1.4485
14193SOL    HW244001   7.357   2.373   4.337 -1.6330  2.1419  0.2940
14194SOL     OW44002   4.795   4.507   0.255  0.2221  0.5881 -0.5323
14194SOL    HW144003   4.825   4.430   0.207  1.5430  0.6015  0.1991
14194SOL    HW244004   4.729   4.547   0.199 -2.1312 -2.2079 -0.0021
14195SOL     OW44005   5.385   5.837   6.587  0.2465 -1.1702 -0.0047
14195SOL    HW144006   5.473   5.801   6.574  0.2890 -0.6094 -1.5089
14195SOL    HW244007   5.370   5.891   6.509 -1.4781 -1.3379  0.1783
14196SOL     OW44008   2.747   6.351   7.668 -0.3616 -0.0458 -0.1039
14196SOL    HW144009   2.773   6.364   7.760  0.6672  0.5094 -0.4547
14196SOL    HW244010   2.664   6.399   7.660 -0.4778 -0.1284  0.5489
14197SOL     OW44011   1.084   2.764   6.564  0.0539  0.1273 -0.1340
14197SOL    HW144012   1.089   2.724   6.651  1.7218 -0.9949 -0.6929
14197SOL    HW244013   1.154   2.723   6.515 -0.0739  1.6270 -1.6704
14198SOL     OW44014   3.289   9.017   4.887  0.3820 -0.0108 -0.8293
14198SOL    HW144015   3.374   9.056   4.865 -0.1721  2.4694  0.9916
14198SOL    HW244016   3.288   9.015   4.983 -1.1041 -1.2473 -0.8464
14199SOL     OW44017   5.685   4.044   2.598 -0.3042 -0.0447  0.1202
14199SOL    HW144018   5.646   4.090   2.673 -0.3292  2.7094 -1.4702
14199SOL    HW244019   5.611   4.020   2.543 -0.1008  1.0885 -0.6812
14200SOL     OW44020   0.728   2.602   7.506  0.0073 -0.4974  0.6727
14200SOL    HW144021   0.787   2.611   7.581 -1.1113 -0.5752  1.5941
14200SOL    HW244022   0.750   2.676   7.449 -0.2896  0.6161  1.9369
14201SOL     OW44023   0.309   6.320   3.144 -0.3328  0.8017 -0.4842
14201SOL    HW144024   0.236   6.260   3.161  0.8430 -0.5930 -0.1556
14201SOL    HW244025   0.370   6.269   3.091  1.4254  1.1360  1.1097
14202SOL     OW44026   8.019   7.528   2.077 -0.2357 -0.3197  0.4584
14202SOL    HW144027   7.973   7.452   2.043 -1.4484  0.7939 -0.5190
14202SOL    HW244028   7.954   7.598   2.076  1.1611  1.0296  0.1561
14203SOL     OW44029   1.174   5.377   5.970 -0.0454  0.0784 -0.0915
14203SOL    HW144030   1.079   5.368   5.977 -0.3557  2.3647 -0.6074
14203SOL    HW244031   1.190   5.472   5.969  2.1480 -0.2295 -1.0686
14204SOL     OW44032   3.723   6.772   8.240 -0.0011 -0.1448  0.1967
14204SOL    HW144033   3.762   6.858   8.226  0.3803 -0.5151 -1.1329
14204SOL    HW244034   3.762   6.741   8.322  0.5201  0.5808  0.2289
14205SOL     OW44035   4.710   8.815   7.298  0.4436  0.5205 -0.1103
14205SOL    HW144036   4.779   8.751   7.277  1.3168  2.0153 -2.0959
14205SOL    HW244037   4.702   8.811   7.393  1.1053 -1.8751 -0.0877
14206SOL     OW44038   8.867   0.091   1.625  0.4434 -0.3264  0.1170
14206SOL    HW144039   8.819   0.016   1.592 -0.0052  0.6400 -1.5843
14206SOL    HW244040   8.958   0.075   1.599  0.2093  0.0836 -1.0230
14207SOL     OW44041   8.806   5.066   7.861 -0.0515 -0.9421  0.2944
14207SOL    HW144042   8.883   5.088   7.809 -1.8432  1.3060 -1.6734
14207SOL    HW244043   8.757   5.005   7.806 -0.5843 -0.8228  0.6295
14208SOL     OW44044   6.573   4.021   0.436  0.2149  0.3845  0.2458
14208SOL    HW144045   6.640   4.088   0.431 -0.2970  0.9751  1.0529
14208SOL    HW244046   6.619   3.939   0.420  1.2731  0.7011  1.4759
14209SOL     OW44047   7.135   0.915   4.506  0.6943  0.0501 -0.0711
14209SOL    HW144048   7.185   0.987   4.545 -0.1941  1.2013 -1.0087
14209SOL    HW244049   7.163   0.914   4.414  0.0851 -0.2700 -0.2533
14210SOL     OW44050   2.194   1.071   3.240  0.4684  0.1835  0.4872
14210SOL    HW144051   2.164   1.129   3.170  0.6478  0.9283  1.0073
14210SOL    HW244052   2.184   0.983   3.204 -1.7678  0.4048  0.4104
14211SOL     OW44053   8.779   5.382   0.950 -0.3528  0.0703  0.4907
14211SOL    HW144054   8.860   5.405   0.906 -0.6049 -0.9451 -0.5554
14211SOL    HW244055   8.755   5.460   1.000  0.4129  0.9379 -0.4689
14212SOL     OW44056   5.246   1.844   0.783 -0.3240 -0.4078 -0.8011
14212SOL    HW144057   5.193   1.781   0.832 -0.2929  0.5691  0.5482
14212SOL    HW244058   5.337   1.821   0.805 -0.3292  0.5634  0.3475
14213SOL     OW44059   8.547   0.268   2.620 -0.4940 -0.0073  0.1928
14213SOL    HW144060   8.607   0.341   2.633  0.2627 -0.9556  2.5583
14213SOL    HW244061   8.604   0.194   2.597 -1.1761 -0.0748 -1.4223
14214SOL     OW44062   3.122   0.890   1.003  0.2199  0.0538  0.3508
14214SOL    HW144063   3.142   0.874   0.910 -0.5059  0.2631  0.1550
14214SOL    HW244064   3.029   0.908   1.004 -0.3263 -2.4045  1.4225
14215SOL     OW44065   4.575   5.726   0.863  0.2618  0.3308  0.5196
14215SOL    HW144066   4.573   5.694   0.773 -0.1106  0.2188  0.5687
14215SOL    HW244067   4.618   5.812   0.856  0.2731  0.3051  0.2434
14216SOL     OW44068   4.390   6.204   1.751 -0.0951  0.5621 -0.7626
14216SOL    HW144069   4.349   6.287   1.772  1.4863  0.7489  2.0723
14216SOL    HW244070   4.481   6.227   1.729  1.5968 -0.4686  4.0189
14217SOL     OW44071   4.628   4.503   7.612 -0.0559  0.5879 -0.6617
14217SOL    HW144072   4.612   4.410   7.625 -3.0045  0.7607 -2.2931
14217SOL    HW244073   4.643   4.537   7.700 -1.0052 -1.1067  0.2002
14218SOL     OW44074   5.136   3.343   0.698  0.3778 -0.0596 -0.6722
14218SOL    HW144075   5.062   3.333   0.759  0.6319  0.4528 -0.2724
14218SOL    HW244076   5.213   3.330   0.753  0.6146  0.5852 -0.8488
14219SOL     OW44077   4.819   6.252   1.094  0.1470  0.8924 -0.6853
14219SOL    HW144078   4.897   6.205   1.065 -0.7138  0.4194 -2.3273
14219SOL    HW244079   4.754   6.235   1.026 -2.0912 -0.4396  1.6148
14220SOL     OW44080   4.597   5.620   0.593  0.2830  0.6782  0.2772
14220SOL    HW144081   4.690   5.638   0.583  0.6163 -0.6522  0.8774
14220SOL    HW244082   4.593   5.538   0.641 -1.2086  0.9811  0.7160
14221SOL     OW44083   7.944   0.801   1.203  0.5132 -0.7454  0.3764
14221SOL    HW144084   7.980   0.846   1.280  0.1255 -0.3167  0.3125
14221SOL    HW244085   8.011   0.814   1.135  0.9284 -1.2609  0.6812
14222SOL     OW44086   1.589   4.697   0.467 -0.3773  0.2541 -0.0503
14222SOL    HW144087   1.608   4.639   0.394  0.9481  0.0780  0.4269
14222SOL    HW244088   1.661   4.759   0.469 -1.2651  1.3271  0.0643
14223SOL     OW44089   6.790   2.939   1.327 -0.2255 -1.0502 -0.1447
14223SOL    HW144090   6.787   3.032   1.348  1.0067 -1.3765  1.6545
14223SOL    HW244091   6.793   2.936   1.231 -0.5643  0.7451 -0.2317
14224SOL     OW44092   6.109   3.896   6.615 -0.2476  0.0396  0.6833
14224SOL    HW144093   6.074   3.815   6.652  0.0398  0.3713  1.7273
14224SOL    HW244094   6.194   3.907   6.657  1.7970 -1.3866 -2.7162
14225SOL     OW44095   1.290   1.913   7.488  0.1569 -0.5793  0.4126
14225SOL    HW144096   1.236   1.849   7.442 -0.5346 -0.2644  0.7818
14225SOL    HW244097   1.365   1.862   7.520  0.3387 -0.9207 -0.5203
14226SOL     OW44098   0.067   3.151   4.570 -0.7245 -0.1557  0.0188
14226SOL    HW144099   0.033   3.073   4.526 -1.5975  0.7837 -1.0369
14226SOL    HW244100   0.162   3.142   4.564 -0.8058 -0.0880 -2.0867
14227SOL     OW44101   7.704   0.638   6.712  0.0721  0.1050  0.8569
14227SOL    HW144102   7.659   0.703   6.657  0.1597  0.6697  1.4311
14227SOL    HW244103   7.785   0.619   6.665 -0.2246 -0.0340  0.3923
14228SOL     OW44104   8.362   3.029   5.934 -0.2837 -0.4195  0.2035
14228SOL    HW144105   8.369   3.109   5.882 -0.6731 -0.4528  0.1002
14228SOL    HW244106   8.268   3.016   5.947 -0.1876  0.5210  2.3733
14229SOL     OW44107   2.452   1.839   3.149 -0.1527  0.1029  0.4850
14229SOL    HW144108   2.436   1.869   3.059 -0.8525 -0.6809  0.3400
14229SOL    HW244109   2.482   1.917   3.195  0.8899  0.3780 -0.5950
14230SOL     OW44110   4.051   2.764   8.390  0.6127  0.6493 -0.7273
14230SOL    HW144111   4.040   2.797   8.301 -1.8358 -1.1226 -1.1882
14230SOL    HW244112   3.963   2.757   8.425  1.5365  1.9772  2.1853
14231SOL     OW44113   0.270   3.632   9.036  0.1753 -0.2311 -0.2263
14231SOL    HW144114   0.261   3.711   8.983  2.6310 -0.0032 -0.4280
14231SOL    HW244115   0.232   3.655   9.120  1.2165  1.3557 -0.1442
14232SOL     OW44116   7.867   6.487   3.170 -0.3262  0.2028 -0.0167
14232SOL    HW144117   7.871   6.411   3.228 -1.5854  0.9789  1.1562
14232SOL    HW244118   7.891   6.561   3.226 -0.2219  0.8146 -0.8423
14233SOL     OW44119   0.406   0.607   3.892 -0.2387 -0.1140  0.9002
14233SOL    HW144120   0.418   0.515   3.868 -1.4548 -0.0124 -0.2088
14233SOL    HW244121   0.389   0.605   3.986 -0.8611 -1.0936  0.7789
14234SOL     OW44122   2.569   6.530   8.831 -0.4765  0.3634 -0.3723
14234SOL    HW144123   2.567   6.586   8.753 -2.2694  1.6099  0.5098
14234SOL    HW244124   2.588   6.442   8.796 -0.2753  1.0352 -2.0873
14235SOL     OW44125   3.189   3.886   5.392  0.1606 -0.0679  0.7645
14235SOL    HW144126   3.105   3.917   5.360  0.4162 -1.6907 -1.8098
14235SOL    HW244127   3.170   3.848   5.477 -1.0987  2.1569  1.5552
14236SOL     OW44128   0.937   8.184   5.782 -0.3400 -0.1600 -0.7621
14236SOL    HW144129   0.886   8.105   5.798  0.5871 -0.4593  1.1236
14236SOL    HW244130   1.028   8.153   5.779  0.1159  0.8631  0.8173
14237SOL     OW44131   0.345   4.352   3.955 -0.0895  0.2247 -0.1067
14237SOL    HW144132   0.368   4.430   3.904  1.0078  1.7079  2.4894
14237SOL    HW244133   0.314   4.386   4.039 -0.4690 -2.1338  0.7824
14238SOL     OW44134   6.458   0.834   7.601 -0.6789  0.0631  0.0992
14238SOL    HW144135   6.520   0.890   7.647 -2.1435  0.6799  1.4307
14238SOL    HW244136   6.427   0.773   7.668 -1.6917 -0.0595 -0.4552
14239SOL     OW44137   0.170   9.247   7.514  0.0546  0.3639  0.1665
14239SOL    HW144138   0.230   9.246   7.588  0.3664  1.1817 -0.0670
14239SOL    HW244139   0.131   9.160   7.513  1.9179 -0.5155 -0.2415
14240SOL     OW44140   6.130   4.848   8.034  0.1272  0.2017  0.3629
14240SOL    HW144141   6.041   4.866   8.004  0.6136  1.4983 -0.3772
14240SOL    HW244142   6.165   4.786   7.970 -0.0982  0.0125  0.4211
14241SOL     OW44143   0.311   8.939   8.926 -0.0006  0.2695 -0.3596
14241SOL    HW144144   0.293   8.983   9.010  0.2227 -0.7841  0.2503
14241SOL    HW244145   0.395   8.976   8.897 -0.1948  0.8123 -0.2540
14242SOL     OW44146   0.942   3.837   8.639  0.6293 -0.3393 -0.0798
14242SOL    HW144147   0.973   3.862   8.552  0.8484 -1.4154 -0.3319
14242SOL    HW244148   0.961   3.743   8.645 -0.7184 -0.5874  0.5732
14243SOL     OW44149   3.970   3.690   5.603  0.2283  0.0950  0.2804
14243SOL    HW144150   4.001   3.737   5.526 -2.2025 -0.2514 -0.9727
14243SOL    HW244151   3.942   3.759   5.664 -0.5095  0.3329 -0.3218
14244SOL     OW44152   4.386   2.214   4.550 -0.2942  0.4776  0.1833
14244SOL    HW144153   4.460   2.186   4.604  0.4934  1.0207 -0.5903
14244SOL    HW244154   4.391   2.161   4.471  0.9219  2.3377 -1.0747
14245SOL     OW44155   2.758   4.351   8.093  0.2542 -0.1297 -0.8465
14245SOL    HW144156   2.680   4.298   8.109 -0.1894  0.5143 -0.8408
14245SOL    HW244157   2.750   4.424   8.154 -0.0519  0.8893 -2.0544
14246SOL     OW44158   1.629   2.452   9.088  0.0781 -0.8343 -0.0885
14246SOL    HW144159   1.666   2.451   9.176 -1.2423  2.0941  0.6315
14246SOL    HW244160   1.699   2.486   9.032  0.3058 -0.8162  0.2069
14247SOL     OW44161   1.766   8.818   4.648 -0.2321 -0.7241  0.6587
14247SOL    HW144162   1.826   8.846   4.579  1.0038  1.0552  2.3190
14247SOL    HW244163   1.679   8.829   4.610  0.2406  3.3936  0.2981
14248SOL     OW44164   5.736   6.530   5.192  0.0631  0.2520  0.2781
14248SOL    HW144165   5.650   6.502   5.161 -0.3830 -0.0826  1.7648
14248SOL    HW244166   5.727   6.623   5.211  0.1252  0.2882  0.1339
14249SOL     OW44167   8.202   4.688   0.041 -0.1832 -0.0759  0.2094
14249SOL    HW144168   8.238   4.745  -0.027 -0.6351 -1.1004 -0.9272
14249SOL    HW244169   8.199   4.602   0.001 -0.1076 -0.7973  1.6809
14250SOL     OW44170   2.803   5.583   7.373 -0.1761  0.2350  0.2653
14250SOL    HW144171   2.731   5.641   7.348  0.3907  1.2604  0.9118
14250SOL    HW244172   2.773   5.543   7.455  0.0597  0.8366  0.6570
14251SOL     OW44173   2.267   3.479   2.289  0.2598 -0.4656  0.1403
14251SOL    HW144174   2.244   3.481   2.382  2.1205  0.5644  0.6338
14251SOL    HW244175   2.326   3.404   2.281  3.9431  2.0668  0.9122
14252SOL     OW44176   1.957   2.476   2.914 -0.5116 -0.5591  0.4614
14252SOL    HW144177   1.989   2.478   2.824 -1.2634 -1.5063  0.1502
14252SOL    HW244178   1.881   2.534   2.914  0.7989  1.2396  1.0628
14253SOL     OW44179   4.225   1.961   8.135 -0.1315 -0.7845 -1.1500
14253SOL    HW144180   4.185   1.994   8.054 -0.9089  0.6553 -0.2222
14253SOL    HW244181   4.151   1.932   8.188  0.3243 -1.0479 -0.6507
14254SOL     OW44182   2.113   8.584   0.231  0.0559 -0.3502 -0.2130
14254SOL    HW144183   2.118   8.639   0.309 -0.5388 -2.0238  1.0695
14254SOL    HW244184   2.204   8.570   0.206  0.2267  2.6725 -1.7337
14255SOL     OW44185   8.454   5.584   1.792 -0.4402  0.2533  0.7605
14255SOL    HW144186   8.386   5.611   1.854  0.5630 -0.1589  2.0892
14255SOL    HW244187   8.534   5.622   1.827  0.1931 -0.2110 -0.1540
14256SOL     OW44188   2.924   6.627   2.183  0.4232  0.5089  0.0193
14256SOL    HW144189   2.853   6.654   2.125  1.3799  1.4948 -0.7261
14256SOL    HW244190   2.893   6.546   2.223 -0.7399  0.4403 -0.9878
14257SOL     OW44191   1.538   7.269   6.729  0.1306 -0.1503  0.1624
14257SOL    HW144192   1.509   7.246   6.817 -0.3971 -0.6927 -0.1455
14257SOL    HW244193   1.626   7.305   6.741  0.1194 -0.3585  0.8904
14258SOL     OW44194   9.187   8.947   3.525  0.2160 -0.3356 -0.0924
14258SOL    HW144195   9.157   8.903   3.445 -0.0240 -1.7916  0.7569
14258SOL    HW244196   9.265   8.994   3.498  0.2359 -0.9356 -1.1555
14259SOL     OW44197   3.532   0.239   9.010 -0.0158  0.4428 -0.1984
14259SOL    HW144198   3.527   0.185   9.088  1.3175  0.9487  0.2616
14259SOL    HW244199   3.548   0.177   8.939 -0.5972  0.0433  0.0128
14260SOL     OW44200   8.891   8.334   3.806 -0.1539 -0.1638  0.2047
14260SOL    HW144201   8.835   8.337   3.884 -0.7953  1.8344 -0.2686
14260SOL    HW244202   8.836   8.370   3.736  0.8371 -0.7223 -0.8843
14261SOL     OW44203   7.179   8.025   1.841  0.7296  0.8793 -0.1722
14261SOL    HW144204   7.119   8.005   1.913  1.7690  1.3406  0.8658
14261SOL    HW244205   7.246   8.080   1.881  1.8146  0.4199 -1.2937
14262SOL     OW44206   0.191   9.249   1.143  0.1467  0.4451 -0.6846
14262SOL    HW144207   0.264   9.308   1.161 -0.5980  0.8099  1.4900
14262SOL    HW244208   0.118   9.285   1.193 -1.2931 -0.4507 -2.0063
14263SOL     OW44209   6.162   0.313   7.597 -0.2119 -0.0930  0.2905
14263SOL    HW144210   6.241   0.353   7.635  0.1848  0.3532 -0.9620
14263SOL    HW244211   6.172   0.220   7.615 -0.2268  0.1332  1.6024
14264SOL     OW44212   3.604   4.057   6.261 -0.1568 -0.0051  0.7051
14264SOL    HW144213   3.651   3.974   6.265  1.0016  0.5631 -0.3774
14264SOL    HW244214   3.662   4.115   6.212 -2.1343  0.6646 -0.9843
14265SOL     OW44215   6.043   1.885   6.946  0.2562  0.5714 -0.0939
14265SOL    HW144216   6.070   1.853   7.032 -0.1894  0.4804  0.0156
14265SOL    HW244217   6.102   1.842   6.885 -1.2976 -1.6985 -0.0968
14266SOL     OW44218   6.382   2.148   6.916 -0.3287 -0.0239 -0.2203
14266SOL    HW144219   6.430   2.085   6.970 -2.6371 -2.2081 -0.5589
14266SOL    HW244220   6.441   2.224   6.910  2.3645 -1.8990  0.6470
14267SOL     OW44221   5.825   1.591   2.932  0.1842  0.2339 -0.1578
14267SOL    HW144222   5.790   1.673   2.968  1.7685  1.4484 -1.2261
14267SOL    HW244223   5.861   1.616   2.847  4.9950 -0.4586  1.3902
14268SOL     OW44224   7.613   1.430   5.408  0.8903  0.0780  0.2908
14268SOL    HW144225   7.654   1.421   5.322 -0.5966 -0.5614 -0.3850
14268SOL    HW244226   7.522   1.404   5.394 -0.1731  2.8098  1.3870
14269SOL     OW44227   9.131   6.717   0.790 -0.3161  0.3808 -0.4020
14269SOL    HW144228   9.190   6.647   0.764 -0.6362 -0.2884  0.6034
14269SOL    HW244229   9.094   6.750   0.708 -0.3203 -0.7669 -0.8761
14270SOL     OW44230   1.149   3.914   2.751  0.3997  0.6158  0.1135
14270SOL    HW144231   1.239   3.913   2.783  1.1600 -1.8823 -1.8421
14270SOL    HW244232   1.111   3.833   2.785 -0.3216  0.4187 -1.1249
14271SOL     OW44233   2.714   2.697   7.350  0.7232  0.0496 -0.0117
14271SOL    HW144234   2.650   2.765   7.331  1.0732  0.0792 -1.1459
14271SOL    HW244235   2.777   2.739   7.408  0.8825  0.6669 -0.6193
14272SOL     OW44236   1.727   2.596   2.993  0.6744  0.6612  0.0583
14272SOL    HW144237   1.653   2.535   2.984  1.5577 -0.1901 -2.3481
14272SOL    HW244238   1.732   2.615   3.087 -1.3988 -0.7469  0.5142
14273SOL     OW44239   4.156   4.827   2.457 -0.2485 -0.1021 -0.0847
14273SOL    HW144240   4.080   4.771   2.472 -0.1425  0.3834  2.6074
14273SOL    HW244241   4.231   4.768   2.466 -0.1736  0.2342  1.8752
14274SOL     OW44242   3.540   0.644   6.199 -0.1655  0.3135  0.2350
14274SOL    HW144243   3.468   0.668   6.258 -1.5048  1.1815 -1.6729
14274SOL    HW244244   3.555   0.722   6.146  0.2610 -0.7655 -1.3041
14275SOL     OW44245   2.346   2.934   3.103 -0.7318  0.2114 -0.1716
14275SOL    HW144246   2.274   2.898   3.052 -3.5708  1.7323  2.3828
14275SOL    HW244247   2.389   2.858   3.142 -1.4413 -0.7122 -1.1330
14276SOL     OW44248   0.229   4.009   7.526  0.0152 -0.3451  0.2027
14276SOL    HW144249   0.218   4.017   7.432  1.0475  1.6703  0.1998
14276SOL    HW244250   0.259   3.919   7.540  0.0623 -0.5966 -1.3987
14277SOL     OW44251   5.308   6.563   7.226 -0.3750 -0.3308  0.1340
14277SOL    HW144252   5.307   6.473   7.195  0.5454  0.1564 -1.4353
14277SOL    HW244253   5.218   6.580   7.254 -1.1606 -0.9827 -1.8546
14278SOL     OW44254   5.226   2.025   7.019  0.0588 -0.5584  0.6930
14278SOL    HW144255   5.290   2.085   7.058  2.0790 -2.3565  0.3288
14278SOL    HW244256   5.172   1.996   7.093  1.1312 -0.7008  1.4543
14279SOL     OW44257   8.368   0.475   4.062  0.3557 -0.3873 -0.1635
14279SOL    HW144258   8.293   0.534   4.059  0.6810  0.1926  1.9468
14279SOL    HW244259   8.439   0.526   4.022  0.4039  0.3375  0.8016
14280SOL     OW44260   1.553   2.600   6.065 -0.1353 -0.2068  0.1489
14280SOL    HW144261   1.598   2.681   6.042  1.4942 -0.8390  0.8809
14280SOL    HW244262   1.540   2.606   6.159  1.4294 -1.3964  0.4957
14281SOL     OW44263   4.849   7.971   7.357 -0.0012  0.6866 -0.1686
14281SOL    HW144264   4.862   7.974   7.262 -1.5857 -0.1615 -0.4519
14281SOL    HW244265   4.850   7.878   7.378  0.5833  0.8774  0.7000
14282SOL     OW44266   5.922   9.151   2.992  0.1097  0.3666 -0.1886
14282SOL    HW144267   5.959   9.093   2.925 -0.9856  0.3482 -0.8018
14282SOL    HW244268   5.985   9.148   3.064  0.3567 -1.1413 -0.4283
14283SOL     OW44269   2.179   3.442   2.547  0.3000 -0.4669  0.5380
14283SOL    HW144270   2.087   3.463   2.558  0.1607 -1.3727  1.2007
14283SOL    HW244271   2.198   3.379   2.616  1.7848  0.7937  1.3443
14284SOL     OW44272   6.602   4.616   7.391  0.5279 -0.2058 -0.2864
14284SOL    HW144273   6.633   4.681   7.453 -0.7644  0.4487 -0.2864
14284SOL    HW244274   6.512   4.598   7.417  1.0448 -2.5639  0.1538
14285SOL     OW44275   4.944   4.245   8.991  0.2967  0.0685 -0.7520
14285SOL    HW144276   4.944   4.290   8.907  2.1322  0.8223 -0.4079
14285SOL    HW244277   4.852   4.231   9.012 -0.2087 -0.9429 -3.2765
14286SOL     OW44278   5.636   0.076   9.033 -0.5139 -0.3539  0.2054
14286SOL    HW144279   5.671   0.122   9.110 -4.2744  0.9242  1.3570
14286SOL    HW244280   5.623   0.144   8.968 -2.7023 -0.3523  0.5856
14287SOL     OW44281   3.102   4.075   0.421 -0.0472 -0.6061 -0.2236
14287SOL    HW144282   3.145   4.158   0.441  0.8498 -1.3185  0.8835
14287SOL    HW244283   3.089   4.078   0.326 -0.0432  0.7951 -0.2047
14288SOL     OW44284   1.581   8.222   0.081  0.4527 -0.0932 -0.0728
14288SOL    HW144285   1.601   8.203  -0.011  0.6006  0.2622 -0.1155
14288SOL    HW244286   1.648   8.174   0.130  0.7180  0.1750 -0.1726
14289SOL     OW44287   2.062   5.449   6.414  0.1939 -0.2024  0.7755
14289SOL    HW144288   2.071   5.367   6.462  3.1126  0.1820  1.0558
14289SOL    HW244289   2.132   5.505   6.447 -1.0972  2.0941 -0.0993
14290SOL     OW44290   1.446   6.000   6.464 -0.1104  0.5997 -0.3162
14290SOL    HW144291   1.372   6.038   6.416  1.9296  2.5455 -2.1793
14290SOL    HW244292   1.433   5.906   6.457 -1.1758  0.8362 -2.7635
14291SOL     OW44293   1.025   5.246   4.242  0.1612 -0.4711  0.3734
14291SOL    HW144294   1.089   5.236   4.172  0.2865  2.5284 -0.0750
14291SOL    HW244295   1.049   5.328   4.285 -3.6748  1.2625 -0.2940
14292SOL     OW44296   1.214   4.847   3.606 -0.4563  0.1411 -0.1172
14292SOL    HW144297   1.171   4.850   3.691 -0.2717  0.3419 -0.0298
14292SOL    HW244298   1.266   4.927   3.603 -0.1817 -0.0417 -0.2712
14293SOL     OW44299   5.114   3.172   2.560  0.1860  0.1951 -0.0046
14293SOL    HW144300   5.152   3.129   2.483 -1.2095  1.0420 -1.2107
14293SOL    HW244301   5.034   3.213   2.528 -1.2290 -0.6752  2.2452
14294SOL     OW44302   6.281   3.825   4.247 -0.1091  0.1858  0.0940
14294SOL    HW144303   6.277   3.920   4.246  0.8115  0.2629 -2.2639
14294SOL    HW244304   6.369   3.804   4.215 -0.6713 -1.4457 -0.4721
14295SOL     OW44305   8.580   4.565   4.045 -0.6997 -0.4368 -0.0568
14295SOL    HW144306   8.661   4.597   4.006 -0.6383 -0.3711  0.1249
14295SOL    HW244307   8.541   4.641   4.087  0.2243 -0.9021  1.7237
14296SOL     OW44308   5.356   5.014   6.379  0.5126  0.4802 -0.1013
14296SOL    HW144309   5.413   5.068   6.433  0.6320  0.3623 -0.1080
14296SOL    HW244310   5.380   5.037   6.289  1.3062 -0.3415 -0.1168
14297SOL     OW44311   5.696   7.933   8.382  0.2693 -0.9304 -0.2595
14297SOL    HW144312   5.613   7.896   8.413  0.2925 -0.4208  0.4297
14297SOL    HW244313   5.747   7.948   8.461  1.3906 -2.0511 -0.7287
14298SOL     OW44314   0.710   9.213   0.813  0.2963  0.5690  0.1316
14298SOL    HW144315   0.751   9.146   0.759  0.8821  0.1323  1.0799
14298SOL    HW244316   0.774   9.283   0.817  0.7458  0.1201  1.1632
14299SOL     OW44317   5.554   0.532   3.666 -0.1997  0.4486  0.0766
14299SOL    HW144318   5.510   0.473   3.727  1.4720 -1.6323 -0.6435
14299SOL    HW244319   5.492   0.541   3.593  0.3082 -2.1661 -0.7702
14300SOL     OW44320   4.601   1.750   4.764  0.1970 -0.4229  0.5042
14300SOL    HW144321   4.664   1.688   4.729 -0.2887  0.3622 -1.9371
14300SOL    HW244322   4.596   1.729   4.858  3.4666 -0.9885  0.6656
14301SOL     OW44323   4.911   4.545   6.694  0.5700  0.3849 -0.0878
14301SOL    HW144324   4.905   4.450   6.696  0.4022  0.4002  0.1308
14301SOL    HW244325   4.999   4.563   6.659 -0.1606  0.1729 -2.1975
14302SOL     OW44326   8.112   5.803   6.881 -0.4778  0.4706 -0.4362
14302SOL    HW144327   8.041   5.777   6.822  0.2765 -2.0273 -0.3444
14302SOL    HW244328   8.190   5.806   6.826 -0.1899  0.4598 -0.0323
14303SOL     OW44329   4.657   0.832   2.269  0.0701 -0.2952 -0.1726
14303SOL    HW144330   4.569   0.819   2.234 -0.1922 -2.2880  1.0523
14303SOL    HW244331   4.649   0.814   2.363  1.8922 -1.2409 -0.1390
14304SOL     OW44332   9.076   1.771   6.716  0.0739  0.6915  0.3157
14304SOL    HW144333   9.059   1.796   6.625 -0.6380 -0.4562  0.1030
14304SOL    HW244334   8.990   1.773   6.758  0.2925  0.5328  0.7763
14305SOL     OW44335   3.977   4.184   3.643 -0.6926  0.0999 -0.2618
14305SOL    HW144336   4.002   4.212   3.555 -2.0190  0.0361 -0.6747
14305SOL    HW244337   3.989   4.089   3.641  1.9129  0.3332  0.5257
14306SOL     OW44338   8.591   2.668   3.786 -0.2836 -0.1716  0.4323
14306SOL    HW144339   8.641   2.749   3.771 -1.1114  0.1622 -0.6596
14306SOL    HW244340   8.546   2.683   3.869 -0.3516  0.4629  0.2886
14307SOL     OW44341   5.963   6.151   4.647  0.1610 -0.1397  0.1503
14307SOL    HW144342   6.055   6.172   4.633  0.0324  0.4062  0.0862
14307SOL    HW244343   5.964   6.078   4.709  0.6185  0.2926  0.6633
14308SOL     OW44344   8.870   8.376   0.039 -0.7211  0.3251 -0.1792
14308SOL    HW144345   8.882   8.317   0.113  0.8666 -0.4228 -0.9723
14308SOL    HW244346   8.924   8.338  -0.031 -0.1879  2.3326 -0.9307
14309SOL     OW44347   0.079   7.594   8.460 -0.5288 -0.0107  0.2643
14309SOL    HW144348   0.101   7.566   8.548  0.8501 -0.5975 -0.2454
14309SOL    HW244349   0.163   7.613   8.419 -1.2073  1.2281 -0.6142
14310SOL     OW44350   7.381   5.339   5.092  0.2664 -0.2003 -0.1527
14310SOL    HW144351   7.329   5.394   5.032  1.6918  0.6266 -0.6784
14310SOL    HW244352   7.414   5.269   5.036  1.8515  0.7416 -0.4467
14311SOL     OW44353   7.182   5.992   8.653 -0.3430 -0.2191  0.3420
14311SOL    HW144354   7.244   5.922   8.675 -0.4917 -0.1497  0.9934
14311SOL    HW244355   7.205   6.016   8.563 -0.4916 -1.3141 -0.0019
14312SOL     OW44356   2.086   3.487   8.524  0.2395 -0.2169  0.1226
14312SOL    HW144357   2.032   3.526   8.594  0.8562  1.0373 -0.0695
14312SOL    HW244358   2.024   3.436   8.472 -0.4306 -0.2758  0.9457
14313SOL     OW44359   6.290   7.907   8.130  0.0723  0.0585 -0.1666
14313SOL    HW144360   6.323   7.995   8.149  0.9087 -0.0884 -0.8632
14313SOL    HW244361   6.369   7.854   8.119 -0.4187 -0.8247  0.3845
14314SOL     OW44362   7.200   4.944   4.139  0.1785  1.1398  0.7395
14314SOL    HW144363   7.253   5.022   4.125  1.9448 -0.2213 -0.5931
14314SOL    HW244364   7.158   4.928   4.055  1.7437 -0.6368  0.2294
14315SOL     OW44365   2.129   8.362   2.257  0.5173 -0.0092  0.6557
14315SOL    HW144366   2.184   8.383   2.182  0.6777 -0.1189  0.7412
14315SOL    HW244367   2.118   8.446   2.303  0.4554  0.0489  0.5347
14316SOL     OW44368   5.169   8.360   1.282 -0.2061 -0.2201 -0.0734
14316SOL    HW144369   5.214   8.433   1.241  0.4556 -1.1511 -1.0554
14316SOL    HW244370   5.101   8.335   1.220  1.1117 -1.9467 -0.9135
14317SOL     OW44371   8.441   0.935   2.598  0.3554 -0.2392  0.3775
14317SOL    HW144372   8.427   0.958   2.690  3.2956  1.0556  0.6155
14317SOL    HW244373   8.491   0.853   2.601  2.9315  1.2155  0.1616
14318SOL     OW44374   7.925   6.309   0.829  0.1506  0.0266 -0.1043
14318SOL    HW144375   7.876   6.256   0.892 -0.1200 -0.9363 -1.0915
14318SOL    HW244376   8.014   6.312   0.865 -0.4110  1.1624  1.3153
14319SOL     OW44377   0.702   7.649   2.254  0.1554 -0.5078  0.5542
14319SOL    HW144378   0.669   7.739   2.250  1.5532  0.0129 -0.1022
14319SOL    HW244379   0.797   7.659   2.259  0.2514 -1.9196  2.9222
14320SOL     OW44380   5.503   1.558   5.617 -0.2747 -0.2147  0.6557
14320SOL    HW144381   5.431   1.557   5.554  0.1445  0.9371  0.1301
14320SOL    HW244382   5.581   1.542   5.564  0.2829  2.4388  0.5570
14321SOL     OW44383   8.322   6.073   2.280  0.1837  0.3406 -0.2344
14321SOL    HW144384   8.293   6.158   2.313  0.5242  0.3790 -0.0350
14321SOL    HW244385   8.308   6.013   2.353  0.1653  0.2679 -0.2973
14322SOL     OW44386   3.935   7.302   1.022 -0.2646  0.3938  0.1774
14322SOL    HW144387   4.021   7.266   1.044  0.8442  1.5937 -1.8426
14322SOL    HW244388   3.922   7.373   1.085 -0.0360 -0.1304  0.8287
14323SOL     OW44389   2.545   4.554   3.294 -0.0438 -0.0764  0.2724
14323SOL    HW144390   2.576   4.521   3.210 -0.4603  2.1212 -0.8267
14323SOL    HW244391   2.509   4.641   3.274 -1.1577  0.0743  2.5399
14324SOL     OW44392   3.254   2.089   1.043 -0.6484 -0.1669 -0.5489
14324SOL    HW144393   3.191   2.037   0.993  0.8328 -2.3848 -0.2618
14324SOL    HW244394   3.214   2.101   1.129 -0.1357 -2.8586  0.1376
14325SOL     OW44395   8.347   1.569   5.686 -0.0694  0.3025 -0.0950
14325SOL    HW144396   8.393   1.562   5.603  0.3323 -1.1406  0.2283
14325SOL    HW244397   8.255   1.553   5.664  0.0683 -0.3095 -0.2330
14326SOL     OW44398   1.119   3.285   4.547  0.3626  0.3935  0.4648
14326SOL    HW144399   1.162   3.232   4.613  2.1684  0.4675 -0.6005
14326SOL    HW244400   1.027   3.259   4.552  0.7645 -0.9164  1.7310
14327SOL     OW44401   0.833   5.751   0.311 -0.1497 -0.4876  0.5387
14327SOL    HW144402   0.761   5.743   0.374 -0.7466 -2.7563 -0.3512
14327SOL    HW244403   0.912   5.754   0.366 -0.7241 -1.3002  1.4356
14328SOL     OW44404   6.670   0.155   5.842  0.2179  0.1727  0.4558
14328SOL    HW144405   6.588   0.175   5.797  1.1583  2.9511 -0.1831
14328SOL    HW244406   6.697   0.070   5.806 -1.5305 -0.0052 -0.5386
14329SOL     OW44407   8.054   1.505   2.241  0.4470  0.5059  0.2542
14329SOL    HW144408   8.134   1.464   2.207 -0.1747 -0.3746 -0.1762
14329SOL    HW244409   7.985   1.475   2.182 -0.2348  1.1188  0.7301
14330SOL     OW44410   8.987   2.246   2.108  0.0238 -0.2953  0.0879
14330SOL    HW144411   8.900   2.241   2.149  0.1908  0.5076  0.5710
14330SOL    HW244412   9.031   2.167   2.138 -0.4777 -0.6225 -0.0161
14331SOL     OW44413   1.595   3.821   1.149  0.1766 -0.3967  0.2362
14331SOL    HW144414   1.553   3.899   1.115  0.1195 -1.0579 -1.3039
14331SOL    HW244415   1.523   3.762   1.170  0.2588 -0.6306 -0.1287
14332SOL     OW44416   0.025   1.505   5.164  0.3399 -0.5205  0.2417
14332SOL    HW144417   0.074   1.553   5.098 -1.7997  1.1958 -0.2643
14332SOL    HW244418   0.085   1.497   5.238  0.9412  2.9427  0.2947
14333SOL     OW44419   6.642   4.691   4.207  0.3596  0.1049 -0.7516
14333SOL    HW144420   6.626   4.598   4.188 -0.8585  0.1670 -0.1543
14333SOL    HW244421   6.565   4.719   4.256  0.4831  1.5711 -1.3400
14334SOL     OW44422   3.691   7.962   8.381  0.3142  0.2061  0.2579
14334SOL    HW144423   3.700   7.888   8.441  3.2242  0.1204 -0.1646
14334SOL    HW244424   3.771   7.961   8.329 -1.4006  1.2062 -2.6252
14335SOL     OW44425   8.561   6.728   7.046 -0.0617 -0.3257  0.0880
14335SOL    HW144426   8.483   6.727   7.102 -0.1322 -0.9369 -0.0053
14335SOL    HW244427   8.526   6.739   6.957 -0.0040 -0.0768  0.0972
14336SOL     OW44428   2.874   0.138   3.379 -0.1471 -0.3899  0.6225
14336SOL    HW144429   2.909   0.187   3.454  1.8222 -3.2979  1.7715
14336SOL    HW244430   2.893   0.193   3.304 -0.1388  1.6226  2.0158
14337SOL     OW44431   5.074   4.742   1.444 -0.0301  0.2331  0.5307
14337SOL    HW144432   5.146   4.710   1.390 -1.1263  2.1955 -2.3468
14337SOL    HW244433   5.103   4.828   1.474 -0.8598  0.7405 -0.0721
14338SOL     OW44434   6.043   4.102   0.545 -0.1368  0.3387 -0.4826
14338SOL    HW144435   6.114   4.163   0.528  0.0437 -0.3255 -2.4342
14338SOL    HW244436   6.071   4.020   0.503 -1.6922 -0.1583 -0.6279
14339SOL     OW44437   6.700   1.586   7.139  0.1610 -0.3715 -0.1457
14339SOL    HW144438   6.659   1.646   7.202  0.4927 -0.4121  0.1128
14339SOL    HW244439   6.737   1.516   7.192  1.2459  0.0608 -0.2937
14340SOL     OW44440   0.209   8.689   4.329 -1.3992 -0.0115 -0.4370
14340SOL    HW144441   0.232   8.694   4.236 -0.9977  0.1466 -0.3292
14340SOL    HW244442   0.166   8.772   4.348  1.2045  1.2774  0.2426
14341SOL     OW44443   3.655   0.379   3.903  0.3302  0.2606 -0.4385
14341SOL    HW144444   3.727   0.439   3.925 -0.3258  1.4135 -1.3103
14341SOL    HW244445   3.696   0.311   3.850  0.7780  0.9232 -0.9539
14342SOL     OW44446   1.243   1.774   6.296  0.0962  0.0129  0.0389
14342SOL    HW144447   1.315   1.789   6.357 -1.1851  0.8880  1.3932
14342SOL    HW244448   1.236   1.679   6.290 -0.2676 -0.1142  1.9421
14343SOL     OW44449   3.092   8.476   2.737  0.0508 -0.6562 -0.5041
14343SOL    HW144450   3.067   8.414   2.669 -0.0583 -0.2219 -0.8588
14343SOL    HW244451   3.032   8.458   2.809  0.1285 -1.0767 -0.5417
14344SOL     OW44452   6.339   0.577   8.627 -0.3567  0.4107  0.1016
14344SOL    HW144453   6.354   0.590   8.533  0.9086  0.9136  0.3500
14344SOL    HW244454   6.252   0.539   8.632 -0.4879  0.4655 -1.2746
14345SOL     OW44455   1.378   8.320   1.233 -0.4409 -0.3233  0.0182
14345SOL    HW144456   1.387   8.343   1.325  1.1488  0.5263 -0.3176
14345SOL    HW244457   1.291   8.280   1.226  0.3938 -2.8502  2.3672
14346SOL     OW44458   4.853   2.467   8.672 -0.2532 -0.2171  0.2004
14346SOL    HW144459   4.905   2.397   8.632  0.0641 -0.8946  1.7056
14346SOL    HW244460   4.773   2.470   8.620  0.8703  0.2240 -1.5935
14347SOL     OW44461   1.317   0.365   2.325 -0.1951  0.1819  0.1315
14347SOL    HW144462   1.259   0.421   2.377  1.1269  1.3477  0.3970
14347SOL    HW244463   1.304   0.277   2.361 -1.5440  0.4755  0.3959
14348SOL     OW44464   5.820   6.392   2.914  0.4168  0.2777  0.1189
14348SOL    HW144465   5.898   6.423   2.868 -0.3974  0.4371 -1.1966
14348SOL    HW244466   5.747   6.433   2.868 -0.4652 -0.0280  1.2020
14349SOL     OW44467   7.525   1.370   9.027  0.2299 -0.4320  0.4885
14349SOL    HW144468   7.458   1.437   9.018 -1.9621 -2.5188  0.1349
14349SOL    HW244469   7.540   1.363   9.122 -1.3999 -1.1265  0.7211
14350SOL     OW44470   1.362   6.267   2.035 -0.0136  0.2704 -0.0832
14350SOL    HW144471   1.281   6.318   2.026  2.1300  3.9170 -1.1064
14350SOL    HW244472   1.361   6.207   1.960 -1.8622  0.0222  0.0949
14351SOL     OW44473   8.594   7.244   1.871 -0.1324 -0.2019  0.1239
14351SOL    HW144474   8.648   7.167   1.886  1.3203  0.6215 -0.6396
14351SOL    HW244475   8.647   7.300   1.815 -1.6124  0.8595 -0.2828
14352SOL     OW44476   4.573   0.173   2.253 -0.1728 -0.5227 -0.0177
14352SOL    HW144477   4.542   0.263   2.238 -0.5520 -0.7867 -0.8816
14352SOL    HW244478   4.612   0.176   2.340  1.3910  0.8910 -0.7029
14353SOL     OW44479   3.032   1.871   3.924 -0.5133  0.4445 -0.6386
14353SOL    HW144480   2.997   1.790   3.887 -2.6587  1.7101 -1.6294
14353SOL    HW244481   3.019   1.862   4.018  2.2776 -1.6043 -0.3179
14354SOL     OW44482   4.738   1.936   0.028  0.0965 -0.3593 -0.3535
14354SOL    HW144483   4.812   1.889   0.069  0.0412 -1.1197 -1.1032
14354SOL    HW244484   4.715   1.883  -0.047 -0.6497  0.3533 -0.6392
14355SOL     OW44485   8.730   6.452   8.292 -0.9720 -0.3993 -0.1370
14355SOL    HW144486   8.640   6.421   8.297 -0.9874 -0.2508  0.5610
14355SOL    HW244487   8.779   6.380   8.253 -1.3364 -0.5892 -0.2442
14356SOL     OW44488   0.777   5.767   7.450  0.0859 -0.0948  0.1447
14356SOL    HW144489   0.764   5.673   7.435 -1.1869  0.0520  0.2431
14356SOL    HW244490   0.848   5.790   7.391 -0.3520 -0.8968 -0.7325
14357SOL     OW44491   0.092   4.296   4.928 -0.0080  0.5360 -0.6038
14357SOL    HW144492   0.181   4.313   4.959  0.1393 -1.5325  0.3081
14357SOL    HW244493   0.103   4.269   4.837  0.3554 -0.0201 -0.4029
14358SOL     OW44494   2.670   8.931   8.149  0.1546 -0.2860 -0.4137
14358SOL    HW144495   2.639   8.907   8.062  2.1148  1.9610 -1.8809
14358SOL    HW244496   2.747   8.986   8.132  1.4225 -0.8612  2.7993
14359SOL     OW44497   0.196   3.375   5.549  0.0482 -0.5157  0.7683
14359SOL    HW144498   0.292   3.380   5.556 -0.0798  1.3999  1.7261
14359SOL    HW244499   0.181   3.336   5.463  1.6828 -1.4501  0.8616
14360SOL     OW44500   8.180   2.158   3.835 -0.2373 -0.1180 -0.3793
14360SOL    HW144501   8.255   2.185   3.888  1.5419 -0.3589 -2.6351
14360SOL    HW244502   8.140   2.240   3.807 -0.4414  0.0221  0.3100
14361SOL     OW44503   1.570   0.819   7.770 -0.1316  0.2870 -0.0550
14361SOL    HW144504   1.615   0.743   7.732 -0.6616  0.9549 -2.1364
14361SOL    HW244505   1.490   0.782   7.809 -0.2956 -0.2586 -0.8844
14362SOL     OW44506   2.007   2.717   0.245 -0.5227 -0.1860 -0.2099
14362SOL    HW144507   2.021   2.787   0.309 -0.7793 -0.3150 -0.0061
14362SOL    HW244508   1.950   2.756   0.179 -1.8720 -0.6043  0.6467
14363SOL     OW44509   3.466   9.038   8.341  0.2924 -0.0538  0.3723
14363SOL    HW144510   3.402   8.985   8.294  0.6809  0.1065 -0.3508
14363SOL    HW244511   3.520   8.975   8.389  1.5019 -0.4444 -1.4039
14364SOL     OW44512   8.360   4.408   3.717 -0.4917 -0.5997  0.0873
14364SOL    HW144513   8.421   4.475   3.686  0.2221  0.2275  2.9410
14364SOL    HW244514   8.273   4.441   3.692 -0.1151  1.1746  0.9383
14365SOL     OW44515   7.414   4.498   2.164 -0.8579  0.0939 -0.2167
14365SOL    HW144516   7.340   4.553   2.190  0.6273  0.7850  3.0222
14365SOL    HW244517   7.374   4.421   2.124 -3.1801  1.3821 -0.5709
14366SOL     OW44518   4.706   3.743   2.500 -0.3371 -0.4694  0.4572
14366SOL    HW144519   4.786   3.706   2.462  0.6438  0.5119  1.4930
14366SOL    HW244520   4.717   3.731   2.594 -0.9446  0.5906  0.6721
14367SOL     OW44521   1.585   1.925   6.954 -0.3561  0.0371  0.0747
14367SOL    HW144522   1.546   1.872   6.885 -1.7560 -0.8855  1.4881
14367SOL    HW244523   1.511   1.946   7.012  0.5360  1.8444  0.6206
14368SOL     OW44524   4.085   1.265   1.146  0.8503  0.0094  0.3815
14368SOL    HW144525   4.112   1.174   1.158  1.3723  0.2172  0.8339
14368SOL    HW244526   4.167   1.314   1.146  0.6734  0.3446 -1.1891
14369SOL     OW44527   5.626   7.268   0.210 -0.3531  0.3618 -0.2808
14369SOL    HW144528   5.595   7.188   0.168 -0.5300 -0.0089  0.5372
14369SOL    HW244529   5.614   7.336   0.144 -0.1056 -0.2992 -1.0229
14370SOL     OW44530   4.930   4.276   6.795  0.1218 -0.2232  0.1579
14370SOL    HW144531   4.923   4.248   6.887  1.3448  3.9227  1.7607
14370SOL    HW244532   5.019   4.254   6.770  0.6010  0.7724  0.8954
14371SOL     OW44533   2.558   2.464   3.941  0.4738  0.0972 -0.4990
14371SOL    HW144534   2.476   2.497   3.905  1.3896  2.4754 -0.5752
14371SOL    HW244535   2.556   2.370   3.922 -0.6460  0.6312 -3.6792
14372SOL     OW44536   1.652   3.800   7.223  0.4059 -0.0019 -0.6893
14372SOL    HW144537   1.723   3.736   7.224  1.0483  0.6122  2.5050
14372SOL    HW244538   1.690   3.876   7.177  1.2170 -0.2951 -0.5255
14373SOL     OW44539   1.769   7.533   8.665 -0.6262 -0.4545  0.1153
14373SOL    HW144540   1.743   7.452   8.708 -1.6892  0.3104  0.9679
14373SOL    HW244541   1.864   7.532   8.666 -0.6148 -1.9401 -0.3846
14374SOL     OW44542   2.952   7.119   2.266 -0.0699  0.2616  0.0822
14374SOL    HW144543   3.032   7.131   2.215  0.5472  0.7209  1.1405
14374SOL    HW244544   2.882   7.152   2.209  0.5146  0.1021 -0.7427
14375SOL     OW44545   1.402   8.044   6.723  0.3590 -0.3032 -0.0505
14375SOL    HW144546   1.407   7.972   6.660 -3.6333  0.6995 -1.9062
14375SOL    HW244547   1.456   8.113   6.685 -1.3514  0.0014 -2.1382
14376SOL     OW44548   3.791   0.029   7.900  0.2035 -0.1121  0.1831
14376SOL    HW144549   3.754  -0.027   7.969 -0.4343  0.0933  0.0138
14376SOL    HW244550   3.775   0.118   7.932 -0.6442 -0.0044 -0.4997
14377SOL     OW44551   4.180   5.730   8.225  0.7909 -0.0628  0.3244
14377SOL    HW144552   4.114   5.783   8.181 -1.9436 -3.0667  0.4739
14377SOL    HW244553   4.201   5.780   8.304  0.8829  2.2893 -1.0729
14378SOL     OW44554   4.269   1.349   8.318  0.1396  0.0098  0.0480
14378SOL    HW144555   4.329   1.408   8.272 -0.0521 -0.5355 -0.9287
14378SOL    HW244556   4.325   1.296   8.374  0.2225  1.8826  1.8822
14379SOL     OW44557   2.187   7.200   2.512 -0.2225 -0.4958  0.4989
14379SOL    HW144558   2.259   7.257   2.539 -0.9698  0.7151  0.0554
14379SOL    HW244559   2.128   7.199   2.587 -0.3285 -0.4813  0.4160
14380SOL     OW44560   5.951   3.482   5.283 -0.0262  0.7610  0.2790
14380SOL    HW144561   5.950   3.517   5.372 -0.6432  0.8571  0.2395
14380SOL    HW244562   5.897   3.403   5.287  0.2506  0.5601  0.0726
14381SOL     OW44563   4.456   4.281   2.584  0.1324  0.1473  0.2721
14381SOL    HW144564   4.484   4.263   2.673  0.4972  1.2003  0.3906
14381SOL    HW244565   4.361   4.266   2.584  0.0089  0.8223  1.0369
14382SOL     OW44566   9.210   3.974   5.549  0.0662 -0.0317  0.3477
14382SOL    HW144567   9.272   3.912   5.586  0.8404  0.2649 -0.4048
14382SOL    HW244568   9.243   3.990   5.460 -1.2402 -0.0739 -0.1740
14383SOL     OW44569   4.042   4.589   8.497  0.1894 -0.5836  0.1745
14383SOL    HW144570   4.100   4.558   8.567  1.1617 -0.0264 -0.3686
14383SOL    HW244571   4.077   4.674   8.473 -0.3254 -0.6309 -0.7838
14384SOL     OW44572   2.862   7.639   0.029  0.1117  0.1912  0.3863
14384SOL    HW144573   2.848   7.546   0.045 -0.8745  0.2694  0.0838
14384SOL    HW244574   2.956   7.653   0.043  0.1928 -0.7571  0.8524
14385SOL     OW44575   3.717   0.789   2.013  0.3898 -0.0852  0.2288
14385SOL    HW144576   3.792   0.838   2.045  0.2151 -1.0706  2.3347
14385SOL    HW244577   3.752   0.702   1.990  0.1481 -0.0461 -0.3199
14386SOL     OW44578   2.701   2.441   1.349 -0.3579 -0.6938  0.0957
14386SOL    HW144579   2.637   2.370   1.359 -1.3174 -0.1290 -1.5457
14386SOL    HW244580   2.652   2.521   1.369 -0.1196 -0.2747 -0.9409
14387SOL     OW44581   7.438   8.506   1.603  0.1702 -0.4188  0.1414
14387SOL    HW144582   7.479   8.577   1.554 -0.3992 -0.5372 -0.5191
14387SOL    HW244583   7.433   8.433   1.541 -1.1807 -0.3517  0.1562
14388SOL     OW44584   1.950   7.251   3.722  0.6479  0.1429  0.2719
14388SOL    HW144585   1.952   7.300   3.805  2.2027  0.5463  0.0244
14388SOL    HW244586   1.868   7.278   3.681  1.0829  1.9903  0.4956
14389SOL     OW44587   6.417   0.677   3.208  0.4484 -0.1121  0.1512
14389SOL    HW144588   6.425   0.756   3.154 -0.0393  0.0441  0.3018
14389SOL    HW244589   6.459   0.700   3.290  0.5767 -0.1145  0.0869
14390SOL     OW44590   5.477   0.307   2.561  0.5778  0.2293 -0.3601
14390SOL    HW144591   5.386   0.307   2.589  1.0537 -1.0506  1.4255
14390SOL    HW244592   5.483   0.236   2.498  0.4793 -0.2115  0.1187
14391SOL     OW44593   3.369   2.451   3.655 -0.2664 -0.1589 -0.1660
14391SOL    HW144594   3.336   2.379   3.601 -1.8137  0.3563  0.0444
14391SOL    HW244595   3.461   2.461   3.629 -0.1641 -1.8741 -0.5412
14392SOL     OW44596   2.654   7.598   6.942  0.3503  0.3621 -0.2336
14392SOL    HW144597   2.690   7.678   6.981 -1.6960  1.2959 -0.1155
14392SOL    HW244598   2.724   7.566   6.884  1.8021  1.3412  0.9174
14393SOL     OW44599   5.466   6.681   0.365 -0.2297  0.3509 -0.1660
14393SOL    HW144600   5.450   6.677   0.271  1.1071  0.2853 -0.4128
14393SOL    HW244601   5.542   6.739   0.374 -0.5387  0.6257  0.9082
14394SOL     OW44602   8.348   0.863   6.982  0.5824 -0.0563  0.0371
14394SOL    HW144603   8.363   0.813   7.062  1.3371  0.6213  0.3356
14394SOL    HW244604   8.296   0.804   6.927  2.0384 -1.4855  0.0830
14395SOL     OW44605   4.153   2.902   5.750  0.1394  0.5203  0.0383
14395SOL    HW144606   4.229   2.927   5.802  0.1793  0.5441 -0.0309
14395SOL    HW244607   4.080   2.951   5.789  0.4409  1.7398 -0.8731
14396SOL     OW44608   5.403   3.791   1.402 -0.1600 -0.2353 -0.3474
14396SOL    HW144609   5.394   3.743   1.484 -1.8954 -2.5139 -1.7393
14396SOL    HW244610   5.497   3.800   1.389  0.1565 -1.0787  1.2042
14397SOL     OW44611   4.377   5.173   3.061 -0.0882  0.6749  0.4793
14397SOL    HW144612   4.407   5.222   2.985 -1.7916  1.1354  0.0669
14397SOL    HW244613   4.317   5.232   3.106 -3.3999 -1.4103 -0.8421
14398SOL     OW44614   5.771   2.273   4.428 -0.7633 -0.0179 -0.4919
14398SOL    HW144615   5.716   2.280   4.350 -1.6915 -0.7541  0.0792
14398SOL    HW244616   5.712   2.244   4.497  0.7388 -3.1605 -0.3682
14399SOL     OW44617   5.406   8.301   0.770  0.0527 -0.5429  0.1825
14399SOL    HW144618   5.481   8.250   0.801  0.3153 -0.1429  0.2135
14399SOL    HW244619   5.435   8.392   0.776  0.0461 -0.4468 -1.0614
14400SOL     OW44620   8.594   3.785   2.615  0.1436  0.2259  0.0087
14400SOL    HW144621   8.590   3.880   2.630 -2.5600  0.1300  0.3626
14400SOL    HW244622   8.623   3.777   2.524  0.4350  1.3746 -0.0231
14401SOL     OW44623   7.700   0.674   5.720 -0.3940  0.7940 -0.1355
14401SOL    HW144624   7.793   0.662   5.702  0.1042  1.3254  1.8375
14401SOL    HW244625   7.675   0.751   5.668  0.3401  0.8263 -0.4526
14402SOL     OW44626   0.126   2.366   5.547 -0.1646 -0.4064  0.2389
14402SOL    HW144627   0.153   2.443   5.498 -0.3532 -0.2991  0.3049
14402SOL    HW244628   0.056   2.327   5.495 -0.7163 -0.0093  0.6778
14403SOL     OW44629   7.180   4.239   7.431  0.1526 -0.6114  0.5074
14403SOL    HW144630   7.274   4.244   7.448  0.1374  0.3462  0.3796
14403SOL    HW244631   7.154   4.329   7.414 -0.3230 -1.1372 -1.9846
14404SOL     OW44632   1.979   5.440   1.077 -0.3042  0.7653  0.5574
14404SOL    HW144633   1.962   5.353   1.041 -0.3772  0.8365  0.4208
14404SOL    HW244634   2.072   5.454   1.062 -0.0824  0.3162  1.4359
14405SOL     OW44635   1.910   1.930   2.194 -0.2447 -0.1316  0.9043
14405SOL    HW144636   1.888   2.016   2.159  1.6557  0.0376  0.0000
14405SOL    HW244637   2.002   1.938   2.219  0.5518 -2.4246 -0.9769
14406SOL     OW44638   5.386   6.987   8.674  0.4929  0.5542 -0.2099
14406SOL    HW144639   5.393   6.897   8.642 -0.0680 -0.3514  2.0371
14406SOL    HW244640   5.437   7.039   8.611  1.4205 -1.4205 -1.1693
14407SOL     OW44641   0.022   6.330   5.585 -0.3689  0.2788 -0.1071
14407SOL    HW144642   0.007   6.347   5.492 -1.0371 -0.2111 -0.0987
14407SOL    HW244643   0.009   6.236   5.595  0.0540  0.2654  0.4224
14408SOL     OW44644   6.466   1.009   8.284  0.6221 -0.4355 -0.2587
14408SOL    HW144645   6.474   0.929   8.232  0.3841 -1.5939  1.3939
14408SOL    HW244646   6.459   0.978   8.374  0.0439  1.4444  0.3927
14409SOL     OW44647   7.576   9.070   6.638  0.5167  0.0377  0.2570
14409SOL    HW144648   7.633   9.112   6.574  0.1513  3.0351  1.7166
14409SOL    HW244649   7.635   9.023   6.697  0.9803 -1.1820 -1.1125
14410SOL     OW44650   1.528   3.181   5.229  0.4349  0.3878 -0.6513
14410SOL    HW144651   1.543   3.274   5.213 -0.3304  0.5169 -0.6706
14410SOL    HW244652   1.529   3.141   5.141 -0.0245  0.5061 -0.7129
14411SOL     OW44653   4.975   6.742   1.556 -0.0127  0.0727 -0.2536
14411SOL    HW144654   5.024   6.824   1.546 -3.2170  1.9923 -2.2852
14411SOL    HW244655   5.000   6.709   1.642  3.5398  1.6302 -0.5167
14412SOL     OW44656   1.233   6.564   0.172  0.0208 -0.0759 -0.7946
14412SOL    HW144657   1.215   6.658   0.175 -0.4707 -0.1633 -0.8826
14412SOL    HW244658   1.154   6.526   0.135 -0.6055 -0.7461  1.1226
14413SOL     OW44659   4.762   6.512   0.665  0.6763 -0.5649  0.0373
14413SOL    HW144660   4.741   6.524   0.758 -0.4711  0.3704 -0.3130
14413SOL    HW244661   4.832   6.574   0.648  0.3096 -0.1221  0.1025
14414SOL     OW44662   7.472   7.820   2.595  0.2624  0.3567  0.2841
14414SOL    HW144663   7.379   7.798   2.590  0.2766  0.2566  0.4651
14414SOL    HW244664   7.494   7.849   2.507 -0.0402  0.7770  0.3438
14415SOL     OW44665   8.791   8.979   6.513  0.2011 -0.3834  0.6693
14415SOL    HW144666   8.829   8.979   6.601  0.9095  2.7250  0.5059
14415SOL    HW244667   8.826   9.059   6.473 -1.2991 -0.9219 -1.9123
14416SOL     OW44668   0.737   4.587   2.238 -0.1783  0.3496  0.0910
14416SOL    HW144669   0.768   4.507   2.279  1.2841  0.8505 -0.0065
14416SOL    HW244670   0.726   4.564   2.145 -0.2460  0.1409  0.1496
14417SOL     OW44671   7.376   5.823   8.752  0.1861  0.1170 -0.0770
14417SOL    HW144672   7.374   5.756   8.820 -0.5848 -2.1550 -2.1600
14417SOL    HW244673   7.458   5.808   8.705 -0.5593 -0.2569 -1.3226
14418SOL     OW44674   4.783   3.943   0.670 -0.6747 -0.0654  0.4523
14418SOL    HW144675   4.795   3.849   0.681  0.3648  0.1541  1.4001
14418SOL    HW244676   4.696   3.960   0.705 -0.0146 -0.3854  2.4139
14419SOL     OW44677   3.058   3.262   6.613 -0.7039  0.2042 -0.3485
14419SOL    HW144678   3.067   3.184   6.557 -2.1907 -0.8930  0.8522
14419SOL    HW244679   2.983   3.309   6.577  0.4494  1.3614 -1.3282
14420SOL     OW44680   3.713   7.272   4.657 -0.9791  0.3834 -0.9576
14420SOL    HW144681   3.623   7.246   4.639 -0.7605 -1.9859  0.9457
14420SOL    HW244682   3.767   7.200   4.624 -0.1276 -0.2851  1.6153
14421SOL     OW44683   2.365   3.470   8.422 -0.2226  0.2279 -0.1714
14421SOL    HW144684   2.278   3.457   8.459  0.7635 -0.3545  2.1256
14421SOL    HW244685   2.380   3.564   8.428 -0.0612  0.1396  1.0565
14422SOL     OW44686   7.443   4.814   0.970 -0.3274 -0.3903 -0.2737
14422SOL    HW144687   7.533   4.846   0.976 -1.0877  1.6379  1.7565
14422SOL    HW244688   7.418   4.831   0.879  1.3303 -1.1089 -0.9149
14423SOL     OW44689   8.053   1.780   2.924  0.1672 -0.0644 -0.2524
14423SOL    HW144690   8.124   1.818   2.976 -0.3090  0.4962  0.0041
14423SOL    HW244691   8.097   1.724   2.860  0.6991 -1.6958  1.4839
14424SOL     OW44692   2.913   5.020   5.492 -0.2135 -0.4104 -0.2676
14424SOL    HW144693   2.821   5.024   5.520  0.3927 -1.2162  2.1066
14424SOL    HW244694   2.963   5.029   5.573  1.8778  1.1457 -1.6166
14425SOL     OW44695   0.021   5.057   8.410  0.2694 -0.2639 -0.8613
14425SOL    HW144696   0.042   4.966   8.390  0.5831 -0.4542  0.2305
14425SOL    HW244697   0.009   5.099   8.325 -0.7101 -1.5135 -1.3645
14426SOL     OW44698   3.315   5.938   7.740 -0.1653  0.0356 -0.2091
14426SOL    HW144699   3.266   5.895   7.670  2.3328  0.8051 -2.6257
14426SOL    HW244700   3.351   5.867   7.792 -1.1324 -0.5835 -0.3628
14427SOL     OW44701   6.878   2.797   6.566  0.0996  0.4069  0.6884
14427SOL    HW144702   6.805   2.773   6.624  0.2142 -0.7033  0.3986
14427SOL    HW244703   6.908   2.881   6.600 -0.1372  0.0065  1.9594
14428SOL     OW44704   7.229   3.567   0.526  0.9260  0.1017 -0.2101
14428SOL    HW144705   7.134   3.580   0.524  0.6667 -1.5636 -0.3490
14428SOL    HW244706   7.259   3.620   0.600 -0.1362  0.5000 -0.0453
14429SOL     OW44707   1.991   9.157   1.963  0.1180 -0.2356 -0.8371
14429SOL    HW144708   2.021   9.066   1.965 -0.1855 -0.3352  0.6963
14429SOL    HW244709   1.932   9.164   2.038  1.5622  1.7049  0.2220
14430SOL     OW44710   8.589   3.683   2.874  0.4115  0.0184  0.6590
14430SOL    HW144711   8.589   3.718   2.785 -1.6549  0.5856  0.8192
14430SOL    HW244712   8.517   3.728   2.917  1.6987  0.1601  2.8155
14431SOL     OW44713   2.973   6.237   5.347  0.1322  0.1447  0.3754
14431SOL    HW144714   2.885   6.274   5.355 -0.4897 -1.0852 -0.2847
14431SOL    HW244715   2.998   6.255   5.256  1.3858  2.1184  1.0496
14432SOL     OW44716   4.374   5.170   8.623  0.6894  0.1460  0.2026
14432SOL    HW144717   4.340   5.258   8.636 -1.2048 -0.4037 -0.6175
14432SOL    HW244718   4.431   5.178   8.546  0.6539  0.6767  0.2274
14433SOL     OW44719   6.706   1.585   4.816  0.0514 -0.2604  0.1638
14433SOL    HW144720   6.791   1.567   4.777 -0.6136 -0.1099 -1.4382
14433SOL    HW244721   6.702   1.680   4.822 -0.1465 -0.2502 -0.1140
14434SOL     OW44722   2.303   7.248   5.295 -0.0008 -0.0028  0.0372
14434SOL    HW144723   2.281   7.214   5.209 -0.8911  0.9603 -0.1274
14434SOL    HW244724   2.396   7.274   5.288  0.9312 -2.9175  0.3652
14435SOL     OW44725   8.133   5.183   9.091 -1.0004  0.5588 -0.2777
14435SOL    HW144726   8.134   5.278   9.105  0.4424  0.7020 -1.0993
14435SOL    HW244727   8.064   5.169   9.026 -2.0649  0.8685  0.7476
14436SOL     OW44728   4.247   2.805   8.969  0.6713 -0.1944  0.6706
14436SOL    HW144729   4.320   2.793   9.030 -1.5575  0.5890  3.7276
14436SOL    HW244730   4.218   2.895   8.984  0.1949  0.1230 -1.8571
14437SOL     OW44731   0.665   2.981   0.527 -0.3629  0.3249 -0.4710
14437SOL    HW144732   0.624   2.902   0.560  1.2971 -0.3534  0.0657
14437SOL    HW244733   0.629   2.992   0.439 -1.5346 -0.3045 -0.0864
14438SOL     OW44734   2.472   9.119   7.963  0.8572 -0.1332  0.3626
14438SOL    HW144735   2.497   9.196   7.912 -1.6219  0.3974 -0.1802
14438SOL    HW244736   2.483   9.147   8.054  1.0707  0.4807  0.1560
14439SOL     OW44737   3.760   4.126   3.390 -0.2126  0.3478  0.1003
14439SOL    HW144738   3.679   4.172   3.414  0.5948  1.6553  0.3886
14439SOL    HW244739   3.824   4.196   3.377  0.5013 -0.5640 -1.6390
14440SOL     OW44740   2.334   9.143   3.213  0.0315  0.0560 -0.2956
14440SOL    HW144741   2.325   9.084   3.139  0.0642  3.3777 -3.2405
14440SOL    HW244742   2.428   9.144   3.232  0.1197 -0.2830 -0.7074
14441SOL     OW44743   4.097   0.750   8.862 -0.0601  0.0596  0.6099
14441SOL    HW144744   4.162   0.697   8.817  1.0667  1.2952  0.7007
14441SOL    HW244745   4.026   0.761   8.799  0.1823 -0.6450  0.2120
14442SOL     OW44746   0.886   1.931   1.442  0.4692  0.3445 -0.0705
14442SOL    HW144747   0.871   1.956   1.351 -4.1666  0.0438  0.3846
14442SOL    HW244748   0.830   1.855   1.456 -0.1230  1.2344  3.3696
14443SOL     OW44749   2.427   0.292   7.339 -0.5077  0.8880  0.1946
14443SOL    HW144750   2.511   0.303   7.296  0.1352  1.4001  1.5419
14443SOL    HW244751   2.378   0.234   7.281  1.3717 -0.7911  0.1957
14444SOL     OW44752   4.518   5.648   0.065 -0.3381 -0.4043 -0.3805
14444SOL    HW144753   4.602   5.693   0.055 -1.1750  0.9670 -1.5359
14444SOL    HW244754   4.517   5.620   0.157  0.4012  1.5574  0.2749
14445SOL     OW44755   4.200   5.321   7.069 -0.1070  0.2174  0.0463
14445SOL    HW144756   4.231   5.377   6.998  0.0869  1.2036  0.8849
14445SOL    HW244757   4.115   5.358   7.094 -1.2465 -1.4723 -1.1345
14446SOL     OW44758   0.287   3.733   3.441 -0.2351 -0.4673 -0.2667
14446SOL    HW144759   0.307   3.730   3.535  0.7881 -0.8616 -0.4905
14446SOL    HW244760   0.324   3.652   3.406  0.0206  0.0184 -1.1304
14447SOL     OW44761   3.796   6.045   2.657  0.0283  0.0456 -0.4193
14447SOL    HW144762   3.855   5.977   2.692  2.6736  2.2776 -0.2041
14447SOL    HW244763   3.730   5.996   2.608  0.2547 -2.8130  1.8336
14448SOL     OW44764   7.133   8.787   8.502 -0.5348 -0.1652  0.1067
14448SOL    HW144765   7.210   8.817   8.551 -0.7430  2.3296 -0.9592
14448SOL    HW244766   7.070   8.762   8.571 -0.0474  1.2055  1.1042
14449SOL     OW44767   4.309   5.117   1.097 -0.5427  0.3164 -0.1299
14449SOL    HW144768   4.361   5.131   1.176  0.4931 -1.3541 -0.4600
14449SOL    HW244769   4.223   5.090   1.129 -1.3286  3.1559  0.4235
14450SOL     OW44770   7.773   3.367   3.917 -0.6064  0.1516 -0.3822
14450SOL    HW144771   7.863   3.345   3.892 -0.7581 -1.9295  0.6701
14450SOL    HW244772   7.742   3.290   3.965 -2.6502  1.1920  0.0824
14451SOL     OW44773   3.116   8.406   8.780  0.0916  0.3774  1.0723
14451SOL    HW144774   3.072   8.464   8.717  0.2271  1.2006  1.7129
14451SOL    HW244775   3.048   8.382   8.842 -0.3357 -1.4077 -0.0196
14452SOL     OW44776   2.675   6.290   5.650  0.1972 -0.2856 -0.1438
14452SOL    HW144777   2.707   6.210   5.608  0.4433  0.9413 -2.4482
14452SOL    HW244778   2.737   6.358   5.624 -0.2414  0.7682  1.4006
14453SOL     OW44779   4.531   6.281   2.985  0.1779 -0.2036 -0.0248
14453SOL    HW144780   4.575   6.300   2.902  2.3280  0.5137  1.2086
14453SOL    HW244781   4.569   6.198   3.014 -0.8959 -0.6874  0.0492
14454SOL     OW44782   0.916   9.278   4.780 -0.1724  0.3715  0.4215
14454SOL    HW144783   0.954   9.208   4.834 -0.5325  1.0973  1.6491
14454SOL    HW244784   0.851   9.320   4.837 -0.2720  1.4347 -0.4451
14455SOL     OW44785   7.466   6.215   5.691  0.2299 -0.4529  0.0906
14455SOL    HW144786   7.460   6.226   5.786 -0.2477  0.0116  0.0079
14455SOL    HW244787   7.428   6.128   5.675 -2.0841  0.5007  0.0710
14456SOL     OW44788   2.817   5.803   2.730 -0.1837  0.5714 -0.2315
14456SOL    HW144789   2.869   5.859   2.672  0.0404  0.7250  0.1106
14456SOL    HW244790   2.734   5.792   2.684 -0.9579  2.7312  0.4886
14457SOL     OW44791   4.737   0.357   0.479 -0.2552 -0.0543 -0.0161
14457SOL    HW144792   4.753   0.267   0.508 -1.0651 -1.0119 -2.2818
14457SOL    HW244793   4.802   0.410   0.525  1.5622 -2.0878 -0.1008
14458SOL     OW44794   8.556   6.266   6.294 -0.2797  0.1133  0.7269
14458SOL    HW144795   8.468   6.268   6.332 -0.3185 -2.3791  0.9543
14458SOL    HW244796   8.611   6.228   6.363  0.8550  0.9778  0.3340
14459SOL     OW44797   4.320   2.989   7.793 -0.0797  0.2279  0.5085
14459SOL    HW144798   4.282   3.071   7.762 -1.7428 -0.0678  1.6481
14459SOL    HW244799   4.320   2.997   7.888  1.0889 -0.5437  0.6003
14460SOL     OW44800   9.178   9.211   2.808  0.3327 -0.4541 -0.0694
14460SOL    HW144801   9.115   9.141   2.793  0.1334 -0.2767 -0.0681
14460SOL    HW244802   9.220   9.189   2.891  1.6698 -1.6166 -0.9957
14461SOL     OW44803   4.679   6.712   4.427  0.3907 -0.3934 -0.1496
14461SOL    HW144804   4.614   6.642   4.430 -0.4184  0.2989 -0.7968
14461SOL    HW244805   4.629   6.792   4.445  1.5196 -0.0821  1.8879
14462SOL     OW44806   0.323   3.434   7.030  0.4118 -0.0621  0.7331
14462SOL    HW144807   0.232   3.423   7.003  0.2846  0.0228  1.1219
14462SOL    HW244808   0.372   3.370   6.979  0.0198 -0.7019  1.1559
14463SOL     OW44809   0.434   3.257   4.950 -0.5437 -0.0448  0.1885
14463SOL    HW144810   0.359   3.232   4.896 -0.9323 -1.0272  1.1408
14463SOL    HW244811   0.509   3.216   4.907 -0.6367  0.3872 -0.3977
14464SOL     OW44812   0.944   7.826   0.988  0.0211  0.0818 -0.1336
14464SOL    HW144813   0.851   7.846   0.976 -0.2938 -1.6791 -1.0632
14464SOL    HW244814   0.962   7.850   1.079 -0.2662  4.1714 -0.9620
14465SOL     OW44815   0.139   4.750   1.599 -0.3886  0.1079 -0.3713
14465SOL    HW144816   0.076   4.777   1.532  0.1559  0.4432 -0.7546
14465SOL    HW244817   0.157   4.829   1.649  0.2455  0.1786 -0.6984
14466SOL     OW44818   1.228   4.654   6.793  0.1324 -0.0285 -0.2312
14466SOL    HW144819   1.323   4.664   6.806  0.1603  0.9316 -1.0399
14466SOL    HW244820   1.189   4.684   6.875  0.5195 -0.4058  0.0971
14467SOL     OW44821   0.399   2.980   7.462  0.5064 -0.4361  0.1023
14467SOL    HW144822   0.394   2.976   7.367  2.2508  1.5881 -0.1314
14467SOL    HW244823   0.313   2.948   7.492 -0.2160 -0.7161 -2.1241
14468SOL     OW44824   0.882   8.729   8.431  0.2992 -0.4110 -0.1010
14468SOL    HW144825   0.857   8.685   8.349 -2.1765 -0.2405  0.4914
14468SOL    HW244826   0.854   8.820   8.419  1.4689  0.0178  0.3105
14469SOL     OW44827   7.773   0.725   6.971 -0.0400 -0.0732  0.0613
14469SOL    HW144828   7.688   0.717   6.928 -0.7534  1.0976  1.1908
14469SOL    HW244829   7.833   0.756   6.903 -0.9715  1.0074 -0.2854
14470SOL     OW44830   8.216   5.434   3.340  0.5852  0.2035 -1.2742
14470SOL    HW144831   8.261   5.391   3.413  1.9316  0.7346 -1.7498
14470SOL    HW244832   8.135   5.467   3.378  1.8081  1.5479  0.3569
14471SOL     OW44833   1.493   7.741   3.403  1.3462 -0.4230  0.2352
14471SOL    HW144834   1.474   7.815   3.460  2.9836 -0.6508  1.1464
14471SOL    HW244835   1.576   7.764   3.361  0.1151 -0.1924 -2.2561
14472SOL     OW44836   0.999   8.277   8.032  0.2631 -0.0759 -0.8000
14472SOL    HW144837   0.989   8.245   7.942  0.3994  0.0421 -0.8576
14472SOL    HW244838   1.083   8.242   8.061  1.2812  1.7197 -1.4930
14473SOL     OW44839   6.548   6.696   2.754  0.0630  0.7145  0.1813
14473SOL    HW144840   6.568   6.603   2.744  1.0647  0.8998  0.3636
14473SOL    HW244841   6.455   6.699   2.778 -0.6232 -0.1118 -2.1428
14474SOL     OW44842   8.105   6.044   4.095  0.6550  0.3251  0.0262
14474SOL    HW144843   8.153   5.967   4.125  1.0076  0.2532 -0.7064
14474SOL    HW244844   8.155   6.118   4.129  1.6799  0.2643 -1.2816
14475SOL     OW44845   4.619   8.987   1.169  0.2216 -0.0471  0.0643
14475SOL    HW144846   4.610   8.893   1.180  0.8557 -0.1509 -0.2393
14475SOL    HW244847   4.698   9.009   1.219  1.0956  0.0321 -1.2965
14476SOL     OW44848   3.356   0.382   8.813 -0.3217  0.0281 -0.3663
14476SOL    HW144849   3.407   0.348   8.887  0.9787 -0.9622 -1.6719
14476SOL    HW244850   3.315   0.305   8.774 -0.4798  0.4501 -1.0594
14477SOL     OW44851   6.219   6.518   3.531  0.6267  0.2437 -0.0468
14477SOL    HW144852   6.248   6.460   3.460 -0.6686 -0.5923  0.0586
14477SOL    HW244853   6.147   6.469   3.573  0.2481  1.4577  0.7539
14478SOL     OW44854   0.004   2.937   3.433 -0.1240 -0.2190 -0.0251
14478SOL    HW144855  -0.032   2.941   3.522 -2.7861 -0.3387 -0.9930
14478SOL    HW244856  -0.033   3.014   3.389  0.7297 -0.4323 -1.1763
14479SOL     OW44857   6.977   7.977   4.106 -0.8610 -0.1841 -0.0101
14479SOL    HW144858   6.965   7.976   4.201  1.1924  1.2705  0.3414
14479SOL    HW244859   7.009   7.889   4.085 -3.9626 -1.4634  0.1470
14480SOL     OW44860   3.728   0.119   1.061 -0.2131 -0.1312 -0.1847
14480SOL    HW144861   3.777   0.172   0.999  1.6058 -0.5729  0.8040
14480SOL    HW244862   3.793   0.060   1.098 -1.1885  0.2251  2.2601
14481SOL     OW44863   5.400   7.623   6.039  1.1694  0.3119  0.8957
14481SOL    HW144864   5.305   7.618   6.044  1.2260 -0.1637  1.7325
14481SOL    HW244865   5.422   7.703   6.088  1.1822  0.5982  0.4251
14482SOL     OW44866   3.527   3.376   5.124 -0.0436 -0.3376  0.0758
14482SOL    HW144867   3.487   3.448   5.074 -2.1272 -1.7067 -0.3767
14482SOL    HW244868   3.603   3.350   5.072  1.2916  2.0257  0.6892
14483SOL     OW44869   2.281   2.582   5.722 -0.2111  0.0597 -0.0873
14483SOL    HW144870   2.270   2.677   5.717 -0.0834  0.0872  0.1305
14483SOL    HW244871   2.365   2.570   5.766  0.5741 -0.1507 -1.6148
14484SOL     OW44872   1.608   2.743   5.063  0.7277  0.2404  0.3449
14484SOL    HW144873   1.614   2.662   5.012 -3.3136 -0.4501  0.6223
14484SOL    HW244874   1.645   2.719   5.148  0.7587 -0.9387  0.0267
14485SOL     OW44875   3.926   4.394   5.898  0.2209 -0.1707  0.3821
14485SOL    HW144876   4.003   4.431   5.941  1.0878 -1.0995 -0.2892
14485SOL    HW244877   3.862   4.380   5.968  1.3724 -1.1202  1.2926
14486SOL     OW44878   0.084   4.485   2.493  0.2853  0.0988  0.5749
14486SOL    HW144879   0.137   4.518   2.566 -0.0385  1.0088  0.4080
14486SOL    HW244880  -0.006   4.508   2.516  0.1832  0.4297 -0.1254
14487SOL     OW44881   0.103   8.137   3.736 -0.6521  0.0175 -0.1873
14487SOL    HW144882   0.134   8.198   3.803 -0.4992 -0.1343 -0.1193
14487SOL    HW244883   0.016   8.170   3.712 -0.4388  0.4450 -0.3839
14488SOL     OW44884   7.952   1.534   8.604  0.4160  0.1437  0.5715
14488SOL    HW144885   7.866   1.503   8.632  0.6791 -2.3917 -1.0870
14488SOL    HW244886   8.005   1.455   8.597  2.2136  1.3743 -0.6537
14489SOL     OW44887   0.664   7.471   8.463 -0.5824  0.3875 -0.6603
14489SOL    HW144888   0.687   7.545   8.407  2.4858 -1.2215 -1.7835
14489SOL    HW244889   0.572   7.454   8.443 -0.5911  2.1242 -2.4769
14490SOL     OW44890   4.436   6.466   2.460  0.1028 -0.1598 -0.7240
14490SOL    HW144891   4.474   6.525   2.396 -0.0325 -0.7197 -1.3360
14490SOL    HW244892   4.390   6.523   2.521  1.3759  0.4846 -0.3227
14491SOL     OW44893   4.404   4.656   7.192  0.0987  0.0436  0.8977
14491SOL    HW144894   4.378   4.649   7.100  0.2535 -0.4426  0.8899
14491SOL    HW244895   4.496   4.682   7.189  0.5543 -1.4557  0.8865
14492SOL     OW44896   6.079   4.837   8.801  0.0982 -0.1030 -0.0392
14492SOL    HW144897   6.119   4.774   8.861 -0.0523 -1.3040 -1.1502
14492SOL    HW244898   6.149   4.859   8.739 -0.0320  0.3423 -0.0328
14493SOL     OW44899   8.767   5.269   4.515  0.3149  0.7257  0.0214
14493SOL    HW144900   8.762   5.192   4.458  0.8215  1.2164 -0.7022
14493SOL    HW244901   8.753   5.343   4.457  0.0004  1.2015  0.6863
14494SOL     OW44902   4.247   6.703   3.747  0.2639 -0.0789  0.2186
14494SOL    HW144903   4.246   6.762   3.822  0.7553  0.9210 -0.5419
14494SOL    HW244904   4.169   6.649   3.758 -0.5752  1.1712  0.5826
14495SOL     OW44905   0.196   3.963   6.922  0.4900  0.0594  0.5958
14495SOL    HW144906   0.266   3.908   6.887 -0.6359 -1.0486  0.0105
14495SOL    HW244907   0.156   3.909   6.991  1.8643  1.7166  2.8335
14496SOL     OW44908   8.881   1.484   4.257 -0.2052  0.2784 -0.9071
14496SOL    HW144909   8.927   1.402   4.272 -0.8799  0.2491  1.3657
14496SOL    HW244910   8.950   1.551   4.255  0.0959  0.2792  2.7442
14497SOL     OW44911   7.010   8.687   8.277 -0.5157 -0.1544 -0.3590
14497SOL    HW144912   6.962   8.617   8.323 -1.6796  0.5991 -0.3779
14497SOL    HW244913   7.069   8.722   8.343 -0.2978 -0.8115 -0.1978
14498SOL     OW44914   6.432   3.077   6.392  0.5636 -0.2511  0.4007
14498SOL    HW144915   6.464   3.136   6.461  0.6882 -1.6760  1.6108
14498SOL    HW244916   6.465   2.991   6.417 -0.1636 -0.9540 -0.9715
14499SOL     OW44917   7.507   8.855   4.914 -0.1403 -0.5484 -0.1371
14499SOL    HW144918   7.564   8.922   4.952 -0.8467 -0.1740  0.2748
14499SOL    HW244919   7.550   8.831   4.831  0.1509  0.3651 -0.2566
14500SOL     OW44920   4.637   8.001   2.759  0.2479 -0.7148 -0.1432
14500SOL    HW144921   4.649   7.995   2.854 -0.9360  2.4805  0.3530
14500SOL    HW244922   4.550   7.965   2.743 -0.4779  0.7340  0.3793
14501SOL     OW44923   3.136   6.855   3.384 -0.0406 -0.1457  0.2497
14501SOL    HW144924   3.157   6.944   3.359 -0.7387 -0.2300 -0.6853
14501SOL    HW244925   3.207   6.829   3.443  0.8798  0.5586 -0.5198
14502SOL     OW44926   5.192   4.393   5.560 -0.1986 -0.1690 -0.4173
14502SOL    HW144927   5.205   4.384   5.655 -0.5983 -1.2705 -0.4501
14502SOL    HW244928   5.110   4.442   5.551  1.4052  2.7396 -0.2193
14503SOL     OW44929   5.970   4.454   2.462 -0.6015  0.0116 -0.1231
14503SOL    HW144930   5.986   4.390   2.532  0.3987  0.3198 -0.0648
14503SOL    HW244931   6.040   4.439   2.399 -1.0740  0.2380 -0.7158
14504SOL     OW44932   2.166   3.967   6.096 -0.3280  0.2551 -0.3856
14504SOL    HW144933   2.261   3.975   6.108  0.0063 -0.0272 -2.5089
14504SOL    HW244934   2.134   4.057   6.104  0.3739  0.6130 -1.3933
14505SOL     OW44935   6.876   3.492   4.021 -0.0824 -0.5109 -0.3851
14505SOL    HW144936   6.961   3.450   4.037  0.3995  0.4002 -0.4789
14505SOL    HW244937   6.898   3.583   4.001 -0.9850 -0.5724 -1.7777
14506SOL     OW44938   2.963   3.916   7.993 -0.0458 -0.0053 -0.1394
14506SOL    HW144939   3.048   3.930   7.953 -0.6258 -0.4225 -1.5824
14506SOL    HW244940   2.901   3.958   7.934 -0.9231 -0.4743  0.4163
14507SOL     OW44941   5.579   7.306   9.043  0.1005  0.5657 -0.0691
14507SOL    HW144942   5.666   7.282   9.010  0.1121  0.8784 -0.2679
14507SOL    HW244943   5.518   7.257   8.987  0.1307  0.8662 -0.3735
14508SOL     OW44944   8.049   4.155   4.341 -0.0692  0.4415  0.0988
14508SOL    HW144945   8.035   4.123   4.431  0.3579  0.6755  0.2531
14508SOL    HW244946   8.091   4.240   4.353 -2.6273  1.8642 -0.2621
14509SOL     OW44947   7.285   2.038   3.681  0.1786 -0.0068 -0.2384
14509SOL    HW144948   7.370   2.081   3.669  0.0231 -0.0344 -1.6143
14509SOL    HW244949   7.247   2.035   3.593  0.1193 -2.8783 -0.1994
14510SOL     OW44950   6.664   0.502   3.378 -0.3725 -0.0438  0.3679
14510SOL    HW144951   6.637   0.483   3.288  0.2948  0.0452  0.1439
14510SOL    HW244952   6.643   0.423   3.427  0.1454 -0.4535 -0.0648
14511SOL     OW44953   6.164   7.291   8.874  0.2618  0.0776 -0.2077
14511SOL    HW144954   6.136   7.256   8.790  2.1245 -0.4565 -0.6387
14511SOL    HW244955   6.227   7.359   8.853  1.2392 -0.4976  0.7455
14512SOL     OW44956   1.837   5.723   8.153  0.2951 -0.1167  0.1157
14512SOL    HW144957   1.824   5.703   8.061  1.7152 -0.2598 -0.0708
14512SOL    HW244958   1.755   5.696   8.195 -0.6043  0.4973 -1.1601
14513SOL     OW44959   3.736   8.860   4.715  0.3313  0.0407  0.0711
14513SOL    HW144960   3.753   8.883   4.806 -0.7065  0.3478  0.1962
14513SOL    HW244961   3.657   8.806   4.718 -0.2246  0.7828 -0.7218
14514SOL     OW44962   4.148   7.814   0.971  0.0286  0.0737  0.4868
14514SOL    HW144963   4.212   7.812   0.900  0.1532  0.2284  0.5931
14514SOL    HW244964   4.135   7.722   0.996  1.7043  0.1469  1.7938
14515SOL     OW44965   3.582   8.346   7.647 -0.9074 -0.1437  0.4329
14515SOL    HW144966   3.644   8.324   7.578  0.3696 -1.1162  1.8366
14515SOL    HW244967   3.538   8.425   7.614  1.5017  0.9764 -0.3742
14516SOL     OW44968   8.597   1.038   8.154 -0.0569 -0.0962  0.0031
14516SOL    HW144969   8.545   1.054   8.075  0.8056  0.8921 -0.3848
14516SOL    HW244970   8.600   0.943   8.161 -0.3881 -0.1954 -0.9983
14517SOL     OW44971   3.399   8.682   3.190  0.1738  0.4331 -0.0947
14517SOL    HW144972   3.321   8.629   3.203  0.6875 -0.1484  0.6183
14517SOL    HW244973   3.371   8.749   3.126 -0.5748 -0.4460 -0.7132
14518SOL     OW44974   3.735   6.565   0.182  0.2354  0.8088 -0.3104
14518SOL    HW144975   3.755   6.551   0.274 -0.6619  1.5528  0.0186
14518SOL    HW244976   3.817   6.593   0.143  1.2941 -1.9845 -0.3178
14519SOL     OW44977   1.060   4.767   9.068  0.1288 -0.1281 -0.1123
14519SOL    HW144978   1.012   4.823   9.130  0.3703  1.3702 -1.2307
14519SOL    HW244979   0.992   4.719   9.021 -0.2101  0.7036 -0.4931
14520SOL     OW44980   3.290   0.286   1.949 -0.2281  0.3750 -0.4684
14520SOL    HW144981   3.242   0.207   1.925  0.7859 -0.2324 -0.5263
14520SOL    HW244982   3.222   0.354   1.954 -0.8495  0.0111 -2.6015
14521SOL     OW44983   6.766   5.958   7.330  0.2736  0.1413 -0.4539
14521SOL    HW144984   6.793   5.918   7.247 -0.7249 -1.1512 -0.1867
14521SOL    HW244985   6.671   5.962   7.325  0.1958 -0.0157  0.6595
14522SOL     OW44986   6.352   7.268   4.852 -0.5323  0.0963  0.1621
14522SOL    HW144987   6.268   7.271   4.806 -1.8058  1.3569  2.4052
14522SOL    HW244988   6.414   7.234   4.787 -2.8754 -1.5231 -1.3704
14523SOL     OW44989   5.606   6.526   4.630  0.4360 -0.1977 -0.5578
14523SOL    HW144990   5.608   6.608   4.581  2.5341  0.2030  0.1070
14523SOL    HW244991   5.692   6.520   4.671  0.1264 -2.4426 -0.0881
14524SOL     OW44992   8.433   3.410   5.035  0.2991  0.0308 -0.6076
14524SOL    HW144993   8.524   3.390   5.058  0.6454  0.7946 -1.2288
14524SOL    HW244994   8.395   3.326   5.009  0.5621 -0.4406  0.5083
14525SOL     OW44995   1.720   1.615   7.881  0.1263  0.2019  0.3573
14525SOL    HW144996   1.694   1.681   7.817  2.8409  0.6143 -0.4529
14525SOL    HW244997   1.648   1.552   7.882 -0.6250  0.9280 -2.0585
14526SOL     OW44998   5.084   4.839   5.210  0.6988 -0.7521  0.3239
14526SOL    HW144999   5.073   4.907   5.277  0.0060  0.1526 -0.6837
14526SOL    HW245000   5.011   4.852   5.150  1.1678 -1.7040 -0.4807
14527SOL     OW45001   9.195   4.502   0.250  0.1353 -0.3294 -0.1685
14527SOL    HW145002   9.249   4.526   0.325 -2.5299 -0.3682  1.9067
14527SOL    HW245003   9.221   4.564   0.181  1.9085  0.4421  1.1289
14528SOL     OW45004   1.134   3.178   6.990 -0.1299  0.3685  0.1228
14528SOL    HW145005   1.094   3.137   6.914  1.1285 -1.2048  0.2525
14528SOL    HW245006   1.227   3.181   6.969  0.0817  1.0205  1.1084
14529SOL     OW45007   9.100   3.701   5.735  0.3804  0.8236 -0.3939
14529SOL    HW145008   9.077   3.761   5.805  1.6659  1.8809 -0.8424
14529SOL    HW245009   9.023   3.700   5.678  0.1639  1.6636 -0.1223
14530SOL     OW45010   5.948   3.587   5.925 -0.0091 -0.3692 -0.3274
14530SOL    HW145011   5.896   3.610   6.002 -0.9863 -0.6624 -0.8826
14530SOL    HW245012   5.923   3.652   5.859 -1.5196 -1.9169 -1.3679
14531SOL     OW45013   4.633   4.603   5.166 -0.1663  0.6236 -0.0564
14531SOL    HW145014   4.578   4.589   5.088  0.9512  0.5362 -0.8605
14531SOL    HW245015   4.610   4.532   5.225 -1.8791  1.3547  0.2201
14532SOL     OW45016   7.591   2.984   4.271  0.1478 -0.2568  0.2290
14532SOL    HW145017   7.519   2.997   4.209 -0.3859 -0.1616  0.8584
14532SOL    HW245018   7.564   3.032   4.349  0.6577 -0.6618  0.6595
14533SOL     OW45019   2.599   7.795   2.118 -0.2047 -0.2396 -0.2868
14533SOL    HW145020   2.646   7.714   2.140 -2.1481 -1.3803 -0.0547
14533SOL    HW245021   2.629   7.817   2.030  2.6995  0.6194  0.8049
14534SOL     OW45022   7.777   7.186   6.559 -0.2652  0.3320  0.3954
14534SOL    HW145023   7.831   7.167   6.482 -1.0940  0.8374 -0.3244
14534SOL    HW245024   7.841   7.207   6.628  0.5076 -0.7709  0.0402
14535SOL     OW45025   2.084   3.087   8.534 -0.3550 -0.4318 -0.0590
14535SOL    HW145026   2.050   3.165   8.490 -1.1535  0.6906  2.3635
14535SOL    HW245027   2.021   3.018   8.516 -1.0073  0.1797 -0.1238
14536SOL     OW45028   3.379   6.692   4.486  0.5275 -0.3415 -0.5280
14536SOL    HW145029   3.350   6.776   4.521  0.4821 -0.2887 -0.6907
14536SOL    HW245030   3.298   6.648   4.458  0.5871 -0.2743 -0.8055
14537SOL     OW45031   2.116   5.924   4.255 -1.1739 -0.6420 -0.6459
14537SOL    HW145032   2.182   5.938   4.187  0.9564 -0.7406  1.2390
14537SOL    HW245033   2.036   5.903   4.208 -1.0725  3.6575 -3.2856
14538SOL     OW45034   0.426   5.634   1.606 -0.2546 -0.1125 -0.2869
14538SOL    HW145035   0.374   5.590   1.539  0.6813 -2.9044  0.6716
14538SOL    HW245036   0.484   5.566   1.640  0.6266  1.6676  2.0572
14539SOL     OW45037   3.074   2.613   3.831 -0.6838  0.1163 -0.0850
14539SOL    HW145038   2.990   2.566   3.829 -0.5474 -0.2907  1.7824
14539SOL    HW245039   3.079   2.648   3.920  0.2233  1.8506 -0.7786
14540SOL     OW45040   3.949   1.350   4.868 -0.1106  0.0131  0.3124
14540SOL    HW145041   3.925   1.274   4.920  1.4655 -0.4002  0.4988
14540SOL    HW245042   3.884   1.417   4.890 -2.5956 -1.7424 -1.1423
14541SOL     OW45043   6.227   8.502   9.020  0.0804 -0.2254 -0.2234
14541SOL    HW145044   6.159   8.556   9.061  1.3721  1.6452 -0.3628
14541SOL    HW245045   6.307   8.555   9.029  1.6567 -2.5356  0.4021
14542SOL     OW45046   5.295   6.896   4.560  0.7691  0.0045  0.2858
14542SOL    HW145047   5.370   6.950   4.536  0.5916 -0.1281 -0.5853
14542SOL    HW245048   5.318   6.861   4.646  0.4796  2.2162  1.3268
14543SOL     OW45049   7.778   4.076   5.791  0.4472  0.4252 -0.1681
14543SOL    HW145050   7.771   4.026   5.872 -0.5870 -0.2884 -0.6661
14543SOL    HW245051   7.829   4.020   5.733 -1.7156 -0.6855 -1.1291
14544SOL     OW45052   2.558   4.354   2.873  0.1953  0.1829  0.6065
14544SOL    HW145053   2.503   4.331   2.948  1.2149  2.7160  2.2360
14544SOL    HW245054   2.528   4.440   2.846  1.0038  0.0493 -0.8234
14545SOL     OW45055   1.759   5.089   8.214 -0.4298 -0.9143  0.2524
14545SOL    HW145056   1.810   5.080   8.295  0.9048 -1.1943 -0.5786
14545SOL    HW245057   1.787   5.015   8.160 -0.5812 -0.2034 -0.8294
14546SOL     OW45058   5.058   8.015   0.363  0.1703  0.3097 -0.0715
14546SOL    HW145059   5.078   7.937   0.311  0.3182  0.0112  0.4301
14546SOL    HW245060   5.135   8.071   0.353 -0.2372  0.7313 -1.0354
14547SOL     OW45061   0.918   5.574   1.620  0.0883  0.5015  0.4324
14547SOL    HW145062   0.909   5.650   1.563  1.4200  1.2047  1.1161
14547SOL    HW245063   0.941   5.502   1.560  1.4313  1.2196  0.0525
14548SOL     OW45064   0.797   0.675   4.864  0.1468  0.1856  0.0988
14548SOL    HW145065   0.702   0.675   4.852  0.3894  0.5673 -2.0291
14548SOL    HW245066   0.824   0.766   4.851  1.0220 -0.2606 -1.3881
14549SOL     OW45067   7.066   6.300   7.486 -0.0281  0.0103 -0.1861
14549SOL    HW145068   6.984   6.255   7.463 -0.6969  1.0473  0.1005
14549SOL    HW245069   7.075   6.369   7.421  0.2448  0.3532  0.2141
14550SOL     OW45070   0.838   3.313   3.989 -0.0664 -0.7339 -0.2497
14550SOL    HW145071   0.780   3.381   3.954 -0.0071  0.3740  1.7043
14550SOL    HW245072   0.922   3.356   4.001  1.1101 -2.1794 -2.4848
14551SOL     OW45073   0.243   1.641   2.453 -0.4833 -0.0757 -0.2848
14551SOL    HW145074   0.263   1.664   2.543  1.6915 -0.2570 -0.6796
14551SOL    HW245075   0.208   1.552   2.459  0.7306 -0.5410  0.3104
14552SOL     OW45076   6.783   3.551   4.645 -0.2572 -0.2397  0.0147
14552SOL    HW145077   6.693   3.585   4.642 -0.0444  0.2998 -0.6050
14552SOL    HW245078   6.794   3.506   4.562  0.4779  0.8626 -0.5066
14553SOL     OW45079   0.023   5.915   5.896 -0.3592  0.1703  0.3353
14553SOL    HW145080   0.105   5.867   5.907 -1.3541 -1.4312  1.0714
14553SOL    HW245081   0.033   5.959   5.811  0.9521 -0.6004  0.0525
14554SOL     OW45082   9.054   7.253   4.572  0.4944 -0.6078 -0.1437
14554SOL    HW145083   9.080   7.302   4.494 -2.0170  1.2538  0.0675
14554SOL    HW245084   9.034   7.320   4.637 -1.7728 -1.9185  0.6132
14555SOL     OW45085   2.540   8.156   7.419 -0.4034 -0.2695  0.3478
14555SOL    HW145086   2.517   8.068   7.449  0.0301 -0.5738 -0.1833
14555SOL    HW245087   2.585   8.141   7.336  2.4462  0.2051  1.6787
14556SOL     OW45088   4.601   1.731   3.272  0.2422 -0.3807 -0.2199
14556SOL    HW145089   4.666   1.749   3.340 -0.3378  1.2752 -0.0811
14556SOL    HW245090   4.592   1.635   3.273  2.6147 -0.6658 -0.1977
14557SOL     OW45091   7.199   0.659   8.928  0.1558  0.1729  0.0405
14557SOL    HW145092   7.234   0.636   9.014  2.3818  1.1652 -0.5428
14557SOL    HW245093   7.151   0.741   8.943 -0.4198 -0.2309  0.4969
14558SOL     OW45094   6.987   1.119   0.971  0.1206 -0.4198 -0.5257
14558SOL    HW145095   6.907   1.068   0.983 -1.1492  1.4658 -0.5588
14558SOL    HW245096   7.058   1.058   0.992 -1.3518 -1.8325  0.6016
14559SOL     OW45097   3.501   3.825   4.440  0.4157  0.1535  0.2831
14559SOL    HW145098   3.570   3.765   4.412 -0.6348 -0.4830 -1.0075
14559SOL    HW245099   3.508   3.899   4.380  1.4779  1.2220  1.6495
14560SOL     OW45100   1.246   3.704   9.263  0.2016  0.1688  0.2673
14560SOL    HW145101   1.313   3.717   9.196 -0.4663 -0.1471 -0.4841
14560SOL    HW245102   1.200   3.788   9.268  0.8742  0.5074  1.0561
14561SOL     OW45103   8.984   4.180   6.798  0.0685  0.3071  0.1388
14561SOL    HW145104   9.071   4.162   6.834 -1.0849  1.0311  3.7885
14561SOL    HW245105   8.939   4.095   6.802  0.7671 -0.2737 -2.6055
14562SOL     OW45106   9.067   6.490   1.927  0.8467 -0.0390 -0.1168
14562SOL    HW145107   9.123   6.567   1.916  0.3295  0.1706 -1.3848
14562SOL    HW245108   9.121   6.417   1.896  1.8022 -0.4196  2.2319
14563SOL     OW45109   0.386   4.229   0.057  0.1826 -0.4671  0.3554
14563SOL    HW145110   0.297   4.195   0.070 -0.4796  0.9418 -0.2840
14563SOL    HW245111   0.402   4.220  -0.037  0.8236 -0.9366  0.5037
14564SOL     OW45112   4.259   5.283   4.634 -0.0650 -0.1002  0.2813
14564SOL    HW145113   4.337   5.280   4.579 -0.1423 -0.9847  0.2026
14564SOL    HW245114   4.289   5.257   4.721 -0.3290 -0.8633  0.1596
14565SOL     OW45115   5.661   1.394   5.984  0.1929 -0.1445 -0.1905
14565SOL    HW145116   5.711   1.369   6.061  0.3348  0.6152 -0.0245
14565SOL    HW245117   5.683   1.486   5.970 -1.8037  0.4870  0.4255
14566SOL     OW45118   1.862   4.183   8.964  0.2951  0.3030  0.2206
14566SOL    HW145119   1.942   4.214   9.006  0.3257  0.7057 -0.1229
14566SOL    HW245120   1.851   4.093   8.995  0.5812  0.4290  0.7010
14567SOL     OW45121   1.233   4.760   4.077 -0.4063 -0.3810 -0.0001
14567SOL    HW145122   1.288   4.703   4.023  0.2268  0.4419 -0.2429
14567SOL    HW245123   1.294   4.826   4.112 -1.1347  0.2009  0.2009
14568SOL     OW45124   1.996   2.027   2.903  0.0732  0.6276  0.2095
14568SOL    HW145125   1.960   1.984   2.825  0.6119 -1.0039  0.8286
14568SOL    HW245126   2.052   1.961   2.943  0.7412  1.8470  1.3443
14569SOL     OW45127   3.859   2.949   2.918 -0.1679  0.1590  0.0925
14569SOL    HW145128   3.793   2.889   2.951 -0.9826  2.0130  2.0220
14569SOL    HW245129   3.809   3.024   2.884  0.8817  0.8256 -0.0301
14570SOL     OW45130   3.355   1.801   3.412 -0.5052 -0.0702 -0.1418
14570SOL    HW145131   3.364   1.722   3.464  0.6856  1.2655  1.8232
14570SOL    HW245132   3.445   1.831   3.397 -0.9418  1.4990  0.1514
14571SOL     OW45133   7.844   6.384   8.620  0.0914  0.3686  0.2913
14571SOL    HW145134   7.797   6.313   8.664  1.1412 -0.8040 -0.3849
14571SOL    HW245135   7.916   6.340   8.575 -0.9361  1.4578 -2.6663
14572SOL     OW45136   7.358   8.294   3.930 -0.3113  0.6511 -0.0465
14572SOL    HW145137   7.411   8.374   3.930 -0.0775  0.4944  0.5428
14572SOL    HW245138   7.345   8.275   3.837  1.8729 -0.1062 -0.2622
14573SOL     OW45139   4.942   8.266   4.601 -0.1088 -0.1157 -0.1358
14573SOL    HW145140   4.990   8.215   4.535  1.6668  0.7121  0.4517
14573SOL    HW245141   4.976   8.355   4.592 -1.1062  0.3757  0.7521
14574SOL     OW45142   5.535   3.210   5.067  0.5758 -0.1326 -0.1699
14574SOL    HW145143   5.557   3.184   4.978  0.6074 -1.0449  0.0908
14574SOL    HW245144   5.504   3.129   5.109  1.0332  0.1690  0.7905
14575SOL     OW45145   8.593   4.348   2.485 -0.1964 -0.2828  0.5827
14575SOL    HW145146   8.559   4.313   2.403  0.1983 -0.0745  0.3325
14575SOL    HW245147   8.620   4.437   2.465  1.3724 -0.7395  0.5346
14576SOL     OW45148   1.956   8.755   7.904  0.5918  0.4056 -0.6287
14576SOL    HW145149   1.925   8.773   7.816 -0.3309 -0.1185 -0.4194
14576SOL    HW245150   1.906   8.678   7.933  0.1257  1.1746  0.7267
14577SOL     OW45151   8.826   9.060   3.775 -0.3997 -0.2130 -0.0538
14577SOL    HW145152   8.921   9.069   3.782 -0.3241 -0.2495 -1.0075
14577SOL    HW245153   8.813   8.991   3.710 -1.0733 -1.1406  1.0259
14578SOL     OW45154   7.154   8.370   2.434  0.0239  0.4963  0.3098
14578SOL    HW145155   7.156   8.288   2.482 -2.2794  0.6318  0.7666
14578SOL    HW245156   7.157   8.438   2.502  0.2117  0.7643  0.0411
14579SOL     OW45157   2.868   4.166   0.581 -0.0699  0.0732  0.1303
14579SOL    HW145158   2.947   4.123   0.548  1.1032  1.9809  0.3276
14579SOL    HW245159   2.816   4.094   0.618  1.9284 -1.1466  0.7571
14580SOL     OW45160   3.832   3.329   3.971 -0.6221  0.2072 -0.5318
14580SOL    HW145161   3.921   3.292   3.972 -0.2269  1.1202 -0.8618
14580SOL    HW245162   3.814   3.344   3.878 -1.3828 -0.5448 -0.5238
14581SOL     OW45163   0.319   6.189   6.709 -0.2988 -0.5592 -0.1255
14581SOL    HW145164   0.322   6.281   6.733  1.1745 -0.8621  0.9283
14581SOL    HW245165   0.231   6.177   6.672 -0.0662  1.5286 -1.4618
14582SOL     OW45166   0.073   1.359   3.309  0.2550 -0.6030 -0.1381
14582SOL    HW145167   0.007   1.320   3.365 -0.4857  0.4775 -0.2259
14582SOL    HW245168   0.036   1.443   3.282  1.1726 -0.4868 -1.1355
14583SOL     OW45169   7.422   2.375   2.220 -0.5589 -0.4229  0.4492
14583SOL    HW145170   7.435   2.419   2.304 -1.5231 -0.4239  0.6118
14583SOL    HW245171   7.445   2.440   2.154 -1.0518  0.0150  0.7028
14584SOL     OW45172   3.105   6.363   5.129 -0.1030  0.3952  0.5242
14584SOL    HW145173   3.137   6.445   5.165  0.6016  0.0760  0.6372
14584SOL    HW245174   3.183   6.310   5.113 -0.4017  0.4321 -1.2912
14585SOL     OW45175   6.351   7.235   5.793 -0.5271  0.2096 -0.6650
14585SOL    HW145176   6.439   7.270   5.804 -0.6171  0.6024 -1.1457
14585SOL    HW245177   6.293   7.303   5.827 -0.6339 -0.1807 -0.0574
14586SOL     OW45178   5.033   1.785   0.540 -0.0739 -0.2357 -0.2102
14586SOL    HW145179   4.969   1.851   0.514 -0.2799 -0.0775  0.6760
14586SOL    HW245180   4.990   1.737   0.611  0.2310 -1.0594 -0.5706
14587SOL     OW45181   9.064   8.105   1.812  0.0752  0.3546  0.3168
14587SOL    HW145182   8.982   8.147   1.786  0.8628  1.9339  0.2660
14587SOL    HW245183   9.101   8.071   1.730 -1.5650 -2.4690  0.6055
14588SOL     OW45184   0.844   7.237   5.299  0.2541  0.4628  0.4139
14588SOL    HW145185   0.777   7.301   5.277  0.7578  0.9909  0.3902
14588SOL    HW245186   0.919   7.260   5.244  1.2113  1.2363  1.9451
14589SOL     OW45187   4.726   4.749   2.088  0.1125 -0.2077 -0.3480
14589SOL    HW145188   4.793   4.812   2.115 -0.8799  0.6117  0.2997
14589SOL    HW245189   4.758   4.714   2.005  1.3075  0.1983 -0.0783
14590SOL     OW45190   8.863   9.052   7.618 -0.0088  0.3749  0.2401
14590SOL    HW145191   8.827   9.131   7.659  1.5508  0.9190  0.5934
14590SOL    HW245192   8.876   9.076   7.526 -0.3142  0.2523  0.1637
14591SOL     OW45193   4.789   5.522   2.396  0.6280 -0.1300 -0.4254
14591SOL    HW145194   4.742   5.580   2.337 -1.0339 -1.3470 -0.3675
14591SOL    HW245195   4.784   5.565   2.482  1.4069  0.7114 -0.7811
14592SOL     OW45196   8.169   3.090   2.769  0.6683  0.1840  0.0825
14592SOL    HW145197   8.201   3.135   2.690 -0.3292  3.3333  1.2977
14592SOL    HW245198   8.249   3.056   2.810  1.5763  1.1997 -0.7600
14593SOL     OW45199   4.778   9.093   1.746  0.1670 -0.7369 -0.2507
14593SOL    HW145200   4.753   9.001   1.754  0.2249 -0.7939 -0.7038
14593SOL    HW245201   4.710   9.140   1.794  0.1976 -1.0219  0.0754
14594SOL     OW45202   1.831   4.506   6.674  0.3572  0.0152  0.1227
14594SOL    HW145203   1.912   4.504   6.624  1.6233 -0.4371  2.0541
14594SOL    HW245204   1.857   4.479   6.763 -1.9113 -0.1766  0.8049
14595SOL     OW45205   1.602   0.105   9.069  0.5301 -0.6360 -0.4730
14595SOL    HW145206   1.639   0.052   9.140 -0.0886  1.2370  1.3590
14595SOL    HW245207   1.669   0.103   9.001  2.3288 -0.4605  1.1958
14596SOL     OW45208   8.461   2.390   5.243 -0.2758  0.0347  0.0005
14596SOL    HW145209   8.504   2.315   5.285  0.5247  0.7389  0.4689
14596SOL    HW245210   8.489   2.465   5.295 -2.8659  0.4503  0.9444
14597SOL     OW45211   0.489   3.426   1.327 -0.0398  0.1901 -0.2102
14597SOL    HW145212   0.491   3.483   1.404 -0.6313  0.2602 -0.2440
14597SOL    HW245213   0.581   3.404   1.311 -0.0188 -0.9876  1.3698
14598SOL     OW45214   4.385   1.564   8.187  0.0480 -0.4563 -0.0850
14598SOL    HW145215   4.304   1.568   8.136  0.2885 -1.1249 -0.5238
14598SOL    HW245216   4.415   1.655   8.192 -0.4366 -0.2768 -0.3869
14599SOL     OW45217   8.645   5.066   5.103 -0.1383  0.0189  0.1244
14599SOL    HW145218   8.558   5.051   5.139  0.8338 -1.2560  2.1087
14599SOL    HW245219   8.636   5.049   5.009 -2.0670  0.2405  0.2377
14600SOL     OW45220   9.057   2.473   1.030 -0.6417 -0.1017  0.1780
14600SOL    HW145221   9.026   2.513   1.111 -0.7502  1.2847 -0.5167
14600SOL    HW245222   9.150   2.494   1.027 -1.3349  3.6596 -2.0244
14601SOL     OW45223   4.890   3.458   5.593 -0.0930 -0.2106 -0.0839
14601SOL    HW145224   4.959   3.520   5.569  1.1130 -1.6731 -0.5882
14601SOL    HW245225   4.933   3.393   5.649 -0.2496 -2.7479 -2.6469
14602SOL     OW45226   5.200   2.532   4.936 -0.0303 -0.0941 -0.2359
14602SOL    HW145227   5.287   2.541   4.977  0.0979 -0.3404 -0.4509
14602SOL    HW245228   5.219   2.525   4.843 -0.2662 -0.4006 -0.2604
14603SOL     OW45229   5.340   9.129   0.076 -0.4681 -0.0524 -0.2093
14603SOL    HW145230   5.377   9.200   0.129 -1.1484  1.0921 -1.1848
14603SOL    HW245231   5.378   9.143  -0.011 -0.3155 -1.1334 -0.3253
14604SOL     OW45232   5.614   4.542   1.301  0.9241 -0.1500  0.3578
14604SOL    HW145233   5.569   4.593   1.233  0.3882 -1.4510 -0.3071
14604SOL    HW245234   5.550   4.537   1.372  0.1611 -1.5091 -0.3608
14605SOL     OW45235   0.412   1.774   4.774 -0.0892  0.1353 -0.4075
14605SOL    HW145236   0.439   1.842   4.836  0.4303 -1.1109  0.7834
14605SOL    HW245237   0.444   1.806   4.689 -0.4923  1.7031 -0.0148
14606SOL     OW45238   0.427   7.004   2.996 -0.2741  0.3466 -0.1064
14606SOL    HW145239   0.420   6.930   2.936 -0.7255 -0.2908  0.7062
14606SOL    HW245240   0.344   7.051   2.986 -1.6727 -1.4370  2.1129
14607SOL     OW45241   7.234   4.539   2.885  0.0979 -0.5127  0.2977
14607SOL    HW145242   7.169   4.567   2.821  1.0168  2.2257  0.4559
14607SOL    HW245243   7.191   4.552   2.970  0.0874 -0.8402  0.3440
14608SOL     OW45244   6.240   4.156   1.757  0.5562  0.1639  0.1752
14608SOL    HW145245   6.151   4.139   1.788 -0.2873 -0.7860 -2.4610
14608SOL    HW245246   6.270   4.071   1.724  1.3846  1.0143 -1.3514
14609SOL     OW45247   0.428   6.084   6.107 -0.5899  0.1321  0.2886
14609SOL    HW145248   0.473   6.011   6.065 -1.4901 -0.2794  0.0118
14609SOL    HW245249   0.404   6.051   6.194  0.2598  0.5976  0.7192
14610SOL     OW45250   7.742   7.116   1.569 -0.5632  0.0960 -0.0208
14610SOL    HW145251   7.761   7.078   1.483  1.2669 -2.4578  1.3706
14610SOL    HW245252   7.813   7.084   1.626 -2.3318  0.6868  2.7132
14611SOL     OW45253   1.817   5.560   0.295  0.2996 -0.3052  0.3568
14611SOL    HW145254   1.839   5.627   0.231 -0.4719  0.2787  0.6914
14611SOL    HW245255   1.793   5.608   0.374 -0.3120 -0.9597  0.5880
14612SOL     OW45256   1.098   3.381   5.588 -0.7574  0.8245 -0.3505
14612SOL    HW145257   1.049   3.300   5.597  0.9214 -0.2397 -0.4581
14612SOL    HW245258   1.064   3.421   5.507  0.5401 -1.3514 -2.0676
14613SOL     OW45259   4.957   4.243   2.769 -0.3606 -0.0808 -0.1717
14613SOL    HW145260   4.915   4.318   2.810  0.2692  1.4727 -2.2212
14613SOL    HW245261   5.041   4.234   2.815  0.4913  1.8549 -1.2161
14614SOL     OW45262   6.857   9.143   1.995 -0.0382  0.3406  0.2791
14614SOL    HW145263   6.941   9.117   1.957 -0.3969  0.3506 -0.5489
14614SOL    HW245264   6.805   9.172   1.920 -1.0843 -0.4993  0.6499
14615SOL     OW45265   6.299   2.243   3.383  0.2226 -0.3961 -0.2234
14615SOL    HW145266   6.333   2.333   3.386  0.3022 -0.4273 -0.1802
14615SOL    HW245267   6.369   2.190   3.421 -0.3665 -0.3149  1.0129
14616SOL     OW45268   3.576   0.327   4.456  0.6035 -0.2291  0.7455
14616SOL    HW145269   3.668   0.343   4.436  0.5036  0.4582  0.8373
14616SOL    HW245270   3.546   0.272   4.384  1.1759 -0.7654  0.9045
14617SOL     OW45271   0.144   3.829   4.040 -0.3150  0.2638 -0.0359
14617SOL    HW145272   0.127   3.915   4.079 -0.9506  0.2497 -0.2692
14617SOL    HW245273   0.181   3.849   3.954 -0.3016  0.3067 -0.0201
14618SOL     OW45274   1.957   7.879   6.301 -0.2617 -0.6117  0.3098
14618SOL    HW145275   1.975   7.973   6.297  1.5563 -0.9534 -1.7471
14618SOL    HW245276   1.885   7.866   6.240  1.9077 -0.9068 -2.3932
14619SOL     OW45277   4.802   4.311   5.850  0.5724  0.1127 -0.5756
14619SOL    HW145278   4.867   4.241   5.841 -0.1659 -0.6883  0.1170
14619SOL    HW245279   4.733   4.288   5.789 -0.5243 -0.7898  0.9325
14620SOL     OW45280   1.539   6.991   0.529  0.2278  0.1944  0.0122
14620SOL    HW145281   1.500   6.983   0.442 -0.6163 -2.9450  0.5547
14620SOL    HW245282   1.628   6.958   0.518  0.3607  0.4970  0.1850
14621SOL     OW45283   2.889   8.431   3.473 -0.4984  0.2091 -0.2911
14621SOL    HW145284   2.897   8.336   3.478  0.3846  0.2760 -0.1213
14621SOL    HW245285   2.795   8.448   3.469 -0.6422 -0.7051 -1.1738
14622SOL     OW45286   3.367   1.837   2.767  0.2882 -0.0593 -0.1676
14622SOL    HW145287   3.285   1.851   2.719 -0.2525 -2.5757 -0.1157
14622SOL    HW245288   3.377   1.915   2.821 -2.0418  0.3763 -0.2612
14623SOL     OW45289   3.521   5.359   0.953  0.4527 -0.0406  0.3700
14623SOL    HW145290   3.484   5.378   0.867  0.8182  0.4552  0.3200
14623SOL    HW245291   3.542   5.265   0.949  1.2667  0.1565 -0.3977
14624SOL     OW45292   8.772   6.938   8.633 -0.5890 -0.0514  0.5732
14624SOL    HW145293   8.854   6.958   8.588 -1.1938  0.8178 -0.1595
14624SOL    HW245294   8.790   6.957   8.725  0.6148 -1.7134  0.7354
14625SOL     OW45295   2.326   5.565   4.115  0.0524  0.0328  0.4267
14625SOL    HW145296   2.339   5.524   4.201  1.6766  3.2540  1.8744
14625SOL    HW245297   2.235   5.546   4.093 -0.6194 -0.3558  3.1649
14626SOL     OW45298   8.843   8.241   6.198 -0.3903  0.4935 -0.1601
14626SOL    HW145299   8.763   8.273   6.155 -1.1170  0.6737  1.2844
14626SOL    HW245300   8.813   8.169   6.253  0.6027 -0.0381 -0.3060
14627SOL     OW45301   1.173   2.816   1.443 -0.3973  0.2101  0.1154
14627SOL    HW145302   1.249   2.762   1.423 -0.3215  0.5493 -0.5475
14627SOL    HW245303   1.210   2.896   1.481 -0.5218 -0.2905  1.3294
14628SOL     OW45304   5.894   0.581   0.379  0.2508 -0.3934 -0.3286
14628SOL    HW145305   5.866   0.505   0.328 -2.7390 -0.9187  1.8429
14628SOL    HW245306   5.979   0.555   0.416 -0.7610 -2.8458  0.5046
14629SOL     OW45307   5.860   8.988   5.156 -0.7400  0.4639  0.2158
14629SOL    HW145308   5.928   9.050   5.131 -1.0401  0.0108 -1.9134
14629SOL    HW245309   5.830   9.018   5.242  2.2858  0.5083  1.3548
14630SOL     OW45310   8.826   5.248   5.244 -0.0551  0.1240  0.4262
14630SOL    HW145311   8.781   5.166   5.224  0.7548 -0.4287  0.8189
14630SOL    HW245312   8.876   5.268   5.165 -1.7272  1.2891 -0.4141
14631SOL     OW45313   8.424   4.643   5.023  0.0430  0.0797 -0.2631
14631SOL    HW145314   8.418   4.570   5.085 -0.1979  0.5002  0.2232
14631SOL    HW245315   8.373   4.613   4.947 -1.7760  0.4993  0.7221
14632SOL     OW45316   4.721   1.278   4.687  0.2211 -1.0020 -0.1931
14632SOL    HW145317   4.630   1.298   4.708  0.0832  0.3295 -1.8861
14632SOL    HW245318   4.764   1.363   4.683  0.8146 -1.3480 -2.4315
14633SOL     OW45319   2.580   7.085   6.009 -0.2178  0.1023  0.2934
14633SOL    HW145320   2.645   7.150   6.035  0.3982 -0.2854 -0.2515
14633SOL    HW245321   2.527   7.128   5.942  1.9568 -0.8172 -2.1757
14634SOL     OW45322   3.394   4.782   0.960  0.3338  0.2283  0.2226
14634SOL    HW145323   3.375   4.835   1.038 -0.0140  0.0637  0.2519
14634SOL    HW245324   3.351   4.698   0.978  1.1584 -0.1757  0.3215
14635SOL     OW45325   2.511   5.947   3.314  0.0093  0.8926 -0.5676
14635SOL    HW145326   2.548   6.002   3.382  0.2494  0.2970 -0.2080
14635SOL    HW245327   2.456   5.884   3.362  1.5679 -0.6676 -0.7255
14636SOL     OW45328   7.136   0.485   2.563  0.3704  0.0782 -0.3105
14636SOL    HW145329   7.104   0.397   2.547  1.2183 -0.2444 -0.2638
14636SOL    HW245330   7.133   0.528   2.477  0.3263 -0.1205 -0.4082
14637SOL     OW45331   1.632   0.526   2.991 -0.1850  0.2009 -0.3516
14637SOL    HW145332   1.672   0.529   2.904  1.3156  1.7646  0.3445
14637SOL    HW245333   1.703   0.547   3.052 -1.7238  1.5685  1.0754
14638SOL     OW45334   0.467   5.397   0.484  0.5217  0.4109 -0.7105
14638SOL    HW145335   0.522   5.321   0.500 -0.6433 -0.5493 -1.0611
14638SOL    HW245336   0.454   5.397   0.389 -2.1088 -0.9434 -0.4537
14639SOL     OW45337   8.722   8.927   0.891  0.5514  0.2033  0.6824
14639SOL    HW145338   8.636   8.931   0.932  0.1595  2.2134 -0.2241
14639SOL    HW245339   8.783   8.951   0.961  0.2036  0.5021  0.8859
14640SOL     OW45340   7.102   5.011   2.000  0.7247  0.1199  0.1839
14640SOL    HW145341   7.066   4.996   2.087 -1.0132  1.7215 -0.2028
14640SOL    HW245342   7.100   4.925   1.958 -1.3880 -0.1272  0.6837
14641SOL     OW45343   3.024   8.859   5.472  0.3563  0.4848 -0.0830
14641SOL    HW145344   3.019   8.764   5.467  1.3979  0.3639  0.6841
14641SOL    HW245345   3.022   8.888   5.381 -0.5144 -0.2243 -0.3013
14642SOL     OW45346   0.432   7.577   8.764 -0.0407 -0.6587  0.1690
14642SOL    HW145347   0.366   7.609   8.826  1.0666 -0.4801  1.2837
14642SOL    HW245348   0.386   7.510   8.713 -1.0195 -0.7338  1.1063
14643SOL     OW45349   6.364   2.567   3.301  0.0781 -0.3636  0.1813
14643SOL    HW145350   6.332   2.607   3.382 -0.3822 -2.6831  1.2406
14643SOL    HW245351   6.407   2.638   3.254 -0.7883  1.3492  1.8565
14644SOL     OW45352   0.391   0.982   1.556  0.3269 -0.1199  0.2587
14644SOL    HW145353   0.320   0.960   1.496 -0.5084 -0.9292  1.4814
14644SOL    HW245354   0.409   0.900   1.602  0.1737  0.7119  1.8720
14645SOL     OW45355   0.095   2.925   7.833  0.5249  0.0862  0.2856
14645SOL    HW145356   0.059   2.897   7.917 -1.4480 -1.2172 -0.9135
14645SOL    HW245357   0.166   2.864   7.816  0.1071 -0.4587  0.4496
14646SOL     OW45358   4.293   8.157   5.349 -0.1072 -0.8717  0.2577
14646SOL    HW145359   4.370   8.102   5.363  0.2676 -0.0486  1.5776
14646SOL    HW245360   4.304   8.192   5.261  2.0339  0.6994  1.0674
14647SOL     OW45361   9.183   5.421   1.529 -0.4407  0.1994  0.3025
14647SOL    HW145362   9.157   5.487   1.465 -1.3837  0.0248  0.4960
14647SOL    HW245363   9.255   5.462   1.577  0.7477  0.0676 -1.3060
14648SOL     OW45364   1.946   5.773   8.403  0.4787 -0.0313 -0.5405
14648SOL    HW145365   1.920   5.783   8.312  0.4334 -0.7330 -0.6062
14648SOL    HW245366   1.865   5.789   8.453  0.1884 -0.9863 -0.6898
14649SOL     OW45367   8.082   6.852   5.329 -0.0395 -0.5833 -0.1780
14649SOL    HW145368   8.044   6.896   5.253 -0.4266 -1.1415 -0.3169
14649SOL    HW245369   8.176   6.851   5.310 -0.0067  0.2997 -0.0989
14650SOL     OW45370   7.352   2.647   7.747 -0.9369  0.1010  0.5391
14650SOL    HW145371   7.368   2.684   7.660 -1.9789  1.8678  1.0458
14650SOL    HW245372   7.384   2.557   7.741  1.6640  1.0140 -0.7964
14651SOL     OW45373   6.832   6.438   1.300  0.2469 -0.1451  0.7811
14651SOL    HW145374   6.755   6.495   1.306  1.1922  1.0832  1.9507
14651SOL    HW245375   6.814   6.381   1.225 -1.4040  0.6937  0.4897
14652SOL     OW45376   8.924   1.865   3.281  0.0448  0.1324  0.1950
14652SOL    HW145377   8.839   1.908   3.269  0.3306  0.9052  0.8665
14652SOL    HW245378   8.939   1.867   3.375  1.8411  2.0527 -0.0643
14653SOL     OW45379   1.108   4.304   3.694  0.2511  0.3933 -0.3038
14653SOL    HW145380   1.143   4.241   3.757  0.4895  0.2565 -0.5731
14653SOL    HW245381   1.154   4.286   3.613 -0.7329 -0.0520 -0.7794
14654SOL     OW45382   7.511   8.702   1.253  0.3684 -0.5325 -0.4171
14654SOL    HW145383   7.590   8.657   1.221  2.8177  3.4534 -0.7334
14654SOL    HW245384   7.532   8.724   1.344 -1.2353 -0.9136  0.0826
14655SOL     OW45385   1.720   3.644   0.114 -0.4026 -0.0537  0.2881
14655SOL    HW145386   1.816   3.648   0.106 -0.2689 -0.1533  1.6283
14655SOL    HW245387   1.689   3.717   0.060  0.6010  1.7438  1.9771
14656SOL     OW45388   3.443   0.317   7.902  0.0725 -0.3675 -0.5076
14656SOL    HW145389   3.523   0.313   7.955  0.7925  0.0816 -1.5202
14656SOL    HW245390   3.376   0.275   7.956  0.7240  0.2396  0.8345
14657SOL     OW45391   1.274   5.127   1.785  0.2082  0.6242 -0.1339
14657SOL    HW145392   1.252   5.207   1.832  1.0503  0.8442 -0.1081
14657SOL    HW245393   1.353   5.148   1.736  0.5212 -0.2271 -0.0117
14658SOL     OW45394   9.142   7.400   8.826  0.2222 -0.7826 -0.1679
14658SOL    HW145395   9.232   7.407   8.795  0.2411  1.4539  0.2003
14658SOL    HW245396   9.151   7.390   8.921  0.0914 -0.5597 -0.1314
14659SOL     OW45397   5.861   2.245   3.385  0.4269 -0.1537  0.0581
14659SOL    HW145398   5.936   2.217   3.332  0.0099  0.0831 -0.6739
14659SOL    HW245399   5.842   2.333   3.353  0.1716 -0.0029  0.6218
14660SOL     OW45400   6.433   8.176   2.919 -0.1710  0.6847 -0.3079
14660SOL    HW145401   6.516   8.142   2.952 -0.7931 -0.0817  0.4947
14660SOL    HW245402   6.429   8.265   2.955  0.3821  0.7983 -0.5079
14661SOL     OW45403   3.042   2.779   4.043  0.7291  0.0663  0.8272
14661SOL    HW145404   3.028   2.871   4.019 -1.0814  0.1953  2.1612
14661SOL    HW245405   3.003   2.771   4.130  3.1127 -1.3996  1.8777
14662SOL     OW45406   2.666   7.467   4.899 -0.4338  0.1275 -0.2514
14662SOL    HW145407   2.593   7.499   4.847 -1.7712 -1.0504  0.8067
14662SOL    HW245408   2.638   7.380   4.927  0.4229  0.5223  1.9980
14663SOL     OW45409   3.777   2.072   7.750  0.1578 -0.3544  0.0221
14663SOL    HW145410   3.739   2.006   7.692 -1.3551  0.0632  0.4907
14663SOL    HW245411   3.867   2.083   7.719 -0.0779 -1.4380 -1.0930
14664SOL     OW45412   3.166   5.765   2.818 -0.1775 -0.1403  0.4399
14664SOL    HW145413   3.243   5.713   2.795  1.1737  1.2309  1.6573
14664SOL    HW245414   3.093   5.704   2.809  1.0881 -1.6358 -0.2618
14665SOL     OW45415   0.432   4.970   7.786 -0.3442 -0.2327 -0.8910
14665SOL    HW145416   0.384   4.902   7.740 -0.6056 -0.4066 -0.3756
14665SOL    HW245417   0.495   4.922   7.841 -0.0730 -0.0341 -1.0277
14666SOL     OW45418   6.160   8.563   7.152  0.0976 -0.2383  0.5530
14666SOL    HW145419   6.151   8.471   7.126  0.5494  0.2098 -1.3827
14666SOL    HW245420   6.087   8.607   7.109 -0.4269  0.2503  1.9082
14667SOL     OW45421   4.972   1.875   0.154 -0.4965 -0.6628 -0.0559
14667SOL    HW145422   4.995   1.782   0.156  1.3018 -0.2328  0.8023
14667SOL    HW245423   4.950   1.896   0.244 -2.2828 -0.5431 -0.4854
14668SOL     OW45424   1.725   2.093   0.498 -0.1499  0.1421  0.2203
14668SOL    HW145425   1.782   2.171   0.500 -1.6295  1.2602  1.9355
14668SOL    HW245426   1.675   2.098   0.580 -0.9199 -2.1724 -0.0451
14669SOL     OW45427   4.215   2.517   1.581 -0.2290  0.3891 -0.1282
14669SOL    HW145428   4.122   2.503   1.599  0.0334 -1.6326 -0.1668
14669SOL    HW245429   4.247   2.563   1.658 -0.8452 -0.7731  0.8500
14670SOL     OW45430   7.046   7.976   8.819 -0.3078 -0.0119 -0.1827
14670SOL    HW145431   6.989   8.046   8.786  0.9272  0.8896 -0.4894
14670SOL    HW245432   6.989   7.924   8.876 -0.8161  2.5155  1.8422
14671SOL     OW45433   3.842   5.702   7.414 -0.0641 -0.1657 -0.2920
14671SOL    HW145434   3.788   5.754   7.473 -0.2322  0.6243 -1.1128
14671SOL    HW245435   3.830   5.743   7.328  1.6020 -0.1368 -0.5488
14672SOL     OW45436   1.640   4.928   8.561  0.0953  0.1709  0.1591
14672SOL    HW145437   1.600   5.002   8.514  0.6631  0.3986  0.0274
14672SOL    HW245438   1.632   4.953   8.653  0.1829  0.3513  0.1203
14673SOL     OW45439   7.561   7.894   4.472 -0.3180  0.4781 -0.2534
14673SOL    HW145440   7.544   7.939   4.555 -2.4248 -0.5171 -0.0853
14673SOL    HW245441   7.622   7.824   4.494  1.1605  1.7788 -0.0760
14674SOL     OW45442   5.992   5.238   2.841  0.0232  0.1297  0.0115
14674SOL    HW145443   5.963   5.164   2.894  0.2357  0.7595  1.0365
14674SOL    HW245444   6.087   5.240   2.853  0.0432  0.4366 -0.1860
14675SOL     OW45445   8.287   7.115   5.872  0.1150  0.2309  0.5284
14675SOL    HW145446   8.313   7.027   5.845 -1.0490  0.2555 -0.7683
14675SOL    HW245447   8.192   7.111   5.879 -0.0690  1.6564 -0.6844
14676SOL     OW45448   9.101   4.203   8.593  0.3992  0.8268 -0.1295
14676SOL    HW145449   9.049   4.157   8.659 -0.0512  1.5930  0.0511
14676SOL    HW245450   9.045   4.206   8.516  0.2843  1.3946 -0.0273
14677SOL     OW45451   1.541   3.420   4.294 -0.0981 -0.1773 -0.8373
14677SOL    HW145452   1.497   3.382   4.371 -1.9517 -1.6537 -2.5268
14677SOL    HW245453   1.600   3.486   4.331 -1.6579 -0.0913  1.7908
14678SOL     OW45454   8.091   4.625   2.127 -0.2083 -0.3571 -0.0586
14678SOL    HW145455   8.137   4.708   2.136  0.1122 -0.7225  2.7782
14678SOL    HW245456   8.160   4.561   2.108 -0.5111 -0.0049 -2.7274
14679SOL     OW45457   8.172   3.612   7.770 -0.0785 -0.3895 -0.4366
14679SOL    HW145458   8.212   3.537   7.725 -0.3562  0.1542 -1.6346
14679SOL    HW245459   8.079   3.588   7.777  0.0481 -0.6771  0.2888
14680SOL     OW45460   2.336   3.746   5.849  0.2094 -0.1609 -0.3909
14680SOL    HW145461   2.426   3.738   5.879  0.1097 -2.6455 -0.5590
14680SOL    HW245462   2.324   3.840   5.834  2.6945  0.2541 -0.2049
14681SOL     OW45463   5.979   7.459   6.665 -0.2112 -0.8375  0.1869
14681SOL    HW145464   5.919   7.426   6.599  0.3359 -1.3911 -0.0495
14681SOL    HW245465   5.997   7.549   6.638 -0.5657 -0.8209 -0.0014
14682SOL     OW45466   3.902   8.392   9.057  0.4715 -0.3400  0.1880
14682SOL    HW145467   3.997   8.396   9.057  0.4553  0.7505  1.0050
14682SOL    HW245468   3.876   8.449   9.130 -0.7968 -0.7220  0.0611
14683SOL     OW45469   4.485   7.496   1.528  0.0693 -0.0982  0.2977
14683SOL    HW145470   4.501   7.422   1.587 -0.6936  0.4264  1.2038
14683SOL    HW245471   4.522   7.571   1.574  1.1675  0.0535 -0.7849
14684SOL     OW45472   1.481   0.562   1.304  0.5617 -0.2919 -0.1538
14684SOL    HW145473   1.402   0.513   1.279  1.9594 -2.6234 -0.3099
14684SOL    HW245474   1.476   0.643   1.253 -1.3796 -0.6799 -0.6627
14685SOL     OW45475   6.793   4.173   6.589  0.1723  0.3295  0.6675
14685SOL    HW145476   6.806   4.264   6.565 -0.2975 -0.0001 -0.9546
14685SOL    HW245477   6.774   4.175   6.683 -0.1391  1.9234  0.5900
14686SOL     OW45478   4.240   4.928   6.786 -0.3216 -0.2819 -0.0499
14686SOL    HW145479   4.164   4.906   6.733 -0.6705 -1.6131  0.9615
14686SOL    HW245480   4.208   4.993   6.848 -1.4826 -2.9011  2.2797
14687SOL     OW45481   4.494   7.929   6.534  0.0858  0.1235  0.6064
14687SOL    HW145482   4.539   7.858   6.579 -1.4459 -0.9527  0.5168
14687SOL    HW245483   4.509   7.912   6.441 -0.7796 -0.4338  0.5656
14688SOL     OW45484   8.808   6.382   6.459 -0.2042  0.2022  0.3451
14688SOL    HW145485   8.809   6.465   6.412 -1.5986 -0.3478 -0.7608
14688SOL    HW245486   8.891   6.340   6.436 -0.2769  0.5347 -0.5715
14689SOL     OW45487   2.185   9.019   8.913 -0.0170  0.2204  0.5019
14689SOL    HW145488   2.167   8.929   8.885 -0.6427  0.5431 -0.1602
14689SOL    HW245489   2.101   9.051   8.946  0.0052  0.8206 -0.0025
14690SOL     OW45490   8.182   4.148   3.435 -0.1087  0.3779  0.1007
14690SOL    HW145491   8.205   4.205   3.363 -0.2576  0.1397 -0.1384
14690SOL    HW245492   8.154   4.207   3.505  2.7470  0.8030  1.0144
14691SOL     OW45493   8.068   3.172   8.245  0.5835  0.1109 -0.2380
14691SOL    HW145494   8.042   3.183   8.337  0.4041 -0.4305 -0.2183
14691SOL    HW245495   8.121   3.093   8.245 -0.2386 -0.4588 -0.7489
14692SOL     OW45496   7.689   1.038   3.450  0.0803  0.1151 -0.1310
14692SOL    HW145497   7.729   0.952   3.464  1.9990  0.9185 -0.3439
14692SOL    HW245498   7.702   1.055   3.357  1.4827  1.4340  0.2678
14693SOL     OW45499   7.445   4.851   8.264  0.1015 -0.6989 -0.5147
14693SOL    HW145500   7.445   4.798   8.184  0.2976 -1.8192  0.1902
14693SOL    HW245501   7.449   4.786   8.335  1.9520  0.2881  0.3654
14694SOL     OW45502   5.800   4.082   3.024  0.0175 -0.4742 -0.3625
14694SOL    HW145503   5.860   4.033   2.967  1.0433 -0.1119  0.3727
14694SOL    HW245504   5.740   4.016   3.058 -0.0149 -0.8474 -1.1154
14695SOL     OW45505   4.902   1.681   8.986  0.5755 -0.2717  0.1169
14695SOL    HW145506   4.886   1.698   8.893  1.8625  1.3594  0.1579
14695SOL    HW245507   4.950   1.757   9.017  0.7060 -1.0598  1.9980
14696SOL     OW45508   6.414   5.503   8.628  0.1338  0.5117 -0.0238
14696SOL    HW145509   6.420   5.579   8.687  0.3773  0.6411 -0.2115
14696SOL    HW245510   6.475   5.524   8.557  0.8409 -0.2345  0.3468
14697SOL     OW45511   8.074   6.637   1.938 -0.6063 -0.2645  0.2493
14697SOL    HW145512   8.135   6.667   2.005 -1.7570  2.2920  0.2673
14697SOL    HW245513   8.015   6.577   1.984 -1.8355  2.0001  1.8341
14698SOL     OW45514   1.511   7.355   0.049 -0.2780 -0.1186 -0.5432
14698SOL    HW145515   1.447   7.379  -0.018  2.1389  0.8325 -2.6921
14698SOL    HW245516   1.589   7.328  -0.000  0.9133 -1.5609  1.9149
14699SOL     OW45517   6.114   5.391   8.920 -0.4264 -0.3761  0.0432
14699SOL    HW145518   6.095   5.344   8.839 -0.2202  0.4043 -0.4590
14699SOL    HW245519   6.093   5.327   8.989 -0.9578 -0.9216 -0.6009
14700SOL     OW45520   6.276   3.005   4.748  0.0328  0.3358 -0.2724
14700SOL    HW145521   6.219   3.081   4.753 -1.2794 -0.5926 -0.4784
14700SOL    HW245522   6.291   2.980   4.840 -0.0615  0.4608 -0.2234
14701SOL     OW45523   5.269   1.738   8.125  0.5091  0.3001 -0.4307
14701SOL    HW145524   5.200   1.785   8.077  2.4834  2.8039 -1.0511
14701SOL    HW245525   5.317   1.690   8.058  0.3074 -0.1722 -0.2368
14702SOL     OW45526   0.541   4.772   8.876 -0.2997 -0.2042  0.7198
14702SOL    HW145527   0.491   4.843   8.835  1.7383  0.6299 -0.4526
14702SOL    HW245528   0.619   4.815   8.910 -0.4690 -1.4102  2.7987
14703SOL     OW45529   2.105   8.551   8.038  0.0313  0.0912 -0.0247
14703SOL    HW145530   2.087   8.480   7.977 -1.3293  0.1767  0.2363
14703SOL    HW245531   2.077   8.630   7.991 -0.9341  0.1666  0.6390
14704SOL     OW45532   9.233   8.911   2.073  0.2956  0.2770 -0.6017
14704SOL    HW145533   9.220   9.001   2.042 -1.4123 -0.3485 -1.8838
14704SOL    HW245534   9.327   8.895   2.062  0.8403  2.2042  0.6326
14705SOL     OW45535   1.882   1.021   4.585 -0.1016  0.3768  0.2911
14705SOL    HW145536   1.963   1.049   4.541 -1.7394  0.0475 -3.2979
14705SOL    HW245537   1.891   0.926   4.593 -0.2816  0.2878 -0.4931
14706SOL     OW45538   2.860   8.381   9.150  0.2230  0.0064 -0.6035
14706SOL    HW145539   2.864   8.434   9.230 -2.3832 -0.5723 -0.0267
14706SOL    HW245540   2.925   8.312   9.164 -0.1860 -0.0876  1.0381
14707SOL     OW45541   5.046   1.021   2.984  0.1226 -0.4883  0.3149
14707SOL    HW145542   5.084   1.001   2.898 -0.7894 -0.7823 -0.0241
14707SOL    HW245543   5.085   1.105   3.007  1.4685 -1.0646  0.2649
14708SOL     OW45544   7.356   3.814   2.551  0.4096 -0.0998  0.0438
14708SOL    HW145545   7.350   3.802   2.646  0.8117  0.6223  0.1705
14708SOL    HW245546   7.300   3.746   2.515  0.3602 -0.4748  0.7955
14709SOL     OW45547   3.342   8.621   6.194 -0.3807  0.2505 -0.2044
14709SOL    HW145548   3.434   8.601   6.214 -0.5797  0.8147  1.3925
14709SOL    HW245549   3.294   8.587   6.269 -1.5265 -0.2015 -1.1126
14710SOL     OW45550   4.430   5.540   3.268 -0.1234 -0.0450  0.1026
14710SOL    HW145551   4.466   5.577   3.349  2.1335  0.3031 -0.9900
14710SOL    HW245552   4.359   5.599   3.244 -0.3618  0.2359  1.4516
14711SOL     OW45553   0.841   3.441   7.493  0.0429 -0.0336 -0.1754
14711SOL    HW145554   0.924   3.486   7.479  0.8742 -1.0608  1.2339
14711SOL    HW245555   0.840   3.418   7.586 -0.6256 -2.3084 -0.6581
14712SOL     OW45556   4.271   5.818   3.672 -0.3921 -0.3417 -0.0857
14712SOL    HW145557   4.366   5.816   3.684 -0.4206 -2.3298  0.0270
14712SOL    HW245558   4.236   5.822   3.761 -0.4272 -0.0140 -0.1130
14713SOL     OW45559   7.806   4.618   4.674 -0.1903 -0.0133 -0.2017
14713SOL    HW145560   7.800   4.678   4.749 -0.7229  1.1045 -1.1135
14713SOL    HW245561   7.883   4.564   4.693 -0.3446  0.2164  1.1673
14714SOL     OW45562   4.312   0.950   2.697  0.0272  0.5046  0.2609
14714SOL    HW145563   4.382   0.939   2.762 -1.2358  0.7446  1.7160
14714SOL    HW245564   4.295   0.862   2.665  0.0309  0.2383  0.9710
14715SOL     OW45565   1.852   6.061   2.590  0.1603  0.4967  0.0130
14715SOL    HW145566   1.814   6.146   2.570  1.0182  1.2071  1.3073
14715SOL    HW245567   1.886   6.030   2.506 -1.7215  0.5836 -0.8393
14716SOL     OW45568   5.740   1.479   4.480 -0.1573 -0.4471  0.0197
14716SOL    HW145569   5.702   1.454   4.396 -1.3938  0.8782  0.1345
14716SOL    HW245570   5.675   1.451   4.545 -0.7259  1.2840  0.2691
14717SOL     OW45571   6.864   7.640   3.592 -0.7366  0.0954  0.0369
14717SOL    HW145572   6.957   7.646   3.574 -0.8089 -0.6757 -0.6510
14717SOL    HW245573   6.856   7.571   3.658 -0.8782 -0.4442 -0.5292
14718SOL     OW45574   2.991   2.050   8.677 -0.7342 -0.0493  0.2602
14718SOL    HW145575   3.054   2.036   8.606 -1.9715 -1.1838 -0.6608
14718SOL    HW245576   3.009   2.139   8.708  1.4397 -0.4048  0.1737
14719SOL     OW45577   3.945   4.452   1.242  0.2037 -0.0154 -0.8545
14719SOL    HW145578   4.035   4.481   1.259  0.3485 -1.1457  0.4918
14719SOL    HW245579   3.895   4.485   1.317 -0.2363 -0.5516 -0.9107
14720SOL     OW45580   3.572   5.120   8.600  0.2014 -0.4003 -0.3683
14720SOL    HW145581   3.660   5.146   8.626 -0.2764  0.2269  0.6554
14720SOL    HW245582   3.556   5.039   8.648 -0.7649  0.8732  1.5685
14721SOL     OW45583   8.614   4.678   5.419 -0.1447 -0.1082  0.1172
14721SOL    HW145584   8.566   4.751   5.380  0.0910  1.5731  2.7561
14721SOL    HW245585   8.649   4.630   5.344 -2.2891  1.0744 -1.7880
14722SOL     OW45586   4.545   3.301   2.100  0.4714  0.1584 -0.1665
14722SOL    HW145587   4.600   3.276   2.025  0.1925 -0.4636 -0.1753
14722SOL    HW245588   4.600   3.358   2.153  0.8514  0.1836 -0.5829
14723SOL     OW45589   2.489   7.196   8.715 -0.1575  0.6395 -0.4902
14723SOL    HW145590   2.428   7.252   8.667 -0.4117  0.4816 -0.3513
14723SOL    HW245591   2.532   7.255   8.777  1.0125  1.0937 -1.6776
14724SOL     OW45592   6.087   3.014   9.217 -0.0940 -0.2913  0.2071
14724SOL    HW145593   6.139   2.986   9.141  0.5455  1.5470 -0.0957
14724SOL    HW245594   6.129   2.971   9.292  0.4747 -0.5940 -0.2793
14725SOL     OW45595   1.590   0.812   0.432 -0.0597  1.0347 -0.3256
14725SOL    HW145596   1.595   0.836   0.340 -0.0387  0.2500 -0.5424
14725SOL    HW245597   1.556   0.722   0.432  3.3506 -0.4482  0.1765
14726SOL     OW45598   8.858   1.040   6.048 -0.2418 -0.2123  0.1056
14726SOL    HW145599   8.795   1.016   5.980  1.8711 -0.5378 -1.8548
14726SOL    HW245600   8.866   1.135   6.042 -0.0451 -0.2427 -0.1250
14727SOL     OW45601   6.635   4.132   5.521 -0.0373 -0.0090  0.3138
14727SOL    HW145602   6.642   4.038   5.532  1.4410  0.2338  1.7818
14727SOL    HW245603   6.553   4.155   5.566 -0.7515 -0.6575 -0.6390
14728SOL     OW45604   8.272   8.515   6.716 -0.1160 -0.0359  0.2394
14728SOL    HW145605   8.359   8.549   6.698 -0.7107  0.9827 -0.8693
14728SOL    HW245606   8.212   8.583   6.684 -1.3462  0.6471  3.6170
14729SOL     OW45607   0.320   3.639   2.676 -0.0058  0.0572 -0.3094
14729SOL    HW145608   0.414   3.652   2.687 -0.0791  2.9919 -2.0646
14729SOL    HW245609   0.312   3.587   2.596  0.0429 -4.3762  2.2123
14730SOL     OW45610   5.430   3.527   3.182  0.4297 -0.2556 -1.0783
14730SOL    HW145611   5.446   3.566   3.268 -0.2260  0.9714 -1.4921
14730SOL    HW245612   5.477   3.584   3.121  0.3417 -0.7415 -1.6095
14731SOL     OW45613   4.372   2.926   8.074  0.1238  0.2957  0.3738
14731SOL    HW145614   4.332   2.861   8.132 -1.5458  0.9228 -0.0032
14731SOL    HW245615   4.456   2.888   8.049 -0.5890 -1.4871  0.5366
14732SOL     OW45616   4.409   9.011   6.116  0.5209  0.3911  0.1038
14732SOL    HW145617   4.413   8.937   6.056  1.0212 -0.3277  0.9994
14732SOL    HW245618   4.384   8.973   6.200  1.1114  1.1737  0.6563
14733SOL     OW45619   7.363   2.087   9.135 -0.1031  0.7172  0.4002
14733SOL    HW145620   7.365   1.997   9.102  0.1292  0.3732  1.3176
14733SOL    HW245621   7.437   2.130   9.092 -0.6295  0.6683 -0.5701
14734SOL     OW45622   4.219   3.561   1.515  0.2826 -0.3589 -0.0999
14734SOL    HW145623   4.145   3.548   1.574  0.8699  0.0926  0.7481
14734SOL    HW245624   4.248   3.472   1.493  0.5860 -0.5330  0.9677
14735SOL     OW45625   0.811   4.824   6.303 -0.4363  0.0893 -0.3689
14735SOL    HW145626   0.885   4.780   6.343  0.2346  1.3971 -0.1180
14735SOL    HW245627   0.850   4.880   6.236 -1.3056 -0.0545 -1.0084
14736SOL     OW45628   0.408   1.831   1.547  0.0992  0.3875  0.1578
14736SOL    HW145629   0.313   1.827   1.557  0.1421 -0.8038  0.2793
14736SOL    HW245630   0.442   1.811   1.635  0.4415 -1.6689 -0.3810
14737SOL     OW45631   9.060   0.392   9.045  0.1796  0.1760 -0.3320
14737SOL    HW145632   9.061   0.335   8.968  0.4192 -0.2574 -0.0164
14737SOL    HW245633   9.137   0.448   9.036  1.6375 -1.5221  0.7788
14738SOL     OW45634   0.971   2.047   1.019  0.4408  0.3551 -0.2175
14738SOL    HW145635   1.009   2.026   0.934  0.5192  0.5309 -0.2257
14738SOL    HW245636   0.879   2.023   1.011 -0.3755  3.5100 -1.4937
14739SOL     OW45637   2.318   6.252   5.510 -0.1960 -0.5699 -0.2915
14739SOL    HW145638   2.380   6.323   5.497 -0.8544 -0.0635 -0.7447
14739SOL    HW245639   2.264   6.280   5.584  0.8562 -1.5525  0.8971
14740SOL     OW45640   2.890   7.226   1.070  0.0402 -0.1079  0.2531
14740SOL    HW145641   2.872   7.136   1.042  0.7371 -0.4407  0.8301
14740SOL    HW245642   2.909   7.273   0.988  1.5321 -0.9433  0.0828
14741SOL     OW45643   4.675   9.076   7.786  0.3469 -0.1326 -0.4016
14741SOL    HW145644   4.617   9.105   7.716  0.9433 -0.0434 -0.8641
14741SOL    HW245645   4.701   9.156   7.831 -1.1857 -0.2938  0.8624
14742SOL     OW45646   8.285   7.877   0.017  0.2908  0.3523 -0.1604
14742SOL    HW145647   8.302   7.901  -0.073 -0.7450  0.8864 -0.2280
14742SOL    HW245648   8.273   7.960   0.063  0.5158  0.0772  0.4059
14743SOL     OW45649   0.130   4.117   0.015 -0.4767  0.4812  0.0336
14743SOL    HW145650   0.047   4.163   0.020 -1.1979 -0.4095 -2.4080
14743SOL    HW245651   0.119   4.054  -0.056  1.4266 -1.5022  1.3349
14744SOL     OW45652   5.526   7.752   4.010 -0.5733  0.1908  0.5919
14744SOL    HW145653   5.548   7.714   3.925 -1.3125  0.0934  0.4384
14744SOL    HW245654   5.516   7.677   4.068  2.8064  0.2931  1.5530
14745SOL     OW45655   1.829   4.918   7.934  0.6331  0.4962 -0.2430
14745SOL    HW145656   1.874   4.875   7.862 -0.1887  0.3950 -0.7063
14745SOL    HW245657   1.761   4.970   7.893 -0.2832 -0.0813  0.4775
14746SOL     OW45658   2.547   8.117   1.414 -0.1850  0.1285 -0.1684
14746SOL    HW145659   2.604   8.173   1.468  0.4812 -0.2991 -0.4161
14746SOL    HW245660   2.475   8.174   1.389  0.7060  1.0185 -0.7841
14747SOL     OW45661   3.005   5.238   3.790 -0.0285  0.6389  0.2352
14747SOL    HW145662   3.062   5.183   3.736  0.2073  0.4529  0.6638
14747SOL    HW245663   3.002   5.322   3.744  2.0704  1.2590  1.1126
14748SOL     OW45664   1.869   1.881   5.132  0.3292 -0.6290  0.3374
14748SOL    HW145665   1.826   1.842   5.208  1.5757 -0.7148  1.0260
14748SOL    HW245666   1.812   1.859   5.058 -0.9296 -0.4901  1.2467
14749SOL     OW45667   6.043   4.070   0.050  0.2524 -0.2257  0.2499
14749SOL    HW145668   6.093   4.024   0.117  0.3652  0.7242  0.8257
14749SOL    HW245669   5.970   4.109   0.097 -0.0149 -0.0776 -0.2855
14750SOL     OW45670   5.214   3.632   5.319  0.3896  0.4762 -0.0941
14750SOL    HW145671   5.240   3.719   5.290 -2.7374  2.2469  1.7885
14750SOL    HW245672   5.129   3.617   5.277  0.6413 -1.4621  0.0039
14751SOL     OW45673   4.936   2.442   0.800 -0.3207  0.1108  0.1873
14751SOL    HW145674   4.957   2.351   0.779  1.0144  0.0900  1.5112
14751SOL    HW245675   4.841   2.448   0.787 -0.7846 -2.0222  2.0399
14752SOL     OW45676   5.830   2.372   5.395  0.3830  0.2558 -0.5277
14752SOL    HW145677   5.840   2.279   5.414  0.4074  0.6555  1.7565
14752SOL    HW245678   5.920   2.404   5.387  0.4377  0.3505  0.3428
14753SOL     OW45679   1.331   8.740   8.960  0.4490 -0.9106 -0.1590
14753SOL    HW145680   1.289   8.753   8.875  1.0496 -0.7051 -0.4298
14753SOL    HW245681   1.285   8.665   8.998 -1.4280  0.4143  0.3551
14754SOL     OW45682   2.929   6.919   0.889  0.0853  0.5452 -0.2304
14754SOL    HW145683   2.915   7.000   0.839 -1.8398 -0.2737 -1.1069
14754SOL    HW245684   2.862   6.859   0.856  2.0086 -1.7227 -0.2169
14755SOL     OW45685   5.435   7.815   8.801 -0.1962  0.3970 -0.2362
14755SOL    HW145686   5.382   7.843   8.726 -0.9294 -1.1953 -0.3465
14755SOL    HW245687   5.525   7.833   8.774 -0.2240 -2.1501 -2.4884
14756SOL     OW45688   1.745   4.696   8.684 -0.1611  0.9656  0.0288
14756SOL    HW145689   1.720   4.772   8.632 -1.0437  0.6216 -0.0689
14756SOL    HW245690   1.678   4.631   8.664  0.7751  0.0371 -0.1524
14757SOL     OW45691   5.926   9.096   7.301  0.5439  0.5966  0.0595
14757SOL    HW145692   5.963   9.030   7.242  1.9824  0.5523  0.9555
14757SOL    HW245693   5.999   9.121   7.357 -0.9423  0.0703  2.3535
14758SOL     OW45694   3.360   7.947   6.386 -0.3075  0.0672 -0.1989
14758SOL    HW145695   3.439   7.986   6.348  0.7299 -0.7866  1.0142
14758SOL    HW245696   3.337   8.005   6.459 -0.6810  0.1702 -0.3899
14759SOL     OW45697   0.579   0.548   9.222 -0.0655  0.1202 -0.2577
14759SOL    HW145698   0.513   0.485   9.251  1.6162 -1.7930 -0.3559
14759SOL    HW245699   0.592   0.606   9.297 -0.8629 -0.3604  0.2617
14760SOL     OW45700   8.578   1.690   6.513 -0.2143  0.2043  0.1517
14760SOL    HW145701   8.625   1.736   6.443  2.8443 -0.4878  1.5930
14760SOL    HW245702   8.594   1.598   6.495 -1.8949 -0.1163  0.1833
14761SOL     OW45703   9.237   6.426   6.391  0.2556 -0.1216 -0.2838
14761SOL    HW145704   9.192   6.447   6.309 -0.0401 -0.0404 -0.1021
14761SOL    HW245705   9.283   6.506   6.414 -0.4160  0.1617  0.1141
14762SOL     OW45706   4.178   7.677   4.133 -0.3823 -0.2314 -0.2615
14762SOL    HW145707   4.195   7.766   4.101 -0.6889 -0.1238 -0.1306
14762SOL    HW245708   4.265   7.639   4.145 -0.1136  1.0520  2.5075
14763SOL     OW45709   0.599   5.135   1.067 -0.4725 -0.1334  0.2957
14763SOL    HW145710   0.562   5.152   0.981 -0.0410 -1.1887 -0.1170
14763SOL    HW245711   0.523   5.123   1.124 -0.7922 -1.7770 -0.4320
14764SOL     OW45712   7.950   0.605   5.618  0.1382 -0.0961  0.0349
14764SOL    HW145713   7.969   0.514   5.642 -0.3844 -0.0081  0.8418
14764SOL    HW245714   8.036   0.645   5.608  0.3936 -0.3355  1.0910
14765SOL     OW45715   1.301   2.322   5.955 -0.1711 -0.2473  0.1170
14765SOL    HW145716   1.299   2.321   6.051  0.3665  0.5602  0.1464
14765SOL    HW245717   1.236   2.388   5.930 -0.9178 -1.0488 -0.1134
14766SOL     OW45718   5.584   7.423   5.963  0.1530  0.1009 -0.3828
14766SOL    HW145719   5.557   7.514   5.978  2.2871  0.9983 -1.5287
14766SOL    HW245720   5.520   7.389   5.900  0.5642  1.5549 -1.6481
14767SOL     OW45721   4.515   5.113   4.197 -0.5563  0.3929  0.4592
14767SOL    HW145722   4.456   5.072   4.133 -0.0076  0.9426 -0.4161
14767SOL    HW245723   4.543   5.194   4.155  1.2017 -0.0876  0.6527
14768SOL     OW45724   6.535   0.402   1.555  0.7080  0.0594 -0.1876
14768SOL    HW145725   6.563   0.477   1.608  2.1854  1.4416 -2.7482
14768SOL    HW245726   6.439   0.402   1.564  0.7837  1.2701  1.0937
14769SOL     OW45727   1.493   0.498   2.572 -0.2056 -0.3954 -0.4984
14769SOL    HW145728   1.423   0.453   2.618  1.8021 -2.2630  0.9481
14769SOL    HW245729   1.529   0.432   2.513  0.0891  0.6649 -1.5622
14770SOL     OW45730   5.496   4.931   4.276  0.2001 -0.0023  0.8676
14770SOL    HW145731   5.487   4.929   4.181 -0.2555  0.8706  0.8781
14770SOL    HW245732   5.580   4.976   4.290  2.3082 -3.5243  0.8575
14771SOL     OW45733   8.186   0.394   7.472 -0.1113  0.4172  0.2074
14771SOL    HW145734   8.238   0.315   7.482  0.4849  0.8044  0.2044
14771SOL    HW245735   8.107   0.377   7.523 -0.1742 -0.3347 -0.1198
14772SOL     OW45736   3.601   8.051   2.475 -0.6741 -0.1976  0.1427
14772SOL    HW145737   3.660   8.011   2.410  0.0440 -0.0063  0.6705
14772SOL    HW245738   3.588   8.140   2.443 -1.7820 -0.6338 -0.7029
14773SOL     OW45739   8.380   0.826   3.981 -0.7277 -0.1168 -0.0277
14773SOL    HW145740   8.300   0.804   4.028 -1.3024 -1.3524 -1.4789
14773SOL    HW245741   8.367   0.915   3.950 -0.7009  0.3951  1.3683
14774SOL     OW45742   8.674   0.032   2.532 -0.2565 -0.4594 -0.4654
14774SOL    HW145743   8.623   0.071   2.461 -1.0260 -1.1859 -0.3316
14774SOL    HW245744   8.685  -0.060   2.506  1.1202 -0.2864 -0.5565
14775SOL     OW45745   4.858   3.778   5.721  0.7092  0.0774 -0.4404
14775SOL    HW145746   4.895   3.793   5.634  0.6783  0.1478 -0.4421
14775SOL    HW245747   4.781   3.724   5.707  0.7667 -0.0023 -0.4457
14776SOL     OW45748   8.009   2.370   0.017  0.0785 -0.1610 -0.5853
14776SOL    HW145749   8.004   2.276  -0.001  0.7532 -0.2890 -0.1744
14776SOL    HW245750   8.103   2.390   0.010 -0.0047  0.3755 -0.1809
14777SOL     OW45751   0.491   6.988   5.090 -0.5965  0.2710 -0.4003
14777SOL    HW145752   0.481   6.911   5.146 -3.0934  1.6128  1.1899
14777SOL    HW245753   0.512   7.059   5.150  0.9433  1.0273 -1.7458
14778SOL     OW45754   3.895   9.262   1.912 -0.5477 -0.1823 -0.7756
14778SOL    HW145755   3.894   9.229   1.822  0.8729 -1.2943 -0.4107
14778SOL    HW245756   3.898   9.184   1.967 -0.9117  0.4897  0.2506
14779SOL     OW45757   1.408   6.550   0.785  0.2446 -0.4007 -0.4916
14779SOL    HW145758   1.424   6.640   0.755  0.0512  0.3786  1.6012
14779SOL    HW245759   1.491   6.521   0.822 -0.1560 -0.4144  0.4274
14780SOL     OW45760   7.401   4.925   2.203 -0.5420 -0.2726  0.0887
14780SOL    HW145761   7.355   4.845   2.178 -0.7893 -0.5046  1.2331
14780SOL    HW245762   7.398   4.926   2.298  1.4868 -0.0973  0.1927
14781SOL     OW45763   1.533   9.172   6.145  0.0019 -0.7637 -0.4697
14781SOL    HW145764   1.557   9.249   6.093  1.7561  0.2414  1.6812
14781SOL    HW245765   1.463   9.203   6.203  0.9305 -0.6278  0.6252
14782SOL     OW45766   5.956   2.974   4.691  0.5988  0.3039 -0.0665
14782SOL    HW145767   6.021   2.915   4.730 -0.0811 -0.0206  0.5801
14782SOL    HW245768   5.907   3.010   4.765 -0.2252  0.2334 -0.5612
14783SOL     OW45769   1.310   9.137   1.163  0.0053 -0.5161 -0.2356
14783SOL    HW145770   1.389   9.090   1.138 -0.5034 -0.8628 -1.2050
14783SOL    HW245771   1.340   9.228   1.175  0.6403 -0.7356 -0.0920
14784SOL     OW45772   4.216   0.286   7.861  0.4123 -0.6533 -0.3730
14784SOL    HW145773   4.188   0.229   7.933 -2.7770  2.1066  0.8542
14784SOL    HW245774   4.309   0.302   7.879  0.1087 -1.3138  2.2660
14785SOL     OW45775   5.244   3.768   3.218 -0.2954  0.2409 -0.7244
14785SOL    HW145776   5.232   3.713   3.140 -3.3726 -0.5314  0.1751
14785SOL    HW245777   5.332   3.745   3.250 -0.2580 -1.8504 -2.1410
14786SOL     OW45778   7.602   4.243   8.420 -0.5956  0.5689 -0.2983
14786SOL    HW145779   7.667   4.215   8.357  0.5064  0.1555  0.9720
14786SOL    HW245780   7.559   4.318   8.379  0.8369  0.9920 -1.0905
14787SOL     OW45781   1.838   2.564   8.959  0.0345 -0.4579 -0.2300
14787SOL    HW145782   1.899   2.634   8.985 -0.1890 -0.0130 -0.8733
14787SOL    HW245783   1.852   2.554   8.865 -2.3983  1.1889 -0.8547
14788SOL     OW45784   1.782   2.705   1.000  0.9029  0.3368 -0.7844
14788SOL    HW145785   1.740   2.789   0.982  1.6327  0.4051 -2.4185
14788SOL    HW245786   1.745   2.677   1.083 -0.2713  1.6901 -0.8003
14789SOL     OW45787   8.025   9.109   1.560  0.2897  0.3590 -0.2796
14789SOL    HW145788   8.007   9.200   1.585  0.8557  0.2667  0.5100
14789SOL    HW245789   7.955   9.086   1.499  0.2952  1.4087 -0.6912
14790SOL     OW45790   7.368   8.460   7.067  0.2117 -0.3208 -0.5261
14790SOL    HW145791   7.389   8.545   7.027 -0.8594 -0.5247 -1.5439
14790SOL    HW245792   7.281   8.439   7.034 -0.5223 -0.7337  1.5420
14791SOL     OW45793   6.307   1.612   9.132 -0.4522 -0.2787  0.1220
14791SOL    HW145794   6.352   1.533   9.162 -0.8001 -0.0689  1.2612
14791SOL    HW245795   6.233   1.622   9.193 -1.1994  0.1758 -0.8378
14792SOL     OW45796   4.582   2.713   7.602 -0.3283  0.0666  0.3468
14792SOL    HW145797   4.617   2.714   7.513 -0.1094 -0.2814  0.4251
14792SOL    HW245798   4.487   2.726   7.591 -0.1217  1.6804  0.1762
14793SOL     OW45799   0.920   9.202   9.058 -0.1441 -0.3356  0.5524
14793SOL    HW145800   0.957   9.156   9.133  1.6537 -0.1607 -0.1681
14793SOL    HW245801   0.932   9.295   9.078 -0.4545 -0.2654  0.4240
14794SOL     OW45802   4.456   3.592   4.669 -0.7375 -0.3526 -0.0891
14794SOL    HW145803   4.450   3.581   4.764 -0.1266  1.1714  0.1526
14794SOL    HW245804   4.541   3.556   4.646  0.2717  1.5863  0.3669
14795SOL     OW45805   8.402   7.643   7.084  0.2006  0.1516  0.3439
14795SOL    HW145806   8.380   7.736   7.091  0.2913  0.3110 -1.1286
14795SOL    HW245807   8.319   7.600   7.066  0.4895  0.3284 -1.7328
14796SOL     OW45808   0.958   7.870   5.565  0.0774 -0.1853  0.7287
14796SOL    HW145809   0.869   7.861   5.532  1.0694 -0.0584 -2.2334
14796SOL    HW245810   0.989   7.780   5.577 -0.0312 -0.2489  0.5285
14797SOL     OW45811   3.868   2.862   4.906 -0.4432 -0.3599 -0.0020
14797SOL    HW145812   3.827   2.862   4.819 -0.7423  0.4097  0.1271
14797SOL    HW245813   3.962   2.866   4.889 -0.5205  0.2760 -0.2889
14798SOL     OW45814   7.931   2.455   5.429 -0.1998 -0.4529 -0.0102
14798SOL    HW145815   7.944   2.513   5.504 -2.3667 -0.1253  0.1814
14798SOL    HW245816   8.006   2.472   5.372  0.4505  0.7552  1.1429
14799SOL     OW45817   4.475   8.031   1.525 -0.0652  0.0491  0.2568
14799SOL    HW145818   4.535   8.044   1.598 -1.8779  0.6402  1.7243
14799SOL    HW245819   4.409   7.971   1.558  0.3757 -1.6974 -1.7636
14800SOL     OW45820   0.786   6.809   5.112  0.6735  0.2302 -0.0417
14800SOL    HW145821   0.875   6.844   5.111  0.5029  0.7183  0.8524
14800SOL    HW245822   0.764   6.795   5.020  1.8667 -0.3953 -0.2400
14801SOL     OW45823   4.819   5.554   9.238  0.1351  0.4444  0.4291
14801SOL    HW145824   4.783   5.477   9.283  0.9272 -0.5644 -0.6233
14801SOL    HW245825   4.766   5.562   9.158  1.8985 -0.7936 -0.9191
14802SOL     OW45826   7.434   2.183   3.364  0.0776  0.1526  0.5485
14802SOL    HW145827   7.342   2.157   3.354 -0.1844  0.9618  0.8351
14802SOL    HW245828   7.430   2.273   3.394  0.9667 -0.0476  1.2804
14803SOL     OW45829   5.178   8.789   4.047  0.0402  0.4351 -0.5782
14803SOL    HW145830   5.135   8.852   4.104 -0.0294 -0.0104 -0.1280
14803SOL    HW245831   5.242   8.745   4.103  1.4013  1.3883 -1.3512
14804SOL     OW45832   8.053   5.489   5.266 -0.1414 -0.5798 -0.1311
14804SOL    HW145833   8.084   5.399   5.275  0.6763 -0.1492  1.7868
14804SOL    HW245834   8.034   5.517   5.355 -0.6788  1.0616 -0.7215
14805SOL     OW45835   4.751   3.255   7.687 -0.4773  0.3817  0.0658
14805SOL    HW145836   4.820   3.193   7.709 -0.8006  0.1000  0.2937
14805SOL    HW245837   4.705   3.214   7.614 -0.1375  0.7718 -0.3798
14806SOL     OW45838   5.096   5.739   8.078 -0.1452  0.1359 -0.2934
14806SOL    HW145839   5.109   5.817   8.132 -1.1280 -0.6446  1.1388
14806SOL    HW245840   5.003   5.742   8.054 -0.6702 -1.4963  1.3173
14807SOL     OW45841   8.584   0.370   7.295 -0.0261  0.3165 -0.4679
14807SOL    HW145842   8.637   0.440   7.257  0.7652 -0.6480 -1.1918
14807SOL    HW245843   8.578   0.393   7.387  0.4195  1.2112 -0.6429
14808SOL     OW45844   2.836   2.591   4.289  0.2722  0.8160 -0.4524
14808SOL    HW145845   2.853   2.504   4.252 -0.7005  0.7976 -0.8851
14808SOL    HW245846   2.878   2.589   4.375  1.1925  0.3020 -0.9080
14809SOL     OW45847   7.284   1.998   7.658 -0.1821 -0.3596 -1.3641
14809SOL    HW145848   7.379   2.004   7.658 -0.1427  0.3136  1.4384
14809SOL    HW245849   7.255   2.071   7.603  0.9027  0.3516 -1.0122
14810SOL     OW45850   6.863   4.502   6.558 -0.4089 -0.2955 -0.5394
14810SOL    HW145851   6.958   4.492   6.552 -0.4466 -0.7818 -0.3653
14810SOL    HW245852   6.839   4.555   6.482  0.1301  0.7620  0.0074
14811SOL     OW45853   5.296   3.283   4.144  0.1118 -0.3045 -0.3500
14811SOL    HW145854   5.303   3.222   4.071  1.7464 -1.2102  0.4913
14811SOL    HW245855   5.277   3.228   4.220 -0.4904  0.4964  0.0982
14812SOL     OW45856   9.144   8.916   4.711 -0.4642 -0.1175 -0.0505
14812SOL    HW145857   9.192   8.888   4.634  0.8382  0.0016  0.6962
14812SOL    HW245858   9.053   8.925   4.681 -0.1101 -0.7719 -1.3721
14813SOL     OW45859   1.780   8.180   2.773 -0.6308 -0.5346  0.2557
14813SOL    HW145860   1.773   8.096   2.728  0.6080 -0.6986  0.3336
14813SOL    HW245861   1.862   8.173   2.823  1.4391  1.9528 -2.4243
14814SOL     OW45862   9.078   4.901   2.390 -0.0104  0.5605 -0.1455
14814SOL    HW145863   9.092   4.981   2.439  0.3040  0.4164  0.0032
14814SOL    HW245864   8.992   4.870   2.418 -1.0019  1.8329 -1.5988
14815SOL     OW45865   1.802   0.990   8.246  0.2365 -0.6726  0.9216
14815SOL    HW145866   1.830   1.080   8.232 -0.4076 -0.7620 -1.2479
14815SOL    HW245867   1.775   0.988   8.338  0.2879  1.3240  1.0270
14816SOL     OW45868   5.843   6.327   8.836 -0.4325  0.3442  0.1330
14816SOL    HW145869   5.897   6.318   8.914  2.3179  0.7268 -1.5963
14816SOL    HW245870   5.878   6.262   8.775 -1.4359  1.1260 -1.3268
14817SOL     OW45871   6.058   5.887   6.120 -0.2534  0.2336 -0.0764
14817SOL    HW145872   5.980   5.917   6.166  0.9830  0.8657  1.6936
14817SOL    HW245873   6.048   5.922   6.031 -2.1091  0.0375  0.0241
14818SOL     OW45874   9.174   3.493   5.384  0.1824  0.3756 -0.0099
14818SOL    HW145875   9.133   3.579   5.388 -1.6856 -0.4866  0.3900
14818SOL    HW245876   9.117   3.436   5.436  1.0571 -1.2379 -0.7217
14819SOL     OW45877   8.011   6.579   1.687  0.3028  0.2921  0.1934
14819SOL    HW145878   8.031   6.610   1.775 -0.0372 -1.2574  0.8562
14819SOL    HW245879   7.928   6.531   1.697  0.6034 -0.4684 -0.8128
14820SOL     OW45880   3.182   0.020   4.633 -0.7856 -0.5393 -0.1078
14820SOL    HW145881   3.113   0.070   4.677 -0.6576 -1.1361  0.8187
14820SOL    HW245882   3.251   0.084   4.615 -1.4749  0.0153 -0.8268
14821SOL     OW45883   3.555   5.599   1.909  0.5843  0.0467  0.1043
14821SOL    HW145884   3.627   5.644   1.953  0.0639  0.6137  0.3850
14821SOL    HW245885   3.598   5.547   1.841  1.1411  1.6979 -0.8616
14822SOL     OW45886   1.936   2.012   5.491 -0.5469  0.1782 -0.0028
14822SOL    HW145887   2.024   1.978   5.473 -0.6338  0.8765 -1.9867
14822SOL    HW245888   1.943   2.106   5.476 -1.3513  0.4214  1.0758
14823SOL     OW45889   5.920   5.799   7.240 -0.0812  0.0843  0.0350
14823SOL    HW145890   5.873   5.879   7.263  0.4697  0.9584 -1.7118
14823SOL    HW245891   6.002   5.803   7.291 -0.1152  0.5588  0.0475
14824SOL     OW45892   7.727   5.883   4.925  0.0927  0.4827  0.3245
14824SOL    HW145893   7.738   5.787   4.923 -1.8359  0.1635  2.0304
14824SOL    HW245894   7.805   5.914   4.971  0.8833 -0.2099 -0.4974
14825SOL     OW45895   1.078   0.567   6.550 -0.4723  0.1965 -0.5546
14825SOL    HW145896   1.132   0.510   6.495  0.3444  0.7992 -0.3928
14825SOL    HW245897   1.127   0.649   6.556 -1.0440  0.4971  0.2245
14826SOL     OW45898   7.548   3.420   8.975  0.4202  0.1158 -0.0279
14826SOL    HW145899   7.572   3.333   9.007 -3.2809 -0.9413  0.3412
14826SOL    HW245900   7.546   3.475   9.053 -3.3250 -1.1490  0.9738
14827SOL     OW45901   2.422   6.295   1.484  0.1734 -0.7089 -0.1471
14827SOL    HW145902   2.435   6.299   1.579 -0.5824  0.5227 -0.0724
14827SOL    HW245903   2.487   6.232   1.453 -0.6025 -2.3575  1.3733
14828SOL     OW45904   8.082   2.856   5.158  0.1164  0.0537 -0.0561
14828SOL    HW145905   8.046   2.925   5.213  0.2708 -0.1222  0.2682
14828SOL    HW245906   8.076   2.891   5.069  1.3822  1.0365  0.1986
14829SOL     OW45907   0.124   5.732   1.466  0.2129 -0.4035  0.0828
14829SOL    HW145908   0.161   5.657   1.419  2.6665  0.3246  0.6894
14829SOL    HW245909   0.171   5.808   1.431 -1.7578  0.8360 -0.0698
14830SOL     OW45910   2.738   8.136   0.358 -0.4613 -0.4213  0.8460
14830SOL    HW145911   2.651   8.162   0.389 -0.9128 -0.9094  0.0471
14830SOL    HW245912   2.791   8.215   0.365 -1.2229  0.1404  0.4790
14831SOL     OW45913   6.819   0.518   2.956  0.6580  0.1411  0.3177
14831SOL    HW145914   6.784   0.430   2.951  0.5936  0.1724  0.2215
14831SOL    HW245915   6.877   0.526   2.881 -1.0187  0.9211 -0.9620
14832SOL     OW45916   0.031   5.340   5.307  0.0924 -0.2103 -0.4026
14832SOL    HW145917   0.002   5.272   5.367  1.3514  0.2367  0.7827
14832SOL    HW245918   0.122   5.356   5.332  0.2459  0.9220 -1.5794
14833SOL     OW45919   2.672   2.054   8.996 -0.2106 -0.5517 -0.4466
14833SOL    HW145920   2.705   2.135   9.037  1.4788 -0.5754 -1.6757
14833SOL    HW245921   2.653   2.079   8.906  0.6117 -1.5857 -0.9183
14834SOL     OW45922   8.261   3.965   6.931  0.2086 -0.7704 -0.0598
14834SOL    HW145923   8.243   3.939   7.021 -0.8453  2.1706  0.6688
14834SOL    HW245924   8.223   3.894   6.879  1.4591 -2.8848  1.7412
14835SOL     OW45925   5.993   6.436   4.263 -0.2338 -0.2115  0.1693
14835SOL    HW145926   5.992   6.501   4.193  0.8497 -0.3024  0.0511
14835SOL    HW245927   5.915   6.383   4.248  0.0604 -0.3249 -1.0769
14836SOL     OW45928   8.329   3.983   1.163  0.4733  0.3621  0.1267
14836SOL    HW145929   8.294   4.058   1.116  2.5975  1.4866  0.2498
14836SOL    HW245930   8.352   3.921   1.094 -0.1314  0.3153 -0.0440
14837SOL     OW45931   5.083   7.794   5.203  0.2000  0.5490 -0.0167
14837SOL    HW145932   5.157   7.808   5.145  0.9474  1.4600  1.1136
14837SOL    HW245933   5.007   7.795   5.146  0.7545  3.0756 -0.8248
14838SOL     OW45934   4.249   8.472   2.140  0.6090 -0.4874  0.6163
14838SOL    HW145935   4.276   8.457   2.230 -0.3837 -1.3577  0.7865
14838SOL    HW245936   4.330   8.490   2.093  1.1133  0.1841  1.7150
14839SOL     OW45937   2.053   8.071   7.897 -0.6277 -0.3665  0.5072
14839SOL    HW145938   2.060   7.986   7.940 -0.4909 -0.9263 -0.5789
14839SOL    HW245939   1.977   8.064   7.840  0.1125 -0.2209 -0.5459
14840SOL     OW45940   1.773   9.243   0.808 -0.1211  0.4771  0.1986
14840SOL    HW145941   1.848   9.250   0.749 -0.5211  0.1949 -0.3510
14840SOL    HW245942   1.804   9.188   0.880  0.3457  0.7625  0.2201
14841SOL     OW45943   0.586   2.605   1.050  0.7410 -0.2999  0.0096
14841SOL    HW145944   0.630   2.676   1.003  0.2972 -0.5805 -0.8360
14841SOL    HW245945   0.633   2.600   1.134  1.5090  0.2392 -0.3733
14842SOL     OW45946   5.511   4.300   8.915  0.1459 -0.0581 -0.5711
14842SOL    HW145947   5.481   4.375   8.864  0.5631  0.0790 -0.6192
14842SOL    HW245948   5.483   4.223   8.865  0.4086  0.0727 -0.9263
14843SOL     OW45949   4.379   7.128   0.651 -0.1589  0.6932  0.2733
14843SOL    HW145950   4.466   7.100   0.622  0.0220  0.3362  1.1472
14843SOL    HW245951   4.340   7.169   0.573  0.3781 -0.0931 -0.4280
14844SOL     OW45952   5.094   5.948   3.066 -0.8312  0.0337 -0.3726
14844SOL    HW145953   5.106   5.980   3.156  0.7637 -1.2178 -0.0927
14844SOL    HW245954   5.082   6.027   3.014 -1.5357  0.8021  0.8845
14845SOL     OW45955   6.381   8.085   8.786  0.0898  0.0842 -0.0034
14845SOL    HW145956   6.415   7.995   8.795  0.1590  0.0437 -0.6675
14845SOL    HW245957   6.380   8.118   8.876 -1.2181 -1.0357  0.4290
14846SOL     OW45958   3.835   6.898   6.389 -0.3877 -0.4934  0.0422
14846SOL    HW145959   3.806   6.921   6.477  0.1257  1.0580 -0.1686
14846SOL    HW245960   3.769   6.936   6.331 -0.6228 -1.3428 -0.2592
14847SOL     OW45961   6.206   0.048   2.352 -0.7461 -0.1399 -0.2203
14847SOL    HW145962   6.262  -0.027   2.332 -0.5049  0.5865 -2.5892
14847SOL    HW245963   6.241   0.083   2.434 -0.4479 -2.1726  0.5816
14848SOL     OW45964   4.887   8.757   8.124  0.0471 -0.0502 -0.3308
14848SOL    HW145965   4.924   8.768   8.036  0.5105  2.7708  0.1236
14848SOL    HW245966   4.797   8.789   8.117  0.0437  0.0667  0.1713
14849SOL     OW45967   5.809   1.163   8.779  0.3976  0.3648  0.1620
14849SOL    HW145968   5.774   1.152   8.867  1.1988  1.1643  0.6042
14849SOL    HW245969   5.734   1.191   8.726 -0.2694 -0.9376  0.3831
14850SOL     OW45970   3.728   7.431   5.600  0.2754  0.8371 -0.9650
14850SOL    HW145971   3.709   7.448   5.508  1.1674 -0.4307 -1.3945
14850SOL    HW245972   3.819   7.460   5.612  0.8658 -0.8791 -1.0170
14851SOL     OW45973   6.767   2.202   3.980 -0.0194  0.4687 -0.2829
14851SOL    HW145974   6.736   2.203   3.889  1.4846  0.1662 -0.8313
14851SOL    HW245975   6.721   2.275   4.022 -0.7676  0.5823 -1.2658
14852SOL     OW45976   6.641   3.402   6.091  0.1130 -0.0551 -0.4434
14852SOL    HW145977   6.642   3.484   6.041  0.8311  0.9022  1.0351
14852SOL    HW245978   6.600   3.427   6.174  2.4035 -0.5975  0.9362
14853SOL     OW45979   4.643   3.642   1.349 -0.4794 -0.0319  0.0531
14853SOL    HW145980   4.708   3.712   1.358 -1.7883  1.1032  1.3972
14853SOL    HW245981   4.670   3.576   1.413  0.3732 -0.4394 -0.7175
14854SOL     OW45982   0.531   4.752   8.213  0.4990  0.1481 -0.0128
14854SOL    HW145983   0.553   4.832   8.165 -0.5259 -0.3120 -1.2940
14854SOL    HW245984   0.599   4.690   8.188  1.1336  0.5151  0.7610
14855SOL     OW45985   0.360   6.479   0.825  0.1053 -0.0743 -0.1443
14855SOL    HW145986   0.408   6.399   0.804  0.3347  0.0357 -0.0433
14855SOL    HW245987   0.428   6.546   0.834 -0.0276 -0.0181  0.4795
14856SOL     OW45988   2.054   1.073   3.488  0.6583  0.3326  0.0545
14856SOL    HW145989   2.126   1.062   3.426  1.1040  3.2523 -0.0672
14856SOL    HW245990   2.095   1.072   3.574  0.0824 -3.3166  0.4921
14857SOL     OW45991   5.762   1.846   7.077 -0.2859  0.1871 -1.1354
14857SOL    HW145992   5.836   1.868   7.020  0.6672  0.1045  0.0306
14857SOL    HW245993   5.757   1.918   7.139  0.7184 -1.1729  0.6245
14858SOL     OW45994   3.505   3.810   6.385  0.3598 -0.5930 -0.3024
14858SOL    HW145995   3.513   3.763   6.468 -1.2943 -0.8040 -0.2135
14858SOL    HW245996   3.414   3.842   6.385  0.8664  0.9419 -1.2359
14859SOL     OW45997   0.981   7.426   1.254  0.5962  1.1286 -0.1801
14859SOL    HW145998   1.018   7.342   1.228  1.6939  0.9836  1.7299
14859SOL    HW245999   0.896   7.403   1.293  0.1626  1.0945 -1.1097
14860SOL     OW46000   3.225   8.352   1.934 -0.0887  0.3627 -0.0377
14860SOL    HW146001   3.235   8.257   1.922 -2.0942  0.1220 -0.2316
14860SOL    HW246002   3.176   8.361   2.015  1.3954  1.3444  0.7916
14861SOL     OW46003   1.165   1.728   5.482  0.3900  0.2752 -0.6615
14861SOL    HW146004   1.190   1.642   5.517  1.9443  0.4160 -1.3453
14861SOL    HW246005   1.242   1.783   5.495  0.7674  0.5528 -3.5004
14862SOL     OW46006   6.367   2.335   7.600  0.1446 -0.0153  0.3390
14862SOL    HW146007   6.395   2.322   7.510  1.0192 -0.3304  0.6508
14862SOL    HW246008   6.287   2.282   7.608 -0.4607  0.7349 -0.4941
14863SOL     OW46009   7.296   4.741   6.910 -0.0136  0.0730  0.7006
14863SOL    HW146010   7.385   4.704   6.907  0.0218  0.2319 -1.0272
14863SOL    HW246011   7.241   4.667   6.935  0.0196 -1.3947 -2.9577
14864SOL     OW46012   2.977   2.347   4.186  0.7983 -0.4159  0.6380
14864SOL    HW146013   3.056   2.395   4.165  1.5643 -0.6067  2.8839
14864SOL    HW246014   3.008   2.262   4.218 -0.4787 -2.1979 -2.3390
14865SOL     OW46015   1.584   4.163   4.447 -0.0912  0.8511  0.8338
14865SOL    HW146016   1.657   4.206   4.403  3.1786 -3.3414  1.4865
14865SOL    HW246017   1.570   4.083   4.396 -2.3650  0.2047  2.3326
14866SOL     OW46018   3.795   6.526   7.344 -0.0959  0.0615 -0.6037
14866SOL    HW146019   3.852   6.449   7.355 -0.7682 -0.4143 -0.4238
14866SOL    HW246020   3.763   6.545   7.432  1.3418  1.5606 -0.3645
14867SOL     OW46021   0.469   8.148   3.592 -0.0555 -0.3911  0.3355
14867SOL    HW146022   0.446   8.090   3.664 -2.7868 -2.7689 -2.1844
14867SOL    HW246023   0.418   8.228   3.607  0.7937 -0.1110  1.8837
14868SOL     OW46024   0.466   9.217   1.771 -0.0355  0.4348  0.0514
14868SOL    HW146025   0.454   9.226   1.866 -0.9576 -1.2097  0.1346
14868SOL    HW246026   0.381   9.243   1.734 -0.8090 -1.9454 -0.0480
14869SOL     OW46027   5.167   7.121   0.308 -0.1922 -0.0442  0.0367
14869SOL    HW146028   5.099   7.132   0.374  0.6504 -0.7093  1.0381
14869SOL    HW246029   5.246   7.100   0.357  1.4565  3.3572 -0.8400
14870SOL     OW46030   5.225   7.101   7.364 -0.1550 -0.5977 -0.1075
14870SOL    HW146031   5.178   7.031   7.319 -0.2729 -0.5061 -0.1267
14870SOL    HW246032   5.156   7.158   7.399 -0.1070  0.9458 -2.2702
14871SOL     OW46033   4.511   8.691   4.366 -0.2228 -0.1580  0.7163
14871SOL    HW146034   4.499   8.640   4.285 -0.7585  0.5294  0.3568
14871SOL    HW246035   4.551   8.629   4.427 -0.4299 -0.8816  0.1354
14872SOL     OW46036   3.919   3.949   7.768  0.1228  0.2402  0.0649
14872SOL    HW146037   3.887   3.941   7.678  3.9989 -0.0598 -1.4623
14872SOL    HW246038   3.920   4.044   7.784  0.2559  0.3431 -0.5312
14873SOL     OW46039   1.362   1.547   4.153  0.0974 -0.1380 -0.1618
14873SOL    HW146040   1.278   1.523   4.114  0.4038 -1.2500 -0.1732
14873SOL    HW246041   1.340   1.573   4.243 -0.0974 -1.9596  0.3558
14874SOL     OW46042   9.234   8.989   7.768  0.1617  0.1390  0.0297
14874SOL    HW146043   9.306   8.926   7.771  0.2063  0.2089  0.4021
14874SOL    HW246044   9.158   8.939   7.798  0.4343  0.5885  1.5468
14875SOL     OW46045   7.011   7.971   5.461 -0.1413  0.1186  0.5037
14875SOL    HW146046   7.106   7.982   5.453 -0.4276  2.6112 -0.5441
14875SOL    HW246047   6.999   7.882   5.494  2.6160  0.2496  2.1282
14876SOL     OW46048   2.176   4.282   0.046  0.0922  0.3714  0.3681
14876SOL    HW146049   2.242   4.213   0.046 -1.6507 -1.4466  1.7405
14876SOL    HW246050   2.192   4.331   0.126  0.5748  0.7900  0.0203
14877SOL     OW46051   7.051   3.416   2.197 -0.3585 -0.3167 -0.2668
14877SOL    HW146052   7.130   3.462   2.169  1.1115 -1.2605  1.9952
14877SOL    HW246053   7.000   3.482   2.244  1.8220 -0.7752  3.1320
14878SOL     OW46054   8.337   8.531   2.936  0.0894  0.0405 -0.0248
14878SOL    HW146055   8.346   8.441   2.966 -1.5127 -0.5401 -1.1592
14878SOL    HW246056   8.361   8.527   2.843  1.1685  1.0387  0.1863
14879SOL     OW46057   3.339   5.873   3.183  0.6347 -0.0956 -0.2594
14879SOL    HW146058   3.266   5.812   3.197  1.2128 -1.1242 -1.4972
14879SOL    HW246059   3.304   5.936   3.120  0.0365  0.8877  1.0193
14880SOL     OW46060   2.232   3.944   5.527 -0.6423  0.1995 -0.6792
14880SOL    HW146061   2.174   3.973   5.597  0.0194  3.2688 -1.2831
14880SOL    HW246062   2.315   3.987   5.545 -0.0021 -0.1655 -2.5323
14881SOL     OW46063   4.357   7.333   3.280 -0.1631  0.3233  0.1864
14881SOL    HW146064   4.384   7.319   3.370 -1.2423  0.0570  0.4779
14881SOL    HW246065   4.438   7.327   3.229  0.5135  0.8655  1.1667
14882SOL     OW46066   8.627   6.214   1.958  0.2938  0.1676  0.4176
14882SOL    HW146067   8.563   6.281   1.932 -0.0361 -0.6338 -0.8921
14882SOL    HW246068   8.613   6.205   2.053  1.1619  2.7745  0.8855
14883SOL     OW46069   0.444   7.645   1.120 -0.2144  0.0760 -0.0112
14883SOL    HW146070   0.392   7.715   1.081 -1.4693 -0.4506  0.6539
14883SOL    HW246071   0.399   7.624   1.202  1.9178  0.6598  1.4013
14884SOL     OW46072   8.532   1.875   0.032 -0.1513  0.3145  0.0397
14884SOL    HW146073   8.593   1.931   0.080 -1.7369  1.7671  0.4429
14884SOL    HW246074   8.449   1.884   0.079 -0.9320 -0.8615 -1.0517
14885SOL     OW46075   7.649   1.056   3.166  0.6090  0.3855  0.3738
14885SOL    HW146076   7.694   0.996   3.107 -0.8514  0.4583 -0.8733
14885SOL    HW246077   7.556   1.046   3.145 -0.0082  0.3182  2.7591
14886SOL     OW46078   4.438   8.741   8.357 -0.2880 -0.5560  0.0765
14886SOL    HW146079   4.376   8.669   8.349 -0.1867 -0.6213 -0.1318
14886SOL    HW246080   4.475   8.750   8.269  2.0602 -2.3561  0.7760
14887SOL     OW46081   3.534   4.771   1.777  0.2233 -0.4126  0.3757
14887SOL    HW146082   3.609   4.829   1.774 -0.6159  0.8332  1.9592
14887SOL    HW246083   3.476   4.803   1.707  0.1260  0.1240  0.7028
14888SOL     OW46084   8.114   4.916   5.349  0.4905  0.0702  0.4409
14888SOL    HW146085   8.065   4.966   5.284 -0.8756 -0.2068  1.2198
14888SOL    HW246086   8.076   4.828   5.346  0.0288  0.1823  1.9351
14889SOL     OW46087   6.323   1.776   8.483  0.3264 -0.3634  0.1275
14889SOL    HW146088   6.260   1.752   8.416  0.7936 -2.2981  0.3244
14889SOL    HW246089   6.403   1.798   8.435  0.6894 -1.8368 -0.0014
14890SOL     OW46090   3.423   8.869   3.405  0.2053 -0.2563  0.4596
14890SOL    HW146091   3.449   8.794   3.351 -3.4190 -0.3879 -1.4121
14890SOL    HW246092   3.387   8.829   3.484  0.3930 -0.3736  0.4873
14891SOL     OW46093   7.580   4.938   4.228  0.1025 -0.9586  0.2747
14891SOL    HW146094   7.534   5.014   4.192  0.7249 -0.7662 -0.1462
14891SOL    HW246095   7.542   4.925   4.315  1.6825  1.4189  1.4375
14892SOL     OW46096   7.615   7.866   0.004 -0.6789  0.1851 -0.7902
14892SOL    HW146097   7.647   7.925   0.072  0.5441 -2.0813  0.7736
14892SOL    HW246098   7.520   7.878   0.005 -0.6008  0.9716  0.6232
14893SOL     OW46099   5.737   0.357   4.134  0.1059 -0.4321 -0.4534
14893SOL    HW146100   5.656   0.370   4.085 -0.5613  0.2261  0.7638
14893SOL    HW246101   5.708   0.326   4.220  1.2130 -1.1295 -0.3122
14894SOL     OW46102   6.555   0.864   7.328  0.2483  0.5103  0.2023
14894SOL    HW146103   6.517   0.787   7.286  2.8501 -0.6538 -0.2131
14894SOL    HW246104   6.515   0.866   7.415 -1.1789 -0.2330 -0.4060
14895SOL     OW46105   4.851   0.626   4.307  0.3671  0.3344 -0.6197
14895SOL    HW146106   4.866   0.659   4.219 -1.0175 -0.2116 -1.0897
14895SOL    HW246107   4.760   0.598   4.307  0.3480  0.3007  0.9853
14896SOL     OW46108   0.011   1.787   7.701 -0.0840  0.0027  0.4009
14896SOL    HW146109   0.028   1.788   7.795  0.3177  1.6139  0.3286
14896SOL    HW246110  -0.056   1.854   7.688 -0.0757 -0.1485 -0.4743
14897SOL     OW46111   1.365   8.777   1.429 -0.2606 -0.7557  0.0012
14897SOL    HW146112   1.427   8.705   1.440  1.1082  0.4441  0.3884
14897SOL    HW246113   1.308   8.749   1.358  1.2484 -1.5587 -0.9337
14898SOL     OW46114   1.311   7.420   9.130  0.4778  0.9514  0.2062
14898SOL    HW146115   1.278   7.366   9.058  2.2586 -0.6666  0.5052
14898SOL    HW246116   1.233   7.450   9.175 -0.7006 -2.1190  0.4955
14899SOL     OW46117   5.556   7.565   8.152 -0.4629  0.1319 -0.6360
14899SOL    HW146118   5.637   7.525   8.185 -1.4238 -0.9558  0.5195
14899SOL    HW246119   5.486   7.519   8.199 -1.7516  1.1704 -1.4727
14900SOL     OW46120   6.930   0.662   6.091 -0.4905 -0.1101  0.0217
14900SOL    HW146121   6.865   0.668   6.021 -2.2572 -0.7329  1.4924
14900SOL    HW246122   6.950   0.568   6.097  0.9822  0.1337 -0.7531
14901SOL     OW46123   3.900   6.315   4.495  0.2841  0.2523 -0.0590
14901SOL    HW146124   3.969   6.264   4.453  2.1008 -0.4416  3.4213
14901SOL    HW246125   3.831   6.252   4.515  0.3064  0.1911 -0.1721
14902SOL     OW46126   4.837   0.047   4.102 -0.1487 -0.0257  0.0992
14902SOL    HW146127   4.856   0.140   4.120  1.3649 -0.3354  0.2334
14902SOL    HW246128   4.774   0.023   4.169 -0.1503  0.7841  0.4019
14903SOL     OW46129   5.419   4.383   5.407  0.6198 -0.4392 -0.0843
14903SOL    HW146130   5.486   4.364   5.473  0.7251  0.0161 -0.0580
14903SOL    HW246131   5.337   4.382   5.456  0.7015 -0.0698  0.0646
14904SOL     OW46132   8.869   6.693   2.685 -0.1793  0.2187 -0.3837
14904SOL    HW146133   8.781   6.664   2.708 -0.5920 -0.4261 -2.5272
14904SOL    HW246134   8.923   6.614   2.693  0.4403  0.7959  1.7557
14905SOL     OW46135   2.012   4.922   2.815 -0.1458 -0.2194  0.3163
14905SOL    HW146136   2.000   4.932   2.720 -1.3493  0.0156  0.4673
14905SOL    HW246137   1.927   4.946   2.852  0.2702 -0.4331  1.4526
14906SOL     OW46138   8.940   4.968   7.561  0.0868 -0.1227  0.0283
14906SOL    HW146139   8.955   4.922   7.478 -1.6615 -1.5339  0.4186
14906SOL    HW246140   8.872   4.916   7.604  0.7000  0.7866  2.1983
14907SOL     OW46141   4.372   2.549   3.564  0.1090  0.7521  0.6454
14907SOL    HW146142   4.418   2.621   3.522  0.3752 -0.0285 -0.4260
14907SOL    HW246143   4.339   2.495   3.492 -0.9089  0.3066  1.4121
14908SOL     OW46144   9.029   8.514   8.903 -0.0047  0.6112 -0.2008
14908SOL    HW146145   9.072   8.583   8.954  0.1653  0.3501  0.0100
14908SOL    HW246146   9.076   8.514   8.819  1.9445 -1.2011  0.8182
14909SOL     OW46147   6.108   7.162   4.472  0.4686 -0.1301 -0.1124
14909SOL    HW146148   6.145   7.188   4.388  0.5651 -0.2412 -0.1043
14909SOL    HW246149   6.135   7.071   4.483 -0.0223 -0.2976 -0.2301
14910SOL     OW46150   7.387   1.735   5.650  0.0675  0.5744  0.0980
14910SOL    HW146151   7.292   1.730   5.654  0.0192  1.2811 -0.1005
14910SOL    HW246152   7.416   1.644   5.642 -0.7069  0.4783 -2.5648
14911SOL     OW46153   0.720   7.237   3.802 -0.1930 -0.6084 -0.5145
14911SOL    HW146154   0.778   7.237   3.726 -0.0512  1.1649 -0.4678
14911SOL    HW246155   0.664   7.161   3.790  0.4914 -0.9373 -1.8689
14912SOL     OW46156   7.684   8.122   7.534  0.1939  0.2867  0.7990
14912SOL    HW146157   7.604   8.069   7.528  1.4501 -1.6317  0.0291
14912SOL    HW246158   7.727   8.110   7.450  0.9470  1.9527  0.9016
14913SOL     OW46159   3.049   8.567   0.961  0.4691  0.3885  0.0758
14913SOL    HW146160   3.107   8.639   0.935  0.1090  0.3151 -0.9732
14913SOL    HW246161   3.107   8.491   0.967  0.8490  0.7498  1.1823
14914SOL     OW46162   5.335   1.015   7.579  0.4516  0.5117  0.8084
14914SOL    HW146163   5.428   1.033   7.586  0.3723  1.3032  0.0105
14914SOL    HW246164   5.330   0.930   7.536  0.8035  0.7459  0.2982
14915SOL     OW46165   6.860   8.716   5.507  0.2711 -0.2536  0.0039
14915SOL    HW146166   6.836   8.638   5.457  2.2636 -1.8429  1.3917
14915SOL    HW246167   6.891   8.778   5.441 -3.2172  0.2981 -1.3735
14916SOL     OW46168   7.445   2.205   2.883 -0.0574 -0.0124  0.1508
14916SOL    HW146169   7.515   2.244   2.936  0.8574  0.3624 -1.2395
14916SOL    HW246170   7.484   2.124   2.849 -0.7229 -0.3880  0.2755
14917SOL     OW46171   4.059   0.633   1.973  0.1322 -0.7227  0.2649
14917SOL    HW146172   4.131   0.576   1.998  0.3076 -1.2086 -1.2645
14917SOL    HW246173   4.022   0.593   1.894 -0.8638  0.3228  0.1667
14918SOL     OW46174   4.284   5.643   9.199 -0.0389 -0.7364 -0.6545
14918SOL    HW146175   4.309   5.594   9.120  1.7358 -0.2447 -0.4341
14918SOL    HW246176   4.365   5.652   9.249 -1.0350 -0.6084  1.0135
14919SOL     OW46177   1.961   5.622   5.050  0.5421  0.4529 -0.0495
14919SOL    HW146178   1.958   5.697   4.990 -1.7156  0.4009 -0.0683
14919SOL    HW246179   1.983   5.661   5.135  2.9564  0.6261 -0.6640
14920SOL     OW46180   6.285   0.067   7.566  0.8086 -0.0891  0.8229
14920SOL    HW146181   6.340   0.113   7.503  1.7018 -1.5423  0.4949
14920SOL    HW246182   6.256  -0.011   7.520  1.1712 -0.9873  2.0685
14921SOL     OW46183   3.505   3.695   9.059 -0.0143 -0.3012  0.5489
14921SOL    HW146184   3.500   3.685   9.154 -1.8571  1.0662  0.6537
14921SOL    HW246185   3.582   3.750   9.045  0.1955 -0.3992  1.2608
14922SOL     OW46186   4.484   7.633   1.121  0.1367  0.2528  1.1677
14922SOL    HW146187   4.498   7.697   1.191  0.4189  0.5359  0.8602
14922SOL    HW246188   4.396   7.599   1.136 -0.9782  2.3606  0.0583
14923SOL     OW46189   3.795   6.263   8.207 -0.4759 -0.1041 -0.5316
14923SOL    HW146190   3.868   6.302   8.256  0.6611 -0.9588 -1.4809
14923SOL    HW246191   3.779   6.326   8.136 -1.0391  0.3420 -0.0225
14924SOL     OW46192   5.288   6.874   0.098 -0.6855 -0.0038  0.0930
14924SOL    HW146193   5.230   6.826   0.157 -0.6910 -0.3140 -0.1635
14924SOL    HW246194   5.304   6.814   0.025  3.1948 -1.5199  1.9739
14925SOL     OW46195   5.051   6.164   0.924  0.0382 -0.2489 -0.2223
14925SOL    HW146196   5.121   6.228   0.911 -1.0660  1.0136 -0.1465
14925SOL    HW246197   4.979   6.194   0.868 -0.1176 -2.0892 -1.0789
14926SOL     OW46198   4.527   4.079   6.391 -0.4759  0.3337  0.3073
14926SOL    HW146199   4.490   4.082   6.303  1.3833 -0.3722 -0.5460
14926SOL    HW246200   4.566   4.166   6.404 -1.6080  0.7744  0.8501
14927SOL     OW46201   3.286   6.345   1.394 -0.5858 -0.7075  0.1863
14927SOL    HW146202   3.280   6.307   1.482 -2.5985  3.4918  2.2015
14927SOL    HW246203   3.373   6.383   1.390  0.3885 -2.8717 -0.7220
14928SOL     OW46204   0.185   5.098   7.211 -0.2154 -0.3873 -0.5117
14928SOL    HW146205   0.220   5.186   7.229 -1.3133 -0.1663  0.6561
14928SOL    HW246206   0.206   5.083   7.119  0.3019  0.9518 -0.6420
14929SOL     OW46207   5.025   5.645   4.655 -0.6274  0.0307 -0.7509
14929SOL    HW146208   4.986   5.709   4.714 -0.9746 -0.3886 -0.5188
14929SOL    HW246209   5.108   5.684   4.628 -1.0307  0.7704 -0.9524
14930SOL     OW46210   7.000   7.536   7.351  0.2371  0.0184  0.1507
14930SOL    HW146211   6.976   7.564   7.262 -1.6034  0.2839  0.6920
14930SOL    HW246212   7.056   7.606   7.383  0.4186  0.2245 -0.5883
14931SOL     OW46213   6.881   6.353   8.424  0.1832 -0.1856 -0.1545
14931SOL    HW146214   6.844   6.424   8.476 -0.9507  0.3119 -1.5632
14931SOL    HW246215   6.880   6.277   8.483 -1.0535  0.3579  0.5727
14932SOL     OW46216   4.528   8.433   5.280  0.3305 -0.1032  0.0764
14932SOL    HW146217   4.565   8.419   5.367  1.1931 -0.0734 -0.2744
14932SOL    HW246218   4.443   8.390   5.282  0.4611 -0.3320  0.8459
14933SOL     OW46219   6.100   9.171   3.625  0.2566 -0.8767 -0.2552
14933SOL    HW146220   6.081   9.141   3.536  0.8979 -0.9986 -0.3495
14933SOL    HW246221   6.032   9.237   3.642 -0.6206 -1.7159 -0.3726
14934SOL     OW46222   8.049   8.476   4.255 -0.1600  0.3323 -0.3291
14934SOL    HW146223   8.027   8.567   4.274  0.7867  0.2512  1.3878
14934SOL    HW246224   8.132   8.481   4.206  0.1439  0.3806  0.1881
14935SOL     OW46225   7.860   8.115   0.224 -0.2388  0.3579 -0.3048
14935SOL    HW146226   7.791   8.153   0.169  0.4498  0.0306 -1.4236
14935SOL    HW246227   7.941   8.133   0.177  0.4742  0.8435  1.0535
14936SOL     OW46228   1.576   8.602   7.848  0.2662  1.2733 -0.2862
14936SOL    HW146229   1.665   8.613   7.814  1.1221  2.7689  2.1560
14936SOL    HW246230   1.587   8.549   7.927 -1.1971  0.5482 -0.5350
14937SOL     OW46231   0.204   6.444   1.070 -0.2419 -0.0771 -0.2623
14937SOL    HW146232   0.153   6.520   1.044 -0.4766 -0.4705 -0.9755
14937SOL    HW246233   0.272   6.436   1.003  0.2424 -0.0519  0.2218
14938SOL     OW46234   6.724   5.810   3.920  0.3503  0.3721 -0.3985
14938SOL    HW146235   6.816   5.786   3.905 -0.1369 -0.5721 -2.1558
14938SOL    HW246236   6.728   5.898   3.956  1.9781  0.0471  0.3102
14939SOL     OW46237   1.454   4.759   9.001  0.0568  0.1235  0.6776
14939SOL    HW146238   1.450   4.790   8.910 -0.0155 -2.0315 -0.1059
14939SOL    HW246239   1.480   4.836   9.051  1.5802  1.0185 -1.3613
14940SOL     OW46240   5.871   1.937   4.892  0.4109 -0.5140  0.4114
14940SOL    HW146241   5.957   1.979   4.882 -0.3232  0.7497 -0.9401
14940SOL    HW246242   5.840   1.923   4.803 -1.5344  0.6994  0.8277
14941SOL     OW46243   8.620   7.385   1.080  0.6381 -0.1028 -0.7717
14941SOL    HW146244   8.671   7.466   1.087 -0.8511  0.8273  0.0946
14941SOL    HW246245   8.607   7.358   1.171 -0.4741 -0.2403 -0.9569
14942SOL     OW46246   3.898   6.014   8.272 -0.2990  0.0500 -0.8163
14942SOL    HW146247   3.857   6.082   8.218 -0.5751 -0.2175 -0.9485
14942SOL    HW246248   3.983   5.999   8.232 -0.4014  0.0326 -1.0296
14943SOL     OW46249   7.605   2.397   6.006 -0.2593  0.1633 -0.0005
14943SOL    HW146250   7.567   2.456   5.942  0.7784 -0.8564 -1.6436
14943SOL    HW246251   7.544   2.398   6.080 -2.1182  0.5198 -1.4710
14944SOL     OW46252   6.609   2.231   8.537  0.4136 -0.3646  1.0594
14944SOL    HW146253   6.661   2.274   8.469 -0.2048  0.9349  1.3836
14944SOL    HW246254   6.604   2.139   8.509 -0.2546  0.2374 -0.9261
14945SOL     OW46255   2.278   3.658   1.589 -0.3328  0.2408 -0.1574
14945SOL    HW146256   2.311   3.739   1.550 -0.2412  0.6055  0.6592
14945SOL    HW246257   2.324   3.651   1.672 -0.5901 -0.4820 -0.0659
14946SOL     OW46258   2.873   1.493   0.012 -0.3308  0.5042  0.8376
14946SOL    HW146259   2.933   1.559   0.048 -1.2797  1.5282  0.6015
14946SOL    HW246260   2.895   1.491  -0.082 -3.8955  4.7400 -0.4710
14947SOL     OW46261   5.730   7.669   0.123  0.4249 -0.1527  0.0536
14947SOL    HW146262   5.646   7.700   0.090  0.2317 -0.0595  0.6169
14947SOL    HW246263   5.733   7.700   0.214  0.3349 -1.5629  0.5668
14948SOL     OW46264   3.483   0.727   3.558  0.1509  0.2493  0.3498
14948SOL    HW146265   3.554   0.672   3.592  0.0017  0.0684  0.3738
14948SOL    HW246266   3.414   0.665   3.534 -0.1741  0.4537  0.7433
14949SOL     OW46267   2.755   3.135   2.008  0.0143 -0.1573  0.3867
14949SOL    HW146268   2.802   3.107   2.087  2.4207 -0.3012 -0.9801
14949SOL    HW246269   2.802   3.214   1.980 -0.2918 -0.5374 -1.2864
14950SOL     OW46270   5.505   3.240   3.004  0.0651 -0.3318  0.5567
14950SOL    HW146271   5.424   3.266   2.960 -0.8331 -1.5868  1.3910
14950SOL    HW246272   5.558   3.199   2.935  0.7865  2.0366 -0.3883
14951SOL     OW46273   3.838   1.086   4.938 -0.7641 -0.0359 -0.2035
14951SOL    HW146274   3.767   1.107   4.877 -0.8967  0.8395  0.2358
14951SOL    HW246275   3.829   0.992   4.952 -2.4392  0.1891  0.5466
14952SOL     OW46276   2.821   2.797   9.194  0.2996 -0.3777  0.4929
14952SOL    HW146277   2.739   2.786   9.242 -0.6880 -0.0607 -1.0536
14952SOL    HW246278   2.809   2.746   9.114  1.9409 -0.9818  0.5898
14953SOL     OW46279   1.140   5.541   0.950 -0.3471 -0.2323  0.0863
14953SOL    HW146280   1.146   5.593   1.031 -0.0085 -0.2820  0.0946
14953SOL    HW246281   1.057   5.495   0.958 -0.5851  0.2048  0.1422
14954SOL     OW46282   1.427   8.331   4.219 -0.1194  0.3616 -0.3115
14954SOL    HW146283   1.487   8.300   4.151 -0.7569  2.5147 -1.9624
14954SOL    HW246284   1.341   8.325   4.179 -0.5362  1.4483  0.3808
14955SOL     OW46285   8.559   4.055   7.968  0.0199  0.2872  0.1543
14955SOL    HW146286   8.569   4.108   8.047  0.9615  2.4354 -1.3030
14955SOL    HW246287   8.467   4.031   7.966 -0.1132  0.6175  1.6415
14956SOL     OW46288   0.596   5.741   6.447  0.6227  0.0999 -0.0217
14956SOL    HW146289   0.642   5.820   6.417  0.9175  0.1570  0.5711
14956SOL    HW246290   0.627   5.728   6.536 -0.9065  0.4365  0.5859
14957SOL     OW46291   0.115   3.302   6.883  0.1283  0.3569 -0.2006
14957SOL    HW146292   0.168   3.238   6.835 -0.9271  0.8044 -2.0775
14957SOL    HW246293   0.026   3.290   6.847 -0.1565  2.6061 -0.3599
14958SOL     OW46294   3.474   6.480   6.601  0.0427  0.0062  0.2198
14958SOL    HW146295   3.489   6.544   6.671  0.2020 -1.8906  2.0254
14958SOL    HW246296   3.478   6.396   6.645 -2.3937 -1.2077 -1.6377
14959SOL     OW46297   0.477   4.959   4.853 -0.5252 -0.1197 -0.5685
14959SOL    HW146298   0.468   5.048   4.820  2.5903  0.0974 -1.1351
14959SOL    HW246299   0.446   4.903   4.782  0.2007  0.4766 -1.3691
14960SOL     OW46300   3.297   4.366   0.383 -0.2576 -0.4129 -0.1574
14960SOL    HW146301   3.248   4.344   0.304  2.4420 -0.1918 -2.0373
14960SOL    HW246302   3.383   4.325   0.370  1.5217  2.6445  0.8922
14961SOL     OW46303   7.956   1.722   4.337  0.2583  0.1485 -0.3915
14961SOL    HW146304   7.913   1.659   4.395 -1.7683  0.9700 -0.9195
14961SOL    HW246305   7.966   1.801   4.391 -0.8386  0.6282 -0.8542
14962SOL     OW46306   4.656   4.050   1.237  0.1377 -0.5507 -0.5374
14962SOL    HW146307   4.628   4.125   1.185  0.5215 -0.6276 -0.8589
14962SOL    HW246308   4.635   3.974   1.182  0.8999 -0.6119 -0.7493
14963SOL     OW46309   7.063   5.615   6.694 -0.0875 -0.1004  0.2684
14963SOL    HW146310   7.080   5.592   6.786  0.2735 -1.4355 -0.1079
14963SOL    HW246311   7.106   5.700   6.682 -0.0672  0.0488  1.3100
14964SOL     OW46312   7.494   6.465   1.103  0.1641 -0.2511 -0.0416
14964SOL    HW146313   7.455   6.385   1.069  0.1909  0.7212 -2.6033
14964SOL    HW246314   7.586   6.461   1.075  0.2928  0.4422  0.2360
14965SOL     OW46315   6.043   3.244   1.341  0.0498  0.0252  0.3186
14965SOL    HW146316   6.054   3.336   1.314  0.6058 -0.2702 -0.5105
14965SOL    HW246317   5.959   3.242   1.386 -0.7463  0.6453 -1.0609
14966SOL     OW46318   2.738   5.978   3.723 -0.2773  0.2498  0.1411
14966SOL    HW146319   2.710   5.907   3.780  2.0271 -2.0869 -1.4178
14966SOL    HW246320   2.824   6.003   3.756 -1.2944  2.9242  1.0701
14967SOL     OW46321   3.268   6.922   1.989 -0.1275 -0.1444 -0.2443
14967SOL    HW146322   3.221   6.906   1.907  0.9393 -2.3237 -0.4977
14967SOL    HW246323   3.228   6.862   2.051 -0.5696  1.1252  0.7474
14968SOL     OW46324   2.864   5.431   2.496  0.7026 -0.4547 -0.1043
14968SOL    HW146325   2.849   5.516   2.454 -0.2790 -1.3532 -1.6504
14968SOL    HW246326   2.928   5.388   2.440  1.7873 -0.4736  1.1024
14969SOL     OW46327   3.266   3.820   1.497  0.0354 -0.4716 -0.0785
14969SOL    HW146328   3.186   3.869   1.479 -0.0811 -0.6338 -0.0054
14969SOL    HW246329   3.237   3.728   1.502 -0.0427 -0.3873  1.5762
14970SOL     OW46330   8.336   8.248   2.775 -0.3096 -0.0681 -0.1484
14970SOL    HW146331   8.430   8.247   2.758 -0.4069  0.5980 -0.7731
14970SOL    HW246332   8.328   8.267   2.868  0.2028 -1.9698  0.3296
14971SOL     OW46333   8.165   1.213   1.121 -0.3830  0.3220  0.6853
14971SOL    HW146334   8.182   1.194   1.029  0.9018  0.3274  0.9121
14971SOL    HW246335   8.226   1.283   1.143  0.7166 -1.0159  2.0510
14972SOL     OW46336   7.884   8.091   8.869 -0.3096  0.1138 -0.5678
14972SOL    HW146337   7.853   8.017   8.816 -0.2945 -1.0601  0.9673
14972SOL    HW246338   7.804   8.132   8.902 -0.3169  0.7623 -1.3756
14973SOL     OW46339   8.960   6.144   7.935 -0.1965 -0.1404  0.3897
14973SOL    HW146340   9.022   6.080   7.898 -0.2627 -0.2455  0.4607
14973SOL    HW246341   8.996   6.229   7.911 -0.8459 -0.2127 -0.9528
14974SOL     OW46342   9.077   0.756   8.968  0.3016  0.2086 -0.3652
14974SOL    HW146343   9.027   0.743   9.049 -1.0943  0.9925 -1.0719
14974SOL    HW246344   9.116   0.670   8.950  2.4670  0.5002  2.2576
14975SOL     OW46345   0.081   0.777   0.294 -0.2815 -0.0109 -0.1630
14975SOL    HW146346   0.034   0.859   0.276  0.2967  0.6762  1.3420
14975SOL    HW246347   0.160   0.804   0.339 -0.1678 -1.4246  0.5336
14976SOL     OW46348   5.359   8.671   4.226  0.0213 -0.0436 -0.3869
14976SOL    HW146349   5.424   8.707   4.286  0.4888 -3.0651  1.1378
14976SOL    HW246350   5.407   8.609   4.172 -1.2127 -0.9182 -0.5487
14977SOL     OW46351   0.294   6.340   4.160  0.3999 -0.2522  0.6145
14977SOL    HW146352   0.293   6.419   4.107  0.2943  0.0107  1.0036
14977SOL    HW246353   0.210   6.341   4.206  0.6060 -0.3325  0.9980
14978SOL     OW46354   5.192   1.575   3.012  0.4092 -0.2474 -0.3912
14978SOL    HW146355   5.273   1.622   2.997 -0.1034  0.7874 -0.0127
14978SOL    HW246356   5.153   1.564   2.926 -0.7992  2.5018 -0.2733
14979SOL     OW46357   9.121   3.990   4.588  0.1398  0.1851 -0.2932
14979SOL    HW146358   9.188   4.056   4.604  0.0125  0.1441  0.4707
14979SOL    HW246359   9.167   3.907   4.592 -0.2155  0.0187  2.1884
14980SOL     OW46360   6.740   0.204   3.456 -0.0826 -0.5752 -0.2302
14980SOL    HW146361   6.664   0.160   3.418 -1.0557  0.2722  0.6519
14980SOL    HW246362   6.805   0.205   3.386 -0.7224 -1.6950 -0.8743
14981SOL     OW46363   0.486   7.698   7.662  0.0221 -0.2007  0.3269
14981SOL    HW146364   0.448   7.758   7.727 -0.2281 -0.2618  0.2345
14981SOL    HW246365   0.566   7.742   7.633 -0.6736  0.5633 -0.4805
14982SOL     OW46366   7.150   5.201   8.356 -0.1514  0.3566  0.2610
14982SOL    HW146367   7.178   5.267   8.292 -0.9975  1.1051  0.6302
14982SOL    HW246368   7.166   5.242   8.441 -1.4418  0.4306  0.4878
14983SOL     OW46369   4.689   8.443   2.646 -0.1692  0.3268 -0.1002
14983SOL    HW146370   4.762   8.499   2.621  0.8499 -1.3832 -1.0852
14983SOL    HW246371   4.715   8.405   2.730  0.9009 -1.6036 -1.2526
14984SOL     OW46372   2.077   0.923   1.787 -0.0157 -0.7158 -0.4329
14984SOL    HW146373   2.145   0.866   1.751 -3.4397 -4.1538 -2.1484
14984SOL    HW246374   2.057   0.885   1.872 -1.3958 -1.3049 -0.9966
14985SOL     OW46375   1.598   6.101   8.898 -0.9498 -0.1531  0.1575
14985SOL    HW146376   1.659   6.041   8.855 -1.5299  0.3907 -1.5056
14985SOL    HW246377   1.647   6.183   8.908 -0.6551 -0.4177  1.0524
14986SOL     OW46378   1.540   9.017   1.120  0.5085 -0.7935  0.4942
14986SOL    HW146379   1.600   9.054   1.055  0.3871 -1.3443  0.0581
14986SOL    HW246380   1.598   8.969   1.180  0.4856 -1.5730 -0.0968
14987SOL     OW46381   8.908   3.299   1.073  0.6107  0.1192 -0.1312
14987SOL    HW146382   8.935   3.296   0.981 -0.3284  0.4101 -0.4272
14987SOL    HW246383   8.823   3.254   1.074 -0.3621  1.8613  0.2249
14988SOL     OW46384   0.312   3.211   0.837  0.2349  0.4618  0.2733
14988SOL    HW146385   0.396   3.172   0.814  0.2633  1.0398 -0.6484
14988SOL    HW246386   0.300   3.190   0.930  1.2261  0.0743  0.3205
14989SOL     OW46387   0.710   1.470   5.675  0.2987 -0.0428 -0.2746
14989SOL    HW146388   0.716   1.507   5.764  0.3510  1.2504 -0.7962
14989SOL    HW246389   0.628   1.506   5.640 -0.0060 -0.9865 -0.5750
14990SOL     OW46390   7.252   2.638   4.689  0.0620 -0.1639  0.1865
14990SOL    HW146391   7.207   2.560   4.721  0.2792 -0.7013 -0.7598
14990SOL    HW246392   7.224   2.709   4.747 -0.5742 -0.8407  0.7124
14991SOL     OW46393   1.870   6.774   7.322  0.7246 -0.1538  0.3664
14991SOL    HW146394   1.882   6.816   7.407 -0.9489  0.8132  0.1819
14991SOL    HW246395   1.946   6.717   7.312  0.9734 -0.2908  2.4992
14992SOL     OW46396   1.375   2.085   4.064 -0.4379  0.1732  0.1833
14992SOL    HW146397   1.372   2.040   3.980  0.5744 -0.7562  0.5987
14992SOL    HW246398   1.284   2.092   4.092 -0.7306 -0.1023 -0.6887
14993SOL     OW46399   6.158   8.789   2.856  0.2746 -0.6399  0.0878
14993SOL    HW146400   6.182   8.725   2.790 -1.0927 -0.2050 -0.8862
14993SOL    HW246401   6.105   8.853   2.809 -0.5504 -0.1887  1.5579
14994SOL     OW46402   2.670   6.019   7.021  0.2749 -0.1149  0.3339
14994SOL    HW146403   2.726   6.072   6.964  0.2429 -0.1216  0.2959
14994SOL    HW246404   2.585   6.062   7.016 -0.2348 -1.2055 -1.1341
14995SOL     OW46405   0.474   3.314   8.553  0.6916 -0.3007 -0.7845
14995SOL    HW146406   0.521   3.316   8.469  0.9383 -0.9198 -0.6628
14995SOL    HW246407   0.410   3.385   8.546  1.5916  0.5222 -0.9900
14996SOL     OW46408   6.037   1.966   8.362  0.0638 -0.6073  0.2813
14996SOL    HW146409   6.016   1.885   8.316  2.6941 -1.1063 -0.1862
14996SOL    HW246410   6.082   2.020   8.298  1.1755 -0.1034  1.4294
14997SOL     OW46411   3.410   7.109   3.820  0.0537 -0.3334 -0.0811
14997SOL    HW146412   3.472   7.105   3.893  2.3771 -2.3019 -1.9678
14997SOL    HW246413   3.358   7.029   3.828 -1.6542  0.8041  0.8957
14998SOL     OW46414   3.364   5.306   3.672 -0.2685 -0.1864  0.0588
14998SOL    HW146415   3.364   5.216   3.705 -3.3690  0.1745  1.4621
14998SOL    HW246416   3.420   5.355   3.733 -1.2836 -0.6064  1.3777
14999SOL     OW46417   5.967   1.770   1.024 -0.1041  0.2623 -0.8406
14999SOL    HW146418   6.036   1.720   0.981  0.5079  0.3975 -0.0237
14999SOL    HW246419   5.886   1.730   0.993  0.3383 -0.0618 -1.6102
15000SOL     OW46420   8.506   2.827   8.839 -0.5730  0.1368  0.1011
15000SOL    HW146421   8.525   2.747   8.889 -2.6323 -1.3037 -1.3183
15000SOL    HW246422   8.593   2.865   8.823  0.3313 -0.5768  2.6616
15001SOL     OW46423   7.466   6.721   6.673  0.3947 -0.0813  0.3694
15001SOL    HW146424   7.546   6.762   6.639 -0.5863  1.2955 -0.3597
15001SOL    HW246425   7.422   6.791   6.721  0.0222 -1.0614  1.4934
15002SOL     OW46426   7.986   0.057   1.055 -0.0466 -0.4373 -0.8500
15002SOL    HW146427   8.067   0.095   1.091 -0.6734  0.4683 -0.3505
15002SOL    HW246428   7.917   0.092   1.111 -0.7817 -1.2848 -1.2158
15003SOL     OW46429   7.848   5.343   2.772 -0.3417  0.5065  1.0434
15003SOL    HW146430   7.877   5.275   2.711  0.1135  2.8390 -1.5213
15003SOL    HW246431   7.926   5.396   2.787 -0.9088  1.0323  2.2595
15004SOL     OW46432   5.736   1.785   1.961 -0.1748 -0.4498  0.3690
15004SOL    HW146433   5.817   1.835   1.965 -1.0394  1.2222 -1.2394
15004SOL    HW246434   5.754   1.714   1.898 -0.2346  0.5696 -0.8400
15005SOL     OW46435   6.760   3.495   3.756 -0.4464 -0.0955  0.4820
15005SOL    HW146436   6.811   3.502   3.837 -1.1730  0.9413  0.8568
15005SOL    HW246437   6.681   3.547   3.772 -1.2754 -1.0516 -0.3751
15006SOL     OW46438   4.266   5.544   4.510 -0.2456  0.0469  0.1492
15006SOL    HW146439   4.332   5.579   4.450 -1.6551  0.2776 -1.3235
15006SOL    HW246440   4.190   5.525   4.455 -1.1794 -0.8990  1.6717
15007SOL     OW46441   5.291   9.226   2.623  0.6008  0.1461  0.6278
15007SOL    HW146442   5.236   9.299   2.595 -0.9465 -2.0325 -2.6196
15007SOL    HW246443   5.380   9.254   2.601  0.0540  1.1257 -0.4808
15008SOL     OW46444   4.885   7.387   9.031 -0.7001 -0.3491 -0.0994
15008SOL    HW146445   4.944   7.352   8.965 -1.1004 -1.0321 -0.1078
15008SOL    HW246446   4.800   7.393   8.987 -1.2075 -1.7570  0.5994
15009SOL     OW46447   0.054   0.994   1.211  0.1775  0.4481  0.2380
15009SOL    HW146448   0.072   0.904   1.239  0.0559  0.5844  0.7650
15009SOL    HW246449  -0.040   0.994   1.191  0.4955  0.0250 -1.4302
15010SOL     OW46450   6.008   7.497   8.983 -0.0641 -0.1168  0.2710
15010SOL    HW146451   6.073   7.564   9.006  1.2995 -1.4267  0.4130
15010SOL    HW246452   6.054   7.439   8.923 -0.9345 -1.3897  0.7861
15011SOL     OW46453   6.333   6.609   7.029 -0.4421  0.1193  0.8524
15011SOL    HW146454   6.401   6.578   7.089  0.3675  0.6232  0.2203
15011SOL    HW246455   6.377   6.614   6.944 -1.4558 -0.1854  0.2905
15012SOL     OW46456   8.835   9.238   6.361 -0.1867 -0.1577 -0.7546
15012SOL    HW146457   8.894   9.298   6.315 -0.2297 -0.7822 -1.6684
15012SOL    HW246458   8.750   9.281   6.360  0.3065  0.9222  0.9056
15013SOL     OW46459   6.481   6.855   0.290 -0.0252  0.3555  0.1185
15013SOL    HW146460   6.565   6.897   0.269 -1.2958  2.7494 -0.4901
15013SOL    HW246461   6.421   6.887   0.223 -2.0023  0.6592  1.9465
15014SOL     OW46462   1.596   4.529   5.439 -0.0545  0.3476 -0.0941
15014SOL    HW146463   1.645   4.611   5.443 -1.6025  1.3839 -1.2111
15014SOL    HW246464   1.575   4.519   5.346 -1.8444 -0.0906  0.3331
15015SOL     OW46465   0.760   5.774   6.668 -0.4729  0.1246  0.0541
15015SOL    HW146466   0.769   5.726   6.751  0.7902  2.0980  1.1398
15015SOL    HW246467   0.842   5.757   6.622 -1.2123 -1.0490 -0.9074
15016SOL     OW46468   3.628   4.273   8.719 -0.2979 -0.3258 -0.8342
15016SOL    HW146469   3.664   4.208   8.659  1.0148 -2.0149  1.6610
15016SOL    HW246470   3.535   4.250   8.726  0.5010 -3.4337  1.5927
15017SOL     OW46471   0.744   0.108   3.153  0.5428 -0.2886 -0.8290
15017SOL    HW146472   0.783   0.184   3.195 -0.2511 -0.0131 -0.5704
15017SOL    HW246473   0.787   0.033   3.194 -0.9193 -0.0717  1.2730
15018SOL     OW46474   3.959   7.681   6.087  0.1427  0.5218 -0.0480
15018SOL    HW146475   4.053   7.670   6.101 -0.1288 -2.7044 -0.0664
15018SOL    HW246476   3.918   7.641   6.163 -1.2964  2.3977  0.2471
15019SOL     OW46477   4.133   2.649   4.549 -0.0524  0.1262  0.0425
15019SOL    HW146478   4.088   2.587   4.492  0.7559  0.2426 -0.7506
15019SOL    HW246479   4.222   2.615   4.556  0.5018  1.3583 -0.6866
15020SOL     OW46480   8.203   8.870   0.691 -0.2160  0.8482  0.1217
15020SOL    HW146481   8.263   8.915   0.631 -0.7196  1.1150 -0.1944
15020SOL    HW246482   8.187   8.785   0.650  0.8972  0.2849  0.8224
15021SOL     OW46483   6.250   5.719   3.598  0.0892  0.3398  0.6072
15021SOL    HW146484   6.248   5.792   3.661 -2.7516  1.7040 -0.9025
15021SOL    HW246485   6.225   5.642   3.649  0.3500  0.9169  1.6320
15022SOL     OW46486   7.457   3.446   0.119  0.2964 -0.8076 -0.3227
15022SOL    HW146487   7.407   3.521   0.150  0.2722 -1.7154  2.0682
15022SOL    HW246488   7.512   3.480   0.048 -0.6727  1.1334 -0.1882
15023SOL     OW46489   6.932   8.156   0.894  0.3437 -0.3504 -0.4093
15023SOL    HW146490   6.959   8.090   0.958  2.3026 -0.2420 -1.0810
15023SOL    HW246491   6.874   8.109   0.835  0.4294 -1.0594  0.0567
15024SOL     OW46492   7.696   1.568   5.918 -0.5245  0.2787  0.3773
15024SOL    HW146493   7.660   1.634   5.977 -1.8919  0.3758 -0.5174
15024SOL    HW246494   7.627   1.554   5.852  1.2550  0.7909 -1.7121
15025SOL     OW46495   2.178   8.948   0.881  0.3541 -0.4020  0.4749
15025SOL    HW146496   2.136   8.874   0.838  0.9694 -2.3191  2.9368
15025SOL    HW246497   2.239   8.982   0.817 -1.2930 -0.7597 -1.3882
15026SOL     OW46498   0.566   0.766   8.020 -1.0287 -0.1086 -0.3874
15026SOL    HW146499   0.627   0.721   7.961 -0.3212  1.1410 -0.6429
15026SOL    HW246500   0.550   0.850   7.978 -2.1676 -0.0253  0.1811
15027SOL     OW46501   8.701   6.923   4.661  0.1158  0.2208 -0.5472
15027SOL    HW146502   8.677   6.866   4.734 -2.2561  0.3717 -1.1185
15027SOL    HW246503   8.677   6.874   4.583 -0.5266  1.3758 -1.0980
15028SOL     OW46504   6.100   3.275   4.096  0.0466  0.8976 -0.2571
15028SOL    HW146505   6.084   3.202   4.157  0.0893  1.2668  0.2025
15028SOL    HW246506   6.169   3.326   4.138  1.0438  0.4157 -1.2693
15029SOL     OW46507   6.846   5.144   1.492  0.2196  0.0958 -0.0052
15029SOL    HW146508   6.930   5.110   1.522  1.8618  2.1950 -1.9259
15029SOL    HW246509   6.848   5.237   1.512 -2.0233  0.0744  0.6022
15030SOL     OW46510   3.745   4.271   7.055 -0.0182  0.2846  0.2216
15030SOL    HW146511   3.830   4.238   7.084  0.7072  1.7942 -0.1029
15030SOL    HW246512   3.735   4.355   7.100  0.2465  1.7723 -2.3249
15031SOL     OW46513   8.379   0.354   4.429  0.3450  0.0199 -0.7526
15031SOL    HW146514   8.452   0.338   4.489 -0.5849 -0.0449  0.3875
15031SOL    HW246515   8.399   0.300   4.352  1.2449 -0.3828 -0.2462
15032SOL     OW46516   6.625   5.433   0.314 -0.6687 -0.4396 -0.0907
15032SOL    HW146517   6.552   5.385   0.354 -0.1742 -1.6890 -0.6449
15032SOL    HW246518   6.689   5.442   0.385 -1.7781  1.6778  0.7317
15033SOL     OW46519   1.744   8.101   1.222  0.5423 -0.2399 -0.3626
15033SOL    HW146520   1.714   8.010   1.223  0.1308 -0.1314  1.4359
15033SOL    HW246521   1.819   8.101   1.283 -0.0277  0.7835  0.3619
15034SOL     OW46522   0.826   1.289   6.361 -0.4949  0.3630  0.1688
15034SOL    HW146523   0.915   1.294   6.326 -0.3533  0.3809  0.5269
15034SOL    HW246524   0.814   1.371   6.409 -0.5581  0.1803  0.4673
15035SOL     OW46525   5.119   3.335   7.099 -0.0985  0.1541  0.0278
15035SOL    HW146526   5.116   3.240   7.103  0.7519  0.0294 -1.5452
15035SOL    HW246527   5.110   3.363   7.190 -1.6802 -1.3604  0.3958
15036SOL     OW46528   4.545   4.687   4.463 -0.0364 -0.2780 -0.4729
15036SOL    HW146529   4.574   4.677   4.372  2.0555  2.3956 -0.2173
15036SOL    HW246530   4.456   4.653   4.464  0.8361 -3.0872 -2.8262
15037SOL     OW46531   5.426   7.801   5.608  0.1018 -0.1469 -0.2944
15037SOL    HW146532   5.356   7.736   5.605 -0.0847  0.0982 -2.0524
15037SOL    HW246533   5.466   7.789   5.695 -0.2590 -2.2250 -0.3615
15038SOL     OW46534   0.053   0.940   8.938 -0.8525 -0.4794 -0.2207
15038SOL    HW146535   0.015   0.870   8.991 -0.2948  1.4696  3.0229
15038SOL    HW246536  -0.021   0.975   8.889 -2.0731 -0.6006  1.4330
15039SOL     OW46537   6.486   7.997   6.060 -0.2002  0.0785 -0.2056
15039SOL    HW146538   6.522   8.007   6.148  2.1602 -1.4273 -0.8907
15039SOL    HW246539   6.505   7.906   6.037 -2.8468 -0.2414 -1.4382
15040SOL     OW46540   6.196   4.345   6.261 -0.0817  0.1677  0.4715
15040SOL    HW146541   6.107   4.370   6.288 -0.3700 -1.3077  0.9847
15040SOL    HW246542   6.212   4.263   6.307  1.5381  0.3755  0.3188
15041SOL     OW46543   1.888   3.295   2.367 -0.3809 -0.7190  0.6103
15041SOL    HW146544   1.926   3.298   2.279 -0.3770 -2.3270  0.5334
15041SOL    HW246545   1.835   3.375   2.373  0.5558  0.0036 -0.4076
15042SOL     OW46546   7.486   4.221   7.237  0.3532  0.1974  0.1369
15042SOL    HW146547   7.561   4.254   7.188 -0.2217  1.7527  0.2760
15042SOL    HW246548   7.419   4.288   7.228 -1.7305 -1.9173 -1.4948
15043SOL     OW46549   0.654   6.996   7.092  0.1355  0.0266 -0.1372
15043SOL    HW146550   0.663   7.001   7.187 -2.0539  1.2408  0.0722
15043SOL    HW246551   0.744   6.996   7.059  0.9349  0.8555  1.8937
15044SOL     OW46552   4.499   3.416   5.150  0.0082 -0.0919  1.1004
15044SOL    HW146553   4.580   3.384   5.111 -0.0782  0.8568  0.0669
15044SOL    HW246554   4.494   3.374   5.236  0.4698 -1.8682  0.2982
15045SOL     OW46555   7.083   0.218   2.538 -0.1587 -0.0450  0.0318
15045SOL    HW146556   7.029   0.247   2.464 -0.4139 -1.0418 -0.1899
15045SOL    HW246557   7.158   0.175   2.497 -0.7829 -1.4572  0.3401
15046SOL     OW46558   4.480   6.846   6.187  0.5986 -0.2797 -0.7127
15046SOL    HW146559   4.435   6.914   6.137  0.6995 -0.2742 -0.7983
15046SOL    HW246560   4.411   6.801   6.234  0.5562  0.0408 -0.4649
15047SOL     OW46561   4.226   4.093   0.064  0.3474  0.1274 -0.1620
15047SOL    HW146562   4.201   4.109   0.156 -0.1615 -0.5635 -0.1734
15047SOL    HW246563   4.277   4.012   0.067  0.0700 -0.0587 -0.5327
15048SOL     OW46564   8.555   2.666   4.540  0.4196  0.0025  0.0256
15048SOL    HW146565   8.584   2.622   4.620 -0.7876 -0.3267  0.3058
15048SOL    HW246566   8.560   2.759   4.560 -1.7033 -0.0809  1.2154
15049SOL     OW46567   1.942   8.847   4.413  0.8303  0.5805 -0.0872
15049SOL    HW146568   1.917   8.769   4.363 -4.2892  2.1734 -0.5992
15049SOL    HW246569   1.972   8.909   4.347  1.2946  0.2960 -0.1512
15050SOL     OW46570   3.673   4.909   0.240 -0.2430 -0.3218 -0.0359
15050SOL    HW146571   3.715   4.873   0.163  2.3288  1.0000  0.6269
15050SOL    HW246572   3.624   4.836   0.277  1.3482 -1.9650 -0.9969
15051SOL     OW46573   8.582   0.680   2.634 -0.5918 -0.1282  0.5186
15051SOL    HW146574   8.656   0.621   2.625 -0.8860 -0.3556 -0.5625
15051SOL    HW246575   8.568   0.688   2.729  0.4388 -0.5297  0.7111
15052SOL     OW46576   3.642   7.074   7.051 -0.3093 -0.5954 -0.0099
15052SOL    HW146577   3.670   7.137   6.985  2.8295 -0.1726  1.5486
15052SOL    HW246578   3.590   7.010   7.003  2.7237 -0.9581 -3.1503
15053SOL     OW46579   7.698   5.528   1.258  0.1971  0.2014 -0.3094
15053SOL    HW146580   7.652   5.460   1.307 -0.6428  1.2011  0.3106
15053SOL    HW246581   7.738   5.584   1.324  3.4332 -1.2850 -0.7911
15054SOL     OW46582   8.823   3.220   1.754  0.7516 -0.0368 -0.0241
15054SOL    HW146583   8.770   3.194   1.679 -1.6026 -0.2363  1.5864
15054SOL    HW246584   8.851   3.309   1.735 -1.0148  0.4395 -0.5613
15055SOL     OW46585   8.510   0.292   5.657 -0.5391  0.2266  0.1346
15055SOL    HW146586   8.486   0.222   5.718 -2.0870 -0.2006 -0.9143
15055SOL    HW246587   8.583   0.337   5.700  0.3055 -1.8322  0.9688
15056SOL     OW46588   3.511   1.853   0.713  0.9738  0.0696 -0.2168
15056SOL    HW146589   3.528   1.763   0.685  1.4656  0.0897  0.0218
15056SOL    HW246590   3.437   1.881   0.658 -1.0124 -1.3981  1.5413
15057SOL     OW46591   3.204   2.240   2.840 -0.4567 -0.1091 -0.0638
15057SOL    HW146592   3.299   2.230   2.850 -0.2871  0.9240 -0.6169
15057SOL    HW246593   3.168   2.157   2.873  0.6514 -0.6533 -0.1966
15058SOL     OW46594   2.626   1.769   7.914 -0.5409 -0.1536  0.5963
15058SOL    HW146595   2.665   1.856   7.920 -0.2058 -0.3739  1.9726
15058SOL    HW246596   2.532   1.786   7.905 -0.2444  0.3718 -2.6202
15059SOL     OW46597   3.154   3.256   1.438  0.1257  0.1706 -0.8764
15059SOL    HW146598   3.164   3.165   1.410  0.6441 -0.7114  1.8535
15059SOL    HW246599   3.195   3.259   1.524 -1.0823  2.6988 -0.2945
15060SOL     OW46600   3.668   6.230   2.307 -0.2093  0.0341 -0.3299
15060SOL    HW146601   3.645   6.289   2.378  0.8508 -0.0522  0.1093
15060SOL    HW246602   3.614   6.258   2.233 -0.6477  0.7148  0.2436
15061SOL     OW46603   1.565   7.736   2.003  0.1035  0.3439 -0.0907
15061SOL    HW146604   1.617   7.656   2.010 -1.0917 -0.3702  1.1363
15061SOL    HW246605   1.548   7.746   1.910  0.0145 -1.0348 -0.2445
15062SOL     OW46606   1.274   0.595   0.773  0.0146 -0.1615  0.3691
15062SOL    HW146607   1.368   0.614   0.775 -0.1964  0.8917  1.3971
15062SOL    HW246608   1.265   0.510   0.815  0.4814 -0.1430  0.5069
15063SOL     OW46609   1.681   8.260   5.700 -0.6492 -0.2592 -0.3823
15063SOL    HW146610   1.692   8.319   5.626 -1.5237 -0.5614 -0.7713
15063SOL    HW246611   1.769   8.232   5.722 -0.4532 -1.1033 -2.0848
15064SOL     OW46612   1.342   2.689   7.227 -0.0784 -0.1241 -0.0324
15064SOL    HW146613   1.328   2.773   7.183  0.3344 -0.1538 -0.2230
15064SOL    HW246614   1.392   2.637   7.165 -0.4525 -0.5660  0.0310
15065SOL     OW46615   8.070   1.618   6.491  0.0549 -0.3378  0.1835
15065SOL    HW146616   8.031   1.636   6.406  0.7457 -3.3307 -0.8632
15065SOL    HW246617   8.157   1.656   6.486  0.4177 -1.2561 -0.8240
15066SOL     OW46618   0.996   5.249   8.390 -0.5771 -0.6667  0.5101
15066SOL    HW146619   1.061   5.238   8.460 -0.3587  0.8290  0.5734
15066SOL    HW246620   1.032   5.200   8.316 -0.2150 -1.2486  1.0547
15067SOL     OW46621   5.097   3.462   6.870  0.2909  0.1067  0.7434
15067SOL    HW146622   5.094   3.374   6.832 -1.4378  0.5037 -0.1413
15067SOL    HW246623   5.091   3.447   6.964 -0.1161 -0.7271  0.5967
15068SOL     OW46624   1.380   4.974   8.115  0.0588  0.3602  0.0324
15068SOL    HW146625   1.383   4.949   8.207 -1.1574 -2.5365 -0.6008
15068SOL    HW246626   1.471   4.988   8.090  0.4668  0.3347  1.4720
15069SOL     OW46627   1.645   4.420   2.433  0.3649  0.2980 -0.0935
15069SOL    HW146628   1.645   4.510   2.466  2.1097  0.0060  0.8189
15069SOL    HW246629   1.612   4.368   2.506  0.1215  0.1062 -0.3398
15070SOL     OW46630   1.220   1.977   8.356  0.0521  0.4535  0.0922
15070SOL    HW146631   1.303   1.970   8.309  1.0771  1.7017  1.6244
15070SOL    HW246632   1.164   2.027   8.297  0.0663 -1.0828 -1.3054
15071SOL     OW46633   4.431   0.648   0.351  0.4927 -0.1966  0.3225
15071SOL    HW146634   4.353   0.622   0.399  0.1476  1.2443  0.6050
15071SOL    HW246635   4.489   0.685   0.418  0.8920 -0.1108 -0.0616
15072SOL     OW46636   3.658   4.165   5.227  0.6878  0.2213  0.0300
15072SOL    HW146637   3.643   4.211   5.145  0.6789  0.6304  0.2626
15072SOL    HW246638   3.727   4.101   5.206  1.6231  1.2035  0.0201
15073SOL     OW46639   4.906   0.556   2.260 -0.6988  0.1513 -0.1426
15073SOL    HW146640   4.903   0.461   2.263  1.4139  0.0650  0.7863
15073SOL    HW246641   4.872   0.578   2.173  0.0982 -1.5316 -0.9270
15074SOL     OW46642   3.691   2.953   1.831 -1.2372  0.3480  0.0066
15074SOL    HW146643   3.676   2.859   1.829  1.9782 -0.3693  2.0184
15074SOL    HW246644   3.683   2.981   1.740 -0.4233 -2.2673 -0.9531
15075SOL     OW46645   7.256   5.712   1.474  0.1592 -0.2234  0.3945
15075SOL    HW146646   7.169   5.753   1.469 -0.1874 -0.5733  2.5771
15075SOL    HW246647   7.238   5.618   1.472  0.2225 -0.3554  3.0479
15076SOL     OW46648   2.865   0.546   2.260 -0.3396 -0.0259  0.6322
15076SOL    HW146649   2.849   0.476   2.198  2.4153  0.6417 -1.0070
15076SOL    HW246650   2.790   0.604   2.251 -0.2736 -0.2122 -1.7883
15077SOL     OW46651   2.044   5.722   2.851 -0.3391  0.1683 -0.0178
15077SOL    HW146652   1.994   5.800   2.873  0.3130  0.0530  2.0596
15077SOL    HW246653   2.089   5.744   2.769 -0.2286  1.9418  0.4958
15078SOL     OW46654   3.029   3.967   1.522  0.2909  0.1771 -0.0719
15078SOL    HW146655   3.087   4.000   1.591 -0.3152 -1.5097  1.2910
15078SOL    HW246656   2.958   3.923   1.569 -1.3561  0.9363 -1.7348
15079SOL     OW46657   6.992   8.136   7.055  0.0262  0.1323 -0.0461
15079SOL    HW146658   7.013   8.229   7.063  2.4602 -0.4321  1.2156
15079SOL    HW246659   6.909   8.126   7.102  1.8668  1.0515  3.7871
15080SOL     OW46660   1.553   9.210   4.021 -0.0167 -0.1077  0.3125
15080SOL    HW146661   1.628   9.246   4.068  1.7583  0.2483 -2.5237
15080SOL    HW246662   1.497   9.285   4.004  0.1845  0.0591  0.3828
15081SOL     OW46663   1.820   1.724   1.553 -0.2458 -0.5087  0.2931
15081SOL    HW146664   1.822   1.641   1.507 -1.2405 -0.2133 -0.3051
15081SOL    HW246665   1.868   1.707   1.635 -2.0071 -2.2033  1.0535
15082SOL     OW46666   7.943   9.251   8.643 -0.1384 -0.3399  0.5458
15082SOL    HW146667   7.869   9.193   8.662 -0.7541  0.3360  0.2599
15082SOL    HW246668   7.904   9.327   8.599  0.6925  0.1461  0.6151
15083SOL     OW46669   5.723   3.258   3.811 -0.5325 -0.3285  0.0330
15083SOL    HW146670   5.754   3.348   3.818 -0.6733 -0.2485 -0.4023
15083SOL    HW246671   5.656   3.260   3.743  0.6022 -1.0600 -1.1499
15084SOL     OW46672   1.107   3.030   1.668 -0.0342 -0.2438 -0.1176
15084SOL    HW146673   1.135   3.122   1.675 -0.0167 -0.3239  1.1600
15084SOL    HW246674   1.172   2.981   1.718  0.0134 -0.9784 -0.8814
15085SOL     OW46675   6.285   5.720   5.276  0.4565 -0.1230 -0.1438
15085SOL    HW146676   6.242   5.806   5.270  1.5624  0.4216 -0.7604
15085SOL    HW246677   6.224   5.665   5.324 -0.4573  0.9057 -0.0956
15086SOL     OW46678   5.909   3.111   8.946 -0.2222  0.6853 -0.4250
15086SOL    HW146679   5.918   3.106   9.041 -0.3323  1.6984 -0.3488
15086SOL    HW246680   5.817   3.091   8.929 -0.0100 -0.3458 -0.3998
15087SOL     OW46681   8.266   0.468   8.064 -0.1694 -0.0634  0.4841
15087SOL    HW146682   8.309   0.546   8.030 -1.0770  1.4468  2.6055
15087SOL    HW246683   8.241   0.419   7.986  0.1215  1.9322 -0.9343
15088SOL     OW46684   3.593   6.716   5.456 -0.2412 -0.2916 -0.5152
15088SOL    HW146685   3.588   6.674   5.370 -1.3013 -0.6558 -0.2916
15088SOL    HW246686   3.676   6.684   5.493 -0.8564 -1.9685 -0.4836
15089SOL     OW46687   8.748   0.619   4.063 -0.0615 -0.4620 -0.0746
15089SOL    HW146688   8.670   0.595   4.013  0.5026 -1.5987 -0.4310
15089SOL    HW246689   8.732   0.710   4.088 -0.9776 -0.2975 -1.1416
15090SOL     OW46690   2.313   4.951   2.809  0.0629 -0.2441  0.5503
15090SOL    HW146691   2.218   4.953   2.798  0.2125  0.9059 -0.6397
15090SOL    HW246692   2.329   5.002   2.888 -0.3156 -0.7173  0.9438
15091SOL     OW46693   4.902   4.226   1.019  0.3810  0.0404 -0.0168
15091SOL    HW146694   4.838   4.298   1.018  0.2217 -0.0982  0.1136
15091SOL    HW246695   4.927   4.215   0.927  0.2251  0.1022 -0.0671
15092SOL     OW46696   6.368   2.595   4.569 -0.0479  0.0503 -0.1812
15092SOL    HW146697   6.372   2.683   4.531  0.4477  0.0871 -0.0494
15092SOL    HW246698   6.441   2.593   4.631  0.1890 -0.5877 -0.4763
15093SOL     OW46699   2.072   8.583   6.648  0.4147 -0.2409 -0.2410
15093SOL    HW146700   2.129   8.542   6.583  0.4142 -2.9914  1.3480
15093SOL    HW246701   2.112   8.561   6.732 -1.5333  0.0625  0.8229
15094SOL     OW46702   4.325   7.429   0.014 -0.5332  0.0485 -0.5574
15094SOL    HW146703   4.276   7.357   0.053  0.7577 -0.6437 -0.1365
15094SOL    HW246704   4.361   7.477   0.089  0.8001 -0.4581 -0.8362
15095SOL     OW46705   6.917   7.484   8.829 -0.2286 -0.3207  0.1691
15095SOL    HW146706   6.997   7.487   8.777 -0.0154  3.4759  0.4111
15095SOL    HW246707   6.939   7.429   8.904  1.8015 -0.2473 -0.3230
15096SOL     OW46708   2.533   1.850   1.543  0.8373 -0.2359  0.2668
15096SOL    HW146709   2.507   1.942   1.551  1.7015  0.0564 -0.1625
15096SOL    HW246710   2.453   1.801   1.561  0.4404  0.5935  0.8140
15097SOL     OW46711   6.944   0.442   1.778  0.1712 -0.4002  0.0399
15097SOL    HW146712   7.016   0.379   1.782  0.4830 -0.0998 -0.7452
15097SOL    HW246713   6.870   0.393   1.741  0.2107 -0.4867  0.0759
15098SOL     OW46714   6.866   4.381   7.492  0.6904 -0.7794 -0.0653
15098SOL    HW146715   6.936   4.445   7.481 -0.3844  0.2042 -1.5633
15098SOL    HW246716   6.817   4.412   7.569  1.0000 -0.6118  0.0670
15099SOL     OW46717   6.306   7.940   0.447 -0.3532 -0.3400  0.4472
15099SOL    HW146718   6.368   7.973   0.382 -1.0189 -0.0412 -0.0461
15099SOL    HW246719   6.353   7.869   0.491 -0.2387 -1.2256 -1.0369
15100SOL     OW46720   8.698   3.703   2.055 -0.4482  0.3022 -0.4358
15100SOL    HW146721   8.613   3.673   2.088  0.4257 -0.9771  0.7178
15100SOL    HW246722   8.761   3.680   2.123  0.6145  2.9321 -0.3848
15101SOL     OW46723   2.773   0.778   9.145  0.6482  0.2380  0.4729
15101SOL    HW146724   2.778   0.716   9.072  1.2960  0.6367  0.1663
15101SOL    HW246725   2.776   0.723   9.223 -0.1215 -0.1975  0.2075
15102SOL     OW46726   0.022   5.736   6.929  0.6275  0.0759 -0.0084
15102SOL    HW146727   0.052   5.776   6.847 -2.0429 -0.0770 -1.1732
15102SOL    HW246728   0.043   5.643   6.920 -0.9417 -0.2046 -1.2528
15103SOL     OW46729   8.836   7.463   7.287  0.0753  0.2665 -0.0557
15103SOL    HW146730   8.825   7.541   7.340  1.2572 -0.7550  1.7785
15103SOL    HW246731   8.795   7.393   7.338 -2.4137 -0.1619 -2.3564
15104SOL     OW46732   3.748   5.700   8.630  0.2620 -0.4934  0.2635
15104SOL    HW146733   3.761   5.728   8.539  0.1895  0.5504  0.5650
15104SOL    HW246734   3.660   5.732   8.652  0.6518  0.0957  0.9972
15105SOL     OW46735   5.269   8.958   0.557  0.0072 -0.2519 -0.0653
15105SOL    HW146736   5.235   9.048   0.562  0.6320  0.0506 -1.0696
15105SOL    HW246737   5.364   8.968   0.562  0.1603 -0.7328 -1.4687
15106SOL     OW46738   1.278   8.872   5.501  0.3627  0.1601  0.5171
15106SOL    HW146739   1.186   8.870   5.530  0.6366 -0.6025  1.3839
15106SOL    HW246740   1.325   8.822   5.568  1.0280 -1.6866 -1.2218
15107SOL     OW46741   7.624   3.094   7.327 -0.2317 -0.0642 -0.2729
15107SOL    HW146742   7.533   3.067   7.315  0.1932 -0.9527 -1.7440
15107SOL    HW246743   7.656   3.111   7.239  0.2034  3.2442  0.3890
15108SOL     OW46744   6.458   7.833   8.417  0.7388  0.4607  0.1316
15108SOL    HW146745   6.507   7.912   8.397  1.0221  0.2572  0.0159
15108SOL    HW246746   6.511   7.761   8.382 -0.2147  0.3121 -1.0984
15109SOL     OW46747   6.205   6.165   1.491 -0.4798  0.0966  0.1483
15109SOL    HW146748   6.226   6.137   1.580 -0.3594  1.6679  0.6542
15109SOL    HW246749   6.237   6.095   1.435 -0.2120 -0.7450  1.3231
15110SOL     OW46750   5.184   3.523   4.002 -0.2650 -0.2606 -0.3705
15110SOL    HW146751   5.255   3.539   4.065  0.1311 -0.6414 -0.7124
15110SOL    HW246752   5.115   3.481   4.053 -0.5333  0.7374  0.1177
15111SOL     OW46753   0.717   8.905   4.111 -0.0020 -0.2453  0.6660
15111SOL    HW146754   0.799   8.859   4.130 -0.1978 -1.0195 -0.3151
15111SOL    HW246755   0.694   8.947   4.194  1.4030  0.0231  0.9555
15112SOL     OW46756   0.634   1.607   2.608  0.0899  0.1149  0.2881
15112SOL    HW146757   0.573   1.660   2.659 -1.8230 -2.1782  0.5359
15112SOL    HW246758   0.653   1.532   2.664  0.4580 -0.8974 -1.1508
15113SOL     OW46759   9.039   5.355   5.928 -0.2825  0.0599  0.4207
15113SOL    HW146760   9.011   5.357   6.019 -0.3098  1.6175  0.4069
15113SOL    HW246761   9.006   5.437   5.891  1.1943  0.2533 -0.5490
15114SOL     OW46762   7.638   2.548   0.722 -0.2962  0.2943  0.2809
15114SOL    HW146763   7.590   2.478   0.766 -0.5485  0.6637  0.5898
15114SOL    HW246764   7.676   2.600   0.793  0.5697  0.0076  0.0490
15115SOL     OW46765   5.437   1.797   6.226 -0.4519  1.1116 -0.3129
15115SOL    HW146766   5.440   1.715   6.276 -2.2569  0.7962 -0.6493
15115SOL    HW246767   5.504   1.786   6.158  0.6995  0.7579  0.8279
15116SOL     OW46768   5.788   3.044   8.550 -0.0851  0.0684 -0.3768
15116SOL    HW146769   5.770   2.966   8.498 -0.0015 -0.1659 -0.0518
15116SOL    HW246770   5.772   3.117   8.490  0.8551 -0.2248 -1.0028
15117SOL     OW46771   5.737   4.099   1.923 -0.2573  0.0774 -0.0460
15117SOL    HW146772   5.706   4.149   1.848  0.1297  1.2898  0.5636
15117SOL    HW246773   5.712   4.008   1.905  3.1134 -0.4142 -3.4689
15118SOL     OW46774   3.605   4.191   7.385  0.0792 -0.1977  0.3904
15118SOL    HW146775   3.688   4.162   7.348 -0.1066 -2.0221  1.3191
15118SOL    HW246776   3.554   4.220   7.309  1.7007  1.4556 -0.1440
15119SOL     OW46777   8.887   7.636   6.133  0.3802  0.3940  0.6461
15119SOL    HW146778   8.940   7.569   6.176  0.6649 -0.6476 -1.2226
15119SOL    HW246779   8.949   7.683   6.077 -0.4319 -0.1299 -0.7423
15120SOL     OW46780   8.541   5.213   7.437  0.0682  0.0171 -0.3438
15120SOL    HW146781   8.502   5.300   7.436  0.6599  0.2919 -0.3085
15120SOL    HW246782   8.514   5.175   7.521 -0.5083  0.0145 -0.5289
15121SOL     OW46783   4.030   5.823   6.749  0.2975 -0.2472  0.1452
15121SOL    HW146784   4.000   5.897   6.697  0.0480 -1.3351 -1.3090
15121SOL    HW246785   4.123   5.815   6.729  0.3785 -0.1778  0.4884
15122SOL     OW46786   8.203   3.867   7.176  0.1927 -0.6653  0.4975
15122SOL    HW146787   8.171   3.782   7.207  1.6059 -0.9604  1.2440
15122SOL    HW246788   8.163   3.931   7.236 -0.2105 -0.8808  0.4582
15123SOL     OW46789   0.645   7.473   2.042 -0.2018 -0.1352 -0.0897
15123SOL    HW146790   0.643   7.539   2.112  1.7394  0.9742 -0.9981
15123SOL    HW246791   0.667   7.391   2.087 -1.6849 -0.0104  0.9291
15124SOL     OW46792   5.632   3.787   2.254  0.2939 -0.0743 -0.1132
15124SOL    HW146793   5.722   3.767   2.231 -0.3280 -0.7880 -2.0866
15124SOL    HW246794   5.580   3.759   2.179 -1.5087  1.0773  0.6159
15125SOL     OW46795   7.644   3.561   6.533  0.3304 -0.4301 -0.3614
15125SOL    HW146796   7.730   3.597   6.512 -0.2162  0.5882 -0.9212
15125SOL    HW246797   7.660   3.468   6.546  1.4143 -0.3698 -1.1013
15126SOL     OW46798   3.193   6.347   6.825  0.3083  0.0518 -0.6931
15126SOL    HW146799   3.192   6.442   6.812  0.5657 -0.1498 -2.4569
15126SOL    HW246800   3.188   6.311   6.737  1.1196 -1.5800 -0.1116
15127SOL     OW46801   7.944   8.792   6.062 -0.5027 -0.4212 -0.1143
15127SOL    HW146802   8.035   8.818   6.045 -1.1285  2.7749  0.7118
15127SOL    HW246803   7.900   8.804   5.978 -0.3243 -1.3441 -0.3521
15128SOL     OW46804   1.129   2.258   2.576 -0.2736 -0.4468 -0.5407
15128SOL    HW146805   1.126   2.224   2.665 -2.4403 -0.2009 -0.4552
15128SOL    HW246806   1.195   2.205   2.531 -0.0780 -1.4273  0.8604
15129SOL     OW46807   6.838   6.994   4.837  0.3079  0.1382  0.4756
15129SOL    HW146808   6.778   7.046   4.784 -0.5827  0.3061  1.6128
15129SOL    HW246809   6.872   7.055   4.902  1.6611  0.0158 -0.0856
15130SOL     OW46810   1.137   7.479   3.697  0.1452 -0.3772  0.4948
15130SOL    HW146811   1.150   7.385   3.694 -0.8131 -0.5289 -2.4091
15130SOL    HW246812   1.219   7.515   3.661 -0.6856 -0.3675 -1.5318
15131SOL     OW46813   8.430   7.214   0.681 -0.6759  0.2189  0.1329
15131SOL    HW146814   8.490   7.193   0.752  0.0351  1.3477 -0.0965
15131SOL    HW246815   8.390   7.298   0.708 -1.8124 -0.2789  0.0645
15132SOL     OW46816   5.302   8.375   6.638 -0.0877  0.4468 -0.0682
15132SOL    HW146817   5.293   8.470   6.645 -0.1963  0.4532 -0.3111
15132SOL    HW246818   5.228   8.347   6.585 -0.3281  0.1690  0.4113
15133SOL     OW46819   7.647   8.689   7.372  0.1489  0.0573 -0.7322
15133SOL    HW146820   7.664   8.597   7.351  0.7689  0.0491 -0.2292
15133SOL    HW246821   7.552   8.694   7.383  0.2325 -0.8399  0.6323
15134SOL     OW46822   0.806   1.520   8.012  1.1066 -0.2633  0.1382
15134SOL    HW146823   0.814   1.463   8.089  1.4159  1.0505  1.1254
15134SOL    HW246824   0.719   1.560   8.021  1.7253  1.0111  0.6277
15135SOL     OW46825   0.530   0.015   8.364 -0.1050 -0.5571  0.2693
15135SOL    HW146826   0.582  -0.047   8.414  1.7834  0.8523  0.1815
15135SOL    HW246827   0.458   0.039   8.422  1.8242  0.7572  2.2686
15136SOL     OW46828   2.897   0.044   8.750  0.2881 -0.3539  0.6830
15136SOL    HW146829   2.892  -0.047   8.720 -1.9308 -1.2590  3.4023
15136SOL    HW246830   2.864   0.095   8.676  1.2320 -1.7642 -0.7700
15137SOL     OW46831   0.552   5.208   3.132  0.2915  0.2977 -0.4008
15137SOL    HW146832   0.491   5.134   3.136 -0.1490  0.6163 -1.0239
15137SOL    HW246833   0.638   5.168   3.123  0.0214 -0.1484 -1.1365
15138SOL     OW46834   8.151   2.431   3.849  0.2504  0.1838 -0.2425
15138SOL    HW146835   8.169   2.516   3.809  0.7973 -0.4558 -1.4296
15138SOL    HW246836   8.220   2.419   3.914  0.2736  0.5677 -0.1946
15139SOL     OW46837   8.971   7.596   3.198  0.4803 -0.2921 -0.0749
15139SOL    HW146838   8.911   7.560   3.262 -2.2991  2.0665 -1.1318
15139SOL    HW246839   8.956   7.545   3.118 -0.7512  0.7486 -0.5420
15140SOL     OW46840   0.320   2.588   1.947  0.1932  0.0912 -0.3478
15140SOL    HW146841   0.397   2.640   1.972  0.6715 -0.3817 -0.7930
15140SOL    HW246842   0.354   2.525   1.883 -0.5164 -0.3085 -0.3404
15141SOL     OW46843   8.886   5.988   0.558  0.2700  0.4577  0.4721
15141SOL    HW146844   8.791   5.987   0.547  0.3778 -0.9940 -0.7727
15141SOL    HW246845   8.917   6.047   0.490  0.4539 -2.6353 -2.4241
15142SOL     OW46846   6.184   0.440   6.264  0.4116 -0.3616  0.3177
15142SOL    HW146847   6.265   0.484   6.239  0.8296 -1.8076 -1.0193
15142SOL    HW246848   6.211   0.377   6.331  0.7477 -1.9554 -1.2387
15143SOL     OW46849   7.073   2.297   2.689  0.5180 -0.1937  0.2591
15143SOL    HW146850   7.104   2.223   2.742  0.8250 -0.2253  0.0432
15143SOL    HW246851   6.989   2.267   2.654  0.2553 -0.1226  0.8235
15144SOL     OW46852   3.866   3.763   5.932 -0.1634  0.0672 -0.0673
15144SOL    HW146853   3.933   3.832   5.939 -0.4791  0.3603  0.1105
15144SOL    HW246854   3.807   3.780   6.005 -1.1671  0.6109 -0.9801
15145SOL     OW46855   8.416   2.330   7.645 -0.4541  0.0114  0.2536
15145SOL    HW146856   8.485   2.322   7.711  0.8673 -1.5593 -1.2223
15145SOL    HW246857   8.463   2.351   7.564 -1.8761  0.3168 -0.5116
15146SOL     OW46858   2.858   5.261   0.593 -0.1865 -0.0171  0.4530
15146SOL    HW146859   2.798   5.191   0.568 -0.6932 -0.5575  2.9783
15146SOL    HW246860   2.878   5.245   0.685  3.8103  0.2132 -0.2083
15147SOL     OW46861   0.817   5.646   8.295 -0.4820 -0.0376  0.0475
15147SOL    HW146862   0.861   5.610   8.217 -0.2442  0.2614  0.0441
15147SOL    HW246863   0.781   5.729   8.265  0.1438  0.3729  0.4225
15148SOL     OW46864   1.578   4.326   6.065  0.4599 -0.2263  0.2233
15148SOL    HW146865   1.578   4.391   5.995  2.0290 -0.1367  0.2695
15148SOL    HW246866   1.619   4.249   6.026 -0.5450 -0.8907  0.4413
15149SOL     OW46867   5.273   3.468   4.915 -0.0067 -0.1568 -0.1895
15149SOL    HW146868   5.258   3.562   4.923  0.5503 -0.1516  1.0661
15149SOL    HW246869   5.353   3.461   4.862  0.6323  0.1407  0.7057
15150SOL     OW46870   7.331   0.335   4.613 -0.3786  0.0778 -0.0313
15150SOL    HW146871   7.275   0.265   4.648  0.0360 -0.5173 -0.5336
15150SOL    HW246872   7.289   0.416   4.641 -0.7500 -0.3769  0.7462
15151SOL     OW46873   2.285   8.690   5.751 -0.2012 -0.2116 -0.1785
15151SOL    HW146874   2.300   8.602   5.717 -2.1222 -1.1261  1.1404
15151SOL    HW246875   2.256   8.740   5.675 -1.0839 -1.2870 -0.5857
15152SOL     OW46876   2.379   3.897   6.514  0.2450 -0.4994 -0.0855
15152SOL    HW146877   2.383   3.851   6.598 -0.0326  0.4075  0.4338
15152SOL    HW246878   2.298   3.947   6.518  1.8424  2.2107  0.5352
15153SOL     OW46879   4.115   0.943   4.209 -0.1438  0.4689 -0.1452
15153SOL    HW146880   4.045   0.878   4.219  0.2310 -0.0427 -0.7169
15153SOL    HW246881   4.130   0.976   4.298 -1.1439  0.6329 -0.0266
15154SOL     OW46882   5.655   1.161   0.154 -0.1794 -0.3419 -0.8218
15154SOL    HW146883   5.714   1.163   0.230 -1.9112 -0.1516  0.5883
15154SOL    HW246884   5.660   1.071   0.122  0.6829 -0.3883 -0.5946
15155SOL     OW46885   7.534   0.045   1.365 -0.4167  0.0134 -0.1438
15155SOL    HW146886   7.508   0.064   1.455  1.2660 -0.5531  0.4880
15155SOL    HW246887   7.504  -0.045   1.350  0.3962 -0.3395  0.2950
15156SOL     OW46888   5.099   6.535   5.490  0.0538  0.0786  0.4024
15156SOL    HW146889   5.051   6.481   5.552  0.0705 -0.0301  0.3193
15156SOL    HW246890   5.074   6.502   5.404 -0.7516  0.8763  0.3076
15157SOL     OW46891   8.636   1.876   4.805  0.1556  0.0191  0.4106
15157SOL    HW146892   8.556   1.828   4.826  0.5564 -0.2500  1.3422
15157SOL    HW246893   8.629   1.893   4.711 -1.1756  0.3267  0.5362
15158SOL     OW46894   8.086   5.126   2.791  0.0311  0.1649  0.0560
15158SOL    HW146895   8.006   5.086   2.756  0.1244 -0.8837  0.9864
15158SOL    HW246896   8.128   5.056   2.841  1.3944  0.7816 -0.1694
15159SOL     OW46897   5.493   4.186   3.145  0.6088 -0.6178  0.0690
15159SOL    HW146898   5.426   4.241   3.184  0.0180 -0.7373 -0.7369
15159SOL    HW246899   5.534   4.241   3.078 -1.2037 -1.6155 -2.0217
15160SOL     OW46900   6.128   0.550   0.121  0.5238 -0.7366 -0.2317
15160SOL    HW146901   6.209   0.560   0.072  0.9813 -0.6031  0.5449
15160SOL    HW246902   6.070   0.502   0.061  0.9527 -0.2814 -1.0232
15161SOL     OW46903   5.557   2.259   1.352  0.6421 -0.3703  0.0738
15161SOL    HW146904   5.600   2.263   1.266  0.6685 -1.1729  0.0377
15161SOL    HW246905   5.504   2.180   1.347  0.3288 -0.1978  0.6588
15162SOL     OW46906   3.849   8.335   1.442 -0.2847  0.0882  0.2740
15162SOL    HW146907   3.798   8.332   1.524  0.6956 -2.4143  0.8703
15162SOL    HW246908   3.938   8.313   1.469  0.5652  1.5677 -1.1772
15163SOL     OW46909   5.455   0.653   7.632  0.0274 -0.2657  0.0170
15163SOL    HW146910   5.537   0.611   7.604 -0.0648 -0.1134 -0.5074
15163SOL    HW246911   5.482   0.718   7.696  0.3033 -0.3127 -0.0502
15164SOL     OW46912   5.192   4.041   8.093  0.3873 -0.5261  0.3963
15164SOL    HW146913   5.102   4.038   8.061  0.1151 -2.7140  1.2044
15164SOL    HW246914   5.236   4.103   8.035 -1.7287  1.0161  0.3063
15165SOL     OW46915   2.912   0.121   2.515 -0.2146 -0.3981  0.4589
15165SOL    HW146916   2.950   0.034   2.501 -0.3060 -0.9268  2.9891
15165SOL    HW246917   2.987   0.176   2.539 -0.4464 -0.3502  1.0861
15166SOL     OW46918   0.861   5.213   2.862 -0.2708 -0.0106 -0.1197
15166SOL    HW146919   0.849   5.153   2.935 -0.0641  1.8408  1.5048
15166SOL    HW246920   0.777   5.213   2.816 -1.0105  0.1581  1.1954
15167SOL     OW46921   3.263   0.688   0.585  0.3657  0.0939 -0.2979
15167SOL    HW146922   3.293   0.752   0.650 -0.7161  0.9569 -0.6254
15167SOL    HW246923   3.326   0.616   0.592  0.9566  0.6942  0.8675
15168SOL     OW46924   7.026   0.889   5.973 -0.4494 -0.4032 -0.1262
15168SOL    HW146925   7.027   0.885   5.877 -0.2001  0.4260 -0.1686
15168SOL    HW246926   6.995   0.803   6.000 -0.3653 -0.7055 -0.9492
15169SOL     OW46927   0.221   6.074   1.935 -0.1214 -0.4783  0.0688
15169SOL    HW146928   0.208   6.116   2.020 -0.4547  0.0538 -0.2419
15169SOL    HW246929   0.200   5.982   1.951  2.6466 -1.0108  1.2720
15170SOL     OW46930   3.272   5.608   4.690  0.3204  0.3338 -0.2141
15170SOL    HW146931   3.341   5.548   4.720  0.2508  1.1524  1.7245
15170SOL    HW246932   3.202   5.551   4.658  1.4882 -0.5251 -1.3526
15171SOL     OW46933   8.996   4.970   4.642  0.0012 -0.0667  0.3900
15171SOL    HW146934   8.928   5.020   4.596 -0.4239  0.3030  1.4078
15171SOL    HW246935   9.060   4.949   4.574 -0.8543  0.0592 -0.4733
15172SOL     OW46936   0.381   9.221   6.551 -0.0694 -0.2303  0.6546
15172SOL    HW146937   0.407   9.287   6.487 -0.3211  1.7551  2.5069
15172SOL    HW246938   0.445   9.230   6.622 -0.3101 -1.7768  1.1036
15173SOL     OW46939   8.203   6.693   3.926 -0.5692 -0.2338  0.0669
15173SOL    HW146940   8.239   6.779   3.947 -2.6411  0.5405  0.6753
15173SOL    HW246941   8.148   6.671   4.001 -0.8776 -1.6351 -0.5387
15174SOL     OW46942   3.684   5.706   7.038  0.2796 -0.4865  0.2962
15174SOL    HW146943   3.731   5.763   7.099  0.1335  0.7987 -0.7407
15174SOL    HW246944   3.749   5.679   6.974  0.2783 -1.2664  0.6110
15175SOL     OW46945   4.654   6.080   8.746 -0.6185  0.3242  0.2643
15175SOL    HW146946   4.621   5.997   8.781 -2.3091  0.7783 -0.1630
15175SOL    HW246947   4.709   6.054   8.672  1.1617 -0.5234  1.8092
15176SOL     OW46948   5.130   1.297   4.810 -0.3603  0.0475 -0.3751
15176SOL    HW146949   5.146   1.281   4.903 -2.5513 -0.5250 -0.0182
15176SOL    HW246950   5.086   1.217   4.780 -1.4352  0.9907 -1.3992
15177SOL     OW46951   1.876   6.942   6.113 -0.8159 -0.7924  0.1758
15177SOL    HW146952   1.846   6.942   6.204 -0.6649 -1.3800  0.2284
15177SOL    HW246953   1.806   6.987   6.065 -2.3186 -3.0147  0.1349
15178SOL     OW46954   7.322   3.566   1.468 -0.2658 -0.2259  0.0162
15178SOL    HW146955   7.323   3.579   1.563  1.3911 -0.5681  0.0929
15178SOL    HW246956   7.415   3.566   1.444 -0.6844  1.0124 -1.7881
15179SOL     OW46957   6.295   1.991   5.510  0.2548  0.3988 -0.3287
15179SOL    HW146958   6.226   2.044   5.470 -0.2782 -0.6602 -0.8462
15179SOL    HW246959   6.321   1.930   5.441 -0.2365 -1.0642  0.7436
15180SOL     OW46960   6.106   6.265   6.235  0.2376  0.3304  0.4677
15180SOL    HW146961   6.192   6.224   6.227  0.5756  1.0791  0.1928
15180SOL    HW246962   6.079   6.281   6.144  0.0267  0.5533  0.5709
15181SOL     OW46963   2.352   2.966   6.172 -0.2853  0.4227  0.1920
15181SOL    HW146964   2.423   3.025   6.146 -0.0364 -0.6190 -1.7038
15181SOL    HW246965   2.395   2.881   6.186 -1.0702 -0.1107 -0.5316
15182SOL     OW46966   5.519   2.271   8.809 -0.5034 -0.2012 -0.1348
15182SOL    HW146967   5.605   2.285   8.849 -0.7983 -1.0814  0.8580
15182SOL    HW246968   5.463   2.338   8.850 -0.5007 -0.2342 -0.0768
15183SOL     OW46969   7.884   3.488   7.852  0.1884 -0.4402  0.0274
15183SOL    HW146970   7.883   3.446   7.938  0.0122  0.6362  0.5836
15183SOL    HW246971   7.801   3.536   7.848  1.5214  2.1692  0.6892
15184SOL     OW46972   1.989   2.737   4.031  0.5782  0.2454  0.0637
15184SOL    HW146973   2.033   2.674   3.976 -0.5577  0.0832 -0.6961
15184SOL    HW246974   1.934   2.684   4.090 -2.5072  0.4477 -2.3625
15185SOL     OW46975   8.966   8.993   8.055  0.2871 -0.5007  0.1690
15185SOL    HW146976   8.923   8.990   7.970  0.8089 -1.0291 -0.0839
15185SOL    HW246977   8.900   8.959   8.116 -0.6779  1.4076  0.2563
15186SOL     OW46978   2.580   3.688   7.808 -0.3218  0.1648 -0.7407
15186SOL    HW146979   2.600   3.718   7.719 -0.5584 -0.4348 -0.9971
15186SOL    HW246980   2.491   3.719   7.825 -1.6423 -2.6218 -2.0244
15187SOL     OW46981   2.545   0.498   4.281 -0.5490 -0.6316  0.0822
15187SOL    HW146982   2.570   0.586   4.253 -0.6903 -0.7310 -0.3725
15187SOL    HW246983   2.450   0.499   4.282 -0.5687 -1.0213 -0.7403
15188SOL     OW46984   2.209   0.788   4.400 -0.2164 -0.1422  0.4710
15188SOL    HW146985   2.226   0.792   4.494  1.7424 -2.0418  0.2721
15188SOL    HW246986   2.114   0.778   4.393 -0.2996 -1.0008  2.3006
15189SOL     OW46987   0.584   4.895   3.587 -0.1113  0.3538  0.1491
15189SOL    HW146988   0.622   4.870   3.503  0.6668  0.7995  0.3502
15189SOL    HW246989   0.622   4.834   3.650 -0.1847  0.4313  0.2708
15190SOL     OW46990   6.117   8.437   2.712 -0.0011  0.2842 -0.4158
15190SOL    HW146991   6.205   8.401   2.706  0.2980  1.0134 -0.5050
15190SOL    HW246992   6.072   8.402   2.635  0.0218 -0.5760 -0.0476
15191SOL     OW46993   7.232   0.126   1.961  0.0453  0.7975 -0.1624
15191SOL    HW146994   7.326   0.129   1.977  0.0561 -0.7584  0.1683
15191SOL    HW246995   7.223   0.156   1.870  1.1145 -1.2052 -0.9900
15192SOL     OW46996   9.204   6.248   3.648 -0.4177 -0.2046  0.0184
15192SOL    HW146997   9.179   6.340   3.661  1.7652  0.2176  1.9610
15192SOL    HW246998   9.250   6.248   3.563  0.2795  0.6981  0.3765
15193SOL     OW46999   5.172   7.897   0.908 -0.5173  0.6130  0.2891
15193SOL    HW147000   5.224   7.915   0.986 -1.4585  0.9950  0.8468
15193SOL    HW247001   5.148   7.984   0.875 -1.2317  0.4452  0.3448
15194SOL     OW47002   8.967   1.135   3.685 -0.4488 -0.1931  0.0081
15194SOL    HW147003   8.903   1.153   3.754  0.4940 -0.2698  0.9429
15194SOL    HW247004   8.952   1.202   3.619  0.3789  1.6126  1.5498
15195SOL     OW47005   7.144   7.515   8.679  0.1047  0.6046  0.0571
15195SOL    HW147006   7.235   7.522   8.708  0.6534  0.1268 -1.4252
15195SOL    HW247007   7.140   7.430   8.634 -0.7264  1.1642 -0.9880
15196SOL     OW47008   8.212   6.281   7.624  0.4882  0.1351 -0.2703
15196SOL    HW147009   8.234   6.217   7.692  1.6382  1.6212  0.8610
15196SOL    HW247010   8.225   6.366   7.667 -0.3013  1.1393 -1.9047
15197SOL     OW47011   2.566   8.511   1.722  0.4250 -0.7544  0.2185
15197SOL    HW147012   2.618   8.568   1.665  2.2968 -2.0416  0.5699
15197SOL    HW247013   2.500   8.570   1.761  2.0075  1.0831  0.2542
15198SOL     OW47014   3.666   5.851   4.882 -0.3323 -0.3008  0.6599
15198SOL    HW147015   3.741   5.898   4.846 -1.6929  0.8727 -0.8061
15198SOL    HW247016   3.691   5.759   4.879 -0.0633 -0.2278 -2.7747
15199SOL     OW47017   1.359   6.212   0.622  0.1860  0.7076  0.2533
15199SOL    HW147018   1.295   6.280   0.644 -0.1769  0.4117  0.1100
15199SOL    HW247019   1.335   6.138   0.677  0.9376  0.8843  0.8361
15200SOL     OW47020   0.933   6.199   9.217  0.1561 -0.1400  0.2229
15200SOL    HW147021   0.854   6.234   9.258  0.0637 -0.8966  0.7317
15200SOL    HW247022   0.902   6.152   9.140 -0.0991 -1.7161  1.2315
15201SOL     OW47023   5.733   5.713   2.430 -0.2290 -0.0032 -0.3342
15201SOL    HW147024   5.814   5.662   2.426  0.7381  1.4323  0.2967
15201SOL    HW247025   5.761   5.801   2.454 -2.0669  0.3119  0.8387
15202SOL     OW47026   5.147   2.924   9.142 -0.0631 -0.5867 -0.0952
15202SOL    HW147027   5.185   2.996   9.193 -0.6061  0.8141 -1.5819
15202SOL    HW247028   5.199   2.847   9.166  1.9347  0.7159 -0.0503
15203SOL     OW47029   0.345   5.218   7.923 -0.0712 -0.4188 -0.3606
15203SOL    HW147030   0.363   5.145   7.864 -0.9718 -1.2117  0.3053
15203SOL    HW247031   0.251   5.232   7.917  0.2445  1.6829 -1.5668
15204SOL     OW47032   3.336   2.427   1.620 -0.0224 -0.6929  0.1480
15204SOL    HW147033   3.412   2.368   1.628  0.9275  0.6040  1.1321
15204SOL    HW247034   3.359   2.485   1.547 -1.3822 -2.0571 -1.4697
15205SOL     OW47035   0.460   3.005   8.153 -0.3283 -0.6596 -0.3928
15205SOL    HW147036   0.407   2.983   8.076  0.8081 -1.6475 -0.9422
15205SOL    HW247037   0.429   2.946   8.221  0.1471 -1.3655 -0.7659
15206SOL     OW47038   5.330   7.299   9.258 -0.2704 -0.2091 -0.0653
15206SOL    HW147039   5.314   7.342   9.174  0.2070 -2.4166 -1.3530
15206SOL    HW247040   5.419   7.325   9.281  0.4227 -1.3050 -1.3769
15207SOL     OW47041   4.765   3.418   1.448  0.0923  0.0347  0.5598
15207SOL    HW147042   4.810   3.333   1.443  1.4171  0.7432 -0.3174
15207SOL    HW247043   4.741   3.427   1.540 -0.5960 -1.5336  0.5645
15208SOL     OW47044   7.240   0.300   4.052 -0.0642  0.6622  0.8933
15208SOL    HW147045   7.159   0.256   4.026  0.0471  0.9147  0.0968
15208SOL    HW247046   7.250   0.280   4.145 -0.9852  0.5398  0.9719
15209SOL     OW47047   5.765   5.632   1.547 -0.5365 -0.2413 -0.1438
15209SOL    HW147048   5.840   5.665   1.498  0.4836  0.0247  1.5049
15209SOL    HW247049   5.804   5.576   1.615 -1.9806 -1.7283 -0.4779
15210SOL     OW47050   4.060   4.830   0.206  0.0582  0.0362  0.1734
15210SOL    HW147051   4.024   4.746   0.236 -1.4908 -0.0734 -1.7747
15210SOL    HW247052   3.992   4.894   0.228  1.0098  0.7384  1.1838
15211SOL     OW47053   3.423   2.897   8.993 -0.3606 -0.0113  0.0895
15211SOL    HW147054   3.497   2.845   8.964 -1.3097 -1.8171  0.7859
15211SOL    HW247055   3.346   2.847   8.967 -1.2736 -0.0124  2.5601
15212SOL     OW47056   2.058   4.070   5.826 -0.2284 -0.0235  0.1064
15212SOL    HW147057   2.119   4.043   5.894 -1.5164 -0.0819  1.2605
15212SOL    HW247058   2.009   3.991   5.804  0.6858 -0.2044 -1.4923
15213SOL     OW47059   2.000   6.343   3.124  0.1732  0.8044 -0.3808
15213SOL    HW147060   2.000   6.397   3.203 -0.7544  0.4035 -0.0963
15213SOL    HW247061   2.087   6.356   3.086  0.4466  1.4035  0.4271
15214SOL     OW47062   0.577   2.786   1.314 -0.3252  0.0545 -0.0835
15214SOL    HW147063   0.639   2.774   1.242 -0.0655 -0.1971  0.1813
15214SOL    HW247064   0.629   2.825   1.384 -0.0216 -1.7573  0.7741
15215SOL     OW47065   8.779   7.578   7.045  0.0822 -0.2644 -0.4771
15215SOL    HW147066   8.815   7.538   7.124 -1.8720 -0.3479  0.4158
15215SOL    HW247067   8.743   7.661   7.074 -0.3238 -0.1236 -1.3418
15216SOL     OW47068   4.406   2.036   4.349 -0.3256 -0.5757  0.4362
15216SOL    HW147069   4.323   2.071   4.317  0.2321 -0.5796 -1.0737
15216SOL    HW247070   4.384   1.951   4.387 -0.9180 -0.8895 -0.5917
15217SOL     OW47071   0.974   2.715   0.974  0.4269  0.5274  0.2498
15217SOL    HW147072   0.905   2.780   0.965 -0.5666 -0.1978  2.1969
15217SOL    HW247073   1.055   2.764   0.961 -0.3659  1.3527 -2.3296
15218SOL     OW47074   8.397   6.209   1.655 -0.0546 -0.4408 -0.8268
15218SOL    HW147075   8.490   6.186   1.662  0.8512  2.5625 -1.7935
15218SOL    HW247076   8.386   6.280   1.718 -1.9949 -1.3769 -0.0364
15219SOL     OW47077   0.112   0.572   6.533  0.2015 -0.0758 -0.1002
15219SOL    HW147078   0.143   0.660   6.511  1.2064  0.0279  1.5581
15219SOL    HW247079   0.054   0.585   6.607 -0.9945 -0.6635 -0.9070
15220SOL     OW47080   1.685   0.600   2.735 -0.1352 -0.0838 -0.0312
15220SOL    HW147081   1.605   0.584   2.685 -0.7992 -0.0462  0.9947
15220SOL    HW247082   1.679   0.692   2.761 -0.3422 -0.3844  1.0319
15221SOL     OW47083   4.319   8.218   5.810  0.3170 -1.1934 -0.0588
15221SOL    HW147084   4.350   8.303   5.840  1.3846 -1.5156 -0.2033
15221SOL    HW247085   4.265   8.185   5.881  0.9500 -0.9536  0.5393
15222SOL     OW47086   4.965   9.270   1.796 -0.2095 -0.1046  0.3229
15222SOL    HW147087   4.983   9.292   1.888 -0.3232 -0.0802  0.3400
15222SOL    HW247088   4.892   9.209   1.801 -1.4849  1.3516  0.1557
15223SOL     OW47089   0.112   7.178   5.711  0.4838 -0.3466 -0.0452
15223SOL    HW147090   0.035   7.126   5.691  0.9477 -2.1075  2.2399
15223SOL    HW247091   0.171   7.164   5.637 -1.0657  0.4575 -1.4783
15224SOL     OW47092   8.546   8.187   3.081  0.0774  0.1518 -0.0244
15224SOL    HW147093   8.452   8.203   3.085 -0.0401 -0.6373  0.4280
15224SOL    HW247094   8.555   8.105   3.032  0.4316 -0.6452  1.3392
15225SOL     OW47095   3.400   5.515   8.886 -0.7813  0.0141  0.3795
15225SOL    HW147096   3.386   5.443   8.947 -1.2338 -0.0394  0.2119
15225SOL    HW247097   3.324   5.514   8.828 -1.5541  1.5588  1.2992
15226SOL     OW47098   2.071   2.843   6.475  0.0886  0.0828  0.2703
15226SOL    HW147099   1.983   2.838   6.511 -0.3543  1.9551 -0.4320
15226SOL    HW247100   2.059   2.844   6.380  0.8499  0.4498  0.1647
15227SOL     OW47101   8.613   5.000   8.823 -0.3378 -0.4411  0.0861
15227SOL    HW147102   8.535   5.004   8.878 -0.2154 -0.4048  0.2547
15227SOL    HW247103   8.628   5.091   8.796  1.4525  0.1089  2.5618
15228SOL     OW47104   4.738   8.547   7.555 -0.0582 -0.2415  0.0475
15228SOL    HW147105   4.825   8.519   7.582 -0.1675 -1.4914 -0.8229
15228SOL    HW247106   4.722   8.627   7.605  1.1481 -0.5737  1.0098
15229SOL     OW47107   7.774   6.403   7.094 -0.5674 -0.4292 -0.0118
15229SOL    HW147108   7.796   6.474   7.033 -1.0990 -0.8469 -0.7054
15229SOL    HW247109   7.748   6.330   7.038 -1.4925 -0.6865  0.7142
15230SOL     OW47110   0.897   7.443   9.137 -0.1367  0.3944 -0.1825
15230SOL    HW147111   0.855   7.380   9.195  0.1757 -0.7098 -1.1148
15230SOL    HW247112   0.967   7.482   9.190 -0.5294  0.1881  0.5004
15231SOL     OW47113   7.185   1.198   7.800 -0.2006 -0.1676  0.2897
15231SOL    HW147114   7.186   1.211   7.705  1.5634 -2.0177  0.0006
15231SOL    HW247115   7.255   1.255   7.832 -0.0437 -0.3920  0.3456
15232SOL     OW47116   4.650   6.590   0.909  0.2291  0.1887  0.3171
15232SOL    HW147117   4.583   6.554   0.966 -0.4307 -0.3734 -0.7909
15232SOL    HW247118   4.732   6.573   0.955 -0.3306  0.4288  1.4472
15233SOL     OW47119   6.397   1.177   2.566 -0.7357 -0.1531  0.2673
15233SOL    HW147120   6.425   1.150   2.479 -0.8557  0.9526 -0.1278
15233SOL    HW247121   6.456   1.131   2.626  0.2702  0.1710 -0.4581
15234SOL     OW47122   4.619   0.169   0.066  0.2384 -0.1396  0.3003
15234SOL    HW147123   4.599   0.227   0.140 -0.7299 -0.0123 -0.0509
15234SOL    HW247124   4.655   0.228  -0.001 -2.1522  0.3651 -0.6312
15235SOL     OW47125   6.127   3.803   8.932 -0.7298 -0.1784 -0.4214
15235SOL    HW147126   6.217   3.835   8.934 -0.7027  0.1496 -3.1511
15235SOL    HW247127   6.082   3.852   9.001  0.9205  0.3916  0.2934
15236SOL     OW47128   1.950   2.274   5.423  0.0600 -0.3135 -0.3365
15236SOL    HW147129   1.885   2.344   5.433  1.0158  0.5254  0.2303
15236SOL    HW247130   1.979   2.282   5.333  1.0435  0.8529  0.0515
15237SOL     OW47131   5.809   7.959   3.020  0.5817 -1.0737 -0.0157
15237SOL    HW147132   5.822   7.958   2.925 -0.3104 -0.6226 -0.1451
15237SOL    HW247133   5.805   8.052   3.043 -5.4088 -0.8627 -0.4617
15238SOL     OW47134   2.010   0.174   2.243  0.1325 -0.5961  0.3246
15238SOL    HW147135   2.040   0.087   2.269  0.4411 -0.4256  0.5341
15238SOL    HW247136   2.090   0.224   2.227 -0.0180 -0.0170  1.2990
15239SOL     OW47137   5.365   4.058   1.328 -0.1278  0.6494  0.9764
15239SOL    HW147138   5.381   3.970   1.363  1.4847  1.1000  1.4585
15239SOL    HW247139   5.297   4.045   1.262 -0.3790 -0.8556  1.4894
15240SOL     OW47140   4.408   3.433   6.660  0.5716 -0.5165 -0.3897
15240SOL    HW147141   4.489   3.467   6.622  0.4194  1.0854  0.6322
15240SOL    HW247142   4.343   3.440   6.590  0.7200  0.6828 -0.4302
15241SOL     OW47143   1.006   6.910   0.332 -0.1946 -0.0433 -0.0530
15241SOL    HW147144   0.919   6.946   0.344 -0.8057 -0.9610 -1.4431
15241SOL    HW247145   1.049   6.920   0.417 -1.1783  1.6217  0.2775
15242SOL     OW47146   7.392   9.090   9.157  0.1504 -0.0227 -0.0013
15242SOL    HW147147   7.425   9.065   9.071 -0.5937  2.6881 -1.1887
15242SOL    HW247148   7.467   9.079   9.216  1.2511 -0.1519 -1.3719
15243SOL     OW47149   5.570   5.714   5.949  0.1684 -0.1837  0.5741
15243SOL    HW147150   5.594   5.694   5.859 -1.7144  1.5223 -0.4032
15243SOL    HW247151   5.557   5.629   5.990 -0.1339 -1.0139 -1.1359
15244SOL     OW47152   0.046   1.514   6.606 -0.2162 -0.1267  0.2873
15244SOL    HW147153  -0.038   1.496   6.564  0.5833  0.9250 -1.9673
15244SOL    HW247154   0.066   1.604   6.581  0.8815  0.1820  2.0886
15245SOL     OW47155   8.009   6.668   1.097 -0.9437  0.6134 -0.0767
15245SOL    HW147156   8.052   6.713   1.024  1.0236 -1.8091 -0.5253
15245SOL    HW247157   7.916   6.673   1.075 -0.5004  1.0670 -2.0966
15246SOL     OW47158   8.773   2.739   4.862 -0.0504  0.0525  0.4895
15246SOL    HW147159   8.721   2.737   4.943  1.4646 -0.0195  1.4921
15246SOL    HW247160   8.759   2.653   4.823 -2.1217  0.6466 -0.2484
15247SOL     OW47161   1.565   4.015   6.434  0.3389  0.5708  0.6081
15247SOL    HW147162   1.562   3.949   6.503 -1.2501  1.8070  1.7876
15247SOL    HW247163   1.610   4.090   6.473  1.2551  0.5807 -0.3947
15248SOL     OW47164   8.983   8.866   7.770 -0.4797  0.0812 -0.1060
15248SOL    HW147165   8.929   8.914   7.708 -2.7826  1.4587  2.7394
15248SOL    HW247166   8.947   8.777   7.770 -1.3325  0.4243  0.2048
15249SOL     OW47167   2.718   5.459   4.372 -0.1738  0.5615 -0.8975
15249SOL    HW147168   2.632   5.440   4.409  0.0554  0.3380 -0.4787
15249SOL    HW247169   2.720   5.555   4.367 -0.5330  0.5629 -1.1270
15250SOL     OW47170   3.504   4.593   4.975  0.2695  0.4703 -0.1953
15250SOL    HW147171   3.516   4.659   4.907  1.6888 -0.5191 -0.9417
15250SOL    HW247172   3.433   4.628   5.029 -0.1219  1.8185 -1.5054
15251SOL     OW47173   2.050   1.910   8.894  0.3728 -0.4839 -0.1655
15251SOL    HW147174   2.020   1.912   8.804  1.0946 -0.2132 -0.4077
15251SOL    HW247175   2.134   1.863   8.890  1.4178  1.2629  0.0344
15252SOL     OW47176   7.656   7.061   7.487 -0.4984 -0.3048  0.0518
15252SOL    HW147177   7.731   7.084   7.431 -1.5891 -0.4201 -1.5048
15252SOL    HW247178   7.682   6.979   7.529  0.5124  0.0065  0.0693
15253SOL     OW47179   9.094   4.179   3.008  0.3362 -0.1643  0.3841
15253SOL    HW147180   9.080   4.262   2.963  0.4572 -0.3890 -0.0791
15253SOL    HW247181   9.121   4.204   3.096 -0.3771  0.2777  0.4864
15254SOL     OW47182   3.896   1.226   9.139  0.0896 -0.2293  0.6622
15254SOL    HW147183   3.971   1.264   9.093 -0.7412 -0.0985 -0.6520
15254SOL    HW247184   3.899   1.133   9.117 -1.5329  0.1529 -1.5883
15255SOL     OW47185   7.025   3.183   7.586  0.4533 -0.0567  0.3787
15255SOL    HW147186   7.116   3.155   7.573  0.4407  0.2360 -0.3842
15255SOL    HW247187   7.030   3.278   7.597  0.1419  0.0931 -0.7314
15256SOL     OW47188   5.879   4.451   4.800  0.2395 -0.4755  0.2365
15256SOL    HW147189   5.783   4.456   4.799  0.2811  1.0021  0.8679
15256SOL    HW247190   5.906   4.517   4.864  1.6943 -0.6384 -0.1711
15257SOL     OW47191   7.622   7.098   8.984 -0.6696 -0.2627  0.4419
15257SOL    HW147192   7.601   7.018   9.032  2.5278 -1.2189  0.5118
15257SOL    HW247193   7.691   7.140   9.037 -1.5292  2.0341 -0.1279
15258SOL     OW47194   8.540   8.538   5.919  0.2443 -0.1783 -0.1004
15258SOL    HW147195   8.604   8.590   5.871  0.5343  1.3393  1.8290
15258SOL    HW247196   8.544   8.571   6.009 -2.1817 -1.0467  0.4065
15259SOL     OW47197   1.909   3.276   8.410  0.0380  1.1544 -0.0628
15259SOL    HW147198   1.823   3.248   8.378  0.0660  1.3342 -0.2929
15259SOL    HW247199   1.949   3.322   8.336  1.0543 -0.4509 -0.5623
15260SOL     OW47200   4.475   1.650   3.652  0.1881 -0.0472  0.6103
15260SOL    HW147201   4.417   1.581   3.622 -1.5291  0.9113  1.5907
15260SOL    HW247202   4.468   1.719   3.586  0.0601  0.1439  0.8204
15261SOL     OW47203   3.344   4.300   8.003 -0.6742 -0.0872  0.2165
15261SOL    HW147204   3.388   4.228   7.958 -1.6057 -0.6976  0.2776
15261SOL    HW247205   3.415   4.347   8.047 -0.0682 -0.9849  0.2183
15262SOL     OW47206   8.459   5.002   8.234  0.6600 -0.7550  0.2278
15262SOL    HW147207   8.436   4.915   8.200  0.6074 -0.6755  0.0614
15262SOL    HW247208   8.544   5.022   8.194  0.7018 -0.7573  0.3157
15263SOL     OW47209   7.390   5.000   3.270  0.3365  0.0353  0.2718
15263SOL    HW147210   7.465   4.949   3.300  0.0499 -0.8372 -0.4788
15263SOL    HW247211   7.315   4.963   3.317  0.1927  0.0481  0.0549
15264SOL     OW47212   4.339   8.371   4.306  0.4823 -0.4972  0.0433
15264SOL    HW147213   4.348   8.275   4.305  0.1009 -0.5450 -1.0047
15264SOL    HW247214   4.286   8.389   4.383 -1.0284 -1.3275 -0.7442
15265SOL     OW47215   6.509   2.466   5.626 -0.1430 -0.4985  0.2337
15265SOL    HW147216   6.597   2.461   5.588  0.3525 -0.1451  1.2849
15265SOL    HW247217   6.466   2.537   5.579  0.7923  0.5770  0.9494
15266SOL     OW47218   0.920   1.595   1.381 -0.2152 -0.2300 -0.1995
15266SOL    HW147219   0.992   1.654   1.357 -0.1639 -0.2389 -0.0677
15266SOL    HW247220   0.928   1.585   1.475  0.7175 -1.6508 -0.3919
15267SOL     OW47221   8.307   4.456   2.091 -0.7785 -0.8429 -0.0537
15267SOL    HW147222   8.391   4.433   2.052 -1.4345 -1.5792 -1.0945
15267SOL    HW247223   8.277   4.376   2.133 -1.0591 -0.6480  0.1229
15268SOL     OW47224   5.390   1.432   1.446  0.4267  0.2812  0.1372
15268SOL    HW147225   5.414   1.427   1.539 -0.3360 -0.3220  0.3172
15268SOL    HW247226   5.308   1.482   1.446  0.5626  0.5039 -0.2418
15269SOL     OW47227   4.812   8.573   5.120  0.1302 -0.2112  0.0800
15269SOL    HW147228   4.769   8.655   5.097  0.6485 -0.1927 -0.8612
15269SOL    HW247229   4.776   8.509   5.059  0.2459 -0.5351  0.3480
15270SOL     OW47230   1.207   3.547   4.374 -0.5650 -0.1630  0.1185
15270SOL    HW147231   1.211   3.641   4.357 -0.2578 -0.0589  0.7153
15270SOL    HW247232   1.115   3.523   4.363 -0.7175  0.2930  0.3820
15271SOL     OW47233   1.715   2.073   7.172 -0.7517  0.2329 -0.0866
15271SOL    HW147234   1.657   2.076   7.248 -2.3574  0.6128 -1.2857
15271SOL    HW247235   1.677   2.006   7.114 -0.7756  1.3935 -1.4713
15272SOL     OW47236   1.174   3.132   5.463  0.5924 -0.2980  0.3107
15272SOL    HW147237   1.221   3.121   5.380  1.0655 -0.4055  0.5942
15272SOL    HW247238   1.242   3.151   5.527  0.2362 -0.3248  0.7002
15273SOL     OW47239   3.313   2.448   5.811 -0.1461 -0.5503 -0.0218
15273SOL    HW147240   3.388   2.390   5.827 -0.3175 -0.4411  1.3227
15273SOL    HW247241   3.339   2.532   5.849 -0.6088 -0.2631 -0.3333
15274SOL     OW47242   5.119   1.038   7.884 -0.3900 -0.4931 -0.3940
15274SOL    HW147243   5.086   1.089   7.809  1.4780  0.3010 -0.7223
15274SOL    HW247244   5.070   1.072   7.959  0.2073  1.2210 -0.7378
15275SOL     OW47245   3.499   3.359   6.461 -0.3181 -0.0443 -0.0227
15275SOL    HW147246   3.511   3.267   6.436 -0.1625  0.3082 -1.3063
15275SOL    HW247247   3.555   3.371   6.537  0.6437 -0.6881 -0.6166
15276SOL     OW47248   0.409   8.871   2.529  0.1714 -0.2957  0.4085
15276SOL    HW147249   0.360   8.789   2.531  0.2691 -0.3416  1.3110
15276SOL    HW247250   0.501   8.845   2.524  0.2443 -0.2643  1.4410
15277SOL     OW47251   3.147   6.768   2.164 -0.4019  0.4450  0.2088
15277SOL    HW147252   3.191   6.750   2.247 -1.7505 -1.2083  0.6376
15277SOL    HW247253   3.056   6.741   2.179 -0.9693  1.3246 -1.4206
15278SOL     OW47254   8.961   7.861   5.016 -0.1341 -0.2617 -0.1491
15278SOL    HW147255   8.994   7.816   5.093 -1.7049 -2.0018 -0.4223
15278SOL    HW247256   8.868   7.878   5.035 -0.0310  1.2010 -0.8166
15279SOL     OW47257   3.159   8.454   7.112  0.1071  0.7968  0.1702
15279SOL    HW147258   3.129   8.453   7.022  2.1051  2.2880 -0.5973
15279SOL    HW247259   3.223   8.383   7.117  0.1876  0.8806  0.3444
15280SOL     OW47260   5.849   8.231   3.066 -0.3973 -0.3483 -0.6003
15280SOL    HW147261   5.864   8.243   3.160  3.1756 -0.9985 -0.9480
15280SOL    HW247262   5.896   8.304   3.026 -0.0137 -1.2950 -1.9217
15281SOL     OW47263   0.180   2.422   3.356  0.0153 -0.3144  0.4719
15281SOL    HW147264   0.138   2.336   3.365 -0.6291  0.0378  1.0075
15281SOL    HW247265   0.193   2.451   3.446  4.2350 -1.6778  0.5072
15282SOL     OW47266   4.011   1.116   1.403  0.1376  0.3143 -0.1560
15282SOL    HW147267   4.048   1.069   1.328  1.8294 -0.0013  0.8277
15282SOL    HW247268   3.960   1.049   1.450 -0.5550  0.4067 -0.7519
15283SOL     OW47269   6.433   2.248   4.661  0.1056 -0.0973 -0.1143
15283SOL    HW147270   6.488   2.188   4.711  1.7033  0.6355 -0.8971
15283SOL    HW247271   6.415   2.202   4.579  0.7188  0.1826 -0.4144
15284SOL     OW47272   7.759   2.984   4.623 -0.3104  0.1845 -0.3679
15284SOL    HW147273   7.844   3.026   4.612  0.7756 -1.4915  1.1157
15284SOL    HW247274   7.697   3.047   4.586  1.3951  2.1581 -0.1063
15285SOL     OW47275   0.117   1.764   4.285  0.0280  0.1398 -0.2003
15285SOL    HW147276   0.033   1.748   4.327  1.0073 -2.1020  1.0998
15285SOL    HW247277   0.159   1.831   4.338  0.2918 -0.9801  1.0523
15286SOL     OW47278   6.572   6.277   1.446 -0.0517 -0.1819 -0.7713
15286SOL    HW147279   6.525   6.290   1.363  0.0096  0.0920 -0.7647
15286SOL    HW247280   6.618   6.195   1.435  0.8423  0.3904 -1.4352
15287SOL     OW47281   3.688   7.552   8.986  0.5429  0.2772 -0.6388
15287SOL    HW147282   3.600   7.519   9.005  0.5165  0.6226 -0.1264
15287SOL    HW247283   3.742   7.473   8.979 -0.0991 -0.0302 -2.6323
15288SOL     OW47284   2.458   4.193   8.600 -0.5119 -0.3415  0.4064
15288SOL    HW147285   2.378   4.141   8.607 -0.9571  0.2160 -0.3938
15288SOL    HW247286   2.465   4.238   8.685 -1.3271 -0.0067  0.3023
15289SOL     OW47287   3.180   4.017   3.416 -0.1698 -0.0367 -0.4601
15289SOL    HW147288   3.176   4.014   3.320 -0.1731 -0.6824 -0.4435
15289SOL    HW247289   3.269   3.991   3.437 -0.4443 -0.8251 -0.2553
15290SOL     OW47290   8.079   2.770   3.311 -0.5247 -0.4611  0.0008
15290SOL    HW147291   8.098   2.787   3.404 -3.0945 -1.1672  0.7285
15290SOL    HW247292   8.164   2.745   3.274  0.4603 -0.7903  2.2956
15291SOL     OW47293   9.126   6.724   2.850 -0.4030  0.3248  0.1251
15291SOL    HW147294   9.036   6.753   2.834  0.7141  2.3879 -4.0179
15291SOL    HW247295   9.149   6.673   2.772  2.2549  0.5665  0.6526
15292SOL     OW47296   1.444   3.723   4.295 -0.1848  0.2593 -0.2006
15292SOL    HW147297   1.386   3.660   4.340 -0.2586  1.8581  2.1331
15292SOL    HW247298   1.532   3.693   4.317 -0.1845  0.0453 -0.4844
15293SOL     OW47299   5.299   0.820   4.574 -0.2258  0.0922 -0.0073
15293SOL    HW147300   5.293   0.787   4.663 -0.7656 -2.9584 -1.0366
15293SOL    HW247301   5.378   0.779   4.538 -2.0330 -1.9399 -1.9943
15294SOL     OW47302   0.356   5.637   0.541 -0.1199  0.0585 -0.0462
15294SOL    HW147303   0.301   5.623   0.618  0.8287  1.0390  0.8256
15294SOL    HW247304   0.398   5.552   0.526 -0.2614 -0.1176  0.5416
15295SOL     OW47305   6.812   3.176   0.847 -0.4792  0.4035 -0.1208
15295SOL    HW147306   6.888   3.233   0.838  0.2477 -0.0617  2.4076
15295SOL    HW247307   6.849   3.087   0.850 -1.0513  0.1815  1.2992
15296SOL     OW47308   8.945   6.552   7.245  0.1010  0.1031  0.4454
15296SOL    HW147309   8.958   6.632   7.295 -0.2852  0.5778 -0.1904
15296SOL    HW247310   9.015   6.494   7.273  0.5010  0.7359  0.7706
15297SOL     OW47311   9.122   8.429   0.250  0.7025 -0.0577  0.5535
15297SOL    HW147312   9.157   8.349   0.289  0.2255  0.0402  1.1987
15297SOL    HW247313   9.027   8.418   0.253  0.6470 -0.3444 -1.2142
15298SOL     OW47314   0.336   6.512   3.929  0.1164 -0.0779  0.4593
15298SOL    HW147315   0.292   6.581   3.979  0.6689  1.9562 -1.6944
15298SOL    HW247316   0.427   6.518   3.958  0.1455  0.0186  0.3465
15299SOL     OW47317   6.247   1.804   7.461 -0.3143  0.0840 -0.0427
15299SOL    HW147318   6.297   1.766   7.389  0.3764  1.0030 -0.0558
15299SOL    HW247319   6.307   1.866   7.503  0.0180 -1.8755  2.6201
15300SOL     OW47320   3.465   4.722   3.656 -0.3190 -0.0514 -0.2140
15300SOL    HW147321   3.417   4.803   3.644  0.5187  0.3160 -1.2106
15300SOL    HW247322   3.550   4.737   3.614  0.1665 -1.1507  0.3071
15301SOL     OW47323   2.978   8.504   6.400  0.3506 -0.0541  0.4530
15301SOL    HW147324   3.025   8.424   6.376  1.6121  0.3235  1.5487
15301SOL    HW247325   2.951   8.542   6.316 -0.4867 -1.7213 -0.0777
15302SOL     OW47326   5.865   8.438   6.218  0.0150 -0.2547  0.1427
15302SOL    HW147327   5.853   8.375   6.289 -0.5767 -0.4952 -0.1684
15302SOL    HW247328   5.788   8.495   6.223 -0.5252 -0.8693 -0.9084
15303SOL     OW47329   7.034   3.917   4.654 -0.4661 -0.5427 -0.5646
15303SOL    HW147330   7.049   4.004   4.690  0.3515 -0.3540 -1.3222
15303SOL    HW247331   6.969   3.878   4.712 -1.6321  0.9515 -0.8099
15304SOL     OW47332   2.681   8.363   2.398  0.0886 -0.0843 -0.0886
15304SOL    HW147333   2.769   8.398   2.386 -0.4059  0.8206 -1.2378
15304SOL    HW247334   2.644   8.360   2.309 -1.1826 -0.0583  0.4184
15305SOL     OW47335   5.019   7.146   7.667 -0.3960  0.3879  0.2133
15305SOL    HW147336   4.946   7.094   7.635 -0.7457  0.1986  1.2856
15305SOL    HW247337   5.074   7.084   7.714  1.2374  0.2324 -1.7551
15306SOL     OW47338   2.051   5.738   4.449 -0.1138 -0.5084  0.1892
15306SOL    HW147339   2.069   5.817   4.398 -0.7380 -0.4439  0.0681
15306SOL    HW247340   1.956   5.728   4.447 -0.1200 -0.7346  0.9965
15307SOL     OW47341   0.564   4.410   6.270  0.1281  0.1764  0.2840
15307SOL    HW147342   0.645   4.446   6.306 -0.8870  2.0082  0.8592
15307SOL    HW247343   0.568   4.317   6.289  0.4251  0.7552  3.7107
15308SOL     OW47344   7.927   7.037   5.194 -0.4717  0.2879 -0.5174
15308SOL    HW147345   7.941   7.086   5.113 -0.7852  0.3207 -0.5520
15308SOL    HW247346   7.888   7.100   5.254 -1.4261 -0.0631 -0.7489
15309SOL     OW47347   7.575   2.211   5.548  0.3401 -0.1991 -0.1027
15309SOL    HW147348   7.535   2.290   5.512  0.0087 -0.4435 -0.2741
15309SOL    HW247349   7.528   2.139   5.506 -0.2862 -0.4934  1.0830
15310SOL     OW47350   6.391   5.930   7.198  0.1286 -0.5741 -0.1712
15310SOL    HW147351   6.379   5.928   7.293  0.1735  0.1901 -0.1461
15310SOL    HW247352   6.383   6.022   7.174 -2.7300 -1.0170 -1.2734
15311SOL     OW47353   8.296   3.017   4.470  0.5928  0.0843  0.4787
15311SOL    HW147354   8.248   3.071   4.533  1.1898  1.6946 -0.4024
15311SOL    HW247355   8.385   3.013   4.504  1.1485  1.7317 -0.6721
15312SOL     OW47356   4.381   3.815   1.567  0.3634  0.3059  0.3596
15312SOL    HW147357   4.378   3.865   1.486 -0.9073 -0.4753 -0.0964
15312SOL    HW247358   4.293   3.779   1.577  1.4332 -2.6713  0.1270
15313SOL     OW47359   8.222   7.484   0.316  0.2800  0.1340 -0.1406
15313SOL    HW147360   8.292   7.550   0.316  0.5458 -0.1356  1.0409
15313SOL    HW247361   8.159   7.516   0.380 -0.7718  0.4447 -1.3057
15314SOL     OW47362   1.254   0.409   1.255 -0.0515 -0.2314 -0.6195
15314SOL    HW147363   1.262   0.340   1.188 -1.2851  1.4199 -2.5801
15314SOL    HW247364   1.219   0.484   1.208  0.3009  1.4655  1.6585
15315SOL     OW47365   4.099   2.833   3.570  0.1382 -0.1714 -0.0520
15315SOL    HW147366   4.186   2.859   3.602  0.4353 -0.4172 -0.6420
15315SOL    HW247367   4.106   2.739   3.554 -0.0298 -0.0814 -0.7134
15316SOL     OW47368   9.051   8.786   1.262  0.3372 -0.6045 -0.3933
15316SOL    HW147369   9.089   8.702   1.287  0.2473 -0.1435  1.4495
15316SOL    HW247370   9.127   8.841   1.243  0.4741 -0.6155  0.1044
15317SOL     OW47371   8.324   1.831   8.384  0.0537 -0.2679 -0.1617
15317SOL    HW147372   8.353   1.877   8.305  0.5721 -2.2015 -1.1538
15317SOL    HW247373   8.310   1.901   8.448 -0.1892  1.3415 -1.8805
15318SOL     OW47374   3.847   4.439   2.718  0.9845 -0.2344 -0.3180
15318SOL    HW147375   3.756   4.449   2.745  1.0871 -2.6242  1.1916
15318SOL    HW247376   3.846   4.365   2.658  1.6700  1.2034 -2.2106
15319SOL     OW47377   0.588   1.692   8.821 -0.3971  0.2154  0.1128
15319SOL    HW147378   0.654   1.715   8.886 -0.2863  0.1794  0.0125
15319SOL    HW247379   0.530   1.769   8.817 -1.0315 -0.1936  1.0385
15320SOL     OW47380   3.128   2.102   5.774 -0.8559  0.1907  0.7380
15320SOL    HW147381   3.206   2.074   5.726 -0.3703  2.6515 -0.0786
15320SOL    HW247382   3.160   2.125   5.861 -1.0018 -0.4668  0.9679
15321SOL     OW47383   7.120   4.444   1.705  0.3460  0.0193 -0.0712
15321SOL    HW147384   7.190   4.397   1.751  0.1925 -2.6507 -2.2969
15321SOL    HW247385   7.166   4.505   1.647  0.8024 -0.6985 -0.4799
15322SOL     OW47386   7.629   1.521   8.419 -0.0269  0.3454 -0.4685
15322SOL    HW147387   7.549   1.492   8.463  0.0027 -0.7171 -1.0744
15322SOL    HW247388   7.621   1.616   8.414 -0.1346  0.5039  1.6129
15323SOL     OW47389   5.890   7.405   2.440 -0.5746  0.3172  0.1467
15323SOL    HW147390   5.823   7.459   2.398 -0.6966  0.7190  0.8526
15323SOL    HW247391   5.973   7.438   2.404 -0.6471  0.9983  0.6010
15324SOL     OW47392   8.500   1.998   3.861  0.2778 -0.2990 -0.1501
15324SOL    HW147393   8.434   1.932   3.883  0.3773 -0.2975  0.1587
15324SOL    HW247394   8.489   2.066   3.928  1.9079 -1.2308  1.1279
15325SOL     OW47395   8.538   5.078   3.277  0.5723 -0.2407 -0.0221
15325SOL    HW147396   8.449   5.074   3.313  0.3435  0.2315 -0.5193
15325SOL    HW247397   8.559   4.987   3.256  1.1908 -0.7176  2.3806
15326SOL     OW47398   6.691   5.851   5.189 -0.3762  0.0600  0.7109
15326SOL    HW147399   6.700   5.945   5.202 -0.8018  0.1273  0.5336
15326SOL    HW247400   6.673   5.841   5.095  1.0280 -0.3022  0.4641
15327SOL     OW47401   7.334   8.733   3.439 -0.2263 -0.0572  0.0902
15327SOL    HW147402   7.241   8.719   3.456 -0.1585  0.3490  0.8234
15327SOL    HW247403   7.358   8.809   3.493  0.4018  0.1910 -0.5156
15328SOL     OW47404   7.761   4.480   8.341  0.1475 -0.2589 -0.0466
15328SOL    HW147405   7.666   4.474   8.342  0.0296  1.0929  1.9635
15328SOL    HW247406   7.786   4.491   8.432  2.3328 -1.5579 -0.4069
15329SOL     OW47407   0.237   3.171   9.151  0.1010 -0.5199 -0.1397
15329SOL    HW147408   0.177   3.201   9.218 -0.0692 -1.5822  0.1997
15329SOL    HW247409   0.285   3.249   9.125 -0.6844  0.1344  0.3377
15330SOL     OW47410   7.752   8.154   4.011 -0.0194 -0.0784  0.0722
15330SOL    HW147411   7.777   8.146   3.918 -0.4996  1.2360 -0.1849
15330SOL    HW247412   7.775   8.069   4.049 -0.6224 -0.9612 -1.4396
15331SOL     OW47413   0.858   0.538   5.940 -0.5142  0.3864  0.3908
15331SOL    HW147414   0.922   0.566   5.874 -1.6574  1.7128 -0.2130
15331SOL    HW247415   0.908   0.482   5.999  0.2389 -2.2280 -2.4671
15332SOL     OW47416   9.219   5.052   7.331 -0.0217  0.1294  0.0864
15332SOL    HW147417   9.172   5.074   7.251 -0.7680 -2.0252 -0.1402
15332SOL    HW247418   9.309   5.077   7.314 -0.3608  0.6448 -1.0197
15333SOL     OW47419   3.051   7.940   1.443 -0.1516  1.0437 -0.5380
15333SOL    HW147420   3.047   8.036   1.439 -0.1424  1.2341  2.1924
15333SOL    HW247421   3.133   7.921   1.489  0.1001 -0.3261 -1.4987
15334SOL     OW47422   4.193   9.036   8.223  0.5973  0.1857  0.7204
15334SOL    HW147423   4.243   8.954   8.219  0.3479  0.0788 -1.7411
15334SOL    HW247424   4.212   9.079   8.140 -2.6508  0.5750  0.0638
15335SOL     OW47425   1.958   4.179   3.043 -0.7769  1.1888 -0.3125
15335SOL    HW147426   2.025   4.197   3.108 -1.0485  0.6863  0.1142
15335SOL    HW247427   1.999   4.202   2.959 -0.8803  3.0880  0.1286
15336SOL     OW47428   3.708   2.041   3.225  0.5968  0.2086 -0.4515
15336SOL    HW147429   3.699   2.057   3.319  0.0726  2.5161 -0.8234
15336SOL    HW247430   3.676   1.951   3.212  0.6803 -0.1435  1.5586
15337SOL     OW47431   3.093   0.661   9.210 -0.3706  0.0799 -0.2292
15337SOL    HW147432   3.094   0.715   9.289  0.8008  1.0608 -0.8825
15337SOL    HW247433   3.044   0.583   9.235  0.1269  0.2913  1.5088
15338SOL     OW47434   0.241   4.683   3.625  0.0712  0.2282  0.0732
15338SOL    HW147435   0.239   4.732   3.543  0.7462 -0.3410 -0.2839
15338SOL    HW247436   0.162   4.712   3.671  0.7606  2.1394  0.1548
15339SOL     OW47437   0.094   7.879   3.651 -0.6337  0.5180  0.3425
15339SOL    HW147438   0.066   7.852   3.738 -1.2753 -0.1511 -0.0566
15339SOL    HW247439   0.111   7.973   3.659 -0.2100  0.3671  1.2942
15340SOL     OW47440   0.763   5.722   0.913 -0.4465 -0.2065  0.3440
15340SOL    HW147441   0.772   5.727   0.818 -0.7942 -1.6285  0.2207
15340SOL    HW247442   0.809   5.642   0.938 -2.9077 -1.5186  1.0054
15341SOL     OW47443   3.311   7.135   8.241 -0.5707 -0.5528 -0.6215
15341SOL    HW147444   3.395   7.155   8.199 -0.2824  1.6459  0.7928
15341SOL    HW247445   3.255   7.209   8.218 -1.3586 -0.8228  0.3602
15342SOL     OW47446   7.912   7.182   1.091  0.0706 -0.1137  0.3144
15342SOL    HW147447   8.006   7.173   1.104  0.2334  1.6862  0.5511
15342SOL    HW247448   7.899   7.166   0.997  0.5462 -0.7916  0.3590
15343SOL     OW47449   4.456   9.109   0.998  0.5841 -0.0638  0.9583
15343SOL    HW147450   4.375   9.078   1.038  0.1331 -1.1761 -0.6889
15343SOL    HW247451   4.525   9.065   1.048 -0.0277 -3.3171 -0.7912
15344SOL     OW47452   3.217   3.550   5.832  0.5039 -0.1208 -0.0347
15344SOL    HW147453   3.250   3.524   5.746 -1.8351 -0.0439 -1.0458
15344SOL    HW247454   3.206   3.467   5.879 -0.3254 -0.3984 -0.6774
15345SOL     OW47455   7.968   0.699   2.165 -0.0914 -0.4577  0.0889
15345SOL    HW147456   7.966   0.789   2.132  1.3931 -0.8557 -1.2002
15345SOL    HW247457   7.958   0.708   2.259 -0.0943  1.0480 -0.0272
15346SOL     OW47458   2.676   7.636   5.440 -0.1513  0.0333  0.2664
15346SOL    HW147459   2.730   7.590   5.376  0.9730  0.7296  0.6946
15346SOL    HW247460   2.697   7.728   5.428 -1.6070  0.3758  0.1270
15347SOL     OW47461   7.283   6.989   7.830  0.1464  1.0653  0.0223
15347SOL    HW147462   7.188   6.993   7.832  0.1878  2.1789  0.3760
15347SOL    HW247463   7.309   7.052   7.763  0.5883 -0.6929 -1.5476
15348SOL     OW47464   3.083   5.322   4.878  0.1793 -0.2505 -0.0118
15348SOL    HW147465   2.999   5.302   4.918  1.7902 -1.8832  2.8682
15348SOL    HW247466   3.061   5.371   4.799 -3.4043 -0.0670  0.9430
15349SOL     OW47467   4.430   7.723   8.072  0.2709 -0.3518  0.3295
15349SOL    HW147468   4.445   7.636   8.036  1.7238 -0.2379  0.5755
15349SOL    HW247469   4.508   7.773   8.046 -0.2170  0.6770  0.7743
15350SOL     OW47470   2.718   0.043   1.248 -0.7146 -0.1004  0.3631
15350SOL    HW147471   2.761   0.067   1.166  1.2670  0.2714  1.4500
15350SOL    HW247472   2.764   0.093   1.315 -0.9817 -1.8258  1.9277
15351SOL     OW47473   0.485   7.455   3.791  0.1263  0.3432  0.4806
15351SOL    HW147474   0.542   7.532   3.793 -1.1381  1.3183  2.8317
15351SOL    HW247475   0.437   7.459   3.873 -1.3347 -1.9748 -0.1774
15352SOL     OW47476   6.717   1.921   0.263  0.2487  0.1832  0.3542
15352SOL    HW147477   6.758   1.942   0.347 -1.2146 -1.4301  1.5372
15352SOL    HW247478   6.788   1.883   0.211  0.8772 -0.0950  1.3802
15353SOL     OW47479   9.196   2.311   5.389 -0.1402 -0.0406 -0.2641
15353SOL    HW147480   9.209   2.227   5.345  1.1211 -0.8495  1.5308
15353SOL    HW247481   9.113   2.301   5.435  0.7448 -0.9679  1.2272
15354SOL     OW47482   2.685   5.477   7.594 -0.1207 -0.3728  0.3124
15354SOL    HW147483   2.622   5.494   7.663 -0.0076  0.2490  0.2740
15354SOL    HW247484   2.653   5.399   7.550 -1.0881  0.1654  0.0372
15355SOL     OW47485   8.720   5.427   0.157  0.6251  0.4618 -0.3945
15355SOL    HW147486   8.693   5.376   0.081 -0.0670  0.3246 -0.0634
15355SOL    HW247487   8.656   5.498   0.163  0.6442  0.4462  0.0846
15356SOL     OW47488   6.424   8.197   5.035 -0.3202 -0.1194 -0.6401
15356SOL    HW147489   6.389   8.130   4.976  0.0826 -0.5686 -0.3684
15356SOL    HW247490   6.413   8.160   5.123  1.5022 -0.5789 -0.5851
15357SOL     OW47491   1.946   8.786   8.344  0.0050  0.3807  0.0483
15357SOL    HW147492   1.952   8.864   8.289 -1.1052  0.8426  0.5578
15357SOL    HW247493   1.852   8.768   8.351  0.2361 -1.0038 -0.0464
15358SOL     OW47494   7.473   0.170   3.956  0.3525  0.6496  0.3098
15358SOL    HW147495   7.429   0.255   3.951  0.0843  0.7156  2.7749
15358SOL    HW247496   7.566   0.192   3.968  0.6609  0.5284 -1.5576
15359SOL     OW47497   9.057   6.697   6.509  0.1303  0.0150  0.2449
15359SOL    HW147498   9.053   6.665   6.598  0.2981 -0.0101  0.2446
15359SOL    HW247499   9.148   6.682   6.482  0.7928  2.3703  0.9505
15360SOL     OW47500   6.434   5.924   6.598  0.2719 -0.3111  0.0551
15360SOL    HW147501   6.431   5.950   6.690  0.2093 -0.5591  0.1243
15360SOL    HW247502   6.519   5.882   6.588 -0.0181 -0.9385  0.1797
15361SOL     OW47503   1.932   1.051   7.056  0.2082  0.1045 -0.0209
15361SOL    HW147504   1.966   0.990   6.991 -1.2497 -0.6473 -0.1088
15361SOL    HW247505   1.962   1.137   7.026  2.0561 -0.4971 -0.0484
15362SOL     OW47506   2.845   4.845   6.377  0.0253  0.0219 -0.1440
15362SOL    HW147507   2.832   4.919   6.436 -0.0097  0.1965 -0.3688
15362SOL    HW247508   2.937   4.822   6.388  0.0979  0.2579 -0.2586
15363SOL     OW47509   7.514   0.364   7.452 -0.2038  0.0842  0.1404
15363SOL    HW147510   7.537   0.400   7.538 -1.1695  0.9660  0.0514
15363SOL    HW247511   7.577   0.294   7.437 -0.8526 -0.9961  2.1689
15364SOL     OW47512   6.279   5.199   2.730 -0.1411 -0.0060  0.3396
15364SOL    HW147513   6.356   5.143   2.727 -0.1740 -0.1082  1.2286
15364SOL    HW247514   6.314   5.288   2.726  0.0465 -0.0474  0.9406
15365SOL     OW47515   3.525   1.540   3.481  0.6080  0.2683  0.3675
15365SOL    HW147516   3.617   1.566   3.476  0.9834 -0.5970  1.9744
15365SOL    HW247517   3.515   1.506   3.570 -1.2130  0.1134  0.1381
15366SOL     OW47518   5.501   5.601   8.632  0.5920  0.6066 -0.2921
15366SOL    HW147519   5.482   5.647   8.550  1.6085  0.6211 -0.5213
15366SOL    HW247520   5.450   5.520   8.626 -0.6449  1.3476 -0.1959
15367SOL     OW47521   5.952   0.471   5.200 -0.8112  0.8683  0.6660
15367SOL    HW147522   5.966   0.376   5.194  1.9393  1.1553  1.5328
15367SOL    HW247523   5.983   0.505   5.117 -2.8909  0.9859 -0.1310
15368SOL     OW47524   7.011   7.279   2.231  0.1344 -0.0496  0.4751
15368SOL    HW147525   6.952   7.276   2.156  3.1029  0.9691 -2.1337
15368SOL    HW247526   7.005   7.369   2.262  2.4248  1.0278 -1.8379
15369SOL     OW47527   3.450   3.790   7.516  0.5507  0.2202 -0.1978
15369SOL    HW147528   3.411   3.859   7.463 -0.3598 -0.0411  0.1167
15369SOL    HW247529   3.543   3.794   7.495  0.4744  1.3710 -0.3754
15370SOL     OW47530   1.241   6.949   2.605 -0.3188  0.0391 -0.1812
15370SOL    HW147531   1.229   6.856   2.626  0.9938  0.2969  2.0645
15370SOL    HW247532   1.159   6.974   2.563 -1.1343 -1.8761  0.1241
15371SOL     OW47533   6.867   6.229   4.766 -0.3211 -0.2986  0.1167
15371SOL    HW147534   6.870   6.140   4.801  2.4772 -0.8861 -1.2700
15371SOL    HW247535   6.870   6.217   4.671  1.2406  1.2404 -0.0674
15372SOL     OW47536   6.038   4.057   7.844 -0.3290  0.2692 -0.8614
15372SOL    HW147537   5.966   4.067   7.906 -0.1679  1.9117 -0.9010
15372SOL    HW247538   6.116   4.049   7.899 -0.3906 -0.2596 -0.8414
15373SOL     OW47539   3.969   8.418   2.041 -0.3393 -0.3206 -0.1443
15373SOL    HW147540   3.964   8.323   2.053 -0.2763 -0.4058 -0.7742
15373SOL    HW247541   4.041   8.445   2.098  0.5259 -0.8324 -0.9735
15374SOL     OW47542   7.584   8.402   6.345 -0.3221 -0.3860 -0.1020
15374SOL    HW147543   7.545   8.349   6.414  0.3979  0.9643  1.4116
15374SOL    HW247544   7.510   8.430   6.292 -1.0730 -0.3192  0.9471
15375SOL     OW47545   6.928   5.649   2.311 -0.7722  0.1025 -0.2969
15375SOL    HW147546   6.857   5.627   2.251  0.3218  0.3969 -1.7528
15375SOL    HW247547   7.006   5.609   2.272 -0.4275 -2.3311  2.5007
15376SOL     OW47548   3.007   3.823   4.761  0.1310 -0.4165 -0.1079
15376SOL    HW147549   3.040   3.765   4.831 -0.1890 -0.2564  0.1797
15376SOL    HW247550   2.943   3.879   4.805 -0.5972 -0.7847 -0.6799
15377SOL     OW47551   5.229   0.799   4.212 -0.9324  0.3836  0.3554
15377SOL    HW147552   5.307   0.809   4.157 -0.6648  1.2062  0.8614
15377SOL    HW247553   5.159   0.843   4.164 -0.6885  1.1421  0.6774
15378SOL     OW47554   6.632   6.600   4.545  0.3432  0.1014  0.0152
15378SOL    HW147555   6.660   6.675   4.597  3.0650  0.6252 -1.9818
15378SOL    HW247556   6.663   6.524   4.595  3.9245  0.6195 -1.1151
15379SOL     OW47557   8.697   3.299   0.171 -0.0521  0.4843  0.3421
15379SOL    HW147558   8.750   3.219   0.172 -2.5808 -1.3318 -0.5857
15379SOL    HW247559   8.755   3.365   0.133  1.7087 -1.2308 -0.1492
15380SOL     OW47560   6.716   6.823   2.296 -0.4168  0.0103 -0.4413
15380SOL    HW147561   6.647   6.757   2.303 -0.7525  0.0839 -2.4368
15380SOL    HW247562   6.743   6.819   2.204  1.1546  1.0730 -0.0567
15381SOL     OW47563   2.034   7.332   0.518  0.2714 -0.5992  0.0813
15381SOL    HW147564   2.049   7.300   0.607 -0.2392 -0.7595  0.1097
15381SOL    HW247565   2.039   7.428   0.526 -0.4231 -0.5854  0.4042
15382SOL     OW47566   2.051   4.198   3.800 -0.5933 -0.0254 -0.3090
15382SOL    HW147567   2.014   4.268   3.745 -0.0897  0.3661 -0.1575
15382SOL    HW247568   2.063   4.239   3.886 -0.5449 -0.3777 -0.1464
15383SOL     OW47569   8.111   6.964   4.984  0.1133  0.4229  0.2466
15383SOL    HW147570   8.042   6.898   4.994 -0.4698  0.9903  0.0816
15383SOL    HW247571   8.188   6.925   5.025 -0.5369  0.1375  1.2321
15384SOL     OW47572   8.146   0.170   4.194  0.3454 -0.3273  0.0299
15384SOL    HW147573   8.127   0.084   4.156 -1.8360  0.3526 -0.5587
15384SOL    HW247574   8.066   0.193   4.243  1.3036  0.8981  1.1018
15385SOL     OW47575   3.279   1.029   2.444  0.4004 -0.0199 -0.7136
15385SOL    HW147576   3.239   0.949   2.409 -0.1358  0.4202 -1.1183
15385SOL    HW247577   3.344   0.997   2.507 -1.1923 -0.7633  0.6415
15386SOL     OW47578   7.494   0.276   6.146  0.2299 -0.7983  0.1468
15386SOL    HW147579   7.498   0.303   6.238 -0.8065  2.6342 -0.6634
15386SOL    HW247580   7.403   0.252   6.132  0.6821 -2.7913  0.2809
15387SOL     OW47581   8.300   7.702   0.936  0.0483  0.2392 -0.8820
15387SOL    HW147582   8.318   7.793   0.913  1.3580 -0.3151 -2.2246
15387SOL    HW247583   8.319   7.653   0.856 -0.9956 -1.1886 -0.3012
15388SOL     OW47584   6.547   1.626   1.780 -0.5124 -0.2271 -0.5659
15388SOL    HW147585   6.523   1.575   1.856  0.2170  1.3515  0.7880
15388SOL    HW247586   6.541   1.565   1.706  1.1847 -2.4966  1.0557
15389SOL     OW47587   2.675   5.134   6.105  0.2250 -0.1518  0.1899
15389SOL    HW147588   2.626   5.058   6.075 -0.4129 -0.8628  2.7903
15389SOL    HW247589   2.767   5.112   6.087  0.2695 -2.5393  2.6280
15390SOL     OW47590   5.394   1.351   3.841  0.2538 -0.2718 -0.3297
15390SOL    HW147591   5.371   1.354   3.933  2.0999 -0.7658  0.1899
15390SOL    HW247592   5.489   1.344   3.840  0.3756  0.8677 -2.3035
15391SOL     OW47593   8.765   5.313   7.610 -0.1800 -0.7062 -0.5995
15391SOL    HW147594   8.744   5.395   7.655  1.0257 -0.4853 -0.3984
15391SOL    HW247595   8.717   5.246   7.659  0.0851 -0.3072  0.2273
15392SOL     OW47596   8.643   1.149   6.705 -0.4572 -0.1733  0.1445
15392SOL    HW147597   8.635   1.064   6.748 -0.4460 -0.4901 -0.4723
15392SOL    HW247598   8.724   1.144   6.655 -0.0678  0.4725  0.6986
15393SOL     OW47599   7.963   8.973   7.769  0.3657 -0.2653 -0.3282
15393SOL    HW147600   7.889   8.978   7.709 -0.3794 -1.0129  0.5014
15393SOL    HW247601   8.038   8.950   7.714  0.1060  1.0308 -1.2633
15394SOL     OW47602   4.740   0.085   7.861 -0.1992  0.3313  1.1509
15394SOL    HW147603   4.745   0.156   7.924 -0.0860  0.0119  1.5088
15394SOL    HW247604   4.722   0.128   7.777 -2.2903  0.6160  1.6913
15395SOL     OW47605   5.870   7.628   8.407  0.2007  0.3042 -0.1955
15395SOL    HW147606   5.921   7.696   8.451  0.0507  0.9697 -1.0221
15395SOL    HW247607   5.779   7.650   8.426  0.1683 -0.0118  0.0266
15396SOL     OW47608   4.959   6.726   3.096  0.4842 -0.7170 -0.0546
15396SOL    HW147609   5.031   6.725   3.159  0.0905 -2.0238  0.3952
15396SOL    HW247610   4.962   6.640   3.055 -2.8434 -2.1902  2.3487
15397SOL     OW47611   7.307   6.019   1.126 -0.2029 -0.1130  0.2980
15397SOL    HW147612   7.284   6.049   1.213  1.2883 -1.2839  1.1595
15397SOL    HW247613   7.290   5.925   1.127 -2.0400  0.1224 -1.3717
15398SOL     OW47614   8.564   5.928   6.237 -0.5554  0.1065 -0.4285
15398SOL    HW147615   8.549   5.859   6.301 -0.5554 -0.4566 -1.0260
15398SOL    HW247616   8.654   5.957   6.253  0.4673 -1.9758 -1.9615
15399SOL     OW47617   9.185   6.183   0.070 -0.0742  0.1257 -0.2219
15399SOL    HW147618   9.209   6.262   0.118  0.4739 -0.4778  0.5152
15399SOL    HW247619   9.218   6.111   0.124 -0.5203 -0.6064 -0.9072
15400SOL     OW47620   7.264   2.034   5.523 -0.3569 -0.1681 -0.1144
15400SOL    HW147621   7.247   1.974   5.596  1.9776  0.0488  0.7112
15400SOL    HW247622   7.332   1.990   5.472 -1.2803  0.1264 -1.6347
15401SOL     OW47623   3.755   8.265   7.434  0.1527 -0.1268 -0.1271
15401SOL    HW147624   3.836   8.215   7.426  0.3302 -0.1685  1.5862
15401SOL    HW247625   3.686   8.203   7.407  0.5198 -0.7776  0.3812
15402SOL     OW47626   3.800   1.514   7.921  0.2637 -0.0306 -0.4153
15402SOL    HW147627   3.800   1.588   7.860 -0.0744 -1.4178 -2.1653
15402SOL    HW247628   3.797   1.436   7.865 -2.0654 -1.3618  1.3743
15403SOL     OW47629   7.874   6.721   4.788  0.0678 -0.1058 -0.1662
15403SOL    HW147630   7.942   6.710   4.722  0.9735 -3.2985  1.1582
15403SOL    HW247631   7.899   6.802   4.834  1.7394 -0.0642 -1.0538
15404SOL     OW47632   0.012   7.208   8.229 -0.1810 -0.3537 -0.0504
15404SOL    HW147633  -0.042   7.287   8.219 -2.1798 -1.6368  0.0419
15404SOL    HW247634   0.055   7.219   8.314  0.2839  1.0151 -0.4326
15405SOL     OW47635   0.942   1.339   0.260 -0.2472 -0.4156 -0.3235
15405SOL    HW147636   0.941   1.397   0.184  0.5195  0.3170  0.2055
15405SOL    HW247637   0.860   1.289   0.254 -1.2230  1.1376 -0.4907
15406SOL     OW47638   8.116   6.192   0.065 -0.1053 -0.4679  0.4208
15406SOL    HW147639   8.039   6.168   0.013  0.9842  1.3526 -2.2091
15406SOL    HW247640   8.185   6.134   0.034  0.7488  1.1379 -0.8226
15407SOL     OW47641   7.988   2.093   9.274  0.4022 -0.3004  0.1342
15407SOL    HW147642   8.079   2.065   9.273  0.0296 -1.5565 -0.5939
15407SOL    HW247643   7.939   2.016   9.304 -0.5303 -0.0357 -0.6488
15408SOL     OW47644   4.890   3.238   4.900  0.0683 -0.5423 -0.1513
15408SOL    HW147645   4.918   3.228   4.809  0.4083 -0.2868 -0.0776
15408SOL    HW247646   4.971   3.244   4.950 -0.1157 -0.7898  0.1846
15409SOL     OW47647   4.643   6.713   1.988  0.7247 -0.4264  0.1708
15409SOL    HW147648   4.655   6.681   1.899  0.9086  0.0312  0.0238
15409SOL    HW247649   4.549   6.711   2.003  0.6110  0.4311 -0.3945
15410SOL     OW47650   1.602   3.096   0.271 -0.1151 -0.2302  0.3643
15410SOL    HW147651   1.555   3.014   0.255  0.5979 -0.6483  0.3662
15410SOL    HW247652   1.694   3.072   0.268  0.1204  0.6713 -0.1413
15411SOL     OW47653   3.952   4.331   3.383  0.6582 -0.0854 -0.4868
15411SOL    HW147654   4.017   4.368   3.322 -0.5050 -1.8989 -3.0222
15411SOL    HW247655   3.910   4.407   3.422  1.0735  1.2297 -2.4329
15412SOL     OW47656   6.306   4.015   0.431 -0.1975 -0.2320  0.5630
15412SOL    HW147657   6.392   3.975   0.421 -0.1620  0.0626 -0.4597
15412SOL    HW247658   6.324   4.109   0.429 -0.7312 -0.1204 -1.9851
15413SOL     OW47659   9.196   0.140   1.733 -0.0973  0.2439  0.1139
15413SOL    HW147660   9.228   0.186   1.656 -0.1065  0.7180  0.3900
15413SOL    HW247661   9.174   0.052   1.702 -0.1089  0.4364 -0.4213
15414SOL     OW47662   6.784   6.602   1.691 -0.5169  0.4679  0.7024
15414SOL    HW147663   6.758   6.594   1.783 -1.5336  0.7512  0.4445
15414SOL    HW247664   6.702   6.601   1.642  0.0289  0.0231 -0.2347
15415SOL     OW47665   9.265   3.086   2.718 -0.2597 -0.1251 -0.2953
15415SOL    HW147666   9.222   3.118   2.797 -1.2194  0.0236 -0.8550
15415SOL    HW247667   9.207   3.113   2.647  1.0858  0.6259 -1.1546
15416SOL     OW47668   5.950   8.853   7.176 -0.3512 -0.0296 -0.1225
15416SOL    HW147669   5.888   8.833   7.106  0.2835 -2.3158 -0.1225
15416SOL    HW247670   5.927   8.793   7.246  0.1250  1.0185  0.9590
15417SOL     OW47671   6.056   6.933   1.711  0.0503 -0.0065 -0.0918
15417SOL    HW147672   6.049   6.904   1.620  2.6424  0.9206 -0.6781
15417SOL    HW247673   6.098   6.859   1.756 -0.7081 -0.2419  0.2384
15418SOL     OW47674   7.941   2.101   4.737  0.0294  0.4565  0.2460
15418SOL    HW147675   7.870   2.036   4.744  0.2188  0.2221  0.0098
15418SOL    HW247676   7.899   2.185   4.756  0.1296  0.0782  2.4653
15419SOL     OW47677   6.882   7.747   4.645 -0.7977  0.4707  0.5483
15419SOL    HW147678   6.968   7.783   4.625 -1.3824  1.4744 -0.3235
15419SOL    HW247679   6.821   7.819   4.625 -1.8568 -0.3062  0.8635
15420SOL     OW47680   4.230   6.213   5.840 -0.8275 -0.0121 -1.3293
15420SOL    HW147681   4.311   6.172   5.868 -0.9779 -0.5880 -1.7044
15420SOL    HW247682   4.181   6.229   5.921 -0.8256 -0.7154 -1.1805
15421SOL     OW47683   6.325   5.053   8.997 -0.1297  0.5362 -0.2069
15421SOL    HW147684   6.290   5.018   9.079 -1.7066  1.1424 -0.5839
15421SOL    HW247685   6.262   5.025   8.930  0.6178  0.8692 -1.0676
15422SOL     OW47686   7.742   0.010   6.544 -0.1827 -0.0962  0.1071
15422SOL    HW147687   7.821   0.007   6.491 -0.5551  0.5975 -0.5114
15422SOL    HW247688   7.671   0.015   6.480 -0.6676  0.2585  0.6647
15423SOL     OW47689   8.896   8.496   5.489 -0.0649  0.2982 -0.5992
15423SOL    HW147690   8.913   8.581   5.448  0.5346  1.5231  2.0006
15423SOL    HW247691   8.983   8.457   5.500 -0.2136  0.0037 -0.4606
15424SOL     OW47692   0.648   2.558   3.773  0.4707  0.4757  0.2914
15424SOL    HW147693   0.627   2.652   3.774 -2.1025 -0.0242  0.4059
15424SOL    HW247694   0.669   2.537   3.864 -2.6336  0.2923  1.0649
15425SOL     OW47695   5.317   2.363   8.233 -0.4901  0.0946  0.1272
15425SOL    HW147696   5.399   2.317   8.251 -0.8166  0.3091  2.4120
15425SOL    HW247697   5.250   2.295   8.237 -0.5897  0.1591 -0.3374
15426SOL     OW47698   7.202   0.630   2.329 -0.6296 -0.5747 -0.5628
15426SOL    HW147699   7.128   0.692   2.327  0.5984  0.9576 -1.7570
15426SOL    HW247700   7.231   0.626   2.238 -0.1834 -2.3649 -0.3683
15427SOL     OW47701   7.245   0.614   4.154 -0.5247  0.3483  0.0143
15427SOL    HW147702   7.287   0.563   4.084  0.2613  0.5487  0.3327
15427SOL    HW247703   7.153   0.587   4.151 -0.1382 -1.0753  0.1488
15428SOL     OW47704   0.653   7.932   3.948 -0.0324 -0.0041 -0.1333
15428SOL    HW147705   0.707   7.905   3.873 -0.7596 -0.8141 -0.3884
15428SOL    HW247706   0.683   8.020   3.969  1.0222 -0.2346 -0.6027
15429SOL     OW47707   6.924   1.271   7.804 -0.3792 -0.3509  0.3408
15429SOL    HW147708   7.010   1.233   7.791 -0.0289  0.0465  1.3477
15429SOL    HW247709   6.939   1.344   7.865 -0.9562  1.6372 -1.7642
15430SOL     OW47710   1.620   7.333   6.437 -0.1831  0.5481 -0.3728
15430SOL    HW147711   1.604   7.291   6.352  0.7157 -1.4169  0.3790
15430SOL    HW247712   1.549   7.303   6.493 -0.2455  1.0843 -0.1538
15431SOL     OW47713   6.486   7.048   2.107 -0.2912 -0.0374 -0.1121
15431SOL    HW147714   6.505   7.126   2.056  0.2460 -1.1599 -1.7240
15431SOL    HW247715   6.533   6.978   2.062 -0.8338 -1.3133  1.2171
15432SOL     OW47716   1.972   8.189   4.524 -0.1675  0.3487 -0.4268
15432SOL    HW147717   2.030   8.152   4.456 -0.4214 -1.1212  0.1057
15432SOL    HW247718   1.931   8.264   4.482  2.1742  1.5219 -0.7936
15433SOL     OW47719   2.654   6.763   0.197  0.2626 -0.0796  0.5895
15433SOL    HW147720   2.662   6.811   0.279 -1.4427  0.2039  0.6314
15433SOL    HW247721   2.712   6.687   0.207 -0.2502 -0.2853  2.2270
15434SOL     OW47722   8.834   0.822   7.313 -0.5853  0.0962  0.0616
15434SOL    HW147723   8.929   0.821   7.302 -0.2349  0.5650  2.5478
15434SOL    HW247724   8.816   0.757   7.380 -1.9522  0.4909  0.1176
15435SOL     OW47725   5.887   0.324   7.642 -0.4495  0.2138  0.1032
15435SOL    HW147726   5.982   0.334   7.647 -0.5338  0.4813  3.7088
15435SOL    HW247727   5.872   0.229   7.644 -0.2805  0.1817 -0.1295
15436SOL     OW47728   8.056   4.360   2.954 -0.0072  0.3100  0.6070
15436SOL    HW147729   7.983   4.418   2.932  0.7325  0.3029 -2.1967
15436SOL    HW247730   8.131   4.419   2.962  0.0420  0.1200  1.7143
15437SOL     OW47731   7.700   0.389   6.861  0.1265  0.0965 -0.3532
15437SOL    HW147732   7.694   0.468   6.806  0.1974 -0.2991 -0.9408
15437SOL    HW247733   7.750   0.417   6.938  0.3290  0.5730 -0.6520
15438SOL     OW47734   8.904   6.460   0.941 -0.1787 -0.0456 -0.4284
15438SOL    HW147735   8.999   6.462   0.947 -0.1658 -0.3757 -0.5095
15438SOL    HW247736   8.873   6.478   1.030 -0.0395 -0.0434 -0.3808
15439SOL     OW47737   2.754   2.006   7.735  0.1083 -0.0720 -0.3023
15439SOL    HW147738   2.708   1.958   7.666  0.0379 -0.3176 -0.0872
15439SOL    HW247739   2.737   2.098   7.715 -2.7843 -0.1319  1.2371
15440SOL     OW47740   7.181   3.001   1.422  0.4206  0.0537  0.0285
15440SOL    HW147741   7.237   3.074   1.396  0.0791  0.7448  1.1678
15440SOL    HW247742   7.158   3.019   1.513  0.2597 -1.4409  0.3140
15441SOL     OW47743   1.120   7.271   1.781 -0.6697  0.6561 -0.0520
15441SOL    HW147744   1.089   7.232   1.863 -0.4000 -0.4061 -0.4386
15441SOL    HW247745   1.141   7.361   1.804 -2.8678  1.0867  0.5110
15442SOL     OW47746   3.385   7.713   2.786 -0.3142  0.4410  0.2090
15442SOL    HW147747   3.462   7.659   2.803 -0.5966 -1.0638 -2.6243
15442SOL    HW247748   3.311   7.652   2.790 -0.6879  0.5821 -2.6424
15443SOL     OW47749   8.831   6.192   6.135  0.4926 -0.3506 -0.0274
15443SOL    HW147750   8.900   6.258   6.141  1.0042 -0.9259  0.6468
15443SOL    HW247751   8.782   6.201   6.217  0.8942 -1.1430  0.3173
15444SOL     OW47752   6.506   9.011   1.807 -0.0026  0.5718  0.0928
15444SOL    HW147753   6.471   9.070   1.741  0.7875  0.5901 -0.3224
15444SOL    HW247754   6.525   9.067   1.882  0.6601  0.8452 -0.2687
15445SOL     OW47755   0.195   4.986   4.152  0.0834  0.4336  0.0243
15445SOL    HW147756   0.268   4.944   4.197 -1.0328 -0.8319  0.7127
15445SOL    HW247757   0.198   4.952   4.063 -0.9883 -1.4036  0.6522
15446SOL     OW47758   4.821   5.975   6.919  0.0167  0.1558  0.4360
15446SOL    HW147759   4.845   6.043   6.856 -2.2120  0.1154 -0.5813
15446SOL    HW247760   4.854   5.894   6.881 -1.4745  0.1056 -0.8709
15447SOL     OW47761   7.303   8.118   7.250  0.1858  0.0976  0.0350
15447SOL    HW147762   7.217   8.075   7.244  0.8867 -1.3254 -0.1517
15447SOL    HW247763   7.301   8.161   7.336 -0.3211 -0.8275  0.5100
15448SOL     OW47764   8.667   7.236   4.639  0.3804  0.6755  0.1169
15448SOL    HW147765   8.674   7.143   4.661 -2.2331  0.3309 -0.2030
15448SOL    HW247766   8.663   7.237   4.543 -1.1287  0.9305  0.1595
15449SOL     OW47767   7.432   8.616   8.601  0.2661  0.0505 -0.1481
15449SOL    HW147768   7.349   8.574   8.620  0.6037 -0.2537  0.6826
15449SOL    HW247769   7.413   8.675   8.528 -1.1139  1.4316  1.2570
15450SOL     OW47770   4.877   4.584   8.850  0.6743  0.6302  0.0735
15450SOL    HW147771   4.859   4.554   8.939  1.3895  1.6507  0.5897
15450SOL    HW247772   4.939   4.520   8.815  0.0464 -0.0262  0.1321
15451SOL     OW47773   8.133   7.290   5.140 -0.6906  0.3454 -0.4745
15451SOL    HW147774   8.135   7.270   5.046  0.2928 -1.0262 -0.1799
15451SOL    HW247775   8.201   7.356   5.152  0.4861 -0.8201 -0.4675
15452SOL     OW47776   8.751   8.097   1.803 -0.7537 -0.0477  0.4541
15452SOL    HW147777   8.734   8.100   1.709  1.2140  0.1107  0.0433
15452SOL    HW247778   8.749   8.004   1.825 -0.3083 -0.1643  0.0351
15453SOL     OW47779   8.221   7.816   3.522  0.4255  0.4068 -0.5441
15453SOL    HW147780   8.180   7.798   3.438 -1.5659  0.3917  0.3939
15453SOL    HW247781   8.184   7.751   3.582  0.4755  1.5114  0.7318
15454SOL     OW47782   8.519   6.060   4.333 -0.3272  0.1378  0.0254
15454SOL    HW147783   8.610   6.048   4.359 -0.5586 -1.3197  0.2309
15454SOL    HW247784   8.481   5.972   4.333 -1.1366  0.3953 -2.3261
15455SOL     OW47785   9.144   0.358   6.921  0.1876 -0.0586 -0.1857
15455SOL    HW147786   9.155   0.264   6.938  1.4991  0.2031  0.5787
15455SOL    HW247787   9.050   0.370   6.911 -0.1012 -1.2784  0.8394
15456SOL     OW47788   6.681   8.547   6.806 -0.3297  0.2513  0.3092
15456SOL    HW147789   6.746   8.615   6.823 -0.2686  0.1436  0.5149
15456SOL    HW247790   6.692   8.485   6.878  0.4089 -0.5737 -0.4754
15457SOL     OW47791   3.693   9.265   4.336  0.5267 -0.0891  0.6159
15457SOL    HW147792   3.613   9.265   4.284  0.0240  1.3657  1.3438
15457SOL    HW247793   3.694   9.179   4.379 -0.4975 -0.2165  0.3930
15458SOL     OW47794   4.824   4.616   1.387 -0.0792  0.2624  0.3959
15458SOL    HW147795   4.823   4.542   1.448  1.1487 -1.4527 -1.5130
15458SOL    HW247796   4.902   4.666   1.410  2.4904 -2.3908 -1.8303
15459SOL     OW47797   5.462   0.448   7.865  0.1190  0.7161 -0.1199
15459SOL    HW147798   5.512   0.528   7.882  1.3416 -0.1048  0.3031
15459SOL    HW247799   5.425   0.460   7.777  1.9347  0.9357 -0.8882
15460SOL     OW47800   5.033   1.931   3.417 -0.0320 -0.0182  0.3626
15460SOL    HW147801   5.049   1.910   3.509  1.5740 -1.7469 -0.2314
15460SOL    HW247802   5.058   1.851   3.370 -3.2476 -0.1205 -1.4176
15461SOL     OW47803   7.079   4.350   6.208 -0.0766  0.5564 -0.3894
15461SOL    HW147804   7.065   4.327   6.116  0.5255  1.7596 -0.8086
15461SOL    HW247805   7.036   4.435   6.218 -2.1517 -0.5720  1.0747
15462SOL     OW47806   1.094   4.941   7.464 -0.0216  0.8621  0.0765
15462SOL    HW147807   1.018   4.991   7.494 -1.5999 -0.5737 -1.3126
15462SOL    HW247808   1.073   4.916   7.374  1.2083 -1.2825  0.3167
15463SOL     OW47809   3.444   5.140   6.420 -0.3065 -0.4229  0.6268
15463SOL    HW147810   3.466   5.202   6.489 -0.0405  0.2581 -0.0454
15463SOL    HW247811   3.361   5.102   6.447 -0.5255  0.3035  1.0080
15464SOL     OW47812   4.079   1.181   0.542  0.2794  0.2454  0.0609
15464SOL    HW147813   4.139   1.142   0.479 -0.6427  0.3540 -0.9049
15464SOL    HW247814   4.091   1.275   0.532  2.1123  0.2824  2.0122
15465SOL     OW47815   7.438   9.036   8.572  0.1163 -0.0512  0.4130
15465SOL    HW147816   7.477   8.991   8.497 -1.2178 -2.4296  1.0533
15465SOL    HW247817   7.390   9.109   8.534  0.1868 -0.6935 -0.9852
15466SOL     OW47818   4.734   0.716   0.397 -0.1762 -0.7744 -0.1534
15466SOL    HW147819   4.797   0.707   0.325  0.0330 -1.6033  0.1314
15466SOL    HW247820   4.745   0.807   0.426 -0.8176 -0.1757 -1.6643
15467SOL     OW47821   2.354   5.416   5.202  0.1149 -0.0717  0.2064
15467SOL    HW147822   2.303   5.374   5.132 -3.8007  0.5911  2.3439
15467SOL    HW247823   2.372   5.345   5.264 -0.9760  0.2085  0.8707
15468SOL     OW47824   0.270   2.797   8.618  0.4278  0.7908  0.0156
15468SOL    HW147825   0.223   2.873   8.652  0.9829  0.5965  1.2542
15468SOL    HW247826   0.361   2.825   8.611  0.4521  0.5794 -0.5736
15469SOL     OW47827   7.909   7.308   5.762  0.1651  0.2356 -0.2348
15469SOL    HW147828   7.828   7.323   5.811 -0.2690 -1.3918 -0.3938
15469SOL    HW247829   7.929   7.393   5.722 -1.3221  0.7287  0.0021
15470SOL     OW47830   8.051   6.571   5.757 -0.1813 -0.3812  0.2513
15470SOL    HW147831   7.970   6.520   5.752 -0.7224  0.5445 -1.6354
15470SOL    HW247832   8.024   6.654   5.797  0.1862 -0.6474  1.0705
15471SOL     OW47833   5.706   8.785   7.045 -0.3117  0.1331  0.0380
15471SOL    HW147834   5.649   8.812   6.973 -0.0333  1.7803  0.3999
15471SOL    HW247835   5.650   8.732   7.102 -0.9208  0.0288 -0.6482
15472SOL     OW47836   7.508   0.146   5.084 -0.0393 -0.0672  0.1595
15472SOL    HW147837   7.523   0.064   5.131 -0.2624 -0.9288 -1.2203
15472SOL    HW247838   7.595   0.174   5.056  0.0291  0.1353  0.5670
15473SOL     OW47839   2.893   4.447   3.196  0.4772  0.7918 -0.0256
15473SOL    HW147840   2.984   4.477   3.191  0.6307  0.5124  0.9584
15473SOL    HW247841   2.898   4.355   3.170  0.1875  1.2337 -1.7964
15474SOL     OW47842   2.815   5.615   7.970  0.0959 -0.1206  0.6031
15474SOL    HW147843   2.843   5.647   7.884  1.7041 -1.2703  0.6570
15474SOL    HW247844   2.725   5.585   7.956 -0.4529  1.7508 -0.1144
15475SOL     OW47845   4.397   1.138   3.849  0.5691 -0.3084  0.3991
15475SOL    HW147846   4.358   1.217   3.886  0.4590 -0.8552  1.4860
15475SOL    HW247847   4.348   1.066   3.888  1.8640 -0.9657  0.8729
15476SOL     OW47848   6.076   6.057   8.088  0.0982 -0.5391 -0.0648
15476SOL    HW147849   6.008   6.009   8.136  0.3447 -0.0483  0.7926
15476SOL    HW247850   6.039   6.144   8.076 -0.0702 -0.7310 -1.0256
15477SOL     OW47851   6.579   4.876   9.046 -0.3927  0.6988  0.1316
15477SOL    HW147852   6.613   4.957   9.010  0.5659  1.3468  2.2855
15477SOL    HW247853   6.626   4.866   9.129 -1.4440 -1.3742  0.5402
15478SOL     OW47854   7.123   8.486   1.168  0.0872 -0.0394 -0.4689
15478SOL    HW147855   7.071   8.497   1.088  1.3736  0.4358 -1.2701
15478SOL    HW247856   7.169   8.403   1.156 -0.4447 -0.4476  0.2240
15479SOL     OW47857   1.276   8.191   0.060 -0.3190  0.2723 -0.4070
15479SOL    HW147858   1.260   8.124  -0.007 -2.3996  0.5698 -0.2792
15479SOL    HW247859   1.354   8.237   0.029  0.1365 -1.0858 -1.3906
15480SOL     OW47860   6.742   4.403   0.684 -0.4853  0.1957 -0.3760
15480SOL    HW147861   6.798   4.346   0.631  0.6769  1.2862 -0.3543
15480SOL    HW247862   6.662   4.412   0.632 -0.1102 -0.2787 -1.0541
15481SOL     OW47863   8.940   8.984   1.432 -0.3091  0.1777 -0.0582
15481SOL    HW147864   8.924   8.964   1.524  0.8112  0.2390  0.1628
15481SOL    HW247865   8.986   8.907   1.398 -0.6456  0.1876 -0.5600
15482SOL     OW47866   7.139   2.577   2.767 -0.0872  1.0120 -0.1624
15482SOL    HW147867   7.110   2.491   2.737  1.3060  0.6201 -0.4621
15482SOL    HW247868   7.203   2.558   2.836 -0.3905  1.8292  0.3556
15483SOL     OW47869   9.206   1.114   7.196  0.0796 -0.3725  0.3307
15483SOL    HW147870   9.286   1.152   7.160  0.1587  0.0233  0.9188
15483SOL    HW247871   9.140   1.126   7.127  0.7612 -1.6143 -0.5678
15484SOL     OW47872   4.749   6.028   8.459 -0.0642  0.4810  0.1122
15484SOL    HW147873   4.671   5.985   8.425 -0.4832 -0.0890  1.6986
15484SOL    HW247874   4.735   6.121   8.440 -1.0395  0.3629  0.2073
15485SOL     OW47875   8.062   5.029   3.200  0.3863 -0.3861 -0.3873
15485SOL    HW147876   8.120   5.050   3.274  0.7833  2.3145 -1.3805
15485SOL    HW247877   8.121   4.992   3.134  0.6569  0.4977 -0.6503
15486SOL     OW47878   3.240   5.897   4.597  0.3972  0.1219 -0.8306
15486SOL    HW147879   3.264   5.918   4.507  1.5489 -0.4155 -0.6677
15486SOL    HW247880   3.320   5.862   4.636 -0.0508  0.4545  0.4412
15487SOL     OW47881   8.599   8.854   5.930  0.0537  0.7222 -0.3643
15487SOL    HW147882   8.638   8.904   6.002  0.5643  0.2949 -0.3428
15487SOL    HW247883   8.672   8.804   5.893 -0.8146 -1.7036  0.9904
15488SOL     OW47884   0.941   7.527   6.710  0.6259 -0.3012  0.4434
15488SOL    HW147885   1.009   7.496   6.769 -0.9822 -0.9701  2.0201
15488SOL    HW247886   0.860   7.517   6.759 -0.6594  0.2395 -1.4668
15489SOL     OW47887   0.469   4.997   2.560 -0.2926 -0.3480  0.3339
15489SOL    HW147888   0.474   4.926   2.496  0.1692 -0.2896  0.2998
15489SOL    HW247889   0.544   4.982   2.618 -0.7616 -0.4553  0.9214
15490SOL     OW47890   7.717   6.464   5.283  0.2277  0.2430 -0.4740
15490SOL    HW147891   7.784   6.408   5.324  0.8118  2.0771  1.2352
15490SOL    HW247892   7.641   6.456   5.340  1.0947  2.9353  1.2666
15491SOL     OW47893   7.623   0.587   1.702  0.2659 -0.0079 -0.4635
15491SOL    HW147894   7.594   0.558   1.616 -0.5391 -1.3165  0.2133
15491SOL    HW247895   7.545   0.626   1.742  0.5395  0.2778 -0.2046
15492SOL     OW47896   6.743   2.433   6.211  0.5199 -0.2823  0.6450
15492SOL    HW147897   6.698   2.496   6.156  1.6040  2.3999  2.6235
15492SOL    HW247898   6.680   2.410   6.279  0.9564  0.7056  1.3933
15493SOL     OW47899   7.191   8.643   6.669  0.0848 -0.1687  0.2383
15493SOL    HW147900   7.200   8.635   6.574 -0.3709  1.6289  0.0019
15493SOL    HW247901   7.271   8.689   6.697 -0.2719  0.2744  0.5530
15494SOL     OW47902   0.056   2.915   6.932 -0.3713  0.4759  0.0340
15494SOL    HW147903   0.015   2.920   6.845 -1.9077  1.6536  0.7814
15494SOL    HW247904   0.144   2.881   6.915 -0.2974  1.5821 -2.0992
15495SOL     OW47905   6.995   1.095   8.336 -0.4261  0.0977 -0.1485
15495SOL    HW147906   7.027   1.074   8.424 -0.7433  0.7138  0.1163
15495SOL    HW247907   6.902   1.074   8.339 -0.6577  1.1072 -0.0140
15496SOL     OW47908   1.634   4.039   1.350  0.1507 -0.4743  0.1090
15496SOL    HW147909   1.595   3.958   1.383 -0.7599  0.4711  1.4917
15496SOL    HW247910   1.614   4.039   1.256  0.7049 -2.1195 -0.0384
15497SOL     OW47911   5.206   5.784   3.492  0.2208  0.0053  0.2513
15497SOL    HW147912   5.165   5.753   3.412  0.8403  0.3037 -0.1916
15497SOL    HW247913   5.267   5.715   3.517  0.8498  0.3904 -0.1690
15498SOL     OW47914   2.528   6.375   1.724  0.3960  0.2679  0.4004
15498SOL    HW147915   2.548   6.432   1.798  0.2113  1.0033 -0.1025
15498SOL    HW247916   2.607   6.379   1.670 -0.1129  1.1389 -0.3095
15499SOL     OW47917   9.144   1.390   7.879 -0.1880 -0.2918  0.0254
15499SOL    HW147918   9.154   1.476   7.919  2.5443 -1.6793  2.7618
15499SOL    HW247919   9.161   1.404   7.786 -0.7364  2.1941  0.2213
15500SOL     OW47920   1.677   3.869   7.551 -0.0561 -0.0509  0.0786
15500SOL    HW147921   1.629   3.887   7.471 -1.3198 -0.5672  0.6878
15500SOL    HW247922   1.645   3.934   7.613  0.3600 -0.1181  0.3637
15501SOL     OW47923   0.601   3.183   4.471 -0.6342  0.3372  0.5330
15501SOL    HW147924   0.567   3.111   4.419  0.4104  0.8610 -0.9238
15501SOL    HW247925   0.555   3.261   4.439  0.3917  0.7413 -0.0008
15502SOL     OW47926   5.366   7.108   7.083  1.2660 -0.0913  0.5875
15502SOL    HW147927   5.424   7.138   7.013  1.4340  0.3176  0.8947
15502SOL    HW247928   5.279   7.105   7.043  1.3523  0.1963  0.3739
15503SOL     OW47929   8.079   5.568   3.544 -0.0852 -0.4557  0.3085
15503SOL    HW147930   8.008   5.538   3.601  0.3697  0.8588  1.6282
15503SOL    HW247931   8.158   5.559   3.598  0.4996 -0.1115 -0.4793
15504SOL     OW47932   6.981   3.605   5.691  0.4049  0.3214 -0.5503
15504SOL    HW147933   6.985   3.666   5.764  0.3108 -0.0989 -0.1866
15504SOL    HW247934   7.008   3.521   5.728 -1.7264 -0.3830 -0.4441
15505SOL     OW47935   0.893   6.312   0.446 -0.2060 -0.1596 -0.3711
15505SOL    HW147936   0.947   6.234   0.436  0.5051  0.4818 -1.6829
15505SOL    HW247937   0.927   6.374   0.382 -1.0047  1.1036  0.3812
15506SOL     OW47938   3.197   8.660   6.626  0.1469 -0.0818  0.0028
15506SOL    HW147939   3.266   8.607   6.586 -1.2508 -0.4103 -2.1968
15506SOL    HW247940   3.116   8.626   6.588 -1.0522  1.6571  0.8491
15507SOL     OW47941   5.701   0.722   6.612 -0.4530 -0.3463  0.1411
15507SOL    HW147942   5.751   0.688   6.686 -0.0533 -1.5947 -0.6810
15507SOL    HW247943   5.666   0.806   6.643 -0.2440 -0.8182  1.7117
15508SOL     OW47944   6.708   4.267   0.314 -0.0647  0.3375  0.1625
15508SOL    HW147945   6.648   4.213   0.262 -1.5455  1.9095  0.1475
15508SOL    HW247946   6.747   4.327   0.250  2.0829 -1.0588  0.0592
15509SOL     OW47947   3.355   5.105   1.781  0.4901  0.8492  0.0650
15509SOL    HW147948   3.347   5.199   1.765 -0.2844  1.1265  1.7867
15509SOL    HW247949   3.295   5.088   1.853  1.4066 -0.7707  0.5057
15510SOL     OW47950   3.076   5.381   2.680  0.8175 -0.5172 -0.9183
15510SOL    HW147951   3.013   5.418   2.619  0.6195  0.0063 -0.4016
15510SOL    HW247952   3.155   5.435   2.669  0.9646 -0.7682 -1.1045
15511SOL     OW47953   6.982   4.219   8.076  0.6060  0.2202  0.2079
15511SOL    HW147954   6.982   4.141   8.132  0.1107 -0.4147 -0.6362
15511SOL    HW247955   6.952   4.289   8.133 -0.1951 -0.4704  0.6668
15512SOL     OW47956   4.987   6.021   3.844 -0.8950 -0.5510 -0.2314
15512SOL    HW147957   4.973   6.102   3.892  0.5093 -0.1425 -0.4702
15512SOL    HW247958   5.054   5.974   3.895  0.9730  0.0942 -1.9532
15513SOL     OW47959   1.568   6.024   0.811 -0.0554 -0.3341 -0.5232
15513SOL    HW147960   1.610   6.014   0.726  0.1018 -1.2692 -0.3523
15513SOL    HW247961   1.474   6.015   0.793  0.0101 -1.0845 -0.5396
15514SOL     OW47962   6.498   4.836   4.666  0.2392  0.4076 -0.0945
15514SOL    HW147963   6.557   4.880   4.604 -0.2842  1.3288  0.0318
15514SOL    HW247964   6.501   4.891   4.745 -0.2367  0.0764  0.1628
15515SOL     OW47965   6.921   8.973   1.645  0.6860  0.1786 -0.2984
15515SOL    HW147966   6.979   8.897   1.635 -0.4011 -0.7239 -0.0308
15515SOL    HW247967   6.941   9.007   1.732  0.2710 -0.6239  0.1230
15516SOL     OW47968   6.028   2.553   1.866 -0.5091 -0.4333  0.0090
15516SOL    HW147969   6.065   2.478   1.913  0.4268 -0.8375 -1.3080
15516SOL    HW247970   5.943   2.522   1.835 -0.9134 -0.3292  0.9679
15517SOL     OW47971   5.124   8.120   5.668 -0.1793 -0.1742 -0.0759
15517SOL    HW147972   5.117   8.210   5.699 -1.1483 -0.3892  0.3540
15517SOL    HW247973   5.211   8.115   5.629  0.3599  0.6009  0.9862
15518SOL     OW47974   9.117   6.243   0.599  0.0621 -0.3586  0.0957
15518SOL    HW147975   9.074   6.221   0.516  0.3656  0.9203 -0.4340
15518SOL    HW247976   9.047   6.280   0.653  0.2809  0.9283 -0.4542
15519SOL     OW47977   6.026   7.491   8.223 -0.1948 -0.0775 -0.0758
15519SOL    HW147978   6.117   7.479   8.250  0.2696  0.3015 -1.3991
15519SOL    HW247979   5.983   7.527   8.301  1.2137  1.5930  0.0005
15520SOL     OW47980   1.987   8.603   5.556 -0.1772  0.0721  0.2987
15520SOL    HW147981   1.992   8.519   5.511  1.3323  1.1405 -1.6964
15520SOL    HW247982   2.044   8.661   5.506  0.0497  1.9142  2.4890
15521SOL     OW47983   6.618   8.054   8.335 -0.1212  0.3684  0.3194
15521SOL    HW147984   6.626   8.136   8.385 -2.0155  1.0528 -0.3825
15521SOL    HW247985   6.571   8.080   8.255  1.1622 -1.0399 -0.9553
15522SOL     OW47986   6.428   3.665   0.306  0.3355  0.2149  0.2180
15522SOL    HW147987   6.387   3.647   0.391  2.4016 -1.6266  0.9157
15522SOL    HW247988   6.369   3.624   0.242 -0.1888 -0.1910  0.9513
15523SOL     OW47989   3.224   8.925   8.946 -0.4571  0.3524 -0.3040
15523SOL    HW147990   3.320   8.928   8.950 -0.4804 -0.2659  1.3448
15523SOL    HW247991   3.198   9.015   8.928  0.3470  1.3957  3.0698
15524SOL     OW47992   6.777   7.909   2.252 -0.4324  0.7986 -0.7339
15524SOL    HW147993   6.799   8.002   2.264  2.5505  0.0076  0.9750
15524SOL    HW247994   6.730   7.885   2.332  1.9530  0.0931  0.5314
15525SOL     OW47995   9.130   7.671   5.998 -0.1400  0.4616  0.0788
15525SOL    HW147996   9.176   7.745   5.960 -3.2930  2.9253  0.6484
15525SOL    HW247997   9.090   7.627   5.923 -2.5023  2.5466 -0.0166
15526SOL     OW47998   1.254   7.854   4.800  0.4720 -0.0440 -0.3333
15526SOL    HW147999   1.266   7.940   4.840 -0.2684  0.6765 -1.6288
15526SOL    HW248000   1.328   7.845   4.739  1.7739 -1.2716  1.3080
15527SOL     OW48001   2.746   2.781   4.931 -0.1108 -0.7451  0.1171
15527SOL    HW148002   2.810   2.828   4.985 -1.3745 -0.6879  1.6452
15527SOL    HW248003   2.787   2.775   4.845  1.4471  0.3019  0.7380
15528SOL     OW48004   0.035   8.273   9.042 -0.6531 -0.4644 -0.0336
15528SOL    HW148005   0.079   8.331   8.980 -0.7359 -1.4586 -1.0420
15528SOL    HW248006   0.070   8.299   9.128 -1.1265  1.4573 -0.3823
15529SOL     OW48007   8.947   8.811   0.038 -0.2694 -0.7082 -0.0558
15529SOL    HW148008   9.031   8.820   0.082 -1.2023  2.4852  1.3853
15529SOL    HW248009   8.948   8.881  -0.028 -1.3834 -1.3660 -0.7982
15530SOL     OW48010   3.218   1.712   7.390  0.5785  0.0908  0.2256
15530SOL    HW148011   3.286   1.741   7.451 -0.4798  1.8009  0.6521
15530SOL    HW248012   3.264   1.699   7.307  1.6416 -0.0740  0.8174
15531SOL     OW48013   7.325   3.821   9.046  0.6862 -0.3489  0.3119
15531SOL    HW148014   7.415   3.849   9.062  1.4327 -2.4231 -0.0349
15531SOL    HW248015   7.321   3.732   9.079 -0.5316 -1.1708 -1.8453
15532SOL     OW48016   8.484   7.392   8.949 -0.1611  0.4337  0.0243
15532SOL    HW148017   8.476   7.330   8.877 -0.1252  0.3566  0.0863
15532SOL    HW248018   8.424   7.359   9.015 -0.0613  0.4033  0.1011
15533SOL     OW48019   8.329   7.824   7.616 -0.6318 -0.7768  0.3081
15533SOL    HW148020   8.300   7.760   7.551  0.0299 -0.5716 -0.2005
15533SOL    HW248021   8.250   7.845   7.666 -1.3152 -0.4325 -0.8668
15534SOL     OW48022   9.223   8.806   6.474 -0.0360 -0.2663  0.4586
15534SOL    HW148023   9.143   8.837   6.432  0.8087  0.0666 -0.9862
15534SOL    HW248024   9.241   8.872   6.542  0.0594  0.7460 -0.5215
15535SOL     OW48025   7.555   2.405   4.589 -0.4416  0.0721 -0.1732
15535SOL    HW148026   7.472   2.399   4.542 -0.6131 -1.0866  0.2349
15535SOL    HW248027   7.561   2.497   4.614 -1.3888  0.2668 -0.5930
15536SOL     OW48028   9.052   6.120   4.043 -0.1198  0.2414 -0.1335
15536SOL    HW148029   9.001   6.184   3.993 -1.0420 -0.1810  0.2379
15536SOL    HW248030   9.142   6.133   4.014  0.0211  2.9022  1.1676
15537SOL     OW48031   9.252   6.363   8.135 -0.4234 -0.2372 -0.1507
15537SOL    HW148032   9.312   6.381   8.063  0.2090  0.8326  0.6025
15537SOL    HW248033   9.264   6.270   8.155 -0.1262 -0.3792 -0.9838
15538SOL     OW48034   7.105   4.501   7.363 -0.1172 -0.8861  0.6736
15538SOL    HW148035   7.094   4.571   7.427 -0.1357 -0.2238 -0.0415
15538SOL    HW248036   7.029   4.509   7.306  1.2468  0.3156 -1.0933
15539SOL     OW48037   8.279   3.972   7.960  0.2992  0.0890 -0.4572
15539SOL    HW148038   8.293   3.886   7.998 -1.1160  0.8726  2.0559
15539SOL    HW248039   8.194   4.000   7.994 -0.1349  1.7579 -2.6719
15540SOL     OW48040   6.438   4.106   4.070 -0.7268 -0.0218 -0.7359
15540SOL    HW148041   6.504   4.122   4.002 -3.6111 -2.2436 -4.4446
15540SOL    HW248042   6.364   4.161   4.044 -1.0651  1.1947  2.3864
15541SOL     OW48043   4.770   4.484   8.156  0.7945 -0.3713 -0.0705
15541SOL    HW148044   4.811   4.549   8.100  1.1332 -0.6773 -0.1783
15541SOL    HW248045   4.842   4.429   8.187  0.2977 -2.0229 -1.6762
15542SOL     OW48046   3.813   2.880   5.185 -0.2806 -0.0307  0.1588
15542SOL    HW148047   3.838   2.880   5.092 -1.5537 -1.5202 -0.2308
15542SOL    HW248048   3.720   2.902   5.184  0.0204  1.3922  1.2304
15543SOL     OW48049   6.685   5.114   8.944  0.7362 -0.2615  0.3084
15543SOL    HW148050   6.766   5.097   8.896  0.0044  0.2298 -1.1774
15543SOL    HW248051   6.713   5.161   9.023  1.7482  2.1772 -1.3890
15544SOL     OW48052   7.917   0.491   2.910  0.1855 -0.2080  0.6044
15544SOL    HW148053   7.981   0.561   2.924 -1.7664  1.6207  0.8369
15544SOL    HW248054   7.901   0.490   2.816 -0.2252  0.0779  0.6688
15545SOL     OW48055   0.804   0.785   1.629 -0.3251 -0.0112  0.1727
15545SOL    HW148056   0.890   0.782   1.672 -0.9488 -0.6475  1.4207
15545SOL    HW248057   0.809   0.719   1.560  0.0094 -0.4369  0.5949
15546SOL     OW48058   6.951   8.456   0.066  0.1953  0.4583  0.2936
15546SOL    HW148059   7.001   8.384   0.105 -1.3349 -0.1116  1.2758
15546SOL    HW248060   6.901   8.493   0.138 -0.0004  1.7160 -0.4508
15547SOL     OW48061   3.234   2.938   0.521 -0.5679  0.0593 -0.0412
15547SOL    HW148062   3.152   2.943   0.570  0.4944 -1.4140  2.0561
15547SOL    HW248063   3.212   2.892   0.440 -1.7161 -0.8679  0.7724
15548SOL     OW48064   6.188   4.151   9.045 -0.2372 -0.2549 -0.2696
15548SOL    HW148065   6.118   4.153   8.980 -2.0129  0.7788  1.5779
15548SOL    HW248066   6.152   4.100   9.117  1.1646 -0.2073  0.4990
15549SOL     OW48067   6.915   1.702   2.240 -0.7338 -0.2341  0.0565
15549SOL    HW148068   6.899   1.609   2.254 -1.7839 -0.0501  0.1672
15549SOL    HW248069   6.887   1.718   2.150  0.5972 -0.2592 -0.3798
15550SOL     OW48070   2.138   7.566   4.507 -0.2803  0.0078  0.4299
15550SOL    HW148071   2.058   7.518   4.528 -0.2201  0.0612  0.7985
15550SOL    HW248072   2.113   7.624   4.435  0.1590 -1.9468 -1.3638
15551SOL     OW48073   2.559   2.918   9.252 -0.4209  0.0044  0.4319
15551SOL    HW148074   2.497   2.880   9.314 -0.4154  2.0738  1.8008
15551SOL    HW248075   2.507   2.979   9.201 -0.1353 -0.6689 -0.6950
15552SOL     OW48076   2.402   4.527   1.066  0.0607  0.3954  0.0888
15552SOL    HW148077   2.333   4.516   1.132 -0.8009 -2.1518 -1.0905
15552SOL    HW248078   2.385   4.613   1.028 -0.6849  1.0329  1.7583
15553SOL     OW48079   8.084   2.857   0.858  0.6354  0.6602 -0.0033
15553SOL    HW148080   8.088   2.816   0.944  0.6717  1.6080  0.4639
15553SOL    HW248081   8.129   2.796   0.800 -0.5056 -0.5890  0.3922
15554SOL     OW48082   8.029   2.434   5.993  0.1966 -0.2489 -0.6487
15554SOL    HW148083   7.996   2.440   5.903  1.4471  0.2639 -1.0904
15554SOL    HW248084   8.107   2.488   5.994 -0.1469  0.2755  0.9361
15555SOL     OW48085   5.487   5.049   0.895  0.7418  0.0900 -0.7281
15555SOL    HW148086   5.442   5.063   0.978 -0.1579  0.0645 -1.2078
15555SOL    HW248087   5.542   5.126   0.884  1.0824 -0.0415  0.0273
15556SOL     OW48088   5.033   9.167   4.018  0.0339 -0.2884  0.0931
15556SOL    HW148089   4.971   9.228   4.059 -2.2578 -1.1174 -1.8664
15556SOL    HW248090   4.977   9.103   3.973  2.3411 -2.6500  0.3199
15557SOL     OW48091   3.398   3.616   4.205  0.2979  0.2001  0.3290
15557SOL    HW148092   3.402   3.664   4.122  0.4111 -2.0110 -1.0311
15557SOL    HW248093   3.485   3.628   4.244 -0.6335  3.7040  1.7117
15558SOL     OW48094   8.222   1.438   9.127 -0.1889  0.3038 -0.0909
15558SOL    HW148095   8.272   1.357   9.118 -1.7236 -0.6114 -0.5782
15558SOL    HW248096   8.270   1.488   9.194  1.1821 -0.6663 -0.3055
15559SOL     OW48097   5.261   1.777   0.260 -0.1412  0.6509  0.5788
15559SOL    HW148098   5.271   1.871   0.246  0.5972  0.2902 -1.8890
15559SOL    HW248099   5.339   1.738   0.220 -1.6648 -1.1191 -0.8719
15560SOL     OW48100   4.511   3.745   6.138 -0.7426  0.1193  0.4588
15560SOL    HW148101   4.570   3.775   6.207 -0.7903 -0.3723  0.7212
15560SOL    HW248102   4.441   3.699   6.184 -0.1538 -1.2626  0.0250
15561SOL     OW48103   2.856   4.367   2.308  0.2721  0.0820 -0.1803
15561SOL    HW148104   2.858   4.461   2.325 -0.2854  0.4235 -1.8430
15561SOL    HW248105   2.773   4.352   2.263 -0.4246 -1.5104  1.4718
15562SOL     OW48106   7.416   1.543   7.978 -0.3481 -0.4097  0.1501
15562SOL    HW148107   7.419   1.603   7.904 -0.9572  0.1220  0.5441
15562SOL    HW248108   7.440   1.596   8.054 -1.2076 -0.5706  0.5520
15563SOL     OW48109   3.178   8.155   7.636  0.1919  0.0220  0.1151
15563SOL    HW148110   3.138   8.188   7.716  1.2250 -0.2571  0.7577
15563SOL    HW248111   3.105   8.151   7.573 -1.0122 -1.3299  1.5015
15564SOL     OW48112   2.007   5.982   3.151  0.0133 -0.1998  0.3782
15564SOL    HW148113   1.912   5.995   3.145  0.1987  0.6332 -1.3452
15564SOL    HW248114   2.036   5.977   3.060  1.9823  2.4465  0.7596
15565SOL     OW48115   0.743   4.938   1.233  0.7742  0.3490 -0.5962
15565SOL    HW148116   0.693   4.952   1.314 -0.1169 -4.7014  0.0377
15565SOL    HW248117   0.695   4.987   1.166 -1.0698  1.0686  1.1453
15566SOL     OW48118   1.894   3.148   2.590  0.3364  0.6286 -0.9931
15566SOL    HW148119   1.978   3.139   2.635  1.3327 -2.0510 -3.1247
15566SOL    HW248120   1.912   3.208   2.517  0.6911 -0.6085 -1.9538
15567SOL     OW48121   6.853   2.480   3.311  0.4131  0.2582  0.0150
15567SOL    HW148122   6.770   2.445   3.344  0.0252 -0.0803 -1.2741
15567SOL    HW248123   6.903   2.403   3.285  2.1915  0.2403  3.0031
15568SOL     OW48124   5.956   7.129   5.825 -0.0556 -0.3460 -0.1371
15568SOL    HW148125   5.917   7.046   5.854  0.3427 -0.4393  0.1545
15568SOL    HW248126   5.961   7.121   5.730 -0.0057 -0.6670 -0.1110
15569SOL     OW48127   5.943   6.305   8.434 -0.0223  0.3649 -0.8799
15569SOL    HW148128   6.010   6.242   8.407 -0.1545  0.0994 -0.5993
15569SOL    HW248129   5.961   6.383   8.382  0.1577  0.1016 -1.2193
15570SOL     OW48130   7.380   7.733   0.285  0.0721 -0.4198  0.3908
15570SOL    HW148131   7.409   7.793   0.354 -0.2877 -0.0368  0.2114
15570SOL    HW248132   7.377   7.787   0.206  1.5757 -1.1029 -0.1864
15571SOL     OW48133   7.817   4.032   5.075  0.7282  0.3172  0.4170
15571SOL    HW148134   7.808   4.122   5.106 -0.2692  0.0247  1.0219
15571SOL    HW248135   7.904   4.029   5.036  0.7291  1.5749  0.2738
15572SOL     OW48136   0.060   0.285   0.994 -0.3296  0.2815 -0.3465
15572SOL    HW148137   0.018   0.321   1.072  0.0471  1.2572 -0.5789
15572SOL    HW248138  -0.013   0.249   0.942 -0.8549  1.6095 -0.5678
15573SOL     OW48139   0.535   8.307   7.337  0.3190 -0.1169 -0.4882
15573SOL    HW148140   0.518   8.225   7.385 -1.6189  1.7278  2.2662
15573SOL    HW248141   0.596   8.355   7.393 -0.3093  1.2613 -0.9628
15574SOL     OW48142   5.328   6.662   5.979 -0.1535 -0.2594  0.0538
15574SOL    HW148143   5.364   6.576   6.000  0.0051  0.2272  2.0298
15574SOL    HW248144   5.320   6.705   6.064 -1.4660  1.1968 -0.7600
15575SOL     OW48145   0.978   4.786   1.140  0.1563 -0.1932  0.2225
15575SOL    HW148146   0.907   4.831   1.185  1.7025  0.5504  2.0376
15575SOL    HW248147   1.006   4.718   1.201 -0.1652 -1.6962 -1.2375
15576SOL     OW48148   5.547   6.094   6.508 -0.0988  0.0344  0.3379
15576SOL    HW148149   5.521   6.138   6.589  1.4349  2.1865 -0.2695
15576SOL    HW248150   5.611   6.028   6.536 -0.9506 -0.5202  1.0409
15577SOL     OW48151   7.597   0.601   2.310 -0.0812 -0.3341 -0.0985
15577SOL    HW148152   7.537   0.552   2.255  0.0268  0.5430 -1.0279
15577SOL    HW248153   7.557   0.687   2.319  1.2927  0.4453 -1.2086
15578SOL     OW48154   8.744   3.931   7.032 -0.6478  0.1196 -0.6754
15578SOL    HW148155   8.789   4.006   7.069  0.3632 -0.3433 -0.9263
15578SOL    HW248156   8.793   3.855   7.064 -1.4181 -0.4153 -0.7286
15579SOL     OW48157   3.134   0.237   8.360 -0.3494  0.1051 -0.4744
15579SOL    HW148158   3.041   0.212   8.363 -0.2623 -0.1557  1.1579
15579SOL    HW248159   3.133   0.329   8.333 -1.0956  0.1219 -0.4185
15580SOL     OW48160   0.767   1.657   1.152  0.0076 -0.2020  0.3683
15580SOL    HW148161   0.806   1.594   1.091 -0.5275 -0.8691  0.7033
15580SOL    HW248162   0.829   1.662   1.224  0.0830 -0.2936  0.3105
15581SOL     OW48163   3.130   3.989   5.088 -0.3050  0.3387 -0.3405
15581SOL    HW148164   3.092   4.063   5.042 -0.8326  0.2435 -0.0621
15581SOL    HW248165   3.080   3.983   5.169 -0.1981 -0.2602 -0.3162
15582SOL     OW48166   2.477   7.452   4.090 -0.0759  0.5572  0.0469
15582SOL    HW148167   2.552   7.407   4.130 -0.0000  0.2748 -0.3978
15582SOL    HW248168   2.477   7.421   4.000 -0.8926  0.3470  0.1145
15583SOL     OW48169   2.341   4.604   8.868 -0.6887 -0.6032 -0.3091
15583SOL    HW148170   2.248   4.601   8.893 -0.5356 -3.4032  0.2132
15583SOL    HW248171   2.388   4.600   8.951 -0.0709 -0.0334 -0.6216
15584SOL     OW48172   8.054   6.488   5.034  0.3504 -0.3290 -0.6419
15584SOL    HW148173   7.992   6.554   5.067  0.2755  0.7874 -2.8731
15584SOL    HW248174   8.112   6.536   4.976  2.0425 -1.7672 -0.2283
15585SOL     OW48175   0.384   8.861   6.924  0.7068 -0.1273 -0.0360
15585SOL    HW148176   0.452   8.904   6.976 -1.8361  1.1735  2.4763
15585SOL    HW248177   0.375   8.916   6.846  2.4533 -0.3370 -0.4303
15586SOL     OW48178   2.092   6.820   2.770 -0.0616  0.3505 -0.2344
15586SOL    HW148179   2.041   6.787   2.696 -2.1940  1.8397  0.4776
15586SOL    HW248180   2.076   6.757   2.840  1.9773 -1.0732 -0.9520
15587SOL     OW48181   5.110   1.229   3.587 -0.0003 -0.0281 -0.2304
15587SOL    HW148182   5.073   1.170   3.521 -0.7459 -1.6274  1.5087
15587SOL    HW248183   5.200   1.242   3.559 -0.5019  0.0165 -1.9888
15588SOL     OW48184   1.998   2.206   0.715 -0.5752 -0.1211 -0.0120
15588SOL    HW148185   2.054   2.276   0.749  0.1222 -1.1843  1.1193
15588SOL    HW248186   1.996   2.220   0.620 -0.6516  1.5504  0.2092
15589SOL     OW48187   4.717   6.854   5.579 -0.3935  0.4663 -0.1830
15589SOL    HW148188   4.746   6.788   5.643 -1.8299  0.7815  0.8386
15589SOL    HW248189   4.697   6.930   5.632  1.5816  1.9270 -1.3724
15590SOL     OW48190   5.648   5.798   8.462  0.5210  0.3518 -0.5933
15590SOL    HW148191   5.578   5.846   8.419 -0.9864 -1.0564  0.1905
15590SOL    HW248192   5.684   5.859   8.526 -1.0158  0.6151  0.0427
15591SOL     OW48193   1.210   8.742   5.924 -0.1845 -0.0729 -0.1677
15591SOL    HW148194   1.224   8.730   5.830  2.0081 -0.9738  0.2232
15591SOL    HW248195   1.209   8.837   5.936  0.5961  0.0527 -0.9858
15592SOL     OW48196   0.803   1.417   6.740  0.2376  0.3458 -0.0720
15592SOL    HW148197   0.875   1.406   6.802  0.8344 -1.1374 -0.9406
15592SOL    HW248198   0.724   1.396   6.790  0.5170  0.8523  0.5985
15593SOL     OW48199   1.034   1.877   2.158 -0.2447 -0.0033 -0.2803
15593SOL    HW148200   1.123   1.847   2.137 -0.1174  0.0162  0.2028
15593SOL    HW248201   0.976   1.815   2.114  0.0102 -1.0089  0.7561
15594SOL     OW48202   9.021   6.024   4.448 -0.6015  0.3038 -0.6733
15594SOL    HW148203   8.993   5.933   4.440 -0.8649  0.3845 -0.6765
15594SOL    HW248204   9.072   6.026   4.529 -2.9141  0.7252  0.8716
15595SOL     OW48205   2.923   6.831   7.507  0.8355  0.0167 -0.3697
15595SOL    HW148206   2.870   6.908   7.484  1.3636  0.4183 -0.2644
15595SOL    HW248207   2.905   6.768   7.438  1.2804  0.6623 -1.0847
15596SOL     OW48208   4.674   3.440   2.302 -0.3043  0.0812  0.2407
15596SOL    HW148209   4.679   3.370   2.367  1.4464  0.6660  0.8131
15596SOL    HW248210   4.745   3.500   2.327  1.1792 -0.2011 -2.8382
15597SOL     OW48211   6.406   4.617   2.232 -0.2024  0.1775 -0.0731
15597SOL    HW148212   6.374   4.641   2.145 -0.5789  0.1539  0.0563
15597SOL    HW248213   6.482   4.561   2.215  0.1109  0.6784 -0.3816
15598SOL     OW48214   4.272   4.692   4.407  0.1931 -0.1682 -0.8520
15598SOL    HW148215   4.228   4.631   4.466  0.2106  0.4656 -0.1733
15598SOL    HW248216   4.212   4.702   4.333 -0.2812 -0.2062 -0.4759
15599SOL     OW48217   1.663   4.909   3.911 -0.4506 -0.2224  0.7120
15599SOL    HW148218   1.741   4.959   3.934  0.0842  0.0787 -1.5751
15599SOL    HW248219   1.687   4.818   3.928  0.3300 -0.1059  0.2694
15600SOL     OW48220   0.240   2.035   3.577  0.0062  0.4035 -0.0934
15600SOL    HW148221   0.250   1.943   3.603 -2.4132 -0.8492 -2.9751
15600SOL    HW248222   0.316   2.054   3.523  0.8471  0.3687  1.0395
15601SOL     OW48223   8.200   0.115   3.686 -0.2478 -0.6980  0.3045
15601SOL    HW148224   8.129   0.094   3.747 -1.8110  1.0066 -0.8309
15601SOL    HW248225   8.242   0.192   3.723 -1.1432  0.2877 -0.6652
15602SOL     OW48226   7.067   6.877   5.231  0.0432 -0.3041 -0.2730
15602SOL    HW148227   6.992   6.873   5.172 -1.2097  0.7990  1.1366
15602SOL    HW248228   7.117   6.798   5.213 -1.8410 -1.4294 -0.7889
15603SOL     OW48229   1.142   0.775   7.109 -0.4165 -0.1279 -0.0890
15603SOL    HW148230   1.086   0.776   7.187 -0.2378  0.5258  0.0371
15603SOL    HW248231   1.086   0.806   7.038  0.0481  1.5442  0.2358
15604SOL     OW48232   0.976   9.046   0.109  0.1531 -0.1605 -0.4094
15604SOL    HW148233   1.027   8.987   0.055 -1.5581  0.6503 -3.1147
15604SOL    HW248234   1.028   9.126   0.113  0.1023 -0.0757 -1.2920
15605SOL     OW48235   6.596   0.827   4.360 -0.2051 -0.1428 -0.0125
15605SOL    HW148236   6.684   0.866   4.360 -0.5769  0.7314 -0.8056
15605SOL    HW248237   6.612   0.733   4.349  0.5999  0.2270 -2.8935
15606SOL     OW48238   7.189   7.514   5.550  0.3859 -0.2322  0.5757
15606SOL    HW148239   7.220   7.544   5.465  2.3504  0.9095  1.6099
15606SOL    HW248240   7.269   7.500   5.601 -0.6964 -1.8818  1.9264
15607SOL     OW48241   4.283   3.471   2.158 -0.1964  0.6904  0.1672
15607SOL    HW148242   4.350   3.413   2.122  1.2014  1.0654  2.0016
15607SOL    HW248243   4.269   3.441   2.247 -0.0158  2.6185  0.9112
15608SOL     OW48244   3.637   4.312   4.987 -0.1226  0.2020 -0.3071
15608SOL    HW148245   3.580   4.389   4.979 -1.0385 -0.3213  0.8499
15608SOL    HW248246   3.715   4.335   4.937 -0.6620  1.6137 -0.5579
15609SOL     OW48247   5.311   0.362   5.205  0.1419 -0.0097  0.0189
15609SOL    HW148248   5.276   0.314   5.130  0.1802  1.5557 -1.0559
15609SOL    HW248249   5.293   0.454   5.185 -1.8257  0.3958  2.9424
15610SOL     OW48250   2.551   6.556   7.690  0.0411 -0.0506 -0.1233
15610SOL    HW148251   2.544   6.641   7.733 -1.9415  0.0064 -0.4296
15610SOL    HW248252   2.502   6.496   7.748  0.5250 -0.7599 -0.4311
15611SOL     OW48253   1.088   6.134   1.145  0.1128 -0.2977  0.3202
15611SOL    HW148254   1.044   6.139   1.060  0.5858 -1.0321  0.0200
15611SOL    HW248255   1.070   6.218   1.187  0.1401  0.1898 -0.6334
15612SOL     OW48256   3.543   0.770   4.939  0.5585 -0.2425 -0.1089
15612SOL    HW148257   3.480   0.838   4.916  0.1323 -0.6314 -0.1013
15612SOL    HW248258   3.493   0.688   4.933  1.0511 -0.5477 -0.0613
15613SOL     OW48259   5.336   6.477   6.543  0.2237  0.2721  0.2161
15613SOL    HW148260   5.320   6.438   6.629  0.2901  2.1136  1.1128
15613SOL    HW248261   5.415   6.434   6.511  1.2719  0.8486  1.9105
15614SOL     OW48262   2.999   3.843   0.097 -0.0018  0.1142  0.1622
15614SOL    HW148263   2.945   3.787   0.153  0.2222  0.8856  1.1845
15614SOL    HW248264   3.074   3.789   0.073 -0.9836 -0.8206 -0.9070
15615SOL     OW48265   8.253   3.433   8.415  0.2824 -0.2090  0.0760
15615SOL    HW148266   8.257   3.507   8.476  0.2140  0.8900 -1.2060
15615SOL    HW248267   8.345   3.418   8.390  0.1191  0.9210 -1.3360
15616SOL     OW48268   1.790   2.029   0.236  0.8542 -0.4010 -0.2178
15616SOL    HW148269   1.763   1.937   0.231 -2.0313  0.3515 -0.1593
15616SOL    HW248270   1.767   2.056   0.325 -1.9888  1.3293 -1.3564
15617SOL     OW48271   1.427   4.214   8.279  0.2323 -0.1332  0.2518
15617SOL    HW148272   1.372   4.283   8.244 -0.8683 -0.6343  0.9413
15617SOL    HW248273   1.415   4.219   8.374  0.5444 -0.9344  0.3414
15618SOL     OW48274   0.266   2.408   1.309 -0.0924 -0.1340  0.0757
15618SOL    HW148275   0.232   2.475   1.368 -2.4401 -0.9569 -0.2458
15618SOL    HW248276   0.359   2.400   1.333 -0.2001  1.8455  1.3947
15619SOL     OW48277   8.223   7.045   6.196 -0.4990  0.8358  0.7632
15619SOL    HW148278   8.298   7.006   6.151 -1.3228  0.4772 -0.3430
15619SOL    HW248279   8.254   7.062   6.285 -0.3695 -3.2511  1.6645
15620SOL     OW48280   9.215   0.619   0.617 -0.1468  0.9457 -0.3230
15620SOL    HW148281   9.140   0.588   0.567 -0.0920 -0.3711  0.3729
15620SOL    HW248282   9.275   0.545   0.619  0.3630  1.3637  0.6912
15621SOL     OW48283   8.157   3.322   4.218  0.2141 -0.2215  0.3531
15621SOL    HW148284   8.220   3.393   4.225  0.5778 -0.7443  3.4834
15621SOL    HW248285   8.092   3.340   4.285 -1.3641 -1.2937 -0.8049
15622SOL     OW48286   2.678   0.664   5.154  0.0101  0.6020 -0.3142
15622SOL    HW148287   2.591   0.660   5.114 -1.1147  1.7531  1.7740
15622SOL    HW248288   2.737   0.686   5.082 -1.9234  2.9979 -1.3478
15623SOL     OW48289   3.783   8.858   3.152  0.4546 -0.5767 -0.5520
15623SOL    HW148290   3.789   8.766   3.128 -0.7517 -0.5760 -0.9206
15623SOL    HW248291   3.714   8.893   3.096  0.2743  0.3323  0.2169
15624SOL     OW48292   7.119   9.142   9.118 -0.4434  0.3411  0.2598
15624SOL    HW148293   7.209   9.110   9.129 -0.5920  0.0739  0.6961
15624SOL    HW248294   7.097   9.117   9.028 -0.0440  0.5096  0.1086
15625SOL     OW48295   5.821   6.237   6.500  0.5770  0.1623 -0.0512
15625SOL    HW148296   5.728   6.250   6.516  0.7853 -0.0375  1.4089
15625SOL    HW248297   5.829   6.239   6.404 -0.9399 -0.0181 -0.2040
15626SOL     OW48298   5.801   3.676   2.730  0.7499  0.5154  0.2125
15626SOL    HW148299   5.850   3.748   2.690 -0.3271  0.8607 -0.5199
15626SOL    HW248300   5.868   3.622   2.773  2.0523 -0.1230 -2.4207
15627SOL     OW48301   3.117   3.833   7.644  0.0094  0.3397 -0.0199
15627SOL    HW148302   3.164   3.895   7.701 -1.0608  1.3065 -0.1668
15627SOL    HW248303   3.103   3.757   7.700 -0.1282  0.8780  0.7074
15628SOL     OW48304   4.007   0.113   3.270 -0.0249  0.2301 -0.2017
15628SOL    HW148305   3.938   0.048   3.254  0.4533 -0.7128  1.3984
15628SOL    HW248306   4.070   0.098   3.200 -1.5718  1.3579 -1.9196
15629SOL     OW48307   3.002   2.448   0.884  0.3446  0.5257 -0.1011
15629SOL    HW148308   2.975   2.405   0.964  1.6990 -1.0922 -0.4579
15629SOL    HW248309   3.093   2.473   0.899  0.7649 -0.2001 -1.2479
15630SOL     OW48310   3.548   5.936   1.381 -0.0805  0.0923  0.6715
15630SOL    HW148311   3.502   5.883   1.446 -0.7360  0.3338  0.4169
15630SOL    HW248312   3.592   6.005   1.431  0.7898 -0.6803  1.0076
15631SOL     OW48313   8.898   4.806   7.335  0.3194  0.2086  0.2846
15631SOL    HW148314   8.828   4.745   7.360  0.4306 -0.8383 -1.7033
15631SOL    HW248315   8.891   4.811   7.240  3.0029 -0.0143  0.0006
15632SOL     OW48316   0.821   6.944   8.246 -0.6024 -0.7590 -0.1904
15632SOL    HW148317   0.803   6.938   8.340  0.3916  2.5359  0.3691
15632SOL    HW248318   0.735   6.961   8.207 -0.7210  0.6662  0.5766
15633SOL     OW48319   7.689   4.498   2.631 -0.0532  0.0059 -0.1469
15633SOL    HW148320   7.594   4.504   2.644 -0.1021 -0.8817 -0.0629
15633SOL    HW248321   7.701   4.422   2.574  0.6860 -0.6338  0.8301
15634SOL     OW48322   6.430   6.076   4.538  0.5916 -0.1121  0.1749
15634SOL    HW148323   6.508   6.076   4.484  2.1225  0.4724  2.2427
15634SOL    HW248324   6.390   5.990   4.524  2.2765 -0.8879 -0.0497
15635SOL     OW48325   1.163   6.692   6.575  0.3937 -0.6250  0.9167
15635SOL    HW148326   1.170   6.651   6.488  1.7470 -1.0552  1.2014
15635SOL    HW248327   1.237   6.752   6.579 -0.9074  1.0396  0.9599
15636SOL     OW48328   1.266   6.867   0.457 -0.1186  0.2930 -0.2308
15636SOL    HW148329   1.216   6.785   0.455  0.8671 -0.3320 -1.5440
15636SOL    HW248330   1.343   6.849   0.403  1.4913  1.2491  1.6140
15637SOL     OW48331   2.368   7.950   4.575 -0.3964  0.4030  0.1764
15637SOL    HW148332   2.274   7.947   4.596 -0.7301  1.2618 -1.0555
15637SOL    HW248333   2.372   7.996   4.491  0.9777 -1.3777 -0.7916
15638SOL     OW48334   6.907   6.058   1.135 -0.3931  0.0392 -0.1252
15638SOL    HW148335   6.913   6.098   1.048 -0.7796  0.6439  0.1188
15638SOL    HW248336   6.984   6.089   1.181 -1.5770  2.0255  0.6615
15639SOL     OW48337   0.552   3.312   0.294 -0.3903  0.0380 -0.4660
15639SOL    HW148338   0.573   3.234   0.243  0.0972 -0.9495  1.1931
15639SOL    HW248339   0.636   3.342   0.328 -0.7531  0.4830  0.0508
15640SOL     OW48340   2.413   1.755   0.022  0.3049  0.6183  0.5038
15640SOL    HW148341   2.448   1.678  -0.024 -0.6609 -0.0759  0.8997
15640SOL    HW248342   2.470   1.765   0.098  0.8160  0.6870  0.1251
15641SOL     OW48343   0.080   6.191   0.778  0.3441  0.5607  0.1217
15641SOL    HW148344   0.147   6.205   0.711  0.2258  0.4351 -0.0237
15641SOL    HW248345  -0.002   6.212   0.734  0.0132 -1.8212 -0.5276
15642SOL     OW48346   2.223   1.278   5.245  0.0513 -0.5822  0.4828
15642SOL    HW148347   2.297   1.339   5.253  0.5000 -1.1173  0.5326
15642SOL    HW248348   2.258   1.195   5.279  0.1712 -1.4647 -1.6602
15643SOL     OW48349   1.863   5.724   2.137  0.1018 -0.0211  0.3365
15643SOL    HW148350   1.857   5.631   2.161 -0.9058 -0.0673 -0.0173
15643SOL    HW248351   1.798   5.734   2.067  0.4665  0.8755  0.1157
15644SOL     OW48352   4.245   7.426   2.565 -0.5603  0.1591 -0.3096
15644SOL    HW148353   4.294   7.503   2.593  1.0166 -0.6902 -0.6125
15644SOL    HW248354   4.306   7.376   2.512 -1.9266 -0.7291 -1.1142
15645SOL     OW48355   8.112   4.432   5.125  0.0643 -0.9549  0.1003
15645SOL    HW148356   8.144   4.397   5.208 -0.7484 -0.0154  0.8273
15645SOL    HW248357   8.158   4.380   5.058  2.5270 -0.1840  1.0860
15646SOL     OW48358   9.215   2.123   2.710  0.4757  0.1668  0.0647
15646SOL    HW148359   9.134   2.092   2.752 -0.2308  1.3213 -0.4129
15646SOL    HW248360   9.218   2.216   2.729  3.5246 -0.3583  3.0716
15647SOL     OW48361   0.620   7.383   5.949 -0.0103 -0.7600  0.3538
15647SOL    HW148362   0.702   7.345   5.979  0.4215  0.1075  0.3035
15647SOL    HW248363   0.554   7.350   6.010  0.3910 -1.3712  0.4599
15648SOL     OW48364   2.492   0.498   1.797 -0.2222  0.0437 -0.2867
15648SOL    HW148365   2.587   0.504   1.786 -0.2859  0.6041 -0.5583
15648SOL    HW248366   2.460   0.465   1.714 -0.5363  2.6648 -1.3139
15649SOL     OW48367   0.756   7.042   0.400  0.3011  0.0564 -0.4012
15649SOL    HW148368   0.770   7.130   0.434 -0.8503  0.7196 -1.5528
15649SOL    HW248369   0.661   7.030   0.402  0.4537 -1.2700 -0.0209
15650SOL     OW48370   0.800   3.419   3.414  0.0056 -0.3443  0.0985
15650SOL    HW148371   0.738   3.455   3.351  1.4201  0.3799 -0.9402
15650SOL    HW248372   0.886   3.448   3.382  0.8695 -1.1715  1.5717
15651SOL     OW48373   6.645   7.626   5.201  0.6402 -0.0074  0.2334
15651SOL    HW148374   6.576   7.585   5.149 -0.6368 -0.0015  1.8174
15651SOL    HW248375   6.638   7.720   5.180  1.0917 -0.1656 -0.6361
15652SOL     OW48376   0.421   1.960   4.265 -0.2261  0.2518  0.0863
15652SOL    HW148377   0.391   1.875   4.232  0.7269 -0.8010  1.7694
15652SOL    HW248378   0.442   2.011   4.187  1.1832 -1.8133 -0.9699
15653SOL     OW48379   5.843   8.773   4.040  0.4900 -0.0357  0.0435
15653SOL    HW148380   5.889   8.856   4.028  2.4504 -1.4960 -4.7420
15653SOL    HW248381   5.762   8.783   3.990  1.3741 -1.3034 -1.7389
15654SOL     OW48382   4.960   4.537   5.881  0.0730  0.8474  0.7609
15654SOL    HW148383   4.966   4.545   5.976 -0.1665  0.4568  0.8072
15654SOL    HW248384   4.894   4.469   5.866  0.3553  0.6704  0.3183
15655SOL     OW48385   6.382   9.236   8.366  0.4942  0.2605  0.4889
15655SOL    HW148386   6.431   9.154   8.362 -0.2184 -0.1609  0.2692
15655SOL    HW248387   6.343   9.236   8.454 -1.7042 -0.9513 -0.4081
15656SOL     OW48388   2.018   8.988   4.173 -0.2427  0.1113  0.3690
15656SOL    HW148389   2.106   9.026   4.166 -0.2116  0.0099  0.2015
15656SOL    HW248390   1.959   9.063   4.163 -0.2158 -0.0646 -1.4667
15657SOL     OW48391   6.239   3.323   0.654  0.4737 -0.3155 -0.0987
15657SOL    HW148392   6.320   3.274   0.639  0.9081  0.4760 -0.4264
15657SOL    HW248393   6.267   3.403   0.699 -0.0845  0.0925 -0.4583
15658SOL     OW48394   5.196   5.310   3.849  0.3624 -0.0434  0.1255
15658SOL    HW148395   5.173   5.389   3.897 -2.5516 -1.3172  1.0587
15658SOL    HW248396   5.160   5.323   3.762 -0.8705 -0.6027  0.5241
15659SOL     OW48397   8.178   7.471   3.414 -0.5658  0.2224  0.1300
15659SOL    HW148398   8.162   7.557   3.375 -0.3277  1.1519  1.9789
15659SOL    HW248399   8.222   7.422   3.345 -3.7619  0.3279 -2.2306
15660SOL     OW48400   0.045   6.026   4.973  0.6265 -0.1129  0.2739
15660SOL    HW148401   0.083   5.947   4.934  0.2973  0.4169 -1.1956
15660SOL    HW248402   0.105   6.096   4.948  0.2939  0.2760  0.5479
15661SOL     OW48403   5.550   4.868   0.511  0.3203 -0.3686 -0.3936
15661SOL    HW148404   5.635   4.839   0.478 -0.4550 -0.9315 -2.0302
15661SOL    HW248405   5.564   4.881   0.605  2.2400 -0.2832 -0.6402
15662SOL     OW48406   4.892   8.367   5.526 -0.2341 -0.2650 -0.3696
15662SOL    HW148407   4.912   8.292   5.469 -1.6698 -1.0156  0.0650
15662SOL    HW248408   4.963   8.367   5.590 -0.5576 -1.6867  0.0345
15663SOL     OW48409   2.138   1.575   8.845  0.2313 -0.1826 -0.1427
15663SOL    HW148410   2.079   1.616   8.782 -0.4378  0.6060  0.9615
15663SOL    HW248411   2.109   1.608   8.930  1.9112 -0.2376  0.4753
15664SOL     OW48412   2.789   8.531   4.274 -0.3170  0.2453 -0.4134
15664SOL    HW148413   2.695   8.525   4.287 -0.3150  0.1199 -0.4600
15664SOL    HW248414   2.826   8.470   4.339 -0.2126  1.2323  0.4853
15665SOL     OW48415   6.523   2.854   6.542  0.1922 -0.1725  0.3075
15665SOL    HW148416   6.558   2.771   6.510 -0.7912  0.1971 -1.9668
15665SOL    HW248417   6.460   2.829   6.610 -1.3550 -1.5135 -1.4740
15666SOL     OW48418   5.686   6.821   5.196  0.4000  0.2578  0.0485
15666SOL    HW148419   5.722   6.862   5.275 -0.1455 -0.9362  0.9410
15666SOL    HW248420   5.598   6.858   5.187  0.9150  1.3775 -0.7858
15667SOL     OW48421   0.961   6.389   8.634 -0.5724 -0.5391 -0.0375
15667SOL    HW148422   0.886   6.330   8.636  0.2323 -1.5850 -0.3651
15667SOL    HW248423   0.991   6.393   8.725 -0.5139 -0.7887 -0.0451
15668SOL     OW48424   0.236   7.933   2.267  0.2318 -0.2571  0.2303
15668SOL    HW148425   0.207   8.024   2.256  0.1435 -0.1921  0.9592
15668SOL    HW248426   0.202   7.907   2.352  0.9935 -0.7003  0.4047
15669SOL     OW48427   6.246   7.522   6.144 -0.4117 -0.0109  0.2288
15669SOL    HW148428   6.213   7.489   6.227 -0.3608  0.8377  0.5886
15669SOL    HW248429   6.208   7.609   6.134  0.5591  0.4083 -0.0320
15670SOL     OW48430   6.836   7.478   5.573  0.5057 -0.2421 -0.1362
15670SOL    HW148431   6.897   7.409   5.548  1.7008  0.8532 -0.3176
15670SOL    HW248432   6.817   7.461   5.665 -2.3786 -3.1385 -1.0592
15671SOL     OW48433   7.436   5.794   4.789 -0.2768 -0.2176 -0.5370
15671SOL    HW148434   7.445   5.887   4.810 -1.4366 -0.3280  0.4837
15671SOL    HW248435   7.448   5.790   4.694 -0.1839  0.9676 -0.5858
15672SOL     OW48436   4.545   4.723   7.479  0.5613  0.3676  0.2062
15672SOL    HW148437   4.551   4.657   7.409 -1.0447 -1.1704  1.4415
15672SOL    HW248438   4.582   4.680   7.556  0.0556  1.1471  0.9027
15673SOL     OW48439   7.880   0.535   4.115 -0.1635  0.1319  0.6075
15673SOL    HW148440   7.840   0.476   4.050 -0.6111  0.5569  0.4884
15673SOL    HW248441   7.817   0.606   4.124 -0.5768 -0.3832  2.2233
15674SOL     OW48442   3.739   4.359   9.241  0.3654  0.3606 -0.2515
15674SOL    HW148443   3.769   4.283   9.291 -0.9494 -0.8462 -1.2206
15674SOL    HW248444   3.757   4.337   9.150 -3.8327 -0.8110 -1.0234
15675SOL     OW48445   6.476   1.268   0.702 -0.5014  0.1745  0.1237
15675SOL    HW148446   6.557   1.233   0.739 -1.4888 -1.6366  0.6405
15675SOL    HW248447   6.484   1.251   0.608 -0.1082  0.4179  0.1079
15676SOL     OW48448   6.130   0.180   1.609 -0.3613 -0.6397 -0.2249
15676SOL    HW148449   6.177   0.180   1.692  0.7407  2.3384 -0.7155
15676SOL    HW248450   6.145   0.093   1.572  2.9498 -0.5906  0.6852
15677SOL     OW48451   2.834   2.275   7.723  0.2198  0.0452 -0.0779
15677SOL    HW148452   2.788   2.350   7.685  0.8338 -0.3324 -1.6380
15677SOL    HW248453   2.923   2.282   7.690  0.4268 -1.0681  0.1962
15678SOL     OW48454   7.048   2.604   6.681 -0.3098 -0.2958  0.1446
15678SOL    HW148455   7.000   2.669   6.630  0.1457  0.5291  0.7524
15678SOL    HW248456   7.130   2.647   6.704  0.9433 -1.8175 -1.2288
15679SOL     OW48457   1.116   7.982   6.435  0.4577  0.7483  0.4593
15679SOL    HW148458   1.045   8.029   6.392 -0.0504  0.2276  0.7180
15679SOL    HW248459   1.119   8.020   6.523 -1.8581 -1.5795  1.6662
15680SOL     OW48460   8.687   6.667   9.254 -0.7184  0.2913  0.6115
15680SOL    HW148461   8.680   6.672   9.349 -0.3507 -1.0751  0.7428
15680SOL    HW248462   8.759   6.725   9.232 -1.0694  0.9339  1.1135
15681SOL     OW48463   4.848   0.905   3.131  0.1235 -0.0993 -0.6654
15681SOL    HW148464   4.831   0.818   3.094  0.2196 -0.1749 -0.5353
15681SOL    HW248465   4.903   0.949   3.067  0.9370 -0.5100 -0.2631
15682SOL     OW48466   1.374   8.057   2.255  0.2397 -0.0302 -0.2433
15682SOL    HW148467   1.431   8.066   2.332 -0.4903  1.4191  0.1523
15682SOL    HW248468   1.287   8.081   2.287 -0.3141 -0.6517 -1.2367
15683SOL     OW48469   5.584   2.934   9.084  0.0072  0.2335  0.8258
15683SOL    HW148470   5.508   2.945   9.027  2.1440  0.6978 -2.2049
15683SOL    HW248471   5.617   3.023   9.097  0.5472 -0.0311  1.3351
15684SOL     OW48472   4.042   4.282   0.605 -0.1627  0.2020  0.3082
15684SOL    HW148473   4.072   4.294   0.695 -2.1060 -1.4064  1.2582
15684SOL    HW248474   3.979   4.209   0.610 -1.9065  1.4026 -1.9775
15685SOL     OW48475   1.919   1.346   1.689 -0.4936  0.6165 -0.2231
15685SOL    HW148476   1.901   1.318   1.779 -0.4981  2.9767  0.5769
15685SOL    HW248477   1.912   1.266   1.637  1.0809 -1.1301  2.0659
15686SOL     OW48478   5.417   7.204   4.874  0.2299  0.7462  0.6401
15686SOL    HW148479   5.340   7.151   4.893 -0.0375  0.9646  0.1807
15686SOL    HW248480   5.478   7.144   4.832  0.4961  0.4616  1.4209
15687SOL     OW48481   1.087   7.820   6.745 -0.5613  0.9920  0.2170
15687SOL    HW148482   1.090   7.735   6.700  1.6937 -0.1752  2.3661
15687SOL    HW248483   1.018   7.811   6.810  0.7124  0.1699  1.4998
15688SOL     OW48484   1.423   4.995   4.920 -0.1810 -0.3655  0.8611
15688SOL    HW148485   1.474   4.925   4.960 -0.1707 -0.1534  1.2186
15688SOL    HW248486   1.383   4.954   4.843  1.4796 -0.2366 -0.1310
15689SOL     OW48487   4.597   9.272   1.860  0.3477  0.1225  0.3597
15689SOL    HW148488   4.509   9.236   1.852  1.1078 -1.6928 -0.4165
15689SOL    HW248489   4.587   9.366   1.841 -1.2088 -0.2833 -1.0051
15690SOL     OW48490   4.140   6.588   7.292  0.1993  0.0758  0.4250
15690SOL    HW148491   4.157   6.681   7.277  0.8737 -0.3400 -1.7161
15690SOL    HW248492   4.226   6.547   7.297 -0.0943 -0.5119  0.9168
15691SOL     OW48493   4.702   4.741   6.699  0.4755 -0.0309 -0.6063
15691SOL    HW148494   4.758   4.743   6.777 -1.1011  0.0417  0.5663
15691SOL    HW248495   4.666   4.829   6.693  0.8263  0.0565 -1.6278
15692SOL     OW48496   7.718   7.036   5.506  0.3892  0.0518 -0.0485
15692SOL    HW148497   7.637   7.041   5.455 -1.0306  1.2769  2.1567
15692SOL    HW248498   7.749   7.127   5.510  1.7520 -0.3688 -0.6317
15693SOL     OW48499   5.915   1.543   2.302  0.3618 -0.6734 -0.0838
15693SOL    HW148500   5.967   1.595   2.241 -1.8730  0.6772 -0.9684
15693SOL    HW248501   5.871   1.478   2.246  0.5457 -1.3542  0.5457
15694SOL     OW48502   7.480   2.697   2.764  0.0131 -0.1350  0.3995
15694SOL    HW148503   7.476   2.670   2.672 -1.5800 -1.1878  0.7359
15694SOL    HW248504   7.436   2.626   2.812  0.1471  0.7430  1.8886
15695SOL     OW48505   3.936   1.709   9.065 -0.5382  0.0216  0.2146
15695SOL    HW148506   3.904   1.633   9.017 -0.3953 -0.0913  0.2970
15695SOL    HW248507   3.977   1.764   8.999 -0.3513 -0.1283  0.2047
15696SOL     OW48508   6.472   3.994   3.452 -0.3341  0.1262  0.3697
15696SOL    HW148509   6.378   3.999   3.472  0.1362 -1.2096  3.5444
15696SOL    HW248510   6.512   4.061   3.507  0.6420  0.3693 -0.6115
15697SOL     OW48511   3.316   0.893   4.690 -0.1900  0.4078 -0.3064
15697SOL    HW148512   3.241   0.902   4.631 -0.4671  0.0856 -0.0057
15697SOL    HW248513   3.318   0.976   4.738 -1.6340 -0.3573  1.1645
15698SOL     OW48514   4.461   1.511   0.974  0.0161 -0.0217 -0.3478
15698SOL    HW148515   4.539   1.525   0.920  0.9722 -0.0476  0.9815
15698SOL    HW248516   4.412   1.593   0.966  0.6880  0.3864 -0.3840
15699SOL     OW48517   7.493   5.128   8.969  0.1650 -0.1922 -0.4200
15699SOL    HW148518   7.433   5.063   9.005  0.9921 -0.3037  0.8182
15699SOL    HW248519   7.517   5.093   8.883 -0.3086 -0.9250 -0.2601
15700SOL     OW48520   3.471   2.652   5.896 -0.1608 -0.0394 -0.0924
15700SOL    HW148521   3.553   2.635   5.942  0.2421 -0.4367 -0.9295
15700SOL    HW248522   3.497   2.660   5.804 -0.9397  0.7699 -0.2524
15701SOL     OW48523   6.548   4.683   1.003 -0.1969 -0.6080 -0.3486
15701SOL    HW148524   6.642   4.696   1.008 -0.1026 -1.4344  0.0692
15701SOL    HW248525   6.518   4.751   0.942  0.3969  0.9145  0.9941
15702SOL     OW48526   7.276   8.285   5.068 -0.3047 -0.1627  0.3870
15702SOL    HW148527   7.223   8.356   5.032  1.3030  1.5855  1.2828
15702SOL    HW248528   7.331   8.257   4.995  0.0640  0.5381  0.3862
15703SOL     OW48529   4.874   7.744   7.611 -0.5139 -0.3586 -0.0598
15703SOL    HW148530   4.910   7.764   7.525 -2.1849  3.6862 -0.0421
15703SOL    HW248531   4.782   7.722   7.595 -0.9807  0.9485  0.6411
15704SOL     OW48532   3.722   0.545   8.906 -0.2697 -0.5582  0.4864
15704SOL    HW148533   3.696   0.534   8.997  0.6040 -0.7289  0.7311
15704SOL    HW248534   3.791   0.480   8.893  0.3929  0.2166  0.0311
15705SOL     OW48535   1.246   6.310   3.669  0.2648 -0.3431 -0.4818
15705SOL    HW148536   1.167   6.256   3.673 -0.0744  0.1982  0.2733
15705SOL    HW248537   1.226   6.376   3.601 -0.1787  0.1630  0.1276
15706SOL     OW48538   2.339   0.270   3.468 -0.4979  0.3307  0.0654
15706SOL    HW148539   2.430   0.273   3.439 -1.0703  0.4539 -1.8485
15706SOL    HW248540   2.311   0.361   3.470 -0.7360  0.2592  0.0778
15707SOL     OW48541   1.424   8.761   6.163  0.2869  0.1181 -0.5385
15707SOL    HW148542   1.376   8.788   6.085 -0.1130  0.0117 -0.3322
15707SOL    HW248543   1.500   8.819   6.166 -0.1168  0.6584 -0.5689
15708SOL     OW48544   8.009   0.609   4.879 -0.4276  0.0320  0.6505
15708SOL    HW148545   7.994   0.535   4.938 -2.3598 -1.0109 -1.0353
15708SOL    HW248546   7.962   0.586   4.799 -2.3886  3.7244  0.5167
15709SOL     OW48547   8.406   8.968   7.124  0.6041  0.1699 -0.1937
15709SOL    HW148548   8.345   8.896   7.107  0.1759 -0.1141  2.2566
15709SOL    HW248549   8.396   9.026   7.048  0.1553 -1.7691 -1.7005
15710SOL     OW48550   7.770   2.291   5.290  0.4937  0.4436 -0.0411
15710SOL    HW148551   7.836   2.348   5.330  0.0988  0.1414  1.0853
15710SOL    HW248552   7.690   2.343   5.291 -0.0023 -0.2946  1.5154
15711SOL     OW48553   2.110   0.147   9.142 -0.3280  0.2057  0.0115
15711SOL    HW148554   2.080   0.225   9.189  0.7264  1.0194 -0.6416
15711SOL    HW248555   2.029   0.104   9.114 -0.9225  1.1623  0.2047
15712SOL     OW48556   5.981   1.984   1.205 -0.0664  0.4478 -0.1602
15712SOL    HW148557   5.949   1.916   1.146 -2.5002  2.1310 -0.9154
15712SOL    HW248558   5.979   1.944   1.291  0.2340 -0.9616 -0.7777
15713SOL     OW48559   1.116   6.732   5.453 -0.3364 -0.2209 -0.5352
15713SOL    HW148560   1.051   6.803   5.446 -1.1893 -0.8540  0.6304
15713SOL    HW248561   1.073   6.666   5.507  0.7462 -1.2991 -0.9586
15714SOL     OW48562   1.642   8.402   2.455 -0.5147  0.1606  0.3653
15714SOL    HW148563   1.699   8.429   2.526 -1.2865 -0.9837  1.4749
15714SOL    HW248564   1.554   8.428   2.483 -0.8062 -0.1148 -0.2603
15715SOL     OW48565   8.274   8.226   3.403  0.3873 -0.0392  0.0779
15715SOL    HW148566   8.306   8.140   3.375  0.5719 -0.2104  0.7912
15715SOL    HW248567   8.202   8.245   3.343 -0.5995 -1.3607  0.7817
15716SOL     OW48568   0.986   2.465   0.875 -0.0501  0.2600 -1.0390
15716SOL    HW148569   0.897   2.431   0.885  0.0845  0.1544  0.0097
15716SOL    HW248570   0.985   2.548   0.923  0.2162  0.6313 -1.6699
15717SOL     OW48571   8.559   8.996   8.128 -0.1320  0.4604  0.8748
15717SOL    HW148572   8.541   9.087   8.149 -0.8528  0.4757  0.2661
15717SOL    HW248573   8.595   8.998   8.039 -0.4787  0.1352  0.7205
15718SOL     OW48574   8.323   3.224   2.371  0.7587 -0.1914 -0.0428
15718SOL    HW148575   8.357   3.164   2.305  0.7648  0.5277 -0.7073
15718SOL    HW248576   8.276   3.291   2.321  1.1503  0.6206  0.6463
15719SOL     OW48577   7.520   8.051   0.227  0.0631  0.1804 -0.2058
15719SOL    HW148578   7.559   8.106   0.159  0.2332  0.5952  0.2232
15719SOL    HW248579   7.429   8.042   0.200  0.5388 -1.2226 -1.4905
15720SOL     OW48580   6.870   6.994   8.065  0.3536 -0.0627  0.2116
15720SOL    HW148581   6.791   6.941   8.065  1.4957 -1.8645  1.4358
15720SOL    HW248582   6.852   7.065   8.003 -2.2528 -0.3047  0.6126
15721SOL     OW48583   6.769   2.491   7.276  0.4918 -0.2128 -0.3106
15721SOL    HW148584   6.677   2.517   7.281  0.2041 -1.2752  0.2340
15721SOL    HW248585   6.777   2.446   7.192  0.2655 -1.0056  0.0856
15722SOL     OW48586   4.344   0.471   1.654 -0.6114 -0.6637 -0.3948
15722SOL    HW148587   4.276   0.405   1.669  1.0359 -1.8165  2.9148
15722SOL    HW248588   4.403   0.430   1.591 -0.6572 -1.5457  0.1180
15723SOL     OW48589   4.731   5.931   5.856 -0.1101 -0.5651 -0.6355
15723SOL    HW148590   4.747   5.915   5.949  2.5306  0.1349 -0.8682
15723SOL    HW248591   4.815   5.963   5.823 -1.3628  0.5452 -2.9841
15724SOL     OW48592   8.793   2.179   8.970 -0.6900  0.3482 -0.1937
15724SOL    HW148593   8.774   2.210   9.058 -1.6025 -0.5179 -0.0665
15724SOL    HW248594   8.878   2.136   8.977  0.7229  2.8649 -0.4158
15725SOL     OW48595   2.731   5.718   7.012  0.4042  0.5316  0.3054
15725SOL    HW148596   2.717   5.811   6.994 -0.5257  0.4289  0.4723
15725SOL    HW248597   2.645   5.684   7.034  0.9156 -0.1366  1.3579
15726SOL     OW48598   8.313   8.874   4.260  0.2676  0.4507  0.5232
15726SOL    HW148599   8.383   8.828   4.307  2.1740  2.2279 -0.4248
15726SOL    HW248600   8.331   8.967   4.275 -2.0514  0.9852  0.3932
15727SOL     OW48601   0.736   0.102   2.482 -0.2043 -0.5091  0.0329
15727SOL    HW148602   0.676   0.123   2.410  0.2373  1.0763  0.1123
15727SOL    HW248603   0.707   0.156   2.555  1.0528 -0.0419  0.2091
15728SOL     OW48604   1.248   4.142   1.795 -0.1015 -0.3335 -0.1890
15728SOL    HW148605   1.169   4.193   1.778 -0.2554 -0.6110 -0.3263
15728SOL    HW248606   1.320   4.198   1.765 -0.1968  0.1861  0.5485
15729SOL     OW48607   4.757   0.087   0.545  0.3990 -0.4243  0.2235
15729SOL    HW148608   4.786   0.064   0.457  2.2707  1.9645  0.0964
15729SOL    HW248609   4.831   0.064   0.601  0.0754  0.0143  0.8453
15730SOL     OW48610   3.874   4.139   1.199 -0.0515 -0.0025  0.1650
15730SOL    HW148611   3.887   4.233   1.199 -1.9315  0.3374 -1.6679
15730SOL    HW248612   3.943   4.105   1.256  1.2812  2.3698  0.1009
15731SOL     OW48613   5.390   4.342   6.639 -0.0764 -0.0332  0.3781
15731SOL    HW148614   5.470   4.304   6.677 -0.6257  0.4559  2.0965
15731SOL    HW248615   5.324   4.274   6.649 -0.6711  0.7400  2.0210
15732SOL     OW48616   6.732   8.390   2.977  0.2488 -0.8922 -0.0544
15732SOL    HW148617   6.794   8.437   2.921 -0.1619  0.0105  0.2366
15732SOL    HW248618   6.763   8.407   3.067  0.4281 -1.6516  0.0320
15733SOL     OW48619   7.620   7.296   0.106 -0.0263  0.7347 -0.1548
15733SOL    HW148620   7.576   7.284   0.021  1.3529  0.7959 -0.9137
15733SOL    HW248621   7.588   7.380   0.138  0.6326  1.5096 -1.4151
15734SOL     OW48622   7.596   1.474   1.727  0.5957  0.4838 -0.0717
15734SOL    HW148623   7.608   1.497   1.635 -1.7918  0.9482 -0.3351
15734SOL    HW248624   7.563   1.554   1.768 -0.0607 -0.2020  0.7808
15735SOL     OW48625   5.134   1.994   7.267 -1.0944 -0.2786  0.2698
15735SOL    HW148626   5.132   1.992   7.363 -2.7160  1.5806  0.3360
15735SOL    HW248627   5.119   1.903   7.242  1.7715 -1.2939  1.6952
15736SOL     OW48628   1.298   7.179   6.284  0.2504  0.1240 -0.3171
15736SOL    HW148629   1.272   7.087   6.288  0.1033  0.1506 -0.5970
15736SOL    HW248630   1.238   7.224   6.344  0.7525 -0.0535  0.3263
15737SOL     OW48631   0.806   4.998   5.036  0.1654 -0.0267 -0.0484
15737SOL    HW148632   0.745   5.021   5.105 -0.3288  2.8061 -1.2897
15737SOL    HW248633   0.881   4.960   5.081 -1.8479 -2.3028  1.6176
15738SOL     OW48634   7.100   0.161   7.464 -0.5721 -0.0916  0.5749
15738SOL    HW148635   7.116   0.220   7.537 -1.1545 -1.1249  1.5783
15738SOL    HW248636   7.120   0.074   7.499  4.6998 -0.3311 -2.0830
15739SOL     OW48637   4.560   0.507   5.602 -0.2425 -0.1555  0.2540
15739SOL    HW148638   4.531   0.564   5.673 -2.0703 -1.3901  0.5894
15739SOL    HW248639   4.655   0.501   5.612 -0.2638  1.0612  1.5133
15740SOL     OW48640   1.122   6.314   3.136 -0.3738 -0.3491  0.3462
15740SOL    HW148641   1.198   6.356   3.176  0.6329 -0.3957 -1.4046
15740SOL    HW248642   1.127   6.338   3.043 -0.0944 -3.7201 -0.6472
15741SOL     OW48643   1.919   2.886   8.532 -0.1784  0.3779 -0.2241
15741SOL    HW148644   1.833   2.849   8.553  0.4250 -0.0308  1.7511
15741SOL    HW248645   1.967   2.881   8.614  1.1958  2.1343 -0.8731
15742SOL     OW48646   5.094   3.693   0.825  0.5404  0.6065 -0.2411
15742SOL    HW148647   5.098   3.775   0.874  0.0216  0.5556 -0.1128
15742SOL    HW248648   5.002   3.685   0.798  0.3460 -0.4696  0.6688
15743SOL     OW48649   4.205   0.120   4.998 -0.3112  0.2859 -0.4213
15743SOL    HW148650   4.131   0.172   4.968 -1.1688 -0.6690 -0.0108
15743SOL    HW248651   4.185   0.099   5.089  1.8140  2.3757  0.6298
15744SOL     OW48652   6.897   7.675   2.672 -0.2014  0.4579  0.6010
15744SOL    HW148653   6.947   7.618   2.613 -1.0247 -0.7238  1.0018
15744SOL    HW248654   6.959   7.743   2.698  2.0918 -2.2722  3.0217
15745SOL     OW48655   5.903   4.654   7.496 -0.1660 -0.5864  0.4153
15745SOL    HW148656   5.915   4.742   7.459 -1.3985 -1.2099 -1.6046
15745SOL    HW248657   5.950   4.596   7.436  1.0766 -1.3143  2.0161
15746SOL     OW48658   7.929   1.001   6.266 -0.2694  0.4023 -0.3111
15746SOL    HW148659   7.931   1.076   6.326  1.0316  0.8891 -0.9362
15746SOL    HW248660   8.017   0.964   6.271 -0.7316 -0.7619 -0.4401
15747SOL     OW48661   6.294   5.094   3.526 -0.1802  0.0240 -0.0465
15747SOL    HW148662   6.199   5.097   3.542 -0.2733 -1.9595  0.0771
15747SOL    HW248663   6.318   5.003   3.544  1.5633  0.2100 -1.1983
15748SOL     OW48664   1.012   1.115   5.680 -0.3735  0.5297  0.0624
15748SOL    HW148665   1.071   1.163   5.738 -1.1643  2.8720 -0.9474
15748SOL    HW248666   0.945   1.080   5.738  0.5082  0.1747  0.8956
15749SOL     OW48667   4.103   5.967   3.939 -0.2537  0.8099  0.1448
15749SOL    HW148668   4.135   5.916   4.013  0.4777 -0.1168 -0.7843
15749SOL    HW248669   4.017   5.929   3.919  0.5517 -0.5280 -0.9350
15750SOL     OW48670   0.144   5.478   6.383 -0.4551 -0.6455 -0.1065
15750SOL    HW148671   0.176   5.392   6.410  1.9310  0.2092  0.0934
15750SOL    HW248672   0.221   5.535   6.388 -1.9683  1.5515 -0.0902
15751SOL     OW48673   1.506   8.423   6.955  0.1727 -0.0225 -0.4470
15751SOL    HW148674   1.412   8.439   6.943 -0.2147 -1.7399  0.0064
15751SOL    HW248675   1.548   8.496   6.909 -1.3666  1.2321  0.0247
15752SOL     OW48676   8.269   8.329   6.085 -0.4704  0.0871  0.4273
15752SOL    HW148677   8.304   8.278   6.012  0.0639  1.2861 -0.1714
15752SOL    HW248678   8.232   8.407   6.044 -3.7714 -0.9965  1.0030
15753SOL     OW48679   3.046   8.951   4.798  0.1363  0.2913  0.1333
15753SOL    HW148680   3.128   8.982   4.834  0.9511 -0.2619 -1.1383
15753SOL    HW248681   3.035   8.864   4.836  0.2672  0.2704  0.1259
15754SOL     OW48682   9.092   6.951   5.220 -0.4014  0.1053 -0.2872
15754SOL    HW148683   9.080   6.988   5.132  1.3285  1.4008 -0.0322
15754SOL    HW248684   9.160   6.885   5.210  1.4014  1.7473  0.3554
15755SOL     OW48685   3.546   2.296   4.624  0.5023 -0.2526 -0.1701
15755SOL    HW148686   3.554   2.382   4.584  0.4061 -0.5789 -0.8939
15755SOL    HW248687   3.498   2.312   4.705  0.1507  0.3194 -0.4894
15756SOL     OW48688   7.695   6.488   6.121  0.2632 -0.6687  0.0628
15756SOL    HW148689   7.610   6.444   6.115  1.0033 -1.9914 -2.1987
15756SOL    HW248690   7.757   6.424   6.085  1.9673  0.8571  0.1558
15757SOL     OW48691   7.319   8.280   2.147 -0.2363 -0.7449 -0.2040
15757SOL    HW148692   7.321   8.299   2.240 -0.6141  0.3185 -0.4015
15757SOL    HW248693   7.327   8.185   2.142  3.8631 -0.6325  0.7468
15758SOL     OW48694   5.156   8.164   0.784 -0.3340 -0.3989  0.2183
15758SOL    HW148695   5.232   8.217   0.810 -1.5381 -0.0304  3.4192
15758SOL    HW248696   5.089   8.229   0.760 -0.0310 -0.7040 -1.6237
15759SOL     OW48697   0.490   8.716   4.017  0.6357 -0.0744 -1.0415
15759SOL    HW148698   0.554   8.785   4.037  0.3474 -0.0985  0.0786
15759SOL    HW248699   0.543   8.643   3.986  1.2690 -0.3411  0.5434
15760SOL     OW48700   7.480   0.546   5.502  0.1214  0.4770 -0.4238
15760SOL    HW148701   7.532   0.625   5.485  0.8728  0.1008  0.0925
15760SOL    HW248702   7.430   0.567   5.581  0.5036  0.3472 -0.1476
15761SOL     OW48703   0.517   6.920   4.515  0.5131  0.0964 -0.1656
15761SOL    HW148704   0.577   6.949   4.446  0.7379  0.7866  0.3098
15761SOL    HW248705   0.474   7.000   4.544  1.1220 -0.0343  1.1648
15762SOL     OW48706   6.284   4.468   5.765 -0.3258  0.0775 -0.3631
15762SOL    HW148707   6.231   4.547   5.767 -1.0820 -0.3431 -1.9615
15762SOL    HW248708   6.238   4.410   5.705  1.1174 -0.9151 -0.5587
15763SOL     OW48709   8.259   6.959   4.371  0.2488  0.1590  0.2384
15763SOL    HW148710   8.350   6.984   4.389  0.4463 -0.8502  0.7455
15763SOL    HW248711   8.207   7.015   4.429  0.5675  0.5592  0.1393
15764SOL     OW48712   7.215   3.896   0.388 -0.1128  0.1000 -0.4068
15764SOL    HW148713   7.145   3.858   0.442 -0.0303  0.5256  0.0006
15764SOL    HW248714   7.296   3.859   0.423  0.0008  0.9294  0.2416
15765SOL     OW48715   6.476   2.847   5.163  0.5915  0.5591 -0.5032
15765SOL    HW148716   6.408   2.898   5.119 -0.1235  1.0583  1.1018
15765SOL    HW248717   6.556   2.898   5.149  0.4241  0.5699 -1.4358
15766SOL     OW48718   8.491   7.930   2.725 -0.1659  0.2606 -0.3335
15766SOL    HW148719   8.509   7.905   2.816  0.5394  0.6934 -0.3452
15766SOL    HW248720   8.517   8.022   2.721  2.0439 -0.3370 -1.5559
15767SOL     OW48721   8.762   3.668   5.965 -0.2969 -0.4335  0.0799
15767SOL    HW148722   8.807   3.748   5.939  2.3887 -0.6617  3.3924
15767SOL    HW248723   8.737   3.683   6.056 -1.6325 -2.6332  0.1520
15768SOL     OW48724   5.820   8.991   3.411 -0.0449  0.4736 -0.1589
15768SOL    HW148725   5.902   9.005   3.362 -0.7215  0.5169 -1.3193
15768SOL    HW248726   5.752   9.025   3.353 -1.0802 -1.2707 -0.0263
15769SOL     OW48727   9.052   0.861   2.986  0.2633 -0.4428  0.2414
15769SOL    HW148728   9.042   0.825   3.074 -0.8071 -0.1728  0.2470
15769SOL    HW248729   9.058   0.785   2.929 -0.1325 -0.6224  0.4395
15770SOL     OW48730   7.203   0.721   3.068  0.5251 -0.0929  0.4155
15770SOL    HW148731   7.191   0.724   3.163  0.0052 -2.0956  0.4667
15770SOL    HW248732   7.289   0.680   3.056  1.4762  1.9298 -0.0073
15771SOL     OW48733   3.351   0.017   7.495 -0.7362  0.2774  0.2675
15771SOL    HW148734   3.320   0.020   7.405 -2.8590 -2.0271  0.8225
15771SOL    HW248735   3.277  -0.016   7.546  0.7554  0.3785  2.6889
15772SOL     OW48736   1.309   7.351   3.963  0.1796  0.3588  1.0351
15772SOL    HW148737   1.235   7.372   4.020 -0.3715  0.8953  0.1395
15772SOL    HW248738   1.271   7.295   3.894  1.2056 -1.8983  2.1998
15773SOL     OW48739   3.113   5.674   5.558 -0.4397 -0.4605 -0.2422
15773SOL    HW148740   3.082   5.587   5.531 -0.7335 -0.3289 -0.3362
15773SOL    HW248741   3.161   5.707   5.482  1.2935 -1.3070  0.4509
15774SOL     OW48742   3.647   0.509   3.351 -0.1850  0.3879 -0.0355
15774SOL    HW148743   3.574   0.454   3.379  0.3767  0.2471  1.1908
15774SOL    HW248744   3.722   0.449   3.347  0.6154  1.1683  2.0942
15775SOL     OW48745   8.793   7.390   2.333  0.2533 -0.0003  0.7342
15775SOL    HW148746   8.761   7.350   2.253 -0.6381  1.1598  0.4757
15775SOL    HW248747   8.714   7.403   2.386  1.0144 -2.5430  2.7018
15776SOL     OW48748   4.965   4.065   5.925 -0.2247  0.5691 -0.0385
15776SOL    HW148749   4.887   4.031   5.967 -0.4741 -0.0362 -0.9720
15776SOL    HW248750   5.012   4.110   5.995 -0.6892 -0.3018  0.8523
15777SOL     OW48751   2.008   1.171   5.619 -0.2120 -0.4004 -0.0416
15777SOL    HW148752   2.029   1.082   5.649  0.5006 -0.2062  0.0523
15777SOL    HW248753   1.939   1.158   5.553  1.3293 -1.2199 -1.5744
15778SOL     OW48754   6.789   5.299   7.960  0.0475 -0.1065 -0.7388
15778SOL    HW148755   6.748   5.243   7.894  0.2533 -1.0300 -0.1098
15778SOL    HW248756   6.794   5.243   8.038 -1.3237  1.3420  0.4449
15779SOL     OW48757   8.530   9.025   7.542  0.1590  0.0521 -0.4091
15779SOL    HW148758   8.524   9.081   7.620 -1.0338  0.0559 -0.4852
15779SOL    HW248759   8.439   9.012   7.515  0.4131 -1.6944 -0.5596
15780SOL     OW48760   7.032   8.321   7.845  0.5982 -0.6299  0.0323
15780SOL    HW148761   7.062   8.368   7.923 -0.9322 -0.3198  0.4816
15780SOL    HW248762   7.030   8.229   7.872 -0.6510 -0.4514  0.6619
15781SOL     OW48763   7.110   8.766   0.584  0.1023 -0.3526  0.6702
15781SOL    HW148764   7.063   8.836   0.628 -1.5742 -0.5403 -0.6989
15781SOL    HW248765   7.041   8.713   0.542  1.4917 -0.9087 -1.0568
15782SOL     OW48766   6.606   6.908   1.637 -0.1216  0.7897 -0.0760
15782SOL    HW148767   6.535   6.855   1.600 -1.5406  1.7781  1.1005
15782SOL    HW248768   6.653   6.942   1.561 -0.1569 -0.8183 -0.8668
15783SOL     OW48769   2.508   6.724   7.082  0.2511  0.5715  0.0947
15783SOL    HW148770   2.585   6.745   7.029 -1.6497  0.6776 -2.8347
15783SOL    HW248771   2.489   6.805   7.130 -0.0656  1.7479 -1.9145
15784SOL     OW48772   0.224   7.431   0.638  0.4265  0.4359 -0.2454
15784SOL    HW148773   0.240   7.407   0.547  3.6425 -0.5787  0.4605
15784SOL    HW248774   0.299   7.486   0.662  0.4690 -0.5571  2.1820
15785SOL     OW48775   6.623   5.267   1.074 -0.0411 -0.2828  0.9027
15785SOL    HW148776   6.671   5.186   1.059 -1.0205 -1.0581  1.7597
15785SOL    HW248777   6.639   5.320   0.996  0.0231 -1.6016 -0.0100
15786SOL     OW48778   0.004   7.954   4.642  0.0025  0.4871 -0.9727
15786SOL    HW148779   0.042   7.957   4.730  2.5008  1.1791 -1.9880
15786SOL    HW248780   0.017   7.864   4.614 -2.7066 -0.3285  0.0425
15787SOL     OW48781   3.647   4.533   5.760  0.1238  0.2373 -0.5897
15787SOL    HW148782   3.695   4.562   5.837 -2.0720  1.2102  0.4899
15787SOL    HW248783   3.599   4.610   5.731  2.2690  0.4718 -4.1604
15788SOL     OW48784   7.862   1.233   3.243  0.1801 -0.6905  0.2736
15788SOL    HW148785   7.779   1.275   3.223  0.9254  0.6142 -0.2164
15788SOL    HW248786   7.860   1.151   3.193  0.0118  0.2771 -1.3968
15789SOL     OW48787   5.033   1.255   1.222 -0.2155 -0.2600  0.2282
15789SOL    HW148788   4.974   1.325   1.249  1.3509  1.3999 -0.4647
15789SOL    HW248789   5.073   1.224   1.303  0.4643  0.9638  0.3816
15790SOL     OW48790   2.938   0.698   3.345 -0.2435 -0.5192  0.1458
15790SOL    HW148791   2.979   0.699   3.259 -0.1135 -1.5864  0.1751
15790SOL    HW248792   3.012   0.691   3.406 -0.3390  0.1572  0.3445
15791SOL     OW48793   0.227   4.544   4.734  0.0197  0.2774 -0.8455
15791SOL    HW148794   0.190   4.573   4.817 -0.3776 -2.3830  0.0056
15791SOL    HW248795   0.313   4.586   4.730 -0.4601  1.4277  0.2875
15792SOL     OW48796   4.272   7.886   7.929  0.8165 -0.5343 -0.1553
15792SOL    HW148797   4.308   7.823   7.991 -0.2020 -0.8102  0.1728
15792SOL    HW248798   4.334   7.959   7.930  0.3396 -0.1046  1.9188
15793SOL     OW48799   2.687   7.530   7.666  0.4009  0.1512  0.4433
15793SOL    HW148800   2.717   7.607   7.715  0.4926 -1.1186  2.4749
15793SOL    HW248801   2.595   7.546   7.649  1.1921  2.3805 -2.5441
15794SOL     OW48802   6.218   6.756   0.152  0.8951 -0.2530  0.3645
15794SOL    HW148803   6.221   6.767   0.057  1.4506 -0.6819  0.3283
15794SOL    HW248804   6.210   6.845   0.186  1.1736 -0.0608 -0.0658
15795SOL     OW48805   1.913   8.353   3.453 -0.5104 -0.3089  0.6474
15795SOL    HW148806   2.005   8.342   3.428 -0.5915 -0.1774  0.2776
15795SOL    HW248807   1.903   8.447   3.468 -1.3132  0.2230 -2.4004
15796SOL     OW48808   3.196   0.028   1.866  0.1400 -0.2556  0.3558
15796SOL    HW148809   3.259  -0.030   1.825  0.5094  0.3519  0.0523
15796SOL    HW248810   3.178  -0.013   1.951 -0.0995 -1.1460 -0.1064
15797SOL     OW48811   0.311   4.407   5.056  0.0948 -0.6324 -0.7881
15797SOL    HW148812   0.363   4.475   5.014 -1.7714 -0.1059 -2.4095
15797SOL    HW248813   0.357   4.326   5.038  1.3792  0.0022 -0.4447
15798SOL     OW48814   8.507   8.997   0.127 -0.2496  0.0402  0.4556
15798SOL    HW148815   8.428   9.039   0.161  0.0766  0.2740  0.9346
15798SOL    HW248816   8.499   9.005   0.032 -0.4894  0.6443  0.5233
15799SOL     OW48817   2.532   1.220   0.287  0.1070 -0.6405 -0.5129
15799SOL    HW148818   2.553   1.145   0.341  1.4849  0.9908  1.3783
15799SOL    HW248819   2.615   1.246   0.247  0.2915  1.3757  0.9890
15800SOL     OW48820   9.169   0.994   1.778 -0.1390 -0.1611 -0.0951
15800SOL    HW148821   9.238   0.931   1.756  0.7411  0.5245  0.6306
15800SOL    HW248822   9.116   0.951   1.845 -1.6484 -1.4791 -2.0232
15801SOL     OW48823   4.042   2.873   4.269 -0.2171 -0.4784 -0.0144
15801SOL    HW148824   3.953   2.887   4.303  0.5956 -0.9211  2.4984
15801SOL    HW248825   4.097   2.929   4.324  1.0443  0.0745 -1.7796
15802SOL     OW48826   8.629   5.408   2.735  0.0565  0.4505  0.3646
15802SOL    HW148827   8.634   5.482   2.795 -0.3762  0.4122  0.4517
15802SOL    HW248828   8.557   5.429   2.676  0.3604  0.4038 -0.0283
15803SOL     OW48829   4.495   8.517   7.491  0.4648  0.7211  0.2510
15803SOL    HW148830   4.490   8.523   7.396  0.6540  1.1349  0.2637
15803SOL    HW248831   4.589   8.510   7.509  0.4564  1.0369  0.4259
15804SOL     OW48832   8.233   7.730   1.583  0.2380  1.1166  0.5137
15804SOL    HW148833   8.311   7.736   1.529  0.3281  0.6255  0.5820
15804SOL    HW248834   8.166   7.779   1.535 -0.3629 -1.2347 -1.2864
15805SOL     OW48835   1.690   5.999   2.160 -0.5729  0.4575  0.4994
15805SOL    HW148836   1.622   6.054   2.198  0.1162  2.8351 -1.3972
15805SOL    HW248837   1.760   5.998   2.225 -0.9643  1.0721  0.9384
15806SOL     OW48838   0.416   0.279   6.375 -0.3965  0.3074 -0.4626
15806SOL    HW148839   0.412   0.370   6.403  0.8741 -0.3500  2.1967
15806SOL    HW248840   0.504   0.250   6.398 -0.8839 -1.7093 -0.9023
15807SOL     OW48841   3.106   6.002   6.137 -0.6843  0.0464  0.1908
15807SOL    HW148842   3.112   6.006   6.041 -0.3085  0.3650  0.2268
15807SOL    HW248843   3.049   5.926   6.154 -2.7323  1.3834 -0.3479
15808SOL     OW48844   6.721   7.943   5.581 -0.1728  0.0461  0.1286
15808SOL    HW148845   6.713   8.038   5.594  0.6191 -0.0947  2.0972
15808SOL    HW248846   6.815   7.926   5.587 -0.2107 -0.7824 -1.1581
15809SOL     OW48847   5.449   6.765   6.625  0.3856 -0.5757 -0.1188
15809SOL    HW148848   5.354   6.779   6.629  0.5186  0.4280 -0.3077
15809SOL    HW248849   5.483   6.842   6.580  1.4518 -0.1302  1.3522
15810SOL     OW48850   7.359   6.883   3.522  0.1358  0.5667 -0.3998
15810SOL    HW148851   7.357   6.793   3.557  0.2296  0.7568  0.1075
15810SOL    HW248852   7.282   6.888   3.466  0.7633 -0.1889 -1.3521
15811SOL     OW48853   2.287   6.421   8.242  0.4455  0.5339 -0.1509
15811SOL    HW148854   2.238   6.427   8.160  1.1022 -0.9236 -0.6951
15811SOL    HW248855   2.266   6.333   8.276  2.6060 -0.1286 -0.3890
15812SOL     OW48856   1.924   7.492   7.788  0.2107 -0.2026 -0.3289
15812SOL    HW148857   1.872   7.492   7.869  1.2287  0.1103  0.3465
15812SOL    HW248858   1.960   7.403   7.783  3.0183  0.6844  1.5245
15813SOL     OW48859   7.369   7.853   5.148  0.0235 -0.1560  0.0402
15813SOL    HW148860   7.301   7.875   5.211 -0.0662 -0.5136  0.0703
15813SOL    HW248861   7.385   7.760   5.160 -0.5243 -0.4022 -0.9623
15814SOL     OW48862   3.717   8.251   1.712  0.1097 -0.5166 -0.2845
15814SOL    HW148863   3.805   8.289   1.718  0.1277 -0.5039 -0.6071
15814SOL    HW248864   3.658   8.323   1.734  0.0745  0.0832 -2.1218
15815SOL     OW48865   6.681   5.079   5.333  0.2373 -0.3837 -0.1477
15815SOL    HW148866   6.608   5.139   5.346 -0.3008 -0.5813 -1.9234
15815SOL    HW248867   6.698   5.042   5.419  0.0640  1.7063  0.8482
15816SOL     OW48868   7.065   4.934   3.884  0.2852  0.3562  0.1491
15816SOL    HW148869   7.075   4.853   3.834 -0.4424  0.3618 -0.0047
15816SOL    HW248870   6.972   4.953   3.882  0.3438  0.7725  0.8625
15817SOL     OW48871   8.682   1.289   2.819  0.1394  0.0252 -0.2288
15817SOL    HW148872   8.737   1.274   2.742  2.9890 -2.1588  1.9804
15817SOL    HW248873   8.707   1.376   2.849 -0.3519  0.5322 -1.2504
15818SOL     OW48874   0.745   4.276   4.434 -0.0332  0.5027  0.5110
15818SOL    HW148875   0.787   4.326   4.364 -0.7389 -0.3039 -0.5260
15818SOL    HW248876   0.816   4.226   4.474  0.7632  2.5747  1.8418
15819SOL     OW48877   4.674   5.286   0.014 -0.5431  0.3331 -0.0996
15819SOL    HW148878   4.580   5.270   0.010 -0.5918 -0.1042  1.8688
15819SOL    HW248879   4.702   5.243   0.094  1.3222  0.6148 -0.5623
15820SOL     OW48880   4.602   3.833   7.045 -0.3396  0.2534 -0.3957
15820SOL    HW148881   4.663   3.885   7.097 -1.1402  1.0672 -0.2402
15820SOL    HW248882   4.640   3.745   7.044  0.5136  0.5998  0.1983
15821SOL     OW48883   0.689   7.764   0.008  0.0960  0.4955 -0.1186
15821SOL    HW148884   0.615   7.811  -0.029 -1.2215 -2.5582 -1.7124
15821SOL    HW248885   0.752   7.758  -0.065  0.3517  0.0853  0.1303
15822SOL     OW48886   3.137   8.772   9.172  0.0466  0.3787  0.2248
15822SOL    HW148887   3.218   8.733   9.206 -0.1247 -1.7224 -1.5203
15822SOL    HW248888   3.166   8.849   9.124  0.8538  0.4096  0.7395
15823SOL     OW48889   0.612   0.781   9.044 -0.3267 -0.7203  0.2536
15823SOL    HW148890   0.604   0.866   9.087 -2.6310 -0.5623 -0.3955
15823SOL    HW248891   0.570   0.720   9.104 -0.2442 -1.1189 -0.0913
15824SOL     OW48892   4.637   1.450   8.058  0.3644  0.1852 -0.0874
15824SOL    HW148893   4.699   1.466   8.130 -0.4360 -0.4971  0.7801
15824SOL    HW248894   4.556   1.491   8.087 -0.2382 -0.9311 -0.1525
15825SOL     OW48895   5.348   4.158   3.981 -0.1040 -0.0828  0.1042
15825SOL    HW148896   5.358   4.243   4.024  0.2906 -0.5262  0.9135
15825SOL    HW248897   5.284   4.111   4.035 -0.5811 -0.1858 -0.5339
15826SOL     OW48898   2.415   4.701   4.903  0.2067 -0.2948  0.4000
15826SOL    HW148899   2.362   4.744   4.836 -0.2640 -0.5605  0.5902
15826SOL    HW248900   2.368   4.719   4.985  0.5850 -0.2660  0.6128
15827SOL     OW48901   3.104   1.409   4.748  0.5302 -0.6488 -0.3282
15827SOL    HW148902   3.021   1.437   4.786  0.7249  0.9604 -1.0040
15827SOL    HW248903   3.094   1.315   4.736 -1.9432 -0.2631 -2.1130
15828SOL     OW48904   3.027   7.067   4.048  0.2316 -0.2718  0.3149
15828SOL    HW148905   2.999   7.121   3.974 -0.4107 -0.2224  0.5934
15828SOL    HW248906   2.999   7.115   4.126  0.0450 -0.7956  0.5742
15829SOL     OW48907   4.544   6.938   3.643  0.2714 -0.1004  0.4301
15829SOL    HW148908   4.465   6.917   3.594 -0.8285  1.6143  1.3843
15829SOL    HW248909   4.608   6.965   3.577  0.0023 -1.2381 -0.3190
15830SOL     OW48910   0.524   8.855   6.536  0.0586  0.3562  0.1699
15830SOL    HW148911   0.584   8.846   6.462 -0.2622 -1.1754  0.0568
15830SOL    HW248912   0.579   8.842   6.613 -0.2027 -1.9783  0.0411
15831SOL     OW48913   0.338   0.058   8.563  0.2041 -0.0727 -0.3397
15831SOL    HW148914   0.311   0.142   8.599 -2.5334 -0.4969 -1.1575
15831SOL    HW248915   0.331  -0.003   8.637  0.0350  0.0354 -0.2652
15832SOL     OW48916   4.574   5.734   3.994 -0.4163 -0.1282 -0.0099
15832SOL    HW148917   4.649   5.728   4.053 -0.5859  0.0772  0.2327
15832SOL    HW248918   4.611   5.728   3.906 -0.2014 -0.8444  0.1211
15833SOL     OW48919   9.050   3.687   0.922  0.1147 -0.2920  0.0479
15833SOL    HW148920   8.993   3.610   0.919 -0.5156  0.2166 -2.2068
15833SOL    HW248921   9.029   3.728   1.006 -0.8469 -1.5747  0.4766
15834SOL     OW48922   0.767   7.090   7.879  0.1818 -0.4854  0.0680
15834SOL    HW148923   0.804   7.003   7.860  0.8630 -0.3727  0.8400
15834SOL    HW248924   0.726   7.080   7.964 -1.8325 -0.6709 -0.8714
15835SOL     OW48925   3.246   1.206   0.643 -0.7593 -0.0307 -0.3561
15835SOL    HW148926   3.276   1.222   0.553  1.3098 -1.3318  0.0264
15835SOL    HW248927   3.233   1.111   0.646  1.6676 -0.3951  1.3435
15836SOL     OW48928   1.329   0.872   2.025 -0.2750  0.2342 -0.1444
15836SOL    HW148929   1.401   0.868   1.962 -0.8108 -0.1808 -0.7332
15836SOL    HW248930   1.264   0.811   1.991 -1.1998  1.1174  0.0107
15837SOL     OW48931   8.481   0.360   2.899  0.9810 -0.3134  0.2466
15837SOL    HW148932   8.482   0.369   2.804  0.1504 -0.3560  0.2283
15837SOL    HW248933   8.430   0.280   2.915 -1.2667  1.1390  0.8129
15838SOL     OW48934   3.583   2.861   1.262 -0.1500 -0.1556 -0.1686
15838SOL    HW148935   3.539   2.894   1.184 -0.2232  3.4162  1.2122
15838SOL    HW248936   3.675   2.881   1.248 -0.2430  1.1063  0.8658
15839SOL     OW48937   0.533   4.228   3.182 -0.4047  0.0362 -0.0507
15839SOL    HW148938   0.526   4.226   3.087 -0.9686  0.2144 -0.0164
15839SOL    HW248939   0.451   4.191   3.213  0.7396 -2.3346  0.3583
15840SOL     OW48940   2.595   7.754   1.000 -0.0071 -0.1318 -0.0921
15840SOL    HW148941   2.678   7.777   0.959  1.4543 -1.6654  1.8052
15840SOL    HW248942   2.598   7.794   1.087 -1.3177 -0.0966 -0.0432
15841SOL     OW48943   2.809   4.186   6.252  0.1443 -0.1730  0.2349
15841SOL    HW148944   2.840   4.099   6.226 -2.7780 -1.3808  0.3638
15841SOL    HW248945   2.883   4.225   6.299  1.6085 -2.5314  0.0412
15842SOL     OW48946   3.628   5.104   9.107  0.3141  0.7806 -0.0295
15842SOL    HW148947   3.632   5.108   9.203  0.8065 -1.2289  0.0733
15842SOL    HW248948   3.714   5.134   9.079  0.8869 -0.4912  0.2788
15843SOL     OW48949   4.059   9.261   0.786 -0.0871 -0.0100  0.0354
15843SOL    HW148950   4.114   9.285   0.711  1.4739 -0.1093  1.0947
15843SOL    HW248951   4.090   9.318   0.856 -0.3696 -1.0707  1.0404
15844SOL     OW48952   1.584   3.608   7.758 -0.5039 -0.1752 -0.0572
15844SOL    HW148953   1.610   3.626   7.668 -2.6606  0.6744 -0.5698
15844SOL    HW248954   1.568   3.513   7.759 -1.0488 -0.0996 -0.7472
15845SOL     OW48955   2.809   5.132   5.774 -0.3927 -0.5737 -0.6507
15845SOL    HW148956   2.865   5.204   5.744  2.5014 -2.5336 -0.4078
15845SOL    HW248957   2.743   5.174   5.828  1.4446  1.8725 -0.1180
15846SOL     OW48958   1.824   8.631   2.913 -0.1290 -0.4788 -0.3477
15846SOL    HW148959   1.866   8.554   2.952 -1.6703 -1.5690 -0.7478
15846SOL    HW248960   1.848   8.703   2.972  0.2336 -1.5069  0.8172
15847SOL     OW48961   1.484   6.294   4.199  0.0061 -0.3546 -0.3903
15847SOL    HW148962   1.449   6.245   4.273  2.3297 -0.0821  0.9997
15847SOL    HW248963   1.496   6.228   4.130 -0.5201 -0.9770  0.0990
15848SOL     OW48964   7.500   0.803   0.135 -0.1673 -0.2869  0.2284
15848SOL    HW148965   7.443   0.833   0.064  0.7705  0.6578 -0.1476
15848SOL    HW248966   7.585   0.789   0.093 -0.1212 -1.7988  0.7576
15849SOL     OW48967   6.889   4.266   5.612  0.2560 -0.6812  0.5598
15849SOL    HW148968   6.819   4.224   5.562 -0.3306  1.4016 -0.5018
15849SOL    HW248969   6.859   4.261   5.703 -0.3778 -1.4216  0.3277
15850SOL     OW48970   8.749   2.540   0.822 -0.4890  0.4738  0.0755
15850SOL    HW148971   8.790   2.494   0.749 -1.6813  0.3860 -0.5734
15850SOL    HW248972   8.776   2.492   0.900  1.9735  1.4110 -0.1226
15851SOL     OW48973   7.832   1.066   4.497 -0.7206 -0.7443 -0.3563
15851SOL    HW148974   7.752   1.116   4.482 -0.0612  0.4307 -0.0613
15851SOL    HW248975   7.804   0.992   4.551 -1.4361  0.2106  0.6084
15852SOL     OW48976   8.125   8.978   4.708  0.0508 -0.4939  0.0626
15852SOL    HW148977   8.202   9.013   4.663  0.7993 -2.2553 -0.1291
15852SOL    HW248978   8.051   9.022   4.668  0.9246  1.1778  0.1746
15853SOL     OW48979   1.401   2.647   4.218  0.8284 -0.3006 -0.0859
15853SOL    HW148980   1.435   2.731   4.246  1.1658 -0.3579 -0.3191
15853SOL    HW248981   1.441   2.583   4.278 -0.1385 -0.2167  0.6851
15854SOL     OW48982   5.655   3.887   5.184  0.3001 -0.3596  0.2125
15854SOL    HW148983   5.624   3.875   5.094 -0.4336 -1.0361  0.5391
15854SOL    HW248984   5.742   3.848   5.185  0.2982 -0.3797 -0.1994
15855SOL     OW48985   0.777   5.917   5.316  0.6126 -0.0524  0.1094
15855SOL    HW148986   0.810   5.986   5.374 -0.4594  0.4431  0.1423
15855SOL    HW248987   0.684   5.910   5.336  0.5976 -1.1818 -0.2425
15856SOL     OW48988   0.275   0.253   1.186  0.0453 -0.1099  0.1782
15856SOL    HW148989   0.231   0.242   1.102  2.2816 -0.0667 -1.0640
15856SOL    HW248990   0.344   0.187   1.186  0.2605  0.0635  1.8786
15857SOL     OW48991   4.179   5.434   2.436 -0.1446 -0.3361 -0.4530
15857SOL    HW148992   4.146   5.505   2.380  0.5394  0.5825  0.2815
15857SOL    HW248993   4.114   5.364   2.427  0.1109 -0.3569 -2.6536
15858SOL     OW48994   8.116   1.510   5.578 -0.1921  0.0920 -0.0893
15858SOL    HW148995   8.093   1.577   5.514  0.7705  0.5930  0.0756
15858SOL    HW248996   8.032   1.482   5.614 -0.5764  2.2308  0.8662
15859SOL     OW48997   3.470   3.820   6.878 -0.0955 -0.4622  0.0782
15859SOL    HW148998   3.404   3.831   6.809 -0.0705 -0.2032  0.0975
15859SOL    HW248999   3.441   3.877   6.949  0.8195  0.6211 -0.3952
15860SOL     OW49000   0.850   4.346   1.299  0.5335  0.0392  0.0138
15860SOL    HW149001   0.906   4.388   1.364 -0.3799 -1.5869  1.9490
15860SOL    HW249002   0.762   4.348   1.338 -0.6225  1.4651 -2.4122
15861SOL     OW49003   4.945   5.325   2.308 -0.8737 -0.3200  0.1742
15861SOL    HW149004   4.901   5.398   2.351  1.1209  0.6240  0.7401
15861SOL    HW249005   5.014   5.299   2.370 -0.6502 -1.7526 -0.6359
15862SOL     OW49006   7.591   3.553   6.971  0.8783  0.4996 -0.3829
15862SOL    HW149007   7.523   3.539   6.905  1.8659  2.4878 -1.9341
15862SOL    HW249008   7.641   3.471   6.972 -0.9349 -0.6539  0.1369
15863SOL     OW49009   3.686   1.360   0.951  0.3784  0.1449  0.4628
15863SOL    HW149010   3.677   1.455   0.948  0.7695  0.1669 -0.4168
15863SOL    HW249011   3.720   1.341   1.038 -0.7770  0.7078  1.0583
15864SOL     OW49012   1.681   8.542   9.238  1.0708 -0.2190 -0.2760
15864SOL    HW149013   1.651   8.475   9.299  1.1612 -0.1421 -0.1493
15864SOL    HW249014   1.776   8.541   9.245  1.1387 -0.9104 -1.1498
15865SOL     OW49015   4.249   7.408   3.873  0.3785  0.6750 -0.1541
15865SOL    HW149016   4.258   7.388   3.966  1.6272  1.2938 -0.1184
15865SOL    HW249017   4.156   7.395   3.854  0.3378 -0.7709  0.8560
15866SOL     OW49018   8.921   2.079   2.467 -0.2682  0.6017 -0.2499
15866SOL    HW149019   8.871   2.070   2.548  0.1614 -0.7375 -0.0928
15866SOL    HW249020   8.987   2.145   2.487 -0.0400  0.1431  0.5820
15867SOL     OW49021   1.785   2.609   1.439 -0.0918 -0.4280 -0.2377
15867SOL    HW149022   1.759   2.657   1.360 -1.4324 -0.6859  0.0331
15867SOL    HW249023   1.822   2.675   1.497  0.1510 -0.1063 -0.7557
15868SOL     OW49024   1.429   5.188   1.566 -0.0463  0.5481 -0.1261
15868SOL    HW149025   1.466   5.272   1.537  0.2119  0.2329 -0.7372
15868SOL    HW249026   1.484   5.122   1.523  0.2848  0.0553  1.0271
15869SOL     OW49027   3.481   7.608   4.283  0.3458  0.5422  0.3794
15869SOL    HW149028   3.460   7.624   4.376  0.6220 -0.4059  0.6119
15869SOL    HW249029   3.534   7.529   4.284  0.4174  0.5710 -0.5944
15870SOL     OW49030   6.136   4.650   7.674  0.3519 -0.6280 -0.5109
15870SOL    HW149031   6.131   4.585   7.745  1.0323 -0.8533 -0.6622
15870SOL    HW249032   6.060   4.630   7.619 -1.5865  1.0204  1.3531
15871SOL     OW49033   1.080   7.477   6.220 -0.1787  0.1658  0.7291
15871SOL    HW149034   1.098   7.411   6.287  0.4253  1.6432  2.0937
15871SOL    HW249035   1.110   7.438   6.139  2.4609 -0.3685  1.8401
15872SOL     OW49036   3.189   3.334   2.006 -0.0787 -0.5582  0.0602
15872SOL    HW149037   3.278   3.369   2.004  0.3121 -1.4896  0.3807
15872SOL    HW249038   3.199   3.244   1.973 -1.0376 -0.3861 -0.7230
15873SOL     OW49039   5.943   5.752   1.389  0.2037  0.3855  0.7157
15873SOL    HW149040   5.887   5.784   1.318  0.9106  3.8319  1.5534
15873SOL    HW249041   6.031   5.757   1.353  0.3231 -1.2470  0.7230
15874SOL     OW49042   7.341   3.469   2.344 -0.0035 -0.4945 -0.3777
15874SOL    HW149043   7.390   3.466   2.427  0.0922  0.7816 -0.3635
15874SOL    HW249044   7.408   3.482   2.277 -0.2605  1.0986 -0.3747
15875SOL     OW49045   1.793   2.618   7.791 -0.2021 -0.2138 -0.1402
15875SOL    HW149046   1.827   2.600   7.879  0.9686 -1.6841 -0.8546
15875SOL    HW249047   1.868   2.652   7.743  0.0553 -2.4661 -1.4389
15876SOL     OW49048   4.618   3.173   4.447 -0.0809 -0.3787 -0.2967
15876SOL    HW149049   4.571   3.142   4.524 -0.0103  0.7782  0.2371
15876SOL    HW249050   4.678   3.102   4.425 -2.5399 -2.2134 -1.4689
15877SOL     OW49051   0.775   4.322   5.335 -0.1969 -0.0192 -0.0171
15877SOL    HW149052   0.681   4.326   5.320 -0.1877  0.1835 -0.0275
15877SOL    HW249053   0.813   4.373   5.263  0.0996 -2.3383 -1.6153
15878SOL     OW49054   5.697   4.209   1.680 -0.6660 -0.6416 -0.9088
15878SOL    HW149055   5.719   4.192   1.589 -2.1115  0.8210 -1.5750
15878SOL    HW249056   5.670   4.300   1.682 -3.3561 -1.3476  0.4074
15879SOL     OW49057   4.702   4.673   1.148  0.0826  0.7462 -0.2373
15879SOL    HW149058   4.705   4.650   1.241 -0.1462 -0.4140 -0.5007
15879SOL    HW249059   4.780   4.633   1.111  1.4644  3.1595 -0.1780
15880SOL     OW49060   8.977   1.533   5.601  0.6166  0.2969  0.0994
15880SOL    HW149061   9.006   1.619   5.634 -0.5435  0.4098  0.8734
15880SOL    HW249062   8.999   1.534   5.508  1.2549  1.1557  0.2483
15881SOL     OW49063   7.211   2.388   6.490 -0.1173 -0.2064  0.1020
15881SOL    HW149064   7.176   2.470   6.523  0.6155  1.2209 -2.3699
15881SOL    HW249065   7.305   2.392   6.509 -0.1397 -0.6512  0.3181
15882SOL     OW49066   3.094   8.109   7.936 -0.2925  0.5357  0.5548
15882SOL    HW149067   3.164   8.099   8.000 -1.1509  2.7137  1.9646
15882SOL    HW249068   3.014   8.114   7.989 -1.1029  1.7651 -0.7219
15883SOL     OW49069   7.335   0.134   3.365 -0.0331  0.3304 -0.1417
15883SOL    HW149070   7.424   0.100   3.359 -0.6553 -1.5990  0.4312
15883SOL    HW249071   7.288   0.067   3.415 -1.4610  2.0115  0.9003
15884SOL     OW49072   5.542   7.821   9.233 -0.0400  0.3490  0.5400
15884SOL    HW149073   5.465   7.794   9.183  0.3375  0.3342 -0.0302
15884SOL    HW249074   5.506   7.853   9.316 -0.6261 -0.1129  0.4705
15885SOL     OW49075   4.358   7.904   2.754  0.0790  0.1802  0.4850
15885SOL    HW149076   4.322   7.931   2.839 -3.0411 -0.1535 -0.6015
15885SOL    HW249077   4.282   7.900   2.696  1.6667 -2.3286 -1.6441
15886SOL     OW49078   3.378   7.959   6.818 -0.0167 -0.0480  0.2748
15886SOL    HW149079   3.428   7.893   6.770 -1.0906  1.0607 -2.6155
15886SOL    HW249080   3.311   7.910   6.866  0.9225 -1.2004  0.4323
15887SOL     OW49081   2.868   1.144   4.012  0.1478  0.8195  1.0177
15887SOL    HW149082   2.843   1.101   3.930  0.3538  0.5731  1.0807
15887SOL    HW249083   2.785   1.160   4.057  0.1229 -1.1686  1.8178
15888SOL     OW49084   4.242   5.903   8.744  0.4728 -0.3356  0.4891
15888SOL    HW149085   4.273   5.990   8.719  0.8011 -0.8389 -0.9471
15888SOL    HW249086   4.209   5.914   8.833  2.6056  0.7576  1.2270
15889SOL     OW49087   9.182   8.436   3.163 -0.9104  0.2087 -0.5202
15889SOL    HW149088   9.178   8.340   3.165 -0.9391  0.2124 -0.3469
15889SOL    HW249089   9.154   8.459   3.075  0.1335  0.0092 -0.9117
15890SOL     OW49090   9.194   0.081   8.948 -0.7092  0.6653 -0.1882
15890SOL    HW149091   9.141   0.148   8.906  0.4859  1.6625 -0.1615
15890SOL    HW249092   9.235   0.033   8.876 -0.4240  0.9196 -0.1989
15891SOL     OW49093   5.476   7.218   1.461  0.2042 -0.9981 -0.1392
15891SOL    HW149094   5.380   7.210   1.458  0.1923 -1.0056  0.3000
15891SOL    HW249095   5.498   7.269   1.383 -0.2782  0.2085  0.4934
15892SOL     OW49096   9.116   6.032   1.968 -0.1179  0.1968 -0.1860
15892SOL    HW149097   9.164   5.950   1.956 -0.6551 -0.1827  0.1622
15892SOL    HW249098   9.176   6.100   1.938  1.1350 -0.1414  1.4032
15893SOL     OW49099   3.478   4.176   6.465  0.4062  0.6520 -0.1588
15893SOL    HW149100   3.520   4.131   6.391  0.0478  0.8248 -0.4777
15893SOL    HW249101   3.486   4.115   6.538  1.6472  0.8933 -0.0780
15894SOL     OW49102   2.668   2.433   3.455 -0.0668 -0.4124  0.0270
15894SOL    HW149103   2.609   2.412   3.528  1.3385 -0.8762  1.0787
15894SOL    HW249104   2.740   2.481   3.495  0.4695 -0.1880 -1.1533
15895SOL     OW49105   5.015   7.670   3.860 -0.4371 -0.5172 -0.1339
15895SOL    HW149106   5.033   7.577   3.842  3.4639  0.3938 -2.0305
15895SOL    HW249107   4.999   7.709   3.775 -0.4247  0.8131  0.4499
15896SOL     OW49108   1.666   2.999   6.397  0.4237  0.1176  0.1450
15896SOL    HW149109   1.577   3.020   6.426  0.3997  0.2263 -0.0092
15896SOL    HW249110   1.707   3.084   6.381  1.8602  0.3831  4.0257
15897SOL     OW49111   4.702   3.163   1.832 -0.4071  0.8084 -0.1367
15897SOL    HW149112   4.678   3.071   1.834 -1.1820  0.9751 -1.1063
15897SOL    HW249113   4.782   3.169   1.885  1.5065 -0.9273 -2.6403
15898SOL     OW49114   2.760   5.510   6.264 -0.1145  0.2378 -0.3964
15898SOL    HW149115   2.740   5.425   6.305 -1.5546  0.5869 -0.3263
15898SOL    HW249116   2.744   5.496   6.171 -0.4545  0.4612 -0.3712
15899SOL     OW49117   6.881   7.412   0.415 -0.0129 -0.3266  0.2040
15899SOL    HW149118   6.787   7.428   0.426  0.0661  0.9001 -0.7605
15899SOL    HW249119   6.919   7.438   0.499 -0.2869  1.5466 -0.1929
15900SOL     OW49120   5.399   6.240   2.956  0.0268  0.3453  0.2118
15900SOL    HW149121   5.404   6.311   3.020 -0.6144 -0.2469  0.9501
15900SOL    HW249122   5.306   6.218   2.952  0.2685 -0.7735  0.3750
15901SOL     OW49123   8.083   2.828   8.559 -0.0022  0.3579  0.7977
15901SOL    HW149124   7.989   2.816   8.549  0.2684  0.3372 -3.5356
15901SOL    HW249125   8.092   2.893   8.629 -3.2331  1.0987  0.6568
15902SOL     OW49126   0.949   4.129   5.331 -0.3783  0.1352  0.5593
15902SOL    HW149127   1.011   4.155   5.264  0.0261  1.6688  1.4670
15902SOL    HW249128   0.880   4.195   5.327 -1.7158 -1.2354 -0.0690
15903SOL     OW49129   5.424   3.403   2.581 -0.8443 -0.2936  0.1507
15903SOL    HW149130   5.504   3.456   2.586 -1.4002  0.4881  1.9892
15903SOL    HW249131   5.395   3.412   2.491  1.1221 -0.6010 -0.5647
15904SOL     OW49132   5.237   3.485   7.563  0.3300  0.3359 -0.0130
15904SOL    HW149133   5.202   3.431   7.492  0.4985  0.9798 -0.5948
15904SOL    HW249134   5.209   3.441   7.643 -1.8588  0.8519 -0.4439
15905SOL     OW49135   3.907   1.089   1.992 -0.1984 -0.1320  0.2129
15905SOL    HW149136   3.923   1.157   2.057 -0.0262 -1.2027  1.3111
15905SOL    HW249137   3.935   1.008   2.034  0.0990 -0.8279 -1.2715
15906SOL     OW49138   7.839   2.895   5.913  0.3098  0.1008  0.4253
15906SOL    HW149139   7.852   2.855   5.999 -0.5796 -0.8035  0.1707
15906SOL    HW249140   7.793   2.977   5.931  0.4827  0.1030  0.8457
15907SOL     OW49141   0.650   0.486   4.463 -0.6412  0.5388 -0.1995
15907SOL    HW149142   0.695   0.405   4.486 -1.1981  0.5422  0.9607
15907SOL    HW249143   0.716   0.555   4.477 -0.4914  0.3853 -0.1520
15908SOL     OW49144   4.408   0.444   1.221 -0.3315  0.2611 -0.7830
15908SOL    HW149145   4.464   0.369   1.236  1.4474  1.7265  0.4034
15908SOL    HW249146   4.322   0.417   1.255  0.6225 -0.7553  0.9841
15909SOL     OW49147   5.695   8.881   0.233  0.2202  0.4100  0.3389
15909SOL    HW149148   5.687   8.952   0.296  0.9776  0.9904 -0.2070
15909SOL    HW249149   5.609   8.839   0.233 -0.0668  0.9801  1.0640
15910SOL     OW49150   6.506   8.273   5.982 -0.3213  0.4725 -0.6470
15910SOL    HW149151   6.493   8.181   6.008 -0.1116  0.0191 -2.0669
15910SOL    HW249152   6.490   8.322   6.062 -1.2515 -0.7442 -0.0424
15911SOL     OW49153   6.238   8.576   5.734  0.6282 -0.1699 -0.4501
15911SOL    HW149154   6.183   8.558   5.658 -2.3546 -0.2734  1.5499
15911SOL    HW249155   6.222   8.668   5.753  0.8617 -0.3019  0.4033
15912SOL     OW49156   4.163   2.575   8.025  0.6429 -0.1946  0.3786
15912SOL    HW149157   4.205   2.621   8.097 -0.7768 -0.2285  1.2880
15912SOL    HW249158   4.098   2.519   8.068  0.1516 -0.6391 -0.8976
15913SOL     OW49159   0.955   8.331   2.416  0.7185  0.1312  0.3018
15913SOL    HW149160   0.946   8.425   2.433  1.0645  0.3098 -0.4470
15913SOL    HW249161   1.028   8.325   2.354  0.2779 -0.5819 -0.1574
15914SOL     OW49162   8.352   8.626   7.960  0.0441  0.6027 -0.1936
15914SOL    HW149163   8.385   8.617   7.871  1.0665 -0.2954  0.2444
15914SOL    HW249164   8.313   8.713   7.963 -2.1653 -0.2371 -2.1812
15915SOL     OW49165   4.382   4.549   9.141  0.4935  0.3549 -0.2378
15915SOL    HW149166   4.305   4.560   9.197  1.1343 -2.6147  1.4222
15915SOL    HW249167   4.351   4.497   9.067  0.1982  2.1852 -1.4573
15916SOL     OW49168   3.878   7.383   6.976 -0.8059  0.2314 -0.0997
15916SOL    HW149169   3.857   7.324   6.904  0.5603  1.0472 -1.2069
15916SOL    HW249170   3.817   7.456   6.967  0.5972  1.2783 -1.6575
15917SOL     OW49171   8.680   7.082   5.811  0.5532  0.3274  0.0424
15917SOL    HW149172   8.617   7.017   5.842 -1.3371  2.1643  0.2910
15917SOL    HW249173   8.744   7.089   5.881 -0.4272  0.2604  0.9667
15918SOL     OW49174   1.873   7.483   8.990  0.5681  0.5116 -0.0880
15918SOL    HW149175   1.816   7.454   9.060 -0.4502  2.4095 -0.0564
15918SOL    HW249176   1.857   7.422   8.918  1.0583 -0.9893  1.0122
15919SOL     OW49177   3.569   3.141   7.967 -0.2883 -0.0507  0.1504
15919SOL    HW149178   3.487   3.169   7.927  0.5109  2.7033  0.1729
15919SOL    HW249179   3.637   3.179   7.911  0.9220 -0.5271  1.2338
15920SOL     OW49180   1.286   3.163   0.070  0.0969 -0.1509 -0.0601
15920SOL    HW149181   1.366   3.121   0.101 -0.0475  1.1503  2.2731
15920SOL    HW249182   1.217   3.125   0.125 -0.6312  0.0710 -0.8085
15921SOL     OW49183   6.427   8.423   1.241 -0.0074  0.3217 -0.1169
15921SOL    HW149184   6.416   8.441   1.334  0.6500 -0.6456  0.1736
15921SOL    HW249185   6.504   8.365   1.237 -1.7767 -2.1639 -0.9430
15922SOL     OW49186   5.767   1.975   5.746  0.1367 -0.1734  0.8856
15922SOL    HW149187   5.857   1.970   5.714  0.4921 -0.2294  1.8383
15922SOL    HW249188   5.733   1.887   5.736  0.1090 -0.0998  0.3087
15923SOL     OW49189   2.399   4.272   6.594  0.0594  0.2977  0.5139
15923SOL    HW149190   2.483   4.229   6.616 -0.5377 -0.9118  0.5251
15923SOL    HW249191   2.379   4.241   6.506 -0.1309  0.9962  0.3070
15924SOL     OW49192   8.169   7.306   6.103 -0.3366  0.1469  0.3655
15924SOL    HW149193   8.137   7.263   6.024 -1.4532  0.9190  0.3716
15924SOL    HW249194   8.232   7.244   6.140 -1.0156 -0.9391 -0.2460
15925SOL     OW49195   3.430   8.321   7.140 -0.7138  0.2301  0.5140
15925SOL    HW149196   3.380   8.255   7.092  1.6645 -0.1429 -1.7018
15925SOL    HW249197   3.477   8.272   7.207 -0.2514 -0.1193 -0.0459
15926SOL     OW49198   5.896   4.215   4.162  0.4917  0.3656  0.2474
15926SOL    HW149199   5.896   4.214   4.258  1.6519 -2.3585  0.3203
15926SOL    HW249200   5.889   4.308   4.139 -0.0774  1.0784  2.9403
15927SOL     OW49201   3.106   2.559   2.446 -0.4861 -0.0776  0.7879
15927SOL    HW149202   3.055   2.606   2.512 -0.7429 -0.0756  0.5871
15927SOL    HW249203   3.196   2.562   2.479 -0.7701 -1.0360  1.7111
15928SOL     OW49204   7.556   1.050   8.498  0.2021  0.2146  0.4844
15928SOL    HW149205   7.613   1.007   8.562  0.0519 -0.0437  0.4441
15928SOL    HW249206   7.610   1.119   8.461  0.6406 -0.3205  0.1138
15929SOL     OW49207   5.334   4.444   0.088 -0.3305  0.5777  0.3876
15929SOL    HW149208   5.295   4.359   0.108 -0.0264  0.7461  1.7619
15929SOL    HW249209   5.401   4.424   0.022 -0.6471 -0.1497  0.2722
15930SOL     OW49210   2.923   3.287   2.449 -0.0004 -0.3556  0.3103
15930SOL    HW149211   2.838   3.306   2.490 -0.3469  1.4922 -1.1750
15930SOL    HW249212   2.976   3.364   2.467  0.1105  0.1471 -1.9435
15931SOL     OW49213   1.933   9.231   1.282  0.4368 -0.4549  0.1855
15931SOL    HW149214   2.009   9.176   1.263  0.4863 -0.4552  0.3834
15931SOL    HW249215   1.943   9.255   1.374 -0.7282 -1.9473  0.7492
15932SOL     OW49216   3.100   6.813   5.962  0.0798  0.2903 -0.7350
15932SOL    HW149217   3.171   6.875   5.944  0.5556 -0.3504 -1.1047
15932SOL    HW249218   3.137   6.727   5.941 -0.5948 -0.1149 -0.2989
15933SOL     OW49219   5.967   5.768   3.022 -0.3181  0.3934 -0.2380
15933SOL    HW149220   5.976   5.678   2.989 -0.2010  0.4192 -0.2750
15933SOL    HW249221   5.876   5.772   3.053 -0.4195  0.3592 -0.5252
15934SOL     OW49222   8.347   6.657   2.399 -0.2907 -0.6093  0.0300
15934SOL    HW149223   8.346   6.594   2.471 -0.7861 -0.5353  0.0917
15934SOL    HW249224   8.267   6.709   2.412  0.1773  0.1244  0.0690
15935SOL     OW49225   5.454   7.373   3.028  1.0067  0.6112 -0.1921
15935SOL    HW149226   5.461   7.278   3.037 -1.3831  0.3936 -0.0062
15935SOL    HW249227   5.482   7.407   3.113  1.7356  0.0842 -0.2125
15936SOL     OW49228   1.634   1.104   4.647 -0.3645 -0.8506 -0.1443
15936SOL    HW149229   1.715   1.081   4.602 -0.8479  0.3500 -1.7263
15936SOL    HW249230   1.598   1.177   4.595 -1.6795 -0.3508  1.3931
15937SOL     OW49231   1.884   5.176   1.626  0.0850  0.3713  0.0135
15937SOL    HW149232   1.909   5.231   1.552 -0.3133  1.2133  0.4973
15937SOL    HW249233   1.936   5.096   1.615  1.1188  1.0813 -0.3563
15938SOL     OW49234   0.784   5.083   8.542  0.0674  0.0798 -0.3230
15938SOL    HW149235   0.833   5.060   8.622  1.9918 -0.0353 -1.4650
15938SOL    HW249236   0.838   5.149   8.500 -0.2329 -0.7949 -2.1809
15939SOL     OW49237   1.584   5.859   5.196  0.0729 -0.3776 -0.1763
15939SOL    HW149238   1.656   5.869   5.133  0.6404 -0.0755  0.5084
15939SOL    HW249239   1.516   5.813   5.147  0.8543 -0.9590 -0.7445
15940SOL     OW49240   4.347   0.177   7.623 -0.3978 -0.7969  0.3056
15940SOL    HW149241   4.286   0.208   7.690  0.0360 -1.1136  0.8527
15940SOL    HW249242   4.318   0.220   7.543 -1.2129 -0.7813  0.6011
15941SOL     OW49243   0.976   3.811   2.281  0.4062 -0.3415  0.4783
15941SOL    HW149244   0.923   3.743   2.240  0.2195 -0.0111  0.1612
15941SOL    HW249245   1.027   3.765   2.347 -0.1434 -0.6948  0.6655
15942SOL     OW49246   7.375   2.481   2.906  0.5775  0.0748 -0.0481
15942SOL    HW149247   7.387   2.390   2.881  0.8441  0.3268 -0.8674
15942SOL    HW249248   7.384   2.481   3.001 -0.8491 -0.9684  0.1310
15943SOL     OW49249   2.140   3.233   2.738  0.6150 -0.0595 -0.1865
15943SOL    HW149250   2.227   3.238   2.778 -0.1964 -0.0262  1.6638
15943SOL    HW249251   2.080   3.220   2.812 -0.9253 -0.4747 -1.4521
15944SOL     OW49252   1.135   2.170   6.216  0.6683  0.5035 -0.3322
15944SOL    HW149253   1.102   2.092   6.171  0.1615  0.7455 -0.3830
15944SOL    HW249254   1.172   2.137   6.297 -1.3952  0.4024  0.6335
15945SOL     OW49255   3.046   4.736   4.855 -1.1574 -0.0599  0.0153
15945SOL    HW149256   2.965   4.692   4.881 -1.1128 -0.6693 -0.8455
15945SOL    HW249257   3.082   4.682   4.785 -2.1262  2.3577 -2.5478
15946SOL     OW49258   2.934   0.636   3.938 -0.1922  0.5780  0.1917
15946SOL    HW149259   3.008   0.631   3.877 -1.0266 -1.7896 -0.7347
15946SOL    HW249260   2.964   0.586   4.014 -1.1461 -1.3124 -0.6144
15947SOL     OW49261   3.218   0.882   2.833  0.1137 -0.2354  0.9907
15947SOL    HW149262   3.123   0.895   2.835 -0.2003 -2.2871  1.1738
15947SOL    HW249263   3.232   0.823   2.760  1.1829 -0.4682  1.3734
15948SOL     OW49264   1.037   4.959   1.835  0.0321 -0.0815  0.1077
15948SOL    HW149265   1.112   5.013   1.858  1.9528 -1.5496 -2.1970
15948SOL    HW249266   0.999   5.002   1.758 -0.2632 -0.3928  0.0773
15949SOL     OW49267   1.315   0.844   4.504 -0.2947  0.2106  0.0931
15949SOL    HW149268   1.395   0.842   4.451 -1.0249  0.2712 -1.0443
15949SOL    HW249269   1.297   0.938   4.516 -1.5130  0.2515 -1.7457
15950SOL     OW49270   6.017   3.909   0.748  0.3839  0.1052 -0.0564
15950SOL    HW149271   6.112   3.913   0.763  0.4357  0.3527 -0.4509
15950SOL    HW249272   5.993   3.997   0.721  0.0308  0.0515  0.0768
15951SOL     OW49273   7.528   1.236   0.778 -0.3366 -0.0578 -0.6538
15951SOL    HW149274   7.489   1.223   0.691  1.3350 -0.0494 -1.4450
15951SOL    HW249275   7.604   1.291   0.762  0.5670 -0.8618  0.6750
15952SOL     OW49276   3.290   2.622   9.248  0.0784 -0.1135  0.2833
15952SOL    HW149277   3.337   2.644   9.328  1.2419  1.0700 -0.6741
15952SOL    HW249278   3.333   2.674   9.180 -0.4366 -1.5605 -1.2330
15953SOL     OW49279   5.232   0.425   5.591  0.5081  0.0932  0.3708
15953SOL    HW149280   5.258   0.410   5.682  2.4263 -0.6402 -0.2535
15953SOL    HW249281   5.220   0.519   5.585  1.7203  0.3171  1.0648
15954SOL     OW49282   6.377   4.089   8.815  0.2409  0.2358 -0.4492
15954SOL    HW149283   6.294   4.112   8.857  0.7362  0.1137  0.6325
15954SOL    HW249284   6.359   4.005   8.772  0.2889 -0.7934  1.4053
15955SOL     OW49285   4.019   6.845   7.583 -0.0551  0.2150 -0.4478
15955SOL    HW149286   3.946   6.890   7.624 -0.3525 -0.9618  0.3767
15955SOL    HW249287   4.096   6.879   7.629 -0.2725 -0.0752  0.1486
15956SOL     OW49288   6.526   3.455   6.342 -0.1109  0.0261  0.5036
15956SOL    HW149289   6.546   3.405   6.421  1.9878 -2.1697 -1.2691
15956SOL    HW249290   6.431   3.442   6.330 -0.2827 -0.4550  2.0780
15957SOL     OW49291   3.741   2.849   9.069 -0.5711 -0.5934 -0.3755
15957SOL    HW149292   3.775   2.909   9.003  1.7066  0.4942  1.6502
15957SOL    HW249293   3.710   2.774   9.019  1.6843 -0.1313 -2.6589
15958SOL     OW49294   2.060   1.192   1.347 -0.1705 -0.2126 -0.2807
15958SOL    HW149295   2.118   1.137   1.399 -1.0776 -0.8748  0.0664
15958SOL    HW249296   2.073   1.280   1.381  0.9021 -0.2900 -0.4698
15959SOL     OW49297   1.259   6.176   9.171 -0.5111 -1.0073  0.3662
15959SOL    HW149298   1.184   6.232   9.192 -0.8833 -0.3358 -2.3075
15959SOL    HW249299   1.310   6.227   9.108  0.4834 -2.6947 -0.2754
15960SOL     OW49300   6.915   5.007   4.297 -0.1774  0.4563 -0.1304
15960SOL    HW149301   6.960   5.091   4.304  1.6991 -0.4654 -0.5520
15960SOL    HW249302   6.974   4.952   4.244 -1.7619 -0.8543 -0.6271
15961SOL     OW49303   5.339   6.437   5.617  0.1788  0.4514  0.3698
15961SOL    HW149304   5.428   6.456   5.589 -0.1698  0.3465 -0.8542
15961SOL    HW249305   5.284   6.493   5.562 -0.5387  0.2015  0.8170
15962SOL     OW49306   3.087   0.928   8.650  0.1607  0.0062 -0.5432
15962SOL    HW149307   3.170   0.975   8.642 -1.4121  2.6755 -3.0352
15962SOL    HW249308   3.084   0.870   8.574  0.2616 -1.1693  0.3026
15963SOL     OW49309   5.042   5.815   1.594  0.3291  0.5050  0.2001
15963SOL    HW149310   5.108   5.762   1.551  0.2301 -0.6316  1.3724
15963SOL    HW249311   4.986   5.752   1.640 -2.6298  1.2411 -2.0596
15964SOL     OW49312   1.673   3.488   4.938  0.1305  0.0932  0.4672
15964SOL    HW149313   1.627   3.552   4.991  0.5552  0.5024  0.3499
15964SOL    HW249314   1.763   3.488   4.972 -0.1503 -1.3475  1.2932
15965SOL     OW49315   4.661   2.527   0.769 -0.5443  0.5705  0.7668
15965SOL    HW149316   4.630   2.555   0.683 -1.0312  1.7683  1.3081
15965SOL    HW249317   4.589   2.547   0.829 -0.5439 -1.0294  1.3425
15966SOL     OW49318   4.662   4.021   2.459  0.4543  0.3375 -0.1681
15966SOL    HW149319   4.716   4.011   2.537  1.2226  3.8723 -0.0634
15966SOL    HW249320   4.723   4.045   2.390 -0.6037  0.8804 -0.9448
15967SOL     OW49321   0.519   3.332   2.717 -0.2698 -0.3435  0.2413
15967SOL    HW149322   0.531   3.425   2.698  1.2043  0.1780  3.1305
15967SOL    HW249323   0.586   3.287   2.666  0.3878  0.4059  0.4369
15968SOL     OW49324   1.939   0.458   6.022  0.1184  0.4400 -0.1216
15968SOL    HW149325   1.851   0.490   5.999  0.3382  0.9352 -0.2815
15968SOL    HW249326   1.965   0.403   5.948  0.5541  1.4980 -0.7663
15969SOL     OW49327   6.002   4.179   8.863 -0.1162 -0.4701  0.0394
15969SOL    HW149328   5.916   4.185   8.906 -0.4588  0.8081 -0.7642
15969SOL    HW249329   5.981   4.164   8.771  0.5055  0.3000 -0.2304
15970SOL     OW49330   7.179   7.145   2.594  0.1737  0.4713  0.6994
15970SOL    HW149331   7.216   7.076   2.649  0.1051  0.1647  0.3704
15970SOL    HW249332   7.248   7.211   2.588  0.9979 -0.4417 -0.5296
15971SOL     OW49333   5.712   8.373   0.359 -0.0192  0.1158  0.7259
15971SOL    HW149334   5.703   8.409   0.448  0.0285 -0.6675  1.0581
15971SOL    HW249335   5.794   8.410   0.327  1.4482 -1.7135  2.0766
15972SOL     OW49336   5.220   1.853   2.526 -0.3781 -0.3858  0.0957
15972SOL    HW149337   5.181   1.893   2.448 -2.3814 -1.1062  0.6512
15972SOL    HW249338   5.275   1.921   2.563 -0.0120  0.2351 -1.5163
15973SOL     OW49339   2.471   3.328   8.224  0.1247 -0.4979 -0.1161
15973SOL    HW149340   2.438   3.381   8.296 -0.3276  0.3420 -0.9317
15973SOL    HW249341   2.558   3.364   8.205  0.2420 -0.7152  0.0048
15974SOL     OW49342   4.856   3.961   9.086 -0.2294  0.3940 -0.2592
15974SOL    HW149343   4.924   3.982   9.150  1.6045  1.2143 -2.3161
15974SOL    HW249344   4.905   3.935   9.007 -2.3708 -1.5592 -1.0524
15975SOL     OW49345   6.126   5.312   6.123 -0.4496  0.1842  0.2413
15975SOL    HW149346   6.105   5.401   6.096 -0.7287  0.0558  0.0294
15975SOL    HW249347   6.220   5.304   6.110 -0.6563 -0.0780 -1.3146
15976SOL     OW49348   0.248   8.759   5.803 -0.5043 -0.4501 -0.6889
15976SOL    HW149349   0.296   8.726   5.727 -0.0379  0.3579 -0.7543
15976SOL    HW249350   0.178   8.812   5.766 -0.8324 -0.7877 -0.5650
15977SOL     OW49351   9.172   0.338   1.521  0.3569 -0.4004 -0.1964
15977SOL    HW149352   9.189   0.430   1.497 -0.2588 -0.3692 -0.5438
15977SOL    HW249353   9.121   0.304   1.447 -1.0143 -0.5014  0.7593
15978SOL     OW49354   5.622   1.880   1.073 -0.5033 -0.3344 -0.0966
15978SOL    HW149355   5.621   1.959   1.019 -1.6816  0.5224  1.1111
15978SOL    HW249356   5.595   1.810   1.013  0.6708  0.1314 -1.2114
15979SOL     OW49357   0.581   0.096   0.137 -0.2586 -0.2538  0.0171
15979SOL    HW149358   0.674   0.076   0.134 -0.3271 -0.7432  0.7178
15979SOL    HW249359   0.576   0.177   0.189 -0.4044 -1.8550  2.6920
15980SOL     OW49360   7.840   1.410   2.080  0.5541  0.4157 -0.2804
15980SOL    HW149361   7.863   1.321   2.053  2.3720  0.7125  0.1378
15980SOL    HW249362   7.799   1.448   2.003 -0.6241 -0.8986 -0.3377
15981SOL     OW49363   1.413   5.896   0.398  0.1180 -0.2910  0.0845
15981SOL    HW149364   1.418   5.964   0.466 -3.7549  0.2999  0.0089
15981SOL    HW249365   1.426   5.944   0.316 -0.5146  0.0076  0.1504
15982SOL     OW49366   0.059   5.524   0.090  0.0346 -0.1672  0.0766
15982SOL    HW149367   0.100   5.552   0.172  1.9511 -0.6074 -0.6846
15982SOL    HW249368  -0.013   5.468   0.118 -1.3856  2.1887  1.5097
15983SOL     OW49369   5.412   5.484   6.419  0.7970 -0.4040 -0.1595
15983SOL    HW149370   5.370   5.551   6.364 -0.7628 -0.6679  0.6525
15983SOL    HW249371   5.490   5.527   6.453  0.9203  0.3106 -1.2749
15984SOL     OW49372   7.759   6.624   6.900  0.0019  0.0496 -0.4294
15984SOL    HW149373   7.768   6.658   6.811 -1.8609 -1.3451 -1.1989
15984SOL    HW249374   7.721   6.697   6.950  0.1296  0.5157 -0.9962
15985SOL     OW49375   3.780   8.985   5.918  0.2840  0.2236  0.1585
15985SOL    HW149376   3.705   8.932   5.892 -1.0513  1.4034  1.4348
15985SOL    HW249377   3.795   9.044   5.844 -1.7494  1.7308  0.8666
15986SOL     OW49378   1.859   1.168   0.689  0.1400  0.1556 -0.0429
15986SOL    HW149379   1.908   1.249   0.671 -0.6647  0.7286  0.2603
15986SOL    HW249380   1.897   1.103   0.630  2.8058 -0.0425  1.7371
15987SOL     OW49381   3.233   9.181   3.105 -0.0442  0.7426  0.0332
15987SOL    HW149382   3.236   9.089   3.131 -0.2813  0.9464  0.8140
15987SOL    HW249383   3.140   9.200   3.093  0.1164  0.2081 -2.7097
15988SOL     OW49384   8.881   6.981   0.197  0.4041 -0.1474 -0.2828
15988SOL    HW149385   8.854   7.068   0.228 -0.5742  0.2395 -2.0580
15988SOL    HW249386   8.861   6.922   0.269 -1.3293  0.7637  0.0286
15989SOL     OW49387   6.005   4.777   4.575  0.1037  0.1587 -0.0637
15989SOL    HW149388   5.975   4.790   4.485  0.3764  0.3953 -0.1200
15989SOL    HW249389   6.084   4.724   4.566  0.3506  0.5130  0.0110
15990SOL     OW49390   1.375   0.559   3.936  0.6066 -0.2947  0.0092
15990SOL    HW149391   1.288   0.589   3.907  0.1659 -0.6701  0.9026
15990SOL    HW249392   1.357   0.509   4.015  1.7508  0.4658  0.7728
15991SOL     OW49393   8.328   2.632   3.352 -0.5194  0.3719  0.3241
15991SOL    HW149394   8.351   2.543   3.327  0.5959  0.2592  1.6011
15991SOL    HW249395   8.408   2.666   3.394 -0.6050  2.2993 -0.9810
15992SOL     OW49396   8.142   4.350   8.296 -0.0817 -0.4346  0.5844
15992SOL    HW149397   8.150   4.257   8.317  0.9483 -0.4965 -0.0332
15992SOL    HW249398   8.068   4.355   8.236  0.2411 -0.9413  0.1421
15993SOL     OW49399   0.124   6.137   6.068  0.4246 -0.2307  0.3140
15993SOL    HW149400   0.210   6.112   6.100  0.5775 -0.1301 -0.0093
15993SOL    HW249401   0.090   6.058   6.027  0.5452 -0.1543  0.0618
15994SOL     OW49402   1.652   7.533   6.635 -0.2170 -0.1071 -0.2380
15994SOL    HW149403   1.571   7.526   6.687 -0.0674 -0.9028 -0.0896
15994SOL    HW249404   1.664   7.445   6.599  0.6984 -0.0594 -0.0743
15995SOL     OW49405   8.392   4.876   5.798 -0.2154 -0.1592  0.1718
15995SOL    HW149406   8.297   4.882   5.805 -0.1600 -0.1516  1.0800
15995SOL    HW249407   8.422   4.873   5.889  0.5791 -1.2798 -0.1125
15996SOL     OW49408   6.015   0.440   0.613 -0.7456 -0.3045 -0.2819
15996SOL    HW149409   6.033   0.371   0.677  0.3490 -0.2072 -0.4589
15996SOL    HW249410   6.085   0.430   0.548 -0.3056  1.2322 -0.0817
15997SOL     OW49411   7.130   8.715   2.003  1.0384  0.1882  0.1706
15997SOL    HW149412   7.188   8.749   2.072  1.8491  0.5600 -0.6790
15997SOL    HW249413   7.077   8.649   2.048 -0.4371  2.3581  1.8318
15998SOL     OW49414   8.820   4.894   3.143 -0.3251 -0.3044 -0.0715
15998SOL    HW149415   8.839   4.927   3.055  1.1419  2.0138  1.0071
15998SOL    HW249416   8.880   4.942   3.200  0.1354 -3.1363  2.0389
15999SOL     OW49417   3.503   3.907   0.361 -0.6021 -0.4093 -0.7201
15999SOL    HW149418   3.428   3.925   0.417 -3.0039 -0.4266 -3.7050
15999SOL    HW249419   3.514   3.812   0.365 -1.6442 -0.5617 -1.3136
16000SOL     OW49420   0.832   8.543   0.699  0.5455  0.8591 -0.1089
16000SOL    HW149421   0.753   8.558   0.648 -0.4058  0.0924  1.0834
16000SOL    HW249422   0.807   8.565   0.789  2.2912  2.5964  0.0281
16001SOL     OW49423   9.115   6.987   0.947  0.0634 -0.0044 -0.5207
16001SOL    HW149424   9.033   7.018   0.911  0.6285  1.3249 -0.7126
16001SOL    HW249425   9.126   6.899   0.909 -2.5028 -1.3612  1.5405
16002SOL     OW49426   9.035   7.732   0.370 -0.3059 -0.1784 -0.5713
16002SOL    HW149427   9.002   7.723   0.280 -1.4336 -1.4090 -0.0600
16002SOL    HW249428   8.957   7.733   0.424  0.4021 -1.6351  0.5557
16003SOL     OW49429   6.104   8.624   7.414 -0.4670 -0.0863 -0.4335
16003SOL    HW149430   6.128   8.628   7.321 -1.0766  0.0792 -0.5883
16003SOL    HW249431   6.014   8.656   7.416 -0.7992 -1.0360  0.0949
16004SOL     OW49432   0.638   4.580   8.422  0.3762  0.4380 -0.0379
16004SOL    HW149433   0.580   4.650   8.391 -0.7911  0.8648  2.7584
16004SOL    HW249434   0.689   4.621   8.492  0.8690 -1.0742  0.5312
16005SOL     OW49435   3.819   4.111   4.408 -0.3241  0.2278 -0.6524
16005SOL    HW149436   3.862   4.031   4.440 -1.2251  0.1142  0.3355
16005SOL    HW249437   3.884   4.152   4.352  1.4505  0.5178  1.4810
16006SOL     OW49438   6.214   2.785   2.461 -0.4610  0.4001  0.4393
16006SOL    HW149439   6.125   2.779   2.495 -0.4922  0.0884  0.2985
16006SOL    HW249440   6.214   2.732   2.382  0.0870 -0.3257  0.9176
16007SOL     OW49441   7.917   7.889   0.687 -0.2884 -0.4090  0.2515
16007SOL    HW149442   7.839   7.939   0.709 -2.4729 -3.1009 -0.7857
16007SOL    HW249443   7.945   7.923   0.602  0.1302  1.0151  0.9314
16008SOL     OW49444   6.765   0.050   0.840 -0.0900 -0.2851  0.5623
16008SOL    HW149445   6.821   0.127   0.840 -1.5182  0.8093 -0.4857
16008SOL    HW249446   6.755   0.028   0.747 -0.1672 -1.3914  0.8169
16009SOL     OW49447   4.433   1.431   4.000  0.3052  0.2483  0.4148
16009SOL    HW149448   4.418   1.358   4.061 -0.7363  0.6955  0.7243
16009SOL    HW249449   4.345   1.455   3.970  0.3680  2.8302  2.0277
16010SOL     OW49450   4.432   2.029   0.692  0.4133 -0.5343 -0.3781
16010SOL    HW149451   4.485   2.109   0.688 -0.7194  0.3389  1.2405
16010SOL    HW249452   4.391   2.031   0.778 -0.3649 -2.4240 -0.6518
16011SOL     OW49453   7.801   1.503   6.219  0.3430  0.4307  0.1861
16011SOL    HW149454   7.809   1.441   6.147 -0.0686 -0.9354  1.2592
16011SOL    HW249455   7.870   1.568   6.204 -1.0757  1.4560 -2.5792
16012SOL     OW49456   9.086   8.169   0.518 -0.6265 -0.2078 -0.3776
16012SOL    HW149457   9.036   8.152   0.438 -0.6710  0.7672 -0.5668
16012SOL    HW249458   9.049   8.250   0.552  0.0256 -0.1189  0.1292
16013SOL     OW49459   4.802   7.182   7.274  0.2064 -0.1901  0.5699
16013SOL    HW149460   4.841   7.123   7.339  1.2412  1.1852  1.2534
16013SOL    HW249461   4.709   7.159   7.275  0.3199 -0.7285  1.9913
16014SOL     OW49462   4.839   0.472   7.303 -0.0502  0.2056 -0.0139
16014SOL    HW149463   4.908   0.407   7.289 -0.9115 -0.4968 -1.1652
16014SOL    HW249464   4.877   0.554   7.275 -0.1330 -0.4144 -2.0829
16015SOL     OW49465   0.594   4.251   2.592 -0.2361 -0.3482  0.1782
16015SOL    HW149466   0.683   4.269   2.624  0.0432  1.5104 -1.4249
16015SOL    HW249467   0.542   4.324   2.626 -1.3059 -1.6614  1.4851
16016SOL     OW49468   1.116   7.532   7.750  0.5380  0.5688  0.2049
16016SOL    HW149469   1.156   7.454   7.712  0.3361 -0.4543  1.9646
16016SOL    HW249470   1.068   7.573   7.678 -0.9024 -1.9547 -0.3836
16017SOL     OW49471   4.378   2.374   6.424 -0.6298  0.2260 -0.7122
16017SOL    HW149472   4.293   2.375   6.379 -1.5453  1.0867  0.9097
16017SOL    HW249473   4.421   2.455   6.397 -1.3768  0.9759  0.2358
16018SOL     OW49474   2.615   3.439   9.047 -0.0872 -0.3627  0.1447
16018SOL    HW149475   2.536   3.414   9.000  0.7356 -0.1446 -1.4417
16018SOL    HW249476   2.684   3.439   8.980  0.9853  0.8229  1.1767
16019SOL     OW49477   5.179   3.124   3.121  0.2937 -0.2796 -0.7145
16019SOL    HW149478   5.086   3.104   3.131  0.0077  1.6289  1.1520
16019SOL    HW249479   5.195   3.115   3.027 -2.0011  0.1609 -1.2214
16020SOL     OW49480   6.208   0.051   6.302  0.2633  0.2548 -0.0449
16020SOL    HW149481   6.234   0.124   6.359  0.2344  1.5817 -1.6618
16020SOL    HW249482   6.289   0.026   6.258  0.3528 -0.9904  0.7746
16021SOL     OW49483   2.402   9.091   5.609 -0.1905 -0.0612  0.2710
16021SOL    HW149484   2.326   9.078   5.552  0.9310 -1.3187 -0.9932
16021SOL    HW249485   2.470   9.037   5.571  1.0107  0.1073  2.0777
16022SOL     OW49486   4.395   8.386   6.679  0.1249  0.4535  0.2492
16022SOL    HW149487   4.392   8.406   6.773  0.0609  1.1932  0.0985
16022SOL    HW249488   4.467   8.323   6.670  0.5054  0.8059  0.7268
16023SOL     OW49489   4.199   3.472   3.477 -0.3483  0.4834  0.0795
16023SOL    HW149490   4.180   3.453   3.385 -0.1438  0.2359  0.0868
16023SOL    HW249491   4.234   3.561   3.476  1.7381 -0.2969 -0.3644
16024SOL     OW49492   6.731   6.322   7.943  0.1235  0.1511  0.0182
16024SOL    HW149493   6.810   6.329   7.891  0.9638 -1.4224  1.0199
16024SOL    HW249494   6.716   6.228   7.953 -1.7601  0.4100  0.0355
16025SOL     OW49495   5.443   2.321   6.632 -0.2790 -0.2202 -0.1487
16025SOL    HW149496   5.366   2.318   6.688  1.6079 -0.2093  2.6276
16025SOL    HW249497   5.436   2.243   6.577 -1.9439 -0.5491  0.4800
16026SOL     OW49498   2.738   3.304   5.889 -0.1274 -0.0525 -0.5472
16026SOL    HW149499   2.688   3.377   5.853  0.6141 -0.5454 -2.7191
16026SOL    HW249500   2.822   3.307   5.842  0.6263 -1.2044  0.6570
16027SOL     OW49501   0.511   4.928   3.058  0.1392 -0.1363 -0.3276
16027SOL    HW149502   0.602   4.953   3.077 -0.6022  1.7523  0.9674
16027SOL    HW249503   0.503   4.940   2.963  1.5451 -1.5429 -0.6759
16028SOL     OW49504   0.051   3.584   3.440 -0.2807  0.5338 -0.4831
16028SOL    HW149505   0.085   3.568   3.528 -0.0080  0.5740 -0.5781
16028SOL    HW249506   0.115   3.643   3.400 -1.7421  2.6726  0.1708
16029SOL     OW49507   3.227   4.220   3.724 -0.0903 -0.2492 -0.4103
16029SOL    HW149508   3.305   4.188   3.678  1.0145  0.4307  0.9077
16029SOL    HW249509   3.233   4.315   3.719 -0.0273 -0.1512  0.9268
16030SOL     OW49510   2.547   4.087   7.283  0.1750  0.2652 -0.3346
16030SOL    HW149511   2.640   4.075   7.262  0.2732 -1.8577  1.0584
16030SOL    HW249512   2.531   4.180   7.267  3.1592  1.2602  1.5329
16031SOL     OW49513   9.044   4.090   0.347  0.5145 -0.4633 -0.1666
16031SOL    HW149514   8.975   4.029   0.374 -2.1318  1.6613 -1.5748
16031SOL    HW249515   9.108   4.087   0.418 -0.6309 -3.0791  0.9003
16032SOL     OW49516   5.340   5.076   1.518 -0.1341  0.5202  0.5215
16032SOL    HW149517   5.413   5.134   1.495  1.7814 -2.4302 -1.6308
16032SOL    HW249518   5.358   5.048   1.608  2.0933 -0.8894 -0.2713
16033SOL     OW49519   4.696   6.422   5.253  0.1596 -0.1611 -0.0854
16033SOL    HW149520   4.749   6.434   5.174  0.7763  0.7979  0.4545
16033SOL    HW249521   4.718   6.497   5.308 -0.7464 -0.4771  0.7302
16034SOL     OW49522   0.632   6.319   0.509  0.4890 -0.0951  0.3052
16034SOL    HW149523   0.625   6.414   0.517  0.0981 -0.1074  0.1335
16034SOL    HW249524   0.721   6.304   0.478 -0.2291  0.3767 -2.2297
16035SOL     OW49525   5.172   4.467   9.020 -0.3072 -0.3200 -0.5562
16035SOL    HW149526   5.094   4.425   9.054 -1.8682  2.3737 -0.5585
16035SOL    HW249527   5.182   4.546   9.073  2.1824 -0.3426 -0.8616
16036SOL     OW49528   7.259   0.431   1.392  0.0618 -0.4487 -0.1684
16036SOL    HW149529   7.263   0.342   1.358  0.7485 -0.2190 -0.7114
16036SOL    HW249530   7.170   0.439   1.427 -0.8498 -0.5593 -2.3137
16037SOL     OW49531   0.018   0.524   7.760 -0.1955 -0.1972  0.3853
16037SOL    HW149532   0.024   0.451   7.822  1.0391 -0.1353  0.3665
16037SOL    HW249533  -0.017   0.596   7.812  0.9543 -0.1104  1.0597
16038SOL     OW49534   1.254   6.475   3.894  0.0055 -0.0962  0.1380
16038SOL    HW149535   1.343   6.441   3.892 -0.5566 -1.6528  0.3132
16038SOL    HW249536   1.206   6.420   3.833 -1.4298 -1.1426  2.1102
16039SOL     OW49537   7.666   8.778   7.691 -0.0190 -0.3728 -0.0320
16039SOL    HW149538   7.681   8.794   7.598  2.2795 -1.2578  0.1127
16039SOL    HW249539   7.600   8.709   7.693  0.7710 -1.1902 -1.0857
16040SOL     OW49540   5.538   3.133   2.143  0.3156 -0.2421 -0.3134
16040SOL    HW149541   5.469   3.152   2.079  0.3994 -1.0823 -0.6649
16040SOL    HW249542   5.491   3.098   2.218  0.0841  1.9569  0.6358
16041SOL     OW49543   6.836   3.704   3.538  0.4601 -0.2171  0.3532
16041SOL    HW149544   6.912   3.753   3.569 -0.0437  0.3246  0.7718
16041SOL    HW249545   6.823   3.635   3.604  0.2187  0.0827  0.6269
16042SOL     OW49546   4.232   4.518   2.636 -0.0380 -0.0018  0.0122
16042SOL    HW149547   4.204   4.441   2.586 -3.4092  0.5596  0.8113
16042SOL    HW249548   4.289   4.566   2.576 -0.4232 -1.5164 -1.6484
16043SOL     OW49549   7.623   5.204   2.076 -0.1741 -1.0035  0.5534
16043SOL    HW149550   7.710   5.166   2.070  0.7515  1.1874 -2.0684
16043SOL    HW249551   7.587   5.196   1.988 -0.0627  3.4479 -0.1305
16044SOL     OW49552   3.270   5.903   9.050  0.0916 -0.4503  0.3823
16044SOL    HW149553   3.341   5.838   9.055 -0.6873 -1.2926  1.0353
16044SOL    HW249554   3.234   5.893   8.962  0.9736  0.2047 -0.0647
16045SOL     OW49555   1.744   0.544   6.980 -0.5188 -0.1821 -0.2533
16045SOL    HW149556   1.757   0.638   6.963 -2.5575  0.0316 -0.8416
16045SOL    HW249557   1.690   0.541   7.058  2.0731 -1.0179  1.6772
16046SOL     OW49558   4.671   0.405   4.734 -0.0988 -0.1947  0.1782
16046SOL    HW149559   4.679   0.492   4.772  0.0665 -0.8764  1.7940
16046SOL    HW249560   4.577   0.393   4.721  0.0098  1.1715 -2.5054
16047SOL     OW49561   4.077   1.042   1.687 -0.2928 -0.4600  0.0245
16047SOL    HW149562   4.045   1.129   1.663 -0.2572 -0.3572  0.3493
16047SOL    HW249563   4.000   0.995   1.717 -0.3110 -0.5415 -0.1463
16048SOL     OW49564   2.467   7.844   1.498  1.0091 -0.3597 -0.4013
16048SOL    HW149565   2.486   7.871   1.588 -0.8393 -0.4763  0.0726
16048SOL    HW249566   2.493   7.919   1.445 -1.4193  1.3734  0.6429
16049SOL     OW49567   6.361   6.532   0.098  0.2054  0.4059 -0.1349
16049SOL    HW149568   6.302   6.512   0.025  0.0497 -0.0969  0.1202
16049SOL    HW249569   6.330   6.617   0.131  1.3549  1.4913 -1.7132
16050SOL     OW49570   3.064   5.431   6.880 -0.0128 -0.3376  0.4112
16050SOL    HW149571   2.991   5.455   6.936 -0.5105  0.1247 -0.4127
16050SOL    HW249572   3.062   5.495   6.809  0.8724 -0.6368  0.0957
16051SOL     OW49573   2.951   7.844   1.674 -0.4790  0.1546  0.1825
16051SOL    HW149574   2.967   7.860   1.581 -0.8727 -2.0371 -0.3190
16051SOL    HW249575   2.873   7.896   1.695 -1.4590 -0.6898 -1.1993
16052SOL     OW49576   8.486   0.927   4.653  0.1135  0.3623  0.7002
16052SOL    HW149577   8.535   0.952   4.575 -2.0662  0.8139 -0.6022
16052SOL    HW249578   8.395   0.949   4.633 -0.6842 -0.5476  2.9448
16053SOL     OW49579   7.885   5.501   7.365  0.2101  0.1725  0.3661
16053SOL    HW149580   7.950   5.449   7.318  0.3942  0.8011 -0.0714
16053SOL    HW249581   7.821   5.527   7.298  0.7957  1.5797  0.3278
16054SOL     OW49582   6.511   2.615   0.826 -0.0974 -0.1303 -0.1850
16054SOL    HW149583   6.433   2.632   0.774 -0.6450  0.1397  0.6994
16054SOL    HW249584   6.481   2.622   0.917  0.5535 -1.8223  0.1951
16055SOL     OW49585   4.060   4.988   3.551 -0.2267  0.2707  0.1177
16055SOL    HW149586   3.981   4.990   3.497 -0.3607  0.4956  0.3186
16055SOL    HW249587   4.039   5.044   3.626  0.2870  0.6979 -0.0526
16056SOL     OW49588   8.638   7.273   4.000  0.6402  0.9078  0.1246
16056SOL    HW149589   8.587   7.334   4.053 -0.7363 -0.7952  0.8907
16056SOL    HW249590   8.579   7.248   3.929 -0.6723 -2.8209  2.2558
16057SOL     OW49591   0.936   6.927   5.559  0.1555 -0.3651 -0.0529
16057SOL    HW149592   0.913   7.020   5.560  1.4195 -0.0294  0.2110
16057SOL    HW249593   0.853   6.881   5.549 -0.4238  0.8152 -0.7968
16058SOL     OW49594   1.541   6.889   6.262  0.2753  0.3159  0.1585
16058SOL    HW149595   1.492   6.916   6.339 -0.7353 -0.2013 -0.2823
16058SOL    HW249596   1.502   6.939   6.190 -0.8535 -1.3920 -0.4825
16059SOL     OW49597   6.039   4.885   1.084  0.0589 -0.4255  0.6862
16059SOL    HW149598   5.975   4.813   1.083 -0.4882  0.0366 -0.7464
16059SOL    HW249599   6.110   4.854   1.027  2.0505 -1.6664  3.6047
16060SOL     OW49600   8.861   6.863   6.835 -0.2298  0.1475  0.3962
16060SOL    HW149601   8.805   6.789   6.814  0.0755  0.0430 -0.0474
16060SOL    HW249602   8.890   6.847   6.925  2.1553 -1.7840 -0.6007
16061SOL     OW49603   8.147   8.997   3.204 -0.2913 -0.5830 -0.1412
16061SOL    HW149604   8.204   8.950   3.143 -0.3653 -1.0208  0.1210
16061SOL    HW249605   8.182   9.086   3.205  0.7806 -0.9907  0.4825
16062SOL     OW49606   2.899   9.185   4.745  0.0576 -0.0563 -0.3542
16062SOL    HW149607   2.808   9.156   4.734  0.4527 -0.7803 -2.0073
16062SOL    HW249608   2.947   9.104   4.763  0.4405  0.2735  0.1280
16063SOL     OW49609   4.015   8.012   4.330  0.4592  0.5990 -0.4556
16063SOL    HW149610   3.976   8.041   4.412 -0.1888 -0.3906 -0.3920
16063SOL    HW249611   3.942   7.972   4.282  1.2833 -0.9328 -0.5040
16064SOL     OW49612   2.577   5.316   5.888  0.0512  0.6846 -0.5693
16064SOL    HW149613   2.523   5.393   5.904 -0.6101  0.1636 -0.2706
16064SOL    HW249614   2.641   5.315   5.959 -1.1255 -0.0736  0.5181
16065SOL     OW49615   2.357   3.898   6.810  0.0891 -0.2496  0.2312
16065SOL    HW149616   2.396   3.982   6.834 -0.5342 -0.2165  1.1901
16065SOL    HW249617   2.268   3.921   6.782  0.3476 -0.4527 -0.8173
16066SOL     OW49618   8.627   6.847   7.540 -0.4621 -0.3010 -0.0735
16066SOL    HW149619   8.696   6.816   7.599 -1.8892 -1.3977  1.0887
16066SOL    HW249620   8.670   6.854   7.455  0.8255 -2.0195  0.3753
16067SOL     OW49621   2.816   2.214   8.301  0.2560  0.6204 -0.1423
16067SOL    HW149622   2.907   2.225   8.274  0.0074 -0.9586 -1.8942
16067SOL    HW249623   2.799   2.120   8.289 -2.2301  1.1990 -2.1941
16068SOL     OW49624   1.997   0.340   0.058  0.5385  0.3465  0.6037
16068SOL    HW149625   2.011   0.322   0.151  3.5478  1.8991  0.5862
16068SOL    HW249626   1.912   0.384   0.054 -0.4873 -1.3312  2.3270
16069SOL     OW49627   5.754   5.521   3.602 -0.4879  0.3142 -0.0639
16069SOL    HW149628   5.776   5.502   3.510 -0.8015 -0.5375  0.0276
16069SOL    HW249629   5.781   5.612   3.615  0.6324  0.0834 -0.6661
16070SOL     OW49630   5.865   3.875   5.491 -0.1248  0.0341 -0.0556
16070SOL    HW149631   5.901   3.854   5.405  2.4675  0.4543  0.8323
16070SOL    HW249632   5.776   3.840   5.489  0.3745 -1.3298 -2.3446
16071SOL     OW49633   0.755   3.312   5.578  0.4200 -0.2506  0.5033
16071SOL    HW149634   0.788   3.397   5.606  1.4585 -0.5818  0.3283
16071SOL    HW249635   0.768   3.310   5.483 -2.2924  0.5262  0.0277
16072SOL     OW49636   3.230   5.866   6.508  0.0248  0.2488 -0.2532
16072SOL    HW149637   3.187   5.933   6.454 -3.2777 -1.3945  0.0878
16072SOL    HW249638   3.256   5.798   6.446  0.5036  0.4295 -0.2544
16073SOL     OW49639   7.070   3.995   3.010 -0.6303  0.3021  0.4148
16073SOL    HW149640   7.095   3.939   2.937 -1.8605 -0.9031  0.8620
16073SOL    HW249641   7.003   4.054   2.974 -0.1056  0.7803  0.2054
16074SOL     OW49642   4.088   4.119   2.834 -0.5217 -0.2534  0.2621
16074SOL    HW149643   4.116   4.150   2.920  1.1020 -0.8500  0.0009
16074SOL    HW249644   4.054   4.031   2.850 -0.3174 -0.3240  0.3112
16075SOL     OW49645   7.422   8.874   4.165 -0.0739 -0.2399  0.3336
16075SOL    HW149646   7.468   8.911   4.241  0.4888 -1.2221  0.4922
16075SOL    HW249647   7.345   8.929   4.154  0.3237  0.4779  1.0511
16076SOL     OW49648   4.759   7.076   8.741  0.7269  0.4430  0.1727
16076SOL    HW149649   4.816   7.153   8.739 -1.5360  2.2361  0.7256
16076SOL    HW249650   4.721   7.072   8.654  2.5101 -1.5169 -0.6134
16077SOL     OW49651   2.171   7.812   7.098  0.0518  0.3393 -0.1559
16077SOL    HW149652   2.133   7.861   7.170 -0.9744  1.9465 -1.6989
16077SOL    HW249653   2.134   7.724   7.106 -1.3568  0.9481  0.3315
16078SOL     OW49654   1.023   7.435   7.163 -0.5331 -0.5673 -0.6066
16078SOL    HW149655   0.956   7.461   7.099  0.5049 -1.7525 -2.2489
16078SOL    HW249656   0.998   7.482   7.243 -1.4471  1.6154 -2.0569
16079SOL     OW49657   2.042   5.240   7.096  0.1301  0.1384 -0.3444
16079SOL    HW149658   2.001   5.207   7.016  0.2839  1.5203 -1.0157
16079SOL    HW249659   2.062   5.161   7.147  0.6664 -0.8181 -1.9630
16080SOL     OW49660   8.190   6.770   5.994 -0.3804  0.3577 -0.6870
16080SOL    HW149661   8.232   6.745   5.912 -1.6886 -1.4440 -0.8852
16080SOL    HW249662   8.098   6.782   5.970 -0.8662 -0.6645  0.5818
16081SOL     OW49663   8.489   8.841   8.809 -0.4612 -0.1783  0.5445
16081SOL    HW149664   8.400   8.855   8.840 -0.8623 -0.6985 -0.3417
16081SOL    HW249665   8.484   8.762   8.756  0.0496  0.9733 -1.3491
16082SOL     OW49666   0.400   2.335   2.249 -0.0959  0.3927  0.3123
16082SOL    HW149667   0.387   2.406   2.312  0.9734  0.6153  0.3088
16082SOL    HW249668   0.471   2.366   2.192  0.0132 -0.4491 -0.0256
16083SOL     OW49669   6.325   7.470   8.722  0.2221 -0.1500  0.1386
16083SOL    HW149670   6.405   7.494   8.768  0.1051  2.0045 -0.6717
16083SOL    HW249671   6.336   7.508   8.634 -1.5582 -0.0832 -0.0835
16084SOL     OW49672   1.870   7.591   8.099  0.3265 -0.0039 -0.3375
16084SOL    HW149673   1.957   7.578   8.135  1.1420 -0.5894 -2.3822
16084SOL    HW249674   1.864   7.686   8.085  1.1604 -0.0764 -1.3381
16085SOL     OW49675   4.752   6.932   6.179 -0.6095  0.8868  0.5017
16085SOL    HW149676   4.762   6.992   6.253 -0.2510 -0.3382  1.4706
16085SOL    HW249677   4.675   6.880   6.200  0.8912 -1.1573  1.2868
16086SOL     OW49678   2.931   2.869   5.111 -0.1206 -0.4238  0.3060
16086SOL    HW149679   2.895   2.937   5.168 -1.3075 -0.6667 -0.1255
16086SOL    HW249680   2.985   2.816   5.169 -0.9465 -0.4073  1.1220
16087SOL     OW49681   3.445   8.999   5.995  0.0541  1.0069 -0.5079
16087SOL    HW149682   3.385   8.927   6.015  0.0139  1.1527 -0.1051
16087SOL    HW249683   3.438   9.058   6.070  1.0391  0.8034 -0.2487
16088SOL     OW49684   3.029   0.298   8.021  0.7769 -0.9882  0.4350
16088SOL    HW149685   3.054   0.375   7.970  1.2122 -0.7442  1.0072
16088SOL    HW249686   2.963   0.329   8.082 -0.3090 -1.4446 -0.4753
16089SOL     OW49687   8.863   5.207   4.056  0.1548 -0.4839  0.1259
16089SOL    HW149688   8.912   5.274   4.103 -0.7055 -1.5552  2.7020
16089SOL    HW249689   8.771   5.227   4.073 -0.1215 -2.4654  1.2535
16090SOL     OW49690   8.253   0.260   4.811  0.2198 -0.0572 -0.6142
16090SOL    HW149691   8.215   0.251   4.724  1.9879 -0.8679 -1.3560
16090SOL    HW249692   8.322   0.194   4.814  1.6154  1.3866  0.6260
16091SOL     OW49693   6.529   1.431   1.588 -0.5723 -0.2271 -0.6132
16091SOL    HW149694   6.502   1.349   1.628  0.9816 -1.6910 -2.4058
16091SOL    HW249695   6.463   1.448   1.521 -1.8511  0.9730  0.8691
16092SOL     OW49696   5.103   4.895   8.126 -0.2365  0.2491  0.1596
16092SOL    HW149697   5.079   4.858   8.211  0.3035  1.9297  1.0853
16092SOL    HW249698   5.052   4.976   8.119 -0.3418  0.1015 -1.1731
16093SOL     OW49699   6.251   5.685   5.646  0.1582  0.4190  0.2626
16093SOL    HW149700   6.252   5.597   5.684 -0.5449  0.5690  0.6430
16093SOL    HW249701   6.338   5.720   5.665  1.1404 -0.8732 -1.5349
16094SOL     OW49702   7.027   1.781   3.649  0.1397 -0.4142 -0.2762
16094SOL    HW149703   7.090   1.837   3.692  0.5932 -0.4497 -0.8803
16094SOL    HW249704   7.078   1.706   3.617  0.1058  0.3068 -2.1579
16095SOL     OW49705   0.348   6.393   8.803 -0.3697 -0.0788 -0.0136
16095SOL    HW149706   0.402   6.468   8.829 -0.3908 -0.1514  0.2449
16095SOL    HW249707   0.411   6.327   8.774 -0.4099  0.5241 -1.5630
16096SOL     OW49708   7.842   8.396   6.314  0.3021 -0.0041 -0.0534
16096SOL    HW149709   7.748   8.393   6.295  0.4588  1.4611 -1.3243
16096SOL    HW249710   7.870   8.304   6.309 -0.8201 -0.3319 -1.0844
16097SOL     OW49711   3.214   6.771   3.060 -0.5894  0.0507 -0.0075
16097SOL    HW149712   3.284   6.804   3.116  0.4466  0.7035 -1.5994
16097SOL    HW249713   3.251   6.774   2.972 -1.3404 -3.1001 -0.5434
16098SOL     OW49714   2.570   3.855   0.067 -0.2900 -0.5701 -0.2092
16098SOL    HW149715   2.564   3.764   0.036 -1.0970 -0.3383 -0.7514
16098SOL    HW249716   2.517   3.905   0.005 -0.2408  0.2099  0.3680
16099SOL     OW49717   3.251   2.400   3.917  0.1285  0.6099 -0.0214
16099SOL    HW149718   3.335   2.392   3.872 -0.5414 -0.8423 -1.0932
16099SOL    HW249719   3.197   2.452   3.857 -0.0252  0.7431  0.2308
16100SOL     OW49720   4.784   7.455   5.673 -0.0962 -0.2040 -0.2762
16100SOL    HW149721   4.727   7.515   5.625 -0.5805 -0.0376  0.4901
16100SOL    HW249722   4.817   7.506   5.747  0.8557 -0.3778 -0.5739
16101SOL     OW49723   2.565   5.662   8.572  0.2073 -0.1533 -0.0659
16101SOL    HW149724   2.586   5.738   8.627  1.6981 -0.5928 -0.0006
16101SOL    HW249725   2.487   5.689   8.523  0.8910  1.5441 -0.2862
16102SOL     OW49726   7.546   3.297   2.120  0.0839  0.2598 -0.7840
16102SOL    HW149727   7.584   3.238   2.185  0.0279 -1.0578 -1.9143
16102SOL    HW249728   7.488   3.242   2.068 -0.7845  1.5443 -1.2168
16103SOL     OW49729   6.624   7.285   5.988  0.4869 -0.4894  0.1613
16103SOL    HW149730   6.643   7.364   5.938  2.2725 -1.6736 -1.1417
16103SOL    HW249731   6.585   7.318   6.070 -3.3039  1.5059 -2.1236
16104SOL     OW49732   9.228   1.599   1.395  0.5651  0.3082  0.1102
16104SOL    HW149733   9.224   1.564   1.484 -1.2137  0.5284  0.1456
16104SOL    HW249734   9.236   1.694   1.407  1.0056  0.2893  0.0102
16105SOL     OW49735   4.384   6.735   1.015 -0.1455 -0.0814  0.2194
16105SOL    HW149736   4.458   6.777   0.972  0.3170 -1.3232 -0.2372
16105SOL    HW249737   4.313   6.800   1.009  0.7801  0.9582  0.3142
16106SOL     OW49738   1.349   8.583   0.510  0.4943  0.2157 -0.6091
16106SOL    HW149739   1.307   8.623   0.587  0.4315 -1.1340  0.0937
16106SOL    HW249740   1.279   8.576   0.446  0.2314  0.2192 -0.3285
16107SOL     OW49741   4.908   9.078   6.121 -0.0496 -0.2693 -0.3235
16107SOL    HW149742   4.948   9.071   6.035  1.0863  0.0163  0.1694
16107SOL    HW249743   4.962   9.141   6.168 -0.3640 -0.7836  0.7640
16108SOL     OW49744   6.276   4.489   2.729  0.6038  0.3818  0.6093
16108SOL    HW149745   6.316   4.575   2.716  1.7536  0.0698  1.7822
16108SOL    HW249746   6.226   4.498   2.810  0.4353  0.0484  0.5432
16109SOL     OW49747   8.421   7.886   8.131 -0.4183  0.5575  0.1870
16109SOL    HW149748   8.425   7.813   8.069 -0.3929  1.4812 -0.9247
16109SOL    HW249749   8.327   7.901   8.144 -0.4383  1.2211 -0.6762
16110SOL     OW49750   2.446   8.316   4.580  0.2970  0.1595  0.8257
16110SOL    HW149751   2.458   8.366   4.661 -0.1455  3.1692 -0.8197
16110SOL    HW249752   2.355   8.330   4.557 -0.1094 -2.2415  0.6723
16111SOL     OW49753   2.113   2.882   1.258  0.1470 -0.3463  0.7937
16111SOL    HW149754   2.033   2.866   1.308  0.0037  0.8449  0.9795
16111SOL    HW249755   2.130   2.976   1.270 -0.1668  0.1102 -1.7832
16112SOL     OW49756   9.072   6.972   4.162  0.2159 -0.5693  0.2220
16112SOL    HW149757   9.048   6.886   4.196 -0.4057 -0.3721  0.3042
16112SOL    HW249758   9.004   6.992   4.097  0.1189  0.0339  0.5020
16113SOL     OW49759   6.547   4.107   7.150 -0.8419 -0.2644  0.0554
16113SOL    HW149760   6.536   4.117   7.056  0.0640  0.0376 -0.0295
16113SOL    HW249761   6.578   4.193   7.180  2.7863 -1.3664  0.0014
16114SOL     OW49762   5.469   1.679   0.119 -0.4350  0.0953 -0.2688
16114SOL    HW149763   5.542   1.623   0.147  0.6075  2.1060  1.3391
16114SOL    HW249764   5.495   1.711   0.033 -0.0952 -0.3319 -0.3275
16115SOL     OW49765   4.484   1.816   8.190  0.3742  0.0420  0.0687
16115SOL    HW149766   4.398   1.858   8.190  0.1600 -0.3843  0.4898
16115SOL    HW249767   4.523   1.840   8.273  0.7397  0.3823 -0.1984
16116SOL     OW49768   0.901   0.445   0.957  0.2599 -0.3382  0.1266
16116SOL    HW149769   0.931   0.504   1.025 -0.4863 -0.3687  0.4961
16116SOL    HW249770   0.908   0.496   0.876 -0.6559  0.3843  0.4765
16117SOL     OW49771   5.583   6.939   0.757  0.0428 -0.3511 -0.2487
16117SOL    HW149772   5.567   6.848   0.733 -0.0608 -1.1548  2.6099
16117SOL    HW249773   5.574   6.942   0.852  5.1908  1.5188  0.5020
16118SOL     OW49774   8.164   1.031   4.763 -0.4258 -0.0898 -0.6131
16118SOL    HW149775   8.104   1.086   4.814 -0.2178  1.1500 -1.6670
16118SOL    HW249776   8.245   1.030   4.814 -1.2122 -1.6042  0.7150
16119SOL     OW49777   5.015   9.264   5.421 -0.2459 -0.2652  0.1589
16119SOL    HW149778   4.953   9.333   5.398  2.1646  2.3954  0.9120
16119SOL    HW249779   5.030   9.217   5.340 -2.0103  0.0266 -0.3780
16120SOL     OW49780   5.864   4.437   3.219  0.1478 -0.1099  0.2374
16120SOL    HW149781   5.782   4.486   3.209  2.3771  4.5332  1.6590
16120SOL    HW249782   5.842   4.364   3.276 -3.0709  0.5863  0.0602
16121SOL     OW49783   8.134   8.089   1.592  0.6632  0.2125 -0.4538
16121SOL    HW149784   8.124   8.095   1.497  1.6636  0.9359 -0.5273
16121SOL    HW249785   8.227   8.067   1.605  0.8786  1.5441  0.3863
16122SOL     OW49786   8.199   8.039   2.212 -0.0191 -0.3087 -0.1551
16122SOL    HW149787   8.225   8.006   2.126 -0.4125  1.0337 -0.8013
16122SOL    HW249788   8.149   8.118   2.194 -0.7068 -0.3873  1.2815
16123SOL     OW49789   1.227   1.156   0.835 -0.2635 -0.1382  0.6284
16123SOL    HW149790   1.296   1.102   0.797 -0.6262  0.0217 -0.2742
16123SOL    HW249791   1.275   1.222   0.885  0.2527 -0.0099 -0.0137
16124SOL     OW49792   2.644   0.384   0.854  0.0984 -0.3790  0.8426
16124SOL    HW149793   2.667   0.358   0.765  1.5447  1.8454  0.4836
16124SOL    HW249794   2.703   0.333   0.910  0.9645  0.0694  0.3518
16125SOL     OW49795   7.659   4.121   6.866 -0.1334  0.4956  0.3180
16125SOL    HW149796   7.719   4.179   6.913  0.5175 -0.1973  0.3675
16125SOL    HW249797   7.648   4.163   6.780  1.4256  0.0200 -0.1548
16126SOL     OW49798   5.436   0.372   1.915 -0.3322 -0.1203 -0.3611
16126SOL    HW149799   5.458   0.371   2.008 -1.5740 -0.4459 -0.0593
16126SOL    HW249800   5.385   0.452   1.902  0.8961  0.5839 -1.0389
16127SOL     OW49801   9.109   7.254   3.852 -0.3298 -0.7385  0.0387
16127SOL    HW149802   9.084   7.305   3.776 -0.2882  0.0689  0.5594
16127SOL    HW249803   9.026   7.226   3.891 -0.3801 -0.1382  0.3713
16128SOL     OW49804   2.642   5.609   3.134 -0.0886 -0.1479 -0.2227
16128SOL    HW149805   2.729   5.628   3.169 -0.3036 -0.3864  0.4679
16128SOL    HW249806   2.609   5.693   3.103 -0.2539  0.2463  0.9981
16129SOL     OW49807   6.262   4.013   0.813 -0.4359  0.2447 -0.6540
16129SOL    HW149808   6.268   4.064   0.893  0.4255 -0.9644  0.0875
16129SOL    HW249809   6.339   4.039   0.762 -1.5613  1.8267 -1.6269
16130SOL     OW49810   7.611   1.660   0.720  0.5357  0.6331 -0.5725
16130SOL    HW149811   7.664   1.600   0.772  1.7209  1.1241 -1.1735
16130SOL    HW249812   7.572   1.605   0.653  1.0249  0.4100 -0.6807
16131SOL     OW49813   4.831   8.001   8.817  0.6747 -0.2594  0.3811
16131SOL    HW149814   4.758   7.995   8.879  1.5612 -1.0588  1.3907
16131SOL    HW249815   4.793   8.041   8.739 -0.6787 -0.0245  1.1274
16132SOL     OW49816   6.505   0.250   4.741  0.3731 -0.0702 -0.6120
16132SOL    HW149817   6.548   0.334   4.726 -0.0857  0.4074  0.6002
16132SOL    HW249818   6.434   0.248   4.677  0.7635  0.1813 -1.0599
16133SOL     OW49819   7.132   1.058   5.569  0.0184 -0.4400 -0.1513
16133SOL    HW149820   7.201   1.096   5.622  0.3980  2.9590 -2.7711
16133SOL    HW249821   7.175   1.033   5.488 -1.2882 -1.4100 -0.5796
16134SOL     OW49822   6.668   8.964   0.596  0.3558 -0.3146  0.5090
16134SOL    HW149823   6.622   8.910   0.531  1.5842 -0.0332 -0.6602
16134SOL    HW249824   6.600   8.996   0.653 -0.8976 -0.0089 -1.0827
16135SOL     OW49825   0.737   3.812   2.997 -0.2851 -0.6169 -0.2299
16135SOL    HW149826   0.746   3.717   2.986  0.0210 -0.5572 -0.5213
16135SOL    HW249827   0.659   3.823   3.052 -1.7737 -0.9232 -2.2012
16136SOL     OW49828   4.681   0.584   0.875  0.1592 -0.5498 -0.2492
16136SOL    HW149829   4.730   0.659   0.843 -1.7600  0.2796 -1.4058
16136SOL    HW249830   4.605   0.621   0.919 -0.0416 -1.8032  0.5218
16137SOL     OW49831   3.118   9.183   8.816 -0.1501  0.0986  0.2938
16137SOL    HW149832   3.045   9.244   8.821 -0.2868 -0.0925  0.6956
16137SOL    HW249833   3.135   9.172   8.722 -1.2955 -0.6322  0.1560
16138SOL     OW49834   4.881   3.130   7.033  0.2052 -0.0780  0.3546
16138SOL    HW149835   4.898   3.043   7.068 -0.3106 -0.1303  0.4897
16138SOL    HW249836   4.830   3.114   6.953  2.6559 -0.0409 -1.3219
16139SOL     OW49837   4.554   1.395   0.009  0.5017 -0.7284  0.4904
16139SOL    HW149838   4.555   1.490   0.021 -2.6657 -0.5672  0.4758
16139SOL    HW249839   4.579   1.360   0.095 -1.4882  0.2326  1.5580
16140SOL     OW49840   0.658   1.630   5.913 -0.3131 -0.2041  0.1149
16140SOL    HW149841   0.691   1.719   5.901 -0.8248  0.0763  0.6992
16140SOL    HW249842   0.734   1.580   5.946  0.3993 -0.3806 -1.6886
16141SOL     OW49843   2.759   1.225   5.066  0.0787  0.2564 -0.6616
16141SOL    HW149844   2.806   1.162   5.121  1.7502  0.7435 -1.4686
16141SOL    HW249845   2.729   1.173   4.991 -0.5483 -0.0268 -0.2194
16142SOL     OW49846   6.447   0.415   0.356 -0.2755 -0.2960  0.0494
16142SOL    HW149847   6.462   0.336   0.305 -0.4011  0.4615 -1.1980
16142SOL    HW249848   6.497   0.483   0.311  1.4995 -0.0305  2.2566
16143SOL     OW49849   9.095   0.942   6.087 -0.1517  0.3553  0.0499
16143SOL    HW149850   9.140   0.994   6.020  1.8432  0.3546  1.3081
16143SOL    HW249851   9.005   0.975   6.086  0.0317  0.9278 -2.0164
16144SOL     OW49852   2.755   7.261   3.488  0.0346 -0.3399 -0.0520
16144SOL    HW149853   2.676   7.261   3.435  0.8452 -0.6956 -1.2915
16144SOL    HW249854   2.724   7.244   3.577 -1.1840 -1.4263 -0.6565
16145SOL     OW49855   6.781   4.464   5.054 -0.4419  0.8251  0.0640
16145SOL    HW149856   6.802   4.413   4.976  0.2983  1.3731 -0.1129
16145SOL    HW249857   6.861   4.462   5.106 -1.0991  0.0041  1.0908
16146SOL     OW49858   2.884   2.664   5.942 -0.5863  0.6658  0.2895
16146SOL    HW149859   2.791   2.677   5.960 -0.6105  1.3029 -0.2945
16146SOL    HW249860   2.906   2.730   5.877  0.3731  0.7698  0.7096
16147SOL     OW49861   2.107   2.449   1.890  0.2087 -0.4615 -0.4129
16147SOL    HW149862   2.143   2.538   1.884 -0.8066  0.0338  0.4133
16147SOL    HW249863   2.013   2.461   1.880  0.1320 -1.5509 -1.0929
16148SOL     OW49864   8.510   0.524   3.105  0.2476 -0.1107  0.3316
16148SOL    HW149865   8.518   0.457   3.173 -1.1813  0.6846  1.3389
16148SOL    HW249866   8.515   0.476   3.023  1.2755 -1.1908  0.9938
16149SOL     OW49867   2.481   3.761   5.345 -0.2063 -0.1650 -0.0853
16149SOL    HW149868   2.481   3.839   5.401  0.6758 -0.5897  0.5184
16149SOL    HW249869   2.391   3.756   5.312 -0.7648  0.0654  1.3347
16150SOL     OW49870   4.474   1.171   0.429 -0.3147  0.0968  0.0783
16150SOL    HW149871   4.483   1.261   0.462 -1.4695  0.0477  0.5529
16150SOL    HW249872   4.511   1.117   0.499 -0.1348  0.1603  0.0346
16151SOL     OW49873   2.254   5.717   8.649  0.4418 -0.1287 -0.2740
16151SOL    HW149874   2.175   5.744   8.697  2.1120  0.0124  2.6411
16151SOL    HW249875   2.230   5.633   8.610 -1.8001  0.9239 -1.3574
16152SOL     OW49876   1.331   5.261   0.211  0.2352 -0.0816 -0.0153
16152SOL    HW149877   1.380   5.293   0.286 -1.0716  1.0353  0.3925
16152SOL    HW249878   1.324   5.166   0.226  2.9601 -0.4523 -0.5467
16153SOL     OW49879   2.070   2.044   4.935 -0.2969 -0.1106 -0.6364
16153SOL    HW149880   2.044   1.952   4.933  2.1029 -0.8626 -0.9159
16153SOL    HW249881   2.034   2.081   4.854 -1.8244 -0.6175 -0.2077
16154SOL     OW49882   1.067   2.655   0.356 -0.4716  0.1277 -0.0707
16154SOL    HW149883   1.009   2.674   0.430 -0.2899 -4.9142  1.7542
16154SOL    HW249884   1.152   2.692   0.382 -1.4301  2.4093 -0.0062
16155SOL     OW49885   3.415   1.477   8.389  0.4133  0.2300  0.2363
16155SOL    HW149886   3.391   1.388   8.365  0.4878  0.9112 -2.9135
16155SOL    HW249887   3.464   1.469   8.471  0.6836 -2.6276 -0.1197
16156SOL     OW49888   0.401   4.355   6.693 -0.5934  0.5773  0.2309
16156SOL    HW149889   0.376   4.305   6.615 -1.7764  0.4072  0.7014
16156SOL    HW249890   0.430   4.440   6.659 -0.3841  0.2424 -0.4423
16157SOL     OW49891   1.035   1.428   8.849 -0.1021 -0.1596  0.0355
16157SOL    HW149892   1.085   1.509   8.840 -0.2264 -0.0591  0.2601
16157SOL    HW249893   1.003   1.410   8.760 -0.8713  0.5401  0.1632
16158SOL     OW49894   4.692   1.783   4.358 -0.2145 -0.1171 -0.2955
16158SOL    HW149895   4.780   1.747   4.346 -0.3847 -1.0525  1.0816
16158SOL    HW249896   4.706   1.876   4.375  0.6427 -0.5344  1.4405
16159SOL     OW49897   1.079   2.145   2.820 -0.1607  0.1836 -0.6975
16159SOL    HW149898   1.072   2.050   2.825  0.3598  0.1657 -0.3201
16159SOL    HW249899   1.169   2.165   2.845 -0.0247  0.7229 -1.5657
16160SOL     OW49900   0.210   0.147   0.580  0.4728  1.0922 -0.3515
16160SOL    HW149901   0.302   0.122   0.570  0.4757  1.5818 -1.7898
16160SOL    HW249902   0.181   0.102   0.660  1.7376  0.2917 -0.3187
16161SOL     OW49903   4.669   8.561   0.951 -0.5952 -0.2966  0.5833
16161SOL    HW149904   4.602   8.542   1.017  0.4750 -1.0322  1.4880
16161SOL    HW249905   4.694   8.476   0.916  1.4982 -0.3223  1.9371
16162SOL     OW49906   6.687   8.128   3.002 -0.6806 -0.3691  0.1498
16162SOL    HW149907   6.719   8.214   2.977  0.0269 -1.1014 -1.6800
16162SOL    HW249908   6.717   8.116   3.092  0.3654  0.7720 -0.0249
16163SOL     OW49909   2.692   8.323   4.476  0.2250 -0.6916  0.0253
16163SOL    HW149910   2.744   8.244   4.489  0.9199 -0.3778 -0.7731
16163SOL    HW249911   2.606   8.301   4.512 -0.4531 -2.7852 -2.6084
16164SOL     OW49912   9.172   1.659   4.868  0.4885  0.3651  0.6889
16164SOL    HW149913   9.241   1.648   4.934  1.6439  1.4633 -0.2854
16164SOL    HW249914   9.208   1.723   4.806 -0.0614 -1.4603 -1.6689
16165SOL     OW49915   2.740   5.883   3.162 -0.2228 -0.2362 -0.8172
16165SOL    HW149916   2.793   5.956   3.195  1.8746 -0.7511 -2.7375
16165SOL    HW249917   2.653   5.897   3.199  0.5445  2.2742  0.2411
16166SOL     OW49918   1.889   8.590   7.337 -0.3639  0.6034  0.5525
16166SOL    HW149919   1.864   8.642   7.260 -0.9489 -0.1649  0.2093
16166SOL    HW249920   1.814   8.596   7.396 -2.3708 -3.2311 -1.2624
16167SOL     OW49921   0.213   6.684   8.320  0.0388 -0.0676 -0.7545
16167SOL    HW149922   0.200   6.679   8.415  1.4027 -2.7904 -0.6040
16167SOL    HW249923   0.125   6.692   8.285 -0.4661  1.4793  0.7187
16168SOL     OW49924   5.834   3.577   8.849  0.2493  0.1921  0.4071
16168SOL    HW149925   5.821   3.605   8.759 -0.6816  2.0649  1.0814
16168SOL    HW249926   5.898   3.506   8.843  0.3815  0.4379 -1.6829
16169SOL     OW49927   1.720   7.454   1.790 -0.3079  0.3634 -0.0855
16169SOL    HW149928   1.801   7.487   1.750  1.0278 -2.9444 -0.4471
16169SOL    HW249929   1.662   7.435   1.717 -1.3554  2.3419  0.1556
16170SOL     OW49930   4.779   8.001   4.146 -0.0471  0.4201 -0.0302
16170SOL    HW149931   4.777   7.943   4.222  0.0465  1.8617  1.1264
16170SOL    HW249932   4.792   7.943   4.071  1.6005 -0.9022  1.2098
16171SOL     OW49933   4.334   4.425   2.169  0.3681 -0.5666 -0.0636
16171SOL    HW149934   4.291   4.509   2.185  0.3391  0.1900 -3.3841
16171SOL    HW249935   4.427   4.442   2.186  0.2285 -0.1671  0.3090
16172SOL     OW49936   3.392   8.000   8.579 -0.4880  0.0111 -0.0812
16172SOL    HW149937   3.438   7.924   8.543 -0.3722 -0.0647  0.2214
16172SOL    HW249938   3.385   7.981   8.672  0.8961  1.0472  0.2698
16173SOL     OW49939   0.381   8.780   6.130  0.1877 -0.8474  0.4460
16173SOL    HW149940   0.459   8.725   6.123 -0.5437 -1.8320 -0.1224
16173SOL    HW249941   0.326   8.753   6.056 -0.9157 -0.5183  1.1317
16174SOL     OW49942   0.405   5.095   3.617 -0.7349 -0.4925 -0.0800
16174SOL    HW149943   0.472   5.027   3.630 -1.2669 -0.7316  1.8864
16174SOL    HW249944   0.341   5.055   3.558  0.3200 -0.6397 -1.1599
16175SOL     OW49945   5.245   2.387   7.397  0.5033  0.1554 -0.0174
16175SOL    HW149946   5.305   2.458   7.422  1.1786 -0.6559  0.7301
16175SOL    HW249947   5.299   2.308   7.398 -0.3067 -0.4201 -0.5348
16176SOL     OW49948   0.004   4.334   4.013  0.3178  0.2215 -0.5353
16176SOL    HW149949  -0.049   4.339   4.093 -2.1545  1.2156 -2.0924
16176SOL    HW249950   0.045   4.247   4.017  1.1905  0.6652  2.2755
16177SOL     OW49951   5.203   4.697   0.220 -0.2354  0.4190  0.0546
16177SOL    HW149952   5.245   4.771   0.175  2.0374  0.6703  2.3327
16177SOL    HW249953   5.255   4.621   0.193 -0.8919  0.0488 -0.1983
16178SOL     OW49954   6.614   3.069   5.179  1.0993 -0.0272  0.0316
16178SOL    HW149955   6.649   3.150   5.141 -0.5242  2.2759  2.9631
16178SOL    HW249956   6.692   3.023   5.212  1.9495  1.2053 -0.1708
16179SOL     OW49957   6.570   5.087   5.874  0.3614  0.1342 -0.2199
16179SOL    HW149958   6.536   5.000   5.897 -0.7631  0.2122 -1.5084
16179SOL    HW249959   6.497   5.132   5.832  0.7850  1.8904  0.7976
16180SOL     OW49960   6.408   3.971   6.959 -1.4379 -0.0248  0.4888
16180SOL    HW149961   6.376   4.058   6.936 -0.1479  0.4463  0.3462
16180SOL    HW249962   6.373   3.955   7.047 -0.5459  1.2780  1.1291
16181SOL     OW49963   6.839   0.356   4.602 -0.3065  0.0067  0.2748
16181SOL    HW149964   6.751   0.344   4.566  0.0365 -0.7667 -0.3299
16181SOL    HW249965   6.830   0.430   4.662 -0.9549  1.2110 -1.2174
16182SOL     OW49966   7.654   7.916   5.662 -0.2272  0.9547 -0.2568
16182SOL    HW149967   7.610   7.940   5.743  2.3073  0.3047  1.4394
16182SOL    HW249968   7.698   7.996   5.634 -0.1973  0.9026 -0.3605
16183SOL     OW49969   7.680   0.973   2.502 -0.6727  0.1872  0.3656
16183SOL    HW149970   7.670   1.033   2.576 -1.5307 -0.1509  0.5353
16183SOL    HW249971   7.719   0.894   2.540  0.7558  0.7285  0.0857
16184SOL     OW49972   1.604   9.071   0.107 -0.4266 -0.9043  0.1797
16184SOL    HW149973   1.576   9.023   0.029 -0.0484  0.7121 -1.0216
16184SOL    HW249974   1.648   9.149   0.072  0.1335 -0.3403  2.0245
16185SOL     OW49975   0.326   8.238   3.946 -0.1147  0.3811 -0.0389
16185SOL    HW149976   0.280   8.154   3.950 -0.4856  0.5317 -0.9332
16185SOL    HW249977   0.393   8.231   4.014 -0.7732 -0.2464  0.5690
16186SOL     OW49978   6.021   1.276   3.536 -0.1698 -0.1564 -0.6382
16186SOL    HW149979   5.991   1.204   3.591 -0.4057 -1.0990 -1.9381
16186SOL    HW249980   5.941   1.321   3.509  0.0287  1.3194  1.0378
16187SOL     OW49981   5.891   3.960   7.349  0.5172  0.0795  0.1051
16187SOL    HW149982   5.915   3.977   7.440 -0.2692 -1.0085  0.5370
16187SOL    HW249983   5.862   3.869   7.348 -1.0748  0.5540 -0.8764
16188SOL     OW49984   8.288   5.743   8.794 -0.0373  0.3467 -0.6109
16188SOL    HW149985   8.250   5.673   8.740 -0.5022 -0.7851  1.1079
16188SOL    HW249986   8.257   5.724   8.883  0.9342  1.9872  0.1135
16189SOL     OW49987   5.389   1.871   1.624 -0.4356 -1.0245  0.3330
16189SOL    HW149988   5.417   1.907   1.708 -2.0381 -1.1425  0.9522
16189SOL    HW249989   5.411   1.939   1.560  2.3859 -1.6275  0.5391
16190SOL     OW49990   0.419   4.575   1.773 -0.0686  0.8014 -0.0601
16190SOL    HW149991   0.363   4.625   1.832 -0.2256  0.0385  0.4636
16190SOL    HW249992   0.508   4.594   1.802 -0.1703 -0.1722  0.9507
16191SOL     OW49993   8.911   1.250   8.588  0.0013 -0.1527 -0.3245
16191SOL    HW149994   8.827   1.211   8.563 -0.1960 -0.6423  1.0314
16191SOL    HW249995   8.971   1.222   8.519 -0.2405 -2.5431  0.3473
16192SOL     OW49996   7.548   5.437   8.110 -0.3035 -0.2160  0.4866
16192SOL    HW149997   7.622   5.377   8.119  1.0050  1.4468  1.2810
16192SOL    HW249998   7.472   5.380   8.101  1.1611 -2.0057 -1.4932
16193SOL     OW49999   2.568   1.226   3.153 -0.1605 -0.0332 -0.0225
16193SOL    HW150000   2.639   1.270   3.107 -0.5034 -0.8282 -1.3781
16193SOL    HW250001   2.586   1.133   3.140 -1.2278 -0.2482 -0.0572
16194SOL     OW50002   7.254   3.249   7.136 -0.3043 -0.1415  0.0349
16194SOL    HW150003   7.247   3.331   7.184 -1.2416  0.9071 -1.7696
16194SOL    HW250004   7.166   3.233   7.103  0.2370 -0.9155 -1.1209
16195SOL     OW50005   6.727   1.811   4.559  0.2363  0.1406  0.8998
16195SOL    HW150006   6.760   1.812   4.649  0.4942  0.8213  0.8000
16195SOL    HW250007   6.790   1.757   4.512  0.9538  1.0255  0.8155
16196SOL     OW50008   0.815   3.498   1.330 -0.0441  0.1493 -0.4344
16196SOL    HW150009   0.757   3.559   1.285 -1.0681 -0.4395  0.0630
16196SOL    HW250010   0.774   3.483   1.415  0.7667 -0.3851 -0.1196
16197SOL     OW50011   8.386   1.506   3.844 -0.6493 -0.3178 -0.0513
16197SOL    HW150012   8.474   1.536   3.821  0.0979 -0.7335  1.9841
16197SOL    HW250013   8.334   1.517   3.764  0.8878  1.3189 -0.8834
16198SOL     OW50014   1.620   5.898   1.717 -0.2422  0.0378 -0.3216
16198SOL    HW150015   1.612   5.975   1.660 -0.0102 -0.0275 -0.4455
16198SOL    HW250016   1.536   5.892   1.761 -0.2232  0.4331 -0.2267
16199SOL     OW50017   6.490   0.775   1.424  0.0730  0.0979 -0.4928
16199SOL    HW150018   6.408   0.792   1.379 -0.6291 -1.4586  0.1198
16199SOL    HW250019   6.467   0.716   1.496  1.6594 -0.0996 -0.0993
16200SOL     OW50020   8.031   4.632   1.619  0.0690  0.8133  0.6030
16200SOL    HW150021   8.090   4.690   1.572  0.5056 -0.1543 -0.0706
16200SOL    HW250022   8.061   4.544   1.597  0.2567  0.3148  2.6505
16201SOL     OW50023   8.961   1.765   3.540 -0.5230 -0.1319  0.1384
16201SOL    HW150024   9.001   1.684   3.509 -1.1371 -0.3258 -0.1565
16201SOL    HW250025   8.934   1.745   3.630 -0.9415 -0.3596 -0.0324
16202SOL     OW50026   7.801   9.155   5.733 -0.0218 -0.4635 -0.1007
16202SOL    HW150027   7.847   9.099   5.794 -1.3155 -1.8023 -0.2928
16202SOL    HW250028   7.801   9.107   5.651  0.2779  0.5745 -0.7204
16203SOL     OW50029   8.882   7.071   7.782 -0.7215  0.2790 -0.0518
16203SOL    HW150030   8.971   7.084   7.815 -0.1097 -1.1115 -1.0696
16203SOL    HW250031   8.854   6.988   7.821 -1.0716  0.0612 -0.7493
16204SOL     OW50032   2.382   2.421   2.347  0.5952  0.4022  0.0630
16204SOL    HW150033   2.364   2.503   2.394 -0.7741 -0.7175  1.6198
16204SOL    HW250034   2.319   2.421   2.275 -0.1281  0.2666  0.6794
16205SOL     OW50035   8.275   8.313   3.885 -0.4966 -0.0844 -0.6714
16205SOL    HW150036   8.187   8.291   3.917 -0.4257 -0.0329 -0.4346
16205SOL    HW250037   8.277   8.281   3.795 -0.8593  0.1743 -0.7726
16206SOL     OW50038   1.757   0.068   3.719  0.1092  0.3588  0.3404
16206SOL    HW150039   1.815   0.071   3.795  0.5405  1.1566 -0.0147
16206SOL    HW250040   1.677   0.113   3.746 -1.9207 -3.6875  2.0596
16207SOL     OW50041   5.385   4.233   4.591 -1.0962 -0.2514  0.4236
16207SOL    HW150042   5.402   4.223   4.498 -0.7555 -0.9659  0.5575
16207SOL    HW250043   5.318   4.167   4.611 -1.3817  0.0933  0.6319
16208SOL     OW50044   0.142   8.000   0.535 -0.1124 -0.1519 -0.3304
16208SOL    HW150045   0.174   8.068   0.475  1.3382 -0.6707 -0.1825
16208SOL    HW250046   0.142   7.920   0.482  1.1626 -0.6112  0.3406
16209SOL     OW50047   0.371   6.304   7.588  0.4394 -0.2403  0.1229
16209SOL    HW150048   0.315   6.230   7.611  0.3222 -0.9626 -2.2621
16209SOL    HW250049   0.437   6.306   7.657  0.6002 -2.7357  0.1306
16210SOL     OW50050   1.541   4.850   4.642 -0.0838 -0.1775  0.0994
16210SOL    HW150051   1.453   4.871   4.612  0.2985  0.6927 -0.4675
16210SOL    HW250052   1.591   4.931   4.629  0.6908 -0.5175  0.8367
16211SOL     OW50053   9.182   3.032   5.488 -0.3603 -0.2696  0.0564
16211SOL    HW150054   9.266   3.061   5.452  0.0476 -1.7897 -0.3274
16211SOL    HW250055   9.118   3.095   5.455  0.7033  1.3424  0.9584
16212SOL     OW50056   3.426   3.206   6.093  0.3705  0.1995  0.2308
16212SOL    HW150057   3.379   3.149   6.154 -0.5435  1.1602  0.4454
16212SOL    HW250058   3.512   3.218   6.134  0.6289 -1.0999  0.1170
16213SOL     OW50059   7.241   8.962   3.820  0.0937 -0.0145 -0.3135
16213SOL    HW150060   7.220   8.885   3.873  0.6558  0.2060  0.2293
16213SOL    HW250061   7.239   9.035   3.881  2.5377  0.0192 -0.1808
16214SOL     OW50062   1.994   3.070   8.864 -0.1642 -0.2810  0.1105
16214SOL    HW150063   2.029   2.982   8.853 -2.1196 -1.6127  3.1631
16214SOL    HW250064   1.928   3.078   8.795  1.1647 -0.4908 -1.2352
16215SOL     OW50065   1.360   7.805   2.140  0.2132 -0.5543  0.9602
16215SOL    HW150066   1.368   7.895   2.174  0.5434 -0.0388 -0.4285
16215SOL    HW250067   1.438   7.792   2.088 -1.0702 -0.6679 -1.0432
16216SOL     OW50068   1.642   8.937   4.889 -0.1493  0.1670  0.1742
16216SOL    HW150069   1.730   8.962   4.862  0.8476 -1.2808  1.8439
16216SOL    HW250070   1.584   8.998   4.844  1.7299  1.4613 -0.5942
16217SOL     OW50071   6.507   9.174   4.927  0.5534  0.1611 -0.0606
16217SOL    HW150072   6.531   9.083   4.946  0.2824  0.2802  0.9078
16217SOL    HW250073   6.470   9.207   5.009 -0.3248  0.8316 -0.7011
16218SOL     OW50074   0.494   8.964   1.592  0.3592  0.0070  0.3553
16218SOL    HW150075   0.582   8.977   1.558  1.6047  0.4377  3.4070
16218SOL    HW250076   0.479   9.039   1.650 -1.1832 -1.0799  1.4543
16219SOL     OW50077   8.871   0.707   5.520  0.3676 -0.2520  0.1565
16219SOL    HW150078   8.792   0.707   5.573 -0.7773 -0.2329 -1.4807
16219SOL    HW250079   8.911   0.622   5.536 -1.1192 -1.1136 -0.5962
16220SOL     OW50080   2.535   0.300   6.334 -0.4328  0.0197  0.2247
16220SOL    HW150081   2.466   0.299   6.268 -0.1955 -0.6921 -0.0161
16220SOL    HW250082   2.566   0.391   6.335  0.4181 -0.2059 -1.5591
16221SOL     OW50083   4.028   4.360   6.163  0.3644 -0.4230  0.6841
16221SOL    HW150084   4.123   4.368   6.158  0.1549  1.7873 -0.8314
16221SOL    HW250085   4.001   4.435   6.216 -0.6153 -0.5289  0.3400
16222SOL     OW50086   1.932   1.501   0.218  0.1020  0.3428  0.2132
16222SOL    HW150087   1.857   1.460   0.262  0.0126  0.4155  0.1284
16222SOL    HW250088   1.917   1.486   0.125  0.2382  0.2807  0.2013
16223SOL     OW50089   5.605   4.790   8.077  0.0769 -0.1405 -0.3370
16223SOL    HW150090   5.524   4.841   8.080  0.3453  0.3644 -1.2330
16223SOL    HW250091   5.619   4.773   7.984  2.5301  2.3530 -0.5665
16224SOL     OW50092   5.906   2.052   0.569  0.2095  0.0013  0.4765
16224SOL    HW150093   5.945   2.002   0.640 -0.1520  0.5642  1.0804
16224SOL    HW250094   5.853   1.988   0.521 -0.6921 -0.0977  1.5612
16225SOL     OW50095   0.024   0.109   4.648  0.5853  0.0339 -0.0732
16225SOL    HW150096   0.031   0.149   4.735 -0.3599 -1.2952  0.6565
16225SOL    HW250097   0.021   0.015   4.665 -1.2206 -0.2113 -1.3934
16226SOL     OW50098   4.514   0.719   3.936  0.2413 -0.4509  0.6061
16226SOL    HW150099   4.476   0.703   3.850 -0.7615  0.2667  0.9001
16226SOL    HW250100   4.459   0.788   3.974  1.4728  0.1934  1.2898
16227SOL     OW50101   4.111   9.273   0.137  0.4502 -0.0688 -0.4722
16227SOL    HW150102   4.035   9.233   0.096  0.3413 -1.8960  1.3284
16227SOL    HW250103   4.151   9.325   0.068 -1.4482 -0.4520 -1.9495
16228SOL     OW50104   5.039   7.933   8.255 -0.5928 -0.2476  0.1146
16228SOL    HW150105   5.019   8.024   8.279 -0.7877 -0.1364 -0.4754
16228SOL    HW250106   4.978   7.912   8.185  0.0532 -0.5400 -0.3692
16229SOL     OW50107   3.559   0.014   8.862 -0.1427 -0.0881  0.8860
16229SOL    HW150108   3.576  -0.042   8.786 -0.2498  1.0867 -0.0251
16229SOL    HW250109   3.535  -0.047   8.932  0.2616 -1.2126  0.0665
16230SOL     OW50110   1.220   6.780   9.083  0.5713 -0.1130 -0.7813
16230SOL    HW150111   1.308   6.749   9.104  0.7237 -0.1156 -1.4011
16230SOL    HW250112   1.234   6.852   9.022  0.2125  1.1163  0.5382
16231SOL     OW50113   2.978   5.941   5.111 -0.1367 -0.9253 -0.0178
16231SOL    HW150114   3.060   5.988   5.128  0.2247 -1.6997  0.4606
16231SOL    HW250115   2.998   5.850   5.136 -1.0486 -1.1785 -0.1960
16232SOL     OW50116   7.693   3.311   7.508  0.5496 -0.0342  0.0263
16232SOL    HW150117   7.688   3.392   7.457 -0.5952  0.3549  0.7119
16232SOL    HW250118   7.648   3.247   7.454  0.5717  0.0387 -0.0795
16233SOL     OW50119   2.157   8.496   7.330 -0.2971 -0.2407 -0.0228
16233SOL    HW150120   2.170   8.520   7.422  0.9970 -0.8933 -0.0198
16233SOL    HW250121   2.066   8.521   7.312  0.2002  2.3686  0.6714
16234SOL     OW50122   3.585   6.505   5.297  0.1570  0.7200 -0.2772
16234SOL    HW150123   3.522   6.500   5.369  0.7604  0.0121  0.2185
16234SOL    HW250124   3.533   6.493   5.218 -1.0468  4.4841 -0.2853
16235SOL     OW50125   4.206   8.438   9.103 -0.4401  0.4340 -0.3482
16235SOL    HW150126   4.255   8.421   9.023 -0.4713  0.6381 -0.4098
16235SOL    HW250127   4.263   8.404   9.173 -1.0731 -1.1165 -0.5559
16236SOL     OW50128   2.172   5.136   2.165 -0.2243 -0.7540 -0.3564
16236SOL    HW150129   2.214   5.142   2.250  1.1729 -1.6425 -0.9433
16236SOL    HW250130   2.142   5.225   2.146  0.6670 -0.2653  0.4644
16237SOL     OW50131   3.593   7.303   4.331 -0.4503  0.1085 -0.4946
16237SOL    HW150132   3.518   7.277   4.385 -0.7968  2.4703  0.2940
16237SOL    HW250133   3.660   7.330   4.394  0.7611 -1.0682 -1.2154
16238SOL     OW50134   5.600   6.556   8.391  0.3744  0.0797  0.2316
16238SOL    HW150135   5.587   6.473   8.346  1.1000  0.1282 -0.0935
16238SOL    HW250136   5.565   6.542   8.479 -0.2910 -0.2879 -0.0837
16239SOL     OW50137   2.441   2.184   2.009  0.0041  0.4612  0.1506
16239SOL    HW150138   2.492   2.126   2.064  1.0103 -0.0587 -1.2804
16239SOL    HW250139   2.362   2.203   2.061  0.5225 -0.6489  1.3999
16240SOL     OW50140   5.779   1.715   4.164  0.0344 -0.2172  0.2904
16240SOL    HW150141   5.851   1.654   4.178  0.9644  0.5960 -0.8226
16240SOL    HW250142   5.820   1.793   4.126 -1.1965  0.8978  1.1393
16241SOL     OW50143   6.014   2.932   6.343 -0.0839  0.3199  0.4789
16241SOL    HW150144   6.096   2.892   6.314  0.0269  1.2010 -0.4874
16241SOL    HW250145   6.039   3.018   6.376 -0.6308  0.7369 -0.1350
16242SOL     OW50146   3.040   4.558   7.409  0.3367 -0.0365  0.0496
16242SOL    HW150147   3.096   4.613   7.353  0.0181 -0.0798 -0.3118
16242SOL    HW250148   3.084   4.559   7.494 -0.2642  1.7114  0.3740
16243SOL     OW50149   5.990   9.203   0.002 -0.0911  0.1938  0.0657
16243SOL    HW150150   5.983   9.266   0.073 -0.2398 -0.7734  0.9313
16243SOL    HW250151   5.899   9.184  -0.023 -0.0961 -0.5643  0.6255
16244SOL     OW50152   7.117   6.625   8.961  0.0657 -0.6522  0.1659
16244SOL    HW150153   7.060   6.644   8.887  0.3084 -1.4037 -0.2251
16244SOL    HW250154   7.196   6.588   8.922  1.0395  0.8100  0.6632
16245SOL     OW50155   2.894   8.648   6.605 -0.6435 -0.2486 -0.2317
16245SOL    HW150156   2.930   8.604   6.528 -0.6701 -0.3107 -0.2095
16245SOL    HW250157   2.814   8.599   6.625 -0.0485 -0.9544  0.5177
16246SOL     OW50158   0.289   5.559   6.710  0.5938  0.1992  0.0893
16246SOL    HW150159   0.309   5.472   6.675 -0.8144  0.1292 -0.5965
16246SOL    HW250160   0.262   5.542   6.801  1.0960  0.0216  0.2111
16247SOL     OW50161   5.026   9.228   0.645  0.1244 -0.8464  0.6915
16247SOL    HW150162   5.063   9.246   0.559 -0.1822  0.5510  0.8284
16247SOL    HW250163   5.098   9.245   0.706 -0.3466  0.6520  0.8684
16248SOL     OW50164   0.227   8.505   3.923 -0.0717 -0.1895  0.2530
16248SOL    HW150165   0.202   8.520   3.832  0.2278 -0.3987  0.1383
16248SOL    HW250166   0.268   8.419   3.924 -1.2997 -0.7902  0.8261
16249SOL     OW50167   9.232   6.887   1.680 -0.5188 -0.3871 -0.1229
16249SOL    HW150168   9.249   6.945   1.606 -1.1383 -0.0068  0.0223
16249SOL    HW250169   9.317   6.851   1.703 -0.5459 -1.8258 -2.0933
16250SOL     OW50170   1.866   0.404   4.117  0.1894  0.0132 -0.0439
16250SOL    HW150171   1.911   0.439   4.040  2.0634  1.0955  1.4339
16250SOL    HW250172   1.793   0.464   4.132  0.8128  0.7951 -0.0411
16251SOL     OW50173   6.136   7.585   2.250  0.0382 -0.3644  0.3176
16251SOL    HW150174   6.180   7.604   2.333  0.4688 -1.4546  0.3615
16251SOL    HW250175   6.169   7.651   2.189 -0.8223  0.9040  1.1588
16252SOL     OW50176   9.032   6.404   7.950  0.2119  0.0986 -0.2306
16252SOL    HW150177   9.108   6.406   7.891  0.4970  0.1005  0.1365
16252SOL    HW250178   9.069   6.414   8.037 -0.0280 -1.9210  0.1356
16253SOL     OW50179   0.191   0.882   5.543  0.6561  0.1198  0.2290
16253SOL    HW150180   0.220   0.846   5.627  0.1755 -2.6455 -0.6794
16253SOL    HW250181   0.270   0.923   5.507  2.0484 -2.2556  0.3123
16254SOL     OW50182   1.641   1.167   3.814 -0.3836 -0.5748  0.5906
16254SOL    HW150183   1.602   1.253   3.797  0.6586 -0.1355  0.3440
16254SOL    HW250184   1.733   1.177   3.789  0.1092 -1.3076  2.0002
16255SOL     OW50185   1.422   0.033   3.014 -0.0674  0.0784 -0.1006
16255SOL    HW150186   1.471   0.100   3.062  1.1649  0.2373 -1.5002
16255SOL    HW250187   1.403   0.074   2.929 -2.3365 -0.1362  0.2612
16256SOL     OW50188   4.844   4.600   4.661  0.1751 -0.2930  0.2293
16256SOL    HW150189   4.930   4.634   4.685 -0.5255  0.9025  1.2113
16256SOL    HW250190   4.855   4.566   4.572  1.9674 -1.4269  0.8286
16257SOL     OW50191   8.409   8.489   6.432  0.0090 -0.1793  0.7733
16257SOL    HW150192   8.325   8.523   6.402  0.5877 -0.4743 -1.3598
16257SOL    HW250193   8.403   8.394   6.417  1.3195 -0.0230 -1.1994
16258SOL     OW50194   4.612   5.217   5.209  0.2068  0.2288 -0.5032
16258SOL    HW150195   4.662   5.145   5.248 -1.0274 -0.7609 -0.6845
16258SOL    HW250196   4.639   5.294   5.259  0.3109 -0.6458  0.8418
16259SOL     OW50197   0.924   1.207   2.768  0.1095 -0.5407  0.2767
16259SOL    HW150198   0.944   1.281   2.826 -1.6275 -0.0060  0.2409
16259SOL    HW250199   1.007   1.160   2.760  0.3084 -1.1573  3.9005
16260SOL     OW50200   3.095   1.960   6.065 -0.1458  0.2387  0.4439
16260SOL    HW150201   3.178   1.915   6.052 -0.2955  0.0631  0.0879
16260SOL    HW250202   3.119   2.052   6.073 -0.0104  0.3207 -0.7309
16261SOL     OW50203   1.016   8.874   4.679  0.2990 -0.7691  0.2509
16261SOL    HW150204   1.068   8.888   4.758  0.8199 -1.9564  0.1327
16261SOL    HW250205   1.070   8.817   4.624  0.0985  0.3165 -1.1282
16262SOL     OW50206   0.235   4.751   2.811 -0.1071  0.1467  0.3470
16262SOL    HW150207   0.270   4.706   2.735 -1.0901  0.3658 -0.2589
16262SOL    HW250208   0.299   4.819   2.832  0.4370 -0.2804  0.0656
16263SOL     OW50209   6.104   1.594   7.544 -0.0072  0.3623 -0.7603
16263SOL    HW150210   6.172   1.661   7.534 -0.1170  0.8914  1.4569
16263SOL    HW250211   6.035   1.638   7.593 -1.3098 -0.6120 -1.6635
16264SOL     OW50212   6.668   1.421   8.070 -0.1275 -0.3640 -0.3450
16264SOL    HW150213   6.755   1.453   8.046  0.3942 -1.4055  0.0985
16264SOL    HW250214   6.684   1.337   8.113 -1.2479  0.1274  1.0851
16265SOL     OW50215   1.464   4.120   7.391 -0.1401 -0.2442  0.4447
16265SOL    HW150216   1.448   4.031   7.360 -1.3526  0.9658 -2.7981
16265SOL    HW250217   1.390   4.138   7.450  0.9416 -1.7981  2.4126
16266SOL     OW50218   6.787   4.902   8.042  0.1621 -0.1395 -0.2991
16266SOL    HW150219   6.839   4.823   8.057 -0.2340 -0.5839 -1.1761
16266SOL    HW250220   6.806   4.958   8.117  0.6401 -0.9662  0.2124
16267SOL     OW50221   2.490   7.611   2.569  0.6914  0.1182 -0.2041
16267SOL    HW150222   2.456   7.529   2.533  0.7605 -0.5808  1.2568
16267SOL    HW250223   2.584   7.597   2.579  0.7479  0.4776 -0.1929
16268SOL     OW50224   7.944   4.900   3.688 -0.2910 -0.3538 -0.4813
16268SOL    HW150225   7.970   4.878   3.598  0.7027 -0.0995 -0.2679
16268SOL    HW250226   8.023   4.886   3.739  0.4401  3.5062 -0.2770
16269SOL     OW50227   4.604   3.391   2.777  0.2794 -0.7261  0.1848
16269SOL    HW150228   4.546   3.326   2.737  1.3185  0.5440 -3.8199
16269SOL    HW250229   4.583   3.473   2.732  1.5811  0.9197  2.4082
16270SOL     OW50230   1.238   2.636   8.502 -0.3373 -0.7318  0.2895
16270SOL    HW150231   1.212   2.671   8.416 -0.8016  0.4775  0.9054
16270SOL    HW250232   1.192   2.552   8.508  0.3366 -1.2211 -0.9717
16271SOL     OW50233   4.832   4.323   1.477 -0.0156  0.3701 -0.1358
16271SOL    HW150234   4.880   4.286   1.402  0.5720  0.4355  0.2049
16271SOL    HW250235   4.896   4.325   1.548 -1.3318 -2.5178  1.2930
16272SOL     OW50236   3.636   2.344   3.981  0.2461  0.4263  0.1289
16272SOL    HW150237   3.602   2.270   3.931  0.3439  0.1967  0.3988
16272SOL    HW250238   3.646   2.310   4.070  0.9387  0.5639  0.1107
16273SOL     OW50239   8.126   1.176   4.532  0.6536  0.6895  0.1205
16273SOL    HW150240   8.153   1.113   4.598 -0.5570  1.0801  1.0158
16273SOL    HW250241   8.091   1.250   4.582 -1.0348  0.6538 -0.9475
16274SOL     OW50242   5.814   7.547   0.503  0.5086 -0.5999 -0.1700
16274SOL    HW150243   5.792   7.458   0.477 -0.2768 -0.3060 -0.5619
16274SOL    HW250244   5.786   7.601   0.429 -1.1215  0.1859  0.9556
16275SOL     OW50245   3.401   2.455   3.035 -0.1354 -0.4382  0.7246
16275SOL    HW150246   3.344   2.531   3.044 -0.7739 -0.5454 -1.6358
16275SOL    HW250247   3.343   2.380   3.050 -0.5746 -0.5286 -1.1360
16276SOL     OW50248   2.595   2.673   4.515  0.4092 -0.5041 -0.1658
16276SOL    HW150249   2.548   2.591   4.521  1.7129 -1.2204  0.9559
16276SOL    HW250250   2.604   2.689   4.421  1.0103 -2.1859 -0.4261
16277SOL     OW50251   1.769   1.557   3.809  0.2331 -0.5059  0.1003
16277SOL    HW150252   1.779   1.628   3.745 -0.6249 -0.1416  0.3659
16277SOL    HW250253   1.691   1.510   3.781 -1.8017  1.2578  2.3281
16278SOL     OW50254   5.019   9.222   7.515 -0.1857 -0.1049  0.4992
16278SOL    HW150255   4.934   9.265   7.514  1.2228  3.1042 -1.4589
16278SOL    HW250256   5.025   9.178   7.430  0.8519  1.6962 -0.4439
16279SOL     OW50257   9.136   5.862   8.019  0.8200  0.3790  0.0886
16279SOL    HW150258   9.053   5.831   7.982  1.4581 -0.5704 -0.5909
16279SOL    HW250259   9.193   5.873   7.944  1.0755  1.8424  0.4684
16280SOL     OW50260   5.564   7.451   7.597 -0.1170  0.0558  0.0021
16280SOL    HW150261   5.658   7.444   7.610 -0.2585 -0.1280  1.0488
16280SOL    HW250262   5.530   7.474   7.684 -0.9627  0.8234 -0.5149
16281SOL     OW50263   1.200   4.778   0.949  0.0414  0.5413 -0.7616
16281SOL    HW150264   1.144   4.826   1.009 -0.3551 -0.1785 -0.5510
16281SOL    HW250265   1.151   4.776   0.867  0.6019  1.5633 -1.1382
16282SOL     OW50266   8.868   6.956   3.809  0.4686  0.2240 -0.0542
16282SOL    HW150267   8.784   6.921   3.778  2.0510 -1.2833 -2.9465
16282SOL    HW250268   8.884   6.909   3.891 -1.2500  0.1786  0.2956
16283SOL     OW50269   6.500   8.855   0.422 -0.8413  0.9360 -0.5367
16283SOL    HW150270   6.449   8.791   0.373  0.2713 -0.2791 -0.1469
16283SOL    HW250271   6.504   8.932   0.365 -0.7421  0.0445 -1.7519
16284SOL     OW50272   4.336   8.791   0.967  1.1485 -0.8170 -0.0134
16284SOL    HW150273   4.336   8.786   0.871 -0.3769 -0.5734 -0.0397
16284SOL    HW250274   4.317   8.701   0.995  2.1763 -1.0185  0.0982
16285SOL     OW50275   2.221   3.205   1.303 -0.0531  0.0251  0.4214
16285SOL    HW150276   2.183   3.248   1.380  0.4276 -0.3271  0.8695
16285SOL    HW250277   2.208   3.266   1.231 -1.7665 -0.2318  0.4802
16286SOL     OW50278   6.193   6.184   8.440 -0.7235 -0.5993 -0.1664
16286SOL    HW150279   6.185   6.097   8.480 -0.8196 -0.0694  1.0232
16286SOL    HW250280   6.270   6.178   8.384  0.1756 -1.0421  1.0786
16287SOL     OW50281   3.239   3.990   6.452  0.3888 -0.9493  0.4764
16287SOL    HW150282   3.249   4.010   6.359  1.3557 -0.4453  0.6785
16287SOL    HW250283   3.153   3.948   6.459 -0.3152  0.2806 -0.4401
16288SOL     OW50284   3.892   0.192   3.766  0.1121 -0.3422 -0.6584
16288SOL    HW150285   3.883   0.276   3.721  0.9322  0.2234  0.1872
16288SOL    HW250286   3.980   0.163   3.743  1.5978  1.1867  2.4794
16289SOL     OW50287   4.312   0.186   8.807  0.0511  0.0418 -0.4104
16289SOL    HW150288   4.274   0.186   8.720 -1.4381 -1.1045  0.2034
16289SOL    HW250289   4.365   0.107   8.811 -1.2528 -0.8326  0.2536
16290SOL     OW50290   6.530   6.074   4.789  0.2246 -0.0132  0.0568
16290SOL    HW150291   6.505   6.085   4.697  2.3980 -0.0694 -0.5884
16290SOL    HW250292   6.526   6.163   4.825  0.9186  0.2751 -0.5396
16291SOL     OW50293   1.046   3.387   8.673 -0.2803  0.4697 -0.0458
16291SOL    HW150294   1.026   3.363   8.764  2.3535 -0.2853  0.4252
16291SOL    HW250295   1.008   3.317   8.621  0.5986 -0.6205  0.7326
16292SOL     OW50296   3.595   9.141   6.710 -0.1570 -0.7178  0.5805
16292SOL    HW150297   3.568   9.112   6.798  0.9846 -0.9958  0.8596
16292SOL    HW250298   3.640   9.065   6.673  0.1181 -0.3191  0.0853
16293SOL     OW50299   5.318   0.945   1.087 -0.6482  0.1922  0.0390
16293SOL    HW150300   5.379   0.882   1.126  0.4932  0.6296 -0.9526
16293SOL    HW250301   5.235   0.930   1.133 -0.2192 -1.5086  0.3459
16294SOL     OW50302   4.532   2.747   2.120 -0.2011  0.0147  0.2811
16294SOL    HW150303   4.568   2.661   2.098 -0.5472  0.0662 -0.5231
16294SOL    HW250304   4.551   2.758   2.213  0.5076 -0.6068  0.2156
16295SOL     OW50305   7.200   6.434   1.637 -0.5798 -0.6699  0.4236
16295SOL    HW150306   7.110   6.406   1.622 -0.8362  0.0685  0.5510
16295SOL    HW250307   7.229   6.380   1.711 -1.2245 -0.2854  0.9699
16296SOL     OW50308   7.973   1.946   7.634 -0.1719 -0.2074  0.4323
16296SOL    HW150309   7.948   1.881   7.569 -2.4510  0.8018  0.1746
16296SOL    HW250310   7.994   2.024   7.582  0.6695 -0.1699  0.8152
16297SOL     OW50311   8.058   9.061   1.031 -0.2162  0.1465 -0.1845
16297SOL    HW150312   8.144   9.089   1.063 -0.0192  1.6438 -1.8889
16297SOL    HW250313   8.020   9.140   0.992 -0.8877 -1.2771 -2.6231
16298SOL     OW50314   4.238   0.933   3.358 -0.1193 -0.7558  0.3585
16298SOL    HW150315   4.284   0.900   3.435  0.9973 -1.8325 -0.7203
16298SOL    HW250316   4.229   0.857   3.301 -0.9217  0.0168 -0.5778
16299SOL     OW50317   4.040   2.096   7.027 -0.4004 -0.3111  0.4648
16299SOL    HW150318   4.080   2.149   7.095 -2.4183  0.3696  1.1951
16299SOL    HW250319   4.072   2.133   6.945  3.0168 -1.8770  0.8878
16300SOL     OW50320   7.282   5.830   7.956  0.3285  0.3963  0.1239
16300SOL    HW150321   7.321   5.902   7.906  0.1631  0.3661 -0.0525
16300SOL    HW250322   7.336   5.754   7.933  1.7544  0.8118  1.8345
16301SOL     OW50323   1.409   5.372   8.593 -0.4223  0.2233 -0.3717
16301SOL    HW150324   1.373   5.461   8.597  0.0962  0.5312 -1.9753
16301SOL    HW250325   1.501   5.384   8.570  0.6469 -0.5905  2.9368
16302SOL     OW50326   3.525   2.473   6.359 -0.0439  0.0125 -0.4031
16302SOL    HW150327   3.469   2.507   6.289 -2.1265 -0.7155  0.8258
16302SOL    HW250328   3.505   2.380   6.362  0.5259 -0.0852  0.7171
16303SOL     OW50329   1.563   1.286   4.858  0.1495 -0.2934  0.4162
16303SOL    HW150330   1.469   1.274   4.841  0.3823 -0.7938 -0.6005
16303SOL    HW250331   1.604   1.212   4.815  0.9307 -0.7586  1.9163
16304SOL     OW50332   7.435   7.522   3.941  0.0543  0.0670  0.7673
16304SOL    HW150333   7.402   7.598   3.893  0.4026 -0.1449  0.1832
16304SOL    HW250334   7.364   7.499   4.001 -1.0972 -0.6963 -0.8144
16305SOL     OW50335   2.034   1.625   7.226 -0.1340  0.1025  0.3945
16305SOL    HW150336   1.974   1.681   7.178 -1.3667 -1.5943 -0.1518
16305SOL    HW250337   2.097   1.685   7.267 -0.5925  1.7562 -1.2192
16306SOL     OW50338   1.433   5.423   7.432 -0.3110 -0.3191 -0.0751
16306SOL    HW150339   1.345   5.396   7.457 -0.9463  1.3343 -0.3863
16306SOL    HW250340   1.466   5.470   7.509 -0.3749  0.5298 -0.5574
16307SOL     OW50341   8.087   5.906   6.174 -0.2250 -0.3327 -0.5511
16307SOL    HW150342   8.062   5.844   6.243 -0.0217 -0.7046 -0.8081
16307SOL    HW250343   8.150   5.858   6.121 -1.0614 -0.3729 -1.5328
16308SOL     OW50344   1.456   2.303   7.063  0.0781  0.5586  0.2383
16308SOL    HW150345   1.479   2.233   7.125  1.2030  1.4451  0.8599
16308SOL    HW250346   1.390   2.355   7.109  0.6427  1.0003  0.5681
16309SOL     OW50347   8.295   0.817   0.076 -0.4033  0.5397 -0.4892
16309SOL    HW150348   8.385   0.785   0.084 -0.4892  0.4956  0.3653
16309SOL    HW250349   8.245   0.764   0.139 -0.8247  1.3246 -0.1517
16310SOL     OW50350   4.658   8.170   9.238  0.5287 -0.4167 -1.3714
16310SOL    HW150351   4.636   8.088   9.282  1.4573  0.0657  0.0354
16310SOL    HW250352   4.745   8.193   9.270 -0.0993  1.6181 -0.9466
16311SOL     OW50353   1.364   6.440   8.331 -0.2676 -0.2902 -0.0138
16311SOL    HW150354   1.378   6.490   8.412 -1.3183 -0.3127  0.1895
16311SOL    HW250355   1.278   6.399   8.342  0.5991 -2.2559 -0.1190
16312SOL     OW50356   8.144   1.580   4.676 -0.0164  0.3482  0.1027
16312SOL    HW150357   8.222   1.528   4.656 -0.6029  0.3388 -2.5466
16312SOL    HW250358   8.176   1.671   4.679  0.1243  0.3631 -1.1630
16313SOL     OW50359   3.539   0.223   7.617  0.2081  0.2343  0.0060
16313SOL    HW150360   3.531   0.198   7.709  1.2178  0.3804  0.1444
16313SOL    HW250361   3.460   0.187   7.575 -1.1825  1.6863  1.2324
16314SOL     OW50362   1.278   7.857   6.208 -0.4994 -0.0056 -0.6189
16314SOL    HW150363   1.208   7.898   6.259  0.5454  0.5615  0.4087
16314SOL    HW250364   1.318   7.795   6.268  1.0131  0.9602 -0.5743
16315SOL     OW50365   4.926   9.081   2.281 -0.0789 -0.1009 -0.6810
16315SOL    HW150366   4.834   9.056   2.285  0.5005 -2.2818  0.6389
16315SOL    HW250367   4.973   8.998   2.273  2.0350  0.2376  4.2921
16316SOL     OW50368   1.982   4.489   2.253 -0.2886 -0.0313  0.4694
16316SOL    HW150369   1.945   4.446   2.175  1.2490  2.4919 -1.8428
16316SOL    HW250370   1.935   4.572   2.258 -0.0133  0.0577  2.0190
16317SOL     OW50371   1.698   7.609   7.068 -0.4321  0.2144  0.6284
16317SOL    HW150372   1.732   7.593   7.156  0.1080  0.6334  0.5042
16317SOL    HW250373   1.708   7.525   7.023 -2.2973 -0.4881  1.4591
16318SOL     OW50374   2.903   0.843   1.307 -0.2605 -0.5927  0.4330
16318SOL    HW150375   2.917   0.928   1.266 -0.4938 -1.0243 -0.5701
16318SOL    HW250376   2.974   0.835   1.371  1.0383 -0.5511 -0.9556
16319SOL     OW50377   8.652   4.163   8.851 -0.2169 -0.7141  0.1572
16319SOL    HW150378   8.715   4.154   8.922  0.1611 -0.3455 -0.1290
16319SOL    HW250379   8.677   4.097   8.787  0.7109  0.3063 -0.5660
16320SOL     OW50380   8.987   7.037   4.431 -0.3092  0.0122 -0.7864
16320SOL    HW150381   9.009   7.053   4.340  1.8925 -0.2592 -0.3545
16320SOL    HW250382   8.973   7.124   4.468  1.4564  0.3186 -0.7880
16321SOL     OW50383   8.971   4.534   2.969 -0.3003  0.2731 -0.0443
16321SOL    HW150384   8.878   4.552   2.951 -0.5517 -0.9249 -0.0598
16321SOL    HW250385   8.995   4.469   2.903  0.6047  0.6878 -0.1303
16322SOL     OW50386   2.329   1.188   0.754 -0.2801 -0.2834  0.0272
16322SOL    HW150387   2.323   1.283   0.742 -1.7329 -0.6090 -2.7311
16322SOL    HW250388   2.252   1.167   0.807  0.4197  0.0881  1.2466
16323SOL     OW50389   1.067   0.490   2.439  0.3323 -0.2303  0.6312
16323SOL    HW150390   1.076   0.544   2.518 -0.2658 -0.5243  0.9080
16323SOL    HW250391   1.093   0.548   2.367  2.4700 -0.4240  1.1563
16324SOL     OW50392   2.370   5.189   7.566 -0.1047  1.0487 -0.1351
16324SOL    HW150393   2.337   5.100   7.553 -1.3675  1.0622  2.3426
16324SOL    HW250394   2.464   5.178   7.578  0.0202  0.2875 -1.6334
16325SOL     OW50395   6.024   3.530   2.831 -0.1876  0.2170 -0.3761
16325SOL    HW150396   6.099   3.499   2.780 -0.1269  1.4565 -1.0618
16325SOL    HW250397   6.032   3.483   2.914  0.2538 -1.1199 -1.1319
16326SOL     OW50398   0.898   8.487   3.056 -0.2934 -0.1435 -0.5686
16326SOL    HW150399   0.907   8.575   3.020  0.4716 -0.5623 -1.4346
16326SOL    HW250400   0.804   8.472   3.060 -0.6149  1.7083  2.1304
16327SOL     OW50401   1.476   6.859   2.822  0.0325 -0.2011  0.3150
16327SOL    HW150402   1.499   6.931   2.764 -0.4607 -1.6847 -1.8344
16327SOL    HW250403   1.560   6.820   2.847  0.2566  0.5379  0.7149
16328SOL     OW50404   6.728   1.286   8.649  0.0066  0.3238 -0.7253
16328SOL    HW150405   6.643   1.322   8.671  0.4928  0.3168  1.3798
16328SOL    HW250406   6.787   1.361   8.648  0.2603  0.1312 -0.5446
16329SOL     OW50407   8.075   4.513   2.362 -0.7692  0.1523 -0.4027
16329SOL    HW150408   8.014   4.440   2.377 -0.1374 -0.7508 -1.9675
16329SOL    HW250409   8.053   4.544   2.274  0.8451 -0.0364 -0.9076
16330SOL     OW50410   4.811   7.987   3.759 -0.3613 -0.4405 -0.2278
16330SOL    HW150411   4.784   7.897   3.777 -2.0508 -0.2103 -1.3660
16330SOL    HW250412   4.860   7.981   3.677 -0.5669 -0.3303 -0.3618
16331SOL     OW50413   0.452   7.234   8.857  0.8131  0.4671  0.1678
16331SOL    HW150414   0.513   7.295   8.814  0.9404 -0.8570 -1.6281
16331SOL    HW250415   0.365   7.263   8.829  0.9157 -0.6682 -1.4739
16332SOL     OW50416   8.009   4.979   0.286 -0.0494 -0.6423  0.2354
16332SOL    HW150417   7.962   4.985   0.369 -1.4947  1.3129 -0.6636
16332SOL    HW250418   7.950   5.016   0.221  2.0197  0.2707 -1.2570
16333SOL     OW50419   3.079   2.543   4.826  0.4861 -0.0355  0.2314
16333SOL    HW150420   3.051   2.515   4.913 -0.6840  0.9484  0.1989
16333SOL    HW250421   3.112   2.463   4.784  1.4141 -0.4592  1.6771
16334SOL     OW50422   4.209   1.191   2.099 -0.0397  0.3618  0.3723
16334SOL    HW150423   4.263   1.132   2.046 -2.8557 -0.9621 -1.2696
16334SOL    HW250424   4.205   1.272   2.049  0.5539  0.5260  0.5885
16335SOL     OW50425   8.196   4.469   8.969 -0.5796 -0.7596  0.2142
16335SOL    HW150426   8.208   4.380   8.936 -1.4794 -0.8207  0.0235
16335SOL    HW250427   8.190   4.523   8.890  0.2515 -0.4805  0.3317
16336SOL     OW50428   5.094   3.838   9.251 -0.0975  0.1288 -0.3199
16336SOL    HW150429   5.029   3.815   9.318 -1.4115 -0.0256 -1.5774
16336SOL    HW250430   5.079   3.931   9.234  0.5753  0.2886 -0.0502
16337SOL     OW50431   5.512   2.935   4.070 -0.2132  0.2294  0.2038
16337SOL    HW150432   5.536   2.842   4.072 -0.4561  0.1238 -1.0171
16337SOL    HW250433   5.563   2.974   4.141  0.4995 -0.6975  0.2255
16338SOL     OW50434   1.413   3.943   8.424  0.1740 -0.2970 -0.1058
16338SOL    HW150435   1.388   4.011   8.362 -0.4461 -1.1603 -0.8335
16338SOL    HW250436   1.457   3.990   8.495  1.4274  0.6718 -1.4489
16339SOL     OW50437   7.816   8.441   6.635 -0.3801  0.6724  0.1910
16339SOL    HW150438   7.752   8.416   6.702  0.4257 -0.9794  0.3859
16339SOL    HW250439   7.762   8.459   6.557 -1.1239 -0.5146  0.4007
16340SOL     OW50440   7.816   1.228   8.842  0.3504  0.1094  0.5313
16340SOL    HW150441   7.894   1.275   8.872  2.3187 -2.7081  0.1466
16340SOL    HW250442   7.789   1.276   8.764  2.1453  0.7857  0.2641
16341SOL     OW50443   5.954   7.735   1.505  0.5894  0.3128  0.5375
16341SOL    HW150444   5.949   7.752   1.411  0.9085 -0.3215  0.3999
16341SOL    HW250445   5.983   7.818   1.543 -0.5256  0.8773  0.1972
16342SOL     OW50446   6.226   7.883   0.995  0.3686 -0.0208  0.2206
16342SOL    HW150447   6.141   7.896   1.037  0.6372  0.0420  0.7430
16342SOL    HW250448   6.204   7.846   0.909 -0.1895  0.0620  0.3211
16343SOL     OW50449   2.373   6.810   2.579  0.3475  0.4636  0.0480
16343SOL    HW150450   2.283   6.844   2.574  0.4651  0.9580  1.0710
16343SOL    HW250451   2.385   6.765   2.496  0.1205  2.8325 -1.3791
16344SOL     OW50452   9.182   7.334   6.001  0.2916  0.6065 -0.2207
16344SOL    HW150453   9.146   7.355   6.087  3.3604  1.0413  1.0564
16344SOL    HW250454   9.136   7.394   5.941 -0.0271  2.1887  1.5138
16345SOL     OW50455   8.492   1.792   0.747  0.2333  0.1221 -0.3118
16345SOL    HW150456   8.525   1.804   0.658  0.2620  0.3618 -0.2715
16345SOL    HW250457   8.442   1.711   0.743  0.5437 -0.0646 -0.4547
16346SOL     OW50458   1.366   0.133   3.934 -0.1421  0.2912 -0.1399
16346SOL    HW150459   1.314   0.188   3.876 -0.2195  0.4660  0.0924
16346SOL    HW250460   1.306   0.064   3.962 -0.2228  0.4357  0.0484
16347SOL     OW50461   6.456   4.107   6.507 -0.4994 -0.1743  0.0741
16347SOL    HW150462   6.472   4.040   6.574 -0.6012  0.6467  0.9471
16347SOL    HW250463   6.521   4.089   6.439 -2.0150 -2.6057 -0.8720
16348SOL     OW50464   5.202   7.703   0.531 -0.2283  0.6307  1.0267
16348SOL    HW150465   5.249   7.780   0.498 -0.7743 -0.1404 -1.7921
16348SOL    HW250466   5.166   7.661   0.453  0.1686 -2.6187  2.4167
16349SOL     OW50467   1.980   4.856   8.180  0.6862 -0.2691 -0.1268
16349SOL    HW150468   2.071   4.851   8.151  0.5224 -0.0176 -0.6938
16349SOL    HW250469   1.929   4.865   8.100  0.3264  1.7200  0.2632
16350SOL     OW50470   3.224   8.930   3.204 -0.4673 -0.1402  0.5138
16350SOL    HW150471   3.271   8.901   3.283 -0.9256 -2.7239 -0.0458
16350SOL    HW250472   3.156   8.863   3.191 -0.7715  0.5255 -1.7237
16351SOL     OW50473   2.946   3.740   8.187  0.2903  0.0809 -0.1704
16351SOL    HW150474   2.968   3.794   8.262 -1.3778 -0.2674  0.6220
16351SOL    HW250475   2.950   3.800   8.112  2.4796  0.3095  0.0664
16352SOL     OW50476   6.019   7.836   7.721  0.3262  0.0933  0.0536
16352SOL    HW150477   5.992   7.747   7.742  0.1231  0.1261 -0.0674
16352SOL    HW250478   6.036   7.877   7.806 -0.1568  0.1175  0.1438
16353SOL     OW50479   0.578   3.552   1.935 -0.1504 -0.1500  0.3367
16353SOL    HW150480   0.649   3.528   1.995 -0.9366 -2.5830  0.4180
16353SOL    HW250481   0.589   3.494   1.860 -1.3612  0.2590 -0.1914
16354SOL     OW50482   0.087   1.849   4.711  0.4886 -0.1167 -0.1514
16354SOL    HW150483   0.114   1.898   4.789 -1.5823 -0.0481  0.5888
16354SOL    HW250484   0.133   1.892   4.639  2.9368 -0.5752  1.0489
16355SOL     OW50485   5.924   5.840   4.203 -0.0178 -0.1715  0.0983
16355SOL    HW150486   5.875   5.844   4.285 -1.0012  1.6798 -0.5315
16355SOL    HW250487   5.866   5.793   4.143 -0.1538  0.2049 -0.0694
16356SOL     OW50488   0.728   4.014   6.901  0.0193 -0.0593  0.1410
16356SOL    HW150489   0.813   4.039   6.864 -0.0425 -0.8460 -0.5649
16356SOL    HW250490   0.723   3.919   6.887 -0.4491 -0.2128  1.2722
16357SOL     OW50491   2.538   4.882   2.528 -0.6115  0.8247 -0.9045
16357SOL    HW150492   2.561   4.946   2.461 -0.2303  1.5734 -0.0850
16357SOL    HW250493   2.603   4.896   2.597  0.7476 -1.8150 -1.5468
16358SOL     OW50494   3.759   7.893   3.068  0.4062 -0.1279 -0.5032
16358SOL    HW150495   3.736   7.858   3.154 -1.3736 -0.6353 -1.1440
16358SOL    HW250496   3.704   7.971   3.059 -1.6805 -1.7006 -2.3291
16359SOL     OW50497   7.319   8.159   5.755 -0.0646  0.0667 -0.3842
16359SOL    HW150498   7.239   8.206   5.781 -0.4947 -0.9743  0.2054
16359SOL    HW250499   7.318   8.163   5.660 -0.5539  0.4914 -0.3710
16360SOL     OW50500   5.282   3.973   6.096 -0.1403  0.5329  0.0973
16360SOL    HW150501   5.337   4.041   6.135  0.5264 -0.8792  1.7518
16360SOL    HW250502   5.199   4.017   6.079 -0.6441  1.2526  3.5672
16361SOL     OW50503   5.085   2.492   3.739 -0.1359  0.0827 -0.4207
16361SOL    HW150504   5.095   2.411   3.689 -0.0579  0.5086 -1.1118
16361SOL    HW250505   5.048   2.465   3.823  1.3408 -0.8483 -0.0444
16362SOL     OW50506   1.461   7.763   2.401 -0.0830 -0.0970 -0.6050
16362SOL    HW150507   1.456   7.781   2.307 -0.5223  1.7500 -0.2712
16362SOL    HW250508   1.370   7.762   2.430  0.0866  2.6962  0.3127
16363SOL     OW50509   4.009   0.437   1.288 -0.1915  0.2835 -0.2205
16363SOL    HW150510   3.921   0.439   1.325 -0.5371 -0.5789 -0.9499
16363SOL    HW250511   3.996   0.450   1.194  0.3416 -0.9733 -0.4933
16364SOL     OW50512   2.368   8.293   0.038 -0.1570  0.2688  0.0987
16364SOL    HW150513   2.429   8.343  -0.017 -1.1994  1.9037  0.3531
16364SOL    HW250514   2.405   8.298   0.126 -0.2886  0.6504  0.1333
16365SOL     OW50515   6.350   8.200   5.511  0.3734  0.2586 -0.2534
16365SOL    HW150516   6.353   8.141   5.436  0.5894 -0.0169 -0.0328
16365SOL    HW250517   6.330   8.142   5.585  1.6571  0.2906  0.1366
16366SOL     OW50518   5.018   8.512   3.600  0.3382 -0.2194  0.8667
16366SOL    HW150519   5.033   8.535   3.692 -0.2598  0.0646  0.8998
16366SOL    HW250520   4.985   8.422   3.603 -2.5352  0.7403  1.2095
16367SOL     OW50521   5.428   1.212   3.504 -0.6029  0.0031 -0.0865
16367SOL    HW150522   5.488   1.165   3.445  0.8567  1.3702  0.2531
16367SOL    HW250523   5.411   1.150   3.575  0.0928 -0.5621 -0.3943
16368SOL     OW50524   2.292   4.141   2.503  0.1466  0.4597  0.7883
16368SOL    HW150525   2.305   4.222   2.552  0.1050  0.8079  0.2313
16368SOL    HW250526   2.199   4.141   2.481 -0.0319 -0.1481  1.4825
16369SOL     OW50527   5.562   6.758   2.261  0.2172  0.2225 -0.0766
16369SOL    HW150528   5.550   6.846   2.298  0.6100  0.1357  0.2623
16369SOL    HW250529   5.654   6.737   2.279  0.2688 -0.0418 -0.6300
16370SOL     OW50530   2.993   4.058   8.628 -0.5396 -0.0609 -0.0829
16370SOL    HW150531   2.931   4.123   8.658 -2.0597 -2.2088  1.7611
16370SOL    HW250532   3.056   4.049   8.699 -0.8724 -1.2067  0.0854
16371SOL     OW50533   9.025   0.182   0.255 -0.2845  0.7672 -0.5326
16371SOL    HW150534   9.025   0.216   0.166  2.9114  0.6280 -0.6949
16371SOL    HW250535   9.028   0.087   0.246  1.1743  0.7722 -0.3630
16372SOL     OW50536   7.271   3.860   6.685  0.2526 -0.2553  0.1128
16372SOL    HW150537   7.310   3.943   6.713  2.7779 -1.7617  1.4220
16372SOL    HW250538   7.179   3.881   6.669  0.2926  2.3641  2.4661
16373SOL     OW50539   1.678   8.278   3.825  0.4593 -0.2033  0.2139
16373SOL    HW150540   1.759   8.319   3.795 -0.2808  0.5123 -0.8513
16373SOL    HW250541   1.656   8.215   3.756  0.0199 -0.2897  0.4302
16374SOL     OW50542   1.248   3.649   4.804  0.5950 -0.4585  0.5999
16374SOL    HW150543   1.272   3.688   4.888 -1.3297 -0.8570  1.3908
16374SOL    HW250544   1.276   3.713   4.739 -0.2026  1.0848  1.7137
16375SOL     OW50545   7.744   5.954   1.113 -0.4335 -0.2511 -0.7171
16375SOL    HW150546   7.656   5.919   1.128 -1.1630  1.6881 -0.0843
16375SOL    HW250547   7.738   5.999   1.029 -0.3611  0.6673 -0.2568
16376SOL     OW50548   1.110   6.880   3.205 -0.0308  0.0500  0.0208
16376SOL    HW150549   1.131   6.918   3.120  0.5220  3.8275  1.6487
16376SOL    HW250550   1.193   6.842   3.235  0.0460 -0.3083 -0.6102
16377SOL     OW50551   3.623   1.799   3.119 -0.3675 -0.5813 -0.2502
16377SOL    HW150552   3.531   1.771   3.117 -0.2409 -0.9693 -0.7880
16377SOL    HW250553   3.647   1.809   3.027  1.0504 -3.5182 -0.3060
16378SOL     OW50554   7.774   8.543   8.387 -0.2029  0.2200 -0.0654
16378SOL    HW150555   7.738   8.607   8.449 -1.1730 -1.0011  0.6880
16378SOL    HW250556   7.700   8.522   8.330  0.6243  1.1583 -1.5380
16379SOL     OW50557   6.827   1.043   6.111 -0.0251 -0.2599  0.0429
16379SOL    HW150558   6.802   1.080   6.027  0.3204  0.7008  0.3539
16379SOL    HW250559   6.903   0.988   6.091 -0.4750 -0.7312 -0.4023
16380SOL     OW50560   7.463   3.162   0.093 -0.0655 -0.5299 -0.9049
16380SOL    HW150561   7.388   3.134   0.039 -0.4663 -0.0691 -0.6016
16380SOL    HW250562   7.470   3.256   0.076 -1.1749 -0.0428  0.9880
16381SOL     OW50563   5.111   8.711   1.944 -0.0701  0.2951 -0.0424
16381SOL    HW150564   5.035   8.732   1.890 -0.9005  0.1381  1.0304
16381SOL    HW250565   5.107   8.616   1.955  0.7354  0.1866 -0.6267
16382SOL     OW50566   2.452   9.084   0.292  0.5238  0.1888  0.1350
16382SOL    HW150567   2.387   9.022   0.326  1.3767 -0.1352  1.2416
16382SOL    HW250568   2.400   9.153   0.252 -0.5335  0.1395  1.3382
16383SOL     OW50569   5.242   6.360   0.862 -0.1854 -0.1035 -0.1604
16383SOL    HW150570   5.175   6.423   0.836 -0.1849  0.0288  0.1567
16383SOL    HW250571   5.315   6.376   0.803  0.1857  0.8392  0.5320
16384SOL     OW50572   4.090   2.189   2.191 -0.3867  0.3466  0.1599
16384SOL    HW150573   4.126   2.119   2.136 -0.3744  0.7924 -0.4051
16384SOL    HW250574   4.013   2.219   2.144 -0.5557  0.5201  0.5474
16385SOL     OW50575   6.705   8.999   2.922 -0.1035 -0.3439  0.3051
16385SOL    HW150576   6.615   8.979   2.895 -0.2465  1.3484 -0.6378
16385SOL    HW250577   6.755   9.000   2.841  0.1346  1.5846  0.4082
16386SOL     OW50578   3.163   0.634   5.666 -0.3133  0.5510 -0.5953
16386SOL    HW150579   3.079   0.614   5.626 -0.9069  2.0958 -0.1934
16386SOL    HW250580   3.209   0.550   5.668 -2.2009 -0.5354  0.0159
16387SOL     OW50581   0.508   4.762   5.747 -0.2008  0.0804 -0.0827
16387SOL    HW150582   0.416   4.744   5.770  0.3315 -2.1273  0.5510
16387SOL    HW250583   0.536   4.684   5.699  1.6044  0.3424  0.5022
16388SOL     OW50584   4.387   0.855   3.556 -0.1451 -0.0521 -0.4561
16388SOL    HW150585   4.338   0.788   3.604 -0.3445 -0.8617 -1.7470
16388SOL    HW250586   4.403   0.924   3.621 -1.2207 -0.6789  0.5118
16389SOL     OW50587   2.376   0.195   7.969  0.1119 -0.1551  0.0530
16389SOL    HW150588   2.306   0.258   7.952 -1.2068 -1.9171 -1.2844
16389SOL    HW250589   2.402   0.213   8.060 -2.8472 -0.1678  1.0143
16390SOL     OW50590   1.313   6.725   8.220  0.0679  0.1223 -0.7417
16390SOL    HW150591   1.359   6.724   8.136 -1.8300 -0.4910 -1.8093
16390SOL    HW250592   1.339   6.644   8.263  1.6873  0.8112 -0.3126
16391SOL     OW50593   7.364   1.794   3.808 -0.7210  0.2564  0.6327
16391SOL    HW150594   7.351   1.886   3.787  0.0123  1.2190  3.8675
16391SOL    HW250595   7.380   1.752   3.723  0.5856  3.3552 -0.8132
16392SOL     OW50596   8.810   3.120   8.875 -0.0446  0.0497  0.7143
16392SOL    HW150597   8.904   3.135   8.866  0.1336 -0.6512  1.3129
16392SOL    HW250598   8.783   3.085   8.790  0.1887  0.4584  0.4675
16393SOL     OW50599   0.555   4.951   6.234  0.0474 -0.5559  0.1677
16393SOL    HW150600   0.540   4.971   6.141  0.5983  1.1974  0.4362
16393SOL    HW250601   0.629   4.889   6.232  1.7256  1.3663 -0.4907
16394SOL     OW50602   6.461   7.220   6.537 -0.2457 -0.3509 -0.4080
16394SOL    HW150603   6.367   7.238   6.538  0.0421  1.4032  1.4139
16394SOL    HW250604   6.475   7.173   6.455 -2.7322 -0.9267 -0.6027
16395SOL     OW50605   0.443   1.415   4.258  0.2223 -0.1906 -0.0615
16395SOL    HW150606   0.508   1.368   4.207  0.3593  0.6167 -0.6427
16395SOL    HW250607   0.360   1.373   4.236  0.6441 -2.1208  1.6988
16396SOL     OW50608   4.733   3.117   3.900 -0.4363 -0.3961 -0.1506
16396SOL    HW150609   4.730   3.058   3.825  0.5325  1.3977 -1.6927
16396SOL    HW250610   4.821   3.156   3.896  0.7160 -2.1082  3.4867
16397SOL     OW50611   6.154   9.167   2.746  0.1339  0.5994  0.4357
16397SOL    HW150612   6.093   9.095   2.729 -1.7907  2.3596 -0.5255
16397SOL    HW250613   6.211   9.134   2.815 -1.5291 -1.3635  0.9732
16398SOL     OW50614   5.883   5.128   5.997  0.2706  0.5799 -0.6661
16398SOL    HW150615   5.931   5.192   6.050  0.6954 -1.3103  1.3847
16398SOL    HW250616   5.806   5.106   6.050 -0.5613  0.3748 -1.9372
16399SOL     OW50617   0.153   3.271   0.618 -0.2497 -0.7916  0.2906
16399SOL    HW150618   0.145   3.366   0.634  1.4512 -0.7180  0.9600
16399SOL    HW250619   0.212   3.241   0.687  0.6250 -2.0251 -0.9428
16400SOL     OW50620   8.807   7.852   3.915 -0.0893  0.1371 -0.1183
16400SOL    HW150621   8.884   7.865   3.859  0.5556 -0.8973  0.5037
16400SOL    HW250622   8.773   7.766   3.889 -0.4971  0.1857  0.2425
16401SOL     OW50623   4.026   7.985   5.963  0.0348  0.2002 -0.4729
16401SOL    HW150624   3.998   8.017   5.878 -3.2465 -1.8684 -0.3403
16401SOL    HW250625   4.053   7.894   5.947 -1.2860 -0.4445  0.7295
16402SOL     OW50626   4.938   8.684   7.274  0.4341 -0.0928  0.1563
16402SOL    HW150627   4.954   8.733   7.355 -0.3501  2.3627 -1.0590
16402SOL    HW250628   5.025   8.661   7.242  0.8295  0.3026  0.9115
16403SOL     OW50629   0.671   8.005   1.477  0.1656  0.3024 -0.2390
16403SOL    HW150630   0.630   7.937   1.424 -2.7570  1.1877  0.6967
16403SOL    HW250631   0.728   7.958   1.538 -1.6150 -1.3422  0.2446
16404SOL     OW50632   1.538   7.464   0.975  0.4616  0.2992 -0.0656
16404SOL    HW150633   1.477   7.537   0.986  0.9092  0.8091 -0.9671
16404SOL    HW250634   1.566   7.469   0.884  0.2286 -1.2098 -0.2440
16405SOL     OW50635   8.156   4.438   9.246  0.0387 -0.2049  0.4197
16405SOL    HW150636   8.177   4.428   9.154  0.7360 -2.3690  0.7466
16405SOL    HW250637   8.209   4.371   9.290 -0.8027  0.3011  2.3043
16406SOL     OW50638   0.749   5.325   0.155  0.1348 -0.0207 -0.1720
16406SOL    HW150639   0.821   5.331   0.092 -1.2368  0.1612 -1.7915
16406SOL    HW250640   0.771   5.250   0.209 -0.1413 -2.2880 -2.9328
16407SOL     OW50641   4.503   4.806   9.210  0.2862  0.6809  0.1322
16407SOL    HW150642   4.514   4.873   9.143 -0.4606  0.5574 -0.1306
16407SOL    HW250643   4.450   4.738   9.167 -0.8272  0.9308  1.0647
16408SOL     OW50644   3.829   6.226   4.184  0.0981  0.6582 -0.5428
16408SOL    HW150645   3.905   6.169   4.192 -0.9831 -0.5850  2.0673
16408SOL    HW250646   3.826   6.273   4.267 -1.8463  0.8253 -0.6606
16409SOL     OW50647   1.396   6.181   5.787 -0.4947  0.3155  0.3268
16409SOL    HW150648   1.472   6.166   5.731  0.6864  1.9594  1.3941
16409SOL    HW250649   1.322   6.146   5.737  0.6383  0.6943 -1.7467
16410SOL     OW50650   4.631   4.880   5.028  0.3690  0.1775  0.1498
16410SOL    HW150651   4.549   4.890   4.980  1.0477  0.4515 -0.9824
16410SOL    HW250652   4.612   4.811   5.092 -0.6880  0.1090 -0.2089
16411SOL     OW50653   2.265   8.988   2.157  0.3970  0.1787 -0.1419
16411SOL    HW150654   2.259   8.894   2.136 -1.7189 -0.0249  1.0663
16411SOL    HW250655   2.267   8.990   2.253  1.0278  1.3639 -0.1691
16412SOL     OW50656   7.476   2.648   5.042  0.2738 -0.0621  0.0013
16412SOL    HW150657   7.505   2.709   4.974  0.9320 -1.2204 -0.7848
16412SOL    HW250658   7.418   2.701   5.098  1.2011  1.4042 -0.3658
16413SOL     OW50659   0.876   0.121   7.846 -0.7136 -0.7837 -0.0230
16413SOL    HW150660   0.900   0.087   7.933  0.3290  0.9300  0.3983
16413SOL    HW250661   0.841   0.208   7.863 -2.7113 -1.3188 -1.1395
16414SOL     OW50662   0.425   3.077   3.626 -0.2074 -0.0637 -0.9282
16414SOL    HW150663   0.486   3.062   3.554  0.3169 -0.9930 -0.3158
16414SOL    HW250664   0.433   3.171   3.645  1.2776 -0.2145 -0.6560
16415SOL     OW50665   0.385   1.297   3.625  0.3108  0.8765  0.0873
16415SOL    HW150666   0.479   1.282   3.615  0.2690  0.5381  0.1778
16415SOL    HW250667   0.377   1.350   3.704  0.4361  1.0166  0.0053
16416SOL     OW50668   9.225   6.445   4.969 -0.6219 -0.5149 -0.4171
16416SOL    HW150669   9.305   6.445   4.916 -1.8108 -2.4951 -2.3402
16416SOL    HW250670   9.233   6.368   5.025 -0.6070  0.0580  0.3959
16417SOL     OW50671   1.000   2.687   0.647  0.2664  0.3520  0.2244
16417SOL    HW150672   0.967   2.608   0.689 -0.2637 -1.2552 -2.8891
16417SOL    HW250673   1.089   2.665   0.619  1.0761  1.8093  1.5098
16418SOL     OW50674   7.221   7.139   0.278 -0.1352 -0.7700  0.2515
16418SOL    HW150675   7.183   7.215   0.233 -1.5080 -1.4019  0.2792
16418SOL    HW250676   7.242   7.078   0.208 -1.4814 -1.4092  0.3768
16419SOL     OW50677   0.009   2.559   9.138 -0.7765  0.2100  0.1041
16419SOL    HW150678  -0.040   2.640   9.122  2.0189  1.6050 -2.3161
16419SOL    HW250679   0.046   2.536   9.053 -0.4650 -3.0108  0.9816
16420SOL     OW50680   7.574   3.110   1.120 -0.5237  0.3987  0.0321
16420SOL    HW150681   7.571   3.114   1.216  0.8992 -1.0894  0.1940
16420SOL    HW250682   7.664   3.134   1.098 -0.4072 -0.7606 -0.8179
16421SOL     OW50683   6.827   4.610   7.743  0.2911  0.4983  0.3460
16421SOL    HW150684   6.868   4.542   7.796 -1.6037 -2.9736 -2.2527
16421SOL    HW250685   6.901   4.657   7.703  1.7447 -1.3851  0.6736
16422SOL     OW50686   1.833   3.856   0.471  0.0533 -0.0401 -0.1030
16422SOL    HW150687   1.792   3.872   0.556  0.6245 -2.7004  0.7771
16422SOL    HW250688   1.926   3.871   0.485  0.0959 -0.0201 -0.3906
16423SOL     OW50689   0.766   8.254   1.463  0.5357 -0.0756 -0.5765
16423SOL    HW150690   0.739   8.168   1.433  1.1240 -0.0637 -1.1656
16423SOL    HW250691   0.803   8.239   1.550 -1.4780 -0.0672  0.3439
16424SOL     OW50692   2.807   3.537   8.367 -0.1738  0.5799 -0.0471
16424SOL    HW150693   2.717   3.567   8.362 -0.2757  0.1041 -1.4792
16424SOL    HW250694   2.855   3.594   8.306  0.5695  1.0762  0.9800
16425SOL     OW50695   3.260   4.553   5.702 -0.4048  0.4103  0.0262
16425SOL    HW150696   3.265   4.502   5.782  0.8429  1.3364  0.5640
16425SOL    HW250697   3.329   4.518   5.646 -2.7988 -1.9179 -1.7396
16426SOL     OW50698   6.965   2.460   1.528  0.0103 -0.1426  0.3145
16426SOL    HW150699   7.057   2.487   1.530  0.0576 -0.2517 -0.2987
16426SOL    HW250700   6.960   2.387   1.590  1.2037 -2.7785 -2.4704
16427SOL     OW50701   3.335   7.652   6.435 -0.0986  0.6439  0.1073
16427SOL    HW150702   3.241   7.658   6.418 -0.3309  0.6073  1.3038
16427SOL    HW250703   3.364   7.743   6.443 -0.5097  0.6318  2.1130
16428SOL     OW50704   9.072   7.939   7.445 -0.0118 -0.2741 -0.0906
16428SOL    HW150705   8.983   7.961   7.419 -0.0135  2.6323  1.8885
16428SOL    HW250706   9.128   7.985   7.382  0.0175  0.9050  0.7648
16429SOL     OW50707   2.989   2.701   2.656 -0.0128  0.1063  0.0325
16429SOL    HW150708   2.991   2.764   2.728 -0.8132 -0.3203  0.4473
16429SOL    HW250709   3.035   2.624   2.691 -0.5700 -0.1721  0.1694
16430SOL     OW50710   7.552   6.641   2.395  0.2727  0.2436  1.1723
16430SOL    HW150711   7.507   6.672   2.473 -0.6998 -0.3245  0.8618
16430SOL    HW250712   7.481   6.619   2.334  0.8874 -2.0097  1.1691
16431SOL     OW50713   5.533   7.728   2.576  0.3814  0.6664 -0.3424
16431SOL    HW150714   5.459   7.778   2.610 -1.1540 -0.9497 -1.1853
16431SOL    HW250715   5.513   7.637   2.596  2.7023  0.2536  0.3958
16432SOL     OW50716   5.490   3.461   8.327  0.2098 -0.6514 -0.3616
16432SOL    HW150717   5.525   3.531   8.272 -0.4493  0.0564  0.1006
16432SOL    HW250718   5.520   3.483   8.415 -1.7568  0.2460  0.1344
16433SOL     OW50719   4.451   5.089   0.827 -0.1789 -0.0046  0.2328
16433SOL    HW150720   4.541   5.121   0.825  0.3090 -1.3637 -0.4088
16433SOL    HW250721   4.430   5.083   0.920  0.3154  0.4929  0.3829
16434SOL     OW50722   1.531   2.456   7.871  0.3353 -0.2479  0.1951
16434SOL    HW150723   1.474   2.518   7.826 -0.9201 -0.3134  1.6221
16434SOL    HW250724   1.619   2.480   7.843 -0.2522  0.9621 -0.7321
16435SOL     OW50725   5.335   4.669   7.805  1.0535 -0.7167  0.0611
16435SOL    HW150726   5.405   4.731   7.824  0.3350 -0.5742  2.6318
16435SOL    HW250727   5.371   4.613   7.736  2.2967  1.5386 -1.2326
16436SOL     OW50728   3.044   8.348   0.661  0.2967  0.0533 -0.0602
16436SOL    HW150729   3.075   8.258   0.653 -0.8824 -0.4590  0.7163
16436SOL    HW250730   2.948   8.340   0.655  0.1418  1.1744  0.6456
16437SOL     OW50731   8.854   1.137   0.323  0.2684  0.3123  0.2265
16437SOL    HW150732   8.842   1.097   0.237 -0.7015 -0.4169  0.6925
16437SOL    HW250733   8.908   1.214   0.305  0.7391 -0.2551 -0.9207
16438SOL     OW50734   7.136   1.049   5.101 -0.2387 -0.3315 -0.2119
16438SOL    HW150735   7.088   0.967   5.108  1.2599 -1.1703  0.8244
16438SOL    HW250736   7.163   1.053   5.009 -1.6332 -0.1967 -0.6347
16439SOL     OW50737   0.020   6.172   3.916  0.1192 -0.4068 -0.7587
16439SOL    HW150738   0.101   6.208   3.954  0.3363  0.3482 -1.8922
16439SOL    HW250739   0.012   6.215   3.831 -0.8211 -1.4132 -1.2058
16440SOL     OW50740   2.531   1.777   4.532 -0.4932  0.4145  0.4852
16440SOL    HW150741   2.616   1.741   4.509 -0.7331  0.0302  0.1763
16440SOL    HW250742   2.510   1.836   4.459  0.8787  2.9422  2.0101
16441SOL     OW50743   5.918   1.740   2.721  0.6844 -0.0856 -0.5835
16441SOL    HW150744   5.957   1.663   2.678  2.2601  0.2472  0.1516
16441SOL    HW250745   5.909   1.804   2.651 -0.1948 -0.7536 -1.1088
16442SOL     OW50746   5.015   6.526   0.119 -0.5110 -0.2386  0.1499
16442SOL    HW150747   5.028   6.527   0.024  0.1443 -0.5063  0.2287
16442SOL    HW250748   5.046   6.611   0.149  0.8952 -0.7725  0.3050
16443SOL     OW50749   3.615   8.540   1.776 -0.1230 -0.0778  0.0437
16443SOL    HW150750   3.677   8.569   1.844  0.1012 -1.4246  0.4337
16443SOL    HW250751   3.529   8.558   1.814  0.0062  0.4450  0.1049
16444SOL     OW50752   1.710   5.059   4.591  0.2645  0.3421  0.6572
16444SOL    HW150753   1.756   5.040   4.510  1.2330 -0.3147  1.3325
16444SOL    HW250754   1.687   5.152   4.586 -1.8588 -0.1922 -1.4070
16445SOL     OW50755   6.090   1.830   1.712  0.2286  0.0752 -0.2791
16445SOL    HW150756   6.100   1.761   1.777 -3.5639 -0.0735  0.3972
16445SOL    HW250757   6.064   1.907   1.763 -0.4092  0.6181 -1.3886
16446SOL     OW50758   1.511   7.107   2.261  0.1413 -0.7311 -0.6590
16446SOL    HW150759   1.550   7.020   2.262 -0.1065 -0.8441  0.7153
16446SOL    HW250760   1.583   7.166   2.240  0.6639 -1.1245 -0.0124
16447SOL     OW50761   8.486   0.963   7.337  0.0061 -0.0215  0.1268
16447SOL    HW150762   8.506   0.885   7.388  0.1506  0.5849  1.0306
16447SOL    HW250763   8.391   0.962   7.327  0.0904 -0.7764 -0.6472
16448SOL     OW50764   4.136   0.991   1.201  0.2193 -0.2494  0.3155
16448SOL    HW150765   4.229   0.997   1.181  0.2976  0.7859  0.9637
16448SOL    HW250766   4.120   0.897   1.211  1.4391 -0.3696  1.3238
16449SOL     OW50767   0.062   1.099   5.092  0.3358  0.5795  0.5209
16449SOL    HW150768  -0.016   1.061   5.052  0.8463  0.2003 -0.1407
16449SOL    HW250769   0.135   1.057   5.047  0.9378  0.4771  1.5394
16450SOL     OW50770   8.332   3.693   8.000 -0.0107 -0.2795  0.2647
16450SOL    HW150771   8.287   3.639   8.065 -1.2656  0.5362  0.1196
16450SOL    HW250772   8.292   3.667   7.917 -1.2181  1.3572  0.2673
16451SOL     OW50773   3.459   5.495   5.658  0.2900 -0.3332 -0.5715
16451SOL    HW150774   3.474   5.416   5.607  0.3839  0.2588 -1.4879
16451SOL    HW250775   3.490   5.566   5.602  2.2133  0.2253  1.0799
16452SOL     OW50776   2.372   0.005   2.938 -0.0262  0.5307 -0.3020
16452SOL    HW150777   2.404  -0.073   2.891  2.1224  0.8586  0.5072
16452SOL    HW250778   2.367   0.072   2.870 -1.4329 -0.1367 -0.9137
16453SOL     OW50779   0.384   8.799   7.979  0.7531  0.0030 -0.2626
16453SOL    HW150780   0.447   8.734   7.948  0.5481 -0.4093  0.1639
16453SOL    HW250781   0.437   8.871   8.012  1.0671 -1.0211  1.5857
16454SOL     OW50782   3.728   7.522   8.428  0.2426 -0.4649  0.0850
16454SOL    HW150783   3.637   7.503   8.408 -0.9096  3.2407  1.1145
16454SOL    HW250784   3.773   7.517   8.344 -0.6651 -2.9796 -0.3398
16455SOL     OW50785   4.220   1.255   4.924 -0.4970 -0.5869  0.0323
16455SOL    HW150786   4.293   1.298   4.968 -0.6709 -0.2635  0.0030
16455SOL    HW250787   4.147   1.316   4.933  0.3179  1.2996 -3.9309
16456SOL     OW50788   0.785   7.257   8.929 -0.2451  0.1562  0.2695
16456SOL    HW150789   0.825   7.330   8.977  0.9296 -0.3211  0.0440
16456SOL    HW250790   0.749   7.298   8.850  0.2155  0.5292  0.2465
16457SOL     OW50791   5.885   5.471   7.435 -0.1699 -0.0695 -0.2190
16457SOL    HW150792   5.879   5.493   7.528 -0.0523 -0.6545 -0.0714
16457SOL    HW250793   5.894   5.555   7.391 -1.9717  0.3546  0.1554
16458SOL     OW50794   0.717   2.691   8.086  0.8365  0.0156  0.8310
16458SOL    HW150795   0.778   2.617   8.086  2.4560  1.2879  1.5520
16458SOL    HW250796   0.738   2.740   8.165 -0.0671  1.3588  0.2784
16459SOL     OW50797   0.381   1.402   0.772  0.4402 -0.3061  0.3688
16459SOL    HW150798   0.346   1.327   0.724  0.7049 -1.5162  1.9771
16459SOL    HW250799   0.447   1.439   0.714 -0.6049 -0.4928 -0.9951
16460SOL     OW50800   4.971   4.159   0.740 -0.2770  0.4193 -0.6313
16460SOL    HW150801   4.928   4.237   0.706  0.5132  0.6381 -1.1567
16460SOL    HW250802   4.930   4.087   0.692 -1.7737  0.3901  0.6307
16461SOL     OW50803   5.745   9.233   8.117  0.1636 -0.2438  0.8752
16461SOL    HW150804   5.810   9.179   8.162 -2.0001 -4.0432 -0.1332
16461SOL    HW250805   5.675   9.246   8.181  0.1010  0.2527  0.7060
16462SOL     OW50806   0.121   1.455   7.186  0.2778 -0.0747 -0.4535
16462SOL    HW150807   0.037   1.442   7.143 -0.4735  1.4242  0.4461
16462SOL    HW250808   0.103   1.523   7.251  1.8806 -0.6827  0.6738
16463SOL     OW50809   1.825   3.010   4.023  0.0835 -0.0342  0.4049
16463SOL    HW150810   1.893   2.946   4.044  1.1957  1.1037  0.3246
16463SOL    HW250811   1.763   3.003   4.096  1.3327  0.3293  1.5360
16464SOL     OW50812   7.621   8.021   8.001 -0.0563 -0.2325  0.0426
16464SOL    HW150813   7.601   7.998   8.092 -2.2617 -0.4888 -0.4528
16464SOL    HW250814   7.650   7.938   7.962 -0.8847 -0.5565  0.0829
16465SOL     OW50815   5.580   9.080   5.052 -0.3097  0.6916 -0.4153
16465SOL    HW150816   5.660   9.059   5.101 -1.3110 -1.4097  0.4707
16465SOL    HW250817   5.564   9.172   5.071  0.8508  0.6461  0.9797
16466SOL     OW50818   6.985   2.986   0.882 -0.2920 -0.0411  0.0987
16466SOL    HW150819   7.051   2.923   0.909 -0.2430 -0.2367 -0.4591
16466SOL    HW250820   6.951   2.951   0.799  0.3854  1.1205 -0.7021
16467SOL     OW50821   5.844   4.458   2.014 -0.3923  0.0833  0.4641
16467SOL    HW150822   5.805   4.376   2.045 -2.2994  0.4389 -0.8429
16467SOL    HW250823   5.818   4.523   2.079 -0.5903  0.0254  0.4416
16468SOL     OW50824   7.374   7.085   1.579  0.7820 -0.7414  0.3682
16468SOL    HW150825   7.376   7.060   1.487  0.7891  0.9657 -0.1247
16468SOL    HW250826   7.286   7.060   1.608  0.0507  0.5257 -0.6631
16469SOL     OW50827   3.663   8.209   3.729 -0.3948 -0.1241  0.3872
16469SOL    HW150828   3.718   8.254   3.664 -0.1831 -1.0278 -0.0727
16469SOL    HW250829   3.710   8.222   3.812 -0.0413  0.0150  0.1705
16470SOL     OW50830   4.667   2.882   7.103  0.3478 -0.1613 -0.4493
16470SOL    HW150831   4.662   2.840   7.017  0.6108  0.4272 -0.7606
16470SOL    HW250832   4.742   2.840   7.146  1.0098  0.4239 -1.0069
16471SOL     OW50833   2.578   2.613   4.196  0.6782 -0.3874 -0.0723
16471SOL    HW150834   2.576   2.539   4.135  1.0857 -0.0152 -0.5487
16471SOL    HW250835   2.666   2.612   4.232  1.0596  0.5398 -0.9402
16472SOL     OW50836   9.167   4.410   0.571 -0.3246  0.2347  0.4326
16472SOL    HW150837   9.235   4.470   0.541 -0.3106  0.6215  1.2203
16472SOL    HW250838   9.112   4.396   0.494  0.6827 -0.1525 -0.2391
16473SOL     OW50839   4.336   6.401   6.116  0.3389 -0.1107  0.5297
16473SOL    HW150840   4.267   6.459   6.148 -0.5405 -1.0807  0.4535
16473SOL    HW250841   4.392   6.457   6.062  0.0317  0.8473  1.1810
16474SOL     OW50842   3.089   5.394   7.705  0.8576 -0.8437  0.1341
16474SOL    HW150843   3.152   5.323   7.691 -0.2925 -1.5557 -1.6163
16474SOL    HW250844   3.081   5.437   7.620 -0.9302 -0.6934  0.3516
16475SOL     OW50845   5.612   6.637   0.700  0.8137 -0.4366 -0.0484
16475SOL    HW150846   5.609   6.626   0.795  1.0710 -2.3065 -0.2250
16475SOL    HW250847   5.574   6.557   0.665  1.9717 -0.3854 -1.5342
16476SOL     OW50848   7.664   1.743   7.090 -0.1618 -0.0100 -0.5650
16476SOL    HW150849   7.728   1.685   7.131 -1.2451 -0.6040  0.3480
16476SOL    HW250850   7.651   1.707   7.002  1.2687  0.5456 -1.0223
16477SOL     OW50851   8.292   3.661   0.731 -0.1627  0.1174 -0.6574
16477SOL    HW150852   8.281   3.617   0.647 -0.9023  1.0085 -1.0352
16477SOL    HW250853   8.209   3.706   0.746 -0.0763 -0.0954  0.5965
16478SOL     OW50854   3.338   1.709   7.095 -0.1123 -0.2466  0.4604
16478SOL    HW150855   3.367   1.638   7.038  0.5258 -0.4114  0.9848
16478SOL    HW250856   3.418   1.745   7.132 -0.3472  1.3452 -0.4824
16479SOL     OW50857   4.282   0.600   8.385 -0.0556  0.5218  0.2217
16479SOL    HW150858   4.281   0.531   8.319  1.6470  0.0420  0.6542
16479SOL    HW250859   4.272   0.681   8.334  1.6565  0.1991 -0.7185
16480SOL     OW50860   8.022   7.572   4.099  0.5717  0.1273 -0.0677
16480SOL    HW150861   8.042   7.549   4.008  0.1704  1.2271 -0.4533
16480SOL    HW250862   7.987   7.492   4.136  0.8942 -0.3863 -0.8384
16481SOL     OW50863   8.740   1.496   4.514  0.6809 -0.4150  0.3225
16481SOL    HW150864   8.762   1.559   4.582  1.2335 -0.6100  0.3342
16481SOL    HW250865   8.795   1.521   4.440 -0.7936  0.5415 -0.4959
16482SOL     OW50866   1.337   0.495   6.258 -0.5932  0.1414  0.1691
16482SOL    HW150867   1.410   0.527   6.205  1.2059 -3.2037  0.3663
16482SOL    HW250868   1.337   0.400   6.244 -3.3844 -0.2558  2.1176
16483SOL     OW50869   6.819   5.982   6.706 -0.5871 -0.0641 -0.0702
16483SOL    HW150870   6.775   5.927   6.641 -0.0399 -1.7873  0.9552
16483SOL    HW250871   6.899   6.012   6.663  0.3767 -2.1764  0.1539
16484SOL     OW50872   4.935   0.718   8.275 -0.0922 -0.3775  0.4351
16484SOL    HW150873   5.003   0.717   8.343 -0.9759 -1.6348  1.3278
16484SOL    HW250874   4.928   0.810   8.250  0.2643  0.1086  2.0406
16485SOL     OW50875   1.758   5.261   1.272 -0.1358  0.3389  0.3116
16485SOL    HW150876   1.761   5.166   1.259  2.3271  0.4683 -0.6113
16485SOL    HW250877   1.721   5.295   1.191 -0.2165  0.2156  0.2956
16486SOL     OW50878   0.324   5.784   6.584 -0.2304 -0.2248  0.3422
16486SOL    HW150879   0.320   5.707   6.641  1.5642  0.6131  1.7079
16486SOL    HW250880   0.395   5.764   6.522 -1.8954 -0.9591 -1.4380
16487SOL     OW50881   3.273   3.867   6.691  0.3497 -0.2855 -0.4381
16487SOL    HW150882   3.182   3.835   6.689 -0.4791  1.3973  2.8391
16487SOL    HW250883   3.271   3.945   6.636 -1.1597  1.5497  1.9913
16488SOL     OW50884   3.557   0.334   1.961 -0.0390  0.0639  0.0239
16488SOL    HW150885   3.466   0.322   1.935 -0.4022  1.1199  0.7548
16488SOL    HW250886   3.553   0.347   2.056  0.8136  0.6886 -0.0212
16489SOL     OW50887   4.127   7.934   1.887 -0.2948  0.8474 -0.5713
16489SOL    HW150888   4.075   7.856   1.908 -0.6148  1.1518 -0.2318
16489SOL    HW250889   4.095   8.001   1.946 -0.9980  1.6457 -1.8103
16490SOL     OW50890   3.531   1.738   4.307 -0.2716  0.0408  0.1498
16490SOL    HW150891   3.487   1.654   4.296 -0.6170  0.3588 -1.1329
16490SOL    HW250892   3.545   1.746   4.401 -0.7464 -1.1865  0.3445
16491SOL     OW50893   0.760   2.952   1.193 -0.3684 -0.6667  0.0411
16491SOL    HW150894   0.853   2.942   1.213 -0.5253  0.3351  1.4114
16491SOL    HW250895   0.758   2.991   1.106  0.5350  0.2509  0.4181
16492SOL     OW50896   2.116   0.688   4.843  0.3878  0.3159  0.2786
16492SOL    HW150897   2.128   0.640   4.925  1.1436  1.7038  1.0197
16492SOL    HW250898   2.190   0.662   4.788 -2.1156 -3.7095 -1.6847
16493SOL     OW50899   0.573   5.488   0.251  0.2092  0.4490 -0.6331
16493SOL    HW150900   0.510   5.511   0.183  1.5158  0.4272 -1.9086
16493SOL    HW250901   0.640   5.437   0.205  0.9427  0.1256  0.7462
16494SOL     OW50902   5.038   6.284   1.541  0.3833 -0.1514  0.1818
16494SOL    HW150903   5.098   6.258   1.471 -0.2131 -1.1140  0.0048
16494SOL    HW250904   5.093   6.332   1.603  1.4114 -1.2789  0.1848
16495SOL     OW50905   5.951   0.088   6.203 -0.2862 -0.2978  0.1442
16495SOL    HW150906   6.038   0.102   6.240 -0.2735 -0.3228  0.1240
16495SOL    HW250907   5.945   0.151   6.132  0.1318 -1.0283 -0.5532
16496SOL     OW50908   1.769   4.886   1.911  0.7062 -0.0663 -0.2232
16496SOL    HW150909   1.791   4.853   1.824  1.3639 -0.9247  0.2630
16496SOL    HW250910   1.818   4.831   1.971 -1.1266 -0.6336  0.8011
16497SOL     OW50911   5.086   4.636   4.449 -0.1724  0.2766 -0.5775
16497SOL    HW150912   5.102   4.652   4.356  0.8983 -1.3587 -0.7041
16497SOL    HW250913   5.084   4.541   4.457  2.3741  0.3016  1.4801
16498SOL     OW50914   8.357   1.783   5.854 -0.5397 -0.1820  0.2607
16498SOL    HW150915   8.367   1.704   5.800 -1.7719  0.3108 -0.7561
16498SOL    HW250916   8.263   1.799   5.855 -0.3465  1.0252  0.8269
16499SOL     OW50917   7.727   0.288   6.008  0.3774  0.3945 -0.1009
16499SOL    HW150918   7.714   0.344   5.932 -0.7289 -0.1426 -0.3268
16499SOL    HW250919   7.650   0.302   6.062  0.6679 -0.0009  0.4309
16500SOL     OW50920   0.614   2.265   4.343 -0.1583 -0.2170  0.3323
16500SOL    HW150921   0.708   2.261   4.330  0.0495 -1.3034  1.8011
16500SOL    HW250922   0.581   2.183   4.306 -0.6544  0.5131 -0.8971
16501SOL     OW50923   6.027   3.024   0.779 -0.3537  0.2808 -0.2991
16501SOL    HW150924   5.989   3.064   0.857 -1.1561 -0.3277 -0.3660
16501SOL    HW250925   5.959   2.966   0.746  0.7458 -1.1299 -0.2199
16502SOL     OW50926   2.958   0.587   6.207 -0.4231 -0.0872 -0.6746
16502SOL    HW150927   2.885   0.633   6.248  0.5311 -0.1929  1.2154
16502SOL    HW250928   2.917   0.511   6.165 -1.2106 -1.6832  2.6712
16503SOL     OW50929   4.999   1.179   8.088 -0.3365  0.4987  0.4410
16503SOL    HW150930   5.082   1.224   8.100  0.3831 -0.3749 -1.0490
16503SOL    HW250931   4.958   1.224   8.013  0.9536 -1.9669 -1.9057
16504SOL     OW50932   7.135   4.638   0.387 -0.2294 -0.0415 -0.5113
16504SOL    HW150933   7.088   4.719   0.408 -0.1222  0.0604 -0.6605
16504SOL    HW250934   7.132   4.633   0.291  0.2710  0.0932 -0.5393
16505SOL     OW50935   5.844   6.643   1.352 -0.5315  0.2453 -0.0339
16505SOL    HW150936   5.881   6.729   1.373 -2.2281  1.9817 -3.3694
16505SOL    HW250937   5.851   6.637   1.257 -1.6527 -2.8022 -0.0145
16506SOL     OW50938   7.790   7.688   0.114 -0.4329  0.4690  0.3773
16506SOL    HW150939   7.721   7.744   0.078 -1.0880  1.0518  2.4181
16506SOL    HW250940   7.864   7.700   0.054 -1.8564  0.3223 -1.5090
16507SOL     OW50941   6.850   7.434   6.387  0.5508 -0.3497  1.0173
16507SOL    HW150942   6.873   7.342   6.402 -0.1976 -1.0000 -1.4017
16507SOL    HW250943   6.889   7.455   6.302  0.0629  1.3493  1.1756
16508SOL     OW50944   7.295   8.409   1.825  0.0651  0.1532 -0.0559
16508SOL    HW150945   7.215   8.462   1.820 -1.6388 -2.2800 -0.3293
16508SOL    HW250946   7.344   8.431   1.746 -0.8432  0.9336 -0.4168
16509SOL     OW50947   5.039   6.522   3.485 -0.4205  0.1493  0.6627
16509SOL    HW150948   4.979   6.462   3.529  2.1079  0.1914  4.6978
16509SOL    HW250949   5.009   6.609   3.511 -1.3768  0.4940 -1.4003
16510SOL     OW50950   7.179   3.101   6.387  0.6698 -0.5654 -0.0465
16510SOL    HW150951   7.125   3.166   6.431  0.6146 -0.2658 -0.5498
16510SOL    HW250952   7.119   3.030   6.366  0.1698  0.2925 -1.7095
16511SOL     OW50953   2.023   0.502   1.042 -0.0556 -0.0246 -0.3595
16511SOL    HW150954   2.037   0.477   0.950 -1.8865 -0.6534 -0.5060
16511SOL    HW250955   1.943   0.554   1.041 -0.1638 -0.1331  0.8904
16512SOL     OW50956   4.258   6.865   2.976  0.1927  0.5264 -0.5287
16512SOL    HW150957   4.221   6.790   3.023  1.5635 -1.0022 -1.7559
16512SOL    HW250958   4.186   6.928   2.971 -0.4655  0.1159  2.1623
16513SOL     OW50959   0.025   0.309   5.438 -0.0522  0.5329  0.1472
16513SOL    HW150960  -0.069   0.320   5.424 -0.0202 -0.2891 -0.8889
16513SOL    HW250961   0.038   0.214   5.435  0.5972  0.5440  1.8307
16514SOL     OW50962   7.219   6.657   5.183  0.1946  0.6157  0.0720
16514SOL    HW150963   7.305   6.641   5.221  0.0118  0.6632  0.5134
16514SOL    HW250964   7.236   6.671   5.089  0.7015  0.9777  0.2141
16515SOL     OW50965   1.629   1.035   2.106 -0.5520  0.0165  0.2893
16515SOL    HW150966   1.633   0.941   2.121  1.6410 -0.1155 -0.6722
16515SOL    HW250967   1.592   1.044   2.018  0.2648 -0.0208 -0.0634
16516SOL     OW50968   6.627   1.130   7.567  0.0841 -0.2897  0.5499
16516SOL    HW150969   6.575   1.181   7.629  0.2315  1.1798 -0.4779
16516SOL    HW250970   6.607   1.168   7.482  1.3933 -0.9536 -0.0914
16517SOL     OW50971   3.838   5.945   1.238 -0.2194  0.0612  0.0262
16517SOL    HW150972   3.791   5.873   1.280  2.3120 -2.0354 -0.4970
16517SOL    HW250973   3.855   5.915   1.149  0.4301  1.5535 -0.3971
16518SOL     OW50974   8.578   0.632   6.784  0.6226  0.2213 -0.3812
16518SOL    HW150975   8.612   0.721   6.786  2.2888 -0.2710 -2.7516
16518SOL    HW250976   8.484   0.642   6.769  0.8566  1.5799 -1.0163
16519SOL     OW50977   1.609   0.778   0.163  0.1078  0.1514  0.7352
16519SOL    HW150978   1.544   0.724   0.119 -0.3051 -0.3565  1.9145
16519SOL    HW250979   1.664   0.814   0.093  0.8134 -2.3285 -0.0581
16520SOL     OW50980   1.650   7.960   4.196 -0.1556 -0.0225 -0.4156
16520SOL    HW150981   1.727   7.937   4.247 -0.2449 -1.3818 -0.8529
16520SOL    HW250982   1.589   7.996   4.260  0.7519  0.8879 -0.0369
16521SOL     OW50983   2.209   7.641   5.147  0.0440  0.6512 -0.3723
16521SOL    HW150984   2.259   7.568   5.184 -0.1673 -0.3751 -1.9987
16521SOL    HW250985   2.246   7.719   5.188 -0.4267 -0.4025  2.2172
16522SOL     OW50986   7.857   6.075   6.481  0.5511 -0.1426 -0.1698
16522SOL    HW150987   7.819   5.987   6.481  1.4891 -0.6046  1.6147
16522SOL    HW250988   7.798   6.127   6.427 -1.5242 -1.2515  0.9160
16523SOL     OW50989   0.739   0.047   1.711 -0.1605  0.0692 -0.0399
16523SOL    HW150990   0.803  -0.005   1.663 -0.7186  0.7553 -1.6017
16523SOL    HW250991   0.665  -0.011   1.724  0.3636 -0.4193  0.9002
16524SOL     OW50992   0.412   4.575   6.141  0.4888  0.3993 -0.1468
16524SOL    HW150993   0.469   4.578   6.064  0.6088  0.5298 -0.0537
16524SOL    HW250994   0.455   4.514   6.201 -0.0261 -0.3336 -0.5138
16525SOL     OW50995   5.277   2.975   3.714  0.1857 -0.2552  0.3710
16525SOL    HW150996   5.256   2.997   3.805 -0.5450  0.0607  0.1335
16525SOL    HW250997   5.194   2.984   3.667  0.5556 -0.4098 -0.3320
16526SOL     OW50998   6.990   3.638   7.229  0.2773 -0.2554 -0.2657
16526SOL    HW150999   7.034   3.722   7.238 -1.3291  0.9260 -2.3720
16526SOL    HW251000   7.059   3.573   7.235  1.8793  1.3380 -0.6258
16527SOL     OW51001   2.288   1.813   9.035  0.0630  0.0961  0.0442
16527SOL    HW151002   2.365   1.758   9.041  0.2658  0.3331 -0.3471
16527SOL    HW251003   2.322   1.902   9.029 -0.1614  0.1023 -1.8539
16528SOL     OW51004   0.066   3.483   7.707  0.1028 -0.7007 -0.2263
16528SOL    HW151005   0.160   3.500   7.706  0.1476 -0.8504  0.6859
16528SOL    HW251006   0.059   3.387   7.711 -0.1125 -0.7711 -1.6813
16529SOL     OW51007   3.922   7.822   1.216 -0.2379  0.8647 -0.5616
16529SOL    HW151008   3.859   7.894   1.222 -1.0338  0.1784 -0.5770
16529SOL    HW251009   3.985   7.851   1.149 -0.5047  1.5771 -0.5106
16530SOL     OW51010   2.044   3.761   7.635 -0.3830 -0.2189  0.0294
16530SOL    HW151011   2.036   3.842   7.584 -2.3643 -1.0469 -1.1003
16530SOL    HW251012   2.071   3.695   7.571  3.5469 -0.1508  1.3522
16531SOL     OW51013   6.994   7.529   7.055  0.1128  0.2215 -0.1393
16531SOL    HW151014   6.957   7.489   6.976  0.1067  1.0324 -0.5538
16531SOL    HW251015   6.940   7.607   7.070  1.2771  1.1098 -0.4252
16532SOL     OW51016   8.691   6.722   8.967  0.7125 -0.2003 -0.1798
16532SOL    HW151017   8.730   6.641   8.932 -0.0691 -0.5681 -0.2136
16532SOL    HW251018   8.685   6.706   9.061  1.8497  0.3798  0.0084
16533SOL     OW51019   7.963   4.545   0.405 -0.4842  0.5167  0.1946
16533SOL    HW151020   7.945   4.501   0.322 -1.3720 -1.4089  1.3263
16533SOL    HW251021   7.890   4.519   0.461  0.1724  1.6589  1.6334
16534SOL     OW51022   7.539   1.847   8.957 -0.3496 -0.3172 -0.1933
16534SOL    HW151023   7.446   1.836   8.978 -0.2002 -0.4600  0.4042
16534SOL    HW251024   7.559   1.774   8.898 -1.0157  0.6536 -1.6884
16535SOL     OW51025   5.155   7.573   9.206  0.4304  0.0143  0.1640
16535SOL    HW151026   5.201   7.626   9.142  0.2897 -1.2242 -1.0039
16535SOL    HW251027   5.183   7.607   9.291  1.7934  0.6932 -0.5374
16536SOL     OW51028   7.047   4.270   0.230 -0.3862  0.2065  0.2594
16536SOL    HW151029   6.977   4.324   0.192 -0.0429  1.5973  1.5073
16536SOL    HW251030   7.104   4.249   0.156 -1.3133  0.3056 -0.5125
16537SOL     OW51031   0.714   0.867   2.873 -0.2539 -0.0437 -0.2303
16537SOL    HW151032   0.691   0.775   2.858 -0.6740  0.0313 -0.0611
16537SOL    HW251033   0.657   0.895   2.945 -0.5468  0.5181 -0.6714
16538SOL     OW51034   3.587   2.135   1.815 -0.3663  0.3049  0.0705
16538SOL    HW151035   3.500   2.165   1.845 -0.8312  1.6630 -2.3288
16538SOL    HW251036   3.570   2.050   1.775 -0.0128 -0.7770  2.0675
16539SOL     OW51037   3.247   1.998   6.924 -1.0622 -0.0588  0.8929
16539SOL    HW151038   3.196   1.917   6.930 -0.6227 -0.7251 -2.3884
16539SOL    HW251039   3.192   2.058   6.874 -0.5696  0.9810  1.5569
16540SOL     OW51040   1.455   2.092   5.741 -0.2795 -0.3252 -0.4202
16540SOL    HW151041   1.524   2.040   5.699  1.0559 -0.6049  1.9760
16540SOL    HW251042   1.391   2.028   5.770 -0.6477 -0.2300 -1.0007
16541SOL     OW51043   5.922   6.132   0.640  0.4498  0.2994  0.1848
16541SOL    HW151044   5.899   6.106   0.729 -0.9975 -1.1806 -0.5542
16541SOL    HW251045   5.840   6.167   0.604  0.3296 -1.3078 -1.2668
16542SOL     OW51046   3.607   7.046   4.268  0.2170 -0.2742  0.0321
16542SOL    HW151047   3.619   7.107   4.341 -0.4068  0.7747 -0.6945
16542SOL    HW251048   3.603   6.960   4.308 -0.5144  0.3165  1.2817
16543SOL     OW51049   0.084   0.618   4.278 -0.0944  0.8417 -0.0119
16543SOL    HW151050   0.111   0.709   4.286 -0.0815  0.8307  0.0801
16543SOL    HW251051   0.020   0.606   4.349  0.3487  0.6207  0.3588
16544SOL     OW51052   1.317   3.961   7.937  0.1628  0.6486 -0.1698
16544SOL    HW151053   1.405   3.985   7.967 -0.3873  2.4899  0.0578
16544SOL    HW251054   1.264   3.960   8.016 -0.5464  2.0607 -0.6070
16545SOL     OW51055   8.787   8.827   8.171 -0.6257  0.0271 -0.1590
16545SOL    HW151056   8.701   8.867   8.185 -0.6765 -0.3303  0.5999
16545SOL    HW251057   8.773   8.762   8.103 -0.7739  0.5484 -0.6351
16546SOL     OW51058   7.830   2.820   5.327 -0.3608  0.3372 -0.0523
16546SOL    HW151059   7.836   2.773   5.244 -0.1401  1.0555 -0.4446
16546SOL    HW251060   7.819   2.912   5.303 -0.3221  0.5523  0.7102
16547SOL     OW51061   1.537   4.870   1.504  0.7059  0.0415  0.0046
16547SOL    HW151062   1.561   4.778   1.512 -0.1106 -0.0495  2.2406
16547SOL    HW251063   1.577   4.912   1.580 -2.5247  0.6110  1.5872
16548SOL     OW51064   1.309   7.228   6.585 -0.5612 -0.5658  0.1467
16548SOL    HW151065   1.377   7.244   6.650 -1.0046  0.4956  0.3699
16548SOL    HW251066   1.333   7.144   6.544  1.2853  0.1548 -0.3176
16549SOL     OW51067   7.441   5.829   4.516 -0.0155 -0.0228 -0.0510
16549SOL    HW151068   7.455   5.921   4.537  1.0583 -0.0725 -0.4721
16549SOL    HW251069   7.380   5.830   4.441  1.1414  0.4234 -1.0196
16550SOL     OW51070   5.071   5.978   0.640 -0.3919  0.3313 -0.5263
16550SOL    HW151071   5.159   5.941   0.626 -0.2169  0.4816  0.1376
16550SOL    HW251072   5.085   6.072   0.641 -0.4733  0.3427  0.1022
16551SOL     OW51073   2.676   0.488   1.465 -0.7381  0.1720  0.2222
16551SOL    HW151074   2.699   0.546   1.538  0.0292  0.6038 -0.3418
16551SOL    HW251075   2.586   0.512   1.442 -0.2439  1.5747 -0.3720
16552SOL     OW51076   7.347   7.176   6.003  0.6419 -0.3832 -0.1043
16552SOL    HW151077   7.296   7.240   6.053  1.8022  1.5732 -1.2619
16552SOL    HW251078   7.434   7.177   6.045  0.4930 -1.7901  0.2994
16553SOL     OW51079   1.996   3.694   1.061  0.4937 -0.3145 -0.2214
16553SOL    HW151080   1.995   3.664   1.152  1.4174  0.0678 -0.0815
16553SOL    HW251081   1.927   3.643   1.018 -0.1413 -0.2986  0.7506
16554SOL     OW51082   0.256   5.172   9.029 -0.5137  0.1832  0.5267
16554SOL    HW151083   0.164   5.161   9.055 -0.6862 -1.2374 -0.5215
16554SOL    HW251084   0.252   5.219   8.946 -0.1371  2.0178  1.4962
16555SOL     OW51085   4.064   1.022   5.095 -0.1389  0.5544  0.5387
16555SOL    HW151086   4.005   1.060   5.031 -0.6941  1.7888  1.7178
16555SOL    HW251087   4.151   1.049   5.067 -0.3315  0.6980  0.0737
16556SOL     OW51088   1.985   4.551   5.683  0.6664 -0.2278 -0.1004
16556SOL    HW151089   1.929   4.504   5.621 -0.1838  1.5551 -0.7874
16556SOL    HW251090   1.936   4.550   5.765  0.3908 -0.0835 -0.2609
16557SOL     OW51091   0.790   5.776   4.347  0.6212  0.4137  0.0177
16557SOL    HW151092   0.783   5.825   4.429  0.2862 -0.1564  0.3368
16557SOL    HW251093   0.710   5.724   4.344  2.7798 -3.5151  1.9228
16558SOL     OW51094   4.020   3.654   3.833 -0.3940  0.4746  0.0236
16558SOL    HW151095   4.058   3.592   3.896 -1.0137  0.2864  0.2177
16558SOL    HW251096   3.932   3.620   3.816 -1.0364  1.6977  0.7062
16559SOL     OW51097   3.995   3.615   8.886 -0.0313 -0.2813  0.2023
16559SOL    HW151098   3.928   3.565   8.934  1.2200 -1.7138  0.5065
16559SOL    HW251099   4.073   3.609   8.940  1.2838 -1.4893 -1.7106
16560SOL     OW51100   5.154   0.690   3.216 -0.7142  0.1428  0.0144
16560SOL    HW151101   5.199   0.775   3.221 -1.2115  0.3653  1.0809
16560SOL    HW251102   5.062   0.712   3.199 -0.7205 -0.2193 -0.4272
16561SOL     OW51103   7.927   3.068   5.261 -0.0555  0.1798  0.5946
16561SOL    HW151104   7.912   3.119   5.181  0.3105  1.3874  1.2819
16561SOL    HW251105   7.954   3.132   5.326 -0.9290 -0.7004  1.8677
16562SOL     OW51106   4.227   8.220   3.475 -0.3742 -0.0615  0.1610
16562SOL    HW151107   4.192   8.224   3.564 -1.6678 -0.4763 -0.3057
16562SOL    HW251108   4.182   8.291   3.428  0.8939  0.6825  0.0164
16563SOL     OW51109   7.635   5.833   8.671 -0.1409  0.0399 -0.0344
16563SOL    HW151110   7.628   5.918   8.715  0.6965 -0.2504  0.6979
16563SOL    HW251111   7.727   5.829   8.643 -0.4418 -0.1652 -1.0451
16564SOL     OW51112   9.015   7.300   5.616  0.8649 -0.1717 -0.2375
16564SOL    HW151113   9.043   7.209   5.624 -0.5629 -0.5711  0.4734
16564SOL    HW251114   8.921   7.295   5.600  0.4305  1.1810  1.5589
16565SOL     OW51115   2.599   0.967   8.497 -0.4437 -0.5389 -0.0696
16565SOL    HW151116   2.637   0.957   8.410  0.5136  3.3641 -0.2733
16565SOL    HW251117   2.525   1.026   8.484 -0.4532 -0.0983  1.7111
16566SOL     OW51118   2.316   2.557   2.578 -0.3161  0.7202  0.2009
16566SOL    HW151119   2.234   2.509   2.589 -1.8936  2.8764 -1.3949
16566SOL    HW251120   2.336   2.591   2.665  0.0771 -1.5538  1.0463
16567SOL     OW51121   7.211   1.508   6.182 -0.1105  0.0724  0.2944
16567SOL    HW151122   7.287   1.563   6.199 -0.9573  0.5613  2.8094
16567SOL    HW251123   7.216   1.491   6.088  3.3339 -0.3133  0.4098
16568SOL     OW51124   7.007   7.706   4.294 -0.4814 -0.0903 -0.3042
16568SOL    HW151125   7.092   7.686   4.254  0.5874 -0.8441  2.1829
16568SOL    HW251126   7.013   7.797   4.320 -1.1768  0.3976 -1.7051
16569SOL     OW51127   3.629   5.525   5.862 -0.2737  0.2833 -0.1410
16569SOL    HW151128   3.596   5.581   5.932  0.0878  1.4692 -0.8770
16569SOL    HW251129   3.557   5.522   5.798 -0.6429 -0.8768  0.3141
16570SOL     OW51130   1.190   9.143   4.645  0.4711 -0.5840  0.6887
16570SOL    HW151131   1.122   9.106   4.588 -0.5435  0.9408  0.8459
16570SOL    HW251132   1.249   9.189   4.586 -0.5608  0.9667  0.7978
16571SOL     OW51133   2.285   5.577   6.493 -0.3109  0.0480 -0.1528
16571SOL    HW151134   2.305   5.636   6.421 -0.3674  0.4741  0.1785
16571SOL    HW251135   2.360   5.584   6.552 -1.3891  1.6783  1.1135
16572SOL     OW51136   2.682   5.756   8.250 -0.2712 -0.1376  0.2062
16572SOL    HW151137   2.634   5.681   8.287  0.2494  0.0768  1.3789
16572SOL    HW251138   2.622   5.830   8.261  0.5216  0.2703  2.3307
16573SOL     OW51139   0.558   5.159   4.196 -0.1643 -0.0045  0.4520
16573SOL    HW151140   0.620   5.201   4.256 -0.8474  4.5107 -1.5793
16573SOL    HW251141   0.479   5.144   4.249 -0.1786  2.2498  1.1478
16574SOL     OW51142   1.613   5.953   3.794 -0.6647  0.5771 -0.5488
16574SOL    HW151143   1.557   5.950   3.872 -0.1527  1.1351 -0.1561
16574SOL    HW251144   1.556   5.988   3.725 -1.7601 -1.8498 -0.9919
16575SOL     OW51145   3.514   0.508   2.190  0.5750  0.0740  0.3393
16575SOL    HW151146   3.452   0.516   2.118  0.6533  1.6865  0.4263
16575SOL    HW251147   3.506   0.590   2.239  1.4587 -0.4487  1.4150
16576SOL     OW51148   8.325   4.436   4.021 -0.5043 -0.6747 -0.4856
16576SOL    HW151149   8.396   4.500   4.027 -1.2174  0.1709 -0.8693
16576SOL    HW251150   8.330   4.403   3.931 -2.0278  1.1192 -1.2843
16577SOL     OW51151   6.163   2.255   8.247 -0.1922  0.3611 -0.2780
16577SOL    HW151152   6.223   2.248   8.172  0.0768  1.8125 -0.2168
16577SOL    HW251153   6.201   2.197   8.313 -0.1045 -0.4716 -1.0382
16578SOL     OW51154   5.622   1.151   8.321 -0.0406 -0.0965 -0.2369
16578SOL    HW151155   5.656   1.062   8.331 -0.4472 -0.4713 -1.9148
16578SOL    HW251156   5.685   1.194   8.262 -0.4367  0.3789 -0.3161
16579SOL     OW51157   4.287   7.885   5.118  0.3718 -0.7242  0.6310
16579SOL    HW151158   4.290   7.934   5.036  0.7902 -1.8504 -0.0508
16579SOL    HW251159   4.221   7.931   5.171  0.6710  0.4952 -0.0071
16580SOL     OW51160   5.920   1.103   5.214 -0.2672  0.4143  0.0566
16580SOL    HW151161   5.938   1.010   5.203  0.7845  0.8437 -2.2499
16580SOL    HW251162   5.954   1.124   5.301  1.9313 -0.8101 -0.4445
16581SOL     OW51163   7.803   9.082   1.398 -0.5264  0.3350  0.8725
16581SOL    HW151164   7.758   9.026   1.335 -0.0899  0.3266  0.5638
16581SOL    HW251165   7.806   9.168   1.356  0.8362  0.0610  0.3296
16582SOL     OW51166   6.522   8.116   6.972 -0.5102 -0.2510  0.3317
16582SOL    HW151167   6.493   8.206   6.963  0.8985  0.5658  2.8780
16582SOL    HW251168   6.455   8.064   6.926 -1.4903  2.0165 -0.9730
16583SOL     OW51169   0.649   0.896   3.187 -0.3867  0.0377  0.0020
16583SOL    HW151170   0.727   0.952   3.193 -1.1958  1.3597 -1.2588
16583SOL    HW251171   0.684   0.807   3.195  0.9802  0.6516  1.7326
16584SOL     OW51172   7.449   6.655   0.570  0.1016 -0.2504  0.3914
16584SOL    HW151173   7.506   6.603   0.512  0.0985  1.5024 -1.3031
16584SOL    HW251174   7.376   6.597   0.590  0.5152 -1.1932 -0.6902
16585SOL     OW51175   0.073   5.218   7.790  0.4196  0.0092 -0.3858
16585SOL    HW151176   0.031   5.178   7.714  4.4436 -1.0868 -2.3046
16585SOL    HW251177   0.071   5.312   7.772  1.0747 -0.2207 -1.7898
16586SOL     OW51178   1.021   4.161   5.737 -0.0270 -0.6067 -0.6093
16586SOL    HW151179   1.055   4.216   5.808 -3.2723  1.2659 -0.3119
16586SOL    HW251180   1.090   4.163   5.670  1.4701  0.8765  0.8746
16587SOL     OW51181   4.664   7.913   3.013 -0.1732  0.3429 -0.0816
16587SOL    HW151182   4.713   7.850   2.960  1.6978  1.0659  0.7304
16587SOL    HW251183   4.617   7.859   3.077 -0.5043 -0.3632 -0.8968
16588SOL     OW51184   1.518   7.424   2.130  0.2419  0.2897 -0.9300
16588SOL    HW151185   1.568   7.357   2.083 -1.3140 -0.7138 -1.2322
16588SOL    HW251186   1.576   7.452   2.201 -0.0127 -3.4900  1.0389
16589SOL     OW51187   6.781   5.390   7.139 -0.0284 -0.2412  0.1598
16589SOL    HW151188   6.751   5.448   7.209 -0.1366  2.2804 -1.8329
16589SOL    HW251189   6.701   5.358   7.098  0.0401 -1.4438  0.9085
16590SOL     OW51190   1.411   9.223   2.328 -0.2151 -0.0501 -0.2962
16590SOL    HW151191   1.491   9.222   2.276  0.1733  0.9234  0.2610
16590SOL    HW251192   1.386   9.130   2.336  1.6938 -0.5285  0.8024
16591SOL     OW51193   4.560   2.554   8.636 -0.3123  1.1858  0.0949
16591SOL    HW151194   4.589   2.575   8.547  1.1442 -0.1068  0.2092
16591SOL    HW251195   4.531   2.637   8.672 -0.1390  1.8859 -1.3133
16592SOL     OW51196   0.219   1.195   7.202 -0.0123 -0.4110 -0.1440
16592SOL    HW151197   0.193   1.286   7.185  0.8236 -0.2963 -0.9166
16592SOL    HW251198   0.237   1.159   7.115 -0.5361 -1.3895  0.1410
16593SOL     OW51199   6.120   2.770   6.987  0.0136 -0.4897  0.1554
16593SOL    HW151200   6.098   2.795   6.898  0.3699 -0.9096 -0.0514
16593SOL    HW251201   6.086   2.681   6.997  0.4921 -0.6675  0.2435
16594SOL     OW51202   5.611   6.215   5.736 -1.1547  0.2120 -0.2632
16594SOL    HW151203   5.592   6.150   5.669 -1.4234 -0.3979  0.4021
16594SOL    HW251204   5.591   6.299   5.694  1.6434  0.1162 -2.0329
16595SOL     OW51205   2.009   5.150   6.550  0.6041  0.5940 -0.0305
16595SOL    HW151206   2.058   5.134   6.469 -0.8436 -0.7521 -0.6938
16595SOL    HW251207   1.962   5.069   6.565 -2.0650  2.0749  0.1250
16596SOL     OW51208   3.521   6.413   2.143 -0.0886  0.0160  0.6098
16596SOL    HW151209   3.578   6.483   2.175  0.6452  0.5396 -1.6818
16596SOL    HW251210   3.454   6.458   2.091 -0.9506 -0.8252  0.9613
16597SOL     OW51211   5.824   8.382   0.873 -0.0049  0.1896  0.0242
16597SOL    HW151212   5.896   8.425   0.826 -0.5123  1.0168 -0.0369
16597SOL    HW251213   5.830   8.290   0.847  0.6850  0.3470 -0.4223
16598SOL     OW51214   1.129   8.315   7.236  0.1028 -0.4246  0.2659
16598SOL    HW151215   1.037   8.339   7.250 -0.4529 -1.3298 -1.5444
16598SOL    HW251216   1.125   8.224   7.207  1.5922 -0.4769  0.1675
16599SOL     OW51217   2.209   7.491   5.605  0.8808 -0.8639  0.6167
16599SOL    HW151218   2.173   7.416   5.558 -4.7791  2.7025 -1.8032
16599SOL    HW251219   2.272   7.530   5.544 -2.1213  0.4969 -1.8865
16600SOL     OW51220   6.360   6.747   1.227  0.0039  0.4765  0.0128
16600SOL    HW151221   6.364   6.737   1.322  0.3498 -1.1485 -0.1336
16600SOL    HW251222   6.428   6.688   1.194 -1.0237 -0.0347 -1.2827
16601SOL     OW51223   2.383   0.638   5.451 -0.0573 -0.0367 -0.2598
16601SOL    HW151224   2.356   0.551   5.423  1.8844  0.0052 -2.5418
16601SOL    HW251225   2.412   0.682   5.371  1.0071  1.9559  1.1221
16602SOL     OW51226   0.722   3.173   6.302  0.1498  0.1031  0.2925
16602SOL    HW151227   0.677   3.226   6.236  1.1126 -0.4008 -0.8200
16602SOL    HW251228   0.772   3.236   6.353 -1.3497  0.6084  1.1995
16603SOL     OW51229   3.321   2.137   0.546 -0.0579 -0.0021 -0.4447
16603SOL    HW151230   3.269   2.058   0.534  1.2018 -0.8368 -0.5168
16603SOL    HW251231   3.301   2.191   0.470 -1.1836 -0.0847 -0.2288
16604SOL     OW51232   4.990   5.359   1.329  0.1003 -0.3471 -0.2124
16604SOL    HW151233   4.970   5.268   1.352  0.7562 -0.8549 -1.5496
16604SOL    HW251234   5.084   5.360   1.314  0.3808  0.9321  1.3208
16605SOL     OW51235   6.274   5.775   0.805  0.7623 -0.2811 -0.7722
16605SOL    HW151236   6.221   5.696   0.811  1.9282 -1.1544 -1.6187
16605SOL    HW251237   6.247   5.816   0.723 -1.5371  1.5360  0.7407
16606SOL     OW51238   0.746   4.125   3.832  0.1732  0.5885 -0.7375
16606SOL    HW151239   0.687   4.063   3.875  0.1863  0.3397 -1.0708
16606SOL    HW251240   0.700   4.209   3.836 -0.8152  0.1531 -2.1623
16607SOL     OW51241   6.685   6.085   3.000  0.9351 -0.4051 -0.0286
16607SOL    HW151242   6.648   6.168   3.031  2.7052  0.6643 -0.6664
16607SOL    HW251243   6.619   6.019   3.025 -0.6940  1.2079  0.1611
16608SOL     OW51244   8.353   0.629   5.915  0.2334 -0.0009 -0.4788
16608SOL    HW151245   8.388   0.541   5.901 -3.0564 -1.2958 -1.5409
16608SOL    HW251246   8.348   0.667   5.827 -1.0356  0.0692 -0.3985
16609SOL     OW51247   3.088   2.038   3.008 -0.3610  0.4634  0.1120
16609SOL    HW151248   3.146   1.975   3.052  0.1330  1.1492  0.4689
16609SOL    HW251249   3.078   2.109   3.071  0.9232  1.8011 -1.1106
16610SOL     OW51250   6.122   6.336   5.312  0.3565 -0.3901  0.6554
16610SOL    HW151251   6.053   6.374   5.367  2.0104  1.9937  1.2097
16610SOL    HW251252   6.185   6.407   5.299  1.6391 -1.8374 -1.6791
16611SOL     OW51253   7.523   2.150   1.339  0.3179  0.0344 -0.2148
16611SOL    HW151254   7.529   2.083   1.271 -0.5990 -1.7985  1.3879
16611SOL    HW251255   7.587   2.124   1.405 -0.6917  0.1720  0.8636
16612SOL     OW51256   6.557   5.588   8.417  0.3456 -0.1631  0.8314
16612SOL    HW151257   6.625   5.654   8.405  0.8808 -0.7154  0.7549
16612SOL    HW251258   6.483   5.619   8.366  0.7615  0.1377  0.4074
16613SOL     OW51259   7.258   8.847   6.213 -0.5864 -0.3135  0.3626
16613SOL    HW151260   7.329   8.902   6.179  0.5963 -1.0475  1.5429
16613SOL    HW251261   7.196   8.841   6.140  0.8443 -0.1313 -0.9345
16614SOL     OW51262   6.872   8.523   2.801 -0.1342 -0.0899 -0.1578
16614SOL    HW151263   6.854   8.610   2.837 -1.7380 -1.4739  2.7672
16614SOL    HW251264   6.809   8.513   2.730  1.1407  1.6471 -1.6297
16615SOL     OW51265   0.950   0.136   3.502 -0.0191 -0.0170 -0.1289
16615SOL    HW151266   0.862   0.166   3.523 -0.6506 -1.0542 -1.2020
16615SOL    HW251267   0.973   0.079   3.576 -0.2480  0.2365  0.1430
16616SOL     OW51268   6.160   1.696   3.041 -0.0880 -0.7817 -0.0585
16616SOL    HW151269   6.142   1.776   2.992 -1.2595  0.4116  2.1504
16616SOL    HW251270   6.172   1.629   2.974 -0.7625  0.8836 -1.9530
16617SOL     OW51271   7.804   0.557   1.995  0.0895  0.2888 -0.3182
16617SOL    HW151272   7.723   0.607   1.993 -0.2661 -0.2580 -1.9784
16617SOL    HW251273   7.866   0.611   2.044 -0.9055  1.3094 -0.1670
16618SOL     OW51274   5.793   8.536   9.034 -0.0146 -0.0763 -0.4249
16618SOL    HW151275   5.779   8.623   8.997 -0.3626 -0.2807 -0.7896
16618SOL    HW251276   5.805   8.480   8.957  0.4035 -0.3156 -0.1844
16619SOL     OW51277   2.132   5.500   3.325  0.2539  0.3619  0.3284
16619SOL    HW151278   2.070   5.505   3.252 -0.1022 -0.8970  0.5158
16619SOL    HW251279   2.189   5.426   3.303  1.1829  0.9887  0.5547
16620SOL     OW51280   8.896   6.894   2.944  0.6451  0.2665  0.2515
16620SOL    HW151281   8.943   6.884   3.026  3.0693  0.3397 -1.0269
16620SOL    HW251282   8.858   6.982   2.948  1.7853  0.7438  0.7942
16621SOL     OW51283   3.781   7.226   5.290 -0.2397  0.1918  0.2654
16621SOL    HW151284   3.755   7.228   5.198 -1.8842  0.2632  0.6980
16621SOL    HW251285   3.856   7.285   5.295  0.1489 -0.1518 -1.0910
16622SOL     OW51286   8.204   1.977   3.050  0.2939 -0.4946  0.3394
16622SOL    HW151287   8.121   2.023   3.056 -0.9562 -2.5398 -0.0477
16622SOL    HW251288   8.252   2.001   3.130 -1.5848 -0.8864  1.6450
16623SOL     OW51289   5.359   5.037   3.583  0.0221 -0.0519  0.2921
16623SOL    HW151290   5.449   5.066   3.598  0.1351 -1.4256  2.7029
16623SOL    HW251291   5.358   5.011   3.491  2.7293 -1.9338  0.6634
16624SOL     OW51292   4.139   8.261   0.307 -0.1179 -0.2337  0.4095
16624SOL    HW151293   4.100   8.246   0.393  1.6292  0.4464  1.3771
16624SOL    HW251294   4.215   8.316   0.324  0.4999 -0.3873 -1.5384
16625SOL     OW51295   6.973   2.122   7.275  0.0572  0.2333  0.2817
16625SOL    HW151296   7.002   2.037   7.309  0.9689  0.6235  0.5217
16625SOL    HW251297   6.922   2.102   7.197 -0.5816 -0.5891  0.8970
16626SOL     OW51298   1.392   5.383   3.663  0.2228  0.6441 -0.1027
16626SOL    HW151299   1.437   5.428   3.591 -0.2051 -0.1715 -0.8980
16626SOL    HW251300   1.308   5.356   3.625 -0.7394  1.6855  1.2049
16627SOL     OW51301   6.089   1.525   3.624 -0.0544 -0.5150  0.0056
16627SOL    HW151302   6.027   1.573   3.568  1.1801  0.7182 -0.3562
16627SOL    HW251303   6.072   1.433   3.605 -0.2028 -0.1405 -1.8111
16628SOL     OW51304   3.121   1.806   2.658  0.3636 -0.6125  0.0143
16628SOL    HW151305   3.088   1.832   2.572 -0.4771 -0.9824  0.2126
16628SOL    HW251306   3.062   1.849   2.721  0.6296 -0.7935  0.3919
16629SOL     OW51307   5.268   7.782   7.765 -0.5882 -0.0011 -0.3708
16629SOL    HW151308   5.195   7.791   7.826 -0.2927  0.2983 -0.0568
16629SOL    HW251309   5.245   7.707   7.711  0.4234 -2.0995  1.9103
16630SOL     OW51310   1.155   8.660   8.498 -0.3894  0.1651  0.1470
16630SOL    HW151311   1.164   8.582   8.442  0.3629  0.9845 -0.9092
16630SOL    HW251312   1.077   8.704   8.464 -1.5250 -0.6946  1.5060
16631SOL     OW51313   5.805   4.215   0.842 -0.3754  0.2965  0.0644
16631SOL    HW151314   5.753   4.259   0.909  1.7181  2.6322  0.2945
16631SOL    HW251315   5.840   4.138   0.886 -0.2655  0.9767  1.1976
16632SOL     OW51316   0.643   4.009   8.958 -0.2311  0.2170 -0.7392
16632SOL    HW151317   0.628   3.929   8.907 -0.8265 -0.5918  0.6747
16632SOL    HW251318   0.691   4.067   8.897  1.0184 -1.5347 -1.5024
16633SOL     OW51319   5.026   6.136   3.493  0.4078 -0.3306  0.1355
16633SOL    HW151320   4.956   6.199   3.507 -0.2044 -0.8488 -0.5273
16633SOL    HW251321   5.089   6.155   3.563  0.4430  1.2728 -0.2792
16634SOL     OW51322   7.707   5.025   4.623 -0.5504 -0.1999  0.0401
16634SOL    HW151323   7.612   5.037   4.626 -0.6023 -0.4996 -0.3840
16634SOL    HW251324   7.729   4.989   4.709 -0.8699 -0.4538  0.0192
16635SOL     OW51325   1.170   9.234   5.741 -0.2263 -0.4520 -0.2068
16635SOL    HW151326   1.229   9.223   5.667 -0.0555 -1.7407  0.0830
16635SOL    HW251327   1.095   9.282   5.706  0.3540 -0.0488 -0.9217
16636SOL     OW51328   5.665   0.556   2.585  0.1291  0.3348 -1.1472
16636SOL    HW151329   5.640   0.594   2.669  1.6404 -1.5308  0.2313
16636SOL    HW251330   5.586   0.511   2.555  0.0038 -0.2622  0.0457
16637SOL     OW51331   4.832   3.500   7.566  0.0735  0.2286  0.1811
16637SOL    HW151332   4.837   3.553   7.645  1.9695 -0.5288  0.6095
16637SOL    HW251333   4.796   3.416   7.595  0.0578  0.2011  0.0845
16638SOL     OW51334   0.862   7.374   3.136 -0.3451  0.0285  0.9293
16638SOL    HW151335   0.940   7.325   3.110  0.0522  1.8953 -1.7594
16638SOL    HW251336   0.795   7.307   3.146  0.8810 -1.3447  0.4015
16639SOL     OW51337   3.676   8.558   5.562 -0.0711  0.6171 -0.0141
16639SOL    HW151338   3.770   8.568   5.542 -0.2877  2.7303 -0.2104
16639SOL    HW251339   3.639   8.518   5.484  0.8477 -1.5414  0.5871
16640SOL     OW51340   1.260   7.940   9.154 -0.2625 -1.0935 -0.1123
16640SOL    HW151341   1.298   7.860   9.118  0.1630 -0.2795 -1.5818
16640SOL    HW251342   1.191   7.964   9.092 -0.3591 -0.3102  0.2769
16641SOL     OW51343   4.773   2.078   7.834  0.0165 -0.2369  0.3532
16641SOL    HW151344   4.687   2.109   7.806  0.5178  0.5542 -0.3506
16641SOL    HW251345   4.758   1.987   7.861 -0.7010 -0.7226 -1.5092
16642SOL     OW51346   8.422   6.624   7.527 -0.1519 -0.0861 -0.1743
16642SOL    HW151347   8.467   6.557   7.579  1.1557  0.1041 -1.0356
16642SOL    HW251348   8.466   6.706   7.550 -0.8541  0.2902 -0.1443
16643SOL     OW51349   5.071   0.167   3.645 -0.3595  0.3706  0.6536
16643SOL    HW151350   4.987   0.177   3.690  0.9555  3.0163  2.7661
16643SOL    HW251351   5.100   0.079   3.668 -2.4974 -0.6144 -0.1357
16644SOL     OW51352   8.758   6.057   1.267  0.4378 -1.0436 -0.0255
16644SOL    HW151353   8.741   6.018   1.181 -0.2863  0.9314 -0.8599
16644SOL    HW251354   8.697   6.013   1.326 -0.7610 -0.8031 -1.0299
16645SOL     OW51355   0.433   9.230   0.746  0.9604  0.1378  0.2875
16645SOL    HW151356   0.509   9.191   0.788  1.2719  1.3433  0.8976
16645SOL    HW251357   0.470   9.296   0.686  0.4059  0.7860  0.6450
16646SOL     OW51358   2.726   8.211   3.985  0.4281 -0.1801 -0.2438
16646SOL    HW151359   2.694   8.125   3.957 -1.0651  0.6962 -1.3696
16646SOL    HW251360   2.651   8.251   4.031 -0.2055  1.8588 -2.7938
16647SOL     OW51361   2.673   1.311   2.880 -0.6595 -0.1766  0.4477
16647SOL    HW151362   2.658   1.359   2.798  0.8786 -1.5716 -0.7232
16647SOL    HW251363   2.652   1.220   2.859  1.2185 -0.8129  1.1042
16648SOL     OW51364   7.104   1.073   1.825 -0.0288  0.2936 -0.6100
16648SOL    HW151365   7.098   1.162   1.861  0.7311 -0.4811  1.5950
16648SOL    HW251366   7.173   1.079   1.759  0.8078  1.1305  0.3087
16649SOL     OW51367   7.481   8.680   0.850  0.3391 -0.0482  0.7158
16649SOL    HW151368   7.559   8.639   0.815 -1.5377 -2.9647 -0.4024
16649SOL    HW251369   7.421   8.607   0.869 -2.4060  2.0392  0.7844
16650SOL     OW51370   7.746   4.299   4.365  0.3084 -0.2594 -0.3204
16650SOL    HW151371   7.780   4.220   4.406  0.3184 -0.6698 -1.1062
16650SOL    HW251372   7.691   4.339   4.433 -0.4216 -1.4103 -0.2059
16651SOL     OW51373   2.953   5.208   5.292 -0.0907  0.2465 -0.1118
16651SOL    HW151374   3.012   5.153   5.241  0.8375 -0.5925  1.7431
16651SOL    HW251375   2.945   5.163   5.376 -3.3704  0.3589 -0.2175
16652SOL     OW51376   4.211   8.787   5.186  0.2229  0.5052  0.6145
16652SOL    HW151377   4.215   8.726   5.113 -1.7293  1.3301 -0.2432
16652SOL    HW251378   4.171   8.736   5.257 -0.1653  0.3831  0.3149
16653SOL     OW51379   8.392   4.550   4.494  0.3565  0.7603  0.0378
16653SOL    HW151380   8.369   4.640   4.518 -0.4175  0.9156 -1.1829
16653SOL    HW251381   8.468   4.560   4.436  0.3328  0.6174 -0.0178
16654SOL     OW51382   5.637   3.467   1.388 -0.0781  0.0234  0.6577
16654SOL    HW151383   5.651   3.385   1.434 -0.3876 -0.9179 -0.8729
16654SOL    HW251384   5.542   3.473   1.376 -0.0113  0.3391  0.2675
16655SOL     OW51385   7.281   2.136   1.440 -0.3030 -0.2609 -0.1748
16655SOL    HW151386   7.372   2.143   1.411 -0.1976 -1.1228 -0.0776
16655SOL    HW251387   7.234   2.101   1.365 -0.3954 -0.6345  0.0546
16656SOL     OW51388   8.094   6.610   0.336 -0.2204  0.0524  0.0567
16656SOL    HW151389   8.178   6.611   0.382 -0.8943 -0.3994  1.3578
16656SOL    HW251390   8.074   6.518   0.325 -1.2340  0.1140  1.1344
16657SOL     OW51391   2.461   8.704   8.418 -0.7044 -0.4538 -0.1457
16657SOL    HW151392   2.533   8.645   8.441 -0.6302 -0.4261 -0.3029
16657SOL    HW251393   2.431   8.672   8.333  0.4406  0.7640 -1.0433
16658SOL     OW51394   6.101   8.182   4.290 -0.0370  0.2946  0.0767
16658SOL    HW151395   6.106   8.139   4.204 -0.2164 -1.5682  0.9485
16658SOL    HW251396   6.115   8.275   4.271  0.1320 -0.0903 -1.9374
16659SOL     OW51397   0.395   8.619   8.768 -0.0106  0.4441  0.1212
16659SOL    HW151398   0.342   8.555   8.720 -0.1770  0.8227 -0.2072
16659SOL    HW251399   0.421   8.683   8.702 -0.7505  1.3077  0.6408
16660SOL     OW51400   2.185   3.190   2.037 -0.1520  0.2562  0.2003
16660SOL    HW151401   2.275   3.218   2.020  0.3487 -0.4089  1.5373
16660SOL    HW251402   2.191   3.095   2.048 -1.0126  0.2055  0.3033
16661SOL     OW51403   0.633   7.738   1.929  0.0430 -1.0110  0.1369
16661SOL    HW151404   0.658   7.647   1.946 -1.8571 -1.8050 -1.0431
16661SOL    HW251405   0.554   7.752   1.981 -0.2024 -0.3113 -0.4099
16662SOL     OW51406   5.897   6.672   6.051 -0.4936  0.4966  0.9533
16662SOL    HW151407   5.894   6.671   6.147 -0.2903 -0.0698  0.9594
16662SOL    HW251408   5.823   6.618   6.024 -0.1477  0.0887  0.8070
16663SOL     OW51409   5.532   8.182   3.095  0.5890 -0.2061  0.4329
16663SOL    HW151410   5.510   8.254   3.154 -1.3190 -0.3662 -0.0045
16663SOL    HW251411   5.626   8.169   3.106  0.6356  1.1107  1.8991
16664SOL     OW51412   5.138   2.301   5.073 -0.1516  0.8509  0.2513
16664SOL    HW151413   5.153   2.384   5.027 -1.1306  0.6575 -0.4455
16664SOL    HW251414   5.196   2.239   5.030 -0.9868  0.6949 -0.6895
16665SOL     OW51415   0.113   6.225   1.233 -0.5388 -0.6337 -0.1292
16665SOL    HW151416   0.038   6.264   1.277  0.6041 -0.2657  1.6182
16665SOL    HW251417   0.147   6.294   1.176 -0.8512 -0.4295 -0.0695
16666SOL     OW51418   4.866   0.750   0.146  0.3362  0.0778  0.3787
16666SOL    HW151419   4.856   0.680   0.082  1.6414 -0.8241  1.1176
16666SOL    HW251420   4.921   0.815   0.102  1.3203 -0.5884  0.6144
16667SOL     OW51421   8.026   3.842   7.585 -0.1478 -0.0149  0.5647
16667SOL    HW151422   8.066   3.825   7.670 -0.4942  0.7229  0.8799
16667SOL    HW251423   7.942   3.882   7.605  0.0640  0.8064 -0.1316
16668SOL     OW51424   6.591   4.362   5.232 -0.4439 -0.4083  1.3430
16668SOL    HW151425   6.513   4.355   5.176  0.7985 -5.0309 -0.2602
16668SOL    HW251426   6.661   4.387   5.172  0.1249 -0.9633  1.7650
16669SOL     OW51427   0.996   7.914   2.336 -0.1945 -0.6426 -0.2550
16669SOL    HW151428   1.059   7.944   2.402 -1.8094  1.9554  0.2670
16669SOL    HW251429   0.915   7.901   2.385 -0.5502 -2.1534 -1.2046
16670SOL     OW51430   2.806   6.718   0.603 -0.4088  0.3190  0.0952
16670SOL    HW151431   2.887   6.755   0.569 -0.3927 -0.9498 -1.3357
16670SOL    HW251432   2.737   6.770   0.561 -0.3644  1.2796  1.1725
16671SOL     OW51433   8.417   5.499   6.485  0.2385  0.2773 -0.0749
16671SOL    HW151434   8.452   5.498   6.574 -1.3172  0.4211  0.5699
16671SOL    HW251435   8.495   5.501   6.429  1.2541 -0.1590  1.2578
16672SOL     OW51436   2.191   5.238   6.714  0.1021  0.5982 -0.1579
16672SOL    HW151437   2.194   5.161   6.771  1.3116  1.1224  0.5431
16672SOL    HW251438   2.140   5.210   6.638  0.9532 -1.0777 -0.1690
16673SOL     OW51439   4.610   5.895   8.004 -0.4141 -0.0855 -0.0361
16673SOL    HW151440   4.565   5.930   8.081 -2.3319  1.2113 -1.6535
16673SOL    HW251441   4.552   5.825   7.973 -0.2953  0.2369 -1.0016
16674SOL     OW51442   4.478   6.392   1.426  0.2858  0.1685 -0.4828
16674SOL    HW151443   4.552   6.403   1.366  0.5593 -0.6921 -0.3242
16674SOL    HW251444   4.449   6.302   1.412  0.1578  0.0524  0.4487
16675SOL     OW51445   5.098   1.532   3.754  0.4887  0.3448  0.5123
16675SOL    HW151446   5.046   1.456   3.730  1.4268  0.1365 -0.9883
16675SOL    HW251447   5.132   1.511   3.841 -0.2714 -0.3947  0.6437
16676SOL     OW51448   8.918   8.580   1.730 -0.0738  0.2629  0.9428
16676SOL    HW151449   8.866   8.521   1.783 -1.3725  1.3418  0.9279
16676SOL    HW251450   9.008   8.552   1.744 -0.6869 -3.1542 -0.8111
16677SOL     OW51451   1.787   3.836   2.716  0.1784  0.7651 -0.1168
16677SOL    HW151452   1.808   3.833   2.622 -0.1388  0.4999 -0.1800
16677SOL    HW251453   1.708   3.782   2.725 -0.0743  1.1910  0.2299
16678SOL     OW51454   6.958   5.191   5.459 -0.0041  0.2823 -0.1428
16678SOL    HW151455   6.883   5.142   5.495  0.6965 -0.9550 -0.2894
16678SOL    HW251456   6.919   5.260   5.406 -1.0531  1.0984  1.6279
16679SOL     OW51457   7.732   1.436   0.807  0.2785 -0.6348 -0.0584
16679SOL    HW151458   7.783   1.417   0.728 -0.3522  1.1746 -0.9650
16679SOL    HW251459   7.750   1.362   0.865  1.2080 -1.7563 -1.6658
16680SOL     OW51460   5.436   8.664   7.844  0.7238 -0.1413  0.3751
16680SOL    HW151461   5.436   8.724   7.918 -0.3327 -1.1110  1.1990
16680SOL    HW251462   5.520   8.618   7.851  1.8314  1.6234 -0.6412
16681SOL     OW51463   2.919   0.767   0.523 -0.1911 -0.1817 -0.5579
16681SOL    HW151464   2.891   0.799   0.437 -3.0415  0.0893  0.3525
16681SOL    HW251465   2.934   0.673   0.510 -0.0933 -0.0453 -1.4588
16682SOL     OW51466   0.891   0.536   6.911  0.5162  0.3831  0.2110
16682SOL    HW151467   0.964   0.581   6.869  0.4429  0.1166 -0.2122
16682SOL    HW251468   0.814   0.564   6.862  0.6338 -1.3983 -1.1155
16683SOL     OW51469   5.904   7.905   8.643 -0.4572 -0.0219 -0.5168
16683SOL    HW151470   5.846   7.976   8.672 -1.5478 -0.1522 -2.2559
16683SOL    HW251471   5.992   7.942   8.649 -1.0389  1.6896 -1.8644
16684SOL     OW51472   3.768   9.018   1.348 -0.6231  0.4140  0.2138
16684SOL    HW151473   3.744   8.951   1.412 -0.1217 -0.1940 -0.2297
16684SOL    HW251474   3.862   9.033   1.361 -0.4148 -0.0359 -0.6629
16685SOL     OW51475   8.284   9.194   0.170 -0.2723  0.3633  0.0227
16685SOL    HW151476   8.305   9.269   0.115 -2.2752 -0.0979 -1.4966
16685SOL    HW251477   8.200   9.217   0.211  0.7425  0.3307  2.2672
16686SOL     OW51478   1.205   6.842   0.146  0.7468  0.0425 -0.0357
16686SOL    HW151479   1.184   6.873   0.058 -1.7665 -0.4932  0.2919
16686SOL    HW251480   1.130   6.869   0.200  1.4110 -1.1180  1.5611
16687SOL     OW51481   5.433   3.400   1.785  0.0523 -0.4166 -0.1210
16687SOL    HW151482   5.348   3.390   1.829  1.2108 -0.6646  2.2224
16687SOL    HW251483   5.460   3.310   1.765 -0.1622 -0.3484 -0.7197
16688SOL     OW51484   1.827   8.015   3.809  0.8753  0.9692 -0.2008
16688SOL    HW151485   1.757   8.071   3.843 -1.5020 -0.5679 -2.2464
16688SOL    HW251486   1.838   8.043   3.718 -1.3291 -2.4915 -1.7333
16689SOL     OW51487   1.956   0.794   8.962 -0.6018  0.2584 -0.5088
16689SOL    HW151488   1.988   0.782   8.873 -0.4318 -1.8074 -0.2218
16689SOL    HW251489   1.974   0.711   9.006 -2.1462  0.6455  1.0004
16690SOL     OW51490   6.403   8.019   1.309  0.0149  0.2543 -0.0836
16690SOL    HW151491   6.390   7.927   1.329  1.3368 -0.0503 -0.5380
16690SOL    HW251492   6.324   8.045   1.260  0.3286 -1.0562 -1.3445
16691SOL     OW51493   1.755   0.331   6.323  0.0760 -0.0174  0.3028
16691SOL    HW151494   1.725   0.383   6.249  0.4623 -0.3660 -0.1033
16691SOL    HW251495   1.804   0.259   6.284 -1.3268 -1.2928  0.7848
16692SOL     OW51496   0.833   3.035   2.895 -0.3981 -0.3170  0.3694
16692SOL    HW151497   0.763   3.060   2.954 -0.9975 -1.0526 -0.0150
16692SOL    HW251498   0.789   3.015   2.812  0.4268  0.7436 -0.3551
16693SOL     OW51499   7.870   2.608   8.801  0.0078  0.2056  0.0637
16693SOL    HW151500   7.920   2.610   8.882  0.1146  0.9043 -0.0189
16693SOL    HW251501   7.920   2.549   8.744 -0.2608 -0.5798  0.6205
16694SOL     OW51502   6.039   8.102   6.578  0.1044  0.0419 -0.3026
16694SOL    HW151503   5.998   8.177   6.534 -1.2432 -0.3953  0.1545
16694SOL    HW251504   5.965   8.050   6.609  1.0261 -0.3147  1.3786
16695SOL     OW51505   3.269   8.162   7.000  0.1248 -0.0720  0.3800
16695SOL    HW151506   3.177   8.145   7.018  0.1508 -0.0074  0.5803
16695SOL    HW251507   3.300   8.083   6.955 -0.4153  0.5561 -1.1300
16696SOL     OW51508   0.147   6.217   2.159 -0.1703  0.6690  0.1215
16696SOL    HW151509   0.101   6.188   2.238 -0.3316  1.0912  0.1837
16696SOL    HW251510   0.219   6.270   2.192 -1.1374  2.1425 -0.0513
16697SOL     OW51511   3.830   5.956   1.623  0.2927 -0.2049  0.0061
16697SOL    HW151512   3.785   5.872   1.619 -0.1539 -0.0312  1.0370
16697SOL    HW251513   3.916   5.935   1.660  0.8128 -0.4353 -1.3012
16698SOL     OW51514   5.811   0.077   7.215  0.0021  0.8159  0.2481
16698SOL    HW151515   5.832  -0.010   7.248  0.9467  0.4108 -1.2850
16698SOL    HW251516   5.871   0.136   7.260  1.5918  0.2160 -0.9872
16699SOL     OW51517   6.149   1.725   2.201 -0.2511 -0.0494 -0.2524
16699SOL    HW151518   6.233   1.731   2.156 -0.0272 -1.3771 -0.0808
16699SOL    HW251519   6.172   1.718   2.294 -0.7156  2.8750  0.1791
16700SOL     OW51520   0.134   2.550   2.997  0.3876  0.4891 -0.2664
16700SOL    HW151521   0.049   2.578   3.032  0.1667 -0.3956 -0.0744
16700SOL    HW251522   0.197   2.573   3.066  0.0286 -0.6910  0.4785
16701SOL     OW51523   5.188   0.052   5.620 -0.1770  0.3997  0.0703
16701SOL    HW151524   5.241   0.098   5.556  0.7104 -0.8896 -0.1633
16701SOL    HW251525   5.107   0.031   5.573  0.6049 -0.8419 -0.7718
16702SOL     OW51526   7.013   2.939   5.174  0.0022  0.1685 -0.0514
16702SOL    HW151527   7.077   3.010   5.168 -1.0657  1.1524 -5.4456
16702SOL    HW251528   6.950   2.969   5.239  1.1546  2.7313  0.0230
16703SOL     OW51529   5.350   5.576   8.993 -0.3498  0.8610  0.0773
16703SOL    HW151530   5.384   5.623   8.917  1.9741 -0.0884  0.4514
16703SOL    HW251531   5.372   5.632   9.068 -1.0326  0.9541  0.2152
16704SOL     OW51532   6.382   8.206   4.048 -0.2329 -0.0556 -0.2412
16704SOL    HW151533   6.473   8.210   4.079  0.1218  1.1292 -1.3339
16704SOL    HW251534   6.390   8.209   3.952 -1.4597  2.3010 -0.3461
16705SOL     OW51535   1.369   6.237   7.293 -0.2888 -0.6394  0.0337
16705SOL    HW151536   1.419   6.309   7.254 -1.4301  0.2537  0.1831
16705SOL    HW251537   1.367   6.170   7.225 -0.4978  0.0788 -0.6829
16706SOL     OW51538   2.794   8.344   6.852 -0.2606 -0.5536  0.2117
16706SOL    HW151539   2.721   8.361   6.911 -0.2044 -0.1154  0.1582
16706SOL    HW251540   2.763   8.372   6.766  0.2208  0.3360  0.3126
16707SOL     OW51541   0.957   0.643   8.930  0.0907  0.2497 -0.0244
16707SOL    HW151542   0.975   0.737   8.923 -0.8770  0.5607  1.1942
16707SOL    HW251543   0.915   0.620   8.848 -2.0501  1.4938  0.6430
16708SOL     OW51544   3.012   3.070   1.118  0.0691  0.3071  0.3780
16708SOL    HW151545   2.928   3.082   1.073 -0.0420  0.6935  0.6798
16708SOL    HW251546   3.016   2.976   1.139  0.6647 -0.1209 -1.4825
16709SOL     OW51547   4.784   0.358   3.736 -0.5210 -0.3375 -0.3054
16709SOL    HW151548   4.766   0.283   3.794 -2.1465  1.0188  1.0496
16709SOL    HW251549   4.698   0.395   3.717  0.1235  0.2503 -2.3093
16710SOL     OW51550   5.749   0.796   0.868 -0.5113 -0.3578 -0.2450
16710SOL    HW151551   5.798   0.824   0.946 -1.0389 -0.0262 -0.0263
16710SOL    HW251552   5.665   0.840   0.875  0.6155  2.5362 -2.7908
16711SOL     OW51553   4.867   7.459   0.013  0.2801  0.4430 -0.2927
16711SOL    HW151554   4.921   7.408   0.073  0.6554  1.1813  0.0124
16711SOL    HW251555   4.871   7.412  -0.070 -1.8492 -1.7305  0.7068
16712SOL     OW51556   4.629   5.273   2.360 -0.1402 -0.2087  0.3423
16712SOL    HW151557   4.723   5.295   2.357 -0.0832 -0.3324 -2.8924
16712SOL    HW251558   4.589   5.345   2.409  1.5056  0.4202  0.8581
16713SOL     OW51559   6.324   2.921   3.777 -0.3896  0.0799  0.3820
16713SOL    HW151560   6.378   2.998   3.794  1.3535 -0.9481 -0.2194
16713SOL    HW251561   6.323   2.913   3.682 -0.5942 -0.6033  0.4328
16714SOL     OW51562   7.170   7.755   6.914  0.0067  0.0722  0.1546
16714SOL    HW151563   7.128   7.693   6.973  0.0865 -0.1891 -0.0591
16714SOL    HW251564   7.206   7.700   6.844  1.5177  0.1956  0.8019
16715SOL     OW51565   6.021   1.669   7.943 -0.1801  0.7981  0.1971
16715SOL    HW151566   6.024   1.574   7.956 -0.3309  0.7201 -0.3207
16715SOL    HW251567   5.965   1.681   7.866 -1.9696  1.4367  1.5244
16716SOL     OW51568   0.937   2.087   8.581  0.1055 -0.2175 -0.2007
16716SOL    HW151569   0.915   2.173   8.617  3.0844  0.8412 -0.6557
16716SOL    HW251570   0.871   2.028   8.617 -1.3340  2.0383  1.0641
16717SOL     OW51571   8.900   5.065   1.732  0.5892  0.2761  0.1140
16717SOL    HW151572   8.899   5.160   1.725 -2.6563  0.3350 -0.3107
16717SOL    HW251573   8.909   5.047   1.825 -0.6358  1.1135  0.4202
16718SOL     OW51574   0.189   5.637   9.143  0.5495 -0.1777 -0.2111
16718SOL    HW151575   0.136   5.602   9.215 -2.4456  1.3905 -1.4622
16718SOL    HW251576   0.259   5.686   9.185  0.0777 -0.9899  1.5883
16719SOL     OW51577   6.476   2.189   5.720 -0.3761  0.5826 -0.2611
16719SOL    HW151578   6.490   2.128   5.648  0.6172  0.1602  0.2718
16719SOL    HW251579   6.466   2.274   5.677  2.3134  0.6843 -0.8215
16720SOL     OW51580   0.324   6.264   8.356 -0.0205 -0.3831  0.2023
16720SOL    HW151581   0.239   6.219   8.356 -0.9241  1.2308 -0.2666
16720SOL    HW251582   0.345   6.275   8.449 -0.4540 -0.5874  0.3287
16721SOL     OW51583   2.808   7.597   0.438 -0.6344  0.1293 -0.1305
16721SOL    HW151584   2.873   7.568   0.503 -1.0212  0.4646  0.4174
16721SOL    HW251585   2.819   7.692   0.433  1.8474 -0.1513 -3.2342
16722SOL     OW51586   3.490   7.699   7.501 -0.5090 -0.6409 -0.5150
16722SOL    HW151587   3.573   7.659   7.475 -0.6839 -0.7024 -0.9868
16722SOL    HW251588   3.478   7.672   7.592  0.3363 -0.0499 -0.2234
16723SOL     OW51589   5.605   3.099   0.066  0.0888  0.2971 -0.1891
16723SOL    HW151590   5.603   3.195   0.071  2.3634  0.4252 -0.7120
16723SOL    HW251591   5.698   3.077   0.062 -0.3485 -2.0053  0.7502
16724SOL     OW51592   9.220   8.383   5.181 -0.0431  0.0706 -0.3998
16724SOL    HW151593   9.161   8.399   5.254 -0.7524 -1.8273 -0.5133
16724SOL    HW251594   9.308   8.379   5.220 -0.3669 -0.4734  0.2872
16725SOL     OW51595   4.933   4.798   5.708 -0.3435 -0.7603 -0.3012
16725SOL    HW151596   4.861   4.850   5.744  0.3596 -0.7923  1.2758
16725SOL    HW251597   4.937   4.720   5.764  0.3371 -1.1901 -0.9267
16726SOL     OW51598   8.720   4.064   5.967 -0.2019 -0.0109  0.4895
16726SOL    HW151599   8.762   4.149   5.980  1.6594 -0.5333 -1.5415
16726SOL    HW251600   8.744   4.013   6.044  0.4682  0.6261  0.7163
16727SOL     OW51601   1.740   0.462   0.038 -0.8145  0.2426  0.0893
16727SOL    HW151602   1.684   0.420   0.103  0.1863 -0.6461  0.4122
16727SOL    HW251603   1.723   0.414  -0.043 -0.1208 -0.4032  0.3177
16728SOL     OW51604   8.606   6.374   5.554 -0.3505 -0.1734  0.2869
16728SOL    HW151605   8.629   6.283   5.535  0.7331  0.0004  0.6642
16728SOL    HW251606   8.662   6.426   5.497 -1.4361  0.2664 -0.4073
16729SOL     OW51607   8.348   1.270   5.048  0.5726  0.3830  0.3202
16729SOL    HW151608   8.281   1.235   4.991  1.9994 -1.3704 -0.3745
16729SOL    HW251609   8.300   1.312   5.119 -1.2436 -0.8150 -0.1397
16730SOL     OW51610   8.328   1.474   6.256  0.4976 -0.4508 -0.6766
16730SOL    HW151611   8.358   1.564   6.251 -0.5437 -0.0158  0.3927
16730SOL    HW251612   8.272   1.463   6.180 -1.3464  0.6135  0.4631
16731SOL     OW51613   5.754   8.067   8.779  0.3666 -0.3202  0.1290
16731SOL    HW151614   5.674   8.108   8.746 -0.6951 -0.5638  2.2243
16731SOL    HW251615   5.724   8.007   8.847  2.3711  0.2531  1.6307
16732SOL     OW51616   3.205   8.357   1.052 -0.1674 -0.4216 -0.2875
16732SOL    HW151617   3.243   8.301   1.119 -0.4483  0.6299  0.7998
16732SOL    HW251618   3.205   8.304   0.973  2.0616 -1.0119  0.0371
16733SOL     OW51619   7.950   3.688   3.638  0.0589  0.0339 -0.1966
16733SOL    HW151620   7.966   3.777   3.608 -4.1356  1.4052  0.8946
16733SOL    HW251621   7.988   3.684   3.726 -1.6868  1.6538  0.6958
16734SOL     OW51622   6.225   0.745   2.912  0.2151  0.2688 -0.0463
16734SOL    HW151623   6.268   0.818   2.956  0.8206 -0.2513  0.2368
16734SOL    HW251624   6.295   0.681   2.897 -0.4670 -0.6275  0.4905
16735SOL     OW51625   8.794   0.042   7.218  0.4254 -0.6285  0.1255
16735SOL    HW151626   8.721   0.028   7.277  0.7969  1.4223  1.1539
16735SOL    HW251627   8.855  -0.030   7.237  0.5030 -0.0572  2.2017
16736SOL     OW51628   6.151   1.996   4.785 -0.4503 -0.0914  0.0185
16736SOL    HW151629   6.122   2.007   4.694  0.1451  1.8420  0.0057
16736SOL    HW251630   6.219   1.930   4.781 -1.0320 -0.6643 -0.8026
16737SOL     OW51631   3.085   8.387   6.841 -0.2584  0.5461 -0.0475
16737SOL    HW151632   3.075   8.472   6.799 -0.2336 -0.2887 -1.8155
16737SOL    HW251633   2.996   8.363   6.868 -0.5763  0.3029 -1.2575
16738SOL     OW51634   5.533   0.839   4.779  0.0638  0.3096  0.2371
16738SOL    HW151635   5.569   0.852   4.867  0.5532  0.6054 -0.0049
16738SOL    HW251636   5.597   0.879   4.720 -0.3481  0.2707 -0.2455
16739SOL     OW51637   6.957   3.597   5.408 -0.8427 -0.2287 -0.0940
16739SOL    HW151638   6.968   3.595   5.503  0.1667  0.5336 -0.1754
16739SOL    HW251639   6.999   3.517   5.377 -0.7201 -0.2259  0.0638
16740SOL     OW51640   6.033   1.087   8.618 -0.5406 -0.6211  0.3849
16740SOL    HW151641   5.974   1.097   8.692 -0.3944 -1.3948  0.6103
16740SOL    HW251642   6.116   1.057   8.656 -0.3655 -0.7070 -0.0507
16741SOL     OW51643   7.127   7.974   8.153 -0.2568  0.1813  0.0532
16741SOL    HW151644   7.219   7.994   8.169 -0.3558  2.4753 -1.7553
16741SOL    HW251645   7.129   7.888   8.109  1.0953  0.5110 -0.5868
16742SOL     OW51646   5.468   4.267   9.213 -0.5362 -0.0703 -0.4566
16742SOL    HW151647   5.475   4.279   9.119 -1.8966 -0.2082 -0.5982
16742SOL    HW251648   5.403   4.197   9.224 -1.2115  0.6848  0.5981
16743SOL     OW51649   4.896   6.406   5.665  0.2853  0.2180 -0.2306
16743SOL    HW151650   4.821   6.378   5.613  0.1615  0.2587 -0.0733
16743SOL    HW251651   4.909   6.337   5.729  2.0858 -1.1732 -1.9522
16744SOL     OW51652   2.642   5.721   2.029 -0.5467 -0.0743  0.3345
16744SOL    HW151653   2.633   5.812   2.003  0.3320 -0.0093  0.2448
16744SOL    HW251654   2.552   5.687   2.029 -1.0218  1.1280  1.6672
16745SOL     OW51655   4.783   7.961   0.158  0.6055  0.7510 -0.2495
16745SOL    HW151656   4.811   7.870   0.163  0.5486  0.5466 -2.5205
16745SOL    HW251657   4.708   7.967   0.217  0.6998 -0.6099  0.0466
16746SOL     OW51658   6.221   6.599   6.548 -0.2900 -0.4529  0.3112
16746SOL    HW151659   6.294   6.568   6.493 -1.8500 -1.3084 -1.3809
16746SOL    HW251660   6.145   6.552   6.515 -1.1981 -1.9743  4.0356
16747SOL     OW51661   1.282   5.987   0.793 -0.0819 -0.3072 -0.3264
16747SOL    HW151662   1.193   5.993   0.827  0.8879 -0.3280  2.5033
16747SOL    HW251663   1.326   5.925   0.852  1.7378 -0.5388 -1.8271
16748SOL     OW51664   1.894   0.902   7.615 -0.2557 -0.3049 -1.0821
16748SOL    HW151665   1.963   0.839   7.633  1.0468  1.8586  2.4795
16748SOL    HW251666   1.929   0.958   7.545  1.3944  0.3639  0.2294
16749SOL     OW51667   3.479   2.612   1.133  0.1862 -0.0286 -0.2107
16749SOL    HW151668   3.395   2.610   1.179 -0.2978  0.6117 -1.0473
16749SOL    HW251669   3.487   2.701   1.100  1.1476 -0.1137 -0.2446
16750SOL     OW51670   8.170   5.792   7.778  0.0583 -0.0939 -0.0227
16750SOL    HW151671   8.165   5.697   7.787 -1.2898 -0.0041  0.4066
16750SOL    HW251672   8.179   5.807   7.684 -1.0122 -0.6087 -0.2148
16751SOL     OW51673   6.240   4.743   0.587  0.2189  0.4324  0.4489
16751SOL    HW151674   6.226   4.803   0.514  2.8587  1.0375  0.3259
16751SOL    HW251675   6.165   4.684   0.585 -1.2420  2.2415 -0.9183
16752SOL     OW51676   5.384   8.132   0.566 -0.0080 -0.1112  0.0685
16752SOL    HW151677   5.366   8.204   0.626 -0.7267 -0.3583  0.1595
16752SOL    HW251678   5.343   8.158   0.483  3.0949  1.4048 -1.1769
16753SOL     OW51679   2.931   1.104   1.253 -0.3864 -0.5647  0.4351
16753SOL    HW151680   2.844   1.145   1.248  0.3372  1.0510  0.4246
16753SOL    HW251681   2.992   1.177   1.244  0.9909 -1.7770 -0.3884
16754SOL     OW51682   7.041   3.360   8.930 -0.7277 -0.0924 -0.7332
16754SOL    HW151683   7.041   3.326   9.020 -1.3422 -2.8822 -1.6727
16754SOL    HW251684   6.949   3.379   8.912 -0.6444  0.1761 -0.8758
16755SOL     OW51685   0.563   0.416   3.308  0.7966 -0.2126 -0.5413
16755SOL    HW151686   0.506   0.342   3.328  1.0454 -0.1743  0.3334
16755SOL    HW251687   0.574   0.413   3.213 -1.7383  0.5399 -0.9461
16756SOL     OW51688   0.220   0.301   6.598  0.0549 -0.8840  0.3049
16756SOL    HW151689   0.263   0.263   6.521  0.3756  1.0884 -0.5715
16756SOL    HW251690   0.198   0.390   6.571 -0.3736 -0.3289  2.3195
16757SOL     OW51691   7.681   5.341   4.490 -0.2319 -0.6442  0.4328
16757SOL    HW151692   7.622   5.416   4.496  1.5593  0.9150 -0.5122
16757SOL    HW251693   7.629   5.273   4.447 -1.1581  0.8666 -0.9174
16758SOL     OW51694   3.746   6.473   4.841 -0.1933 -0.4619 -0.0426
16758SOL    HW151695   3.788   6.559   4.844 -0.0114 -0.5644  0.3399
16758SOL    HW251696   3.657   6.491   4.811 -0.0862 -0.1689 -0.1906
16759SOL     OW51697   3.392   2.773   2.389 -0.6618 -0.0147  0.0534
16759SOL    HW151698   3.320   2.756   2.328 -1.3065  2.1837  0.1162
16759SOL    HW251699   3.428   2.858   2.361 -0.6035  0.7892  2.3464
16760SOL     OW51700   4.170   5.093   8.865  0.1931 -0.1623 -0.0689
16760SOL    HW151701   4.161   5.024   8.800 -0.8321 -0.3551  0.2551
16760SOL    HW251702   4.210   5.166   8.818 -1.6314  0.1363 -1.2551
16761SOL     OW51703   0.577   8.142   0.734  0.0170  0.3360 -0.0576
16761SOL    HW151704   0.483   8.130   0.751  0.0760  1.4748  1.2907
16761SOL    HW251705   0.581   8.185   0.649 -0.6387 -0.3203 -0.4344
16762SOL     OW51706   4.028   7.680   4.384 -0.0263 -0.3043  0.0255
16762SOL    HW151707   4.079   7.687   4.303 -0.6066 -0.8360 -0.3909
16762SOL    HW251708   4.088   7.712   4.452  1.2531 -1.8548 -0.2972
16763SOL     OW51709   1.477   2.501   5.815 -0.2409 -0.0161  0.5626
16763SOL    HW151710   1.488   2.534   5.904  1.4632  0.4556  0.2179
16763SOL    HW251711   1.482   2.406   5.823 -2.5313 -0.1284  1.2383
16764SOL     OW51712   3.485   0.922   7.609  0.0617 -0.4193 -0.5801
16764SOL    HW151713   3.404   0.973   7.611 -0.2305 -0.8057 -1.6814
16764SOL    HW251714   3.493   0.886   7.697 -1.0132 -0.4389 -0.4761
16765SOL     OW51715   1.556   3.030   2.420  0.1307  0.0948  0.3190
16765SOL    HW151716   1.619   2.960   2.434  0.7014  0.6861  0.7961
16765SOL    HW251717   1.603   3.110   2.445 -1.3283  0.3868  2.4225
16766SOL     OW51718   8.736   1.197   2.055 -0.6050 -0.2893 -0.2835
16766SOL    HW151719   8.653   1.150   2.046  0.1576 -1.5631 -0.9866
16766SOL    HW251720   8.792   1.139   2.106  0.2167  0.0355 -0.7770
16767SOL     OW51721   7.794   4.487   7.298  0.2566  0.0440 -0.0981
16767SOL    HW151722   7.717   4.487   7.355  0.7032  0.3876  0.5133
16767SOL    HW251723   7.796   4.400   7.259 -1.6399  0.6539 -1.7646
16768SOL     OW51724   7.236   3.592   2.045 -0.3350 -0.2465 -0.4769
16768SOL    HW151725   7.162   3.634   2.000  0.0292  0.1807 -0.6845
16768SOL    HW251726   7.309   3.652   2.032  0.0409 -0.6458 -0.2315
16769SOL     OW51727   0.678   9.174   2.651 -0.2922 -0.2584 -0.3995
16769SOL    HW151728   0.708   9.228   2.578  2.3905  0.2691  0.9568
16769SOL    HW251729   0.685   9.231   2.728 -2.3528 -1.0110  0.4230
16770SOL     OW51730   0.803   0.968   4.922  0.2913 -0.3830  0.2336
16770SOL    HW151731   0.718   0.997   4.955  0.0315 -1.0505  0.1771
16770SOL    HW251732   0.801   0.989   4.828  0.0001 -0.8070  0.1400
16771SOL     OW51733   3.356   8.200   3.081 -0.2458  0.4464  0.3920
16771SOL    HW151734   3.311   8.157   3.008 -1.9198  1.8032  0.5454
16771SOL    HW251735   3.368   8.291   3.051  1.8546  0.2909  0.6373
16772SOL     OW51736   5.694   2.553   7.357  0.3165  0.1586  0.2396
16772SOL    HW151737   5.606   2.574   7.390  0.2804  0.3423  0.0313
16772SOL    HW251738   5.680   2.483   7.293  0.0649  1.4835 -1.2435
16773SOL     OW51739   8.235   9.172   5.710 -0.0073 -0.0713 -0.0036
16773SOL    HW151740   8.259   9.256   5.751 -0.4581  0.0665 -0.0208
16773SOL    HW251741   8.160   9.141   5.761  1.2511 -1.3619  1.1895
16774SOL     OW51742   9.152   3.233   0.664 -0.2629  0.2350 -0.1889
16774SOL    HW151743   9.134   3.269   0.577  0.9968 -0.9692 -0.9989
16774SOL    HW251744   9.246   3.220   0.666 -0.4798 -1.5844  0.6002
16775SOL     OW51745   5.903   2.172   5.913 -1.0017  0.2603 -0.0780
16775SOL    HW151746   5.912   2.211   5.826 -2.4254  2.0069  0.4967
16775SOL    HW251747   5.849   2.094   5.899 -3.2538  1.8133 -0.5079
16776SOL     OW51748   7.551   7.234   0.537  0.2034  0.4416 -0.2963
16776SOL    HW151749   7.637   7.207   0.567 -0.4476  1.4423  2.8373
16776SOL    HW251750   7.513   7.155   0.499  1.9128 -0.4168 -0.3019
16777SOL     OW51751   4.946   2.518   4.171  0.3449  0.1975  0.4735
16777SOL    HW151752   4.974   2.501   4.261  0.4337 -1.0401  0.2179
16777SOL    HW251753   4.852   2.529   4.177  0.4033  0.5518  0.7770
16778SOL     OW51754   1.393   0.592   0.025 -0.4532 -0.1148  0.1998
16778SOL    HW151755   1.365   0.501   0.025 -0.8501 -0.0485 -2.1593
16778SOL    HW251756   1.320   0.640   0.063 -0.9024 -0.6165 -0.0171
16779SOL     OW51757   5.366   8.849   8.081 -0.4558  0.0112  0.0594
16779SOL    HW151758   5.386   8.936   8.116 -1.1716 -0.4400  1.6676
16779SOL    HW251759   5.290   8.863   8.025  0.6181  0.7247 -1.2684
16780SOL     OW51760   7.249   0.933   3.738  0.0288 -0.4963 -0.2718
16780SOL    HW151761   7.247   0.899   3.828  1.2697  1.3745  0.5338
16780SOL    HW251762   7.275   0.858   3.685 -0.6095 -1.6170  0.9321
16781SOL     OW51763   7.532   3.801   6.641 -0.0095 -0.5396 -0.2162
16781SOL    HW151764   7.437   3.800   6.653 -0.0279 -1.3674 -0.4044
16781SOL    HW251765   7.558   3.709   6.646  0.6142 -0.4467 -1.4278
16782SOL     OW51766   0.426   6.752   5.691 -0.1243 -0.0831 -0.0994
16782SOL    HW151767   0.353   6.714   5.741  0.5463  1.3201  2.0915
16782SOL    HW251768   0.495   6.686   5.696 -0.0016  0.1107  1.0469
16783SOL     OW51769   1.741   8.069   7.981 -0.3451 -0.6126 -0.3131
16783SOL    HW151770   1.771   8.145   8.032 -0.3050 -0.6663 -0.2559
16783SOL    HW251771   1.758   8.093   7.890 -0.0276 -0.6883 -0.2741
16784SOL     OW51772   3.848   8.049   1.609 -0.3735  0.4096 -0.2972
16784SOL    HW151773   3.788   8.110   1.651 -0.9122 -0.0764 -0.3434
16784SOL    HW251774   3.791   7.982   1.571  0.0019  1.3224 -2.6520
16785SOL     OW51775   0.354   1.962   2.645 -0.2040 -0.3091  0.1278
16785SOL    HW151776   0.421   1.899   2.670 -0.3014 -1.6104 -2.4841
16785SOL    HW251777   0.317   1.993   2.728  2.2009 -1.0744  1.5757
16786SOL     OW51778   8.885   8.003   9.006 -0.2120 -0.0141  0.1016
16786SOL    HW151779   8.896   7.949   9.084 -0.5303 -0.5283 -0.2124
16786SOL    HW251780   8.971   8.044   8.994 -0.4632  0.9771  1.3858
16787SOL     OW51781   3.753   0.048   3.946  0.3210  0.2533 -0.1334
16787SOL    HW151782   3.675   0.047   3.891  1.0832 -1.3899 -1.2992
16787SOL    HW251783   3.818   0.097   3.895  0.0501  1.7625  0.9017
16788SOL     OW51784   5.931   1.195   4.240  0.1439 -0.2968 -0.0232
16788SOL    HW151785   5.934   1.207   4.145  1.4498 -0.2012  0.0062
16788SOL    HW251786   6.022   1.177   4.264 -0.4293 -2.0651  0.9891
16789SOL     OW51787   8.142   0.282   2.350 -0.5208  0.0167 -0.5121
16789SOL    HW151788   8.166   0.374   2.353 -3.0178  0.8310 -2.1099
16789SOL    HW251789   8.199   0.240   2.414  0.1216  2.7864  0.8785
16790SOL     OW51790   3.386   6.996   7.661 -0.5586  0.2777  0.5092
16790SOL    HW151791   3.438   6.930   7.614  1.1432  0.0086  2.5990
16790SOL    HW251792   3.299   6.989   7.622  0.8471  0.6890 -3.1423
16791SOL     OW51793   1.156   5.484   3.184  0.1151 -0.5014 -0.0176
16791SOL    HW151794   1.116   5.401   3.157 -1.6650  0.0749  0.6691
16791SOL    HW251795   1.126   5.496   3.275  0.1019  1.0071 -0.1949
16792SOL     OW51796   8.614   4.824   3.291  0.2232 -0.4093  0.1359
16792SOL    HW151797   8.634   4.773   3.370  1.5192  0.7175  0.5710
16792SOL    HW251798   8.699   4.837   3.249 -0.3013  0.0665 -0.7919
16793SOL     OW51799   6.544   2.322   4.946 -0.0033 -0.1446 -0.2241
16793SOL    HW151800   6.459   2.342   4.985 -0.6716  0.8288 -2.0484
16793SOL    HW251801   6.549   2.379   4.868  2.1741 -0.4138 -0.3557
16794SOL     OW51802   5.475   3.264   8.607 -0.1043 -0.1705 -0.1526
16794SOL    HW151803   5.479   3.356   8.582 -1.4279  0.4792  1.8490
16794SOL    HW251804   5.426   3.222   8.536  0.7047  0.5960 -1.1869
16795SOL     OW51805   4.952   4.955   1.977  0.5950 -0.4586  0.3984
16795SOL    HW151806   4.937   4.975   1.885  0.0950 -1.3292  0.2775
16795SOL    HW251807   4.957   5.040   2.020  2.9520  0.0758 -0.7326
16796SOL     OW51808   2.096   3.414   8.242  0.0822 -0.0890  0.6015
16796SOL    HW151809   2.164   3.478   8.261  0.4391 -0.0574 -0.6595
16796SOL    HW251810   2.135   3.356   8.177 -0.2553 -1.5664  1.6654
16797SOL     OW51811   7.660   3.191   3.197 -0.3607 -0.5498 -0.3117
16797SOL    HW151812   7.571   3.161   3.178 -0.1151 -0.2586 -2.0148
16797SOL    HW251813   7.696   3.217   3.113  0.9438  0.4772  0.5198
16798SOL     OW51814   4.997   0.655   4.826  0.1156  0.0965  0.4032
16798SOL    HW151815   5.077   0.708   4.822 -0.9359  1.8095  0.9136
16798SOL    HW251816   4.956   0.667   4.740  0.1349 -0.3705  0.3226
16799SOL     OW51817   7.253   7.440   6.075  0.2343 -0.5297  0.4122
16799SOL    HW151818   7.338   7.474   6.048 -0.3059  0.5766 -0.0018
16799SOL    HW251819   7.190   7.485   6.018 -0.6121 -1.5435  0.4983
16800SOL     OW51820   1.201   1.846   4.127 -0.4432  0.5185  0.0097
16800SOL    HW151821   1.212   1.863   4.220  0.5429  2.0552 -0.3323
16800SOL    HW251822   1.159   1.925   4.093 -1.7849 -0.4595 -0.6954
16801SOL     OW51823   8.322   7.985   3.310 -0.4597 -0.1846  0.1404
16801SOL    HW151824   8.325   7.933   3.390 -0.4330 -0.5211 -0.0776
16801SOL    HW251825   8.396   7.954   3.258  1.1345  1.8203  1.0631
16802SOL     OW51826   3.297   3.913   8.208 -0.2244 -0.1354 -0.4658
16802SOL    HW151827   3.320   4.005   8.215 -1.5888  0.1063  1.5553
16802SOL    HW251828   3.205   3.909   8.232 -0.2659 -2.0102 -0.7743
16803SOL     OW51829   8.414   4.670   7.226 -0.3857 -0.5273  0.2417
16803SOL    HW151830   8.412   4.692   7.133 -0.7900  0.4309  0.4745
16803SOL    HW251831   8.393   4.576   7.228 -3.2836  0.0256 -0.4355
16804SOL     OW51832   5.052   2.097   4.291 -0.2798 -0.0041 -0.0940
16804SOL    HW151833   5.111   2.133   4.225  1.6591 -1.1663  0.9273
16804SOL    HW251834   4.991   2.042   4.241  1.0468 -0.7406 -0.9556
16805SOL     OW51835   1.961   4.623   3.974 -0.4441  0.5456  0.3857
16805SOL    HW151836   2.024   4.652   3.907 -1.1545 -0.1044 -0.5949
16805SOL    HW251837   1.876   4.653   3.942 -1.1018 -1.7340 -0.2188
16806SOL     OW51838   2.576   1.074   0.782  0.4352 -0.3089  0.1579
16806SOL    HW151839   2.492   1.120   0.782  1.1609  1.0541 -0.3061
16806SOL    HW251840   2.572   1.016   0.858 -0.9704 -0.3742  0.0568
16807SOL     OW51841   8.287   4.536   4.816  0.3438  0.0071 -0.5785
16807SOL    HW151842   8.290   4.607   4.751 -0.3425 -0.4401 -1.1131
16807SOL    HW251843   8.222   4.475   4.781 -1.1317  0.4492  1.2289
16808SOL     OW51844   0.018   2.475   8.026  0.3503  0.7851  0.2262
16808SOL    HW151845   0.016   2.509   7.936  1.6923  1.4433  0.4239
16808SOL    HW251846   0.096   2.420   8.029  0.1558  0.5352  0.9218
16809SOL     OW51847   0.694   8.004   6.072 -0.7662  0.5708 -0.7401
16809SOL    HW151848   0.687   7.914   6.102 -2.3658  0.4684 -1.3584
16809SOL    HW251849   0.665   8.057   6.146 -2.4494  0.4289 -1.2724
16810SOL     OW51850   4.836   3.534   8.274 -0.6287 -0.0493 -0.1999
16810SOL    HW151851   4.778   3.553   8.348 -3.4386 -0.3555 -2.1601
16810SOL    HW251852   4.893   3.465   8.306 -1.2770  0.2941  1.8825
16811SOL     OW51853   5.855   7.870   6.656 -0.5169  0.3272 -0.3726
16811SOL    HW151854   5.802   7.821   6.593 -0.0370 -0.6726 -0.0117
16811SOL    HW251855   5.792   7.908   6.716 -0.8638 -0.3077 -0.3320
16812SOL     OW51856   4.254   1.831   9.175  0.4137  0.2276 -0.0345
16812SOL    HW151857   4.196   1.872   9.240 -0.4457 -0.0960 -0.5851
16812SOL    HW251858   4.196   1.808   9.102  1.2181 -0.2123 -0.5456
16813SOL     OW51859   8.604   8.758   1.351  0.0637 -0.5396 -1.0372
16813SOL    HW151860   8.572   8.744   1.440 -1.5103  2.8646 -0.9037
16813SOL    HW251861   8.681   8.814   1.363  1.9635 -2.8613 -1.7444
16814SOL     OW51862   6.764   4.606   3.128 -0.2865  0.0582 -0.6922
16814SOL    HW151863   6.670   4.600   3.107 -0.5515 -0.2952  0.5403
16814SOL    HW251864   6.768   4.600   3.223  0.9569  0.6869 -0.6893
16815SOL     OW51865   3.676   0.525   5.313  0.3331  0.0593 -0.0394
16815SOL    HW151866   3.756   0.483   5.345  0.3880  0.5803  0.5304
16815SOL    HW251867   3.706   0.609   5.277  0.0283  0.3404  0.3483
16816SOL     OW51868   9.115   5.450   0.380  0.0259  0.0128 -0.2683
16816SOL    HW151869   9.094   5.544   0.383 -0.9213 -0.1843 -0.4638
16816SOL    HW251870   9.092   5.423   0.292  1.3239 -0.1913 -0.5633
16817SOL     OW51871   4.372   7.632   8.910  0.0303 -0.2833 -0.2474
16817SOL    HW151872   4.349   7.563   8.847 -0.2245 -1.3732  1.0061
16817SOL    HW251873   4.293   7.644   8.962  1.2648 -2.0167  2.2270
16818SOL     OW51874   0.333   0.971   9.034  0.4859  0.0652  0.0261
16818SOL    HW151875   0.244   0.963   8.999  0.2005  3.0867 -0.1981
16818SOL    HW251876   0.327   0.935   9.122 -1.2607  1.1099  0.3960
16819SOL     OW51877   8.467   0.890   7.655 -0.2165 -0.1212 -0.3106
16819SOL    HW151878   8.472   0.814   7.598  0.7461 -0.3923  0.1050
16819SOL    HW251879   8.421   0.859   7.733  0.6389 -0.4475  0.0831
16820SOL     OW51880   6.250   9.143   5.632  0.0087  0.5607  0.6653
16820SOL    HW151881   6.332   9.118   5.590 -0.2751 -1.4253  1.2071
16820SOL    HW251882   6.182   9.120   5.568 -0.1483  2.6244  0.0249
16821SOL     OW51883   0.730   1.283   7.105  0.5511 -0.0330 -0.4705
16821SOL    HW151884   0.793   1.211   7.097  0.8114 -0.0305  1.1198
16821SOL    HW251885   0.747   1.320   7.192 -0.3852  1.1885 -0.7801
16822SOL     OW51886   4.013   1.437   2.884  0.2866  0.0441  0.4896
16822SOL    HW151887   3.950   1.402   2.822  1.7576 -0.7632 -0.6212
16822SOL    HW251888   3.992   1.395   2.967 -0.0278 -0.9610 -0.0875
16823SOL     OW51889   7.319   7.769   5.833 -1.1002  0.0368  0.4401
16823SOL    HW151890   7.358   7.805   5.913 -2.2919  1.2898  0.5027
16823SOL    HW251891   7.378   7.797   5.763 -0.0551 -1.0567  0.8591
16824SOL     OW51892   3.406   4.652   6.104  0.1041  0.4285 -0.1450
16824SOL    HW151893   3.463   4.576   6.096 -1.1277 -0.4098 -1.4186
16824SOL    HW251894   3.445   4.717   6.046  0.7424  0.5209  0.3713
16825SOL     OW51895   0.480   2.195   7.709 -0.0515 -0.1569  0.0903
16825SOL    HW151896   0.528   2.259   7.762 -0.4982 -0.2211  0.5852
16825SOL    HW251897   0.489   2.113   7.756  1.1444 -0.6369 -0.9333
16826SOL     OW51898   6.944   0.700   6.706  0.5684 -0.0071 -0.3702
16826SOL    HW151899   7.001   0.636   6.664 -1.3087 -0.5909 -2.1582
16826SOL    HW251900   6.855   0.673   6.682 -0.3511  2.4574 -0.0075
16827SOL     OW51901   2.492   4.457   0.454  0.3314 -0.4707 -0.6108
16827SOL    HW151902   2.432   4.473   0.527  1.0671 -0.5219  0.0183
16827SOL    HW251903   2.541   4.539   0.446 -0.3385 -0.1541 -1.6266
16828SOL     OW51904   0.595   3.249   8.307 -0.5190 -0.3192  0.0381
16828SOL    HW151905   0.615   3.159   8.284  0.1324  0.1273 -1.2977
16828SOL    HW251906   0.501   3.258   8.289 -1.1380 -1.3232  2.4230
16829SOL     OW51907   6.814   2.832   0.118 -0.5906  0.0613  0.2336
16829SOL    HW151908   6.861   2.863   0.041  3.2563 -1.3991  1.7323
16829SOL    HW251909   6.776   2.749   0.092  0.0174 -0.0486 -0.3097
16830SOL     OW51910   4.551   9.000   4.900  0.2279 -0.7804 -0.8982
16830SOL    HW151911   4.610   8.939   4.944  0.1693 -0.0456  0.2631
16830SOL    HW251912   4.470   8.951   4.889  0.1680 -0.9227  0.0545
16831SOL     OW51913   1.013   4.426   8.736 -0.0968 -0.1061 -0.0370
16831SOL    HW151914   1.016   4.496   8.671 -1.5397  0.0288  0.0194
16831SOL    HW251915   1.011   4.345   8.684  0.6007 -0.0802 -0.1151
16832SOL     OW51916   3.558   5.439   7.045  0.8311 -0.0121  0.1714
16832SOL    HW151917   3.474   5.484   7.039  0.7963  0.0131  0.7449
16832SOL    HW251918   3.623   5.508   7.033  0.7704 -0.0080 -0.1322
16833SOL     OW51919   0.662   8.082   5.604  0.6389  0.8087  0.2484
16833SOL    HW151920   0.705   8.024   5.667 -0.9198 -0.4263  0.2135
16833SOL    HW251921   0.731   8.105   5.542  1.5312 -0.1823  0.8446
16834SOL     OW51922   0.836   5.134   2.278 -0.3209 -0.7037  0.4168
16834SOL    HW151923   0.857   5.121   2.185  2.4828  0.5594  0.7818
16834SOL    HW251924   0.818   5.046   2.311 -1.9089 -1.1321 -1.3603
16835SOL     OW51925   4.608   8.171   8.376 -0.5482 -0.3496  0.1175
16835SOL    HW151926   4.596   8.266   8.384 -1.1072 -0.4673  0.8180
16835SOL    HW251927   4.592   8.138   8.464 -0.6976 -1.1295 -0.1962
16836SOL     OW51928   7.001   7.167   0.747  0.0817  0.1413  0.6474
16836SOL    HW151929   6.932   7.102   0.757 -0.5276  0.7459  0.4444
16836SOL    HW251930   7.055   7.134   0.675 -0.8846  0.4329 -0.2215
16837SOL     OW51931   8.627   7.173   7.813 -0.0312  0.1374 -0.7244
16837SOL    HW151932   8.643   7.229   7.888 -2.5138  0.7023 -0.5270
16837SOL    HW251933   8.712   7.135   7.793  0.7888  0.2510  2.1118
16838SOL     OW51934   4.039   0.594   4.888  0.7509 -0.1950  0.4727
16838SOL    HW151935   3.992   0.674   4.912 -0.4522 -0.7385  0.0201
16838SOL    HW251936   4.131   0.615   4.905  0.6913  1.9182 -1.2671
16839SOL     OW51937   4.033   3.793   8.565 -0.0921 -0.2528 -0.2430
16839SOL    HW151938   3.991   3.829   8.643  1.9641  0.3336  0.6551
16839SOL    HW251939   4.010   3.701   8.565 -0.6817 -0.1186  0.6678
16840SOL     OW51940   7.752   1.193   5.302 -0.4832  0.5417  0.2528
16840SOL    HW151941   7.780   1.113   5.257 -0.6960  0.3465  0.4636
16840SOL    HW251942   7.720   1.163   5.387  1.1984  1.0293  1.1103
16841SOL     OW51943   2.698   5.211   4.275  0.9581  0.0844 -0.3381
16841SOL    HW151944   2.730   5.293   4.312  0.4982 -0.1233  0.5508
16841SOL    HW251945   2.603   5.225   4.267  0.3925 -1.3341  2.5530
16842SOL     OW51946   0.650   3.859   2.735  0.0137 -0.0188  0.5054
16842SOL    HW151947   0.682   3.825   2.818  0.2043  0.4031  0.6036
16842SOL    HW251948   0.591   3.930   2.759 -1.7632 -1.3814  0.3718
16843SOL     OW51949   6.736   7.919   2.797  0.0122  0.3556  0.3905
16843SOL    HW151950   6.691   7.980   2.856  0.7481  1.9653 -0.6596
16843SOL    HW251951   6.669   7.854   2.775 -0.7830  0.7287  1.5802
16844SOL     OW51952   2.981   4.820   8.052  0.2867  0.2313  0.2675
16844SOL    HW151953   3.051   4.850   7.994  0.4959 -1.7965 -0.6355
16844SOL    HW251954   2.940   4.900   8.084  0.3340  1.4465 -2.4594
16845SOL     OW51955   0.106   7.196   0.224  0.5699  0.3557  0.8772
16845SOL    HW151956   0.113   7.125   0.160  2.2894  0.3070  1.0600
16845SOL    HW251957   0.012   7.209   0.236  0.2199 -1.2107  0.0888
16846SOL     OW51958   7.875   0.409   2.647  0.2624  0.2358 -0.0528
16846SOL    HW151959   7.854   0.316   2.639  0.1740  0.2255  0.2848
16846SOL    HW251960   7.811   0.452   2.590  1.4987 -0.0307 -1.7212
16847SOL     OW51961   8.366   7.551   1.155 -0.5396 -0.2627 -0.5411
16847SOL    HW151962   8.451   7.523   1.120  0.9569  3.8693 -0.7654
16847SOL    HW251963   8.327   7.603   1.085 -2.9394 -1.2827 -0.0871
16848SOL     OW51964   1.345   2.631   8.966  0.1751 -0.9886 -0.2129
16848SOL    HW151965   1.349   2.681   8.884 -1.4482  0.3696  0.4856
16848SOL    HW251966   1.323   2.696   9.033  1.8243 -2.0081  1.4045
16849SOL     OW51967   2.893   2.909   2.919 -0.1036  0.2352 -0.3783
16849SOL    HW151968   2.863   2.890   3.008 -1.3283  0.6572 -0.6797
16849SOL    HW251969   2.989   2.907   2.924 -0.1663 -1.0739  0.6495
16850SOL     OW51970   0.205   8.948   4.446 -0.3687  0.0369 -0.4580
16850SOL    HW151971   0.186   8.890   4.520  1.2696  0.4128  0.3223
16850SOL    HW251972   0.290   8.917   4.414  0.6238  2.0552  0.0842
16851SOL     OW51973   7.095   0.608   1.050 -0.2271  0.6945  0.2722
16851SOL    HW151974   7.064   0.630   1.138  1.3029  2.4434  0.4431
16851SOL    HW251975   7.043   0.664   0.992  0.5170  1.4424  0.3092
16852SOL     OW51976   8.958   1.697   1.530 -0.1898  0.4090  0.2493
16852SOL    HW151977   8.978   1.625   1.590  1.0805  0.6584  0.1483
16852SOL    HW251978   8.964   1.659   1.443 -0.2135  0.4800  0.2159
16853SOL     OW51979   2.162   3.319   7.234 -0.2310 -0.6102 -0.2252
16853SOL    HW151980   2.165   3.334   7.328  1.4149 -2.6314  0.1244
16853SOL    HW251981   2.172   3.406   7.195 -0.6122  0.2211  1.4543
16854SOL     OW51982   9.114   3.471   6.034  0.0276  0.0158  0.9699
16854SOL    HW151983   9.188   3.432   6.081  2.3278 -0.4674 -2.6724
16854SOL    HW251984   9.154   3.535   5.975 -2.7193  1.1309  0.1636
16855SOL     OW51985   7.058   6.892   1.104 -0.1501  0.1223 -0.3358
16855SOL    HW151986   7.132   6.848   1.145 -1.0465  0.8867  2.2465
16855SOL    HW251987   7.054   6.978   1.145 -1.1185  0.9615 -2.0704
16856SOL     OW51988   3.952   6.427   9.038 -0.0175  0.3901 -0.1095
16856SOL    HW151989   3.976   6.340   9.070 -0.3719  0.5656  0.6711
16856SOL    HW251990   4.035   6.473   9.028  0.1371  0.1472  0.0510
16857SOL     OW51991   4.123   8.054   7.206 -0.1042  0.2884  0.7872
16857SOL    HW151992   4.074   8.134   7.226  2.3211  1.7465  1.3805
16857SOL    HW251993   4.184   8.045   7.279  1.5788 -0.5068 -0.6508
16858SOL     OW51994   0.502   7.850   2.918 -0.3425 -0.5305  0.0032
16858SOL    HW151995   0.504   7.762   2.956 -0.4194 -0.5267  0.0158
16858SOL    HW251996   0.417   7.885   2.943  0.1596  0.0004  0.9998
16859SOL     OW51997   9.249   5.277   2.097  0.1922  0.0690  0.0542
16859SOL    HW151998   9.227   5.196   2.050  1.4374 -1.2570  1.6385
16859SOL    HW251999   9.246   5.345   2.030  1.2027 -1.6192 -1.8110
16860SOL     OW52000   2.975   3.332   8.469 -0.4902 -0.5677  0.1002
16860SOL    HW152001   2.904   3.270   8.460 -1.7521  0.7325  0.7253
16860SOL    HW252002   2.933   3.418   8.472  1.2029  0.3809 -1.0254
16861SOL     OW52003   9.074   8.809   5.515 -0.1488  0.2120  0.5830
16861SOL    HW152004   9.125   8.873   5.465  1.1889 -1.2372  0.0147
16861SOL    HW252005   8.987   8.849   5.524  0.1019  1.2932 -1.3433
16862SOL     OW52006   2.655   3.419   3.857  0.0753 -0.0756 -0.0678
16862SOL    HW152007   2.591   3.490   3.865  0.0073  0.0308 -1.3723
16862SOL    HW252008   2.613   3.344   3.899 -0.4827  0.2641 -0.0085
16863SOL     OW52009   0.438   1.466   8.139  0.2822  0.5263  0.1072
16863SOL    HW152010   0.410   1.408   8.210 -2.5573 -0.6901 -1.7867
16863SOL    HW252011   0.446   1.407   8.063 -1.7752  2.3607 -1.6832
16864SOL     OW52012   1.759   4.064   2.453  0.0159  0.2498  0.0882
16864SOL    HW152013   1.688   4.025   2.505 -1.7987  0.3885 -2.1411
16864SOL    HW252014   1.813   3.989   2.427  0.3390  0.0598  1.2139
16865SOL     OW52015   0.481   8.451   8.976  0.0487 -0.7811  0.0506
16865SOL    HW152016   0.551   8.493   9.026 -0.2066 -0.8687  0.4842
16865SOL    HW252017   0.460   8.514   8.907 -1.1651  0.3850  1.3915
16866SOL     OW52018   3.792   6.001   9.118 -0.4281  0.3868 -0.0329
16866SOL    HW152019   3.875   6.040   9.144 -0.3439 -0.5487  1.1570
16866SOL    HW252020   3.816   5.928   9.061 -0.5175  0.9758 -0.8517
16867SOL     OW52021   8.281   2.742   5.014  0.1969 -0.2379 -0.2452
16867SOL    HW152022   8.330   2.772   5.090 -0.6929 -1.8938  1.0554
16867SOL    HW252023   8.193   2.776   5.028  0.0302 -0.5559 -0.5080
16868SOL     OW52024   2.947   3.042   2.553 -0.3113 -0.2884 -0.0514
16868SOL    HW152025   2.924   3.133   2.538 -1.4068 -0.7722 -1.5998
16868SOL    HW252026   3.042   3.040   2.549 -0.2613  0.8444  0.3846
16869SOL     OW52027   8.566   7.517   5.287  0.0829 -0.0756  0.2590
16869SOL    HW152028   8.594   7.446   5.229  1.8224  0.9619 -0.2634
16869SOL    HW252029   8.505   7.476   5.347  1.4846 -2.1768  0.3673
16870SOL     OW52030   6.245   2.563   0.366 -0.3400  0.8668 -0.4672
16870SOL    HW152031   6.172   2.623   0.378 -1.1544 -0.4170  1.4984
16870SOL    HW252032   6.209   2.489   0.318 -0.2680  0.3761  0.2177
16871SOL     OW52033   1.006   7.623   3.863 -0.2741 -0.1018 -0.0878
16871SOL    HW152034   0.927   7.574   3.887 -1.9867  1.3231 -2.4322
16871SOL    HW252035   1.051   7.567   3.801 -0.7454  0.1037 -0.6189
16872SOL     OW52036   2.889   0.342   1.353 -0.1875 -0.0468  0.0315
16872SOL    HW152037   2.810   0.384   1.389  0.7523  0.3742  1.6925
16872SOL    HW252038   2.898   0.381   1.266 -0.2376  2.0914  0.9056
16873SOL     OW52039   3.467   7.168   4.550  0.2835  0.0714  0.2512
16873SOL    HW152040   3.388   7.210   4.584  0.2709  1.6605 -1.5284
16873SOL    HW252041   3.449   7.075   4.556 -2.3452  0.3817 -1.2958
16874SOL     OW52042   9.006   3.578   2.016  0.5150  0.3651  0.3712
16874SOL    HW152043   9.056   3.496   2.020  0.2521  0.1536 -0.3482
16874SOL    HW252044   8.993   3.603   2.107 -1.9281 -1.9657  0.7893
16875SOL     OW52045   8.644   6.728   4.446  0.6052  0.1102  0.1134
16875SOL    HW152046   8.553   6.719   4.418 -0.0458 -0.8770  2.3151
16875SOL    HW252047   8.675   6.638   4.457  1.7601  0.4331 -0.2997
16876SOL     OW52048   6.799   0.444   3.949  0.6294 -0.5622  0.3881
16876SOL    HW152049   6.755   0.389   3.884  2.0104 -0.8975 -0.3052
16876SOL    HW252050   6.786   0.398   4.032  1.7413 -1.9881 -0.1744
16877SOL     OW52051   4.819   6.117   5.339 -0.0478  0.3430 -0.2147
16877SOL    HW152052   4.787   6.078   5.257  1.5155 -0.3997 -0.5026
16877SOL    HW252053   4.854   6.044   5.388  0.3460  0.9983  0.4965
16878SOL     OW52054   4.847   5.670   6.287  0.0216 -0.0878 -0.3242
16878SOL    HW152055   4.833   5.704   6.375  1.0319 -0.5582  0.0350
16878SOL    HW252056   4.871   5.579   6.300  2.0436  0.3131 -0.9285
16879SOL     OW52057   8.142   8.325   4.570  0.3662 -0.0331 -0.3397
16879SOL    HW152058   8.194   8.350   4.494  0.5590  2.0828  0.4030
16879SOL    HW252059   8.066   8.383   4.568  1.4007  1.6018  2.1295
16880SOL     OW52060   8.531   7.183   7.319 -0.2958  0.3841 -0.3078
16880SOL    HW152061   8.497   7.105   7.362 -0.1575  0.9506  0.8617
16880SOL    HW252062   8.589   7.223   7.384  0.0258  1.1897 -1.0710
16881SOL     OW52063   4.359   3.279   1.589  0.8623 -0.5547  0.2010
16881SOL    HW152064   4.390   3.190   1.607 -0.8289 -1.2322 -0.0679
16881SOL    HW252065   4.330   3.277   1.498  0.8965  0.3058  0.1600
16882SOL     OW52066   6.450   8.451   6.522  0.0076  0.0077 -0.8190
16882SOL    HW152067   6.521   8.512   6.543  0.1630  0.9612 -3.7614
16882SOL    HW252068   6.370   8.499   6.545  0.1989  0.1003 -0.3158
16883SOL     OW52069   2.975   7.926   0.946 -0.0233 -0.0718 -0.3111
16883SOL    HW152070   3.047   7.977   0.983  1.2573 -1.5637 -0.6509
16883SOL    HW252071   2.946   7.977   0.870  0.6727  0.5409 -0.1740
16884SOL     OW52072   3.197   5.422   1.380 -0.8907  0.5086 -0.2028
16884SOL    HW152073   3.278   5.401   1.426 -1.0432 -0.1525 -0.2348
16884SOL    HW252074   3.138   5.350   1.400 -0.7629 -0.1259 -1.9472
16885SOL     OW52075   1.664   6.249   2.404 -0.5002 -0.0511 -0.0621
16885SOL    HW152076   1.615   6.200   2.338  0.4353  1.9944 -2.4462
16885SOL    HW252077   1.597   6.302   2.448 -1.0830 -1.1835  0.4852
16886SOL     OW52078   2.374   8.534   3.110 -0.1874 -0.2089  0.1035
16886SOL    HW152079   2.412   8.462   3.159  1.1403  0.8045  0.5976
16886SOL    HW252080   2.432   8.546   3.035  0.0384  0.8402  0.4348
16887SOL     OW52081   1.602   7.759   8.870 -0.3645  0.1936 -0.3593
16887SOL    HW152082   1.586   7.748   8.777 -0.0679  0.6955 -0.4743
16887SOL    HW252083   1.687   7.719   8.886 -1.0509 -1.1826 -0.0218
16888SOL     OW52084   5.227   3.638   9.127 -0.3932  0.1589 -1.0654
16888SOL    HW152085   5.146   3.596   9.096 -0.6917  1.2253 -1.8055
16888SOL    HW252086   5.198   3.722   9.162  0.3906  0.5155 -1.2651
16889SOL     OW52087   8.010   3.301   5.623 -0.1011  0.1826  0.6979
16889SOL    HW152088   7.965   3.216   5.623 -2.9078  1.5676  0.1881
16889SOL    HW252089   8.035   3.315   5.714  0.3203 -1.1031  0.8128
16890SOL     OW52090   3.839   6.557   0.698  0.1109  0.1786 -0.2752
16890SOL    HW152091   3.776   6.523   0.761  0.1371  1.4457  0.4753
16890SOL    HW252092   3.906   6.489   0.691 -1.1963 -1.0840 -0.9108
16891SOL     OW52093   6.067   3.109   8.513  0.3620  0.1621 -0.1661
16891SOL    HW152094   6.077   3.021   8.550  1.4321  0.6204  0.7092
16891SOL    HW252095   5.979   3.136   8.537  0.6112 -0.0299  1.0534
16892SOL     OW52096   6.101   1.107   2.126 -0.6349 -0.2790  0.0632
16892SOL    HW152097   6.022   1.093   2.179  0.3295  0.7890  1.8940
16892SOL    HW252098   6.168   1.053   2.167 -0.0910 -0.1921 -0.6834
16893SOL     OW52099   2.890   7.742   5.163 -0.2559 -0.0665  0.5819
16893SOL    HW152100   2.932   7.658   5.146  0.2022 -0.0195  1.4284
16893SOL    HW252101   2.813   7.743   5.106  1.1782  0.0872 -1.4495
16894SOL     OW52102   7.487   0.864   2.313 -0.4220  0.7545 -0.2428
16894SOL    HW152103   7.531   0.937   2.355 -0.4285  0.7978 -0.3107
16894SOL    HW252104   7.430   0.827   2.381 -0.7566  1.0893 -0.3398
16895SOL     OW52105   2.655   1.691   3.860 -0.0234  0.6757  0.2536
16895SOL    HW152106   2.747   1.666   3.847 -0.2744 -0.4705  0.5672
16895SOL    HW252107   2.658   1.760   3.926  0.7446  2.0081 -1.0832
16896SOL     OW52108   9.193   2.772   5.326 -0.1722 -0.1568  0.6341
16896SOL    HW152109   9.112   2.796   5.281  0.1902 -0.5672 -0.2610
16896SOL    HW252110   9.206   2.841   5.391 -1.0384  0.1119  0.5303
16897SOL     OW52111   4.876   6.975   7.479  0.0202 -0.5078 -0.2466
16897SOL    HW152112   4.939   6.909   7.508  0.0694 -0.8179 -1.0303
16897SOL    HW252113   4.830   6.934   7.406 -0.2878  0.1461 -0.4311
16898SOL     OW52114   8.765   1.770   5.800 -0.2927 -0.2424 -0.0027
16898SOL    HW152115   8.832   1.768   5.868 -0.9153  0.5135  0.6542
16898SOL    HW252116   8.747   1.678   5.781  1.2765 -0.4670 -0.5576
16899SOL     OW52117   7.240   7.400   0.842 -0.2788  0.0680 -0.1333
16899SOL    HW152118   7.281   7.320   0.809 -0.5854  0.1747 -0.7896
16899SOL    HW252119   7.313   7.451   0.877 -0.3177 -1.4612  2.4221
16900SOL     OW52120   2.398   7.566   4.608 -0.7340 -0.3859 -0.1231
16900SOL    HW152121   2.425   7.656   4.590 -0.8996 -0.5492 -1.2287
16900SOL    HW252122   2.312   7.558   4.566 -1.9906 -0.2592  2.2433
16901SOL     OW52123   2.004   2.113   1.949 -0.0604  0.2459 -0.2773
16901SOL    HW152124   2.052   2.103   2.032  1.1190 -0.1690 -0.9908
16901SOL    HW252125   2.052   2.180   1.901 -0.4695  0.1541 -0.8222
16902SOL     OW52126   1.209   3.339   0.722 -0.3291 -0.3761  0.1043
16902SOL    HW152127   1.198   3.248   0.693  0.6888 -0.9503  1.4031
16902SOL    HW252128   1.302   3.346   0.744 -0.4896  0.8488  0.4612
16903SOL     OW52129   7.671   1.648   8.830 -0.3366  0.2838  0.3408
16903SOL    HW152130   7.751   1.667   8.879  0.5313 -0.7348 -0.6055
16903SOL    HW252131   7.679   1.555   8.806 -2.1431 -0.0378  0.8091
16904SOL     OW52132   8.241   1.416   4.323 -0.3159  0.3396  0.3478
16904SOL    HW152133   8.227   1.439   4.232 -0.4468  1.9802  0.7494
16904SOL    HW252134   8.173   1.352   4.343  0.1844 -0.6015 -0.8886
16905SOL     OW52135   7.591   6.391   8.430  0.1745  0.1893  0.0617
16905SOL    HW152136   7.638   6.425   8.354 -0.9507  0.4783 -0.5233
16905SOL    HW252137   7.657   6.340   8.478  1.1196  0.7204 -0.6353
16906SOL     OW52138   5.258   4.624   8.427 -0.4122  0.5052 -0.2209
16906SOL    HW152139   5.341   4.581   8.407 -0.6159  0.3158 -0.6593
16906SOL    HW252140   5.242   4.602   8.519  0.8522  1.9340  0.4025
16907SOL     OW52141   0.835   9.142   8.080 -0.3247 -0.0847  0.6685
16907SOL    HW152142   0.885   9.130   8.160  0.3868  1.5279  0.4925
16907SOL    HW252143   0.876   9.083   8.017 -0.0173 -0.3414  1.1021
16908SOL     OW52144   7.360   6.050   8.955 -0.2416 -0.2140 -0.2421
16908SOL    HW152145   7.394   5.978   9.008  0.1497  1.6467  2.1574
16908SOL    HW252146   7.328   6.007   8.875 -0.7975 -3.1413  1.4214
16909SOL     OW52147   0.108   8.286   4.842  0.7561 -0.3889 -0.3622
16909SOL    HW152148   0.132   8.270   4.751 -2.8288  1.1010 -1.7447
16909SOL    HW252149   0.041   8.355   4.838 -0.5922 -1.2370  3.2674
16910SOL     OW52150   3.794   1.669   3.574  0.1748 -0.5040 -0.0889
16910SOL    HW152151   3.823   1.583   3.605 -1.5849 -2.3318 -3.0297
16910SOL    HW252152   3.874   1.715   3.551  1.1177 -1.6464  0.7884
16911SOL     OW52153   8.325   2.035   8.597  0.3609  0.4663  0.1264
16911SOL    HW152154   8.366   2.113   8.561  0.2586  0.7106  0.5351
16911SOL    HW252155   8.238   2.064   8.625  0.3476  0.2230  0.3414
16912SOL     OW52156   1.746   9.095   5.896 -0.0707 -0.7623  0.6128
16912SOL    HW152157   1.720   9.134   5.979  1.1924 -0.4485  0.8751
16912SOL    HW252158   1.665   9.092   5.844 -0.1962  2.4573  0.4569
16913SOL     OW52159   7.515   4.738   1.450  0.1837 -0.0642  0.0477
16913SOL    HW152160   7.561   4.659   1.478  0.3924  0.4239  1.1033
16913SOL    HW252161   7.573   4.810   1.475  0.0559  0.4398 -1.0206
16914SOL     OW52162   3.721   2.172   2.982 -0.5022 -0.6959 -0.9076
16914SOL    HW152163   3.811   2.153   2.958 -0.0083 -0.1249  0.4310
16914SOL    HW252164   3.716   2.153   3.075 -0.4805  3.6095  0.1491
16915SOL     OW52165   1.479   1.372   5.504 -0.0361 -0.5469  0.3290
16915SOL    HW152166   1.404   1.348   5.449 -0.6221  1.6131  0.1096
16915SOL    HW252167   1.517   1.449   5.462  2.0455 -1.2937  0.7271
16916SOL     OW52168   0.688   8.826   4.536 -0.0404 -0.7235  0.2320
16916SOL    HW152169   0.773   8.834   4.493  0.3429  3.6844  1.3202
16916SOL    HW252170   0.627   8.802   4.466  1.6877 -1.4483 -1.0852
16917SOL     OW52171   4.312   4.487   6.362 -0.3253  0.3262  0.3107
16917SOL    HW152172   4.250   4.426   6.401 -1.6148  2.0478  1.1137
16917SOL    HW252173   4.258   4.563   6.338  1.1768  1.0872 -0.7877
16918SOL     OW52174   6.524   0.879   0.162 -0.4041  0.0666 -0.2693
16918SOL    HW152175   6.479   0.808   0.115 -0.5824  1.1942 -1.8544
16918SOL    HW252176   6.469   0.956   0.148  0.6719  0.9018 -0.0282
16919SOL     OW52177   5.790   5.997   0.311  0.2944  0.0332 -0.6959
16919SOL    HW152178   5.859   5.981   0.376  0.2041  1.1295 -0.3029
16919SOL    HW252179   5.728   5.925   0.323 -0.0459  0.5462  0.8899
16920SOL     OW52180   2.629   5.232   8.449 -0.0183  0.2792 -0.3409
16920SOL    HW152181   2.556   5.192   8.402  0.0404  1.0088 -1.0929
16920SOL    HW252182   2.685   5.268   8.380  0.8113  0.1391  0.2414
16921SOL     OW52183   6.204   3.167   1.793 -0.3415  0.4603  0.0261
16921SOL    HW152184   6.292   3.160   1.830 -0.5592 -0.1741  0.4521
16921SOL    HW252185   6.196   3.090   1.736 -0.5599  0.6131 -0.1535
16922SOL     OW52186   4.073   5.661   5.441  0.4674 -0.1849 -0.0177
16922SOL    HW152187   3.994   5.626   5.482  1.5666  0.5797  3.0285
16922SOL    HW252188   4.135   5.671   5.513  3.2188 -0.2895 -2.1961
16923SOL     OW52189   8.962   4.091   3.476  1.0265  0.2843 -0.7672
16923SOL    HW152190   8.922   4.052   3.399  0.7799  0.7267 -0.8649
16923SOL    HW252191   9.012   4.165   3.442  1.0259  0.4007 -0.5179
16924SOL     OW52192   4.851   6.214   4.004 -0.8176 -0.2645  1.2266
16924SOL    HW152193   4.803   6.296   3.993 -1.0914 -0.6549 -1.1058
16924SOL    HW252194   4.896   6.222   4.088  0.6300  3.0526  0.2726
16925SOL     OW52195   9.203   9.155   6.366  0.3927 -0.0411 -0.3400
16925SOL    HW152196   9.139   9.152   6.437 -0.9734 -0.1289 -1.5374
16925SOL    HW252197   9.202   9.246   6.336  0.8911 -0.0224 -0.3108
16926SOL     OW52198   3.654   8.477   4.736 -0.5969 -0.1005  0.0410
16926SOL    HW152199   3.604   8.558   4.751 -0.3719 -0.2365  1.7743
16926SOL    HW252200   3.659   8.469   4.641 -1.1848  1.5828 -0.1711
16927SOL     OW52201   9.051   8.146   2.559  0.7494 -0.3740 -0.5184
16927SOL    HW152202   9.006   8.187   2.485 -0.2254  0.4149  0.4846
16927SOL    HW252203   8.987   8.087   2.597  1.3559 -1.0278 -0.4954
16928SOL     OW52204   0.737   0.288   1.563 -0.0954 -0.4618  0.9395
16928SOL    HW152205   0.679   0.229   1.611 -2.6949 -0.2641 -1.7047
16928SOL    HW252206   0.702   0.376   1.581 -0.2600 -0.2876 -0.1315
16929SOL     OW52207   2.276   0.488   4.274  0.6885  0.2382  0.2532
16929SOL    HW152208   2.204   0.540   4.238  1.0124  1.2422  1.0162
16929SOL    HW252209   2.244   0.459   4.360  0.3772 -1.1450 -0.2984
16930SOL     OW52210   3.387   3.706   3.414  0.0392 -0.0882 -0.5951
16930SOL    HW152211   3.375   3.628   3.469 -0.4955 -0.5505 -1.3450
16930SOL    HW252212   3.420   3.772   3.474 -0.3273 -0.6407  0.2469
16931SOL     OW52213   3.423   1.033   2.903  0.1927 -0.1097  0.1478
16931SOL    HW152214   3.371   1.077   2.971 -0.5921  0.6171 -0.8723
16931SOL    HW252215   3.358   0.999   2.842  0.8778 -0.9279 -0.1435
16932SOL     OW52216   2.801   6.272   0.582 -0.2615  0.4964  0.2758
16932SOL    HW152217   2.820   6.207   0.649 -1.5471  0.5046  0.6671
16932SOL    HW252218   2.752   6.341   0.628 -1.4950  0.3216 -0.7170
16933SOL     OW52219   2.684   5.297   8.171 -0.2002  0.2054  0.0646
16933SOL    HW152220   2.738   5.257   8.103  0.3872  1.4280 -0.2244
16933SOL    HW252221   2.597   5.304   8.132  0.1251  0.8655 -0.5792
16934SOL     OW52222   3.006   7.548   4.038  0.0728 -0.0324  0.2360
16934SOL    HW152223   3.053   7.585   4.112 -1.9420  1.4139  0.8694
16934SOL    HW252224   3.051   7.583   3.961 -0.8139  2.5894  0.8210
16935SOL     OW52225   2.047   5.758   8.810 -0.4720  0.2820  0.2550
16935SOL    HW152226   2.085   5.792   8.891 -2.2670 -0.1421  1.3306
16935SOL    HW252227   1.972   5.815   8.793  0.0633  0.5732 -1.3329
16936SOL     OW52228   5.913   0.870   4.127 -0.3636  0.5050  0.4137
16936SOL    HW152229   5.998   0.913   4.120 -0.1561  0.2224  1.1184
16936SOL    HW252230   5.933   0.777   4.122 -0.6377  0.4388  0.5208
16937SOL     OW52231   8.046   6.566   6.405  0.3199 -0.1682 -0.3916
16937SOL    HW152232   8.125   6.601   6.365  0.6683 -0.3593  0.1221
16937SOL    HW252233   8.077   6.507   6.474 -0.2646  0.2299  0.2299
16938SOL     OW52234   6.018   7.776   3.771 -0.2674 -0.1959  0.3968
16938SOL    HW152235   5.946   7.838   3.779  0.1984  0.2583  1.2789
16938SOL    HW252236   6.046   7.782   3.680 -1.1543 -0.1739  0.1164
16939SOL     OW52237   3.854   0.537   1.047  0.1589  0.1331 -0.0361
16939SOL    HW152238   3.759   0.527   1.041 -0.0001  0.5130  1.3396
16939SOL    HW252239   3.869   0.631   1.052  0.4023  0.0369  1.8883
16940SOL     OW52240   8.605   4.968   1.568 -0.4160 -0.3472  0.3711
16940SOL    HW152241   8.691   4.926   1.582 -0.4782 -0.9302 -0.8142
16940SOL    HW252242   8.611   5.050   1.616  0.5976 -0.6424  0.7972
16941SOL     OW52243   6.852   7.417   8.435  0.7183 -0.3864  0.1072
16941SOL    HW152244   6.829   7.491   8.491 -0.2165 -0.8758  0.3954
16941SOL    HW252245   6.947   7.423   8.425  0.5727  1.2759 -0.4997
16942SOL     OW52246   7.311   0.050   8.069  0.0737 -0.0895 -0.6718
16942SOL    HW152247   7.390   0.032   8.120  0.0397  0.3657 -0.4489
16942SOL    HW252248   7.264  -0.033   8.066 -1.0166  0.3517  1.9415
16943SOL     OW52249   6.409   3.885   4.971 -0.1356 -0.8458  0.3206
16943SOL    HW152250   6.462   3.873   4.892 -0.1812  0.7468  0.0113
16943SOL    HW252251   6.473   3.897   5.041 -0.0887 -0.9851  0.3018
16944SOL     OW52252   5.356   3.286   0.811  0.2382  0.0406 -0.4969
16944SOL    HW152253   5.348   3.203   0.765 -0.2587  0.8262 -1.9011
16944SOL    HW252254   5.359   3.262   0.903 -0.1700 -1.5122 -0.8528
16945SOL     OW52255   9.260   8.114   8.708  0.0416 -0.2939 -0.1044
16945SOL    HW152256   9.218   8.041   8.752 -1.1197  0.6596  0.4172
16945SOL    HW252257   9.191   8.155   8.656  0.7669  0.1949 -0.7214
16946SOL     OW52258   4.492   4.319   6.238 -0.3521 -0.0714  0.1027
16946SOL    HW152259   4.447   4.395   6.274  0.2999 -0.5395  1.9941
16946SOL    HW252260   4.578   4.352   6.212 -0.8805  0.3020 -1.2814
16947SOL     OW52261   7.617   4.307   9.174 -0.6375  0.3161  0.3230
16947SOL    HW152262   7.689   4.354   9.131 -0.1312  0.3329  1.1737
16947SOL    HW252263   7.582   4.249   9.105  0.8642 -0.4530  0.1638
16948SOL     OW52264   4.234   3.895   0.648  0.0493 -0.2435  0.1843
16948SOL    HW152265   4.328   3.876   0.651 -0.0161 -0.4442  1.2472
16948SOL    HW252266   4.214   3.930   0.734 -1.0560 -1.1470  0.3134
16949SOL     OW52267   5.239   6.031   7.006 -0.2544  0.1584  0.1709
16949SOL    HW152268   5.281   5.947   7.020 -0.2330  0.2320  0.5688
16949SOL    HW252269   5.232   6.040   6.911 -0.1442 -0.2340  0.1269
16950SOL     OW52270   5.969   0.002   7.957  0.2611  0.0207  0.1567
16950SOL    HW152271   6.026  -0.064   7.996  1.5249  1.5005  0.9051
16950SOL    HW252272   5.892   0.004   8.014  0.8903  0.2548  1.0149
16951SOL     OW52273   1.475   4.737   5.885  0.1226 -0.4644 -0.3790
16951SOL    HW152274   1.424   4.818   5.896  0.7512 -0.2359  1.0954
16951SOL    HW252275   1.420   4.682   5.829 -0.0462  1.1985 -1.9813
16952SOL     OW52276   4.057   0.854   2.914 -0.1879  0.7768  0.4857
16952SOL    HW152277   4.010   0.926   2.872 -1.2791 -0.0277  0.2645
16952SOL    HW252278   4.004   0.833   2.991  0.2691  0.3978  0.7044
16953SOL     OW52279   5.595   5.370   8.984 -0.0249 -0.1254  0.0439
16953SOL    HW152280   5.638   5.315   8.919 -0.5259 -0.6352  0.1340
16953SOL    HW252281   5.505   5.378   8.952 -0.0778  0.2569  0.2775
16954SOL     OW52282   3.153   2.949   7.764  0.2918  0.7761  0.3517
16954SOL    HW152283   3.203   3.029   7.746 -0.8793  1.4827  0.1802
16954SOL    HW252284   3.146   2.947   7.859  3.2194 -0.9633  0.6742
16955SOL     OW52285   2.157   7.676   7.897  0.1061 -0.1552  0.7106
16955SOL    HW152286   2.125   7.586   7.910 -1.6412  0.4555  1.0012
16955SOL    HW252287   2.094   7.714   7.835  1.8115  0.3801 -0.7686
16956SOL     OW52288   4.193   6.519   0.736  0.3073  0.4032  0.3187
16956SOL    HW152289   4.219   6.573   0.810  0.5273  0.9755 -0.1637
16956SOL    HW252290   4.214   6.572   0.659 -1.3502  0.4654 -0.1154
16957SOL     OW52291   2.404   8.441   5.665  1.1576  0.5206 -0.4833
16957SOL    HW152292   2.398   8.415   5.573 -2.8186 -0.3549 -0.1720
16957SOL    HW252293   2.423   8.360   5.712 -0.6759  0.1515 -0.3130
16958SOL     OW52294   1.519   8.401   1.644 -0.2547 -0.3480 -0.0610
16958SOL    HW152295   1.553   8.395   1.734 -0.8943  0.2815  0.2292
16958SOL    HW252296   1.545   8.319   1.603 -0.7739 -1.0564  0.9890
16959SOL     OW52297   6.603   1.238   4.992  0.1194 -0.4815 -0.1886
16959SOL    HW152298   6.678   1.297   4.998  0.2988 -0.7174 -0.1540
16959SOL    HW252299   6.565   1.257   4.906  0.2565 -0.4135 -0.2342
16960SOL     OW52300   3.698   5.213   7.943  0.0250 -0.3766  0.7405
16960SOL    HW152301   3.736   5.294   7.911  1.3013 -1.3837 -0.4232
16960SOL    HW252302   3.675   5.231   8.034 -0.3346  1.4638  0.3124
16961SOL     OW52303   5.236   3.113   0.012 -0.4762 -0.1451  0.4590
16961SOL    HW152304   5.278   3.159  -0.061  0.6638  0.3127  1.3832
16961SOL    HW252305   5.228   3.178   0.081  2.2091 -1.5001  2.2214
16962SOL     OW52306   0.618   7.021   1.059  0.6254 -0.5830  0.4581
16962SOL    HW152307   0.540   6.973   1.088  0.5332 -0.9410 -0.3681
16962SOL    HW252308   0.689   6.958   1.070  0.2453 -1.6731 -2.4644
16963SOL     OW52309   2.038   2.193   0.165  0.3763 -0.1130 -0.3090
16963SOL    HW152310   1.980   2.120   0.146  2.2361 -2.2842  1.6513
16963SOL    HW252311   2.115   2.177   0.110  0.4232  0.8933 -0.5423
16964SOL     OW52312   3.013   4.301   4.379  0.4532 -0.3251  0.5323
16964SOL    HW152313   3.006   4.376   4.320  0.8877  0.8139  1.8588
16964SOL    HW252314   3.062   4.235   4.330  1.5481  0.9179 -0.0883
16965SOL     OW52315   1.208   4.582   9.189  0.1446  0.8684  0.2576
16965SOL    HW152316   1.279   4.547   9.135 -0.2747  1.1282 -0.4674
16965SOL    HW252317   1.177   4.659   9.141 -1.1333  0.3273  0.1837
16966SOL     OW52318   8.525   4.364   7.453  0.1934  0.0289  0.1502
16966SOL    HW152319   8.553   4.273   7.465 -0.1345 -0.0090  0.6870
16966SOL    HW252320   8.430   4.360   7.455  0.0958  0.1135 -1.9939
16967SOL     OW52321   6.160   9.037   8.049  0.1647 -0.4714  0.0449
16967SOL    HW152322   6.161   9.075   8.137  0.5417 -0.1719 -0.0858
16967SOL    HW252323   6.156   8.943   8.064  0.8065 -0.4534  0.3949
16968SOL     OW52324   0.280   4.129   3.181  0.3007 -0.4246 -0.5871
16968SOL    HW152325   0.240   4.046   3.157 -0.1098 -0.3201 -0.2744
16968SOL    HW252326   0.258   4.141   3.273  0.0083  0.2265 -0.7331
16969SOL     OW52327   1.414   8.837   7.542  0.2709  0.2983  0.2067
16969SOL    HW152328   1.364   8.756   7.553  1.1558 -0.3310 -0.2486
16969SOL    HW252329   1.353   8.898   7.500 -0.9321  0.4396  2.0702
16970SOL     OW52330   0.660   7.777   1.275  0.3106 -0.3032  0.7476
16970SOL    HW152331   0.652   7.830   1.195  0.1739  1.5968  1.9669
16970SOL    HW252332   0.581   7.723   1.276  0.3755 -0.4504 -0.4574
16971SOL     OW52333   2.324   2.897   7.292 -0.1151 -0.0265  0.1700
16971SOL    HW152334   2.321   2.812   7.336 -1.7529 -0.8164 -1.3295
16971SOL    HW252335   2.308   2.960   7.362 -0.6069 -1.0888  1.0544
16972SOL     OW52336   3.790   1.906   0.752  0.4015 -0.3352 -0.2112
16972SOL    HW152337   3.754   1.983   0.708 -2.6525 -0.4639  1.7488
16972SOL    HW252338   3.749   1.832   0.707  0.3149 -0.6248  0.3358
16973SOL     OW52339   2.571   5.625   5.755  0.2165  0.2464  0.0899
16973SOL    HW152340   2.528   5.574   5.823  0.2188  0.1782  0.0411
16973SOL    HW252341   2.510   5.695   5.734  0.2199  0.2726  0.1679
16974SOL     OW52342   7.905   4.752   6.116 -0.3273  0.1009  0.2874
16974SOL    HW152343   7.832   4.771   6.057  1.1844  1.8228 -1.1214
16974SOL    HW252344   7.939   4.838   6.140  1.1166 -0.6615  1.0745
16975SOL     OW52345   4.377   7.741   0.519  0.2372 -0.4899 -0.3698
16975SOL    HW152346   4.467   7.746   0.551  0.4161  3.0641 -0.9875
16975SOL    HW252347   4.340   7.827   0.540 -2.6287 -1.3996 -1.2763
16976SOL     OW52348   7.889   8.982   4.437  0.2910 -0.2326  0.5316
16976SOL    HW152349   7.854   9.065   4.468 -1.0463 -0.9701  1.1215
16976SOL    HW252350   7.851   8.917   4.496  0.1667 -1.3928 -0.7735
16977SOL     OW52351   1.518   0.432   5.071  0.0430  0.3424 -0.1476
16977SOL    HW152352   1.489   0.519   5.043 -2.0192 -0.2917 -0.1568
16977SOL    HW252353   1.576   0.402   5.001 -0.7926  0.9425 -1.1199
16978SOL     OW52354   7.487   6.342   6.166 -0.4655  0.6307 -0.5760
16978SOL    HW152355   7.400   6.349   6.205 -0.4252  0.8718 -0.5296
16978SOL    HW252356   7.475   6.284   6.091 -0.5279  0.0988 -0.1631
16979SOL     OW52357   8.743   2.939   8.653  0.6204 -0.4916  0.0400
16979SOL    HW152358   8.699   2.971   8.575  1.3433 -0.6436 -0.4467
16979SOL    HW252359   8.751   2.844   8.639  1.5644 -0.3976 -0.1375
16980SOL     OW52360   2.825   2.781   3.788 -0.2647  0.1620 -0.2519
16980SOL    HW152361   2.739   2.815   3.762  0.5093  1.3747 -1.3268
16980SOL    HW252362   2.855   2.842   3.856 -0.0455  0.0297 -0.2308
16981SOL     OW52363   7.309   3.115   3.867  0.2099 -0.3467 -0.1933
16981SOL    HW152364   7.234   3.146   3.918  1.2982 -1.7268  2.4077
16981SOL    HW252365   7.276   3.110   3.777 -1.7650  2.3061  0.2660
16982SOL     OW52366   8.151   8.677   4.628 -0.2424 -0.0108  0.6426
16982SOL    HW152367   8.164   8.761   4.672 -0.2014 -0.7316  2.0517
16982SOL    HW252368   8.236   8.633   4.635 -0.8379 -1.0232  1.8022
16983SOL     OW52369   5.045   7.411   1.678 -0.3154 -0.0466 -0.0788
16983SOL    HW152370   5.108   7.466   1.632 -0.0950 -0.9359 -0.8742
16983SOL    HW252371   5.022   7.461   1.756  0.3010  0.9149 -0.4920
16984SOL     OW52372   6.934   2.683   4.603  0.8070 -0.5303  0.0485
16984SOL    HW152373   6.981   2.610   4.643  0.1853 -0.4908  0.8636
16984SOL    HW252374   6.904   2.736   4.677 -0.6639 -0.6410 -0.4323
16985SOL     OW52375   0.311   0.268   7.053  0.3021 -0.1688 -0.2315
16985SOL    HW152376   0.310   0.212   6.976 -0.3938 -1.2967  0.5717
16985SOL    HW252377   0.284   0.211   7.125  0.9722  0.8436  0.8654
16986SOL     OW52378   9.033   0.855   3.556  0.5331 -0.1674 -0.0556
16986SOL    HW152379   9.001   0.941   3.529  2.7946  1.0476  0.8579
16986SOL    HW252380   9.129   0.862   3.549  0.9097 -1.7757  2.3609
16987SOL     OW52381   3.791   6.561   3.097 -0.0588 -0.2931 -0.0082
16987SOL    HW152382   3.816   6.654   3.093 -0.5921 -0.0270  2.0026
16987SOL    HW252383   3.696   6.562   3.109 -0.3360 -1.1826 -1.8053
16988SOL     OW52384   4.755   1.618   1.609  0.3794 -0.2558  0.3646
16988SOL    HW152385   4.786   1.653   1.525  1.5780 -1.8625  0.0878
16988SOL    HW252386   4.822   1.643   1.672 -0.4731  0.8662  0.8742
16989SOL     OW52387   8.244   2.908   8.966 -0.5895  0.1645 -0.4739
16989SOL    HW152388   8.330   2.876   8.940 -1.1802 -1.8457 -0.1029
16989SOL    HW252389   8.225   2.979   8.903  1.1717  0.4458 -0.7433
16990SOL     OW52390   3.056   0.447   1.965 -0.3734  0.1285  0.3699
16990SOL    HW152391   2.989   0.378   1.963 -0.1266 -0.1040  0.1816
16990SOL    HW252392   3.049   0.490   1.879  0.3315 -0.4823 -0.0062
16991SOL     OW52393   4.492   3.633   8.330  0.5917  0.0200 -0.0492
16991SOL    HW152394   4.442   3.702   8.374  0.4220 -0.5456  0.6580
16991SOL    HW252395   4.459   3.552   8.368  0.5707 -0.4703 -1.1035
16992SOL     OW52396   5.703   4.774   1.488  0.0636 -0.0902 -0.0125
16992SOL    HW152397   5.625   4.720   1.499  0.4726 -0.4725  1.1339
16992SOL    HW252398   5.776   4.717   1.512  0.7025  0.2908 -0.9602
16993SOL     OW52399   1.322   3.638   6.332  0.0164  0.5632 -0.0530
16993SOL    HW152400   1.353   3.550   6.314 -0.4504  0.5608 -0.8810
16993SOL    HW252401   1.227   3.633   6.321 -0.0483  1.0942  0.2044
16994SOL     OW52402   5.299   5.558   5.154  0.0794  0.6603  0.2427
16994SOL    HW152403   5.209   5.555   5.121 -0.3375  0.1148  1.3490
16994SOL    HW252404   5.322   5.651   5.154 -0.6864  0.8591  0.4329
16995SOL     OW52405   0.857   8.549   5.181  0.7054  0.4997 -0.8094
16995SOL    HW152406   0.911   8.627   5.170 -0.3279  1.0849 -2.1311
16995SOL    HW252407   0.770   8.583   5.202  0.5520 -0.3664  0.0112
16996SOL     OW52408   8.494   8.933   3.654 -0.2290  0.4205  0.2308
16996SOL    HW152409   8.466   8.893   3.737 -0.0819 -2.2595 -0.9104
16996SOL    HW252410   8.429   8.905   3.590  0.4197  1.2578 -0.8298
16997SOL     OW52411   6.198   5.791   1.257 -0.6810  0.1486  0.1576
16997SOL    HW152412   6.188   5.722   1.191 -0.4292  0.2424  0.0181
16997SOL    HW252413   6.288   5.783   1.287 -0.8896 -0.0941  0.7249
16998SOL     OW52414   4.561   3.210   0.537 -0.2677 -0.0407  0.9553
16998SOL    HW152415   4.545   3.159   0.616  0.5432 -0.4139  0.8828
16998SOL    HW252416   4.607   3.150   0.478  1.2326  0.9381  1.0821
16999SOL     OW52417   2.065   3.064   3.873 -0.3164 -0.3222  0.4279
16999SOL    HW152418   1.998   3.005   3.838  0.1305 -1.3677  1.2900
16999SOL    HW252419   2.023   3.107   3.947 -0.3085 -0.3172  0.4295
17000SOL     OW52420   4.105   7.439   5.543 -0.3187  0.2388  0.2944
17000SOL    HW152421   4.104   7.511   5.479 -1.2207 -0.5047 -0.5489
17000SOL    HW252422   4.181   7.387   5.519 -1.2334 -0.6107 -0.8501
17001SOL     OW52423   8.976   5.538   0.835  0.4952 -0.5949 -0.1453
17001SOL    HW152424   8.974   5.633   0.844  1.6217 -0.4770 -0.9002
17001SOL    HW252425   9.039   5.522   0.765 -1.3594 -1.7941 -1.6287
17002SOL     OW52426   7.258   3.527   3.591 -0.1857 -0.2186  0.0182
17002SOL    HW152427   7.183   3.479   3.626  0.7435 -1.7606 -0.0095
17002SOL    HW252428   7.330   3.502   3.649  0.5049  0.4676 -0.5420
17003SOL     OW52429   4.292   2.727   8.254  0.0777  0.0276  0.3452
17003SOL    HW152430   4.211   2.753   8.298  1.4205  0.4429  2.8054
17003SOL    HW252431   4.340   2.677   8.320  1.6823 -0.4851 -1.1341
17004SOL     OW52432   1.268   8.185   6.922 -0.3830 -0.9346  0.4545
17004SOL    HW152433   1.258   8.278   6.902 -0.6748 -1.1264 -0.3549
17004SOL    HW252434   1.313   8.149   6.846  1.0287 -1.2167  1.3810
17005SOL     OW52435   8.582   6.211   4.124  0.0346 -0.0307 -0.2231
17005SOL    HW152436   8.591   6.303   4.150  0.9455 -0.1049 -0.2711
17005SOL    HW252437   8.576   6.164   4.207 -0.9610  0.1079 -0.1984
17006SOL     OW52438   7.150   1.277   0.113  0.3118  0.5869 -0.2689
17006SOL    HW152439   7.223   1.226   0.078  0.3087 -0.0776  0.6346
17006SOL    HW252440   7.115   1.223   0.184  1.1474  2.3951  1.6481
17007SOL     OW52441   0.348   4.589   8.733  0.4964 -0.0210  0.2642
17007SOL    HW152442   0.392   4.637   8.803  0.2090 -1.2936  1.3745
17007SOL    HW252443   0.256   4.586   8.760  0.6372 -1.8812  0.6975
17008SOL     OW52444   3.374   4.196   8.563 -0.1247  0.0581  0.0944
17008SOL    HW152445   3.316   4.190   8.487 -0.3196  1.1605  0.1284
17008SOL    HW252446   3.320   4.238   8.631  0.7742  1.3575  0.0386
17009SOL     OW52447   1.836   3.449   1.295 -0.2736 -0.6165  0.5815
17009SOL    HW152448   1.878   3.407   1.370  1.5980 -0.1840 -0.1415
17009SOL    HW252449   1.797   3.529   1.331 -2.3342 -2.0070  1.6383
17010SOL     OW52450   7.876   3.433   0.120 -0.4903  0.0839 -0.2355
17010SOL    HW152451   7.877   3.364   0.054  0.8444 -0.4091  0.2619
17010SOL    HW252452   7.854   3.388   0.202 -0.5605  0.4106 -0.0733
17011SOL     OW52453   0.191   1.136   6.925 -0.3168 -0.9396 -0.3077
17011SOL    HW152454   0.132   1.172   6.859 -0.6685 -1.1398 -0.1025
17011SOL    HW252455   0.217   1.051   6.890 -0.6515 -1.1280 -0.1032
17012SOL     OW52456   4.061   2.603   6.410 -0.2015 -0.3454  0.3171
17012SOL    HW152457   4.095   2.638   6.492  1.7637 -1.5634  0.0626
17012SOL    HW252458   4.095   2.514   6.406 -0.5957 -0.4375 -1.6428
17013SOL     OW52459   6.018   8.338   2.487  0.6396 -0.2680 -0.4081
17013SOL    HW152460   6.036   8.249   2.517 -0.2903 -0.7484 -1.1986
17013SOL    HW252461   6.042   8.338   2.394  0.6381  0.2981 -0.4112
17014SOL     OW52462   3.007   2.552   3.000 -0.0380  0.8643  0.3884
17014SOL    HW152463   2.917   2.522   2.996  0.2307  0.1558 -1.1608
17014SOL    HW252464   3.040   2.542   2.910  1.7271  0.6002  1.0245
17015SOL     OW52465   8.126   7.349   0.990 -0.2455 -0.2350  0.2957
17015SOL    HW152466   8.109   7.440   1.013 -0.4361  0.0345 -0.8521
17015SOL    HW252467   8.063   7.330   0.921  0.9173 -0.7154 -0.6653
17016SOL     OW52468   4.387   2.399   2.401  0.9217  0.7079  0.4499
17016SOL    HW152469   4.321   2.383   2.469 -0.0798 -1.4089 -0.9046
17016SOL    HW252470   4.455   2.334   2.418 -0.2156 -1.1110 -1.5496
17017SOL     OW52471   4.853   7.683   2.137 -0.0702 -0.2697 -0.1604
17017SOL    HW152472   4.908   7.656   2.210 -0.9676 -0.3500  0.5021
17017SOL    HW252473   4.882   7.771   2.116  0.9767 -0.6800 -0.4807
17018SOL     OW52474   6.028   7.346   4.246 -0.2152 -0.1881 -0.4109
17018SOL    HW152475   5.946   7.296   4.246 -0.9379  0.9540 -0.3678
17018SOL    HW252476   6.047   7.361   4.339  0.2770 -0.8034 -0.4068
17019SOL     OW52477   5.755   7.376   4.837 -0.1676 -0.5544  0.8555
17019SOL    HW152478   5.669   7.388   4.797  0.8445  1.2022 -0.9570
17019SOL    HW252479   5.756   7.283   4.862 -2.2178 -0.8533  0.0735
17020SOL     OW52480   4.260   7.313   1.854 -0.1875 -0.2006  0.6229
17020SOL    HW152481   4.219   7.269   1.927 -1.2840  1.0986  0.8306
17020SOL    HW252482   4.218   7.399   1.851  1.0131  0.3865 -0.4963
17021SOL     OW52483   9.184   7.856   1.820  0.3826  0.1553  0.2920
17021SOL    HW152484   9.162   7.780   1.874  1.0697 -0.3715 -0.1534
17021SOL    HW252485   9.114   7.920   1.839 -0.7816 -0.9606 -0.1024
17022SOL     OW52486   0.439   4.111   7.992 -0.5665 -0.2458 -0.4666
17022SOL    HW152487   0.358   4.089   8.038 -0.9325  1.8444  0.0051
17022SOL    HW252488   0.470   4.190   8.036  1.8708 -1.1157 -0.4884
17023SOL     OW52489   5.828   5.096   1.045 -0.4961  0.5664 -0.3695
17023SOL    HW152490   5.752   5.082   0.987 -0.1997 -0.5064 -0.5218
17023SOL    HW252491   5.880   5.016   1.036  0.4356  1.1082  0.0752
17024SOL     OW52492   3.600   0.803   4.314  0.3876  0.1278  0.0223
17024SOL    HW152493   3.583   0.717   4.273 -0.1730  0.5071 -0.5680
17024SOL    HW252494   3.567   0.793   4.403 -1.4685  0.3035 -0.6034
17025SOL     OW52495   2.023   0.990   4.898  0.8027 -0.1238  0.0363
17025SOL    HW152496   2.053   0.905   4.866  0.6763  0.5337 -1.9441
17025SOL    HW252497   1.944   1.009   4.847 -0.4413  0.2302  1.9818
17026SOL     OW52498   3.161   0.327   6.248  0.2780 -0.5912 -0.1574
17026SOL    HW152499   3.206   0.315   6.165 -1.1917 -0.5115 -0.9983
17026SOL    HW252500   3.133   0.239   6.273 -2.1483 -0.2702 -1.4662
17027SOL     OW52501   9.064   8.435   0.966  0.2869  0.4003  0.4579
17027SOL    HW152502   9.122   8.441   0.890 -0.1479  0.5040  0.1360
17027SOL    HW252503   8.979   8.464   0.934 -0.1967 -0.7632  0.6631
17028SOL     OW52504   7.548   9.190   5.220  0.1214 -0.3201  0.5001
17028SOL    HW152505   7.602   9.115   5.243  1.2481 -0.3825 -1.9751
17028SOL    HW252506   7.458   9.158   5.225  0.5963 -2.0541 -0.9888
17029SOL     OW52507   3.417   6.112   8.798 -0.0095  0.0422  0.1176
17029SOL    HW152508   3.446   6.134   8.887  1.5313 -1.4925  0.0505
17029SOL    HW252509   3.322   6.104   8.805 -0.2283  2.4309  1.0206
17030SOL     OW52510   8.975   1.159   4.474  0.4642 -0.3707  0.1738
17030SOL    HW152511   8.886   1.127   4.492  0.6691 -0.8981  0.2674
17030SOL    HW252512   9.010   1.181   4.561 -0.0055  1.0371  0.0400
17031SOL     OW52513   2.322   9.006   4.891 -0.4368  0.2276  0.7346
17031SOL    HW152514   2.293   8.921   4.923 -1.3215  0.2346 -0.0082
17031SOL    HW252515   2.404   8.988   4.845  0.4461  0.1059  2.2768
17032SOL     OW52516   8.485   7.037   4.957  0.5222 -0.4681  0.1230
17032SOL    HW152517   8.408   7.004   5.003 -0.2475  0.6345 -0.3292
17032SOL    HW252518   8.551   6.968   4.967  0.0800 -0.6699  2.0549
17033SOL     OW52519   1.790   4.126   4.976  0.3244  0.0110  0.4224
17033SOL    HW152520   1.698   4.112   4.956  0.2442 -0.2477  0.9366
17033SOL    HW252521   1.828   4.160   4.895 -0.0274 -0.7654 -0.0840
17034SOL     OW52522   3.800   2.064   5.792 -0.9578  0.1564  0.4730
17034SOL    HW152523   3.887   2.070   5.752 -0.6479 -0.2802  1.0581
17034SOL    HW252524   3.739   2.075   5.719 -0.4261  1.3466  0.1699
17035SOL     OW52525   1.296   4.053   2.548 -0.0332 -0.1734 -0.2603
17035SOL    HW152526   1.235   4.013   2.610 -0.8937  0.6389 -0.5598
17035SOL    HW252527   1.249   4.051   2.464 -0.7369  2.6957 -0.0393
17036SOL     OW52528   9.208   7.404   2.417 -0.1183 -0.0656 -0.1970
17036SOL    HW152529   9.142   7.353   2.370 -0.1845 -0.3514  0.2030
17036SOL    HW252530   9.178   7.494   2.408  0.4744  0.0188 -1.6823
17037SOL     OW52531   5.491   5.348   2.209  0.4103  0.4943 -0.6134
17037SOL    HW152532   5.432   5.388   2.274 -0.4350 -2.5266  0.6719
17037SOL    HW252533   5.440   5.348   2.128 -0.2096  0.5805 -0.2328
17038SOL     OW52534   3.772   0.349   1.405  0.2728  0.5662  0.3157
17038SOL    HW152535   3.719   0.310   1.335  0.4864  2.0344 -0.7119
17038SOL    HW252536   3.816   0.274   1.445  0.1782 -0.3295 -1.1385
17039SOL     OW52537   0.181   0.806   3.798  0.1240 -0.3603 -0.0709
17039SOL    HW152538   0.169   0.819   3.703  0.5130 -2.4894 -0.4504
17039SOL    HW252539   0.261   0.754   3.805  0.5460  0.4396  1.5086
17040SOL     OW52540   3.978   7.994   8.252  0.0652  0.2483 -0.2280
17040SOL    HW152541   4.034   7.954   8.320 -0.2519  1.4068  0.7505
17040SOL    HW252542   4.036   8.003   8.176  1.0764  0.9572  0.6021
17041SOL     OW52543   8.901   2.609   8.837  0.1476 -0.0609  0.1918
17041SOL    HW152544   8.911   2.702   8.861 -2.2167  0.0490  1.0069
17041SOL    HW252545   8.980   2.567   8.870  1.9165  1.8363 -1.3526
17042SOL     OW52546   1.706   3.146   0.901  0.2139  0.1899  0.0053
17042SOL    HW152547   1.700   3.217   0.964 -0.6261  1.8527 -1.8318
17042SOL    HW252548   1.797   3.147   0.871  0.0887  0.8552 -0.3727
17043SOL     OW52549   0.264   4.325   3.032 -0.2196 -0.0412  0.6864
17043SOL    HW152550   0.353   4.359   3.032  0.1305 -0.9018 -0.1629
17043SOL    HW252551   0.268   4.247   3.086  0.0257 -1.1943 -0.9225
17044SOL     OW52552   1.922   8.066   5.228 -0.6331 -0.1998 -0.0659
17044SOL    HW152553   1.846   8.083   5.173 -3.0722 -2.2331  2.4350
17044SOL    HW252554   1.886   8.043   5.313  2.8598 -0.1732  1.5986
17045SOL     OW52555   4.682   8.697   3.057 -0.5206 -0.4593 -0.0306
17045SOL    HW152556   4.649   8.640   3.126 -0.8852 -1.1882 -0.7880
17045SOL    HW252557   4.631   8.673   2.979 -0.7477  0.9615 -0.3568
17046SOL     OW52558   7.147   1.674   4.305  0.1384  0.0080 -0.5640
17046SOL    HW152559   7.122   1.633   4.222  2.0201  0.3183 -1.3429
17046SOL    HW252560   7.198   1.751   4.279 -0.3530  0.8530  0.8850
17047SOL     OW52561   2.622   0.591   7.312 -0.0115 -0.4992  0.3731
17047SOL    HW152562   2.676   0.667   7.291 -1.5738  0.1762 -1.4495
17047SOL    HW252563   2.593   0.606   7.402 -0.1512  0.9830  0.0988
17048SOL     OW52564   8.417   0.237   4.157  0.1368 -0.1589 -0.8020
17048SOL    HW152565   8.408   0.324   4.120  0.6785  0.7155  1.0277
17048SOL    HW252566   8.330   0.217   4.192  0.9931  1.6761  2.8646
17049SOL     OW52567   0.580   4.321   5.109 -0.5008 -0.3324  0.2355
17049SOL    HW152568   0.641   4.319   5.036  0.2293  1.5679  0.7342
17049SOL    HW252569   0.574   4.229   5.138  3.2371 -0.4946  1.0308
17050SOL     OW52570   8.774   8.407   4.750 -0.0465  0.6999  0.4793
17050SOL    HW152571   8.693   8.413   4.801 -0.2616  1.8603  0.0369
17050SOL    HW252572   8.765   8.326   4.700 -0.4379  0.2547  1.2528
17051SOL     OW52573   2.269   7.388   2.836 -0.2988 -0.4065  0.2242
17051SOL    HW152574   2.266   7.458   2.770  0.2559  0.8189  1.4413
17051SOL    HW252575   2.179   7.383   2.868 -0.7752 -1.6178 -1.1856
17052SOL     OW52576   6.019   6.492   2.544 -0.8006 -0.2571 -0.4990
17052SOL    HW152577   6.086   6.488   2.476 -1.0024 -0.0292 -0.7128
17052SOL    HW252578   5.960   6.419   2.524 -0.1555 -0.9741  0.1812
17053SOL     OW52579   8.928   0.707   5.032 -0.0744  0.0270 -0.4888
17053SOL    HW152580   9.020   0.700   5.008  0.2816 -1.0870  1.0481
17053SOL    HW252581   8.930   0.726   5.126 -1.4166  1.1304 -0.6549
17054SOL     OW52582   8.952   3.445   6.637 -0.2543 -0.4276 -0.0231
17054SOL    HW152583   8.917   3.366   6.596 -1.1377 -0.0347 -0.0423
17054SOL    HW252584   8.902   3.517   6.598  0.7269  0.1790 -0.2099
17055SOL     OW52585   5.682   0.233   0.895 -0.2016  0.7233  0.2875
17055SOL    HW152586   5.772   0.207   0.877 -0.5405  0.0341 -0.5211
17055SOL    HW252587   5.677   0.325   0.870 -0.1551  0.3000 -1.3607
17056SOL     OW52588   2.971   4.165   8.166 -0.1024 -0.9853  0.0552
17056SOL    HW152589   2.905   4.226   8.136 -1.3325 -1.0654  2.4215
17056SOL    HW252590   2.950   4.083   8.121  0.4566 -0.2028 -1.7213
17057SOL     OW52591   4.854   7.025   1.440 -0.4488 -0.0015 -0.1662
17057SOL    HW152592   4.779   6.972   1.469  1.5950 -1.4923  2.8782
17057SOL    HW252593   4.847   7.106   1.491  0.8721 -0.8842  1.5127
17058SOL     OW52594   7.057   0.441   5.868 -0.3996  0.5243 -1.3069
17058SOL    HW152595   6.994   0.433   5.939 -0.6881  0.9653 -1.5083
17058SOL    HW252596   7.080   0.351   5.846  1.6527  0.3637  1.0685
17059SOL     OW52597   1.495   6.829   3.707 -0.3489  0.1852  0.1429
17059SOL    HW152598   1.446   6.854   3.785  0.3776  0.4815  0.5080
17059SOL    HW252599   1.432   6.837   3.636 -0.8163  0.6236  0.6003
17060SOL     OW52600   8.943   2.392   0.669 -0.4094 -0.5680 -0.3264
17060SOL    HW152601   8.894   2.313   0.646  0.2837 -1.2045  0.3162
17060SOL    HW252602   9.017   2.360   0.721 -0.8765  0.6247  1.1525
17061SOL     OW52603   7.434   1.330   1.016 -0.1092 -0.6931  0.4493
17061SOL    HW152604   7.345   1.295   1.020 -0.4366  0.1515  0.5612
17061SOL    HW252605   7.472   1.288   0.938 -0.8397 -0.4966 -0.0233
17062SOL     OW52606   4.039   3.444   5.243  0.0155 -0.6625  0.1096
17062SOL    HW152607   4.121   3.493   5.246  0.1734 -0.9509  2.2414
17062SOL    HW252608   3.971   3.511   5.257 -0.0199 -0.6106 -0.3004
17063SOL     OW52609   1.887   7.190   8.126  0.6042  0.0344  0.2545
17063SOL    HW152610   1.873   7.122   8.060 -1.8508  1.1283 -0.4817
17063SOL    HW252611   1.862   7.271   8.082  1.1859  1.1120  1.8292
17064SOL     OW52612   0.707   7.257   4.427  0.5739  0.2581 -0.1179
17064SOL    HW152613   0.707   7.248   4.522 -0.3343  1.1889 -0.0094
17064SOL    HW252614   0.737   7.172   4.394 -1.7384 -1.0774  0.9436
17065SOL     OW52615   0.599   7.461   8.098 -0.2285  0.1152 -0.1126
17065SOL    HW152616   0.646   7.427   8.022 -2.9151 -2.3574 -0.8663
17065SOL    HW252617   0.524   7.402   8.108 -0.8424  1.2584  3.5625
17066SOL     OW52618   6.875   6.364   6.307 -0.0956 -0.2377  0.1430
17066SOL    HW152619   6.842   6.295   6.250 -0.2327 -0.3367  0.3406
17066SOL    HW252620   6.805   6.378   6.371  0.2562 -0.4813  0.5922
17067SOL     OW52621   6.899   3.243   3.441 -0.0241 -0.2131  0.0354
17067SOL    HW152622   6.813   3.283   3.433 -0.6262 -1.3614  0.4016
17067SOL    HW252623   6.930   3.233   3.352 -0.8609 -0.9773 -0.1848
17068SOL     OW52624   4.795   1.493   8.267  0.3431  0.1987  0.0924
17068SOL    HW152625   4.883   1.520   8.238  0.8539 -0.3441  1.1089
17068SOL    HW252626   4.808   1.407   8.306 -0.5400  0.3934  0.8394
17069SOL     OW52627   8.987   3.695   5.354  0.1511 -0.2126  0.8041
17069SOL    HW152628   9.019   3.782   5.330 -1.1712  0.8989  2.8054
17069SOL    HW252629   8.940   3.708   5.436 -2.3012 -2.3588 -0.1216
17070SOL     OW52630   6.981   4.716   8.143  0.1761 -0.1724 -0.2674
17070SOL    HW152631   6.999   4.761   8.225 -1.7849  0.3991 -0.0743
17070SOL    HW252632   6.963   4.626   8.168 -0.1449 -0.0624 -0.0936
17071SOL     OW52633   0.644   9.088   2.306  0.1266 -0.5535 -0.0011
17071SOL    HW152634   0.646   9.163   2.246 -0.9122  0.0922  0.7435
17071SOL    HW252635   0.624   9.125   2.391  1.0900 -1.5236  0.6854
17072SOL     OW52636   4.676   2.114   8.168 -0.2411 -0.1123 -0.2485
17072SOL    HW152637   4.687   2.025   8.200 -1.0615 -0.4755 -0.9320
17072SOL    HW252638   4.604   2.108   8.105  0.6897  0.7342 -1.4632
17073SOL     OW52639   7.146   6.752   2.609 -0.3850 -0.2918 -0.1255
17073SOL    HW152640   7.235   6.779   2.587  0.0594 -2.5669 -1.4064
17073SOL    HW252641   7.156   6.699   2.688 -0.9575  1.3217  1.0825
17074SOL     OW52642   3.323   8.371   8.609  0.0537  0.2884  0.7588
17074SOL    HW152643   3.248   8.369   8.669 -0.5999  0.4573 -0.0320
17074SOL    HW252644   3.383   8.305   8.643 -1.0820 -0.8486  0.6235
17075SOL     OW52645   6.534   7.298   4.119 -0.3064 -0.1985  0.6011
17075SOL    HW152646   6.498   7.386   4.112 -1.1260 -0.5938 -0.4672
17075SOL    HW252647   6.470   7.248   4.169  0.6423  0.0421  2.1053
17076SOL     OW52648   4.112   9.174   4.651  0.2830 -0.1905  0.8308
17076SOL    HW152649   4.054   9.236   4.607  1.3315  0.3876  0.2574
17076SOL    HW252650   4.062   9.092   4.651 -1.0009  0.5685  1.3664
17077SOL     OW52651   1.037   0.902   6.451  0.5552  0.1019  0.5275
17077SOL    HW152652   1.100   0.963   6.412 -0.8003  0.4359 -1.2740
17077SOL    HW252653   1.010   0.945   6.533 -0.7102  2.2340 -0.9139
17078SOL     OW52654   1.498   1.867   2.356  0.0000 -0.1639  0.5329
17078SOL    HW152655   1.588   1.838   2.367  0.2804  0.8460  1.0770
17078SOL    HW252656   1.501   1.929   2.283 -0.2139 -0.0014  0.6575
17079SOL     OW52657   0.129   0.803   9.220  0.5446 -0.1435 -0.0159
17079SOL    HW152658   0.120   0.802   9.316 -0.0784  1.5670 -0.0147
17079SOL    HW252659   0.071   0.874   9.192  3.1144  1.5937 -1.3728
17080SOL     OW52660   5.067   4.672   2.544 -0.0943 -1.4081 -0.5529
17080SOL    HW152661   4.989   4.627   2.514  0.4220 -3.5093  1.0051
17080SOL    HW252662   5.034   4.748   2.592 -1.0199 -0.4748 -2.5598
17081SOL     OW52663   3.277   7.365   4.932  0.4560 -0.0731  0.2545
17081SOL    HW152664   3.284   7.460   4.940  1.0785 -0.2863  3.1941
17081SOL    HW252665   3.292   7.331   5.020  0.8930 -2.9696 -0.7984
17082SOL     OW52666   0.362   4.780   6.687 -0.1033 -0.6084  0.5491
17082SOL    HW152667   0.420   4.706   6.669 -2.1598 -2.5290  1.2876
17082SOL    HW252668   0.311   4.790   6.607 -1.3930 -1.5804  1.2010
17083SOL     OW52669   6.166   6.996   1.122 -0.6770  0.4191 -0.0997
17083SOL    HW152670   6.141   6.964   1.035 -0.9549  1.3859 -0.3889
17083SOL    HW252671   6.234   6.936   1.151  0.3486  0.8333 -1.5472
17084SOL     OW52672   5.325   6.794   8.130 -0.2844  0.6747  0.3781
17084SOL    HW152673   5.266   6.857   8.171  0.2176  1.2703  0.1941
17084SOL    HW252674   5.325   6.818   8.038 -0.0160  0.4681  0.3246
17085SOL     OW52675   6.348   4.677   3.319 -0.0448 -0.6446  0.3439
17085SOL    HW152676   6.402   4.755   3.332  1.8677 -1.7325 -0.6167
17085SOL    HW252677   6.310   4.660   3.405  1.7343 -0.2196  1.2648
17086SOL     OW52678   4.845   0.047   2.865 -0.0046  0.7351  0.0919
17086SOL    HW152679   4.881  -0.024   2.811 -1.4719 -1.1350  1.4509
17086SOL    HW252680   4.835   0.120   2.804  2.2091  0.0553 -1.2047
17087SOL     OW52681   6.785   3.884   8.522  0.1753 -0.1427  0.6694
17087SOL    HW152682   6.874   3.918   8.536  1.0994 -1.7640 -0.7949
17087SOL    HW252683   6.750   3.870   8.610  1.8683 -0.6172  1.3072
17088SOL     OW52684   3.813   0.308   4.686 -0.2334  0.0699  0.3546
17088SOL    HW152685   3.793   0.399   4.708 -0.3303  0.5010 -1.3653
17088SOL    HW252686   3.908   0.301   4.695 -0.2138  0.3617  0.3628
17089SOL     OW52687   0.045   3.904   8.098 -0.1166  0.1678  0.4807
17089SOL    HW152688   0.066   3.907   8.005  0.1655 -1.8028  0.4472
17089SOL    HW252689  -0.051   3.905   8.101 -0.1272  0.2159  0.1632
17090SOL     OW52690   6.198   4.803   6.632 -0.3666 -0.2887 -0.3196
17090SOL    HW152691   6.154   4.773   6.711 -1.7727  0.8321 -0.6486
17090SOL    HW252692   6.282   4.837   6.663 -1.0268  0.4325  0.7533
17091SOL     OW52693   1.363   3.201   8.041  0.2137 -0.0323  0.0214
17091SOL    HW152694   1.341   3.213   7.949  0.2816  0.5757  0.0738
17091SOL    HW252695   1.459   3.205   8.044  0.1854  1.0929  0.2403
17092SOL     OW52696   0.135   5.597   3.604  0.2086 -0.1920 -0.0941
17092SOL    HW152697   0.174   5.558   3.682 -1.3460 -1.1198  0.2571
17092SOL    HW252698   0.045   5.615   3.629 -0.2467 -0.2731 -1.6033
17093SOL     OW52699   5.704   4.994   4.526 -0.4619  0.2003 -0.2153
17093SOL    HW152700   5.737   5.046   4.453  2.2325  1.6762  1.8347
17093SOL    HW252701   5.670   5.059   4.588 -0.5009 -0.7985  0.8492
17094SOL     OW52702   7.921   5.418   0.829  0.4777 -0.4078 -0.8046
17094SOL    HW152703   8.015   5.436   0.830  0.3138  0.4912 -1.3041
17094SOL    HW252704   7.882   5.495   0.870 -0.0845 -0.5364 -1.1016
17095SOL     OW52705   6.383   1.508   7.010  0.1325  0.1406 -0.0895
17095SOL    HW152706   6.391   1.423   6.967 -0.7873  0.2799 -0.5372
17095SOL    HW252707   6.418   1.571   6.947  1.0342  0.0817  0.3342
17096SOL     OW52708   6.957   3.560   8.379 -0.1390 -0.1634  0.1343
17096SOL    HW152709   6.980   3.473   8.413  2.6342 -0.4688 -2.1441
17096SOL    HW252710   6.946   3.546   8.285 -0.7665  1.7986 -0.1237
17097SOL     OW52711   6.102   2.923   5.894 -0.3584 -0.5378 -0.0884
17097SOL    HW152712   6.025   2.979   5.904  0.0451  0.3140 -1.4803
17097SOL    HW252713   6.170   2.965   5.948 -0.4512 -0.4717 -0.0226
17098SOL     OW52714   3.610   1.060   2.503  0.0398 -0.3306  0.3058
17098SOL    HW152715   3.643   1.143   2.539  1.3978  0.0005 -1.5515
17098SOL    HW252716   3.632   1.064   2.410 -0.0432 -2.7195  0.1338
17099SOL     OW52717   7.898   7.683   0.862  0.1526 -0.0550 -0.4939
17099SOL    HW152718   7.887   7.754   0.799 -2.1100  0.3061  0.2441
17099SOL    HW252719   7.834   7.617   0.836  0.3583 -0.6417  0.4392
17100SOL     OW52720   8.896   5.914   5.317 -0.1270  0.1968 -0.1345
17100SOL    HW152721   8.923   6.005   5.301 -1.3704  0.9676  1.7400
17100SOL    HW252722   8.800   5.918   5.319 -0.1759 -0.7185  1.9759
17101SOL     OW52723   5.983   4.875   7.329 -0.3279  0.4292  0.5331
17101SOL    HW152724   6.076   4.897   7.329 -0.6321  1.7687  0.4993
17101SOL    HW252725   5.955   4.888   7.239 -0.2545 -1.4205  0.1942
17102SOL     OW52726   6.869   4.267   4.850 -0.1906 -0.5065 -0.4046
17102SOL    HW152727   6.952   4.253   4.805  1.4285  2.1209  1.4758
17102SOL    HW252728   6.884   4.236   4.939 -0.9926  0.5967  0.1326
17103SOL     OW52729   0.936   3.104   8.213 -0.2132 -0.3327 -0.4427
17103SOL    HW152730   0.919   3.109   8.119 -0.2055 -1.0990 -0.4969
17103SOL    HW252731   0.856   3.066   8.250 -0.2212 -0.0215 -0.1375
17104SOL     OW52732   7.419   8.261   8.976  0.0263  0.1754  0.2269
17104SOL    HW152733   7.436   8.315   8.899  0.0346 -0.4239 -0.1974
17104SOL    HW252734   7.368   8.318   9.034  1.0758  1.0460  0.3199
17105SOL     OW52735   4.308   5.488   6.859  0.2117 -0.2870 -0.1191
17105SOL    HW152736   4.290   5.580   6.838  0.1570 -0.3016 -0.1365
17105SOL    HW252737   4.315   5.445   6.774 -1.6159 -0.6651 -0.1234
17106SOL     OW52738   3.452   3.227   7.507 -0.3423 -0.4559  0.4807
17106SOL    HW152739   3.508   3.167   7.556 -2.0040 -1.9345  0.6591
17106SOL    HW252740   3.364   3.211   7.542 -1.4696 -0.9313 -2.3415
17107SOL     OW52741   8.377   0.192   7.547  0.2284 -0.4566 -0.2873
17107SOL    HW152742   8.384   0.126   7.616 -0.7188  0.0438  0.2959
17107SOL    HW252743   8.394   0.144   7.466 -0.2743 -1.3839  0.1492
17108SOL     OW52744   5.972   5.456   1.689  0.4044 -0.0121  0.5332
17108SOL    HW152745   6.008   5.382   1.738 -0.5330 -0.4969  0.5098
17108SOL    HW252746   6.049   5.507   1.662  1.1000 -1.2534  0.1021
17109SOL     OW52747   3.877   0.809   1.119 -0.3472  0.3382 -0.2569
17109SOL    HW152748   3.947   0.756   1.157 -0.4496 -0.5974 -1.3238
17109SOL    HW252749   3.921   0.863   1.052 -0.4875  0.5120 -0.2105
17110SOL     OW52750   8.921   1.249   2.677  0.0677  0.1776 -0.3247
17110SOL    HW152751   8.974   1.327   2.657 -1.1146  1.0021 -0.3166
17110SOL    HW252752   8.967   1.207   2.749  1.2826  0.2897 -0.9999
17111SOL     OW52753   6.458   6.816   6.632  0.7732 -0.1548 -0.2907
17111SOL    HW152754   6.407   6.845   6.557 -1.6199 -0.3293  1.1841
17111SOL    HW252755   6.524   6.884   6.644 -0.8658  1.5434 -0.5827
17112SOL     OW52756   5.644   0.237   7.060 -0.2138 -0.2621  0.0255
17112SOL    HW152757   5.684   0.163   7.106  0.5811 -0.8846 -1.5846
17112SOL    HW252758   5.701   0.252   6.984 -0.5061  1.8368  0.1438
17113SOL     OW52759   2.958   5.119   6.077 -0.0264  0.3143  0.1945
17113SOL    HW152760   3.037   5.169   6.099  0.7067  1.4330 -4.0332
17113SOL    HW252761   2.990   5.036   6.044 -0.3132  1.3693 -3.0681
17114SOL     OW52762   2.823   4.953   1.468  0.2572 -0.6050 -0.2047
17114SOL    HW152763   2.881   4.960   1.544  0.4427  2.0857 -0.5242
17114SOL    HW252764   2.741   4.920   1.504  0.7860 -0.8013  0.8879
17115SOL     OW52765   2.370   8.488   4.770  0.3904 -0.0147  0.4429
17115SOL    HW152766   2.312   8.543   4.717  0.7392 -0.1823 -0.1254
17115SOL    HW252767   2.385   8.539   4.850  2.3233  1.6951 -0.9047
17116SOL     OW52768   3.418   2.188   7.007 -0.2263 -0.0581  0.0999
17116SOL    HW152769   3.427   2.267   6.954  0.0431  0.0589  0.3163
17116SOL    HW252770   3.341   2.143   6.971  0.1990 -0.1941 -0.6611
17117SOL     OW52771   8.724   6.341   7.872 -0.0053 -0.3570 -0.1452
17117SOL    HW152772   8.793   6.297   7.922  0.5818 -0.0153 -0.6425
17117SOL    HW252773   8.644   6.297   7.899  0.3421 -0.4171  0.8243
17118SOL     OW52774   0.064   3.151   3.176 -0.7127  0.1181 -0.1563
17118SOL    HW152775  -0.027   3.129   3.155 -0.3775 -0.5485 -0.9727
17118SOL    HW252776   0.058   3.233   3.226 -1.8023 -0.3093  0.4489
17119SOL     OW52777   7.624   0.935   1.581  0.3698  0.5362  0.1370
17119SOL    HW152778   7.529   0.941   1.584  0.3404  1.8294 -1.8607
17119SOL    HW252779   7.643   0.861   1.524  0.4999  1.7636 -1.4731
17120SOL     OW52780   7.585   3.035   6.172 -0.1228 -0.3976  0.1660
17120SOL    HW152781   7.614   3.038   6.263  0.3727 -0.7430  0.0234
17120SOL    HW252782   7.489   3.035   6.177 -0.1622  2.0563  0.6149
17121SOL     OW52783   2.080   7.143   3.135 -0.1117  0.1724 -0.9310
17121SOL    HW152784   1.995   7.183   3.116  0.9295  2.2166 -1.6354
17121SOL    HW252785   2.065   7.049   3.127 -2.8165  0.2981  1.2155
17122SOL     OW52786   3.367   1.032   1.844 -0.7359  0.3259 -0.4020
17122SOL    HW152787   3.461   1.022   1.857 -0.4607  2.7778  0.0907
17122SOL    HW252788   3.351   0.999   1.756  1.1132  2.2599 -1.5744
17123SOL     OW52789   7.655   1.881   3.814  0.1270  0.5126 -0.3501
17123SOL    HW152790   7.583   1.819   3.813  1.1054 -0.7597 -3.4960
17123SOL    HW252791   7.615   1.967   3.800 -0.9121  0.0608 -0.1692
17124SOL     OW52792   2.656   2.639   8.318  0.1882 -0.0215 -1.0485
17124SOL    HW152793   2.561   2.647   8.321  0.1990  0.0559 -0.8810
17124SOL    HW252794   2.672   2.558   8.270 -0.0083 -0.9399  0.3541
17125SOL     OW52795   4.200   3.841   7.272 -0.0204  0.4807 -0.4501
17125SOL    HW152796   4.234   3.889   7.196  0.0283  0.0518 -0.7006
17125SOL    HW252797   4.218   3.899   7.346  1.2560  0.2783 -0.5702
17126SOL     OW52798   6.526   2.064   6.307  0.7023  0.3669 -0.3438
17126SOL    HW152799   6.506   2.048   6.214 -1.1946  0.9686 -0.0832
17126SOL    HW252800   6.579   1.989   6.333 -0.1633 -0.6995 -1.4939
17127SOL     OW52801   7.093   6.980   3.692 -0.2211 -0.1778  0.0099
17127SOL    HW152802   7.182   6.978   3.657 -0.4231 -0.7564 -0.4784
17127SOL    HW252803   7.103   6.959   3.784  0.3416  1.5418  0.3935
17128SOL     OW52804   0.769   5.518   5.365 -0.9107  0.0441  0.8879
17128SOL    HW152805   0.767   5.500   5.459  0.4456  0.0877  0.9399
17128SOL    HW252806   0.681   5.551   5.345 -1.5826 -1.0538  1.9050
17129SOL     OW52807   0.012   5.007   1.000  0.2466  0.0573 -0.5835
17129SOL    HW152808   0.097   4.997   0.956 -0.0917 -2.1266 -0.8125
17129SOL    HW252809  -0.053   4.995   0.930 -0.2688 -0.8572  0.0421
17130SOL     OW52810   8.483   8.732   1.979  0.0448  0.3677  0.1160
17130SOL    HW152811   8.409   8.730   1.919 -1.0741 -0.5112  1.4482
17130SOL    HW252812   8.446   8.703   2.063  1.7232  0.7239  1.0189
17131SOL     OW52813   0.777   1.768   3.438  0.0822  0.5683 -0.3621
17131SOL    HW152814   0.731   1.811   3.509 -1.1076 -0.8887 -0.2250
17131SOL    HW252815   0.745   1.678   3.438  2.4296 -0.3551 -0.6962
17132SOL     OW52816   0.925   4.129   4.579  0.1856  0.8178 -0.1639
17132SOL    HW152817   1.014   4.103   4.602  0.5042  0.6505 -1.4989
17132SOL    HW252818   0.870   4.088   4.646  1.1634  1.7054  1.2176
17133SOL     OW52819   5.662   4.597   3.201  0.2910  0.0044  0.2192
17133SOL    HW152820   5.567   4.611   3.203  0.2762 -0.0666  0.0095
17133SOL    HW252821   5.695   4.651   3.273  0.0154 -0.5626  0.7846
17134SOL     OW52822   4.578   4.297   1.072  0.2271 -0.2226  0.3984
17134SOL    HW152823   4.580   4.353   0.995 -2.5526  1.3054  1.3007
17134SOL    HW252824   4.497   4.245   1.063  1.2354 -2.0108  1.0208
17135SOL     OW52825   8.424   7.459   0.000 -0.5542 -0.3009 -0.6715
17135SOL    HW152826   8.329   7.450  -0.008 -0.5951  0.0153 -0.5459
17135SOL    HW252827   8.456   7.369   0.007 -0.9526 -0.3682  0.4754
17136SOL     OW52828   0.500   2.885   4.674 -0.1924 -0.5422 -0.0090
17136SOL    HW152829   0.527   2.816   4.734 -1.0386 -2.3536 -1.6095
17136SOL    HW252830   0.525   2.854   4.587  0.1415  1.5601 -0.7354
17137SOL     OW52831   0.826   4.690   0.416  0.2284 -0.1548  0.0476
17137SOL    HW152832   0.848   4.778   0.385 -0.6832 -0.7407 -2.5005
17137SOL    HW252833   0.811   4.639   0.336 -0.7977 -2.2331  1.4686
17138SOL     OW52834   7.214   1.626   4.586 -0.3878 -0.3313 -0.1717
17138SOL    HW152835   7.195   1.685   4.513  0.4878  1.1596  0.7728
17138SOL    HW252836   7.178   1.669   4.663 -0.1088 -1.2484  0.4924
17139SOL     OW52837   5.204   3.637   2.645 -0.6580 -0.4980  0.3518
17139SOL    HW152838   5.298   3.624   2.655 -0.1120  2.3289 -0.2134
17139SOL    HW252839   5.190   3.637   2.550 -0.8894  0.8738  0.3707
17140SOL     OW52840   0.053   4.665   4.372 -0.5923 -0.4265  0.6638
17140SOL    HW152841   0.136   4.652   4.326  0.0314  2.8109  0.5847
17140SOL    HW252842   0.048   4.593   4.435  1.2987 -1.7725 -0.6235
17141SOL     OW52843   6.794   5.839   8.400  0.1274 -0.1609  0.0304
17141SOL    HW152844   6.848   5.904   8.355  0.4060  1.6243  2.7429
17141SOL    HW252845   6.823   5.843   8.491 -0.1387 -3.8520  0.4189
17142SOL     OW52846   2.367   5.429   2.640  0.2328  0.3590  0.1929
17142SOL    HW152847   2.345   5.346   2.682 -0.9509  1.1551  1.2021
17142SOL    HW252848   2.428   5.471   2.700 -1.3293  1.4242  1.1060
17143SOL     OW52849   2.112   2.212   5.194  0.3237  0.6825  0.1729
17143SOL    HW152850   2.182   2.207   5.259  0.6478  1.8067 -0.0672
17143SOL    HW252851   2.133   2.144   5.131 -0.0245 -0.4640  1.2481
17144SOL     OW52852   5.421   9.068   3.966 -0.8313 -0.8395  0.0209
17144SOL    HW152853   5.356   9.139   3.965 -0.6164 -0.6242  0.7140
17144SOL    HW252854   5.445   9.059   4.058  2.4396  1.2535 -0.4485
17145SOL     OW52855   8.274   0.162   8.446  0.1100 -0.4740  0.5595
17145SOL    HW152856   8.358   0.123   8.469  0.7308  0.1307 -0.5871
17145SOL    HW252857   8.240   0.197   8.528  1.4779  0.2078  0.8644
17146SOL     OW52858   5.407   3.055   6.728 -0.4159 -0.4989 -0.4212
17146SOL    HW152859   5.456   3.012   6.798  3.3533  0.7437 -2.0122
17146SOL    HW252860   5.396   3.145   6.759 -0.3358 -0.3996 -0.6776
17147SOL     OW52861   6.722   1.171   8.159 -0.4058 -0.3308  0.3148
17147SOL    HW152862   6.702   1.109   8.229  1.2435 -0.0407  1.1019
17147SOL    HW252863   6.803   1.138   8.120  0.1527  0.9619  0.3309
17148SOL     OW52864   3.945   2.848   6.837 -0.0257  0.2623 -0.3213
17148SOL    HW152865   3.966   2.901   6.914 -0.2024 -2.0982  1.4620
17148SOL    HW252866   3.914   2.911   6.772  0.1175  2.3572  1.5348
17149SOL     OW52867   5.458   5.860   0.865  0.5276 -0.3938 -0.6105
17149SOL    HW152868   5.467   5.781   0.919  1.0929  1.0816  1.5718
17149SOL    HW252869   5.370   5.892   0.885  0.2854 -0.4653 -1.5228
17150SOL     OW52870   7.307   7.420   7.395 -0.0978  0.0645  0.1562
17150SOL    HW152871   7.324   7.339   7.443  1.3950 -0.7042 -1.5724
17150SOL    HW252872   7.273   7.392   7.311 -0.5052  1.2957 -0.1140
17151SOL     OW52873   5.082   7.833   0.089 -0.3623 -0.1076  0.6872
17151SOL    HW152874   5.128   7.890   0.028 -0.8290 -1.0285 -0.5565
17151SOL    HW252875   4.992   7.830   0.057 -0.2162 -1.9940  0.3375
17152SOL     OW52876   1.575   6.163   1.138  0.2253  0.0607  0.2836
17152SOL    HW152877   1.654   6.114   1.116  0.2834  0.0778  0.4498
17152SOL    HW252878   1.603   6.223   1.207  0.3154  0.8079 -0.3862
17153SOL     OW52879   1.971   4.818   6.245 -0.4107 -0.2972  0.5968
17153SOL    HW152880   2.011   4.756   6.184 -1.0771 -1.9155  1.7416
17153SOL    HW252881   1.880   4.823   6.217 -0.5345 -0.4317  0.9758
17154SOL     OW52882   0.046   9.243   0.094 -0.1787 -0.1355  0.3550
17154SOL    HW152883   0.054   9.291   0.012 -3.4598  0.8378  0.4375
17154SOL    HW252884   0.080   9.303   0.161  0.8685 -0.2188 -0.0919
17155SOL     OW52885   7.580   7.538   4.999 -0.0860  0.5355  0.3731
17155SOL    HW152886   7.618   7.543   4.912 -0.5715 -0.8473  0.0530
17155SOL    HW252887   7.487   7.559   4.986 -0.1677  0.2914  0.5400
17156SOL     OW52888   0.342   4.439   7.189 -0.7170 -0.1234  0.4279
17156SOL    HW152889   0.314   4.440   7.098 -1.5474 -1.0029  0.6625
17156SOL    HW252890   0.358   4.346   7.208 -0.2697  0.0842  1.0919
17157SOL     OW52891   3.761   3.202   2.846  0.2247 -0.0752  0.2025
17157SOL    HW152892   3.672   3.180   2.818 -0.3231 -1.4087  2.6826
17157SOL    HW252893   3.756   3.293   2.875  0.3282  0.6632 -1.9650
17158SOL     OW52894   8.761   2.971   4.736  0.0149 -0.0305 -0.4545
17158SOL    HW152895   8.712   3.022   4.800 -2.1601 -1.8424 -0.5475
17158SOL    HW252896   8.768   2.883   4.775  2.1141 -0.1808 -1.0376
17159SOL     OW52897   8.736   0.463   8.964  0.0836  0.6975 -0.3669
17159SOL    HW152898   8.807   0.403   8.989  0.1171  0.5855 -0.7240
17159SOL    HW252899   8.658   0.409   8.964 -0.2466  1.1053  1.3428
17160SOL     OW52900   1.942   4.405   3.622  0.0072 -0.3754 -0.2082
17160SOL    HW152901   1.905   4.489   3.650  0.0103 -0.0214 -1.2279
17160SOL    HW252902   1.874   4.367   3.566  0.3567 -0.6566 -0.4433
17161SOL     OW52903   1.470   6.426   4.981  0.4432 -0.3269  0.2948
17161SOL    HW152904   1.499   6.385   4.899  0.0136  2.4174 -1.3733
17161SOL    HW252905   1.510   6.513   4.980 -1.6562  0.7384  1.7026
17162SOL     OW52906   6.237   5.116   6.753 -0.2236  0.1493  0.4087
17162SOL    HW152907   6.149   5.126   6.717 -0.4810 -1.8581  0.4035
17162SOL    HW252908   6.296   5.124   6.678 -0.6917 -2.7745 -0.3965
17163SOL     OW52909   1.053   6.185   6.798  0.3034 -0.3898 -0.3146
17163SOL    HW152910   1.038   6.090   6.790 -2.1553 -0.4487  3.0374
17163SOL    HW252911   1.082   6.197   6.888 -0.5695  2.1776 -0.3125
17164SOL     OW52912   4.622   1.771   9.110 -0.3028  0.1625  0.1061
17164SOL    HW152913   4.689   1.725   9.060  1.1834  0.5839  1.6154
17164SOL    HW252914   4.595   1.708   9.177 -0.6102  0.3675  0.1762
17165SOL     OW52915   7.335   5.634   7.733  0.5980  0.0440 -0.2124
17165SOL    HW152916   7.387   5.557   7.708 -0.9791 -0.9143 -0.6701
17165SOL    HW252917   7.379   5.707   7.689  1.5608 -0.7249 -0.5706
17166SOL     OW52918   5.861   2.456   4.240 -0.0490 -0.2780 -0.3103
17166SOL    HW152919   5.852   2.389   4.308 -0.4501 -0.8423 -0.9019
17166SOL    HW252920   5.880   2.407   4.160  1.6506  0.4571 -0.4033
17167SOL     OW52921   6.987   2.902   8.406 -0.0117  0.1347 -0.0912
17167SOL    HW152922   7.000   2.982   8.355 -0.5265 -0.0499 -0.5250
17167SOL    HW252923   6.943   2.842   8.346 -1.4119  0.2055  0.8255
17168SOL     OW52924   6.716   6.570   9.190  0.4143  0.1355  0.3790
17168SOL    HW152925   6.681   6.481   9.192  0.4012  0.1342  0.0965
17168SOL    HW252926   6.732   6.592   9.282  0.5358 -0.2029  0.4365
17169SOL     OW52927   6.084   6.162   7.178  0.1109  0.0691  0.3593
17169SOL    HW152928   6.133   6.243   7.167  0.5673 -0.2567 -0.0985
17169SOL    HW252929   6.113   6.128   7.264  2.8019 -1.4641 -0.9948
17170SOL     OW52930   8.280   2.514   7.454  0.5381 -0.1082  0.2158
17170SOL    HW152931   8.368   2.484   7.433  0.5167 -0.2250  0.2934
17170SOL    HW252932   8.285   2.541   7.546 -0.1919 -2.7877  1.1483
17171SOL     OW52933   5.174   4.612   3.808  0.2339 -0.1719 -0.0026
17171SOL    HW152934   5.126   4.662   3.873  1.3533 -0.7958  1.3531
17171SOL    HW252935   5.184   4.672   3.734  1.3686  1.5843  1.4857
17172SOL     OW52936   6.082   7.325   4.678 -0.1639 -0.3096 -0.0738
17172SOL    HW152937   6.090   7.268   4.602 -0.4304 -0.8043  0.2630
17172SOL    HW252938   5.991   7.356   4.675 -0.7799 -1.8672  1.0970
17173SOL     OW52939   3.214   6.667   8.069  0.4908  0.4172  0.1461
17173SOL    HW152940   3.279   6.597   8.077 -2.1184 -1.9944  2.5912
17173SOL    HW252941   3.218   6.713   8.153 -1.6285 -0.5389  0.8379
17174SOL     OW52942   7.193   5.297   0.589  0.5762  0.4736  0.2470
17174SOL    HW152943   7.132   5.325   0.521  0.6291  0.9257  0.3836
17174SOL    HW252944   7.258   5.244   0.543 -0.7379 -1.2945  0.3205
17175SOL     OW52945   3.746   6.451   8.563  0.4922  0.2600 -0.5188
17175SOL    HW152946   3.684   6.400   8.614  0.7381 -1.8995 -2.2130
17175SOL    HW252947   3.832   6.425   8.597  0.5803  0.5370 -0.5295
17176SOL     OW52948   1.355   1.211   8.715  0.4279  0.1430  0.6547
17176SOL    HW152949   1.294   1.261   8.661 -0.0049  1.6426  2.4351
17176SOL    HW252950   1.300   1.151   8.765  0.6834 -0.2628  0.4563
17177SOL     OW52951   8.842   1.791   6.878 -0.1986  0.3657 -0.2572
17177SOL    HW152952   8.877   1.842   6.951 -0.7230  0.0033  0.2502
17177SOL    HW252953   8.808   1.711   6.918 -1.7759  0.7815 -0.6971
17178SOL     OW52954   6.432   6.522   3.043 -0.1973 -0.3542 -0.5174
17178SOL    HW152955   6.438   6.615   3.063 -0.3138  0.3188 -3.1791
17178SOL    HW252956   6.341   6.499   3.061  0.0624 -0.2461  1.0793
17179SOL     OW52957   0.891   1.697   2.035 -0.0361  0.2460  0.0770
17179SOL    HW152958   0.877   1.673   1.943  0.2303 -0.6572  0.2659
17179SOL    HW252959   0.828   1.643   2.083  1.5612 -1.1960  0.6335
17180SOL     OW52960   7.307   6.902   7.522  0.0073  0.2160 -0.6076
17180SOL    HW152961   7.265   6.908   7.436  1.1357  1.0173 -1.1239
17180SOL    HW252962   7.332   6.992   7.543  1.3274 -0.2049 -0.2727
17181SOL     OW52963   8.143   8.874   7.618 -0.2178 -0.1581 -0.0017
17181SOL    HW152964   8.176   8.784   7.623 -0.7592 -0.3054  2.2240
17181SOL    HW252965   8.197   8.916   7.551  2.5556 -1.1838  1.4224
17182SOL     OW52966   7.835   8.151   7.761 -0.3571  0.2271  0.6714
17182SOL    HW152967   7.771   8.130   7.694  0.8206 -1.1587 -0.0765
17182SOL    HW252968   7.783   8.180   7.836 -1.7275  1.1864 -0.5927
17183SOL     OW52969   7.453   6.725   6.252 -0.0559  0.2195 -0.4713
17183SOL    HW152970   7.433   6.710   6.160  0.5518  0.5668 -0.6695
17183SOL    HW252971   7.393   6.795   6.279 -0.0859  0.2680 -0.6629
17184SOL     OW52972   6.398   6.514   2.528  0.2627  0.0775  0.1938
17184SOL    HW152973   6.391   6.465   2.610 -0.1681  0.9163  0.6839
17184SOL    HW252974   6.314   6.500   2.485  1.0671 -1.6919 -0.9191
17185SOL     OW52975   1.592   4.537   7.002 -0.4017 -0.0411 -0.5964
17185SOL    HW152976   1.559   4.607   6.944 -1.9984 -0.4437 -0.2352
17185SOL    HW252977   1.547   4.458   6.971 -1.9145 -0.1324  1.6497
17186SOL     OW52978   5.322   2.356   4.595  0.3377  0.6852 -0.5994
17186SOL    HW152979   5.302   2.449   4.600  1.2401  0.8409  0.4756
17186SOL    HW252980   5.236   2.313   4.596 -0.0955  1.3902  2.3847
17187SOL     OW52981   7.164   7.573   0.172  0.0167 -0.0477 -0.2677
17187SOL    HW152982   7.153   7.587   0.078  1.1354  0.4308 -0.3393
17187SOL    HW252983   7.251   7.608   0.191  0.4245 -1.5041  0.6753
17188SOL     OW52984   2.568   8.927   1.722 -0.5029 -0.1954 -0.1646
17188SOL    HW152985   2.621   9.007   1.720  0.2907 -0.7114 -0.3779
17188SOL    HW252986   2.493   8.950   1.777 -0.9905  1.1185 -1.3071
17189SOL     OW52987   1.336   5.720   4.623 -0.2361  0.0258  0.0085
17189SOL    HW152988   1.380   5.637   4.605  0.0683 -0.2994  2.0033
17189SOL    HW252989   1.265   5.698   4.684  0.1213  1.2664  0.9296
17190SOL     OW52990   6.198   3.079   5.413  0.2613  0.3357  0.0344
17190SOL    HW152991   6.162   3.103   5.499  0.9099  1.8488 -0.0823
17190SOL    HW252992   6.292   3.089   5.423  0.3370  0.6174 -0.8801
17191SOL     OW52993   5.803   3.451   0.654  0.0981  0.1710 -0.1713
17191SOL    HW152994   5.854   3.375   0.624  0.2273  0.3000 -0.2795
17191SOL    HW252995   5.730   3.413   0.703  0.2457 -0.0189 -0.0955
17192SOL     OW52996   7.242   1.691   1.691 -0.5867  0.3808  0.2445
17192SOL    HW152997   7.201   1.621   1.742 -1.0681  0.8824  0.5503
17192SOL    HW252998   7.202   1.771   1.723 -0.6461  0.7340 -0.6826
17193SOL     OW52999   2.646   2.147   4.446 -0.4503 -0.1796  0.2011
17193SOL    HW153000   2.734   2.110   4.451 -1.3116 -2.4501 -0.0477
17193SOL    HW253001   2.655   2.236   4.480  2.0902 -0.0212 -0.6644
17194SOL     OW53002   7.044   5.329   7.054 -0.0466 -0.1792 -0.0921
17194SOL    HW153003   7.049   5.233   7.054 -0.9233 -0.2313  0.3009
17194SOL    HW253004   6.954   5.348   7.077 -0.0136  0.7428 -0.6988
17195SOL     OW53005   1.340   6.525   1.079 -0.7399 -0.1559  0.6561
17195SOL    HW153006   1.342   6.438   1.119 -1.0479  0.1318  1.3128
17195SOL    HW253007   1.321   6.508   0.987  2.0007 -0.9709  0.1576
17196SOL     OW53008   7.509   5.997   8.043 -0.4585  0.2139 -0.4151
17196SOL    HW153009   7.483   6.078   8.086 -0.8712 -0.3238  0.3768
17196SOL    HW253010   7.490   6.012   7.950  0.6387  1.4641 -0.4716
17197SOL     OW53011   0.702   3.606   8.972 -0.5560  0.2775 -0.3869
17197SOL    HW153012   0.647   3.618   8.895  0.8790  1.1196 -1.3374
17197SOL    HW253013   0.784   3.651   8.950 -0.0212  0.3246  1.5445
17198SOL     OW53014   2.550   4.790   0.094  0.0997  0.3272  0.3569
17198SOL    HW153015   2.511   4.702   0.092 -1.2592  0.9071 -0.2920
17198SOL    HW253016   2.518   4.829   0.175  0.2219  0.4239  0.3583
17199SOL     OW53017   5.515   3.674   3.394 -0.6007 -0.2720  0.0638
17199SOL    HW153018   5.481   3.749   3.441 -1.4286  0.1944 -1.2282
17199SOL    HW253019   5.558   3.621   3.461  1.8741  2.3310  0.7467
17200SOL     OW53020   0.756   2.368   0.667  0.3146 -0.4372  0.0606
17200SOL    HW153021   0.701   2.344   0.741  0.9128 -0.3634  0.5368
17200SOL    HW253022   0.813   2.292   0.653 -0.3089 -0.7614 -0.8213
17201SOL     OW53023   8.347   8.865   5.622  0.2236 -0.8183 -0.2608
17201SOL    HW153024   8.322   8.877   5.713  0.1698  0.2481 -0.4018
17201SOL    HW253025   8.286   8.800   5.588 -2.5827  1.8041 -0.6327
17202SOL     OW53026   9.206   2.106   1.793  0.1233 -0.0903 -0.2000
17202SOL    HW153027   9.245   2.029   1.835 -0.8854 -0.6531 -0.2425
17202SOL    HW253028   9.217   2.177   1.856 -0.2343 -0.6268  0.4773
17203SOL     OW53029   8.230   4.253   6.586  1.4492  0.2592 -0.3037
17203SOL    HW153030   8.182   4.285   6.662  2.2575 -0.4872  0.5555
17203SOL    HW253031   8.315   4.226   6.621  2.1297  0.6357 -1.6180
17204SOL     OW53032   0.312   1.408   8.409  0.3584 -0.4303 -0.0921
17204SOL    HW153033   0.368   1.342   8.370  1.6461  1.5258 -1.7819
17204SOL    HW253034   0.350   1.425   8.495  0.6049 -1.1448 -0.0542
17205SOL     OW53035   6.732   2.067   5.206  0.3350 -0.1312 -0.0516
17205SOL    HW153036   6.812   2.111   5.231  0.4750 -0.9526  1.0220
17205SOL    HW253037   6.745   2.044   5.114  1.1067  0.1978 -0.0325
17206SOL     OW53038   4.999   1.105   2.655 -0.3198  0.0684  0.1201
17206SOL    HW153039   5.085   1.148   2.655 -0.4026  0.2367  0.1245
17206SOL    HW253040   4.944   1.164   2.707 -0.4840  0.0526 -0.0383
17207SOL     OW53041   8.723   2.871   8.251 -0.0003  0.2476 -0.3353
17207SOL    HW153042   8.779   2.822   8.191  1.4068  1.8847 -0.4412
17207SOL    HW253043   8.728   2.822   8.334  2.0735  0.6185 -0.1827
17208SOL     OW53044   5.704   0.846   8.073  0.1607  0.6024  0.0598
17208SOL    HW153045   5.716   0.929   8.027 -1.6326  1.0162  0.2755
17208SOL    HW253046   5.725   0.865   8.164  0.7584  0.5422 -0.0600
17209SOL     OW53047   6.437   8.239   7.277 -0.1654  0.1144  0.0280
17209SOL    HW153048   6.493   8.162   7.292 -0.0213  0.5060  1.7455
17209SOL    HW253049   6.361   8.205   7.230 -0.0399 -1.0610  0.6413
17210SOL     OW53050   0.130   8.406   4.543  0.2708 -0.3146  0.3500
17210SOL    HW153051   0.144   8.373   4.454  0.3625  1.1271 -0.1938
17210SOL    HW253052   0.035   8.410   4.553  0.2611 -0.4016  0.3045
17211SOL     OW53053   1.394   8.463   2.525  0.4634  0.7024  0.4755
17211SOL    HW153054   1.330   8.495   2.462  1.8859  1.5589 -0.6032
17211SOL    HW253055   1.374   8.510   2.606 -0.8835  0.1933  0.4586
17212SOL     OW53056   1.286   0.301   3.743 -0.3961 -0.5221 -0.0110
17212SOL    HW153057   1.226   0.372   3.763 -0.8227 -0.7542 -0.4419
17212SOL    HW253058   1.263   0.274   3.654  0.6564 -0.3058 -0.3741
17213SOL     OW53059   6.088   2.826   1.904 -0.0630 -0.5495 -0.0481
17213SOL    HW153060   6.037   2.872   1.837 -0.2443 -0.2534  0.2877
17213SOL    HW253061   6.062   2.734   1.895 -0.4846 -0.4347 -0.0348
17214SOL     OW53062   1.317   5.302   2.586  0.2460  0.1473 -0.0833
17214SOL    HW153063   1.326   5.238   2.516  1.8657 -1.2600  1.2975
17214SOL    HW253064   1.230   5.339   2.575 -0.2496 -1.3860 -1.6972
17215SOL     OW53065   4.156   8.157   5.606  0.0709 -0.5212 -0.2742
17215SOL    HW153066   4.199   8.166   5.521 -1.7347  0.6095 -1.1361
17215SOL    HW253067   4.221   8.187   5.669  1.4342 -1.3297 -1.2370
17216SOL     OW53068   3.139   3.678   1.979  0.3695 -0.5920  0.8286
17216SOL    HW153069   3.224   3.720   1.993  0.1444 -0.1435  0.8823
17216SOL    HW253070   3.098   3.676   2.065 -0.7987  1.7018  0.4200
17217SOL     OW53071   0.003   0.397   7.503 -0.0492  0.5301 -0.0678
17217SOL    HW153072   0.027   0.466   7.565 -0.1075  0.6922 -0.2240
17217SOL    HW253073   0.001   0.317   7.556  0.8259  0.5130 -0.0607
17218SOL     OW53074   2.600   5.583   5.160 -0.6563 -0.0926 -0.1681
17218SOL    HW153075   2.519   5.532   5.170 -1.6679  1.4788 -0.1270
17218SOL    HW253076   2.580   5.647   5.092  0.2593  0.9192  0.4948
17219SOL     OW53077   1.776   8.808   2.356 -0.0431 -0.1939  0.6301
17219SOL    HW153078   1.690   8.848   2.346 -0.0525 -0.3509  0.0447
17219SOL    HW253079   1.763   8.716   2.338  0.9193  0.3174 -3.7210
17220SOL     OW53080   4.215   8.623   3.810  0.4099  0.8028 -0.5707
17220SOL    HW153081   4.303   8.599   3.784  0.8805  0.6485  1.0154
17220SOL    HW253082   4.202   8.578   3.894 -1.3348  0.4811 -0.9768
17221SOL     OW53083   0.022   6.945   2.583 -0.1082 -0.3468  0.1611
17221SOL    HW153084   0.115   6.965   2.598 -0.7494  0.8243  3.2676
17221SOL    HW253085  -0.002   6.886   2.654 -2.3430  1.5516  1.1073
17222SOL     OW53086   6.214   4.828   0.867 -0.2654  0.4081  0.3262
17222SOL    HW153087   6.192   4.790   0.783  1.2440  2.3952 -1.0703
17222SOL    HW253088   6.302   4.865   0.855 -0.4897  1.8343  2.3734
17223SOL     OW53089   4.484   8.029   0.875  0.0523 -0.2389 -0.6640
17223SOL    HW153090   4.428   8.004   0.948  1.3669  0.1615  0.5383
17223SOL    HW253091   4.477   7.957   0.812  0.2691 -1.4734  0.6789
17224SOL     OW53092   2.644   1.545   4.239 -0.1008  0.5366 -0.4795
17224SOL    HW153093   2.602   1.587   4.164 -0.7773  1.2922  0.3108
17224SOL    HW253094   2.738   1.553   4.221 -0.2266 -1.3540 -2.3641
17225SOL     OW53095   6.143   8.026   6.879  0.3961  0.4306 -1.1275
17225SOL    HW153096   6.102   8.032   6.792 -0.6343 -3.3612 -1.0798
17225SOL    HW253097   6.220   7.971   6.866  0.5994  0.3432  0.2671
17226SOL     OW53098   1.097   2.530   7.775 -0.0380  0.1187 -0.0405
17226SOL    HW153099   1.027   2.595   7.776 -0.1853 -0.0440  0.2676
17226SOL    HW253100   1.175   2.579   7.747  0.3740  0.9820  2.3762
17227SOL     OW53101   1.997   5.868   6.218 -0.0680  0.2588 -0.1773
17227SOL    HW153102   2.024   5.810   6.147 -1.0916  0.8352 -1.0560
17227SOL    HW253103   1.919   5.825   6.255  0.0916  0.2856  0.1963
17228SOL     OW53104   6.467   8.385   6.980  0.4109  0.5528  0.3864
17228SOL    HW153105   6.439   8.477   6.986  1.0241  0.6934  1.2111
17228SOL    HW253106   6.492   8.361   7.069 -0.1541 -0.5573  0.2642
17229SOL     OW53107   2.281   5.543   1.080  0.5730  0.8357  0.7781
17229SOL    HW153108   2.284   5.637   1.098 -2.9763  1.3457 -0.4489
17229SOL    HW253109   2.306   5.502   1.163 -1.1756  2.9344  2.4863
17230SOL     OW53110   3.582   9.025   1.105 -0.3600 -0.3658  0.6290
17230SOL    HW153111   3.599   8.952   1.046 -1.1776 -0.6930  0.7780
17230SOL    HW253112   3.651   9.020   1.171  1.0931  0.5256 -0.7487
17231SOL     OW53113   8.597   5.540   3.203 -0.2110  0.6130  0.3827
17231SOL    HW153114   8.618   5.449   3.222  0.8501 -0.1081 -3.4307
17231SOL    HW253115   8.655   5.591   3.260 -0.5585 -0.9982  2.3148
17232SOL     OW53116   7.982   7.068   7.724 -0.4290  0.2121  0.0799
17232SOL    HW153117   7.962   7.080   7.817  0.5793  0.3334  0.2892
17232SOL    HW253118   8.009   7.155   7.694 -0.0788  0.0248 -0.1569
17233SOL     OW53119   2.616   2.267   0.042  0.1191 -0.4638  0.2960
17233SOL    HW153120   2.580   2.180   0.021 -0.0586 -0.6249  1.2243
17233SOL    HW253121   2.703   2.248   0.078  0.4512 -0.1879 -0.3487
17234SOL     OW53122   0.328   8.717   4.855  0.2011 -0.3577  0.3477
17234SOL    HW153123   0.265   8.696   4.786  0.0985  2.9716 -0.7456
17234SOL    HW253124   0.413   8.701   4.815  0.1140 -0.6166  0.2641
17235SOL     OW53125   1.928   5.184   1.005  0.2405  0.2241  0.1570
17235SOL    HW153126   1.980   5.149   0.933  0.0973 -0.9708  0.5979
17235SOL    HW253127   1.837   5.164   0.981  0.3152 -2.8495  1.9089
17236SOL     OW53128   7.722   7.756   7.926 -0.5714  0.3740  0.1406
17236SOL    HW153129   7.800   7.761   7.981 -1.2516 -2.2068  1.5038
17236SOL    HW253130   7.754   7.719   7.843 -0.2139  0.1260  0.3860
17237SOL     OW53131   6.378   8.151   0.995  0.3585  0.2873  0.0363
17237SOL    HW153132   6.302   8.197   0.959 -0.1254 -0.0118  0.6494
17237SOL    HW253133   6.361   8.058   0.977  0.0881  0.1280  1.0398
17238SOL     OW53134   7.515   1.703   4.283 -0.1324 -0.0018 -0.1777
17238SOL    HW153135   7.610   1.693   4.276 -0.2394 -0.6604 -0.7309
17238SOL    HW253136   7.483   1.691   4.193 -0.9355 -1.9049  0.3362
17239SOL     OW53137   8.684   1.580   1.372 -0.0539  0.0811  0.1609
17239SOL    HW153138   8.734   1.502   1.395 -1.0801 -0.6597 -0.0474
17239SOL    HW253139   8.714   1.602   1.284  0.1042 -0.1847  0.1465
17240SOL     OW53140   4.521   8.853   8.616  0.0803 -0.0220  0.6908
17240SOL    HW153141   4.603   8.805   8.614 -0.0222 -0.1589 -0.4630
17240SOL    HW253142   4.467   8.812   8.549 -0.1641  1.4248 -0.0267
17241SOL     OW53143   4.239   2.599   5.676  0.2866 -0.4255 -0.0951
17241SOL    HW153144   4.331   2.612   5.651 -0.4862  0.5897 -2.6894
17241SOL    HW253145   4.214   2.681   5.719  0.4783 -0.6058  0.3796
17242SOL     OW53146   6.823   1.344   5.114  0.3112 -0.1225  0.6799
17242SOL    HW153147   6.871   1.307   5.189  1.2824  0.3517  0.3122
17242SOL    HW253148   6.891   1.384   5.060 -0.2276 -1.3350 -0.9898
17243SOL     OW53149   7.509   8.560   7.745  0.2133  0.7534 -0.0793
17243SOL    HW153150   7.423   8.522   7.761  0.2447  0.7230  0.0149
17243SOL    HW253151   7.548   8.503   7.678  0.9448 -0.4179  1.2840
17244SOL     OW53152   3.324   2.406   2.073  0.3212  0.3582  0.0985
17244SOL    HW153153   3.382   2.463   2.022  1.2924  1.4293  2.2871
17244SOL    HW253154   3.375   2.382   2.150 -2.2770  1.8638  2.4793
17245SOL     OW53155   5.056   2.607   3.320  0.3627  0.6563  0.0468
17245SOL    HW153156   5.075   2.516   3.300 -1.0237  0.1869  0.7717
17245SOL    HW253157   5.113   2.629   3.393 -1.9865 -0.8661  2.5064
17246SOL     OW53158   2.851   6.997   4.368  0.2229 -0.3227  0.3015
17246SOL    HW153159   2.939   7.033   4.362 -0.1215  0.2780 -2.7122
17246SOL    HW253160   2.796   7.072   4.393  0.0662  0.3489 -1.8960
17247SOL     OW53161   6.048   9.171   8.952 -0.3082  0.2557 -0.4162
17247SOL    HW153162   6.102   9.245   8.926  1.6071 -0.5233  1.0899
17247SOL    HW253163   6.053   9.170   9.047  0.1203 -2.0532 -0.4031
17248SOL     OW53164   4.035   8.305   1.033 -0.2994 -0.0946  0.2290
17248SOL    HW153165   4.038   8.222   0.985 -0.2675  0.4991 -0.8239
17248SOL    HW253166   4.037   8.279   1.125  1.3316 -1.1946 -0.0748
17249SOL     OW53167   0.329   1.267   6.423 -0.3330 -0.0156  0.1352
17249SOL    HW153168   0.391   1.295   6.355  0.0966  0.8022  0.8464
17249SOL    HW253169   0.332   1.337   6.489 -1.5680 -0.2508  0.4746
17250SOL     OW53170   1.056   4.003   8.389 -0.8372  0.0706  0.1065
17250SOL    HW153171   1.039   3.981   8.298 -0.6644  2.9002 -0.7082
17250SOL    HW253172   1.145   3.972   8.406 -0.5049  0.3789 -1.0127
17251SOL     OW53173   3.779   5.561   2.483  0.0749 -0.1172 -0.0002
17251SOL    HW153174   3.739   5.556   2.570 -0.9574 -1.9727 -0.5280
17251SOL    HW253175   3.852   5.499   2.488 -0.3131 -0.6344 -0.5954
17252SOL     OW53176   7.148   4.272   3.930  0.0020  0.1252 -0.5115
17252SOL    HW153177   7.155   4.320   3.847  0.3544 -0.6168 -0.9235
17252SOL    HW253178   7.210   4.316   3.988 -0.1344  0.5553 -0.6894
17253SOL     OW53179   5.819   0.885   3.528  0.0272  0.6162 -0.0342
17253SOL    HW153180   5.786   0.797   3.547 -0.4251  1.0326  1.2116
17253SOL    HW253181   5.883   0.872   3.457 -0.0322 -0.7074  0.1290
17254SOL     OW53182   3.706   2.559   6.002 -0.6246  0.2511  0.1346
17254SOL    HW153183   3.770   2.609   5.952 -1.7758  1.0437 -0.5954
17254SOL    HW253184   3.754   2.528   6.079  1.3749 -1.4761 -1.6635
17255SOL     OW53185   1.292   8.143   3.892  0.0486  0.2442 -0.3374
17255SOL    HW153186   1.323   8.180   3.810  1.2478 -1.5644 -0.7447
17255SOL    HW253187   1.371   8.135   3.946 -0.7847  1.9247  1.2715
17256SOL     OW53188   6.192   3.802   7.129 -0.0179  0.1534 -0.1974
17256SOL    HW153189   6.158   3.739   7.193  1.2156 -1.8778 -1.4409
17256SOL    HW253190   6.166   3.767   7.044  1.5562  0.7632 -0.9754
17257SOL     OW53191   3.360   2.554   2.571  0.2944  0.2729 -0.3615
17257SOL    HW153192   3.414   2.604   2.510  0.8691 -1.1936 -1.1152
17257SOL    HW253193   3.417   2.482   2.600 -0.5929 -0.1391  0.4290
17258SOL     OW53194   0.237   9.051   9.166 -0.2497  0.4968  0.3224
17258SOL    HW153195   0.282   9.052   9.251  0.4260  2.7738  0.0033
17258SOL    HW253196   0.191   9.135   9.162  0.4800  0.8639 -1.9329
17259SOL     OW53197   4.416   0.527   3.402 -0.0040  0.0300  0.6245
17259SOL    HW153198   4.510   0.511   3.404  0.2537  1.4777  1.3164
17259SOL    HW253199   4.406   0.607   3.351 -0.9753 -0.6308 -0.2845
17260SOL     OW53200   2.396   4.333   7.852  0.2803 -0.0171 -0.4184
17260SOL    HW153201   2.453   4.258   7.867  0.5926  0.5348  1.4438
17260SOL    HW253202   2.457   4.407   7.844 -0.0665  0.1854 -1.2897
17261SOL     OW53203   4.894   4.912   5.035  0.4115  0.1668  0.1987
17261SOL    HW153204   4.923   4.896   4.946 -0.0103 -0.0157  0.0908
17261SOL    HW253205   4.799   4.922   5.028  0.5929  2.7951  0.2156
17262SOL     OW53206   6.294   7.014   6.834 -0.1969 -0.2496 -0.1405
17262SOL    HW153207   6.309   6.959   6.757  1.3296 -0.8441  0.5303
17262SOL    HW253208   6.361   6.986   6.896 -0.6048  1.0777  0.9447
17263SOL     OW53209   4.513   2.721   4.712 -0.1336  0.0856 -0.0368
17263SOL    HW153210   4.578   2.786   4.740  0.6575 -1.2234  1.2697
17263SOL    HW253211   4.448   2.721   4.781 -1.2035  0.8763 -1.0036
17264SOL     OW53212   0.795   3.437   2.082 -0.7111  0.0589  0.2391
17264SOL    HW153213   0.839   3.397   2.008 -0.2608  1.5915 -0.3590
17264SOL    HW253214   0.865   3.459   2.143 -0.7153  1.5567 -0.2537
17265SOL     OW53215   4.303   4.757   6.465  0.4101 -0.3883 -0.5825
17265SOL    HW153216   4.246   4.714   6.529  0.4712 -0.3145 -0.4797
17265SOL    HW253217   4.390   4.723   6.484  0.3549 -0.7487 -0.9472
17266SOL     OW53218   3.760   5.378   1.950 -0.1172  0.7256  0.4601
17266SOL    HW153219   3.735   5.307   2.009  1.1282  0.5252  0.7852
17266SOL    HW253220   3.743   5.458   2.000 -0.3220  0.6082  0.5788
17267SOL     OW53221   0.495   6.456   3.285  0.0988  0.2071  0.0813
17267SOL    HW153222   0.479   6.443   3.379 -1.9949 -0.1807 -0.2932
17267SOL    HW253223   0.431   6.400   3.241  1.4754 -0.1205 -1.6143
17268SOL     OW53224   2.032   5.356   8.894 -0.5989  0.1348 -0.3472
17268SOL    HW153225   2.094   5.341   8.966 -0.4639 -1.4441 -0.7498
17268SOL    HW253226   1.954   5.391   8.936  0.0091  0.6534  0.3760
17269SOL     OW53227   0.185   7.474   6.619 -0.0786  0.0493  0.5898
17269SOL    HW153228   0.212   7.408   6.555 -1.4635  0.3410 -0.3498
17269SOL    HW253229   0.191   7.557   6.572 -1.9082  0.1877  0.5226
17270SOL     OW53230   8.196   7.054   0.377  0.1139  0.4328  0.0995
17270SOL    HW153231   8.181   7.093   0.464 -1.1880  1.5624 -0.5883
17270SOL    HW253232   8.115   7.005   0.359 -0.4403  1.7662 -1.2449
17271SOL     OW53233   1.221   1.615   8.791  0.2428  0.0890 -0.3713
17271SOL    HW153234   1.305   1.625   8.745  0.8904 -0.7110  0.5911
17271SOL    HW253235   1.224   1.683   8.859  0.5551 -0.5662  0.2819
17272SOL     OW53236   0.674   3.863   4.043  0.1224  0.3149 -0.2115
17272SOL    HW153237   0.769   3.861   4.048  0.1663  2.6169  0.5859
17272SOL    HW253238   0.645   3.827   4.126  0.3222  0.8108  0.0749
17273SOL     OW53239   5.135   3.693   4.280 -0.1259 -0.1639  0.7272
17273SOL    HW153240   5.132   3.745   4.199 -0.2053 -0.2047  0.7040
17273SOL    HW253241   5.218   3.645   4.274 -0.0658 -0.0626  0.7349
17274SOL     OW53242   4.071   2.843   2.101 -0.0303  0.8178 -0.2087
17274SOL    HW153243   4.108   2.847   2.189  0.0528  0.6958 -0.2375
17274SOL    HW253244   4.126   2.780   2.055 -0.3118  0.5883 -0.2344
17275SOL     OW53245   0.914   4.927   0.261 -0.1404 -0.4987  0.4584
17275SOL    HW153246   0.938   4.936   0.169 -1.2680 -0.1423  0.1755
17275SOL    HW253247   0.942   5.008   0.302 -1.1899  0.1024  0.0411
17276SOL     OW53248   9.080   7.647   7.736 -0.8363 -0.2508  0.7247
17276SOL    HW153249   9.101   7.712   7.804 -1.1922  0.8373 -0.1629
17276SOL    HW253250   9.011   7.593   7.775  0.0350 -0.6343  1.7810
17277SOL     OW53251   8.082   3.729   4.945  0.4895  0.0498  0.4028
17277SOL    HW153252   8.022   3.672   4.993  0.6586 -0.4260  0.0501
17277SOL    HW253253   8.155   3.744   5.005  0.5906 -0.3563  0.3804
17278SOL     OW53254   8.716   9.174   1.525 -0.1282 -0.1746  0.8060
17278SOL    HW153255   8.668   9.184   1.443  1.2413  1.9266  0.1888
17278SOL    HW253256   8.712   9.080   1.544 -0.0731 -0.8008 -1.9196
17279SOL     OW53257   5.837   4.883   8.712  0.0538 -0.0582  0.1326
17279SOL    HW153258   5.847   4.874   8.618  1.3096 -1.8466  0.3869
17279SOL    HW253259   5.924   4.867   8.748 -0.4611  0.2666  1.6241
17280SOL     OW53260   8.464   7.307   5.929 -0.7047  0.0650 -0.0851
17280SOL    HW153261   8.408   7.233   5.907 -1.5992  0.1464  1.7198
17280SOL    HW253262   8.486   7.294   6.021  1.9326  0.2908 -0.6120
17281SOL     OW53263   1.869   8.676   6.356 -0.1533 -0.1528  0.3295
17281SOL    HW153264   1.902   8.739   6.420 -0.8118  0.4204  0.1208
17281SOL    HW253265   1.773   8.681   6.364 -0.2276 -1.8073  0.9551
17282SOL     OW53266   1.252   6.767   4.088  0.0773  0.3073 -0.2861
17282SOL    HW153267   1.295   6.683   4.075  0.9922  0.7447 -0.1811
17282SOL    HW253268   1.174   6.763   4.032 -0.0909 -0.7409  0.0024
17283SOL     OW53269   2.834   3.386   6.517 -0.2049  0.2644  0.4781
17283SOL    HW153270   2.785   3.468   6.517 -0.1066  0.3922 -2.0454
17283SOL    HW253271   2.790   3.332   6.583 -1.9792  1.3977  0.2881
17284SOL     OW53272   0.025   7.162   0.843  0.0073 -0.0810 -0.0405
17284SOL    HW153273   0.096   7.111   0.805  0.6707  1.0398 -0.3436
17284SOL    HW253274  -0.011   7.106   0.912  2.0979 -0.1358  1.0659
17285SOL     OW53275   7.029   8.794   6.036 -0.0672 -0.1153  0.1730
17285SOL    HW153276   7.017   8.766   5.945  0.7863  0.1234 -0.0239
17285SOL    HW253277   6.940   8.798   6.072 -0.2876 -3.4404  0.3553
17286SOL     OW53278   1.435   0.352   5.926 -0.0319 -0.5499 -0.4938
17286SOL    HW153279   1.378   0.423   5.955  0.8476 -0.6907  1.7273
17286SOL    HW253280   1.524   0.387   5.936  0.3714 -1.5023 -0.6431
17287SOL     OW53281   5.629   3.607   6.582 -0.7412  0.0065  0.2707
17287SOL    HW153282   5.553   3.592   6.639  0.0318  0.3548  1.4274
17287SOL    HW253283   5.631   3.702   6.569  0.1936  0.1396  1.2670
17288SOL     OW53284   2.914   8.611   1.754 -0.0886  0.2127 -0.1280
17288SOL    HW153285   2.999   8.647   1.729  0.0475  1.3023  1.7284
17288SOL    HW253286   2.856   8.633   1.681  1.2884 -1.0868 -1.7157
17289SOL     OW53287   7.071   3.461   2.886 -0.0963  0.0856  0.2336
17289SOL    HW153288   7.036   3.500   2.806  0.4788  0.0015 -0.0658
17289SOL    HW253289   7.012   3.490   2.955 -1.5802 -1.1716 -0.4351
17290SOL     OW53290   8.948   0.791   0.305  0.0719 -0.1305  0.1096
17290SOL    HW153291   8.995   0.798   0.222 -1.2219  1.7616 -0.5221
17290SOL    HW253292   8.869   0.844   0.293 -1.4962 -1.9450  1.6463
17291SOL     OW53293   3.389   6.558   7.512 -0.5452 -0.0043 -0.1939
17291SOL    HW153294   3.419   6.645   7.537 -0.1002  0.4488 -2.1132
17291SOL    HW253295   3.293   6.564   7.515 -0.5215  0.6434 -0.5934
17292SOL     OW53296   7.257   3.182   5.494  0.0282 -0.0142  0.2073
17292SOL    HW153297   7.288   3.265   5.529 -0.3318  0.5287 -0.7148
17292SOL    HW253298   7.166   3.176   5.524  0.1238 -0.1897  0.4655
17293SOL     OW53299   6.013   1.294   0.586  0.1598 -0.1661  0.1955
17293SOL    HW153300   5.947   1.302   0.654 -0.3231  2.1100 -0.4358
17293SOL    HW253301   6.070   1.223   0.615 -1.2802 -0.7073  1.8483
17294SOL     OW53302   5.248   4.917   7.217 -0.3407  0.6191 -0.3740
17294SOL    HW153303   5.299   4.847   7.258  0.2481  1.2986  0.0877
17294SOL    HW253304   5.302   4.945   7.142 -0.3479  0.8880 -0.2816
17295SOL     OW53305   3.416   0.709   7.924 -0.3520 -0.1663  0.3487
17295SOL    HW153306   3.377   0.699   7.837 -0.6233  0.1728  0.4269
17295SOL    HW253307   3.489   0.769   7.911 -0.4524 -0.0383  0.3692
17296SOL     OW53308   8.169   4.747   1.873  0.5455  0.3658  0.1040
17296SOL    HW153309   8.165   4.771   1.966 -1.1469 -1.1375  0.4772
17296SOL    HW253310   8.079   4.751   1.842  0.3743 -3.1122 -0.3173
17297SOL     OW53311   1.303   3.573   2.185  0.2724  0.1999 -0.2700
17297SOL    HW153312   1.255   3.536   2.111 -0.4268 -0.5399  0.5201
17297SOL    HW253313   1.298   3.668   2.172  1.0630  0.0661 -1.7081
17298SOL     OW53314   8.557   3.092   7.041 -0.3341 -0.0790  0.3523
17298SOL    HW153315   8.479   3.147   7.046 -0.1449  0.5159 -2.0710
17298SOL    HW253316   8.547   3.043   6.960  1.6176 -0.2735  0.1766
17299SOL     OW53317   8.449   3.638   4.502  0.4847 -0.2090 -0.0317
17299SOL    HW153318   8.470   3.601   4.588  0.1061 -1.2940 -0.3865
17299SOL    HW253319   8.531   3.678   4.473  0.2215  1.5434  1.4722
17300SOL     OW53320   7.656   8.012   1.089 -0.1683 -0.5022 -0.3091
17300SOL    HW153321   7.583   7.962   1.054 -1.4454  0.5762  0.7119
17300SOL    HW253322   7.628   8.104   1.081  0.7387 -0.1000  0.7844
17301SOL     OW53323   1.480   8.477   6.555  0.5067 -0.2477 -0.2998
17301SOL    HW153324   1.529   8.402   6.587 -1.8808 -1.2465  1.3025
17301SOL    HW253325   1.403   8.439   6.513  0.7208  1.2738 -2.2191
17302SOL     OW53326   2.304   7.173   5.030  0.3110  0.1993  0.7943
17302SOL    HW153327   2.262   7.250   4.993  0.0207  0.0820  0.8792
17302SOL    HW253328   2.326   7.119   4.954  0.9975  0.6055  0.6949
17303SOL     OW53329   5.133   1.968   7.545 -0.1110 -0.0596  0.5626
17303SOL    HW153330   5.054   2.013   7.575 -1.7418 -2.1164 -0.3741
17303SOL    HW253331   5.139   1.892   7.602 -0.6425 -1.5640 -1.2965
17304SOL     OW53332   3.567   3.640   1.212  0.4917  0.7422 -0.2609
17304SOL    HW153333   3.608   3.566   1.166  0.0510 -0.4823  1.2200
17304SOL    HW253334   3.497   3.668   1.153  1.2720  0.6104 -1.2748
17305SOL     OW53335   0.598   8.108   6.290  0.3089  0.0006 -0.3282
17305SOL    HW153336   0.608   8.096   6.384  2.6090 -1.2106 -0.6531
17305SOL    HW253337   0.564   8.197   6.280  3.2420  1.4809  1.5546
17306SOL     OW53338   0.704   5.979   0.929 -0.1575 -0.5599  0.4462
17306SOL    HW153339   0.669   5.993   0.841  0.8201  0.4063  0.1958
17306SOL    HW253340   0.729   5.887   0.930 -0.4535 -0.6563 -0.1760
17307SOL     OW53341   4.382   2.290   1.891  0.0746  0.2057 -0.3836
17307SOL    HW153342   4.289   2.312   1.892  0.0450  0.0900  0.2350
17307SOL    HW253343   4.422   2.356   1.949  0.3776  0.2517 -0.6411
17308SOL     OW53344   8.329   7.710   6.206  0.2564 -0.2785 -0.0199
17308SOL    HW153345   8.279   7.774   6.257  1.8287  1.1386 -0.1366
17308SOL    HW253346   8.264   7.668   6.149 -0.9102  0.9449  0.3522
17309SOL     OW53347   5.143   7.028   6.258 -0.5029  0.0479  0.9529
17309SOL    HW153348   5.121   7.120   6.239  0.6475  0.3035  0.7599
17309SOL    HW253349   5.203   7.033   6.332  1.1254 -0.3892 -0.2887
17310SOL     OW53350   1.954   5.012   3.909  0.3525 -0.3041 -0.3676
17310SOL    HW153351   1.889   5.079   3.929 -1.0619 -1.3691 -1.2225
17310SOL    HW253352   1.942   4.946   3.977  0.5069 -0.5188 -0.5461
17311SOL     OW53353   8.175   5.684   5.798 -0.1198  0.2399 -0.5366
17311SOL    HW153354   8.133   5.758   5.756 -2.4011 -0.6700  0.0276
17311SOL    HW253355   8.229   5.645   5.729 -3.4888 -1.0242 -2.7080
17312SOL     OW53356   2.627   0.046   8.499 -0.8398  0.0687 -0.1271
17312SOL    HW153357   2.679   0.124   8.515 -0.5456  0.0573 -0.9437
17312SOL    HW253358   2.552   0.054   8.557 -0.2363  0.3924  0.6204
17313SOL     OW53359   7.051   3.079   2.956  0.2010 -0.5517 -0.2025
17313SOL    HW153360   7.120   3.135   2.921  0.7976 -1.0577  0.1329
17313SOL    HW253361   6.989   3.068   2.884  0.4029  0.0148 -0.4651
17314SOL     OW53362   3.265   8.987   5.437 -0.1724  0.6075 -0.9467
17314SOL    HW153363   3.325   9.029   5.498  1.6657 -2.0163 -0.7910
17314SOL    HW253364   3.218   8.923   5.489 -0.8109  0.4598 -1.6867
17315SOL     OW53365   3.176   6.711   8.486  0.1832  0.1802  0.4738
17315SOL    HW153366   3.088   6.679   8.508 -0.2638  0.6001 -0.6115
17315SOL    HW253367   3.213   6.641   8.432  0.2028  0.3513  0.2644
17316SOL     OW53368   5.775   7.560   7.024 -0.5964  0.2581  0.0530
17316SOL    HW153369   5.707   7.619   6.990  0.3226  1.0555 -0.4494
17316SOL    HW253370   5.854   7.586   6.977  0.0179 -0.7934  0.4827
17317SOL     OW53371   0.416   1.051   0.295 -0.5205  0.7376 -0.1645
17317SOL    HW153372   0.382   1.107   0.365 -0.4610  0.5063  0.0508
17317SOL    HW253373   0.479   1.106   0.248  0.2868  0.5425  0.6640
17318SOL     OW53374   6.860   3.858   1.665  0.3745  0.9341  0.8122
17318SOL    HW153375   6.901   3.801   1.730  1.2436  1.4371  0.7218
17318SOL    HW253376   6.921   3.858   1.591 -0.1679  1.0802  0.3596
17319SOL     OW53377   0.224   5.729   4.577  0.0631  0.3706 -0.0955
17319SOL    HW153378   0.214   5.680   4.495 -0.9515  1.2235 -0.5057
17319SOL    HW253379   0.308   5.699   4.613 -0.7652 -2.1413 -0.0103
17320SOL     OW53380   0.083   3.958   1.746 -0.2444  0.3701 -0.8722
17320SOL    HW153381   0.100   4.047   1.715 -0.9978  0.4423 -1.0906
17320SOL    HW253382   0.024   3.920   1.681  0.5842 -0.5294 -1.1402
17321SOL     OW53383   0.541   4.572   6.637 -0.2203  0.0559 -0.1813
17321SOL    HW153384   0.569   4.655   6.599 -1.6755  1.1270  1.0002
17321SOL    HW253385   0.586   4.566   6.720 -2.1616  1.0523  1.0170
17322SOL     OW53386   4.642   3.227   6.607 -0.1810 -0.0940  0.2746
17322SOL    HW153387   4.550   3.217   6.630 -0.4390  3.0800  1.1121
17322SOL    HW253388   4.641   3.277   6.525  0.7332  1.3101  1.0769
17323SOL     OW53389   7.920   1.899   7.058  0.5177 -0.5000 -0.6202
17323SOL    HW153390   7.882   1.812   7.071 -0.6245  0.0988  0.2016
17323SOL    HW253391   7.869   1.937   6.986  0.0444  0.0296 -0.0108
17324SOL     OW53392   6.349   1.467   6.377 -0.5100  0.4204 -0.3224
17324SOL    HW153393   6.286   1.421   6.432  0.0809 -2.3870 -1.7902
17324SOL    HW253394   6.421   1.405   6.367  1.8447  2.9002  0.0312
17325SOL     OW53395   0.082   0.382   0.610 -0.1989 -0.4134  0.5237
17325SOL    HW153396   0.132   0.395   0.690  2.4409 -1.1011 -0.9006
17325SOL    HW253397   0.110   0.297   0.577 -0.1556  0.4127 -1.7736
17326SOL     OW53398   1.318   6.342   5.999  0.3581 -0.5869 -0.3953
17326SOL    HW153399   1.354   6.274   5.941  0.3119 -0.4936 -0.5334
17326SOL    HW253400   1.366   6.421   5.977 -0.2805 -0.3399 -0.9441
17327SOL     OW53401   7.253   4.476   3.729  0.5320  0.1128  0.2700
17327SOL    HW153402   7.232   4.413   3.660 -1.0378  0.9539 -0.0869
17327SOL    HW253403   7.338   4.448   3.763  0.1364 -1.8549 -0.2332
17328SOL     OW53404   5.398   0.903   2.704 -0.8332  0.6469 -0.1533
17328SOL    HW153405   5.492   0.910   2.713 -0.8557  0.6061  0.1116
17328SOL    HW253406   5.372   0.980   2.653 -0.5923  0.3781 -0.6896
17329SOL     OW53407   6.252   2.016   7.795  0.0940  0.6413  0.3254
17329SOL    HW153408   6.194   2.053   7.728  0.4363  0.8251  0.1305
17329SOL    HW253409   6.197   2.010   7.873  0.4468  3.1232  0.8488
17330SOL     OW53410   7.789   4.618   9.160 -0.2189 -0.0814 -0.0335
17330SOL    HW153411   7.845   4.665   9.222  0.3068 -0.6922 -0.0417
17330SOL    HW253412   7.728   4.685   9.129 -0.3421  0.2916  0.9584
17331SOL     OW53413   5.672   5.168   7.085 -0.3625 -0.4969 -0.1439
17331SOL    HW153414   5.612   5.234   7.050 -1.4230 -1.3908 -0.0461
17331SOL    HW253415   5.708   5.209   7.164  0.5943  0.7741 -1.1815
17332SOL     OW53416   2.623   6.378   6.863 -1.1013  0.5380  0.2860
17332SOL    HW153417   2.695   6.319   6.886 -2.1572 -0.8591  0.1079
17332SOL    HW253418   2.647   6.412   6.777 -1.1214 -0.7299 -0.2491
17333SOL     OW53419   1.856   1.131   5.405  0.1333 -0.2326 -0.1174
17333SOL    HW153420   1.766   1.150   5.377  0.2864  0.7977  0.0317
17333SOL    HW253421   1.911   1.165   5.335  0.4353 -0.0193  0.2199
17334SOL     OW53422   7.538   1.373   4.060  0.6927 -0.1561 -0.0239
17334SOL    HW153423   7.515   1.464   4.041  1.0703 -0.0432  0.0537
17334SOL    HW253424   7.510   1.359   4.151  0.2877 -0.2348 -0.1573
17335SOL     OW53425   3.487   7.679   3.998 -0.0143 -0.1136 -0.1109
17335SOL    HW153426   3.497   7.654   4.090  1.1930 -0.9915 -0.4472
17335SOL    HW253427   3.556   7.744   3.983 -1.5665  1.6535  0.1212
17336SOL     OW53428   1.383   8.110   8.522  0.0786  0.3876  0.0865
17336SOL    HW153429   1.476   8.088   8.531  0.3795  1.7270  0.3874
17336SOL    HW253430   1.372   8.191   8.570 -1.2427  0.3019 -0.0247
17337SOL     OW53431   8.995   6.935   3.559  0.6034 -0.1017 -0.4395
17337SOL    HW153432   8.920   6.958   3.614  0.5008  1.5892 -1.2149
17337SOL    HW253433   9.070   6.935   3.618  0.1890 -0.5105  0.0990
17338SOL     OW53434   6.488   7.403   6.831  0.2248 -0.2863 -0.6002
17338SOL    HW153435   6.522   7.368   6.748 -1.0025 -1.6730 -0.5622
17338SOL    HW253436   6.396   7.423   6.812 -0.4087 -1.7354  0.6975
17339SOL     OW53437   4.636   6.056   6.620  0.2761  0.1444  0.5693
17339SOL    HW153438   4.724   6.088   6.638  0.4341 -0.7816  1.5697
17339SOL    HW253439   4.603   6.028   6.706 -1.0671  0.6532  0.2401
17340SOL     OW53440   5.410   7.485   4.163  0.3044 -0.4546 -0.3484
17340SOL    HW153441   5.429   7.429   4.088  0.6802 -0.1642 -0.4753
17340SOL    HW253442   5.325   7.454   4.196 -0.2635 -0.0701 -1.3856
17341SOL     OW53443   7.304   7.982   4.166 -0.3016  0.0293 -0.6922
17341SOL    HW153444   7.243   7.932   4.112  0.7218 -0.6406 -1.2671
17341SOL    HW253445   7.377   8.003   4.107  2.3624 -3.3257  1.0407
17342SOL     OW53446   7.644   6.674   8.795 -0.4337  0.3284  0.6302
17342SOL    HW153447   7.692   6.754   8.776  0.7840 -0.3390  0.8292
17342SOL    HW253448   7.590   6.659   8.716  1.8586 -0.4636 -0.8858
17343SOL     OW53449   7.114   4.090   4.146 -0.3816 -0.0155 -0.6795
17343SOL    HW153450   7.169   4.162   4.116 -0.1186  0.4495  0.8621
17343SOL    HW253451   7.037   4.133   4.184  0.0706 -0.4860  0.8415
17344SOL     OW53452   2.075   4.537   4.828 -0.1262  0.0584  0.3308
17344SOL    HW153453   2.158   4.585   4.825  0.4727 -0.9144  0.7991
17344SOL    HW253454   2.021   4.578   4.760  0.9192  0.3844 -0.3224
17345SOL     OW53455   8.987   0.162   3.968 -0.1767 -0.4268  0.0813
17345SOL    HW153456   8.949   0.240   4.008 -0.7678 -0.1424 -0.9994
17345SOL    HW253457   8.994   0.184   3.875  2.5397 -0.5108  0.1947
17346SOL     OW53458   3.121   2.649   0.651  0.2387 -0.5955 -0.1653
17346SOL    HW153459   3.070   2.595   0.712 -1.0668 -0.3496 -1.0013
17346SOL    HW253460   3.098   2.739   0.673  0.4216 -0.4734 -0.4618
17347SOL     OW53461   8.043   3.643   3.335  0.4209 -0.4631 -0.3546
17347SOL    HW153462   8.134   3.616   3.323  0.9007  0.0216  1.7712
17347SOL    HW253463   8.016   3.675   3.249  1.9711 -1.3996 -1.2358
17348SOL     OW53464   7.333   4.889   2.465 -0.5999 -0.6958 -0.1828
17348SOL    HW153465   7.252   4.839   2.475 -0.1056 -1.2340  1.4652
17348SOL    HW253466   7.388   4.860   2.537  0.5571  0.6364 -0.4851
17349SOL     OW53467   3.603   2.885   2.733 -0.1703  0.0892  0.1904
17349SOL    HW153468   3.686   2.885   2.685  0.0006 -2.0425  0.3727
17349SOL    HW253469   3.600   2.799   2.775 -1.7917  0.6951  1.4081
17350SOL     OW53470   2.912   6.997   1.598  0.1057  0.1740  0.0527
17350SOL    HW153471   2.887   7.038   1.515  1.8635 -2.8397 -2.1528
17350SOL    HW253472   2.846   6.929   1.613  1.6748 -1.6842 -0.9237
17351SOL     OW53473   2.080   6.037   5.438 -0.0481 -0.3309 -0.3382
17351SOL    HW153474   2.136   6.114   5.446  0.0196 -0.5141  1.1673
17351SOL    HW253475   2.141   5.964   5.428  0.2563 -0.8763  3.8397
17352SOL     OW53476   6.025   9.000   4.001  0.4933  0.2936  0.2225
17352SOL    HW153477   6.047   9.091   3.982 -0.8399  0.2903 -1.6547
17352SOL    HW253478   6.082   8.949   3.943  0.3161  0.0011  0.3011
17353SOL     OW53479   5.843   2.285   4.878  0.1647 -0.6024  0.3258
17353SOL    HW153480   5.869   2.335   4.801  1.2965 -1.6151  0.0201
17353SOL    HW253481   5.911   2.302   4.942 -0.8843  0.4117  1.2275
17354SOL     OW53482   9.097   3.396   4.382 -0.3113 -0.5713  0.0020
17354SOL    HW153483   9.129   3.479   4.416  1.3602 -1.1915  0.0131
17354SOL    HW253484   9.076   3.344   4.459  0.5253 -0.8605  0.0402
17355SOL     OW53485   0.249   2.767   5.848  0.0383 -0.5124  0.1025
17355SOL    HW153486   0.202   2.827   5.906  2.1345  1.7853 -0.3740
17355SOL    HW253487   0.295   2.708   5.907  0.8467  0.7582  0.7961
17356SOL     OW53488   3.629   7.548   6.464 -0.3876 -0.0341  0.2555
17356SOL    HW153489   3.667   7.570   6.550  1.0912  0.8960 -0.5963
17356SOL    HW253490   3.543   7.590   6.465  0.0983  0.9885  0.8533
17357SOL     OW53491   6.630   0.955   5.325 -0.4548 -0.6298  0.1453
17357SOL    HW153492   6.700   0.940   5.261 -1.3495 -0.8100 -0.8165
17357SOL    HW253493   6.646   0.889   5.393 -0.1808 -1.2446 -0.4931
17358SOL     OW53494   0.570   4.538   5.604 -0.6510 -0.5766  0.5970
17358SOL    HW153495   0.651   4.489   5.617  0.6971  1.8040  1.8012
17358SOL    HW253496   0.549   4.525   5.511  0.6966 -1.8037  0.4348
17359SOL     OW53497   3.524   5.123   5.082 -0.6631  0.4989  0.1838
17359SOL    HW153498   3.503   5.094   4.993  2.6664 -0.1009 -0.5566
17359SOL    HW253499   3.544   5.216   5.073  1.4439  0.0513 -0.1223
17360SOL     OW53500   5.867   2.743   5.925  0.4864 -0.2860  0.0488
17360SOL    HW153501   5.892   2.651   5.928  0.1937 -0.3568  0.2545
17360SOL    HW253502   5.950   2.790   5.932  0.4652 -0.4907  2.7531
17361SOL     OW53503   8.698   8.043   0.627 -0.4438 -0.6731  0.1565
17361SOL    HW153504   8.647   7.974   0.670 -0.1601 -0.6587  0.5103
17361SOL    HW253505   8.671   8.038   0.535 -0.0307 -1.6183  0.0738
17362SOL     OW53506   1.557   1.516   1.061 -0.0237  0.3718  0.1976
17362SOL    HW153507   1.576   1.610   1.071  1.1632  0.2391 -0.5928
17362SOL    HW253508   1.558   1.483   1.151 -1.4535  1.2781  0.5734
17363SOL     OW53509   4.629   4.955   6.392  0.2445 -0.5726  0.7694
17363SOL    HW153510   4.555   4.996   6.435  0.6176  1.8525 -0.7086
17363SOL    HW253511   4.590   4.899   6.325 -0.2493 -0.9793  1.3855
17364SOL     OW53512   8.316   3.454   1.922  0.1141 -0.1823 -0.0053
17364SOL    HW153513   8.316   3.415   1.835  1.4935  0.1365 -0.1696
17364SOL    HW253514   8.402   3.494   1.931 -0.4462  0.8812  1.0255
17365SOL     OW53515   1.817   6.975   2.914  0.1990  0.8677 -0.8644
17365SOL    HW153516   1.771   6.977   2.830 -0.3829 -0.4033 -0.6044
17365SOL    HW253517   1.749   6.992   2.979 -0.4973 -2.9828 -0.3162
17366SOL     OW53518   7.916   9.185   4.982 -0.0298 -0.5669  0.4128
17366SOL    HW153519   7.834   9.235   4.991 -0.4758 -1.5060  1.7804
17366SOL    HW253520   7.980   9.234   5.033  0.3252  0.2364 -0.7594
17367SOL     OW53521   6.632   4.575   1.481  0.6390  0.7842 -0.2320
17367SOL    HW153522   6.553   4.596   1.530  1.5556 -0.4297  1.8762
17367SOL    HW253523   6.640   4.646   1.417 -1.6910  1.3549  0.0153
17368SOL     OW53524   1.811   8.477   4.007 -0.6952  0.6156 -0.7343
17368SOL    HW153525   1.871   8.440   3.942  1.0065  0.1850  0.9901
17368SOL    HW253526   1.739   8.514   3.955 -0.3117 -1.2644 -2.7396
17369SOL     OW53527   6.883   0.524   6.432  0.5423 -0.1199  0.5430
17369SOL    HW153528   6.970   0.506   6.467  0.4969 -0.2724  0.5786
17369SOL    HW253529   6.830   0.451   6.461  0.1393  0.5119  1.4533
17370SOL     OW53530   1.904   1.139   1.124  0.4111 -0.7613 -0.1922
17370SOL    HW153531   1.869   1.219   1.085 -1.3288 -1.4865 -0.2230
17370SOL    HW253532   1.928   1.163   1.213  0.1501 -0.1545 -0.2822
17371SOL     OW53533   5.626   8.779   1.718  0.1982  0.2035  1.0533
17371SOL    HW153534   5.585   8.861   1.691 -0.2255 -0.3564 -0.0219
17371SOL    HW253535   5.554   8.717   1.725  0.6955 -0.4448  0.4617
17372SOL     OW53536   4.215   2.274   7.138 -0.1852 -0.2756  0.3316
17372SOL    HW153537   4.171   2.352   7.172 -1.0528  0.6056 -2.5406
17372SOL    HW253538   4.280   2.308   7.077  0.4442 -1.7785  0.1257
17373SOL     OW53539   6.879   8.098   3.469  0.2381 -0.0243 -0.9102
17373SOL    HW153540   6.830   8.038   3.525  1.1298  0.5236  0.5294
17373SOL    HW253541   6.847   8.080   3.380 -0.2785 -1.8571 -0.4003
17374SOL     OW53542   1.220   6.739   5.154  0.5281 -0.0629  0.0987
17374SOL    HW153543   1.210   6.677   5.226 -2.4292  1.0136  0.7551
17374SOL    HW253544   1.245   6.822   5.196  0.6472  0.1201 -0.3227
17375SOL     OW53545   8.837   4.384   1.459  0.0433  0.1032  0.2217
17375SOL    HW153546   8.799   4.407   1.374 -3.6625  1.3751  1.9838
17375SOL    HW253547   8.868   4.468   1.494 -0.4123 -0.0371  0.9682
17376SOL     OW53548   8.647   3.392   7.476 -0.4016 -0.1780 -0.5534
17376SOL    HW153549   8.606   3.339   7.544  0.5515 -0.7971 -0.4414
17376SOL    HW253550   8.583   3.393   7.405 -0.6630 -1.0515 -0.3486
17377SOL     OW53551   4.532   3.719   3.708  0.8229  0.1387  0.4197
17377SOL    HW153552   4.483   3.683   3.634  1.1818  1.4932 -0.5042
17377SOL    HW253553   4.624   3.715   3.680  1.1620 -1.0930  1.5846
17378SOL     OW53554   5.749   7.591   4.182 -0.3486  0.2636 -0.9651
17378SOL    HW153555   5.763   7.528   4.112  2.2013  1.1544 -1.3560
17378SOL    HW253556   5.814   7.659   4.167 -1.9826  2.2254  0.3335
17379SOL     OW53557   3.510   5.790   0.999  0.4901 -0.6247  0.0134
17379SOL    HW153558   3.452   5.716   0.980 -0.0600 -0.2464  0.1842
17379SOL    HW253559   3.450   5.864   1.013  0.9669 -0.3993  0.9731
17380SOL     OW53560   5.779   1.256   1.513 -0.2872  0.1140  0.2705
17380SOL    HW153561   5.744   1.181   1.465 -2.2271  0.4576  1.0638
17380SOL    HW253562   5.784   1.227   1.604  1.1956  0.2042  0.2402
17381SOL     OW53563   0.081   5.544   1.668  0.0437 -0.1746 -0.0871
17381SOL    HW153564   0.093   5.621   1.612 -0.1010 -1.0386 -1.3466
17381SOL    HW253565   0.057   5.580   1.754  1.6353  1.2382 -0.1818
17382SOL     OW53566   0.886   5.394   5.751  0.1497  0.1104 -0.4185
17382SOL    HW153567   0.861   5.328   5.815  0.8141  0.2138 -0.0396
17382SOL    HW253568   0.817   5.392   5.685 -0.4355 -0.1414  0.1959
17383SOL     OW53569   6.358   8.199   8.163  0.7592  0.2664 -0.2142
17383SOL    HW153570   6.269   8.218   8.134  0.0471 -0.4782  1.3350
17383SOL    HW253571   6.380   8.271   8.223 -0.0518 -1.0881  1.8279
17384SOL     OW53572   6.454   7.106   8.082 -0.1180  0.3366 -0.4742
17384SOL    HW153573   6.434   7.108   8.175 -0.9468 -0.0869 -0.6384
17384SOL    HW253574   6.526   7.043   8.074  0.6654  1.1516 -0.0005
17385SOL     OW53575   0.033   7.543   2.621 -0.3335  0.4326  0.3579
17385SOL    HW153576   0.127   7.535   2.637 -0.2533 -2.0892 -0.7390
17385SOL    HW253577   0.016   7.479   2.551 -2.8109  1.0430  0.3177
17386SOL     OW53578   1.557   8.493   2.031 -0.1375  0.2260  0.0403
17386SOL    HW153579   1.620   8.455   1.970 -0.1833 -0.3453  0.3418
17386SOL    HW253580   1.485   8.429   2.035 -0.0265  0.1353  0.8692
17387SOL     OW53581   1.877   4.038   8.198 -0.0040 -0.2349 -0.4961
17387SOL    HW153582   1.917   3.955   8.224 -0.5500 -0.2213  0.4502
17387SOL    HW253583   1.876   4.036   8.103  0.0945 -1.2676 -0.4859
17388SOL     OW53584   3.593   5.975   5.722  0.0782  0.8332  0.2681
17388SOL    HW153585   3.678   6.008   5.694  1.6816 -1.8696  1.6030
17388SOL    HW253586   3.579   6.013   5.809  1.6662 -1.3305  1.5677
17389SOL     OW53587   7.717   0.834   0.488 -0.3693  0.3439  0.4028
17389SOL    HW153588   7.635   0.823   0.536 -0.6071  1.0446  0.1679
17389SOL    HW253589   7.782   0.790   0.542 -0.8371  0.0812  0.7671
17390SOL     OW53590   0.953   8.440   5.850  0.2463 -0.7703  0.2248
17390SOL    HW153591   0.946   8.357   5.803 -2.3468 -1.1115  1.0828
17390SOL    HW253592   0.886   8.496   5.810 -0.2380 -0.1996  1.7867
17391SOL     OW53593   7.923   8.509   1.717  0.2940 -0.1578 -0.9456
17391SOL    HW153594   7.939   8.442   1.783  1.6840  0.9379 -0.1356
17391SOL    HW253595   7.894   8.586   1.767  1.8755  0.8527 -1.5233
17392SOL     OW53596   0.059   4.691   1.061  0.5086 -0.3027  0.2913
17392SOL    HW153597   0.141   4.697   1.109  0.6259  0.7764 -0.0244
17392SOL    HW253598   0.048   4.777   1.020 -0.3422 -0.7102 -0.3787
17393SOL     OW53599   3.453   6.281   2.942  0.5620  0.0045  0.6704
17393SOL    HW153600   3.545   6.308   2.935 -0.0559  1.8054 -2.5768
17393SOL    HW253601   3.457   6.188   2.965  3.2162 -0.0692  0.2347
17394SOL     OW53602   0.501   8.689   4.377  0.4264 -0.1534  0.1494
17394SOL    HW153603   0.419   8.687   4.329 -0.3306  0.6993  1.3671
17394SOL    HW253604   0.515   8.598   4.406  0.0952 -0.3624 -0.3515
17395SOL     OW53605   0.036   8.869   0.580  0.2622 -0.1119 -0.3525
17395SOL    HW153606  -0.034   8.935   0.575  0.2369 -0.1583 -0.6494
17395SOL    HW253607   0.116   8.919   0.592  0.0271 -0.1175  1.5229
17396SOL     OW53608   1.701   8.193   8.315  0.2747 -0.0674 -0.2199
17396SOL    HW153609   1.614   8.234   8.313  0.7218  0.8842 -1.4446
17396SOL    HW253610   1.694   8.127   8.383 -1.3414  0.1588 -0.1122
17397SOL     OW53611   6.630   5.331   8.333  0.1601 -0.2091 -0.2576
17397SOL    HW153612   6.558   5.270   8.348 -0.0161 -0.4963 -2.0498
17397SOL    HW253613   6.602   5.413   8.374 -0.9282 -0.4835 -0.4400
17398SOL     OW53614   1.595   8.603   6.313 -0.6494 -0.3439 -0.0183
17398SOL    HW153615   1.556   8.558   6.387  0.0483  0.7319  1.0440
17398SOL    HW253616   1.525   8.659   6.279 -0.3898  0.7493  1.1827
17399SOL     OW53617   6.041   5.583   6.048  0.3122  0.3402  0.3816
17399SOL    HW153618   5.956   5.574   6.090  0.7691  0.4649  1.3579
17399SOL    HW253619   6.063   5.675   6.060  1.5535 -0.1389  2.0783
17400SOL     OW53620   4.885   3.185   3.460 -0.6443 -0.3035 -0.4508
17400SOL    HW153621   4.821   3.133   3.412  1.4915 -0.7726 -3.0792
17400SOL    HW253622   4.963   3.129   3.465  1.1606  1.8748 -1.7884
17401SOL     OW53623   9.161   2.600   3.524  0.4089 -0.0257  0.1833
17401SOL    HW153624   9.117   2.525   3.564  0.6748 -0.2649  0.0293
17401SOL    HW253625   9.239   2.612   3.579  0.6521 -0.2072 -0.1215
17402SOL     OW53626   2.042   5.766   5.287  0.5069 -0.0969  0.4043
17402SOL    HW153627   2.006   5.753   5.375 -1.6899  0.6651 -0.3162
17402SOL    HW253628   2.099   5.842   5.295 -1.3019  1.2805  0.8078
17403SOL     OW53629   2.407   2.996   4.480  0.3456  0.8446  0.4376
17403SOL    HW153630   2.466   2.938   4.434 -0.2396 -0.6986  1.5261
17403SOL    HW253631   2.376   3.058   4.414 -0.0149 -0.9039 -1.1010
17404SOL     OW53632   3.869   9.001   6.181  0.8459  0.1741 -0.0056
17404SOL    HW153633   3.852   9.094   6.193  0.2168  0.0940 -0.2401
17404SOL    HW253634   3.859   8.986   6.087 -2.0910 -0.6766  0.3298
17405SOL     OW53635   5.223   2.307   2.377  0.0508  0.2289  0.1589
17405SOL    HW153636   5.310   2.281   2.346  0.2862 -0.5055  1.3710
17405SOL    HW253637   5.240   2.352   2.459 -0.6777  0.6813  0.0634
17406SOL     OW53638   9.222   3.020   7.143  0.2946  0.2270  0.0646
17406SOL    HW153639   9.296   3.052   7.195  1.0442 -0.2875 -0.6523
17406SOL    HW253640   9.262   2.966   7.075 -0.7979 -0.6223  0.0617
17407SOL     OW53641   7.341   6.583   7.463  0.3679 -0.1438  0.2203
17407SOL    HW153642   7.373   6.650   7.523  2.1809 -1.4634  0.8015
17407SOL    HW253643   7.380   6.605   7.379 -0.3036  0.3944  0.0426
17408SOL     OW53644   5.575   3.834   4.645 -0.3926  0.2879 -0.4059
17408SOL    HW153645   5.624   3.761   4.609 -1.3163  0.0577 -1.2472
17408SOL    HW253646   5.618   3.912   4.610  1.8489  0.3164  2.0690
17409SOL     OW53647   5.506   2.065   0.185 -0.3275  0.6999  0.1236
17409SOL    HW153648   5.588   2.099   0.220  0.9039 -0.6208 -1.3055
17409SOL    HW253649   5.529   1.978   0.153 -2.0923  0.6325 -1.0714
17410SOL     OW53650   6.550   3.151   6.035  0.5335  0.2325 -0.6527
17410SOL    HW153651   6.566   3.153   5.940 -0.5415  0.2822 -0.8428
17410SOL    HW253652   6.580   3.236   6.066  0.8649  0.2270 -0.9483
17411SOL     OW53653   5.507   1.705   0.928  0.0277 -0.4287  0.1725
17411SOL    HW153654   5.447   1.634   0.950 -0.4496  0.0219  0.3476
17411SOL    HW253655   5.573   1.664   0.871  0.9467 -1.4810  1.9192
17412SOL     OW53656   5.932   3.394   7.924 -0.2155 -0.1962  0.5736
17412SOL    HW153657   6.005   3.354   7.971 -0.2978  0.8118  1.5857
17412SOL    HW253658   5.908   3.470   7.976 -1.5104 -0.0845 -0.1402
17413SOL     OW53659   4.803   4.331   3.114 -0.1739  0.8553  0.0583
17413SOL    HW153660   4.895   4.343   3.137  0.2681  0.4438 -1.3941
17413SOL    HW253661   4.759   4.318   3.197  1.3114 -0.4473  0.6923
17414SOL     OW53662   2.792   4.150   0.266 -0.6128 -0.0810 -0.0545
17414SOL    HW153663   2.846   4.206   0.322 -1.1074 -0.1088  0.4616
17414SOL    HW253664   2.831   4.157   0.179  0.4757 -0.4218  0.3909
17415SOL     OW53665   4.114   1.503   2.042  0.1488 -0.0305 -0.2152
17415SOL    HW153666   4.053   1.519   1.970  0.8306 -0.4612 -0.9033
17415SOL    HW253667   4.185   1.565   2.028  1.2102 -1.3835 -1.0310
17416SOL     OW53668   0.526   6.042   5.673  0.0946 -0.3517 -0.3002
17416SOL    HW153669   0.533   5.994   5.590 -0.8582 -1.1026  0.0396
17416SOL    HW253670   0.433   6.061   5.682  0.3734  0.9288 -0.0588
17417SOL     OW53671   2.802   0.413   6.054 -0.5940 -0.6607 -0.1702
17417SOL    HW153672   2.776   0.322   6.041 -1.0642 -0.4832 -0.5046
17417SOL    HW253673   2.834   0.441   5.968  0.2751 -0.7373  0.1217
17418SOL     OW53674   6.701   5.867   3.292 -0.0121  0.2529 -0.1945
17418SOL    HW153675   6.639   5.847   3.363  1.2365  0.6578  1.0635
17418SOL    HW253676   6.774   5.807   3.307 -0.1333 -0.3304 -1.7525
17419SOL     OW53677   3.748   1.733   0.978 -0.4022  0.0695  0.1097
17419SOL    HW153678   3.842   1.720   0.990 -0.5610 -1.2260  0.0783
17419SOL    HW253679   3.742   1.800   0.910  0.4961  0.0192 -0.0333
17420SOL     OW53680   7.212   0.950   2.195  0.1328  0.2648 -0.0687
17420SOL    HW153681   7.167   0.908   2.121 -1.1185  0.4063  0.5777
17420SOL    HW253682   7.302   0.920   2.188 -0.2201 -0.6656 -0.9771
17421SOL     OW53683   9.208   7.687   3.801 -0.4291 -0.2562  0.7346
17421SOL    HW153684   9.206   7.628   3.725 -0.8250  0.3428  0.2617
17421SOL    HW253685   9.242   7.634   3.872  0.2788 -0.7421  0.0532
17422SOL     OW53686   8.835   6.480   4.465  0.6820 -0.0057 -0.1669
17422SOL    HW153687   8.925   6.513   4.470  0.7732 -0.4050  2.3873
17422SOL    HW253688   8.834   6.405   4.524 -1.7189  1.0497  1.2907
17423SOL     OW53689   4.699   8.653   3.833  0.3149  0.6140  0.0891
17423SOL    HW153690   4.700   8.626   3.925 -0.2879  0.3226  0.0181
17423SOL    HW253691   4.735   8.742   3.834  1.2038  0.2589  0.4786
17424SOL     OW53692   0.647   1.391   2.018  0.1791 -0.1225 -0.1340
17424SOL    HW153693   0.741   1.406   2.008 -0.1298  1.0913 -1.7174
17424SOL    HW253694   0.628   1.413   2.109  1.4547 -0.6479  0.2821
17425SOL     OW53695   6.471   1.035   1.107  0.4526 -0.0405 -0.2585
17425SOL    HW153696   6.470   1.095   1.181 -0.4121  1.4956 -1.4790
17425SOL    HW253697   6.392   1.055   1.057 -0.1507 -2.5442 -0.4609
17426SOL     OW53698   2.098   3.679   4.119 -0.2817 -0.0575 -0.1881
17426SOL    HW153699   2.190   3.677   4.145  0.2096 -2.9141 -1.7530
17426SOL    HW253700   2.096   3.732   4.039  0.2538 -1.0337 -0.8609
17427SOL     OW53701   6.077   7.453   0.537 -0.1853  0.7487 -0.7235
17427SOL    HW153702   5.990   7.488   0.516  0.0063  1.2770 -0.6288
17427SOL    HW253703   6.113   7.428   0.452 -0.0053  1.5171 -0.8796
17428SOL     OW53704   8.390   4.613   5.716  0.2938  0.4053  0.2785
17428SOL    HW153705   8.407   4.705   5.738 -1.4145  0.6897  0.5150
17428SOL    HW253706   8.323   4.585   5.777  1.3626 -1.2902  0.7542
17429SOL     OW53707   6.790   5.595   2.560 -0.1162 -0.1069  0.7998
17429SOL    HW153708   6.763   5.615   2.470 -0.3303  0.3114  0.9529
17429SOL    HW253709   6.800   5.681   2.601  1.4005 -0.2518  0.7697
17430SOL     OW53710   3.197   3.358   2.283 -0.0535  0.0033 -0.2836
17430SOL    HW153711   3.163   3.275   2.317 -0.4662  0.7330  1.1632
17430SOL    HW253712   3.186   3.351   2.189 -1.0088 -1.1994 -0.1160
17431SOL     OW53713   2.254   6.252   7.705  0.0103  0.6943  0.1873
17431SOL    HW153714   2.171   6.207   7.689  0.5041  0.2774 -1.4134
17431SOL    HW253715   2.230   6.344   7.711 -0.4537  0.7448 -1.6704
17432SOL     OW53716   8.064   8.534   8.774  0.1979  0.5188  0.4247
17432SOL    HW153717   8.015   8.453   8.781  0.7745 -0.0920 -1.8246
17432SOL    HW253718   8.151   8.513   8.809  0.3916  0.0831 -0.2895
17433SOL     OW53719   6.908   0.152   8.269  0.3458 -0.6768  0.4160
17433SOL    HW153720   6.966   0.163   8.344  2.4167 -1.1696 -1.0318
17433SOL    HW253721   6.926   0.064   8.236 -0.1611 -0.3167 -0.9315
17434SOL     OW53722   1.348   4.543   2.489 -0.1303  0.0069 -0.5383
17434SOL    HW153723   1.431   4.591   2.489  0.5518 -1.1291  0.2038
17434SOL    HW253724   1.304   4.573   2.569 -0.3510  0.4487 -0.8204
17435SOL     OW53725   7.891   1.728   3.784  0.3084 -0.3541  0.3231
17435SOL    HW153726   7.916   1.697   3.697  2.2235 -1.7038  1.2661
17435SOL    HW253727   7.820   1.790   3.769 -0.3234 -1.5619 -2.0778
17436SOL     OW53728   7.553   3.634   5.965  0.3409  0.2464 -1.0453
17436SOL    HW153729   7.528   3.727   5.969  0.1959  0.3749 -3.3185
17436SOL    HW253730   7.625   3.632   5.901  1.7630 -0.9766  0.5166
17437SOL     OW53731   1.725   3.084   4.648  0.6594  0.4576 -0.9789
17437SOL    HW153732   1.802   3.041   4.683 -0.2268  0.0262  0.5316
17437SOL    HW253733   1.757   3.136   4.574  2.5735  1.2143  0.3288
17438SOL     OW53734   7.244   5.601   5.598  0.2830  0.2382 -0.0428
17438SOL    HW153735   7.212   5.591   5.509  2.5607 -0.0620 -0.8915
17438SOL    HW253736   7.283   5.517   5.619 -0.1801  0.3210  1.2432
17439SOL     OW53737   0.660   5.451   5.604  0.8169 -0.1221 -0.4136
17439SOL    HW153738   0.673   5.531   5.653  0.6960  0.1039 -0.7459
17439SOL    HW253739   0.575   5.418   5.634  1.1253 -0.4282  0.1360
17440SOL     OW53740   8.309   7.168   4.584  0.2016  0.2722 -0.5579
17440SOL    HW153741   8.350   7.199   4.664 -0.5999  1.1399 -0.4741
17440SOL    HW253742   8.338   7.230   4.517 -1.2606  1.1468 -0.4231
17441SOL     OW53743   8.832   3.534   2.526  0.3945 -0.5284 -0.1443
17441SOL    HW153744   8.846   3.475   2.600  1.5010  0.4579  0.4553
17441SOL    HW253745   8.882   3.612   2.547  1.0995 -0.3859 -2.1335
17442SOL     OW53746   7.220   7.569   5.238 -0.1639 -0.3602  0.2337
17442SOL    HW153747   7.217   7.559   5.143  1.8912  2.4335 -0.2577
17442SOL    HW253748   7.137   7.611   5.261  0.1042  0.7095 -0.6595
17443SOL     OW53749   5.810   7.360   3.613  0.3482  0.0168  0.2420
17443SOL    HW153750   5.886   7.404   3.574 -0.3500  0.6978 -0.3825
17443SOL    HW253751   5.842   7.328   3.698  1.3793  0.1269 -0.0917
17444SOL     OW53752   0.041   8.323   7.433 -0.6492 -0.0905 -0.1619
17444SOL    HW153753   0.133   8.344   7.445 -0.5953 -1.4925  2.5311
17444SOL    HW253754   0.036   8.228   7.440 -2.3300 -0.0193  0.1396
17445SOL     OW53755   3.768   4.959   1.617  0.0995 -0.2256 -0.1660
17445SOL    HW153756   3.804   4.871   1.626 -2.3464 -1.1627  1.7748
17445SOL    HW253757   3.843   5.014   1.596  1.6277 -2.8196 -2.0742
17446SOL     OW53758   3.475   7.963   5.823 -0.1015  0.1849  0.2221
17446SOL    HW153759   3.484   7.880   5.776 -0.3111  1.0008 -1.3006
17446SOL    HW253760   3.478   8.030   5.755 -3.3640  1.3034  1.0005
17447SOL     OW53761   7.822   5.366   8.714 -0.1510  0.1840  0.3889
17447SOL    HW153762   7.842   5.357   8.621 -0.7346 -0.1976  0.2973
17447SOL    HW253763   7.756   5.435   8.718 -0.3146  0.0233  0.4937
17448SOL     OW53764   7.435   2.706   7.492  0.3800  0.0788  0.4051
17448SOL    HW153765   7.521   2.744   7.475 -0.0563  1.0956  0.3934
17448SOL    HW253766   7.443   2.616   7.463  1.5859  0.0182  0.8347
17449SOL     OW53767   1.607   3.462   4.638 -0.4619  0.1565  0.0933
17449SOL    HW153768   1.589   3.489   4.727 -0.3801  2.7293 -0.5790
17449SOL    HW253769   1.521   3.450   4.598 -0.5082 -0.2542  0.3177
17450SOL     OW53770   0.857   6.021   0.610  0.7062  0.1433  0.4539
17450SOL    HW153771   0.781   6.012   0.552  0.3167  0.1292  0.9591
17450SOL    HW253772   0.925   5.969   0.568 -0.3461 -2.0936  1.3259
17451SOL     OW53773   5.988   0.105   2.647  0.2558  0.0242  0.2139
17451SOL    HW153774   6.061   0.044   2.653  0.6432  0.3943 -0.5159
17451SOL    HW253775   5.913   0.051   2.619  0.3531 -0.2828  0.5476
17452SOL     OW53776   2.710   7.033   1.409 -0.8422 -0.5781  0.1282
17452SOL    HW153777   2.747   7.034   1.321 -0.2154  2.2553  0.3090
17452SOL    HW253778   2.625   6.991   1.399 -0.3345 -1.2701 -1.6083
17453SOL     OW53779   0.733   7.711   6.124  0.2280  0.5934  0.3645
17453SOL    HW153780   0.738   7.616   6.134 -1.4094  0.5330  1.0647
17453SOL    HW253781   0.793   7.746   6.190  0.5985  0.0498  0.3183
17454SOL     OW53782   1.216   7.021   6.785 -0.0504 -0.7817 -0.5190
17454SOL    HW153783   1.305   6.988   6.771  0.1775 -0.5046  0.2528
17454SOL    HW253784   1.224   7.116   6.774 -0.1120 -0.6863  0.2431
17455SOL     OW53785   5.375   0.258   0.439  0.3885 -0.1155 -0.4913
17455SOL    HW153786   5.331   0.268   0.355 -0.1194 -0.4677 -0.2678
17455SOL    HW253787   5.369   0.345   0.480 -0.7434 -0.3357 -0.1516
17456SOL     OW53788   1.309   5.035   2.080 -0.0605 -0.3844 -0.3502
17456SOL    HW153789   1.403   5.033   2.096 -0.3552 -0.7203  1.6586
17456SOL    HW253790   1.300   5.065   1.990  1.9670 -0.5932 -0.6673
17457SOL     OW53791   8.547   0.723   7.465 -0.4192  0.7703  0.4094
17457SOL    HW153792   8.636   0.696   7.486  0.3789  1.9936 -1.1935
17457SOL    HW253793   8.501   0.642   7.445  1.1591  0.2935 -1.6163
17458SOL     OW53794   0.412   7.158   4.581  0.0231 -0.0383  0.1960
17458SOL    HW153795   0.353   7.183   4.653  0.1337 -1.6824  0.9087
17458SOL    HW253796   0.422   7.238   4.530 -0.0555  1.2022  2.0086
17459SOL     OW53797   4.462   8.961   7.891  0.1006  0.4844 -0.3032
17459SOL    HW153798   4.446   9.019   7.965 -0.6123 -0.1797  0.0752
17459SOL    HW253799   4.552   8.980   7.864  0.0997  1.2857  0.2322
17460SOL     OW53800   3.374   5.941   3.722  0.4101  0.1482 -0.2183
17460SOL    HW153801   3.393   6.032   3.698  0.5918  0.0086 -0.6014
17460SOL    HW253802   3.409   5.933   3.811 -2.8367  1.5011  1.3265
17461SOL     OW53803   8.586   7.821   9.242 -0.1458 -0.5809  0.1152
17461SOL    HW153804   8.606   7.745   9.187 -1.4035 -0.4497 -0.5831
17461SOL    HW253805   8.519   7.868   9.192 -0.5937  0.0796  1.3136
17462SOL     OW53806   6.754   2.075   2.613  0.0724  0.4448 -0.0454
17462SOL    HW153807   6.792   2.007   2.668 -0.1727  0.8213  0.5964
17462SOL    HW253808   6.736   2.031   2.529 -2.6599 -1.0327  1.1913
17463SOL     OW53809   7.198   2.132   2.881  0.1554  0.2770 -0.1504
17463SOL    HW153810   7.203   2.036   2.877 -0.9175  0.1481  0.7788
17463SOL    HW253811   7.288   2.161   2.893  0.4023 -0.6830  0.4296
17464SOL     OW53812   7.353   2.893   2.955 -0.3540  0.1188 -0.2737
17464SOL    HW153813   7.283   2.896   2.890  1.6607  3.5923 -2.5917
17464SOL    HW253814   7.416   2.832   2.919 -0.7508 -0.5867  0.2096
17465SOL     OW53815   1.789   6.317   4.344  0.1988 -0.6332  0.3253
17465SOL    HW153816   1.743   6.346   4.265 -0.8078 -0.9770  0.7697
17465SOL    HW253817   1.879   6.302   4.315  0.1648  0.5125 -0.4582
17466SOL     OW53818   4.351   1.811   1.558 -0.5344 -0.2005 -0.0478
17466SOL    HW153819   4.278   1.841   1.612 -0.2550  0.4824 -0.0387
17466SOL    HW253820   4.422   1.795   1.621  0.3008  2.1037 -0.3061
17467SOL     OW53821   1.314   5.726   1.477  0.7212 -0.9483  0.3755
17467SOL    HW153822   1.374   5.786   1.433  0.3314 -0.1976  0.8694
17467SOL    HW253823   1.365   5.689   1.549  0.1312  0.9667  1.8589
17468SOL     OW53824   7.972   9.100   8.295  0.6833  0.0525 -0.0717
17468SOL    HW153825   7.989   9.190   8.320  1.1316  0.3197 -1.2577
17468SOL    HW253826   7.902   9.071   8.354 -0.5165  1.6476 -0.6253
17469SOL     OW53827   5.859   4.045   6.771 -0.0615 -0.6058  0.5136
17469SOL    HW153828   5.918   4.007   6.706  0.4271 -0.3705  0.8107
17469SOL    HW253829   5.830   3.970   6.824  0.0790 -0.7045  0.4520
17470SOL     OW53830   6.990   0.477   8.005  0.1669  0.6919 -0.4671
17470SOL    HW153831   7.057   0.413   7.980  1.5412  1.7583  0.3324
17470SOL    HW253832   6.966   0.452   8.095  0.6358  1.2366 -0.1889
17471SOL     OW53833   6.554   3.294   6.555 -0.0144  0.2188  0.8815
17471SOL    HW153834   6.512   3.244   6.625 -1.0572  0.5982  0.5486
17471SOL    HW253835   6.627   3.239   6.526 -1.6804 -1.6141 -0.1317
17472SOL     OW53836   6.472   6.742   3.466 -0.0924 -0.2240 -0.4383
17472SOL    HW153837   6.527   6.812   3.432 -1.1841  0.4547 -0.8514
17472SOL    HW253838   6.509   6.662   3.428  0.0124  0.3158 -1.4951
17473SOL     OW53839   7.284   3.587   5.974 -0.0767  0.6506 -0.2024
17473SOL    HW153840   7.376   3.576   5.995 -0.2109  0.7299  0.4301
17473SOL    HW253841   7.263   3.677   5.999 -0.3427  0.6100 -0.2712
17474SOL     OW53842   6.275   2.599   3.579  0.2697 -0.0522 -0.9959
17474SOL    HW153843   6.226   2.656   3.638  1.6283 -0.2428  0.3664
17474SOL    HW253844   6.232   2.514   3.585  0.8713 -0.2797  0.3669
17475SOL     OW53845   0.391   3.766   1.184 -0.1438 -0.1536 -0.0741
17475SOL    HW153846   0.375   3.787   1.092  0.0506 -0.5743 -0.2072
17475SOL    HW253847   0.484   3.742   1.187  0.4256  1.9649  0.6317
17476SOL     OW53848   5.437   9.168   9.096 -0.7179  0.1777  0.0687
17476SOL    HW153849   5.361   9.220   9.068  0.5161  1.4935 -0.9825
17476SOL    HW253850   5.512   9.220   9.070  0.5853 -1.6375  0.0169
17477SOL     OW53851   2.455   6.875   7.582  0.1694 -0.0633  0.3874
17477SOL    HW153852   2.402   6.845   7.508  1.1697 -1.6337  0.2768
17477SOL    HW253853   2.458   6.970   7.571 -0.7302 -0.1447 -0.8753
17478SOL     OW53854   7.476   5.109   5.669 -0.1873  0.2567  0.0010
17478SOL    HW153855   7.407   5.048   5.645  0.9107 -0.5786 -1.1749
17478SOL    HW253856   7.500   5.084   5.758  0.7238 -1.5387 -0.7058
17479SOL     OW53857   5.975   5.328   5.089  0.1357 -0.1664  0.4902
17479SOL    HW153858   5.965   5.417   5.123 -1.5045 -0.8430  1.9895
17479SOL    HW253859   6.005   5.339   4.999 -0.9130  1.9382  0.3352
17480SOL     OW53860   4.218   1.982   4.967 -0.2976 -0.0924 -0.1796
17480SOL    HW153861   4.253   1.910   5.020 -0.0041 -1.5902 -2.2740
17480SOL    HW253862   4.295   2.022   4.927 -0.4629  1.4232  0.9365
17481SOL     OW53863   7.818   0.281   7.821 -0.1906 -0.2125 -0.5135
17481SOL    HW153864   7.736   0.237   7.844  0.2083  0.3017  2.2250
17481SOL    HW253865   7.880   0.251   7.887  1.3409  0.8488 -1.4174
17482SOL     OW53866   6.360   2.318   7.174  0.3107 -0.0282  0.6443
17482SOL    HW153867   6.376   2.252   7.241  1.0792 -0.3965  0.1211
17482SOL    HW253868   6.446   2.331   7.133  0.4075  1.9753  1.3456
17483SOL     OW53869   3.083   6.539   2.952  0.0156 -0.3651  0.1918
17483SOL    HW153870   3.122   6.604   3.010 -0.3280 -0.1686  0.2081
17483SOL    HW253871   3.138   6.538   2.874  0.3357 -0.4481  0.4193
17484SOL     OW53872   3.720   7.307   5.027 -0.2762 -0.2019 -0.4764
17484SOL    HW153873   3.653   7.246   4.997 -1.7372  0.8078  0.6557
17484SOL    HW253874   3.756   7.343   4.946 -0.6838 -1.1664 -1.1125
17485SOL     OW53875   8.517   6.874   8.848 -0.2023  0.0117  0.6216
17485SOL    HW153876   8.574   6.802   8.876 -2.4465 -1.1093  2.6380
17485SOL    HW253877   8.576   6.949   8.837  1.9486 -1.6387  0.2735
17486SOL     OW53878   1.708   1.415   0.379 -0.3691 -0.0129 -0.1438
17486SOL    HW153879   1.627   1.365   0.366 -0.1745 -1.1607  2.4729
17486SOL    HW253880   1.679   1.499   0.415 -0.4220 -0.3442  0.5981
17487SOL     OW53881   9.125   7.110   7.904 -0.0956  0.1870 -0.2600
17487SOL    HW153882   9.187   7.158   7.849 -2.2448  1.1954 -1.9375
17487SOL    HW253883   9.095   7.175   7.968 -1.4306  0.5401 -1.2039
17488SOL     OW53884   3.092   6.152   9.260  0.1592  0.4525 -0.2262
17488SOL    HW153885   3.168   6.202   9.290 -0.3150  1.0353  0.0237
17488SOL    HW253886   3.021   6.179   9.319 -0.0553 -0.6766  0.0534
17489SOL     OW53887   0.844   2.247   2.548 -0.3661 -0.1378 -0.1590
17489SOL    HW153888   0.835   2.236   2.643  0.1846  0.2535 -0.0620
17489SOL    HW253889   0.938   2.251   2.532 -0.3450 -2.3447 -0.9759
17490SOL     OW53890   8.268   5.668   9.101  1.2927  0.2028 -0.9690
17490SOL    HW153891   8.207   5.735   9.071  0.1323  0.0243  0.8535
17490SOL    HW253892   8.319   5.712   9.170  0.1100 -0.8901  0.6733
17491SOL     OW53893   1.797   9.075   1.010  0.0195 -0.4101  0.0109
17491SOL    HW153894   1.826   8.993   0.970 -1.6462 -0.9968 -0.0584
17491SOL    HW253895   1.806   9.060   1.104  2.4048  0.3939 -0.0244
17492SOL     OW53896   7.838   7.092   0.858  0.0468 -0.4073  0.3390
17492SOL    HW153897   7.829   7.133   0.771  0.0813 -0.0813  0.4860
17492SOL    HW253898   7.877   7.007   0.841  0.9847  0.0549  0.1194
17493SOL     OW53899   5.597   8.443   9.202 -0.3486  0.4465  0.2010
17493SOL    HW153900   5.561   8.524   9.238 -1.4429  0.8792 -1.7181
17493SOL    HW253901   5.675   8.470   9.154  0.4934  0.0339  1.3046
17494SOL     OW53902   7.080   1.200   8.749 -0.2170  0.0245  0.3961
17494SOL    HW153903   7.012   1.182   8.813  1.6778 -2.2990  1.9161
17494SOL    HW253904   7.126   1.277   8.783 -0.8250  0.4007  0.3874
17495SOL     OW53905   4.010   7.531   0.077  0.2532  0.2402 -0.0284
17495SOL    HW153906   3.959   7.499   0.151  0.2756 -1.6686 -0.7864
17495SOL    HW253907   3.986   7.624   0.070 -0.3709  0.2592  1.8275
17496SOL     OW53908   0.612   3.150   3.913 -0.1215  0.6362 -0.1598
17496SOL    HW153909   0.679   3.182   3.972 -1.3799  4.2268 -0.4288
17496SOL    HW253910   0.657   3.135   3.830  0.8894 -0.3260  0.5443
17497SOL     OW53911   4.731   5.396   4.858 -0.0380  0.1489 -0.3813
17497SOL    HW153912   4.699   5.317   4.902  1.6024 -0.4423 -0.1444
17497SOL    HW253913   4.739   5.371   4.766 -1.6662  0.7852 -0.7221
17498SOL     OW53914   5.776   6.965   7.213  0.1776  0.4795  0.3317
17498SOL    HW153915   5.825   7.047   7.220  1.5138  0.0118 -2.4367
17498SOL    HW253916   5.826   6.904   7.267  1.1008  0.6727 -0.2862
17499SOL     OW53917   1.345   4.854   5.544 -0.5124 -0.1427 -0.0127
17499SOL    HW153918   1.275   4.870   5.607  0.8126  1.8034  1.0896
17499SOL    HW253919   1.315   4.897   5.464 -0.7346  0.4468  0.3731
17500SOL     OW53920   2.789   1.297   0.169  0.2397 -0.0427 -1.0081
17500SOL    HW153921   2.813   1.367   0.109  1.5132 -0.2756 -0.7943
17500SOL    HW253922   2.833   1.219   0.135  1.3134 -0.1012  0.3969
17501SOL     OW53923   6.024   4.213   4.952 -0.0318 -0.3066 -0.5903
17501SOL    HW153924   6.078   4.292   4.950 -1.4998  0.7346 -0.5938
17501SOL    HW253925   5.971   4.222   5.031 -0.0016 -1.4604 -0.4173
17502SOL     OW53926   7.692   1.261   8.386  0.0168  0.5170  0.1978
17502SOL    HW153927   7.754   1.255   8.458 -1.3849 -1.1557  1.3612
17502SOL    HW253928   7.685   1.354   8.367  3.0605  0.7640 -0.2039
17503SOL     OW53929   6.550   8.857   7.257  0.4577 -0.6841 -0.0793
17503SOL    HW153930   6.617   8.788   7.254 -0.9344 -2.0905 -0.6682
17503SOL    HW253931   6.473   8.816   7.216  0.1356  1.8796 -2.3111
17504SOL     OW53932   8.324   5.649   4.939 -0.5067 -0.3869 -0.0657
17504SOL    HW153933   8.353   5.740   4.946 -2.0438  0.2676 -1.4432
17504SOL    HW253934   8.369   5.615   4.862  1.4603 -1.4275  1.4493
17505SOL     OW53935   4.216   3.288   3.724  0.1145  0.0139 -1.5062
17505SOL    HW153936   4.307   3.279   3.754  0.2244 -0.7140 -2.0451
17505SOL    HW253937   4.220   3.355   3.655  0.3056 -0.2847 -1.7869
17506SOL     OW53938   5.500   5.379   5.145 -0.0644  0.5396  0.1518
17506SOL    HW153939   5.458   5.296   5.121  0.5012  0.5767 -1.0682
17506SOL    HW253940   5.427   5.440   5.158 -0.4736 -0.0800  0.8239
17507SOL     OW53941   4.537   3.225   7.488  0.1805 -0.2938 -0.6144
17507SOL    HW153942   4.574   3.299   7.439  0.4333 -0.6031 -0.8943
17507SOL    HW253943   4.563   3.148   7.437  0.5178 -0.6250  0.0521
17508SOL     OW53944   2.032   3.144   4.820  0.0911  0.1198  0.3582
17508SOL    HW153945   2.101   3.189   4.770 -1.9772  1.2193 -1.7611
17508SOL    HW253946   2.016   3.063   4.771 -0.4261  0.1065  0.5443
17509SOL     OW53947   1.456   8.837   7.957  0.2750  0.0079  0.4656
17509SOL    HW153948   1.495   8.897   7.894 -0.7900 -1.2332 -1.4772
17509SOL    HW253949   1.492   8.752   7.934 -2.1150 -0.8859 -0.2553
17510SOL     OW53950   7.848   8.795   1.467  0.4002 -0.2931 -0.4194
17510SOL    HW153951   7.870   8.882   1.502  1.0922  0.3643 -2.3348
17510SOL    HW253952   7.925   8.742   1.487  0.4346 -0.1659 -0.2056
17511SOL     OW53953   1.243   7.063   2.920  0.1354  0.2510 -0.0943
17511SOL    HW153954   1.329   7.026   2.898  0.3351  0.9130 -0.4489
17511SOL    HW253955   1.198   7.070   2.836 -0.1290  0.2428  0.0488
17512SOL     OW53956   4.303   4.807   1.007  0.2416 -0.4578 -0.8199
17512SOL    HW153957   4.244   4.804   0.931  0.9974  1.0252 -1.5143
17512SOL    HW253958   4.249   4.843   1.077 -0.7090 -2.6282 -0.3521
17513SOL     OW53959   7.923   6.812   5.803 -0.4889 -0.2202  0.7640
17513SOL    HW153960   7.986   6.852   5.743  1.0042  1.9154  3.5349
17513SOL    HW253961   7.860   6.881   5.823  0.8661  0.2696  3.9528
17514SOL     OW53962   2.169   7.625   0.481 -0.0394  0.3970 -0.0434
17514SOL    HW153963   2.251   7.674   0.476  0.2314  0.0911  1.1138
17514SOL    HW253964   2.126   7.641   0.397  0.2673  2.1926  0.1157
17515SOL     OW53965   3.216   5.175   7.632  0.5094 -0.0862  0.0424
17515SOL    HW153966   3.309   5.198   7.634  1.0644 -2.2147  0.7771
17515SOL    HW253967   3.193   5.175   7.539  0.8378  1.8310 -0.0777
17516SOL     OW53968   5.608   4.697   8.518  0.1591 -0.3402 -0.5556
17516SOL    HW153969   5.644   4.633   8.456  1.1526 -0.9833  0.6327
17516SOL    HW253970   5.640   4.668   8.603 -0.1632  1.2181  0.1272
17517SOL     OW53971   2.915   4.338   7.280  0.1199  0.3996 -0.7768
17517SOL    HW153972   2.823   4.360   7.268 -0.1845 -0.4707 -0.1651
17517SOL    HW253973   2.954   4.416   7.320 -0.7752  0.1252  0.7075
17518SOL     OW53974   4.587   2.246   2.427  0.4925  0.1343 -0.1560
17518SOL    HW153975   4.678   2.271   2.443  0.6329  0.6625 -1.6332
17518SOL    HW253976   4.579   2.158   2.463  0.8971  0.9683  2.1882
17519SOL     OW53977   6.399   7.014   4.710  0.2846  0.1038 -0.0476
17519SOL    HW153978   6.379   6.966   4.630 -1.7461  1.5221 -0.4511
17519SOL    HW253979   6.343   6.975   4.777 -0.2855  0.9208 -0.0373
17520SOL     OW53980   6.665   2.779   2.886 -0.4082  0.2564 -0.3210
17520SOL    HW153981   6.725   2.712   2.853 -0.8250 -0.8899  1.1407
17520SOL    HW253982   6.578   2.739   2.878 -0.8051  1.1454 -0.6162
17521SOL     OW53983   5.184   1.974   3.004  0.5843  0.7699  0.1333
17521SOL    HW153984   5.226   1.963   3.089  0.8988  3.0569  0.3265
17521SOL    HW253985   5.126   2.050   3.015 -0.6474  0.0966 -1.2424
17522SOL     OW53986   8.092   0.858   4.448  0.6210 -0.3055  0.4063
17522SOL    HW153987   8.185   0.845   4.432  0.5120 -0.9612  0.2961
17522SOL    HW253988   8.076   0.814   4.532  0.5523  0.4300  0.7910
17523SOL     OW53989   0.025   7.380   4.828  0.4482  0.0014 -0.1655
17523SOL    HW153990   0.011   7.379   4.922 -1.3742 -1.4197 -0.4198
17523SOL    HW253991  -0.058   7.410   4.791  1.4068  1.3998 -1.3138
17524SOL     OW53992   7.409   4.662   6.183 -0.4265 -0.3374  0.0323
17524SOL    HW153993   7.376   4.697   6.100  1.1448  1.7637  0.1954
17524SOL    HW253994   7.504   4.665   6.174 -0.2188 -0.1060  1.8762
17525SOL     OW53995   7.666   8.954   5.287 -0.2000  0.2142 -0.4388
17525SOL    HW153996   7.596   8.895   5.262 -0.1213 -1.1218  2.1213
17525SOL    HW253997   7.746   8.912   5.255 -0.2003 -0.8694  0.8637
17526SOL     OW53998   7.048   1.124   7.211 -0.0600  0.2588 -0.5536
17526SOL    HW153999   7.048   1.124   7.115 -0.2281 -0.9308 -0.5695
17526SOL    HW254000   6.981   1.060   7.235  1.0504 -0.6152  0.3227
17527SOL     OW54001   0.365   8.754   8.262 -0.1470 -0.1156 -0.3076
17527SOL    HW154002   0.455   8.772   8.291 -0.4899  0.2388  0.5894
17527SOL    HW254003   0.369   8.760   8.167  0.9820 -1.0509 -0.3420
17528SOL     OW54004   0.191   8.163   2.702  0.3542  0.1446  0.5067
17528SOL    HW154005   0.165   8.219   2.629 -0.8838  0.6334  1.2858
17528SOL    HW254006   0.121   8.174   2.766  2.4173  1.4597  2.7144
17529SOL     OW54007   3.858   1.368   2.486 -0.2911  0.1724 -0.0428
17529SOL    HW154008   3.868   1.460   2.461  0.6505  0.2834  0.6886
17529SOL    HW254009   3.768   1.363   2.519 -0.7403  0.5558 -1.1411
17530SOL     OW54010   8.762   5.028   2.603 -0.2323 -0.1531 -0.2872
17530SOL    HW154011   8.720   5.017   2.688 -0.7911 -0.4909 -0.5983
17530SOL    HW254012   8.823   5.101   2.615 -0.7231  0.1757  0.2415
17531SOL     OW54013   2.502   4.522   6.641  0.3163 -0.1345  0.0982
17531SOL    HW154014   2.473   4.431   6.635 -0.9021  0.1869  0.6299
17531SOL    HW254015   2.562   4.523   6.716  0.6566 -0.5796 -0.1688
17532SOL     OW54016   6.717   2.999   5.803 -0.2857  0.4229 -0.2213
17532SOL    HW154017   6.626   3.025   5.795 -0.2472  1.0102  0.9798
17532SOL    HW254018   6.762   3.078   5.833  1.1081  0.9188 -3.2286
17533SOL     OW54019   1.153   5.997   6.521 -0.0985  0.5597  0.2835
17533SOL    HW154020   1.206   5.917   6.516  1.7583  1.7985 -0.6920
17533SOL    HW254021   1.133   6.006   6.615 -1.1020 -1.4716  0.3210
17534SOL     OW54022   7.209   0.730   5.336  0.2193  0.2699  0.1158
17534SOL    HW154023   7.148   0.666   5.374 -0.5872 -0.4429 -2.1732
17534SOL    HW254024   7.213   0.706   5.244  2.8178  1.2856 -0.1010
17535SOL     OW54025   6.201   2.719   6.280  0.2442 -0.0508  0.3296
17535SOL    HW154026   6.218   2.692   6.370 -0.5291 -1.5553  0.0566
17535SOL    HW254027   6.153   2.645   6.241  0.1771  0.7471 -1.1852
17536SOL     OW54028   7.363   8.021   8.231  0.7268 -0.2544  0.1993
17536SOL    HW154029   7.423   7.949   8.250 -0.9551 -1.2198  2.2776
17536SOL    HW254030   7.375   8.082   8.303 -0.0346  0.0576  0.0679
17537SOL     OW54031   7.073   9.263   6.751 -0.4329 -0.0612 -0.1077
17537SOL    HW154032   7.065   9.228   6.839 -2.0864  2.3905  0.8424
17537SOL    HW254033   7.091   9.356   6.764  0.5777  0.1458 -2.4079
17538SOL     OW54034   3.519   9.229   0.731 -0.7697  0.0123  0.7640
17538SOL    HW154035   3.511   9.229   0.826 -2.0464 -3.0236  0.7947
17538SOL    HW254036   3.608   9.259   0.714 -1.1927  2.7582  2.7099
17539SOL     OW54037   0.465   6.637   8.888 -0.3704  0.1863  0.0545
17539SOL    HW154038   0.465   6.603   8.978 -0.6506  2.2045  0.8624
17539SOL    HW254039   0.545   6.689   8.882 -0.5183  0.3298 -0.7617
17540SOL     OW54040   2.558   8.868   3.844 -0.0301 -0.1776  0.1640
17540SOL    HW154041   2.559   8.882   3.749  0.0549 -1.6434 -0.0792
17540SOL    HW254042   2.532   8.953   3.881  0.3218  0.5220 -1.1402
17541SOL     OW54043   0.437   6.784   1.597 -0.3184 -0.4804  0.7040
17541SOL    HW154044   0.494   6.708   1.599  1.7397  0.7909 -2.2753
17541SOL    HW254045   0.358   6.755   1.551 -0.1810 -1.1506  0.8904
17542SOL     OW54046   8.330   2.611   5.477  0.2981 -0.3739 -0.2083
17542SOL    HW154047   8.325   2.665   5.555  1.9104 -1.7589  0.9083
17542SOL    HW254048   8.276   2.534   5.498 -0.2216 -0.2233 -0.9409
17543SOL     OW54049   3.709   6.156   6.490  0.1436 -0.0504  0.2744
17543SOL    HW154050   3.630   6.176   6.540  1.0460  1.4001  1.2200
17543SOL    HW254051   3.770   6.120   6.555 -0.1485 -2.4567 -0.7005
17544SOL     OW54052   1.093   3.631   1.930 -0.9154 -0.0183 -0.2710
17544SOL    HW154053   1.015   3.685   1.945 -0.4750  0.6187 -0.2473
17544SOL    HW254054   1.165   3.693   1.928 -0.4956 -0.5202 -1.1026
17545SOL     OW54055   3.823   0.423   4.356  0.1751  0.1457 -0.4141
17545SOL    HW154056   3.783   0.479   4.288  0.3135  0.2834 -0.3826
17545SOL    HW254057   3.871   0.484   4.412 -2.7104  0.5344  1.8536
17546SOL     OW54058   0.101   4.438   5.481  0.1605 -0.0026 -0.2671
17546SOL    HW154059   0.112   4.346   5.507 -1.3189 -0.2301 -0.3772
17546SOL    HW254060   0.013   4.443   5.446 -0.4911  1.8612  1.4376
17547SOL     OW54061   8.210   1.973   4.817  0.0239 -0.0528  0.0510
17547SOL    HW154062   8.132   2.021   4.790 -1.2717 -1.3678  1.2592
17547SOL    HW254063   8.190   1.944   4.906  0.8561 -2.5549 -0.5023
17548SOL     OW54064   4.402   0.169   8.366 -0.5852  0.2059  0.3060
17548SOL    HW154065   4.457   0.100   8.403  0.7554  0.4345 -1.1313
17548SOL    HW254066   4.368   0.216   8.442  0.7520 -0.3084  1.2635
17549SOL     OW54067   7.837   5.912   2.981  0.1970  0.1759 -0.3781
17549SOL    HW154068   7.835   5.816   2.971  0.5082 -0.1247  1.9305
17549SOL    HW254069   7.853   5.945   2.893 -0.2142 -1.8817 -1.2804
17550SOL     OW54070   3.705   7.830   1.503  0.6543  0.1526  0.0293
17550SOL    HW154071   3.704   7.742   1.540  0.5305  0.3870  0.6089
17550SOL    HW254072   3.747   7.821   1.418 -0.0437 -0.5932 -0.2450
17551SOL     OW54073   6.133   0.281   6.906 -0.3502 -0.5117  0.0160
17551SOL    HW154074   6.078   0.304   6.980 -1.4798  0.8252 -1.1775
17551SOL    HW254075   6.091   0.205   6.867  0.7277 -1.7630  1.1958
17552SOL     OW54076   2.128   4.725   3.775 -0.2209 -0.1577 -0.1403
17552SOL    HW154077   2.159   4.811   3.746 -1.4210  0.3166 -0.0593
17552SOL    HW254078   2.052   4.707   3.720 -0.3457 -0.8921  0.2619
17553SOL     OW54079   4.972   8.850   4.325  0.3190  0.4631  0.7621
17553SOL    HW154080   4.966   8.757   4.304  1.1354  0.7384 -0.8483
17553SOL    HW254081   4.882   8.878   4.337  0.0150 -0.3905  0.5750
17554SOL     OW54082   8.728   2.473   5.489 -0.0046 -0.0167 -0.2720
17554SOL    HW154083   8.780   2.537   5.440 -0.2413  0.6219  0.2917
17554SOL    HW254084   8.642   2.475   5.446  0.1967 -0.4999 -0.7116
17555SOL     OW54085   5.274   2.357   2.641  0.1359  0.0734 -0.0036
17555SOL    HW154086   5.347   2.335   2.698  0.3752  0.6853 -0.0641
17555SOL    HW254087   5.281   2.452   2.628 -0.4963  0.0938 -0.2456
17556SOL     OW54088   1.141   1.479   5.028  0.0663  0.4775  0.6528
17556SOL    HW154089   1.136   1.515   4.939  1.6852  1.2743  0.8363
17556SOL    HW254090   1.168   1.553   5.082 -3.2874  0.6779  2.3156
17557SOL     OW54091   3.892   8.351   3.598  0.3433  0.0680  0.4396
17557SOL    HW154092   3.915   8.438   3.628  2.9449  0.2178 -1.5555
17557SOL    HW254093   3.964   8.295   3.629 -1.4891 -1.5052  2.0507
17558SOL     OW54094   6.728   4.767   7.556 -0.0804  0.0376 -0.6529
17558SOL    HW154095   6.757   4.691   7.608 -0.4930  1.0838  1.1948
17558SOL    HW254096   6.793   4.834   7.574 -1.6221  1.2531  0.6635
17559SOL     OW54097   2.262   3.105   4.981  0.1202 -0.1160  0.4649
17559SOL    HW154098   2.272   3.044   4.908 -1.3985  0.2277 -0.0680
17559SOL    HW254099   2.206   3.175   4.946  1.4991  1.4011  1.1758
17560SOL     OW54100   1.092   1.700   1.201  0.3445  0.0105 -0.2641
17560SOL    HW154101   1.067   1.713   1.110 -0.8125  0.9458  0.1713
17560SOL    HW254102   1.107   1.605   1.208  0.2059 -0.1058 -1.3593
17561SOL     OW54103   1.435   1.756   3.987 -0.5600 -0.4457 -0.6223
17561SOL    HW154104   1.387   1.819   4.041  1.5576  0.3088  0.5013
17561SOL    HW254105   1.454   1.683   4.046 -0.2755 -0.6995 -1.0195
17562SOL     OW54106   3.868   7.067   4.166 -0.3033  0.1188  0.4237
17562SOL    HW154107   3.773   7.072   4.178 -0.4177  2.5793 -0.9756
17562SOL    HW254108   3.889   7.141   4.109  2.5351 -0.0726  1.0937
17563SOL     OW54109   7.455   4.144   4.590 -0.1706 -0.1551 -0.5118
17563SOL    HW154110   7.398   4.219   4.603 -0.1240 -0.2360  0.2457
17563SOL    HW254111   7.543   4.177   4.609 -0.2830 -0.6734  1.0898
17564SOL     OW54112   1.126   5.777   4.780  0.5246  0.4548 -0.1965
17564SOL    HW154113   1.116   5.826   4.698  0.1599  0.8152  0.0568
17564SOL    HW254114   1.041   5.785   4.823 -0.0058 -1.6052 -0.7802
17565SOL     OW54115   3.325   4.481   2.104  0.4316  0.1704  0.0017
17565SOL    HW154116   3.265   4.411   2.130  0.5674  0.0757  0.0605
17565SOL    HW254117   3.272   4.560   2.106 -0.0128 -0.0742 -1.1133
17566SOL     OW54118   8.061   8.583   1.521 -0.5072 -0.5153  0.6052
17566SOL    HW154119   8.052   8.509   1.461  0.4404 -0.1522 -0.0243
17566SOL    HW254120   8.021   8.554   1.603 -0.4968 -1.5673  0.2494
17567SOL     OW54121   3.320   8.472   6.423 -0.2755  0.5571 -0.4246
17567SOL    HW154122   3.406   8.441   6.452 -0.8753  0.6468  1.6070
17567SOL    HW254123   3.277   8.394   6.389 -0.9906 -0.5459  2.6886
17568SOL     OW54124   2.388   6.883   3.006 -0.0154 -0.1606 -0.3874
17568SOL    HW154125   2.433   6.892   2.922  0.7882  2.9563  0.2747
17568SOL    HW254126   2.312   6.940   2.999 -1.2122 -1.5981  0.2747
17569SOL     OW54127   7.173   1.036   2.536  0.5052  0.5815 -0.4883
17569SOL    HW154128   7.127   1.059   2.617 -0.0045 -1.0844 -0.2681
17569SOL    HW254129   7.218   1.116   2.510  0.8075  1.0991  1.5195
17570SOL     OW54130   9.275   2.354   0.004 -0.2627  0.1613 -0.4468
17570SOL    HW154131   9.255   2.389   0.091  0.3998 -1.1191  0.2459
17570SOL    HW254132   9.285   2.432  -0.051 -2.4146  0.9689  0.2028
17571SOL     OW54133   6.992   5.478   7.971  0.3662 -0.4454 -0.2354
17571SOL    HW154134   6.976   5.543   8.039  0.9922 -0.5636  0.0352
17571SOL    HW254135   6.908   5.433   7.960 -0.0853  0.4315 -0.4604
17572SOL     OW54136   1.343   2.331   4.206  0.6127  0.3270 -0.5620
17572SOL    HW154137   1.312   2.397   4.144  0.0140  1.6742  1.0913
17572SOL    HW254138   1.377   2.260   4.151 -0.7207  1.0530 -2.4055
17573SOL     OW54139   8.005   1.696   3.271 -0.2445  0.5725  0.0987
17573SOL    HW154140   8.006   1.610   3.228  0.1231  0.8118 -0.3784
17573SOL    HW254141   7.918   1.732   3.251  0.3097  1.1362 -1.3689
17574SOL     OW54142   3.971   2.263   3.910  1.0435 -0.2451 -0.7454
17574SOL    HW154143   3.914   2.191   3.936 -0.8203  1.3608 -0.1059
17574SOL    HW254144   4.012   2.293   3.991 -1.9782  2.4345  0.0059
17575SOL     OW54145   4.196   6.403   0.170 -0.5372  0.0392  0.2446
17575SOL    HW154146   4.103   6.398   0.192 -0.5512  0.0951  0.1979
17575SOL    HW254147   4.217   6.316   0.134 -0.7115  0.2182 -0.2936
17576SOL     OW54148   1.986   1.067   2.290  0.1421  0.2761  0.0768
17576SOL    HW154149   1.967   1.153   2.252  0.7358 -0.6759 -2.6137
17576SOL    HW254150   1.901   1.035   2.320  0.0631  2.1740  2.1814
17577SOL     OW54151   5.311   4.164   7.467 -0.0359 -0.2118 -0.1266
17577SOL    HW154152   5.396   4.168   7.423 -0.0981  1.6369 -0.1849
17577SOL    HW254153   5.326   4.110   7.544  1.2627  0.2273 -0.0420
17578SOL     OW54154   8.269   8.221   1.880  0.2935 -0.1167 -0.2551
17578SOL    HW154155   8.253   8.133   1.844  0.8458 -0.5899  0.6279
17578SOL    HW254156   8.360   8.218   1.910 -0.2832  0.0890  1.6276
17579SOL     OW54157   1.807   7.570   2.012  0.0275  0.6744 -0.2863
17579SOL    HW154158   1.789   7.524   1.929 -0.6125 -1.4435  0.9489
17579SOL    HW254159   1.849   7.504   2.067  1.1160  2.2494  0.8651
17580SOL     OW54160   0.891   3.821   1.990  0.0118 -0.2598 -0.1604
17580SOL    HW154161   0.976   3.860   1.971  0.0513 -0.7275 -0.9988
17580SOL    HW254162   0.828   3.892   1.975  0.2653  0.1966  0.8347
17581SOL     OW54163   3.640   7.684   6.076  0.0658  0.1913 -0.2839
17581SOL    HW154164   3.669   7.771   6.104  0.2647 -0.5011  1.8691
17581SOL    HW254165   3.669   7.677   5.985  3.2875  1.0072  0.5571
17582SOL     OW54166   6.248   5.532   3.302  0.0173 -0.3997 -0.3205
17582SOL    HW154167   6.303   5.458   3.327 -0.6350 -1.0653 -0.8109
17582SOL    HW254168   6.299   5.579   3.236  0.3686 -0.4872 -0.1154
17583SOL     OW54169   4.047   6.855   4.238  0.1167  0.0294  0.8519
17583SOL    HW154170   3.970   6.907   4.215 -0.6501 -1.2064  0.4892
17583SOL    HW254171   4.017   6.797   4.308  0.7146 -0.4533  0.7182
17584SOL     OW54172   3.101   6.148   0.468 -0.2179  0.4877 -0.0362
17584SOL    HW154173   3.027   6.163   0.527 -0.1795  1.0054 -0.1181
17584SOL    HW254174   3.168   6.210   0.497  1.2815 -1.8632  1.8529
17585SOL     OW54175   1.984   2.306   9.048 -0.2428 -0.4837 -1.0181
17585SOL    HW154176   1.901   2.284   9.007 -0.9154 -0.7816  0.4490
17585SOL    HW254177   1.962   2.371   9.114  0.5340 -1.2766  0.0464
17586SOL     OW54178   4.702   5.485   0.294  0.6905 -0.2382 -0.0230
17586SOL    HW154179   4.782   5.535   0.278  0.8151 -0.2432  0.5553
17586SOL    HW254180   4.642   5.549   0.334  0.8491 -0.5481  0.7157
17587SOL     OW54181   4.179   5.737   2.253  0.2340 -0.3695  0.0912
17587SOL    HW154182   4.157   5.828   2.274 -1.1575 -0.5214 -0.5380
17587SOL    HW254183   4.098   5.702   2.214  1.4681 -1.1551 -1.9520
17588SOL     OW54184   8.392   6.552   0.964 -0.2464 -0.2385 -0.7137
17588SOL    HW154185   8.412   6.459   0.967 -0.8250 -0.3441  0.1082
17588SOL    HW254186   8.441   6.590   1.037  0.7093  0.2624 -1.5835
17589SOL     OW54187   0.495   8.292   8.596  0.3001  0.2872  0.2222
17589SOL    HW154188   0.507   8.216   8.653  0.5365 -0.2298 -0.5086
17589SOL    HW254189   0.400   8.301   8.589  0.1747 -1.6691 -1.8954
17590SOL     OW54190   6.969   3.703   2.192 -0.0679  0.0090  0.1281
17590SOL    HW154191   6.990   3.709   2.099  0.8027 -1.2988  0.2162
17590SOL    HW254192   6.964   3.794   2.221  0.5513  0.4213 -0.9995
17591SOL     OW54193   8.547   2.470   7.412 -0.2879  0.8221  0.7173
17591SOL    HW154194   8.517   2.460   7.322 -0.1805  0.3205  0.7362
17591SOL    HW254195   8.608   2.544   7.409 -0.3324  0.8457  0.3894
17592SOL     OW54196   1.244   1.640   7.482  0.0985  0.2282 -0.0315
17592SOL    HW154197   1.183   1.614   7.551  1.2653  1.2883  1.4697
17592SOL    HW254198   1.305   1.567   7.475 -1.4706 -1.0033 -1.8033
17593SOL     OW54199   4.832   5.814   3.761 -0.0407 -0.1421  0.1596
17593SOL    HW154200   4.873   5.900   3.771  1.2543 -0.8815  1.6911
17593SOL    HW254201   4.883   5.757   3.818  0.7485 -2.4972 -2.6622
17594SOL     OW54202   2.816   3.078   0.052 -0.3902 -0.4050  0.4400
17594SOL    HW154203   2.751   3.019   0.011 -0.9847  0.1874  0.5112
17594SOL    HW254204   2.795   3.164   0.016 -0.7510  0.0826  1.7925
17595SOL     OW54205   0.715   1.944   8.728 -0.1485 -0.2551 -0.5280
17595SOL    HW154206   0.647   1.914   8.668 -1.8054  1.7652  0.2239
17595SOL    HW254207   0.668   1.970   8.807  1.4668  1.4755 -0.0595
17596SOL     OW54208   3.726   5.066   8.342  0.1201  1.0499  0.0870
17596SOL    HW154209   3.701   5.141   8.289  2.7347  2.5322  0.7627
17596SOL    HW254210   3.664   5.067   8.415  1.0050  3.6301  0.9326
17597SOL     OW54211   6.208   7.216   2.765 -0.4534  0.4760 -0.0427
17597SOL    HW154212   6.175   7.167   2.840  0.1891  0.4924  0.2561
17597SOL    HW254213   6.222   7.150   2.697  1.1749  0.0776  0.6140
17598SOL     OW54214   0.855   6.101   5.573  0.0714  0.0839 -0.4365
17598SOL    HW154215   0.902   6.076   5.653  1.7270  2.9752 -0.3333
17598SOL    HW254216   0.763   6.104   5.599  0.5160  0.4302  1.2324
17599SOL     OW54217   0.780   6.204   5.068 -0.1657  0.6020 -0.0387
17599SOL    HW154218   0.758   6.297   5.080  0.7386  0.9875 -1.0560
17599SOL    HW254219   0.874   6.200   5.087 -0.1776 -0.0767 -0.1126
17600SOL     OW54220   0.344   8.388   2.575 -0.1316 -0.3094 -0.2973
17600SOL    HW154221   0.299   8.350   2.500 -0.0815  1.0590 -1.0356
17600SOL    HW254222   0.437   8.379   2.554 -0.1039 -0.5655 -0.0706
17601SOL     OW54223   1.421   5.755   6.194  0.1118 -0.5049 -0.3080
17601SOL    HW154224   1.452   5.826   6.138 -1.3269  0.1483 -0.3143
17601SOL    HW254225   1.424   5.677   6.139 -0.6114  0.0009 -1.0641
17602SOL     OW54226   0.340   3.977   8.251 -0.6086 -0.1481  0.0776
17602SOL    HW154227   0.357   4.066   8.284  2.1069  0.1846 -1.8627
17602SOL    HW254228   0.245   3.974   8.240 -1.0317  1.6525  2.3946
17603SOL     OW54229   8.263   4.471   8.688  0.3581 -0.1519 -0.7977
17603SOL    HW154230   8.352   4.437   8.682  0.7693  0.6000  0.6119
17603SOL    HW254231   8.208   4.398   8.659  1.4123 -0.6994 -1.4820
17604SOL     OW54232   3.999   2.967   5.361  0.1884 -0.2663 -0.2620
17604SOL    HW154233   3.924   2.926   5.317 -0.0313 -1.0028  0.7324
17604SOL    HW254234   3.988   3.060   5.345 -1.1659 -0.3246  0.1462
17605SOL     OW54235   4.706   1.451   2.151 -0.2417  0.2667 -0.1897
17605SOL    HW154236   4.701   1.523   2.088 -0.4167  0.7605  0.3788
17605SOL    HW254237   4.621   1.409   2.146 -0.5444  0.7951  0.2695
17606SOL     OW54238   5.879   8.858   8.159  0.2466 -0.4860  0.4195
17606SOL    HW154239   5.910   8.947   8.172  3.1030 -1.2563 -0.3678
17606SOL    HW254240   5.788   8.859   8.188  0.5891  2.3465  1.6658
17607SOL     OW54241   2.965   0.846   1.730  0.0906 -0.5058  0.4584
17607SOL    HW154242   3.016   0.837   1.649 -1.5367 -1.2728 -0.5461
17607SOL    HW254243   2.965   0.940   1.748  2.4141 -0.5399  0.9131
17608SOL     OW54244   8.521   8.838   6.768  0.5771 -1.0066  0.1290
17608SOL    HW154245   8.489   8.863   6.681 -1.5137 -0.9310  0.8604
17608SOL    HW254246   8.548   8.747   6.758 -0.8519 -1.4130 -0.3615
17609SOL     OW54247   6.674   2.881   0.783  0.1846  0.0143  0.0480
17609SOL    HW154248   6.601   2.821   0.764 -0.9005  1.3107 -0.0094
17609SOL    HW254249   6.733   2.870   0.709 -1.0637  0.5790 -1.0789
17610SOL     OW54250   0.262   5.711   7.944  0.2258 -0.7192 -0.4999
17610SOL    HW154251   0.335   5.689   7.886 -0.2216 -2.6415 -0.3926
17610SOL    HW254252   0.298   5.698   8.032  0.0555 -0.6121 -0.4150
17611SOL     OW54253   4.506   0.689   1.033  0.0642 -0.0791  0.7364
17611SOL    HW154254   4.474   0.779   1.027  1.6270  0.6222  2.0933
17611SOL    HW254255   4.434   0.636   0.999 -0.2210  1.7685 -1.9013
17612SOL     OW54256   6.238   6.026   0.547 -0.3416  0.2970 -0.2919
17612SOL    HW154257   6.151   6.061   0.566 -0.1340  0.8738 -0.4148
17612SOL    HW254258   6.224   5.931   0.541 -0.2698 -0.1009  3.7053
17613SOL     OW54259   6.715   4.675   5.263 -0.4352  0.1355  0.6331
17613SOL    HW154260   6.726   4.751   5.206  1.5109  0.4932  1.4174
17613SOL    HW254261   6.735   4.600   5.207 -0.5004  0.3382  0.3383
17614SOL     OW54262   7.239   1.002   6.110  0.9510  0.1071  0.2324
17614SOL    HW154263   7.177   0.949   6.060  0.9707  1.1526 -0.9703
17614SOL    HW254264   7.238   1.087   6.066  2.3999  0.4886  0.8818
17615SOL     OW54265   1.104   0.165   3.103  0.0720  0.4511  0.4447
17615SOL    HW154266   1.015   0.201   3.102 -0.1663 -0.1209  0.3682
17615SOL    HW254267   1.093   0.075   3.072  0.8518  0.7566 -0.8075
17616SOL     OW54268   8.596   8.196   2.699 -0.2791 -0.3452 -0.1130
17616SOL    HW154269   8.669   8.239   2.744 -0.4658 -0.2154  0.0668
17616SOL    HW254270   8.560   8.263   2.641 -1.8383  0.4033  1.6187
17617SOL     OW54271   9.176   3.938   1.292 -0.3994 -0.2619  0.0200
17617SOL    HW154272   9.185   4.030   1.317 -1.8002  0.3482 -1.4633
17617SOL    HW254273   9.220   3.933   1.206 -1.3410 -0.6728 -0.4490
17618SOL     OW54274   5.143   9.192   6.571 -0.0031 -0.1843  0.2757
17618SOL    HW154275   5.128   9.198   6.477 -1.0506 -2.8407  0.1939
17618SOL    HW254276   5.210   9.124   6.581 -0.4944 -0.5284  1.4518
17619SOL     OW54277   6.663   2.982   6.229  0.0127 -0.1160 -0.0746
17619SOL    HW154278   6.653   2.888   6.217  0.6384 -0.1233 -0.5239
17619SOL    HW254279   6.614   3.021   6.157  0.8028 -0.1198 -0.6266
17620SOL     OW54280   6.281   6.958   5.825  0.6873  0.3471  0.1034
17620SOL    HW154281   6.240   7.033   5.782 -1.1235 -0.0484  1.0202
17620SOL    HW254282   6.358   6.938   5.771 -1.2698  0.0676 -2.8456
17621SOL     OW54283   5.421   5.232   4.755 -0.3493 -0.4116 -0.0478
17621SOL    HW154284   5.465   5.156   4.793  0.1692 -0.9283 -1.5882
17621SOL    HW254285   5.328   5.211   4.761 -0.2788 -0.5139  0.8173
17622SOL     OW54286   4.542   0.028   0.716  0.4654 -0.2587  0.3846
17622SOL    HW154287   4.530  -0.067   0.723 -2.5049  0.0399  0.6828
17622SOL    HW254288   4.607   0.039   0.647 -0.2636 -2.4913 -0.7538
17623SOL     OW54289   2.828   0.188   8.974 -0.3406  0.2968  0.1118
17623SOL    HW154290   2.895   0.255   8.981 -0.2187  0.3259 -1.1238
17623SOL    HW254291   2.850   0.139   8.895  0.3438 -2.0898  1.6701
17624SOL     OW54292   5.384   4.447   8.015 -0.3203 -0.0009 -0.1603
17624SOL    HW154293   5.479   4.443   8.028 -0.0920 -1.9863 -1.9156
17624SOL    HW254294   5.372   4.512   7.946 -0.4357  1.3918  1.1113
17625SOL     OW54295   7.249   2.717   4.234  0.2265  0.0149  0.2109
17625SOL    HW154296   7.239   2.721   4.329  0.2634 -2.9964  0.4564
17625SOL    HW254297   7.257   2.808   4.206 -1.3789  1.0951  2.9004
17626SOL     OW54298   7.356   5.236   7.944 -0.0430 -0.1498 -0.7418
17626SOL    HW154299   7.377   5.274   7.858 -0.7571  0.0866 -0.8233
17626SOL    HW254300   7.411   5.158   7.950  1.1196  0.6504 -0.7663
17627SOL     OW54301   5.494   5.692   1.093  0.3241 -0.4277  0.0222
17627SOL    HW154302   5.471   5.723   1.181 -0.5691 -0.4416 -0.1982
17627SOL    HW254303   5.488   5.597   1.099 -1.1287 -0.3818 -0.4089
17628SOL     OW54304   0.243   6.460   6.721 -0.2125  0.1494 -0.0847
17628SOL    HW154305   0.208   6.534   6.770  0.4150  0.0942  0.4649
17628SOL    HW254306   0.170   6.431   6.666 -0.2497  1.6221 -0.8590
17629SOL     OW54307   5.994   8.850   5.943 -0.4040  0.1982  0.3163
17629SOL    HW154308   5.934   8.911   5.901 -0.1174  0.0874 -0.2624
17629SOL    HW254309   6.064   8.836   5.879 -0.9098 -1.4353  0.0608
17630SOL     OW54310   2.628   5.190   1.805  0.0842 -0.0137  0.2861
17630SOL    HW154311   2.701   5.234   1.761 -0.1226  0.0563  0.0115
17630SOL    HW254312   2.670   5.130   1.867  0.3898 -0.8630 -0.7298
17631SOL     OW54313   9.009   6.738   0.458  0.2005 -0.4577 -0.1669
17631SOL    HW154314   8.997   6.708   0.368 -1.7348  0.5371 -0.3029
17631SOL    HW254315   9.089   6.696   0.487  0.6350 -1.1574 -2.2062
17632SOL     OW54316   2.804   4.436   6.480 -0.1684  0.2586  0.7095
17632SOL    HW154317   2.856   4.385   6.417  0.3919  0.1902  1.2230
17632SOL    HW254318   2.724   4.458   6.432 -0.1984 -0.6708  0.3127
17633SOL     OW54319   1.948   8.892   9.227  0.0679  0.3065 -0.5123
17633SOL    HW154320   2.004   8.942   9.286  1.7735 -0.2432 -1.6019
17633SOL    HW254321   1.965   8.929   9.141  1.1112 -1.8677 -1.3009
17634SOL     OW54322   8.697   8.808   7.084 -0.2864  0.2101  0.2036
17634SOL    HW154323   8.613   8.837   7.120 -1.1003 -0.2622 -1.2392
17634SOL    HW254324   8.677   8.728   7.037  0.4866  1.3137 -2.1656
17635SOL     OW54325   4.446   8.543   3.743 -0.2456 -0.0017 -0.2737
17635SOL    HW154326   4.520   8.602   3.754 -0.4075  0.2891 -0.7011
17635SOL    HW254327   4.469   8.466   3.794  0.9544 -0.4557 -1.4268
17636SOL     OW54328   8.998   4.995   5.146  0.0232  0.3226 -0.3739
17636SOL    HW154329   9.078   5.013   5.096  0.5356 -1.3933 -0.2414
17636SOL    HW254330   8.929   4.990   5.081  0.1091  1.2054 -0.5529
17637SOL     OW54331   7.373   3.147   1.906  0.5314 -0.7609  0.5793
17637SOL    HW154332   7.305   3.207   1.937  1.7084 -0.0659  1.8947
17637SOL    HW254333   7.327   3.089   1.845 -0.8296  0.9096 -0.0683
17638SOL     OW54334   5.834   6.909   6.263 -0.1663 -0.2893  0.1408
17638SOL    HW154335   5.789   6.962   6.329  3.3877  2.2143  0.8297
17638SOL    HW254336   5.864   6.832   6.311 -0.6918 -0.2756  0.5068
17639SOL     OW54337   4.987   0.152   8.198  0.2162  0.3761 -0.0798
17639SOL    HW154338   5.035   0.076   8.231 -0.3343  0.6705  1.5192
17639SOL    HW254339   5.054   0.209   8.161  0.6358 -0.8481 -1.2748
17640SOL     OW54340   6.904   3.626   0.766 -0.2182 -0.2657 -0.1759
17640SOL    HW154341   6.810   3.609   0.773 -0.0893 -0.9001  0.0714
17640SOL    HW254342   6.945   3.540   0.773  0.2355 -0.4471 -3.2610
17641SOL     OW54343   8.090   8.163   0.056 -0.4313  0.0582 -0.2521
17641SOL    HW154344   8.042   8.177  -0.025  0.0560  2.7281 -0.1602
17641SOL    HW254345   8.181   8.156   0.029 -0.4169 -0.6242 -0.0492
17642SOL     OW54346   3.427   5.087   4.497  0.2570  0.0721  0.0446
17642SOL    HW154347   3.479   5.132   4.430  0.1940 -1.1535 -0.8683
17642SOL    HW254348   3.380   5.157   4.542 -0.3952  0.9008 -1.8132
17643SOL     OW54349   5.329   4.989   0.374 -0.3957  0.5242  0.1787
17643SOL    HW154350   5.401   4.941   0.414  1.5155  1.9521 -1.3295
17643SOL    HW254351   5.301   4.934   0.300  0.9728  1.1098 -0.8152
17644SOL     OW54352   6.530   0.040   6.791  0.1422 -0.5960  0.4203
17644SOL    HW154353   6.516  -0.001   6.705 -1.8317 -1.1208  0.9379
17644SOL    HW254354   6.614   0.004   6.821 -0.4792 -2.6053 -0.0875
17645SOL     OW54355   2.904   5.522   7.087 -0.2539 -0.5881 -0.1194
17645SOL    HW154356   2.975   5.581   7.109  0.5288 -1.6821  0.4136
17645SOL    HW254357   2.826   5.576   7.087  0.2962  0.2382  1.3605
17646SOL     OW54358   1.167   1.600   2.641  0.4130 -0.1331 -0.2593
17646SOL    HW154359   1.083   1.639   2.618  0.0843 -1.3930 -1.2850
17646SOL    HW254360   1.231   1.648   2.589 -0.2037 -2.1866 -3.1122
17647SOL     OW54361   7.162   0.523   6.560 -0.3682 -0.1064  0.5888
17647SOL    HW154362   7.249   0.500   6.594 -0.1935  1.2325  1.1118
17647SOL    HW254363   7.178   0.552   6.471 -0.0461  1.4308  1.1093
17648SOL     OW54364   0.575   3.529   3.663  0.0990  0.3994  0.1810
17648SOL    HW154365   0.663   3.560   3.643 -0.2844  1.2225 -0.2989
17648SOL    HW254366   0.573   3.521   3.758  0.6611  0.4430  0.2007
17649SOL     OW54367   7.552   8.838   5.820  0.3214 -0.5250 -0.4502
17649SOL    HW154368   7.479   8.793   5.862  0.2531 -0.9436 -1.0026
17649SOL    HW254369   7.526   8.930   5.819  0.1474 -0.5642  0.0484
17650SOL     OW54370   7.669   6.627   6.383 -0.2441 -0.5926  0.0519
17650SOL    HW154371   7.688   6.573   6.307  0.0880 -1.7969  0.9617
17650SOL    HW254372   7.595   6.681   6.357  0.9321  0.2790 -1.7103
17651SOL     OW54373   5.536   0.106   2.396 -0.3103  0.2055  0.1501
17651SOL    HW154374   5.618   0.057   2.394 -1.5794 -2.0682  0.5456
17651SOL    HW254375   5.483   0.067   2.326 -1.5996  0.5633  0.8912
17652SOL     OW54376   6.899   6.004   4.041 -0.2449 -0.0060  0.4241
17652SOL    HW154377   6.847   6.079   4.071 -0.6646 -0.3468  0.5717
17652SOL    HW254378   6.955   6.038   3.972  0.1718  0.6301  1.0623
17653SOL     OW54379   0.920   4.781   7.222 -0.3186  0.0042  0.7187
17653SOL    HW154380   0.900   4.693   7.192 -0.6955  0.3091  0.0468
17653SOL    HW254381   0.835   4.825   7.226 -0.0458  0.6100  0.1441
17654SOL     OW54382   1.496   1.687   2.821 -0.0645 -0.4273  0.2757
17654SOL    HW154383   1.510   1.782   2.819  0.8072 -0.5527 -0.1508
17654SOL    HW254384   1.453   1.668   2.738 -0.1469 -0.4160  0.3159
17655SOL     OW54385   9.243   5.323   8.637 -0.3444 -0.6242 -0.1902
17655SOL    HW154386   9.328   5.308   8.595  1.1311  0.5086  2.1973
17655SOL    HW254387   9.211   5.404   8.597 -0.2550 -0.9890 -1.0191
17656SOL     OW54388   1.012   8.168   2.629  0.3698 -0.3123 -0.7339
17656SOL    HW154389   0.939   8.134   2.681 -0.1697  0.0710 -1.2175
17656SOL    HW254390   0.970   8.210   2.554  1.0769  0.2186 -0.8486
17657SOL     OW54391   7.389   1.568   3.020  0.7273 -0.5669 -0.7753
17657SOL    HW154392   7.339   1.640   3.056  0.5991 -0.9131 -0.2549
17657SOL    HW254393   7.481   1.594   3.032  0.6844 -0.7138 -0.1385
17658SOL     OW54394   6.301   0.474   9.165 -0.3849  0.1135  0.1754
17658SOL    HW154395   6.311   0.494   9.072 -0.8798  0.6845  0.2353
17658SOL    HW254396   6.242   0.398   9.166 -0.3233  0.0615  0.0247
17659SOL     OW54397   7.715   0.216   4.084 -0.4890 -0.7753 -0.1239
17659SOL    HW154398   7.778   0.229   4.012 -0.6715 -1.3402 -0.3898
17659SOL    HW254399   7.722   0.123   4.105 -0.7215 -0.6895  0.3291
17660SOL     OW54400   1.687   7.801   2.895  0.7087 -0.0164  0.3974
17660SOL    HW154401   1.729   7.830   2.976  1.7270 -0.9464  0.2362
17660SOL    HW254402   1.760   7.776   2.838 -0.0240 -0.2130 -0.4819
17661SOL     OW54403   5.582   5.354   4.094 -0.8739  0.3334 -0.0533
17661SOL    HW154404   5.676   5.376   4.093 -0.7029 -0.1524  1.6172
17661SOL    HW254405   5.556   5.356   4.002  0.8302  0.2691 -0.5791
17662SOL     OW54406   0.842   1.718   8.649 -0.3495 -0.1099  0.9319
17662SOL    HW154407   0.770   1.669   8.610  0.8866  0.0765 -1.7288
17662SOL    HW254408   0.805   1.805   8.664 -0.9803 -0.3074  0.5744
17663SOL     OW54409   8.786   7.349   0.103  0.1711  0.5692 -0.2902
17663SOL    HW154410   8.711   7.318   0.052 -2.0322  3.7131  0.7356
17663SOL    HW254411   8.768   7.319   0.192  0.5941  0.5793 -0.2000
17664SOL     OW54412   3.483   4.823   4.829 -0.5081 -0.3622  0.5764
17664SOL    HW154413   3.407   4.867   4.790 -1.2385 -0.2288  2.0619
17664SOL    HW254414   3.547   4.892   4.842 -0.5292 -0.2789  0.2408
17665SOL     OW54415   0.102   0.512   2.382  0.0808 -0.8811  0.6259
17665SOL    HW154416   0.050   0.450   2.332  0.4157 -0.2383 -0.5521
17665SOL    HW254417   0.117   0.585   2.322 -1.6496  1.0994  2.4497
17666SOL     OW54418   4.547   8.832   6.333 -0.3829  0.2904 -0.1372
17666SOL    HW154419   4.630   8.865   6.299  0.2000 -1.2765 -0.3111
17666SOL    HW254420   4.548   8.738   6.312 -2.7747  0.4510 -1.3372
17667SOL     OW54421   3.173   6.070   4.192 -0.0850  0.0226  0.0669
17667SOL    HW154422   3.232   6.140   4.163 -0.5410  1.7666  2.9701
17667SOL    HW254423   3.092   6.115   4.215 -1.2762 -1.8472 -0.2717
17668SOL     OW54424   5.264   0.055   8.250  0.4082 -0.1251 -0.0001
17668SOL    HW154425   5.308   0.119   8.195 -0.8169 -0.2491 -1.1909
17668SOL    HW254426   5.242   0.103   8.330  1.3055  0.3592 -0.0388
17669SOL     OW54427   6.174   4.431   4.871 -0.6606 -0.1413 -0.0035
17669SOL    HW154428   6.185   4.520   4.904  0.7193 -0.9829  1.9646
17669SOL    HW254429   6.160   4.443   4.776 -0.3931  2.1343  0.1770
17670SOL     OW54430   2.976   1.871   7.413 -0.3812  0.0175  0.0829
17670SOL    HW154431   2.974   1.899   7.321 -0.4753 -0.4036 -0.0420
17670SOL    HW254432   3.048   1.809   7.418 -0.0005  0.4788  0.4213
17671SOL     OW54433   4.863   2.703   7.365  0.3050 -0.5455  0.5470
17671SOL    HW154434   4.876   2.698   7.270  0.9574  2.2110  0.4097
17671SOL    HW254435   4.845   2.612   7.391 -0.8799 -1.2535 -2.3124
17672SOL     OW54436   0.399   2.956   0.049  0.4018 -0.1601 -0.3117
17672SOL    HW154437   0.436   3.018  -0.014  2.2913 -1.7960 -0.8850
17672SOL    HW254438   0.305   2.974   0.047  0.6314  1.1166 -2.1682
17673SOL     OW54439   0.702   0.621   7.625 -0.2941 -0.4631  0.3327
17673SOL    HW154440   0.692   0.661   7.711 -1.5973  0.2381 -0.1096
17673SOL    HW254441   0.684   0.692   7.563 -3.0091 -1.7046 -0.4788
17674SOL     OW54442   7.201   2.275   5.670  0.2982  0.3158 -0.4038
17674SOL    HW154443   7.240   2.235   5.592 -1.2598  0.6962 -1.4259
17674SOL    HW254444   7.251   2.238   5.743  0.9769 -1.0364 -1.4977
17675SOL     OW54445   5.170   5.218   3.470  0.1306 -0.2625 -0.4851
17675SOL    HW154446   5.253   5.255   3.439  0.3641  1.2823  1.7659
17675SOL    HW254447   5.196   5.140   3.519  0.4647  1.0287  1.4763
17676SOL     OW54448   0.596   0.421   4.955  0.2488 -0.5883  0.0994
17676SOL    HW154449   0.576   0.490   4.892 -0.0791 -2.1369 -1.6117
17676SOL    HW254450   0.568   0.455   5.039  2.1376  2.2059 -0.2738
17677SOL     OW54451   3.548   4.899   8.738  0.4776 -0.2164 -0.1638
17677SOL    HW154452   3.506   4.832   8.685 -0.7825  0.0657  0.4424
17677SOL    HW254453   3.531   4.874   8.829  0.4127  0.6531  0.0788
17678SOL     OW54454   7.262   8.682   7.606 -0.3261  0.1865 -0.0730
17678SOL    HW154455   7.332   8.617   7.603  0.0151  0.3731  2.1362
17678SOL    HW254456   7.284   8.744   7.536 -1.5080 -2.7659 -3.3365
17679SOL     OW54457   2.210   8.023   6.928  0.2934  0.2398 -0.0560
17679SOL    HW154458   2.190   7.992   6.840 -0.8036  0.4602  0.0969
17679SOL    HW254459   2.211   7.944   6.982 -0.3064  0.2306 -0.0511
17680SOL     OW54460   2.843   7.749   7.848 -0.2332  0.3723 -0.0194
17680SOL    HW154461   2.846   7.831   7.798 -0.5491  1.3746  1.5384
17680SOL    HW254462   2.918   7.754   7.907 -0.3699 -0.3667  0.2261
17681SOL     OW54463   6.985   3.263   7.035  0.0849  0.1618  0.6459
17681SOL    HW154464   6.921   3.261   7.106  0.2681 -1.0213  0.7950
17681SOL    HW254465   6.933   3.267   6.955 -0.2559 -1.9566  0.7070
17682SOL     OW54466   8.584   7.635   1.943  0.0934 -0.1947  0.4148
17682SOL    HW154467   8.624   7.714   1.908 -0.3973 -0.1321 -0.0299
17682SOL    HW254468   8.632   7.563   1.901 -1.3181 -0.1283 -1.4575
17683SOL     OW54469   7.798   4.080   6.292  0.4720 -0.2997  0.3437
17683SOL    HW154470   7.723   4.040   6.337  0.6977  0.1860  1.1833
17683SOL    HW254471   7.801   4.169   6.327  1.7004 -0.4448  0.6380
17684SOL     OW54472   8.333   8.473   8.832 -0.8024  0.1097  0.4444
17684SOL    HW154473   8.354   8.533   8.903 -1.9225  0.9957  0.0594
17684SOL    HW254474   8.368   8.514   8.753  1.4503 -1.4103  0.5573
17685SOL     OW54475   7.324   5.255   5.370  0.3097 -0.0822 -0.0957
17685SOL    HW154476   7.262   5.315   5.411 -0.9369 -1.4410  0.0719
17685SOL    HW254477   7.331   5.286   5.280 -0.4171  0.2269 -0.0535
17686SOL     OW54478   6.985   5.314   1.951  0.1853 -0.5443 -0.2382
17686SOL    HW154479   7.034   5.275   2.023  0.7320 -1.0671 -0.8721
17686SOL    HW254480   7.051   5.330   1.883  0.1718  2.4207  0.3225
17687SOL     OW54481   8.316   1.759   5.453 -0.2803 -0.2003  0.1772
17687SOL    HW154482   8.272   1.843   5.470  0.0956  0.1694 -0.6286
17687SOL    HW254483   8.399   1.766   5.500 -0.7560 -0.6189  1.1154
17688SOL     OW54484   0.034   1.623   3.266  0.7385 -0.4929  0.3621
17688SOL    HW154485   0.073   1.676   3.335  0.5852 -0.5014  0.4550
17688SOL    HW254486   0.076   1.654   3.186  1.9344 -1.4117  0.5940
17689SOL     OW54487   2.055   5.773   1.740 -0.0507  0.3143  0.0628
17689SOL    HW154488   2.150   5.784   1.736  0.0109  0.3588  1.2552
17689SOL    HW254489   2.028   5.766   1.649  0.9907  1.1933 -0.3417
17690SOL     OW54490   3.540   7.045   2.008 -0.2643 -0.2323 -0.0455
17690SOL    HW154491   3.541   7.135   1.977 -0.9690  0.3927  1.6272
17690SOL    HW254492   3.450   7.015   1.991 -0.2094 -0.4185 -0.0119
17691SOL     OW54493   5.001   7.344   8.337 -0.2060  0.5408 -0.1551
17691SOL    HW154494   5.064   7.336   8.408 -0.1925  1.4646 -0.0396
17691SOL    HW254495   4.924   7.385   8.378 -0.0168  1.5366 -0.7480
17692SOL     OW54496   4.175   0.678   3.262 -0.3618 -0.3146  0.0247
17692SOL    HW154497   4.087   0.665   3.227  0.2199  0.3309 -1.8101
17692SOL    HW254498   4.232   0.627   3.205  0.4938 -0.5679  1.0643
17693SOL     OW54499   5.990   8.410   4.194  0.1640  0.5356  0.0812
17693SOL    HW154500   6.028   8.402   4.107 -0.4197  1.7992 -0.3123
17693SOL    HW254501   5.896   8.410   4.180  0.0326 -0.5757  0.8559
17694SOL     OW54502   7.516   9.215   6.372  0.7248  0.2244 -0.8661
17694SOL    HW154503   7.508   9.225   6.277 -0.1150  1.4267 -0.6989
17694SOL    HW254504   7.436   9.170   6.398  2.3690 -3.1277 -1.0326
17695SOL     OW54505   0.366   9.049   0.395  0.1330 -0.1092  0.0583
17695SOL    HW154506   0.345   9.103   0.318  0.7356  0.6148  0.3953
17695SOL    HW254507   0.414   9.108   0.453  2.2012 -1.3994 -0.2349
17696SOL     OW54508   3.809   8.807   2.290  0.7691 -0.5400  0.5483
17696SOL    HW154509   3.782   8.785   2.379  2.2183 -0.1331  1.1167
17696SOL    HW254510   3.886   8.753   2.274 -0.5442 -2.0479 -1.2108
17697SOL     OW54511   4.563   1.305   8.641 -0.2594  0.4078  0.0762
17697SOL    HW154512   4.497   1.244   8.675  1.1792 -0.1591  2.0235
17697SOL    HW254513   4.543   1.388   8.684 -0.7657  0.7341 -0.7492
17698SOL     OW54514   6.556   9.221   6.018 -0.1058  0.0303  0.0624
17698SOL    HW154515   6.630   9.273   5.986  1.5954 -1.8761  0.6990
17698SOL    HW254516   6.486   9.285   6.031  1.6890  2.0730  0.2571
17699SOL     OW54517   8.237   3.522   4.777 -0.2335  0.5696 -0.3344
17699SOL    HW154518   8.203   3.599   4.822  0.9575  0.6142  0.5457
17699SOL    HW254519   8.281   3.472   4.845 -0.9873 -0.9153 -0.8867
17700SOL     OW54520   0.185   5.680   0.318  0.3201  0.4169  0.4372
17700SOL    HW154521   0.248   5.649   0.384 -0.3343 -0.7677  0.5500
17700SOL    HW254522   0.116   5.724   0.369  1.5764  2.7584  0.2260
17701SOL     OW54523   5.943   4.607   5.032 -0.5046  0.1757  0.5510
17701SOL    HW154524   5.910   4.680   4.979 -1.0722  0.1281  0.8279
17701SOL    HW254525   6.037   4.623   5.039 -0.2831 -0.2700 -1.1642
17702SOL     OW54526   1.347   0.524   7.622 -0.0159  0.4115  0.4796
17702SOL    HW154527   1.383   0.596   7.674  1.5506 -1.5703  2.3121
17702SOL    HW254528   1.312   0.567   7.544  1.3769  3.0830  1.1794
17703SOL     OW54529   3.735   3.274   1.855 -0.2543 -0.2552  0.0639
17703SOL    HW154530   3.802   3.342   1.853  0.4916 -0.8978  1.4057
17703SOL    HW254531   3.691   3.280   1.770 -0.2817  1.9438  0.1793
17704SOL     OW54532   1.644   5.427   0.089  0.6896 -0.1224  0.0784
17704SOL    HW154533   1.553   5.403   0.106  0.7716 -2.9291 -2.4577
17704SOL    HW254534   1.679   5.450   0.174 -1.4515 -2.6490  1.8147
17705SOL     OW54535   6.970   6.341   3.497 -0.3902 -0.6353 -0.1643
17705SOL    HW154536   6.944   6.288   3.422 -0.7159 -2.6228  1.2796
17705SOL    HW254537   6.928   6.300   3.572  0.8306  0.6047  1.2746
17706SOL     OW54538   3.832   5.032   4.523 -0.2870  0.1155  0.3543
17706SOL    HW154539   3.883   4.992   4.453  0.9843  2.4457 -0.1604
17706SOL    HW254540   3.897   5.073   4.580 -1.4476  1.0449  1.0695
17707SOL     OW54541   7.071   4.497   0.927 -0.4382 -0.3736  0.2590
17707SOL    HW154542   7.166   4.504   0.914 -0.7359  2.0004 -1.2737
17707SOL    HW254543   7.055   4.538   1.012 -0.0560 -1.4814  0.8902
17708SOL     OW54544   7.356   2.899   7.909  0.7634  0.8342  0.0209
17708SOL    HW154545   7.341   2.857   7.994  0.7591  2.8590  1.0955
17708SOL    HW254546   7.367   2.827   7.848 -2.0392 -0.7615  1.2078
17709SOL     OW54547   3.466   0.683   9.123  0.4891  0.5788  0.7749
17709SOL    HW154548   3.437   0.762   9.168  1.7275  0.6472  1.4892
17709SOL    HW254549   3.487   0.712   9.034  0.7656  1.0319  0.9839
17710SOL     OW54550   8.451   4.283   2.273 -0.1254  0.8979  0.2783
17710SOL    HW154551   8.363   4.248   2.279 -1.1857  3.4183  0.6120
17710SOL    HW254552   8.461   4.309   2.181  1.0566 -1.1353 -0.2265
17711SOL     OW54553   2.367   9.176   6.044 -0.1954  0.8753  0.2834
17711SOL    HW154554   2.455   9.209   6.026 -0.3997  1.1212 -0.2861
17711SOL    HW254555   2.341   9.131   5.963 -0.2723  0.0859  0.7332
17712SOL     OW54556   6.291   2.233   6.305 -0.0103  0.6780 -0.8292
17712SOL    HW154557   6.237   2.194   6.236  0.7672  0.5451 -1.3661
17712SOL    HW254558   6.347   2.162   6.336  0.4209  1.0114 -0.8300
17713SOL     OW54559   1.842   0.862   3.343  0.1304  0.0628  0.2101
17713SOL    HW154560   1.849   0.777   3.387 -0.3817 -0.3297 -0.4556
17713SOL    HW254561   1.755   0.894   3.367 -0.6745 -0.7244 -1.4851
17714SOL     OW54562   5.208   5.258   3.074  0.2911  0.0821  0.2010
17714SOL    HW154563   5.224   5.260   2.979  0.2783 -0.5809  0.1813
17714SOL    HW254564   5.282   5.210   3.110  0.4396  0.5796  0.5655
17715SOL     OW54565   8.563   5.768   4.573 -0.0124 -0.0518 -0.1075
17715SOL    HW154566   8.505   5.713   4.626 -0.8356  0.5309 -0.3879
17715SOL    HW254567   8.651   5.736   4.593 -0.2737  0.2778  1.7885
17716SOL     OW54568   2.736   3.703   2.851  0.0486 -0.2252  0.2166
17716SOL    HW154569   2.724   3.795   2.828 -1.1968 -0.1808  0.9649
17716SOL    HW254570   2.782   3.665   2.776  0.8611  1.0601  0.0354
17717SOL     OW54571   0.301   7.065   2.595  0.2400  0.2016  0.1563
17717SOL    HW154572   0.332   7.136   2.538  0.4717 -0.1950 -0.2180
17717SOL    HW254573   0.301   7.103   2.683  1.2816  0.3735  0.0923
17718SOL     OW54574   7.671   7.300   5.890 -0.2067  0.1344 -0.1135
17718SOL    HW154575   7.623   7.382   5.885 -0.5235  0.0069  0.6834
17718SOL    HW254576   7.662   7.272   5.981 -0.1928 -0.8412 -0.3997
17719SOL     OW54577   0.720   0.553   7.140 -0.2170 -0.0183  0.6787
17719SOL    HW154578   0.756   0.570   7.053  0.1251  1.4503  1.0836
17719SOL    HW254579   0.665   0.475   7.128  1.9271 -1.4938 -0.2661
17720SOL     OW54580   1.066   5.534   0.304  0.4255 -0.0502 -0.1483
17720SOL    HW154581   1.117   5.615   0.297 -0.9004  0.6785 -2.3027
17720SOL    HW254582   1.082   5.488   0.222 -2.1380  0.1262 -0.8445
17721SOL     OW54583   0.210   0.051   1.727  0.3092 -0.3459 -0.5068
17721SOL    HW154584   0.183   0.061   1.635  0.3751 -0.5183 -0.5455
17721SOL    HW254585   0.128   0.034   1.774  0.4191 -1.5986 -0.7276
17722SOL     OW54586   4.422   2.756   1.202  0.0382 -0.7380 -0.4154
17722SOL    HW154587   4.409   2.755   1.297 -2.4221 -0.5978 -0.6940
17722SOL    HW254588   4.341   2.721   1.166  0.5779  0.0074 -2.5168
17723SOL     OW54589   1.882   6.538   4.667  0.3557  0.3839  0.1040
17723SOL    HW154590   1.944   6.586   4.722  0.9753  1.0018 -1.0777
17723SOL    HW254591   1.923   6.539   4.580  1.2639 -3.7605  0.2794
17724SOL     OW54592   5.693   8.204   4.895 -0.5539 -0.0342  0.2221
17724SOL    HW154593   5.765   8.144   4.913 -1.9639 -1.8818  0.0702
17724SOL    HW254594   5.732   8.272   4.840  1.2646 -0.4371  0.9370
17725SOL     OW54595   3.311   6.710   5.463  0.1307 -0.4755  0.2718
17725SOL    HW154596   3.269   6.772   5.523 -0.3505 -0.0436 -0.4911
17725SOL    HW254597   3.401   6.742   5.455  0.4381 -1.0131  1.3898
17726SOL     OW54598   3.041   4.809   1.829  0.1763  0.3641 -0.0036
17726SOL    HW154599   2.978   4.745   1.861  0.1453  0.4021  0.0112
17726SOL    HW254600   3.122   4.788   1.875  0.2787  0.0651 -0.3146
17727SOL     OW54601   5.408   2.234   7.909  0.2745 -0.5881  0.1927
17727SOL    HW154602   5.446   2.218   7.995  4.2533  0.7367 -1.0779
17727SOL    HW254603   5.393   2.329   7.907 -0.0732 -0.6508 -0.4685
17728SOL     OW54604   4.194   7.967   6.904  0.0019 -0.1669  0.1177
17728SOL    HW154605   4.162   7.893   6.954  1.5021 -2.0850 -1.6044
17728SOL    HW254606   4.143   8.042   6.936  0.0730 -1.4526  3.5914
17729SOL     OW54607   1.987   2.821   9.027  0.8489 -0.0624  0.3781
17729SOL    HW154608   2.067   2.874   9.027  0.3022  0.7782  0.4787
17729SOL    HW254609   1.917   2.883   9.046  0.1320 -0.7341 -0.0142
17730SOL     OW54610   1.596   4.997   2.626 -0.1705 -0.4710  0.3543
17730SOL    HW154611   1.618   5.086   2.651 -0.6755 -0.7608  1.8984
17730SOL    HW254612   1.508   4.983   2.660 -0.1441 -1.5289  0.0407
17731SOL     OW54613   6.796   4.214   2.116  0.1797  0.9575 -0.5493
17731SOL    HW154614   6.874   4.238   2.065 -0.3537  2.5737 -0.6814
17731SOL    HW254615   6.724   4.258   2.071 -0.6335  0.5382  0.3042
17732SOL     OW54616   4.850   7.487   8.131 -0.6823  0.5517  0.5279
17732SOL    HW154617   4.875   7.398   8.159 -0.1882  0.3791 -0.4357
17732SOL    HW254618   4.885   7.543   8.200  1.4609  0.2178 -0.1978
17733SOL     OW54619   1.093   2.227   3.812  0.7578  0.3322 -0.0370
17733SOL    HW154620   1.146   2.171   3.756  2.6209  0.9683  1.0173
17733SOL    HW254621   1.111   2.316   3.781  0.4094  0.5692  0.4330
17734SOL     OW54622   3.418   3.008   3.911  0.5831  0.2036  0.0056
17734SOL    HW154623   3.348   2.998   3.846 -0.5367  0.3952  1.1303
17734SOL    HW254624   3.379   2.976   3.992  1.6014  0.8926  0.7878
17735SOL     OW54625   0.715   1.544   9.126  0.0699 -0.2555  0.2103
17735SOL    HW154626   0.625   1.529   9.096 -0.1133 -0.6989  0.9527
17735SOL    HW254627   0.756   1.593   9.054 -0.9762  0.6084  0.1669
17736SOL     OW54628   2.969   7.359   2.677  0.5778  0.0712 -0.0595
17736SOL    HW154629   2.991   7.271   2.646  3.9611  1.1287 -1.1035
17736SOL    HW254630   2.956   7.349   2.771 -0.8755 -1.7759 -0.4075
17737SOL     OW54631   8.409   3.360   8.968 -0.4873 -0.3130 -0.0800
17737SOL    HW154632   8.336   3.377   8.909 -1.1403 -1.2297  0.4501
17737SOL    HW254633   8.382   3.284   9.019  1.0033 -0.9306 -0.1570
17738SOL     OW54634   5.387   3.543   6.707  0.0570  0.3563  0.3843
17738SOL    HW154635   5.340   3.624   6.730 -1.5267  0.1306 -1.7082
17738SOL    HW254636   5.341   3.511   6.630  2.0273 -1.4073 -0.1290
17739SOL     OW54637   5.925   0.637   3.797  0.0208  0.4689 -0.1049
17739SOL    HW154638   5.893   0.614   3.710 -0.5073  0.4718  0.0816
17739SOL    HW254639   6.019   0.652   3.786  0.0754 -0.1649 -0.5469
17740SOL     OW54640   0.136   4.878   0.562 -0.6144 -0.5684 -0.0809
17740SOL    HW154641   0.072   4.900   0.494 -0.9647  0.2562  0.5101
17740SOL    HW254642   0.215   4.853   0.513  0.6056  4.0048 -0.9413
17741SOL     OW54643   8.648   0.799   0.765  0.9720 -0.3443  0.1451
17741SOL    HW154644   8.713   0.870   0.763 -0.0401  0.6031  0.3688
17741SOL    HW254645   8.614   0.795   0.676 -0.2752  0.6927  0.5567
17742SOL     OW54646   8.914   5.768   4.441 -0.3112  0.4761  0.6124
17742SOL    HW154647   8.976   5.696   4.432 -1.4059 -0.2851 -1.4815
17742SOL    HW254648   8.865   5.749   4.521  0.9761  0.1846  1.3534
17743SOL     OW54649   5.397   9.134   8.133 -0.8075 -0.0219  0.3850
17743SOL    HW154650   5.342   9.202   8.173 -1.5870 -0.3553 -0.1074
17743SOL    HW254651   5.461   9.183   8.081 -0.0328  0.4047  1.6811
17744SOL     OW54652   7.640   1.837   6.026  0.2351  0.6009 -0.2401
17744SOL    HW154653   7.725   1.838   6.070  0.2526  1.8137 -0.2645
17744SOL    HW254654   7.645   1.908   5.962 -0.8751  0.8279 -0.1000
17745SOL     OW54655   6.015   4.239   5.230  0.3174  0.2605  0.4368
17745SOL    HW154656   6.044   4.153   5.199  0.5574  0.6057 -0.3271
17745SOL    HW254657   6.081   4.266   5.294 -0.0439 -0.3513  1.0809
17746SOL     OW54658   5.936   2.366   0.142 -0.5763  0.1501  0.0925
17746SOL    HW154659   5.917   2.459   0.141 -0.2813  0.2164 -0.8624
17746SOL    HW254660   5.970   2.348   0.054 -1.4082 -1.0159 -0.0167
17747SOL     OW54661   5.542   8.078   3.646 -0.8285  0.0654  0.0923
17747SOL    HW154662   5.522   8.060   3.554 -0.2631  1.0420 -0.2318
17747SOL    HW254663   5.613   8.018   3.667  0.5236  1.2857 -0.7603
17748SOL     OW54664   1.453   3.290   2.903 -0.5585  0.1821 -0.2483
17748SOL    HW154665   1.373   3.236   2.903  0.2949 -1.1412 -0.8662
17748SOL    HW254666   1.483   3.288   2.812  1.2173 -0.9787  0.3210
17749SOL     OW54667   3.343   4.372   4.870 -0.1958  0.2237  0.1158
17749SOL    HW154668   3.288   4.398   4.796 -0.3023  2.2580  0.8436
17749SOL    HW254669   3.380   4.454   4.902 -1.6183 -0.3186  3.4724
17750SOL     OW54670   3.072   7.081   7.309 -0.0240 -0.4965 -0.3267
17750SOL    HW154671   3.127   7.065   7.386 -0.7141 -2.4834 -0.1928
17750SOL    HW254672   2.984   7.090   7.344 -0.2933 -1.0654 -0.8542
17751SOL     OW54673   0.592   8.857   8.936  0.0215  0.0597 -0.1801
17751SOL    HW154674   0.520   8.830   8.993 -0.6004 -0.4692 -1.1945
17751SOL    HW254675   0.612   8.946   8.964 -1.0970  0.2511  0.0523
17752SOL     OW54676   4.318   4.914   8.166  0.5386  0.3749  0.0968
17752SOL    HW154677   4.386   4.980   8.182  1.0805 -0.1004 -0.2192
17752SOL    HW254678   4.357   4.855   8.102 -0.1162  0.0034  0.0380
17753SOL     OW54679   7.955   7.394   3.264  0.3578  0.2122  0.5688
17753SOL    HW154680   8.000   7.474   3.290  0.3864  0.4450 -0.1916
17753SOL    HW254681   7.894   7.421   3.196 -1.3492  0.0026  1.9357
17754SOL     OW54682   2.457   2.072   7.651  0.0930 -0.6814 -0.2192
17754SOL    HW154683   2.380   2.022   7.623  0.1811 -0.1908 -1.3820
17754SOL    HW254684   2.439   2.095   7.742 -0.5796 -1.6143 -0.1016
17755SOL     OW54685   7.212   6.391   8.309 -0.0682  0.6992  0.2097
17755SOL    HW154686   7.164   6.312   8.286  0.6491  0.7008 -1.4213
17755SOL    HW254687   7.148   6.446   8.353 -1.2064  0.1711 -0.7464
17756SOL     OW54688   4.137   9.231   6.388  0.1707 -0.2067 -0.1503
17756SOL    HW154689   4.054   9.201   6.425 -0.1822 -1.2180 -1.6534
17756SOL    HW254690   4.134   9.204   6.297  1.2826  1.6003 -0.7810
17757SOL     OW54691   6.606   2.134   1.118 -0.1789 -0.1517 -0.6898
17757SOL    HW154692   6.624   2.062   1.057 -3.5177 -2.6194  0.8832
17757SOL    HW254693   6.553   2.196   1.067  0.7392  0.0695 -1.4118
17758SOL     OW54694   6.746   0.543   8.515  0.2253  0.1450  0.2429
17758SOL    HW154695   6.688   0.543   8.439  1.6036 -0.3748 -0.8426
17758SOL    HW254696   6.803   0.618   8.503 -1.9868  2.4593  2.8040
17759SOL     OW54697   2.833   2.747   4.663 -0.3766  0.6546 -0.0760
17759SOL    HW154698   2.896   2.745   4.591 -0.3225  0.1012 -0.0169
17759SOL    HW254699   2.757   2.699   4.630 -0.0564 -0.2772  0.4986
17760SOL     OW54700   0.157   0.382   4.170  0.0953 -0.4310  0.1956
17760SOL    HW154701   0.153   0.470   4.208 -1.1546 -0.5170  0.3170
17760SOL    HW254702   0.206   0.393   4.089 -0.1761  0.4139  0.1354
17761SOL     OW54703   3.500   4.244   3.490  0.0208  0.2748  0.1910
17761SOL    HW154704   3.501   4.312   3.558  1.3755 -1.5178  2.1314
17761SOL    HW254705   3.537   4.287   3.413 -0.5002  2.1057  0.9018
17762SOL     OW54706   2.474   7.191   3.413  0.3299  0.6998 -0.4788
17762SOL    HW154707   2.446   7.201   3.504  1.4447  2.3253 -0.2805
17762SOL    HW254708   2.451   7.100   3.391 -2.7780  1.1371  0.4022
17763SOL     OW54709   7.802   0.799   3.494  0.2049  0.6615  0.2247
17763SOL    HW154710   7.881   0.759   3.531  0.6010  0.6609 -0.5939
17763SOL    HW254711   7.766   0.731   3.437  0.2474  1.0685 -0.2891
17764SOL     OW54712   6.571   2.834   8.759 -0.2741 -0.0636  0.3959
17764SOL    HW154713   6.583   2.777   8.683  1.4302  0.0780  0.5125
17764SOL    HW254714   6.551   2.775   8.831  0.3325 -0.4118  0.2849
17765SOL     OW54715   1.204   8.563   7.260  0.6696 -0.2649 -0.1314
17765SOL    HW154716   1.177   8.480   7.223  1.6014 -1.1596  1.1110
17765SOL    HW254717   1.126   8.619   7.253  0.2902 -0.9596 -1.7148
17766SOL     OW54718   3.822   7.774   9.144 -0.3964 -0.5270  0.4602
17766SOL    HW154719   3.749   7.721   9.111 -0.2645 -0.1146 -0.5189
17766SOL    HW254720   3.895   7.753   9.085  0.2441 -0.8040  1.3211
17767SOL     OW54721   1.892   7.464   2.417  0.7373  0.4570 -0.5358
17767SOL    HW154722   1.806   7.503   2.403  0.8497  1.5325  1.4628
17767SOL    HW254723   1.950   7.513   2.360  0.3510  1.0763 -0.4052
17768SOL     OW54724   0.530   1.892   4.536  0.0786 -0.3309 -0.1174
17768SOL    HW154725   0.498   1.982   4.547  0.0096 -0.4885  1.0919
17768SOL    HW254726   0.518   1.874   4.443 -0.3064  0.7608 -0.2994
17769SOL     OW54727   8.391   2.601   4.809  0.2818 -0.1570 -0.6773
17769SOL    HW154728   8.325   2.550   4.763 -0.2884  0.6577 -0.7851
17769SOL    HW254729   8.343   2.646   4.878  1.2605 -2.1522  1.4605
17770SOL     OW54730   5.130   3.810   5.745  0.1310 -0.1679  0.4827
17770SOL    HW154731   5.043   3.771   5.755  0.0328 -0.3294 -0.8334
17770SOL    HW254732   5.116   3.882   5.684  0.7055  0.6174  1.2547
17771SOL     OW54733   6.166   6.448   1.852 -0.2865 -0.2345 -0.2911
17771SOL    HW154734   6.130   6.528   1.890 -2.0527 -1.5101  0.9572
17771SOL    HW254735   6.100   6.381   1.872  1.2364 -2.0560 -1.0287
17772SOL     OW54736   6.508   6.638   7.847  0.5085 -0.9223  0.5180
17772SOL    HW154737   6.503   6.698   7.772 -0.8990 -2.9091 -1.0798
17772SOL    HW254738   6.437   6.665   7.904 -2.6890 -3.2394 -2.0296
17773SOL     OW54739   1.694   7.270   5.898 -0.4403  0.0846 -0.4711
17773SOL    HW154740   1.726   7.357   5.924 -0.2096  0.2068 -1.1318
17773SOL    HW254741   1.607   7.286   5.862 -0.8450 -0.1126  0.3888
17774SOL     OW54742   9.010   3.574   3.793 -0.1495 -0.6945  0.3786
17774SOL    HW154743   9.031   3.666   3.813  1.2149 -0.9489  0.2607
17774SOL    HW254744   9.058   3.557   3.712 -2.6191 -0.7344 -1.1455
17775SOL     OW54745   0.340   7.487   3.545  0.0928 -0.2971 -0.0975
17775SOL    HW154746   0.301   7.499   3.632  1.1900 -1.4759  0.5882
17775SOL    HW254747   0.416   7.431   3.560  0.5837 -0.1335 -1.7628
17776SOL     OW54748   6.089   5.466   7.016 -0.1527  0.1388  0.2516
17776SOL    HW154749   6.138   5.534   6.969 -1.5762  0.3112 -1.1127
17776SOL    HW254750   6.010   5.454   6.963 -0.4751 -1.7817  1.0950
17777SOL     OW54751   2.838   8.165   8.771  0.1539 -0.4515 -0.6107
17777SOL    HW154752   2.789   8.142   8.850 -1.0942 -2.0615 -1.8025
17777SOL    HW254753   2.864   8.256   8.786  2.2316 -1.3884  2.7799
17778SOL     OW54754   5.705   1.606   7.009 -0.2057 -0.1040  0.2884
17778SOL    HW154755   5.623   1.589   6.962  0.3877 -1.5347 -0.2888
17778SOL    HW254756   5.706   1.701   7.022 -1.1991  0.1311 -1.0986
17779SOL     OW54757   6.944   7.780   6.564  0.0777  0.4235 -0.0235
17779SOL    HW154758   6.900   7.778   6.479  0.7776 -1.0289 -0.3864
17779SOL    HW254759   6.930   7.693   6.601  1.0704  0.5337  0.6625
17780SOL     OW54760   4.413   5.886   5.463  0.4608  0.1733  0.0202
17780SOL    HW154761   4.450   5.973   5.480 -0.1410  0.2501  1.0574
17780SOL    HW254762   4.329   5.903   5.421  1.3290  0.0106 -1.8727
17781SOL     OW54763   1.942   6.430   5.496  0.2364 -0.2524 -0.3117
17781SOL    HW154764   2.008   6.412   5.563  0.8903  2.3161 -0.1398
17781SOL    HW254765   1.981   6.395   5.415  1.0780 -0.2297  0.0680
17782SOL     OW54766   4.994   8.185   8.013 -0.0086 -0.1764  0.2795
17782SOL    HW154767   5.087   8.203   8.015  0.2060 -1.2509  1.0284
17782SOL    HW254768   4.966   8.209   7.924  0.6210  1.7227  0.5638
17783SOL     OW54769   8.355   5.030   2.862  0.2088 -0.0280 -0.4463
17783SOL    HW154770   8.445   5.008   2.836  1.0401  2.0721  0.4690
17783SOL    HW254771   8.344   5.122   2.836 -0.8502  0.4622  1.5522
17784SOL     OW54772   7.333   8.058   9.148 -0.1723  0.8888  0.5732
17784SOL    HW154773   7.252   8.103   9.121 -0.0526  1.1131  0.5909
17784SOL    HW254774   7.403   8.115   9.117  0.0457 -0.3487 -1.4108
17785SOL     OW54775   7.309   1.632   2.763  0.7438  0.0137  0.0407
17785SOL    HW154776   7.369   1.570   2.723 -0.0095 -0.6412 -0.1047
17785SOL    HW254777   7.309   1.610   2.856  0.4175 -0.2710 -0.0222
17786SOL     OW54778   9.149   4.374   2.163  0.1055 -0.3059  0.5958
17786SOL    HW154779   9.151   4.302   2.100  0.5487  0.5680 -0.4189
17786SOL    HW254780   9.066   4.418   2.147  0.1025 -0.2330  0.8043
17787SOL     OW54781   2.761   2.281   6.294  0.7943  0.1043 -0.3799
17787SOL    HW154782   2.814   2.324   6.228  0.4012  2.0428  0.4998
17787SOL    HW254783   2.748   2.347   6.362 -2.9143 -0.1179 -0.6197
17788SOL     OW54784   4.142   9.050   2.448  0.3718  0.4243  0.5505
17788SOL    HW154785   4.196   9.127   2.433  2.1332 -0.8462 -0.0396
17788SOL    HW254786   4.156   9.028   2.540  1.3278 -0.2099  0.2657
17789SOL     OW54787   7.811   7.611   8.299 -0.0364 -0.0143  0.4138
17789SOL    HW154788   7.738   7.590   8.358 -0.4206  1.9554  0.7159
17789SOL    HW254789   7.792   7.560   8.220 -1.3681 -0.0879  0.7419
17790SOL     OW54790   7.147   5.587   6.124 -0.3354  0.0863 -0.3551
17790SOL    HW154791   7.145   5.682   6.114  1.2007  0.2121  0.2537
17790SOL    HW254792   7.190   5.555   6.045  0.0370 -0.0105 -0.1168
17791SOL     OW54793   4.932   5.815   4.841 -0.5482 -0.5981  0.2873
17791SOL    HW154794   5.005   5.838   4.898  0.7758 -1.7280 -0.8630
17791SOL    HW254795   4.883   5.749   4.891  0.6392 -1.6349  0.1194
17792SOL     OW54796   4.471   0.832   6.667 -0.2674  0.0200  0.2817
17792SOL    HW154797   4.378   0.813   6.666 -0.3191  0.2918 -0.0322
17792SOL    HW254798   4.513   0.746   6.676 -0.4982 -0.2522 -1.1078
17793SOL     OW54799   3.644   5.060   1.849  0.6174 -0.4305  0.0333
17793SOL    HW154800   3.561   5.106   1.835 -0.2774 -1.7910  0.7166
17793SOL    HW254801   3.674   5.037   1.761 -0.5050 -1.2410 -0.1527
17794SOL     OW54802   5.406   4.456   1.955 -0.6873  0.0349  0.2594
17794SOL    HW154803   5.452   4.525   1.907 -0.4071 -0.7610 -0.6490
17794SOL    HW254804   5.329   4.499   1.992 -0.8097  0.7260 -0.7592
17795SOL     OW54805   1.485   0.207   5.393  0.5865  0.2233  0.2428
17795SOL    HW154806   1.393   0.232   5.382  0.5627  0.1101  0.1799
17795SOL    HW254807   1.484   0.111   5.393  0.4271  0.1753  2.6082
17796SOL     OW54808   4.611   1.772   0.280 -0.1943  0.3730 -0.0634
17796SOL    HW154809   4.615   1.791   0.374  0.1194 -0.0521  0.0167
17796SOL    HW254810   4.612   1.858   0.238  0.6210  0.5522  0.2985
17797SOL     OW54811   8.115   7.015   3.564 -0.0775  0.3144  0.0278
17797SOL    HW154812   8.050   7.053   3.506 -1.8947  1.2386  2.5132
17797SOL    HW254813   8.199   7.047   3.531 -0.6643 -1.3765 -3.6156
17798SOL     OW54814   5.893   6.081   4.393  0.5411 -0.1440 -0.3251
17798SOL    HW154815   5.833   6.009   4.412 -1.1851  1.0422 -0.9609
17798SOL    HW254816   5.914   6.119   4.478 -1.6889  0.9440 -0.1583
17799SOL     OW54817   2.248   6.246   8.462  0.4870 -0.2367  0.0974
17799SOL    HW154818   2.258   6.267   8.555  1.1959 -1.5234  0.3363
17799SOL    HW254819   2.226   6.152   8.461 -1.1230  0.0955 -0.9638
17800SOL     OW54820   1.494   5.268   2.320 -0.4549  0.1783 -0.4149
17800SOL    HW154821   1.523   5.284   2.230 -2.6268 -1.8936 -1.6093
17800SOL    HW254822   1.567   5.220   2.360  0.0240 -0.0429 -1.5127
17801SOL     OW54823   7.600   1.580   1.358  0.2632  0.3716  0.5631
17801SOL    HW154824   7.591   1.487   1.337  2.3452  0.2153  0.1723
17801SOL    HW254825   7.510   1.611   1.368 -0.4808 -1.6666  0.6690
17802SOL     OW54826   5.832   3.708   1.824  0.0174 -0.7531  0.0287
17802SOL    HW154827   5.771   3.635   1.816  0.3136 -0.9880 -0.1459
17802SOL    HW254828   5.780   3.780   1.858 -0.3599 -0.9451 -0.1371
17803SOL     OW54829   7.075   8.552   1.772 -0.0445  0.1245  0.1760
17803SOL    HW154830   7.016   8.599   1.830  1.5155 -0.7780  2.6231
17803SOL    HW254831   7.026   8.473   1.747 -0.7664  0.5698  0.1651
17804SOL     OW54832   5.742   7.170   1.032  0.0919 -0.0024  0.1916
17804SOL    HW154833   5.682   7.214   0.972 -0.6401  1.2488  1.7543
17804SOL    HW254834   5.829   7.201   1.005 -0.3205  1.5447  0.4971
17805SOL     OW54835   2.675   6.699   1.240 -1.3222 -0.0874 -0.1186
17805SOL    HW154836   2.714   6.618   1.273 -3.2872 -0.6049  1.1347
17805SOL    HW254837   2.737   6.731   1.175  0.0059 -2.0494  0.0918
17806SOL     OW54838   4.978   7.882   3.534 -0.4170  0.2094 -0.6703
17806SOL    HW154839   5.045   7.944   3.507 -0.6739  1.2127  0.9124
17806SOL    HW254840   4.945   7.845   3.451 -0.3206  2.2328 -1.6739
17807SOL     OW54841   0.103   5.763   8.694  0.0517  0.4116  0.1352
17807SOL    HW154842   0.177   5.776   8.753 -0.0306  0.0893  0.3061
17807SOL    HW254843   0.138   5.712   8.621 -0.2310 -0.6008  0.6913
17808SOL     OW54844   8.076   8.237   0.971  1.0129 -0.0182 -0.2369
17808SOL    HW154845   8.070   8.142   0.981 -2.1397  0.1345  0.3805
17808SOL    HW254846   8.021   8.256   0.895 -1.3503  1.5251  1.7265
17809SOL     OW54847   8.378   2.145   7.208  0.5610  0.2451 -0.0119
17809SOL    HW154848   8.392   2.139   7.303 -1.4465  1.7012  0.4357
17809SOL    HW254849   8.283   2.132   7.197  0.5612  1.3751 -1.6847
17810SOL     OW54850   2.632   5.282   7.416  0.4631  0.3112 -0.0656
17810SOL    HW154851   2.569   5.341   7.374 -0.2360 -0.7846 -0.5828
17810SOL    HW254852   2.660   5.223   7.347  2.1157  0.8087  0.1514
17811SOL     OW54853   2.344   1.322   3.021 -0.1094 -0.0353  0.1345
17811SOL    HW154854   2.305   1.393   3.073  0.8661  0.4787  0.1846
17811SOL    HW254855   2.430   1.307   3.060  0.8746  0.7234 -1.5955
17812SOL     OW54856   4.128   7.131   6.133  0.5459  0.0609 -0.4157
17812SOL    HW154857   4.068   7.132   6.207 -0.4463  0.8897 -1.1927
17812SOL    HW254858   4.111   7.213   6.086  2.6444  0.5704 -0.4141
17813SOL     OW54859   7.050   0.077   8.531 -0.0795  0.2357  0.1475
17813SOL    HW154860   7.088   0.115   8.610  0.5607  0.7676 -0.4013
17813SOL    HW254861   7.124   0.064   8.472 -0.7315  1.3461 -0.9641
17814SOL     OW54862   1.603   1.171   5.350 -0.2535  0.1057 -0.5433
17814SOL    HW154863   1.529   1.145   5.295 -0.0802  1.2047 -1.3271
17814SOL    HW254864   1.563   1.218   5.423 -0.4924 -1.4394  0.3812
17815SOL     OW54865   2.622   5.064   3.464 -0.0565 -0.1158  0.0146
17815SOL    HW154866   2.538   5.060   3.511  0.2715 -0.9798  0.5462
17815SOL    HW254867   2.600   5.100   3.379 -0.7454  1.0514  0.6597
17816SOL     OW54868   0.550   5.003   8.117  0.0308 -0.3372 -0.1899
17816SOL    HW154869   0.600   5.084   8.115  0.4450 -0.5850 -1.5991
17816SOL    HW254870   0.461   5.030   8.139 -0.0657  0.6680 -1.6405
17817SOL     OW54871   1.981   3.781   3.701  0.1290  0.0202  0.2258
17817SOL    HW154872   1.983   3.685   3.709  0.8229 -0.0223 -0.3953
17817SOL    HW254873   1.979   3.812   3.792 -0.4197 -0.5833  0.4280
17818SOL     OW54874   2.304   7.108   2.275  0.4744 -0.0883 -0.4895
17818SOL    HW154875   2.269   7.125   2.362  3.5114 -2.2181  1.3076
17818SOL    HW254876   2.293   7.192   2.229 -1.3307  1.0738  1.8330
17819SOL     OW54877   8.203   5.420   6.786  0.6427  0.0384 -0.7921
17819SOL    HW154878   8.154   5.344   6.819  2.2060 -1.2619 -1.3580
17819SOL    HW254879   8.257   5.448   6.859  0.0023  0.6785 -0.5569
17820SOL     OW54880   6.744   7.737   7.323  0.3984 -0.2865 -0.0701
17820SOL    HW154881   6.721   7.825   7.354  1.0403  0.8159 -2.5355
17820SOL    HW254882   6.739   7.682   7.402  0.6510  2.0671  1.6829
17821SOL     OW54883   0.890   8.386   9.242 -0.2553 -0.4091 -0.0009
17821SOL    HW154884   0.874   8.291   9.242 -0.5762 -0.3551  0.2540
17821SOL    HW254885   0.937   8.402   9.324 -1.6623 -0.1040  0.7673
17822SOL     OW54886   0.882   7.246   3.601 -0.2089 -0.4341  0.1697
17822SOL    HW154887   0.921   7.227   3.516  1.9830  3.6023  0.0048
17822SOL    HW254888   0.954   7.283   3.653 -2.3948  1.3930  2.1780
17823SOL     OW54889   7.608   8.906   0.932  0.0290 -0.3290  0.1842
17823SOL    HW154890   7.590   8.822   0.891 -0.7111 -0.0755 -0.0278
17823SOL    HW254891   7.659   8.885   1.010 -1.2240 -1.0946  0.8315
17824SOL     OW54892   1.005   3.084   5.189  0.2075  0.0622 -0.2742
17824SOL    HW154893   1.085   3.032   5.197  1.9537  2.4434 -0.9711
17824SOL    HW254894   1.032   3.162   5.139 -2.5360  1.0349 -0.4342
17825SOL     OW54895   0.154   4.210   8.807 -0.5933 -0.2181 -0.3075
17825SOL    HW154896   0.223   4.144   8.817  0.7144  1.3384  1.5683
17825SOL    HW254897   0.141   4.216   8.712  1.3593 -1.0550 -0.6921
17826SOL     OW54898   4.510   9.060   8.804 -0.2288  0.3952  0.9495
17826SOL    HW154899   4.563   9.063   8.884 -0.1015  0.6431  0.8542
17826SOL    HW254900   4.543   8.984   8.757  1.9495  2.0821 -0.4334
17827SOL     OW54901   5.286   1.154   3.199  0.4204  0.1857  0.1768
17827SOL    HW154902   5.201   1.199   3.206  0.6833  0.5041  1.6914
17827SOL    HW254903   5.264   1.061   3.194 -0.0030  0.1667  1.9333
17828SOL     OW54904   3.845   2.005   5.270 -0.0824 -0.2927  0.0055
17828SOL    HW154905   3.821   2.096   5.288  1.1038  0.1903 -0.6979
17828SOL    HW254906   3.893   2.009   5.187 -1.4241 -1.7927 -0.9096
17829SOL     OW54907   7.108   3.208   2.353  0.2810  0.5676  0.0980
17829SOL    HW154908   7.083   3.283   2.299 -0.9321 -0.0774 -0.2745
17829SOL    HW254909   7.052   3.214   2.430 -1.0567 -0.8372 -0.6933
17830SOL     OW54910   5.802   4.221   7.804  0.9344 -0.2512  0.1182
17830SOL    HW154911   5.889   4.212   7.767  1.0524  1.1199  0.0275
17830SOL    HW254912   5.766   4.132   7.803  1.8844 -0.6355 -0.9125
17831SOL     OW54913   2.115   1.805   6.705  0.2156 -0.1593 -0.3141
17831SOL    HW154914   2.078   1.819   6.618  0.9949 -1.8354 -0.9494
17831SOL    HW254915   2.041   1.782   6.760 -0.0815 -0.6203 -0.9002
17832SOL     OW54916   4.492   8.462   8.976  0.5012 -0.1315  0.0192
17832SOL    HW154917   4.540   8.387   8.941  1.0190  0.9794 -1.7155
17832SOL    HW254918   4.406   8.456   8.935  0.2602 -0.2042  0.5176
17833SOL     OW54919   0.433   3.792   5.381 -0.4938  0.2302 -0.4792
17833SOL    HW154920   0.452   3.867   5.437 -2.6937 -0.1536  0.8720
17833SOL    HW254921   0.466   3.717   5.429 -0.1028  0.1169 -0.9113
17834SOL     OW54922   1.384   7.226   1.779  0.1600 -0.6267  0.1860
17834SOL    HW154923   1.293   7.254   1.777  0.1348 -0.7234 -0.1022
17834SOL    HW254924   1.399   7.196   1.869  0.2900  0.6437  0.6168
17835SOL     OW54925   1.936   0.385   5.542  1.4056 -0.1069  0.2767
17835SOL    HW154926   1.974   0.387   5.630 -0.4084 -1.0476  1.1283
17835SOL    HW254927   1.953   0.472   5.506 -1.6392  1.9321  3.2501
17836SOL     OW54928   2.222   0.410   7.909 -0.1981 -0.3003 -0.0315
17836SOL    HW154929   2.218   0.506   7.910 -0.9031 -0.3160  1.3545
17836SOL    HW254930   2.200   0.386   7.819  0.7336  0.8483 -0.5985
17837SOL     OW54931   3.698   3.525   3.739 -0.5885 -0.6420  0.5989
17837SOL    HW154932   3.750   3.466   3.685 -0.7195  1.1446 -1.6591
17837SOL    HW254933   3.616   3.478   3.755  0.6062 -2.3947  1.8727
17838SOL     OW54934   5.587   1.778   4.477  0.8715  0.5655  0.1333
17838SOL    HW154935   5.637   1.829   4.541  2.1550 -1.6198  0.9795
17838SOL    HW254936   5.642   1.703   4.457 -1.0248 -0.6465 -0.8601
17839SOL     OW54937   8.864   2.430   5.077  0.0971 -0.1526 -0.1610
17839SOL    HW154938   8.837   2.412   4.987 -1.3483 -0.6700  0.3546
17839SOL    HW254939   8.811   2.505   5.103 -1.8310 -1.9156  1.2633
17840SOL     OW54940   3.782   6.316   2.980  0.8972 -0.5770 -0.1080
17840SOL    HW154941   3.737   6.268   3.049 -3.5180  0.2718 -2.0065
17840SOL    HW254942   3.786   6.406   3.011 -0.6856 -0.2820 -0.6322
17841SOL     OW54943   4.654   6.699   3.983  0.4263  0.3766 -0.1286
17841SOL    HW154944   4.664   6.762   3.912 -1.0389  1.8057  0.8638
17841SOL    HW254945   4.590   6.739   4.042  2.0423 -0.4241  2.3406
17842SOL     OW54946   4.479   6.895   7.376  0.0695 -0.4592 -0.0494
17842SOL    HW154947   4.449   6.863   7.290 -1.3258  0.4655  0.0711
17842SOL    HW254948   4.564   6.852   7.388 -0.4573 -1.9159 -1.1433
17843SOL     OW54949   1.199   6.446   0.663  0.5039 -0.3696  0.2920
17843SOL    HW154950   1.118   6.463   0.712 -0.0257 -0.3464 -0.5607
17843SOL    HW254951   1.268   6.483   0.717 -0.2794  1.6639 -0.0097
17844SOL     OW54952   0.447   1.700   2.787 -0.2004  0.3040  0.4631
17844SOL    HW154953   0.530   1.694   2.834 -0.7651 -1.0665  1.3639
17844SOL    HW254954   0.383   1.661   2.847 -1.0859 -0.8296 -1.1381
17845SOL     OW54955   2.706   6.944   5.201  0.2415 -0.2080  0.2298
17845SOL    HW154956   2.773   6.917   5.140  0.8896 -0.8924  1.2070
17845SOL    HW254957   2.752   6.999   5.265 -0.2266 -0.2789  0.6344
17846SOL     OW54958   7.034   5.257   2.784 -0.1338  0.3956 -0.4836
17846SOL    HW154959   6.980   5.261   2.705  1.3381  1.3162 -1.4806
17846SOL    HW254960   7.069   5.168   2.784 -2.4838 -0.6367  0.8222
17847SOL     OW54961   3.824   2.488   6.247  0.6068  0.1727 -0.6836
17847SOL    HW154962   3.887   2.545   6.291 -0.0248  0.8675 -0.6509
17847SOL    HW254963   3.745   2.496   6.301  0.8692 -1.7104  0.0323
17848SOL     OW54964   9.029   1.395   7.618 -0.1724 -0.3315 -0.2579
17848SOL    HW154965   8.962   1.360   7.559  1.3795 -0.7493 -1.8873
17848SOL    HW254966   9.077   1.458   7.564  1.2271 -0.6496  0.5735
17849SOL     OW54967   3.944   9.256   1.145  0.2917  0.0321  0.0265
17849SOL    HW154968   4.039   9.269   1.143  0.1882  0.7275 -0.8720
17849SOL    HW254969   3.933   9.162   1.130  0.7932  0.1920 -1.5182
17850SOL     OW54970   5.986   2.251   6.150  0.2279  0.0746  0.5486
17850SOL    HW154971   6.066   2.199   6.148  0.6199  0.6893 -0.2414
17850SOL    HW254972   5.938   2.224   6.072  0.0751  0.3357  0.5512
17851SOL     OW54973   1.256   8.976   7.373 -0.2112 -0.1654 -0.2526
17851SOL    HW154974   1.305   9.046   7.330 -1.5839  1.0958  0.1263
17851SOL    HW254975   1.164   8.999   7.358 -0.7129 -0.9418  1.3731
17852SOL     OW54976   2.419   4.871   1.339 -0.6485 -0.3117  0.2080
17852SOL    HW154977   2.441   4.961   1.363 -1.1027 -0.6892  2.2937
17852SOL    HW254978   2.484   4.847   1.273  0.5660  0.9976  0.8587
17853SOL     OW54979   8.615   3.816   7.851  0.1676 -0.0140  0.4836
17853SOL    HW154980   8.706   3.796   7.830  0.4346  0.2562  1.3075
17853SOL    HW254981   8.618   3.907   7.883 -0.3931  0.0020  0.4966
17854SOL     OW54982   8.298   6.195   4.407  0.0834  0.0599 -0.1943
17854SOL    HW154983   8.381   6.156   4.380  2.3148  2.9502  1.7366
17854SOL    HW254984   8.259   6.227   4.326  0.3993 -2.0466 -1.2439
17855SOL     OW54985   0.534   3.357   6.168 -0.2823  0.9544 -0.3199
17855SOL    HW154986   0.581   3.348   6.084  0.7670  0.2399  0.3185
17855SOL    HW254987   0.488   3.274   6.178  1.8304 -0.1043  1.1067
17856SOL     OW54988   7.396   3.536   8.447 -0.5605 -0.1922  0.2285
17856SOL    HW154989   7.402   3.618   8.398  1.0821  0.8134  1.9351
17856SOL    HW254990   7.333   3.555   8.516 -1.4676 -0.9658 -0.3755
17857SOL     OW54991   2.063   4.859   4.481  0.9791 -0.0670 -0.5010
17857SOL    HW154992   2.012   4.780   4.498 -0.1617  0.5436 -0.9531
17857SOL    HW254993   2.115   4.839   4.404  0.9207 -0.4768 -0.4339
17858SOL     OW54994   7.355   6.672   5.968  1.0986 -0.1696  0.4841
17858SOL    HW154995   7.305   6.590   5.970  0.5459  0.1685  2.2981
17858SOL    HW254996   7.288   6.740   5.960  1.5290  0.1518 -0.5980
17859SOL     OW54997   2.244   1.819   2.684  0.0520  0.4619 -0.2701
17859SOL    HW154998   2.215   1.772   2.606 -0.9293  0.6277 -0.0142
17859SOL    HW254999   2.318   1.768   2.717  0.2615  0.2053 -1.1166
17860SOL     OW55000   5.198   0.314   8.165  0.0504  0.1875  0.5982
17860SOL    HW155001   5.235   0.292   8.079 -1.1047 -1.7787  0.5431
17860SOL    HW255002   5.206   0.409   8.171 -1.4065  0.6215 -2.4407
17861SOL     OW55003   7.441   7.068   8.558 -0.2564  0.6502  0.3714
17861SOL    HW155004   7.415   6.983   8.593  0.7103  0.5035  0.7729
17861SOL    HW255005   7.378   7.086   8.489 -0.6258 -0.2803  0.4525
17862SOL     OW55006   6.794   7.714   8.583  0.0969 -0.3392  0.1439
17862SOL    HW155007   6.872   7.712   8.528 -1.1566 -0.6287 -1.7153
17862SOL    HW255008   6.780   7.806   8.603  0.1280 -0.1495 -0.7071
17863SOL     OW55009   0.335   6.344   6.407  0.3292 -0.1806  0.1922
17863SOL    HW155010   0.276   6.283   6.452 -0.0720 -0.2210 -0.3792
17863SOL    HW255011   0.281   6.384   6.340  0.8397  0.1258 -0.0382
17864SOL     OW55012   7.935   0.478   4.645  0.4547 -0.3569  0.3956
17864SOL    HW155013   7.910   0.521   4.563 -0.9122 -0.1896  0.8713
17864SOL    HW255014   8.010   0.423   4.621  0.7043  0.4257 -0.7455
17865SOL     OW55015   0.768   1.151   6.618  0.5328  0.1908 -0.4152
17865SOL    HW155016   0.789   1.220   6.682 -2.6081  2.6469 -1.7424
17865SOL    HW255017   0.812   1.179   6.538 -1.3927  1.2560 -1.1764
17866SOL     OW55018   3.505   3.888   1.567  0.7295 -0.4885 -0.4018
17866SOL    HW155019   3.565   3.865   1.496  0.8786  0.8799 -0.7478
17866SOL    HW255020   3.422   3.847   1.542  0.8415 -0.2251 -1.2641
17867SOL     OW55021   1.201   6.609   6.842 -0.1620  0.3384 -0.4172
17867SOL    HW155022   1.223   6.694   6.879  0.8791  0.0601 -0.3608
17867SOL    HW255023   1.161   6.628   6.758  1.3738  0.8660 -1.0693
17868SOL     OW55024   3.325   7.523   3.154 -0.4038 -0.5406 -0.4103
17868SOL    HW155025   3.363   7.440   3.181  0.9967  0.4087  0.6894
17868SOL    HW255026   3.340   7.526   3.059  0.4307 -1.1132 -0.3116
17869SOL     OW55027   7.223   1.959   7.309  0.2994  0.3862  0.4658
17869SOL    HW155028   7.278   1.881   7.303  1.3139  1.1112 -0.0687
17869SOL    HW255029   7.254   2.015   7.237 -0.9443  0.9427  0.3450
17870SOL     OW55030   4.256   5.999   3.480 -0.6059 -0.1751  0.3044
17870SOL    HW155031   4.276   5.982   3.572 -0.5093  4.5045  1.3979
17870SOL    HW255032   4.169   5.963   3.466  0.2581 -2.9317  1.4765
17871SOL     OW55033   5.124   2.736   4.099  0.2729  0.1084 -0.3829
17871SOL    HW155034   5.086   2.653   4.126  0.8786  0.0640  0.3421
17871SOL    HW255035   5.172   2.716   4.018 -0.5322  0.0010 -0.8500
17872SOL     OW55036   0.905   1.265   0.784 -0.3628 -0.1127 -0.2433
17872SOL    HW155037   0.907   1.219   0.868 -2.3934  0.9482  0.4375
17872SOL    HW255038   0.996   1.292   0.770 -0.0690  0.1006  1.8536
17873SOL     OW55039   1.852   5.284   7.536 -0.4668 -0.5828 -0.4065
17873SOL    HW155040   1.765   5.308   7.568  0.2598  0.4432  0.8948
17873SOL    HW255041   1.896   5.367   7.522  1.0515 -1.0644  1.1306
17874SOL     OW55042   7.003   2.576   3.547  0.4988  0.1512  0.0817
17874SOL    HW155043   6.968   2.527   3.473  0.5572  1.0477 -0.5535
17874SOL    HW255044   6.928   2.624   3.582 -0.1009 -2.0650  2.1460
17875SOL     OW55045   0.814   1.600   1.745 -0.5991 -0.2677 -0.0571
17875SOL    HW155046   0.791   1.647   1.664 -0.4743 -0.1639 -0.0346
17875SOL    HW255047   0.817   1.508   1.720 -1.5612 -0.3358  0.0657
17876SOL     OW55048   7.943   5.389   0.102  0.0502  0.0784  0.1032
17876SOL    HW155049   7.871   5.393   0.038  0.2666  1.5439 -0.0861
17876SOL    HW255050   8.020   5.416   0.052  0.9659 -2.3729  0.0578
17877SOL     OW55051   5.507   0.064   0.159  0.3505  0.2587 -0.0744
17877SOL    HW155052   5.467   0.150   0.161 -1.7448 -0.5160 -2.8766
17877SOL    HW255053   5.578   0.071   0.096 -1.2780 -0.5101 -2.0985
17878SOL     OW55054   1.958   0.489   8.408 -0.3029  1.3072 -0.8350
17878SOL    HW155055   1.917   0.513   8.491 -1.9514 -2.0507 -0.5030
17878SOL    HW255056   1.887   0.488   8.344 -0.4125 -1.8488 -0.8646
17879SOL     OW55057   5.026   0.452   1.989 -0.0170 -0.0822 -0.6442
17879SOL    HW155058   4.992   0.390   1.925 -0.8515 -0.5363  0.1989
17879SOL    HW255059   4.998   0.416   2.074  1.6551  0.1123  0.0301
17880SOL     OW55060   1.974   0.951   0.172 -0.4145  0.1080  0.1787
17880SOL    HW155061   1.963   0.898   0.250 -0.0348 -0.5853 -0.2297
17880SOL    HW255062   2.000   0.889   0.104  2.7293  1.1148  0.2969
17881SOL     OW55063   5.869   6.907   8.358 -0.5165 -0.1174 -0.4115
17881SOL    HW155064   5.802   6.973   8.339  1.3083  1.6372 -1.1888
17881SOL    HW255065   5.890   6.921   8.451 -0.4616  0.0917 -0.4542
17882SOL     OW55066   0.700   5.980   4.594 -0.2683  0.0942  0.3211
17882SOL    HW155067   0.617   6.028   4.594  0.1460  1.1071 -3.2695
17882SOL    HW255068   0.765   6.046   4.618 -0.1486  0.2485 -0.4082
17883SOL     OW55069   8.788   6.572   5.797 -0.2358 -0.0961 -0.0837
17883SOL    HW155070   8.760   6.481   5.789  0.9865 -0.7649  2.2673
17883SOL    HW255071   8.883   6.568   5.802 -0.1666  1.2979  0.2792
17884SOL     OW55072   1.541   6.206   8.231 -0.1233  0.1968 -0.1176
17884SOL    HW155073   1.605   6.213   8.302  0.2877  2.6671 -0.6438
17884SOL    HW255074   1.479   6.277   8.247 -0.8910 -0.1602 -1.3991
17885SOL     OW55075   4.374   2.096   8.892  0.1753  0.3887  0.1230
17885SOL    HW155076   4.330   2.137   8.967 -2.3696  0.0908 -1.0976
17885SOL    HW255077   4.348   2.150   8.817  0.2336 -0.9982 -0.9305
17886SOL     OW55078   1.906   8.622   5.089 -0.3872 -0.6447 -0.0921
17886SOL    HW155079   1.945   8.642   5.174 -1.5548 -0.5730  0.4360
17886SOL    HW255080   1.813   8.637   5.100 -0.4974 -0.0558 -1.5685
17887SOL     OW55081   9.006   0.519   0.860 -0.3066  0.3786 -0.4359
17887SOL    HW155082   9.093   0.560   0.858 -1.7796  3.8936 -0.3044
17887SOL    HW255083   8.989   0.495   0.769  0.7716 -0.3670 -0.4630
17888SOL     OW55084   8.868   2.234   5.944  0.1973 -1.2877  0.2189
17888SOL    HW155085   8.814   2.231   6.023 -1.0921  1.2394 -0.4518
17888SOL    HW255086   8.829   2.170   5.886 -1.8266  0.0757 -0.0265
17889SOL     OW55087   0.053   2.102   7.370 -0.0180  0.2992  0.5063
17889SOL    HW155088  -0.034   2.067   7.353 -0.4958  0.9278  1.4945
17889SOL    HW255089   0.099   2.097   7.286 -0.6789 -0.9186  0.1954
17890SOL     OW55090   7.664   0.716   4.178  0.5683 -0.5750  0.1187
17890SOL    HW155091   7.583   0.767   4.190  0.9805  0.1966 -0.2786
17890SOL    HW255092   7.636   0.625   4.182 -0.4106 -0.3195 -0.5266
17891SOL     OW55093   4.526   5.316   6.966 -0.7438 -0.0765 -0.2305
17891SOL    HW155094   4.546   5.409   6.970  1.3036 -0.3391 -2.0224
17891SOL    HW255095   4.431   5.310   6.973 -1.1083  2.3296 -2.0497
17892SOL     OW55096   1.026   6.158   4.357  0.5258 -0.7258 -0.3221
17892SOL    HW155097   0.988   6.244   4.376 -0.4077 -1.3625  0.8335
17892SOL    HW255098   0.986   6.132   4.275 -0.2483 -0.6454  0.0233
17893SOL     OW55099   6.297   7.828   7.413  0.4194 -0.5772  0.0664
17893SOL    HW155100   6.338   7.823   7.327 -1.8136 -0.0801 -1.0830
17893SOL    HW255101   6.288   7.921   7.431  2.3732 -0.6344  1.6506
17894SOL     OW55102   0.773   6.712   2.842 -0.3026 -0.3394  0.4540
17894SOL    HW155103   0.831   6.657   2.895 -1.0040 -0.9311  0.6268
17894SOL    HW255104   0.686   6.698   2.879 -0.4341  1.3401  0.8584
17895SOL     OW55105   5.179   7.409   5.290  0.0533 -0.0878 -0.1730
17895SOL    HW155106   5.121   7.337   5.316 -1.6299  0.6123 -1.7205
17895SOL    HW255107   5.134   7.488   5.320  0.7054  0.4333 -0.5279
17896SOL     OW55108   8.392   1.774   8.005 -0.0905 -0.2810  0.2848
17896SOL    HW155109   8.358   1.849   8.054 -0.6887 -0.0258 -0.4927
17896SOL    HW255110   8.485   1.791   7.996 -0.3010  0.6172 -0.2888
17897SOL     OW55111   6.605   6.887   4.983 -0.4876 -0.3764 -0.2922
17897SOL    HW155112   6.658   6.962   4.957  0.8512 -1.4971 -0.9059
17897SOL    HW255113   6.621   6.821   4.915 -1.4636 -1.3107  0.3392
17898SOL     OW55114   3.006   0.421   0.843 -0.0947 -0.1259 -0.0766
17898SOL    HW155115   2.963   0.382   0.767  0.6704 -0.1083 -0.5233
17898SOL    HW255116   3.003   0.515   0.827 -0.5587 -0.0742  0.2652
17899SOL     OW55117   4.653   4.794   3.559 -0.5508 -0.5171  0.6420
17899SOL    HW155118   4.641   4.703   3.531 -0.7585 -0.4862  0.6283
17899SOL    HW255119   4.736   4.821   3.520 -0.6572 -0.5909  0.3673
17900SOL     OW55120   6.834   3.539   6.939  0.1164 -0.0411 -0.7700
17900SOL    HW155121   6.801   3.627   6.921  0.5450  0.6331  1.3711
17900SOL    HW255122   6.863   3.543   7.030  0.8622 -2.2009 -0.8539
17901SOL     OW55123   8.632   3.090   3.117 -0.0722  0.0655 -0.1063
17901SOL    HW155124   8.557   3.149   3.116  0.6962  1.1051 -2.5082
17901SOL    HW255125   8.596   3.006   3.145 -1.5825  1.1382  1.3647
17902SOL     OW55126   7.770   2.786   4.428 -0.1222  0.2767 -0.4220
17902SOL    HW155127   7.704   2.847   4.393 -1.9926 -1.1879  0.3629
17902SOL    HW255128   7.794   2.823   4.513 -1.7595 -0.3629  0.3623
17903SOL     OW55129   0.144   6.594   1.645  0.3740 -0.5284  0.0083
17903SOL    HW155130   0.049   6.589   1.654  0.3600  0.9027  1.1375
17903SOL    HW255131   0.162   6.566   1.555 -1.3324  1.2450 -0.9472
17904SOL     OW55132   5.912   1.088   3.286  0.1305  0.4123 -0.6958
17904SOL    HW155133   5.841   1.099   3.349  0.6683 -1.6756  0.3541
17904SOL    HW255134   5.990   1.121   3.331  0.4788 -0.8800 -0.3251
17905SOL     OW55135   4.621   5.346   4.074  0.2957  0.2903  0.7377
17905SOL    HW155136   4.703   5.377   4.036  0.0248 -0.2392 -0.3492
17905SOL    HW255137   4.553   5.389   4.022 -0.0852 -1.5625 -0.4120
17906SOL     OW55138   3.249   6.242   1.147 -0.1773 -0.1787 -0.2766
17906SOL    HW155139   3.290   6.282   1.224  1.4250  0.5164 -1.4375
17906SOL    HW255140   3.257   6.148   1.161 -1.3217 -0.0883  1.1184
17907SOL     OW55141   1.348   4.257   3.888  0.1746 -0.3132  0.2967
17907SOL    HW155142   1.361   4.246   3.982  0.3784  0.7028  0.4035
17907SOL    HW255143   1.329   4.169   3.855  1.3977 -0.8926  1.0785
17908SOL     OW55144   4.233   5.040   1.523  0.1440  0.3326  0.3818
17908SOL    HW155145   4.142   5.069   1.517  0.3197  0.8791  0.3222
17908SOL    HW255146   4.234   4.982   1.599  0.0047  1.3390  1.1776
17909SOL     OW55147   6.245   3.654   0.522  0.2639  0.2142  0.7010
17909SOL    HW155148   6.275   3.587   0.585  0.8543 -1.7123 -1.4855
17909SOL    HW255149   6.152   3.636   0.512  0.8423 -2.1493 -1.7637
17910SOL     OW55150   1.064   0.326   7.490 -0.0399 -0.2151 -0.3826
17910SOL    HW155151   1.089   0.262   7.557  0.0612 -1.2482 -1.3556
17910SOL    HW255152   0.998   0.381   7.531  0.3509 -0.5332  0.6998
17911SOL     OW55153   7.958   5.926   5.105 -0.5935  0.0251 -0.1495
17911SOL    HW155154   7.962   6.012   5.147 -2.4269 -0.0846  0.3250
17911SOL    HW255155   7.970   5.864   5.177 -0.5582 -0.1366 -0.2953
17912SOL     OW55156   0.779   5.876   1.181 -0.4926 -0.8845  0.3021
17912SOL    HW155157   0.743   5.909   1.099  0.7456 -1.4761 -0.5052
17912SOL    HW255158   0.870   5.856   1.161  0.4156  0.8512  2.3619
17913SOL     OW55159   5.018   3.485   2.854 -0.2947  0.1253 -0.2490
17913SOL    HW155160   5.028   3.533   2.772 -1.1052  0.2090 -0.3149
17913SOL    HW255161   5.006   3.554   2.920  1.3683  0.0992  0.1213
17914SOL     OW55162   4.272   4.298   1.517  0.3971  0.4522 -0.5712
17914SOL    HW155163   4.366   4.306   1.535  0.8186 -1.0882 -1.8768
17914SOL    HW255164   4.234   4.272   1.601  1.0843  1.3305  0.0314
17915SOL     OW55165   5.062   4.522   7.775 -0.7004 -0.2557 -0.1477
17915SOL    HW155166   5.133   4.558   7.829  1.2033 -0.9907 -2.0032
17915SOL    HW255167   5.050   4.586   7.705 -3.2250  0.7471  1.0912
17916SOL     OW55168   1.473   1.294   1.688  0.5248 -0.1467  0.2918
17916SOL    HW155169   1.439   1.229   1.625  0.1223 -0.4194  0.7784
17916SOL    HW255170   1.395   1.340   1.718  0.8688  0.9474 -0.4613
17917SOL     OW55171   5.734   4.749   3.952  0.5671  0.1084 -0.3544
17917SOL    HW155172   5.670   4.821   3.952  0.3163 -0.1119  0.4061
17917SOL    HW255173   5.810   4.784   3.998  0.9200  0.2879 -1.0501
17918SOL     OW55174   6.239   7.532   3.416  0.7812  0.2343 -0.8954
17918SOL    HW155175   6.293   7.561   3.342  0.4863  3.8109  0.1022
17918SOL    HW255176   6.185   7.608   3.438 -1.3162 -1.6742  1.1364
17919SOL     OW55177   6.211   2.866   4.036 -0.2116 -0.6154  0.4903
17919SOL    HW155178   6.116   2.865   4.021 -0.4614 -0.3171  1.8890
17919SOL    HW255179   6.248   2.893   3.952 -1.3657 -0.6557 -0.0578
17920SOL     OW55180   3.367   9.027   4.593 -0.7944 -0.3903 -0.2035
17920SOL    HW155181   3.439   8.985   4.547  0.7724  0.4506  1.3650
17920SOL    HW255182   3.324   8.955   4.640 -0.1045 -0.7135 -0.0505
17921SOL     OW55183   3.553   7.362   3.346  0.0235  0.0050 -0.8803
17921SOL    HW155184   3.569   7.336   3.437 -2.3202  1.1605 -0.0665
17921SOL    HW255185   3.609   7.438   3.332  0.9793 -0.6502 -0.6709
17922SOL     OW55186   3.929   5.380   2.311 -0.3548 -0.5233  0.1203
17922SOL    HW155187   3.848   5.426   2.286  1.2543  1.2138 -2.4108
17922SOL    HW255188   3.935   5.308   2.249 -0.0010 -0.6737  0.3335
17923SOL     OW55189   5.907   3.784   4.278 -0.2383  0.7339  0.5798
17923SOL    HW155190   5.979   3.743   4.326  0.4653  1.4161  0.1285
17923SOL    HW255191   5.927   3.878   4.279 -0.7592  0.8659 -0.1279
17924SOL     OW55192   4.061   3.526   0.588  0.6505 -0.5853  0.2583
17924SOL    HW155193   4.004   3.537   0.664 -0.1133  1.1523 -0.5049
17924SOL    HW255194   4.095   3.437   0.595 -1.3581 -1.3132  1.2951
17925SOL     OW55195   9.107   8.270   6.092 -0.5570 -0.1426  0.5972
17925SOL    HW155196   9.022   8.260   6.136  1.0574  0.7344  4.2754
17925SOL    HW255197   9.171   8.236   6.155  2.0547  1.7857 -0.8283
17926SOL     OW55198   2.367   6.947   8.728  0.3601 -0.2764  0.2361
17926SOL    HW155199   2.407   7.030   8.704 -0.3289 -0.2886 -1.0513
17926SOL    HW255200   2.440   6.891   8.753  1.1104 -0.1030 -1.4463
17927SOL     OW55201   3.848   2.732   2.334  0.3610  0.0918  0.6017
17927SOL    HW155202   3.938   2.706   2.314  0.9900  2.1314  0.5456
17927SOL    HW255203   3.817   2.775   2.254 -0.2390  0.4346  1.0071
17928SOL     OW55204   8.762   8.341   8.629  0.2866  0.5246 -0.0634
17928SOL    HW155205   8.705   8.314   8.557  0.1923  2.0645 -0.6010
17928SOL    HW255206   8.752   8.437   8.633  0.3479  0.4913  1.9389
17929SOL     OW55207   2.922   7.133   8.397  0.0912  0.1887  0.6110
17929SOL    HW155208   2.910   7.057   8.339  0.4530  0.7766 -0.2514
17929SOL    HW255209   2.861   7.117   8.469 -1.5922  0.2445 -0.7397
17930SOL     OW55210   6.077   0.185   4.409  0.3295  0.0975  0.3470
17930SOL    HW155211   6.110   0.097   4.391 -0.9098  0.0788 -2.3496
17930SOL    HW255212   6.100   0.235   4.331 -3.6163  0.7172 -0.6141
17931SOL     OW55213   8.959   2.816   3.558  0.2267  0.2109 -0.3008
17931SOL    HW155214   8.983   2.740   3.504  0.6798  0.9179 -1.1218
17931SOL    HW255215   9.042   2.852   3.587  0.0469  0.8329 -0.5437
17932SOL     OW55216   4.492   7.848   9.130  0.1008  0.1593 -0.2386
17932SOL    HW155217   4.458   7.821   9.215 -1.0148 -0.3758 -0.8295
17932SOL    HW255218   4.572   7.796   9.118  0.8082  0.9458  0.8795
17933SOL     OW55219   4.279   8.356   3.160  0.4753 -0.8479 -0.8131
17933SOL    HW155220   4.264   8.405   3.241  3.0872 -1.4499  0.1184
17933SOL    HW255221   4.212   8.390   3.099 -1.0989  0.1216  1.3316
17934SOL     OW55222   9.067   1.473   6.519 -0.2991 -0.3382 -0.2205
17934SOL    HW155223   9.037   1.418   6.447  0.4299 -2.1167  0.7582
17934SOL    HW255224   8.994   1.472   6.581 -0.1404 -0.5448 -0.0335
17935SOL     OW55225   0.944   2.562   7.316  0.0077 -0.2302 -0.2053
17935SOL    HW155226   0.873   2.554   7.252 -1.4668  0.9256  1.1914
17935SOL    HW255227   0.939   2.482   7.369  1.0247 -1.0377 -1.2736
17936SOL     OW55228   7.926   8.807   0.837 -1.1265  0.0542  0.7704
17936SOL    HW155229   7.938   8.844   0.925  0.4586 -1.1340  1.1007
17936SOL    HW255230   8.007   8.829   0.791 -1.2508 -0.7444  0.1472
17937SOL     OW55231   6.764   8.478   5.376 -0.1564  0.2777  0.7468
17937SOL    HW155232   6.755   8.472   5.281 -2.2175  1.4676  0.8076
17937SOL    HW255233   6.793   8.391   5.403  0.7193 -0.0080 -0.9720
17938SOL     OW55234   4.861   9.073   8.413  0.2937 -0.5567 -0.1074
17938SOL    HW155235   4.766   9.059   8.419  0.1135  0.9779  3.6128
17938SOL    HW255236   4.898   8.985   8.403 -1.4843 -1.2056 -1.3741
17939SOL     OW55237   3.581   5.002   4.178 -0.3253 -0.1584 -0.0394
17939SOL    HW155238   3.597   4.934   4.244 -0.5467 -0.0233  0.1592
17939SOL    HW255239   3.579   5.084   4.229 -0.4745 -0.0509 -0.2173
17940SOL     OW55240   2.518   3.691   6.747  0.0993 -0.3626 -0.0212
17940SOL    HW155241   2.462   3.761   6.782  0.5851 -0.7340  1.5341
17940SOL    HW255242   2.457   3.634   6.700 -0.6884 -0.2352  0.8218
17941SOL     OW55243   4.729   7.910   5.646  0.5490 -0.0742  0.5028
17941SOL    HW155244   4.645   7.944   5.677 -0.2546 -0.1355 -1.4934
17941SOL    HW255245   4.717   7.816   5.640  1.1120 -0.1994  1.1568
17942SOL     OW55246   0.671   5.947   5.038  0.0344  0.2579  0.5867
17942SOL    HW155247   0.667   5.940   5.133 -0.7056  0.7519  0.6043
17942SOL    HW255248   0.670   6.041   5.021 -1.0747  0.1745  0.0663
17943SOL     OW55249   1.179   3.155   6.633 -0.2492  0.1937 -0.4824
17943SOL    HW155250   1.175   3.244   6.668  0.6413  0.1537 -0.2621
17943SOL    HW255251   1.124   3.103   6.692  1.3605  0.0940  0.9951
17944SOL     OW55252   5.381   1.363   5.970  0.0775  1.0483  0.5923
17944SOL    HW155253   5.376   1.459   5.979 -0.7973  1.2314 -1.4511
17944SOL    HW255254   5.474   1.345   5.962  0.1729  1.9509 -0.7074
17945SOL     OW55255   2.454   6.567   2.758 -0.1981 -0.1218 -0.4794
17945SOL    HW155256   2.410   6.646   2.727 -1.4969 -0.8605 -0.5804
17945SOL    HW255257   2.446   6.571   2.853 -0.2086 -0.0987 -0.4813
17946SOL     OW55258   7.568   4.320   2.391 -0.4592 -0.5410  0.5987
17946SOL    HW155259   7.508   4.305   2.318 -0.6359 -0.9169  0.8136
17946SOL    HW255260   7.611   4.235   2.404  1.1370  0.0653 -0.4376
17947SOL     OW55261   4.455   8.312   1.577 -0.1819  0.3866 -0.2955
17947SOL    HW155262   4.421   8.223   1.568 -0.0083  0.2835  0.0692
17947SOL    HW255263   4.414   8.346   1.656  0.4643  0.2997  0.0882
17948SOL     OW55264   5.518   5.218   3.142 -0.0352 -0.2382 -0.0891
17948SOL    HW155265   5.608   5.249   3.146 -0.3381  0.6774 -0.1097
17948SOL    HW255266   5.486   5.225   3.232 -0.3054  0.1183 -0.2120
17949SOL     OW55267   7.314   5.221   8.634  0.3010 -0.2607 -0.2871
17949SOL    HW155268   7.230   5.268   8.638 -0.2684 -1.0178 -2.2688
17949SOL    HW255269   7.363   5.265   8.565  0.9889 -0.6928 -0.0760
17950SOL     OW55270   5.221   3.933   4.142  0.3133 -0.2294  0.0147
17950SOL    HW155271   5.285   3.877   4.098  0.3618 -0.5480  0.4809
17950SOL    HW255272   5.259   3.950   4.229  0.6458  1.1311 -0.3676
17951SOL     OW55273   3.297   8.196   1.243 -0.4171  0.7647 -0.3435
17951SOL    HW155274   3.227   8.182   1.306 -0.7536  0.6737 -0.7292
17951SOL    HW255275   3.352   8.263   1.282  0.0652 -0.1521  0.5972
17952SOL     OW55276   9.128   0.635   1.136 -1.1939 -0.2220  0.1657
17952SOL    HW155277   9.085   0.714   1.170  0.6081  1.1047 -0.4173
17952SOL    HW255278   9.158   0.660   1.048  1.2898 -0.7669  0.7630
17953SOL     OW55279   6.999   5.736   4.775 -0.4151  0.0724  0.1811
17953SOL    HW155280   6.915   5.755   4.731 -0.4618 -0.1852  0.1566
17953SOL    HW255281   7.037   5.822   4.792 -0.5200  0.1819 -0.1302
17954SOL     OW55282   7.641   1.059   5.532 -0.0219 -0.0711  0.2325
17954SOL    HW155283   7.558   1.083   5.573 -0.7594  0.9858 -1.7297
17954SOL    HW255284   7.625   0.972   5.495 -0.2295  0.0953 -0.0703
17955SOL     OW55285   7.205   0.178   4.288  0.6645  0.0700 -0.0848
17955SOL    HW155286   7.112   0.163   4.271  0.4294  0.7955  0.4879
17955SOL    HW255287   7.241   0.091   4.304 -0.1199 -0.1370  0.6160
17956SOL     OW55288   3.024   8.800   2.666  0.6457 -0.0611 -0.0711
17956SOL    HW155289   3.107   8.754   2.655  0.3874  0.0599 -3.6210
17956SOL    HW255290   3.048   8.892   2.673  0.8322 -0.0928 -0.3000
17957SOL     OW55291   5.693   3.208   7.140  0.2103 -0.2243 -0.3191
17957SOL    HW155292   5.599   3.211   7.122 -0.2647  1.4790  1.8864
17957SOL    HW255293   5.726   3.290   7.104  0.2710  0.5286  1.3682
17958SOL     OW55294   0.229   4.966   6.859 -0.2470  0.1804 -0.0302
17958SOL    HW155295   0.185   4.914   6.926  1.1573  0.4591  1.1514
17958SOL    HW255296   0.271   4.903   6.802 -0.7925 -0.0399 -0.1918
17959SOL     OW55297   1.796   5.975   4.230 -0.0398  0.7997  0.0246
17959SOL    HW155298   1.814   6.044   4.294 -1.2586  1.3480 -0.1957
17959SOL    HW255299   1.701   5.974   4.221  0.0360 -0.0242 -0.9618
17960SOL     OW55300   1.387   7.739   5.150 -0.0218 -0.1905  0.3623
17960SOL    HW155301   1.449   7.810   5.167  0.5149 -0.8503  1.2420
17960SOL    HW255302   1.301   7.779   5.161  0.2786  0.2347  1.2397
17961SOL     OW55303   4.857   8.617   0.123 -0.1243  0.1065 -0.1814
17961SOL    HW155304   4.859   8.547   0.058  3.2842 -0.1031 -0.0310
17961SOL    HW255305   4.792   8.679   0.090 -1.2104 -1.7480 -1.7552
17962SOL     OW55306   5.565   5.653   2.848 -0.2941 -0.1747  0.0822
17962SOL    HW155307   5.481   5.631   2.888 -1.1175 -0.9193 -1.9266
17962SOL    HW255308   5.612   5.570   2.843 -0.4354 -0.2128 -0.9279
17963SOL     OW55309   3.140   5.953   0.733  0.0204  0.1998  0.4488
17963SOL    HW155310   3.091   5.885   0.685  0.4097  1.7539 -2.3852
17963SOL    HW255311   3.230   5.941   0.704  0.7797 -0.3501  2.8322
17964SOL     OW55312   0.070   7.603   6.887 -0.0381  0.2197 -0.2273
17964SOL    HW155313   0.157   7.564   6.875  0.7170  1.4212  1.1367
17964SOL    HW255314   0.051   7.592   6.980 -0.7419  1.1712 -0.2430
17965SOL     OW55315   0.019   7.915   5.270  0.5861 -0.0940  0.4760
17965SOL    HW155316   0.038   7.963   5.190  0.4038  0.6917  0.8970
17965SOL    HW255317   0.074   7.956   5.336  1.7189 -1.5761  0.5143
17966SOL     OW55318   0.389   4.466   8.462  0.0340 -0.0027  0.0389
17966SOL    HW155319   0.374   4.502   8.549  1.2420  1.0025 -0.1297
17966SOL    HW255320   0.480   4.489   8.442 -0.2213 -0.2005 -1.4964
17967SOL     OW55321   9.104   6.146   8.826  0.2284 -0.0287  0.3927
17967SOL    HW155322   9.090   6.079   8.892 -0.9239  1.8203  2.1441
17967SOL    HW255323   9.112   6.227   8.876 -2.4779  1.7380 -1.7563
17968SOL     OW55324   7.179   5.346   4.055  0.2191  0.2304  0.2025
17968SOL    HW155325   7.150   5.438   4.052  1.1306  0.5044 -1.0383
17968SOL    HW255326   7.119   5.301   3.996 -1.0000 -0.2368  1.7392
17969SOL     OW55327   0.746   2.108   2.329  0.7305  0.7611 -0.0735
17969SOL    HW155328   0.776   2.154   2.408  2.0655 -3.3208  2.1069
17969SOL    HW255329   0.651   2.110   2.334  0.7421  3.0882 -0.0480
17970SOL     OW55330   1.308   0.767   2.988 -0.2160 -0.4232 -0.3358
17970SOL    HW155331   1.308   0.752   3.082 -0.0940 -2.0998 -0.5572
17970SOL    HW255332   1.217   0.752   2.962 -0.0091 -1.2896 -0.6264
17971SOL     OW55333   4.864   2.461   8.316 -0.2287 -0.2465 -0.8198
17971SOL    HW155334   4.931   2.408   8.359  0.5205  1.0390 -0.3223
17971SOL    HW255335   4.911   2.509   8.248 -0.7376  0.3139 -0.7886
17972SOL     OW55336   6.445   7.380   4.435  0.1175  0.3393  0.4069
17972SOL    HW155337   6.535   7.391   4.405 -0.4160  2.1017 -0.6829
17972SOL    HW255338   6.442   7.423   4.521  0.9569 -2.2817  1.8806
17973SOL     OW55339   9.223   2.863   8.735  0.0533  0.7066 -0.4372
17973SOL    HW155340   9.309   2.905   8.750 -0.1230  0.4327  1.5430
17973SOL    HW255341   9.168   2.895   8.807 -1.6182  1.0751 -1.8150
17974SOL     OW55342   1.506   7.214   2.898 -0.2677  0.1320  0.7399
17974SOL    HW155343   1.551   7.295   2.924 -1.2208  1.0580 -0.3731
17974SOL    HW255344   1.434   7.206   2.960 -0.0259 -0.0055  1.0053
17975SOL     OW55345   2.999   3.856   6.464  0.4063  0.3234  0.4943
17975SOL    HW155346   2.951   3.855   6.382 -1.5510  1.7792  1.5365
17975SOL    HW255347   2.933   3.877   6.530  1.6948 -1.7751  2.6235
17976SOL     OW55348   6.682   1.450   4.471  0.4549 -0.2751 -0.1005
17976SOL    HW155349   6.621   1.439   4.543 -0.5157 -1.1563 -1.0210
17976SOL    HW255350   6.629   1.487   4.400  1.6169  1.6173 -0.0586
17977SOL     OW55351   2.655   5.797   6.053 -0.2215  0.4248 -0.0185
17977SOL    HW155352   2.707   5.718   6.065 -1.2010 -0.4696 -1.4394
17977SOL    HW255353   2.712   5.857   6.004  0.6219  0.7460  1.3052
17978SOL     OW55354   7.411   3.928   5.923 -1.0555 -0.3740  0.0842
17978SOL    HW155355   7.470   3.992   5.961 -0.4312 -0.4768 -0.6811
17978SOL    HW255356   7.362   3.893   5.997 -0.1659 -0.2748  0.7360
17979SOL     OW55357   5.181   7.359   4.286  0.0394 -0.1727 -0.3325
17979SOL    HW155358   5.116   7.378   4.353 -0.4528  2.0382 -1.3415
17979SOL    HW255359   5.252   7.315   4.332 -1.0455 -0.3187  1.2630
17980SOL     OW55360   0.812   3.334   0.892 -0.0477 -0.2618 -0.1658
17980SOL    HW155361   0.898   3.348   0.934 -0.8576 -0.9182  1.8134
17980SOL    HW255362   0.759   3.408   0.923 -0.6310 -0.6850 -0.1529
17981SOL     OW55363   2.014   7.494   3.529 -0.5706 -0.3520 -0.5898
17981SOL    HW155364   2.055   7.434   3.467  0.3567 -1.7983  1.3302
17981SOL    HW255365   1.937   7.446   3.562 -1.3537  0.6048 -0.9598
17982SOL     OW55366   0.847   0.186   1.013  0.4009  0.0883  0.5860
17982SOL    HW155367   0.893   0.270   1.009 -0.6480  0.7036  1.1440
17982SOL    HW255368   0.793   0.192   1.092 -1.8799  0.0645 -0.8969
17983SOL     OW55369   1.495   5.424   4.846  0.3441 -0.3926 -0.1889
17983SOL    HW155370   1.522   5.336   4.872 -0.0787 -0.4037  0.2455
17983SOL    HW255371   1.410   5.436   4.890  0.5016  0.3093 -0.0676
17984SOL     OW55372   6.926   8.365   6.163  0.4671 -0.0454 -0.1418
17984SOL    HW155373   6.975   8.349   6.244  1.2918 -1.5701 -0.9002
17984SOL    HW255374   6.866   8.437   6.185  0.6037 -0.4824  1.8492
17985SOL     OW55375   4.923   9.168   3.132  0.1797 -0.9114  0.0404
17985SOL    HW155376   4.961   9.178   3.045 -0.8991  0.5011 -0.2988
17985SOL    HW255377   4.860   9.096   3.123  0.8004 -1.4446 -0.0776
17986SOL     OW55378   5.115   8.287   6.161  0.2682  0.1900  0.1436
17986SOL    HW155379   5.052   8.354   6.134  1.0644  1.4136  1.2041
17986SOL    HW255380   5.094   8.271   6.253  0.6657 -0.3447  0.1415
17987SOL     OW55381   0.189   7.085   5.013 -0.3266 -0.3483  0.3461
17987SOL    HW155382   0.166   6.993   5.002 -2.4816  0.1637 -0.0320
17987SOL    HW255383   0.179   7.101   5.107 -1.0548 -0.2820  0.2701
17988SOL     OW55384   8.675   0.315   8.527 -0.2042 -0.2283 -0.1640
17988SOL    HW155385   8.686   0.255   8.453 -2.1752 -0.1217 -0.6086
17988SOL    HW255386   8.755   0.368   8.527  1.4108 -2.5011 -0.0264
17989SOL     OW55387   6.911   8.960   3.514  0.1918  0.1650 -0.3844
17989SOL    HW155388   6.925   9.028   3.580  1.3886 -0.3870 -0.0518
17989SOL    HW255389   6.850   8.899   3.556  2.9302 -1.5868  1.3549
17990SOL     OW55390   3.019   4.845   1.310 -0.0601  0.4252  0.4074
17990SOL    HW155391   2.933   4.881   1.330 -0.6110 -0.0682 -0.9069
17990SOL    HW255392   3.058   4.824   1.395 -2.0837 -1.2614  1.0150
17991SOL     OW55393   2.282   2.119   2.425  0.2719  0.7211  0.3203
17991SOL    HW155394   2.314   2.209   2.429 -1.5667  1.4035  0.3375
17991SOL    HW255395   2.234   2.107   2.507 -0.8493  0.2753 -0.3860
17992SOL     OW55396   7.382   1.364   3.720 -0.0355  0.5550  0.1058
17992SOL    HW155397   7.318   1.302   3.755 -0.5350  0.4554 -0.9488
17992SOL    HW255398   7.426   1.317   3.649 -1.8939  2.0213 -2.1620
17993SOL     OW55399   3.538   2.110   0.893 -0.2503 -0.5777 -0.0418
17993SOL    HW155400   3.451   2.117   0.932  0.2142 -1.0483  1.1321
17993SOL    HW255401   3.539   2.023   0.853 -0.6914 -0.1364 -1.0324
17994SOL     OW55402   7.443   3.281   5.167  1.0126 -0.3150  0.0088
17994SOL    HW155403   7.478   3.337   5.098 -1.8671  1.2806 -0.3283
17994SOL    HW255404   7.424   3.341   5.239 -0.2643 -1.1865  0.4331
17995SOL     OW55405   4.071   2.266   7.444 -0.4352 -0.1665 -0.3558
17995SOL    HW155406   4.001   2.283   7.381  0.1807 -1.9592 -1.6046
17995SOL    HW255407   4.119   2.348   7.449 -2.7270  1.2007  0.7373
17996SOL     OW55408   1.343   6.284   1.181  0.1679 -0.3359  0.5716
17996SOL    HW155409   1.272   6.225   1.156 -1.2004  1.1126  0.8756
17996SOL    HW255410   1.423   6.236   1.158 -0.9028 -1.5892 -0.7754
17997SOL     OW55411   6.774   2.812   0.449  0.2726 -0.5060 -0.7068
17997SOL    HW155412   6.698   2.758   0.427 -0.4569 -0.5777  1.6607
17997SOL    HW255413   6.737   2.899   0.463  0.6575 -0.4648  0.1070
17998SOL     OW55414   4.497   8.463   1.147  0.7599  0.4368 -0.2572
17998SOL    HW155415   4.489   8.380   1.194  1.3139  0.0543 -0.8229
17998SOL    HW255416   4.444   8.451   1.068  1.7354  0.1946 -0.8954
17999SOL     OW55417   2.257   8.432   6.536 -0.5232  0.6099  0.4840
17999SOL    HW155418   2.312   8.423   6.459 -2.6029  1.0032 -1.1359
17999SOL    HW255419   2.256   8.345   6.575 -0.1254  0.1887 -0.4104
18000SOL     OW55420   4.282   5.937   0.657  0.3092  0.0605  0.2540
18000SOL    HW155421   4.265   6.030   0.670  3.1149  0.4247  2.2348
18000SOL    HW255422   4.229   5.893   0.724 -1.9252  0.0254 -1.4227
18001SOL     OW55423   5.829   7.991   2.759 -0.9977 -0.2628  0.9579
18001SOL    HW155424   5.913   8.031   2.736 -0.8310  0.1758  2.2506
18001SOL    HW255425   5.792   7.963   2.675  0.7915 -1.1726  0.4231
18002SOL     OW55426   5.378   2.463   8.960 -0.3473  1.1340  0.4823
18002SOL    HW155427   5.412   2.515   9.032  1.9430 -0.5150  0.7104
18002SOL    HW255428   5.307   2.515   8.923  0.5132  3.4504  1.9311
18003SOL     OW55429   5.201   7.664   5.622 -0.0729  0.0696  0.1687
18003SOL    HW155430   5.144   7.666   5.545 -1.0624 -1.7241  0.7900
18003SOL    HW255431   5.148   7.700   5.693  0.2787  0.2332  0.3524
18004SOL     OW55432   4.384   1.490   7.874  0.4316 -0.6507  0.3365
18004SOL    HW155433   4.416   1.428   7.941  0.2591 -2.1848 -0.9404
18004SOL    HW255434   4.294   1.463   7.858  0.5273 -0.4117 -0.6396
18005SOL     OW55435   2.300   8.126   8.843  0.0432  0.2172 -0.0225
18005SOL    HW155436   2.293   8.221   8.837 -1.9809  0.0043 -1.8667
18005SOL    HW255437   2.210   8.094   8.837  0.8403 -1.9605 -3.6942
18006SOL     OW55438   3.108   8.050   8.746  0.1125  0.4490 -0.1355
18006SOL    HW155439   3.155   8.049   8.663  0.1445  2.4818 -0.1751
18006SOL    HW255440   3.026   8.095   8.728 -1.2003 -1.6393  0.3116
18007SOL     OW55441   4.433   3.660   7.801 -0.1397 -0.2065  0.1998
18007SOL    HW155442   4.489   3.731   7.768 -0.2196 -0.1412  0.2026
18007SOL    HW255443   4.373   3.642   7.729 -0.6296  0.2678  0.4789
18008SOL     OW55444   7.586   0.448   4.176 -0.9207  0.2212  0.0580
18008SOL    HW155445   7.508   0.415   4.220 -1.0494 -1.0094 -1.0378
18008SOL    HW255446   7.637   0.370   4.155  0.0673  0.9229 -0.2470
18009SOL     OW55447   1.518   3.885   2.492 -0.0748  0.0233  0.6289
18009SOL    HW155448   1.513   3.804   2.542 -0.5026 -1.7858 -2.1515
18009SOL    HW255449   1.435   3.930   2.511 -2.7120 -3.1410 -2.3019
18010SOL     OW55450   1.799   8.889   0.191  0.1095  0.0780  0.1518
18010SOL    HW155451   1.747   8.969   0.183 -2.3587 -1.4915 -0.9468
18010SOL    HW255452   1.820   8.865   0.100 -0.1362 -1.0745  0.3789
18011SOL     OW55453   4.074   8.547   1.634  0.2432 -0.0117  0.0798
18011SOL    HW155454   4.024   8.606   1.690  0.3311 -0.8280  1.0346
18011SOL    HW255455   4.126   8.605   1.579  0.0544  0.8085  0.7521
18012SOL     OW55456   0.152   3.370   4.364 -0.3770  0.0669  0.4870
18012SOL    HW155457   0.111   3.308   4.424 -1.3684 -0.8720 -1.0996
18012SOL    HW255458   0.089   3.441   4.356  0.0136  0.4762  0.9968
18013SOL     OW55459   9.177   8.546   1.851 -0.7308 -0.4887  0.3588
18013SOL    HW155460   9.190   8.636   1.821 -3.1333  0.3593  1.5766
18013SOL    HW255461   9.262   8.520   1.885  0.6353  0.4465 -2.0605
18014SOL     OW55462   6.214   2.134   0.276  0.4502  0.2661 -0.3687
18014SOL    HW155463   6.166   2.059   0.242  1.4548  0.1422 -1.5747
18014SOL    HW255464   6.150   2.182   0.328 -0.7538 -0.3120 -1.2799
18015SOL     OW55465   7.877   1.186   4.009 -0.0297 -0.1491  0.2121
18015SOL    HW155466   7.831   1.242   3.946 -0.5387  1.4853  1.9450
18015SOL    HW255467   7.909   1.113   3.956 -2.5221 -0.1344 -1.5196
18016SOL     OW55468   5.329   7.769   8.120  0.7102  0.4264 -0.2663
18016SOL    HW155469   5.305   7.774   8.212 -0.6297  1.4959 -0.6265
18016SOL    HW255470   5.379   7.688   8.112 -1.0681 -0.8697  0.9881
18017SOL     OW55471   7.567   1.794   1.589  0.7334 -0.4390 -0.2150
18017SOL    HW155472   7.516   1.741   1.528  0.2210 -3.0107  2.2806
18017SOL    HW255473   7.653   1.803   1.546  0.9051 -3.4883 -0.7354
18018SOL     OW55474   5.747   8.681   0.937 -0.0539  0.0835 -0.0289
18018SOL    HW155475   5.834   8.705   0.968 -0.0742  0.4020 -0.2110
18018SOL    HW255476   5.757   8.592   0.905  0.2647  0.2045 -0.2734
18019SOL     OW55477   8.612   8.360   6.754  0.0026 -0.6927  0.3838
18019SOL    HW155478   8.701   8.391   6.768 -0.4720  0.9171  0.0174
18019SOL    HW255479   8.621   8.286   6.694  1.2027 -1.4853  1.4959
18020SOL     OW55480   6.083   4.136   3.155 -0.0743 -0.7448  0.0491
18020SOL    HW155481   6.027   4.145   3.232 -0.3955 -0.0530 -0.2557
18020SOL    HW255482   6.026   4.161   3.082 -0.0620 -2.2901 -0.5219
18021SOL     OW55483   0.374   4.410   8.058 -0.3676 -0.2777 -0.1461
18021SOL    HW155484   0.299   4.350   8.063 -0.5779  0.0361  0.8430
18021SOL    HW255485   0.442   4.366   8.109 -0.0609 -0.3017 -0.5757
18022SOL     OW55486   8.847   3.452   1.573  0.0882 -0.4105  0.1829
18022SOL    HW155487   8.865   3.458   1.479  0.7555  1.0534  0.3693
18022SOL    HW255488   8.934   3.453   1.614 -0.1746 -1.4458  0.8152
18023SOL     OW55489   3.136   5.938   1.303 -0.2806 -0.8678 -0.3996
18023SOL    HW155490   3.122   5.844   1.316 -0.4729 -0.8488 -0.4742
18023SOL    HW255491   3.205   5.943   1.237  0.8127 -0.9685  0.6906
18024SOL     OW55492   1.624   4.289   3.808  0.0539 -0.1090 -0.1062
18024SOL    HW155493   1.532   4.275   3.829  0.1935 -0.6545  0.1465
18024SOL    HW255494   1.672   4.254   3.883  0.5288 -1.4880 -1.0187
18025SOL     OW55495   2.592   5.611   4.004  0.1861 -0.2456 -0.1131
18025SOL    HW155496   2.664   5.582   4.059  0.7576  2.4733  0.7424
18025SOL    HW255497   2.516   5.610   4.063  0.3335  0.5175  0.0979
18026SOL     OW55498   6.994   1.249   5.836 -0.3446 -0.2550  0.2282
18026SOL    HW155499   7.080   1.230   5.873 -0.0613 -2.1540 -1.2729
18026SOL    HW255500   7.000   1.341   5.808  1.1422 -0.3080  0.2876
18027SOL     OW55501   1.022   3.634   1.566  0.2851  0.2209  1.0313
18027SOL    HW155502   1.030   3.539   1.565 -1.5825  0.0126 -0.5739
18027SOL    HW255503   0.949   3.651   1.625 -1.5374  0.3330 -1.1027
18028SOL     OW55504   3.625   8.000   6.362 -0.1391 -0.3713 -0.8181
18028SOL    HW155505   3.696   8.064   6.358 -1.0374  0.7119 -0.0708
18028SOL    HW255506   3.613   7.973   6.271  0.3064  0.4833 -1.1477
18029SOL     OW55507   4.490   2.524   7.807 -0.4644  0.1579 -0.8657
18029SOL    HW155508   4.500   2.567   7.722 -0.5772 -2.3561 -2.2572
18029SOL    HW255509   4.571   2.474   7.818 -0.0787  1.0804  0.9651
18030SOL     OW55510   5.453   4.525   6.389 -0.4852  0.3756 -0.0639
18030SOL    HW155511   5.524   4.501   6.329 -0.0423  1.1720  0.1255
18030SOL    HW255512   5.466   4.468   6.465 -1.1349 -0.7417 -0.7531
18031SOL     OW55513   2.482   5.636   7.046  0.2512 -0.1847  0.6953
18031SOL    HW155514   2.456   5.544   7.046 -2.3392  0.4709 -0.3247
18031SOL    HW255515   2.437   5.674   7.122 -0.0272  0.5529  0.1699
18032SOL     OW55516   4.568   4.619   8.811  0.3162  0.2457  0.2916
18032SOL    HW155517   4.651   4.617   8.858  0.7405 -2.4718 -0.4037
18032SOL    HW255518   4.591   4.592   8.722 -1.0227  1.6090 -0.5058
18033SOL     OW55519   7.163   5.892   7.595 -0.2337 -0.5103 -0.3096
18033SOL    HW155520   7.161   5.824   7.662 -0.1682 -1.7284 -1.5099
18033SOL    HW255521   7.081   5.880   7.546 -0.1866  0.2265 -0.5840
18034SOL     OW55522   4.968   9.075   1.520  0.0651 -0.4134  0.0991
18034SOL    HW155523   4.895   9.061   1.580  0.8525 -0.0625  1.1649
18034SOL    HW255524   5.034   9.012   1.547  0.6883  0.2057  0.0403
18035SOL     OW55525   3.469   1.107   3.870 -0.4103  0.4426  0.2069
18035SOL    HW155526   3.536   1.160   3.913  0.8519 -0.1555 -0.9399
18035SOL    HW255527   3.421   1.169   3.816  0.4073  0.6104 -0.3511
18036SOL     OW55528   8.711   8.953   7.837 -0.0678  0.4732 -0.1093
18036SOL    HW155529   8.767   8.948   7.760  1.0368 -1.7758  0.7553
18036SOL    HW255530   8.627   8.916   7.807 -0.3685  1.6217 -0.7618
18037SOL     OW55531   2.473   3.312   0.163 -0.2344  0.8043  0.3130
18037SOL    HW155532   2.557   3.282   0.129 -1.4301 -1.7831 -0.6082
18037SOL    HW255533   2.419   3.326   0.086 -0.8426  1.9297  0.9136
18038SOL     OW55534   8.798   3.991   3.303  0.8189  0.6548 -0.1987
18038SOL    HW155535   8.719   3.965   3.352  0.3551  1.6698 -0.3836
18038SOL    HW255536   8.802   3.929   3.230 -0.0785  0.8855 -0.4565
18039SOL     OW55537   4.689   9.061   0.032  0.3122  0.1789  0.1825
18039SOL    HW155538   4.762   9.119   0.054 -0.3694  1.7494 -1.4497
18039SOL    HW255539   4.611   9.115   0.045 -0.3784 -0.5529 -0.8294
18040SOL     OW55540   7.469   5.795   7.512  0.5077  0.1959  0.2004
18040SOL    HW155541   7.488   5.888   7.525  0.3824  0.2228  0.1863
18040SOL    HW255542   7.418   5.791   7.432 -0.6098  0.2517  0.8825
18041SOL     OW55543   5.406   4.692   1.131  0.0606  0.0906  0.4217
18041SOL    HW155544   5.353   4.621   1.168 -1.2120  1.0372  0.4895
18041SOL    HW255545   5.366   4.772   1.165  2.2474  0.8363  1.3698
18042SOL     OW55546   4.919   2.675   7.105  0.2353 -0.2029 -0.3103
18042SOL    HW155547   4.947   2.714   7.022  0.1484  1.2493  0.3214
18042SOL    HW255548   4.997   2.630   7.138  0.5483  0.0314 -0.7209
18043SOL     OW55549   3.562   1.969   6.891 -0.7070 -0.0468  0.1726
18043SOL    HW155550   3.495   1.971   6.960 -1.1363  0.0673 -0.2418
18043SOL    HW255551   3.520   2.010   6.815 -0.5848 -1.0481 -0.4558
18044SOL     OW55552   7.545   2.013   0.302 -0.2172  0.3036  0.1616
18044SOL    HW155553   7.638   2.025   0.321 -0.0815 -1.1799  0.5890
18044SOL    HW255554   7.510   2.102   0.294  1.4429  0.8893 -1.0855
18045SOL     OW55555   4.431   6.536   0.173 -0.2025  0.6156  0.6242
18045SOL    HW155556   4.339   6.510   0.170 -0.5154  1.5174  1.7719
18045SOL    HW255557   4.440   6.601   0.102 -0.9169  1.8508  1.6188
18046SOL     OW55558   2.506   4.215   1.865  0.4866 -0.6955 -0.9686
18046SOL    HW155559   2.492   4.305   1.836  1.6987 -0.1623  0.0336
18046SOL    HW255560   2.428   4.169   1.835 -0.5809  0.8721 -0.7398
18047SOL     OW55561   1.596   5.678   6.574  0.4463  0.0618  0.6668
18047SOL    HW155562   1.634   5.597   6.539  1.4844  0.0976  1.6549
18047SOL    HW255563   1.668   5.742   6.569 -0.5390  1.1242 -0.6991
18048SOL     OW55564   3.281   6.407   6.399 -0.7989  0.2200 -0.1180
18048SOL    HW155565   3.361   6.435   6.444 -1.1452  0.3577  0.4204
18048SOL    HW255566   3.225   6.484   6.401 -0.7812  0.2557 -0.8799
18049SOL     OW55567   7.880   0.960   8.205  0.5239  1.1677 -0.5960
18049SOL    HW155568   7.957   1.015   8.190  0.9761  0.4601 -0.9227
18049SOL    HW255569   7.858   0.926   8.119  1.4610 -0.7251 -0.1396
18050SOL     OW55570   1.795   2.242   2.685  0.1316 -0.1173 -0.0602
18050SOL    HW155571   1.845   2.253   2.604 -0.7009 -0.2734 -0.6206
18050SOL    HW255572   1.857   2.204   2.747  1.3329  1.8309  0.0104
18051SOL     OW55573   3.016   1.829   6.726  0.4635 -0.2183 -0.1108
18051SOL    HW155574   3.046   1.819   6.816  0.5883 -0.0033 -0.1266
18051SOL    HW255575   2.980   1.744   6.702  1.8092 -0.7339 -0.3724
18052SOL     OW55576   3.977   9.121   8.906  0.1740  0.4682 -0.0503
18052SOL    HW155577   4.071   9.114   8.922  0.1420 -0.2591 -0.1106
18052SOL    HW255578   3.944   9.032   8.922 -0.5818  0.8316  0.4847
18053SOL     OW55579   1.451   1.904   1.560 -0.0604 -0.1372  0.4216
18053SOL    HW155580   1.385   1.940   1.500  1.7168  1.8722 -0.4794
18053SOL    HW255581   1.444   1.958   1.639  0.2383 -0.1532  0.4624
18054SOL     OW55582   0.527   1.361   6.236  0.3022 -0.0417  0.6189
18054SOL    HW155583   0.614   1.357   6.276  0.0166 -0.1175  1.2407
18054SOL    HW255584   0.514   1.454   6.217 -1.3757  0.8036  4.8540
18055SOL     OW55585   8.432   6.028   4.759  0.2340  0.0925 -0.4320
18055SOL    HW155586   8.408   6.113   4.721 -1.7489 -0.0448  0.4193
18055SOL    HW255587   8.370   6.015   4.830  0.9445 -1.7767 -0.0977
18056SOL     OW55588   0.865   6.689   0.115  0.4806 -0.0228 -0.6268
18056SOL    HW155589   0.818   6.688   0.032 -0.6479  3.3022 -0.1649
18056SOL    HW255590   0.808   6.737   0.175  4.0294  3.7934  0.1672
18057SOL     OW55591   6.092   9.248   4.252  0.4869  0.0973 -0.0729
18057SOL    HW155592   6.125   9.241   4.163  0.8419 -0.2489  0.0862
18057SOL    HW255593   6.152   9.196   4.305 -0.3589 -0.6274  0.2026
18058SOL     OW55594   6.764   3.538   7.285  0.1309 -0.6502 -0.3312
18058SOL    HW155595   6.741   3.569   7.373 -1.5951  1.0295 -1.2973
18058SOL    HW255596   6.835   3.596   7.258  1.1384 -1.6125  0.1761
18059SOL     OW55597   6.909   7.165   2.534  0.2842 -0.0803 -0.4391
18059SOL    HW155598   7.004   7.157   2.549 -0.2537 -1.4438  3.1133
18059SOL    HW255599   6.884   7.245   2.579 -0.4218 -0.3455 -0.3454
18060SOL     OW55600   0.228   3.614   0.899 -0.0213 -0.0061 -0.2969
18060SOL    HW155601   0.152   3.557   0.909 -1.0321  1.3627  0.1805
18060SOL    HW255602   0.286   3.591   0.970 -1.3583  0.9207  1.1655
18061SOL     OW55603   1.927   3.823   2.457  0.5594  0.0179 -0.1662
18061SOL    HW155604   1.892   3.781   2.379  0.2572 -2.0001  0.9608
18061SOL    HW255605   2.019   3.841   2.436  0.8931 -1.8956 -0.5154
18062SOL     OW55606   8.770   8.785   3.143  0.5063  0.0108 -0.0214
18062SOL    HW155607   8.822   8.835   3.206  2.5690 -1.4586 -0.4498
18062SOL    HW255608   8.760   8.699   3.184 -1.2051  0.0971 -0.1909
18063SOL     OW55609   1.919   7.238   0.836  0.5740 -0.2011 -0.1480
18063SOL    HW155610   1.857   7.198   0.775 -1.2169 -0.1543  1.5842
18063SOL    HW255611   1.923   7.178   0.910 -0.4022  1.6379  1.4786
18064SOL     OW55612   6.724   5.449   6.331 -0.4897  0.1752  0.1737
18064SOL    HW155613   6.743   5.497   6.250 -1.9779 -1.3275 -1.1313
18064SOL    HW255614   6.801   5.465   6.386 -0.2671  2.8092 -0.7386
18065SOL     OW55615   5.782   1.510   7.786  0.1379 -0.6798 -0.3330
18065SOL    HW155616   5.778   1.587   7.729  0.3968 -0.3658  0.0717
18065SOL    HW255617   5.732   1.535   7.864  1.7465 -0.2439  0.5961
18066SOL     OW55618   2.358   5.388   4.818  0.7421 -0.7562  0.2365
18066SOL    HW155619   2.313   5.371   4.735 -0.2478  0.3973  0.5111
18066SOL    HW255620   2.309   5.337   4.883  1.1236 -1.1512  0.2189
18067SOL     OW55621   5.373   4.083   1.627 -0.1585 -0.0195  0.0714
18067SOL    HW155622   5.391   4.161   1.574 -2.3414  0.2114 -0.4514
18067SOL    HW255623   5.381   4.113   1.717 -1.0990  0.8877 -0.1214
18068SOL     OW55624   1.505   7.172   0.863 -0.3329  0.1102  0.5517
18068SOL    HW155625   1.502   7.177   0.959  1.9673  1.9275  0.6157
18068SOL    HW255626   1.520   7.262   0.835 -1.8874 -0.2352 -1.6232
18069SOL     OW55627   4.479   2.316   6.673 -0.1920  0.2301  0.2990
18069SOL    HW155628   4.460   2.338   6.582 -1.1536  2.0112  0.8965
18069SOL    HW255629   4.571   2.291   6.673 -0.3851 -0.6081 -1.2800
18070SOL     OW55630   5.014   6.527   6.693 -0.7277  0.1534  0.2803
18070SOL    HW155631   4.925   6.545   6.664 -0.2980 -0.4522 -1.5275
18070SOL    HW255632   5.050   6.468   6.627  0.1428 -1.8597  2.4101
18071SOL     OW55633   5.882   2.676   5.310  0.2054 -0.2536  0.6024
18071SOL    HW155634   5.932   2.742   5.262 -0.2414 -0.8021 -0.6470
18071SOL    HW255635   5.930   2.664   5.391  0.3141  1.5990  0.8683
18072SOL     OW55636   5.434   3.553   9.269 -0.1348 -0.5641 -0.0754
18072SOL    HW155637   5.445   3.630   9.325  1.6012  0.1078 -1.2691
18072SOL    HW255638   5.352   3.570   9.221 -0.5019 -0.1481  0.6856
18073SOL     OW55639   5.772   2.570   6.344  0.2101  0.1190 -0.3217
18073SOL    HW155640   5.718   2.506   6.391 -0.7795  1.0951 -0.0974
18073SOL    HW255641   5.784   2.641   6.406 -1.2670  1.5150 -1.5323
18074SOL     OW55642   0.580   8.356   5.944 -0.3268  0.1781  0.4494
18074SOL    HW155643   0.583   8.401   5.859 -0.1593 -0.1840  0.2613
18074SOL    HW255644   0.574   8.263   5.922 -2.3936  0.1666  0.8049
18075SOL     OW55645   8.726   1.212   9.020  0.5187  0.2595 -0.2083
18075SOL    HW155646   8.757   1.121   9.022  0.5688  0.2122 -1.7844
18075SOL    HW255647   8.632   1.204   9.002  0.2527  0.5032  0.9866
18076SOL     OW55648   7.705   1.202   5.786 -0.1296 -0.3515 -0.2292
18076SOL    HW155649   7.692   1.184   5.879  0.6848 -1.1492 -0.2529
18076SOL    HW255650   7.618   1.195   5.747 -0.5075  0.1662  0.4925
18077SOL     OW55651   4.008   5.074   7.875 -0.0326  0.1187  0.1080
18077SOL    HW155652   3.924   5.030   7.864  0.4159 -0.7838  0.2017
18077SOL    HW255653   3.988   5.153   7.926 -0.5907 -0.9112  1.5496
18078SOL     OW55654   0.729   0.213   4.415  0.1860  0.3139  0.3642
18078SOL    HW155655   0.683   0.183   4.337  0.0964  1.6702 -0.1332
18078SOL    HW255656   0.761   0.133   4.457  1.8000 -0.3801 -2.0061
18079SOL     OW55657   0.720   6.438   8.816  0.0377 -0.2166  0.2609
18079SOL    HW155658   0.775   6.496   8.763 -0.3614 -0.6316 -0.6178
18079SOL    HW255659   0.742   6.350   8.786 -1.2055 -0.3851 -0.2010
18080SOL     OW55660   0.353   1.505   6.562 -0.2822 -0.2095  0.3319
18080SOL    HW155661   0.403   1.565   6.618 -1.1111 -0.0725  0.9448
18080SOL    HW255662   0.295   1.460   6.623 -1.2038 -0.0613 -0.4228
18081SOL     OW55663   8.515   2.766   2.506 -0.1328 -0.2596  0.8851
18081SOL    HW155664   8.526   2.729   2.418  0.1615 -0.3361  0.9519
18081SOL    HW255665   8.604   2.781   2.537 -0.2539  0.5962  0.8275
18082SOL     OW55666   0.241   6.859   5.208 -0.2294  0.4192  0.2363
18082SOL    HW155667   0.319   6.866   5.264 -0.2272 -0.4990  0.3642
18082SOL    HW255668   0.246   6.770   5.172  0.5641  1.4574 -2.4212
18083SOL     OW55669   4.341   2.957   2.631  0.0699  0.4007  0.3796
18083SOL    HW155670   4.318   2.989   2.543 -0.7839  0.3655  0.5791
18083SOL    HW255671   4.418   2.903   2.618 -0.2735  0.0866 -0.4121
18084SOL     OW55672   1.483   2.047   7.360  0.3617 -0.3071 -0.1117
18084SOL    HW155673   1.414   2.030   7.424 -0.8961  1.2913 -0.9612
18084SOL    HW255674   1.506   2.140   7.373  1.6639 -0.5532 -0.5014
18085SOL     OW55675   5.850   6.969   4.460  0.6218 -0.0127 -0.1918
18085SOL    HW155676   5.837   7.040   4.397  1.3470  0.6059  0.3334
18085SOL    HW255677   5.871   6.892   4.406  2.4823  0.7897 -0.6869
18086SOL     OW55678   2.950   4.191   7.575  0.2123 -0.5607  0.3041
18086SOL    HW155679   2.972   4.221   7.663 -0.1129  0.4735  0.0480
18086SOL    HW255680   2.885   4.254   7.543  0.0733 -1.1117 -0.5497
18087SOL     OW55681   7.325   4.133   1.426 -0.0779 -0.2565  0.0080
18087SOL    HW155682   7.328   4.103   1.517  1.2364 -1.4436 -0.3866
18087SOL    HW255683   7.253   4.084   1.387 -1.4288  1.1274  0.6559
18088SOL     OW55684   8.217   6.019   5.875  0.8564 -0.6521 -0.1251
18088SOL    HW155685   8.125   6.045   5.871  1.3868  1.3206 -1.1480
18088SOL    HW255686   8.235   6.007   5.968 -0.0768  0.3881  0.2131
18089SOL     OW55687   5.814   9.064   0.913  0.2292  0.4110  0.5991
18089SOL    HW155688   5.730   9.021   0.925 -0.2365  1.5145  1.4917
18089SOL    HW255689   5.840   9.041   0.824 -1.5807  0.9678 -0.1291
18090SOL     OW55690   3.269   2.491   3.326 -0.4751 -0.6055 -0.1760
18090SOL    HW155691   3.204   2.430   3.289 -1.0434  0.7611 -1.4979
18090SOL    HW255692   3.351   2.441   3.325 -0.9002 -1.3339 -1.3326
18091SOL     OW55693   2.417   8.736   2.078  0.0233  0.1631  0.0162
18091SOL    HW155694   2.413   8.693   2.163  1.9723 -0.4415 -0.1540
18091SOL    HW255695   2.490   8.798   2.086 -0.1381  0.5046 -1.0413
18092SOL     OW55696   4.834   1.583   2.358 -0.5498  0.7573 -0.1155
18092SOL    HW155697   4.792   1.533   2.288 -1.4212  0.2156  0.7731
18092SOL    HW255698   4.794   1.670   2.352 -0.7030  0.6792 -0.2259
18093SOL     OW55699   3.068   7.702   6.395  0.3509  0.2224  0.5061
18093SOL    HW155700   3.059   7.783   6.345 -0.5838 -0.6258 -0.7624
18093SOL    HW255701   3.021   7.718   6.476 -0.6564  0.6326 -0.1465
18094SOL     OW55702   9.249   8.785   3.742 -0.0847 -0.0588 -0.0070
18094SOL    HW155703   9.185   8.806   3.673  0.1850 -1.3843 -0.7161
18094SOL    HW255704   9.196   8.773   3.821 -1.1118 -3.1971 -0.9922
18095SOL     OW55705   6.596   9.143   1.005 -0.2142  0.0709 -0.6597
18095SOL    HW155706   6.651   9.181   0.937 -0.0873  0.7896 -0.1642
18095SOL    HW255707   6.613   9.049   0.999 -0.3474  0.1030 -1.7355
18096SOL     OW55708   1.046   4.457   5.569 -0.0445  0.5986 -0.0985
18096SOL    HW155709   0.964   4.410   5.588  0.1343  0.3592  0.0925
18096SOL    HW255710   1.067   4.502   5.650 -0.4847  1.4328 -0.4365
18097SOL     OW55711   0.046   1.853   0.466 -0.0490  0.5037  0.4317
18097SOL    HW155712   0.035   1.767   0.425  1.0958  1.3341 -1.7978
18097SOL    HW255713   0.127   1.846   0.517 -0.2550  0.1169  0.7102
18098SOL     OW55714   3.672   0.600   0.756 -0.1384  0.0545 -0.3003
18098SOL    HW155715   3.660   0.571   0.846  0.2421 -1.9372 -0.8561
18098SOL    HW255716   3.755   0.562   0.729 -0.0956  0.8838 -1.4064
18099SOL     OW55717   2.135   0.812   3.201 -0.0261  0.5006 -0.0740
18099SOL    HW155718   2.120   0.778   3.113  0.1275 -1.4703  0.6155
18099SOL    HW255719   2.052   0.797   3.247  1.0420 -2.2885  1.2128
18100SOL     OW55720   9.169   4.584   3.199 -0.3117 -0.2816  0.4015
18100SOL    HW155721   9.092   4.572   3.144 -0.8375 -1.5732  1.3693
18100SOL    HW255722   9.243   4.572   3.140 -0.8557 -2.1084  0.0402
18101SOL     OW55723   7.724   5.013   3.957  0.0183  0.4573  0.2447
18101SOL    HW155724   7.690   4.967   3.881  0.1481  1.5578 -0.5000
18101SOL    HW255725   7.676   4.976   4.031 -0.3168 -0.4221 -0.3956
18102SOL     OW55726   5.483   8.462   4.601 -0.2725  0.4629 -0.0119
18102SOL    HW155727   5.467   8.544   4.647  1.2410  1.1615 -0.6455
18102SOL    HW255728   5.567   8.431   4.635 -0.2886 -0.2247 -0.5735
18103SOL     OW55729   2.152   0.107   3.300  0.2771 -0.0589  0.4560
18103SOL    HW155730   2.059   0.131   3.298  0.5460  1.1096  1.0997
18103SOL    HW255731   2.191   0.170   3.360  1.6348 -0.0073 -0.4380
18104SOL     OW55732   4.086   5.986   2.383  0.0328  0.6598 -0.0619
18104SOL    HW155733   4.102   6.079   2.401 -1.0587  1.0638 -1.0092
18104SOL    HW255734   3.993   5.982   2.359  0.1093 -0.6493 -0.2219
18105SOL     OW55735   7.717   3.689   3.448  0.2833  0.1941  0.6172
18105SOL    HW155736   7.717   3.777   3.410  1.0776  0.3574  0.9710
18105SOL    HW255737   7.633   3.652   3.423 -0.6529  1.5581  1.6173
18106SOL     OW55738   5.653   1.510   8.253  0.4182  0.3340 -0.1030
18106SOL    HW155739   5.583   1.549   8.306  0.0983 -0.4925  0.0953
18106SOL    HW255740   5.638   1.545   8.165 -1.2508 -1.0590 -0.4394
18107SOL     OW55741   0.408   8.031   8.061 -0.2168 -0.0801 -0.4137
18107SOL    HW155742   0.443   8.045   7.973  1.1900  0.5928  0.2091
18107SOL    HW255743   0.423   7.938   8.078  1.3840  0.1920 -0.1571
18108SOL     OW55744   8.892   6.740   7.630  0.0414 -0.2321  0.1182
18108SOL    HW155745   8.883   6.672   7.697  0.1322 -0.4220 -0.0635
18108SOL    HW255746   8.950   6.805   7.670  1.8029 -1.3214 -0.5457
18109SOL     OW55747   2.837   5.968   5.939  0.5054  0.3114  0.1031
18109SOL    HW155748   2.882   5.956   5.856 -0.9159 -0.6027 -0.5730
18109SOL    HW255749   2.831   6.063   5.949  1.4518  0.4389 -0.3960
18110SOL     OW55750   8.956   3.765   4.975  0.0999  0.1921  0.3268
18110SOL    HW155751   9.009   3.810   4.909  1.6278  0.2464  1.5222
18110SOL    HW255752   8.934   3.833   5.038 -1.2926  0.1271 -0.0638
18111SOL     OW55753   1.580   0.970   3.318  0.2251 -0.1608 -0.3282
18111SOL    HW155754   1.622   0.999   3.237  0.9894  1.7647  0.6990
18111SOL    HW255755   1.487   0.989   3.305  0.3822  0.3998 -0.6437
18112SOL     OW55756   7.735   5.242   2.320  0.4775 -0.0101  0.3736
18112SOL    HW155757   7.716   5.151   2.298 -0.4136 -0.0231  1.1463
18112SOL    HW255758   7.691   5.292   2.251 -0.3704 -0.1217  0.8240
18113SOL     OW55759   4.509   4.959   8.442  0.0021 -0.0659 -0.4734
18113SOL    HW155760   4.534   5.001   8.359 -0.5175  0.8557 -0.1787
18113SOL    HW255761   4.423   4.920   8.423 -0.5191  0.8957 -0.1308
18114SOL     OW55762   9.073   7.654   1.015  0.1551 -0.3042 -0.5483
18114SOL    HW155763   9.106   7.744   1.010  0.0576 -0.0946  1.6902
18114SOL    HW255764   9.077   7.622   0.925 -0.1288  2.0498 -1.4624
18115SOL     OW55765   1.315   1.288   2.375  0.1942 -0.5836 -0.0909
18115SOL    HW155766   1.230   1.331   2.364  0.9242  0.3035 -3.5218
18115SOL    HW255767   1.297   1.196   2.355 -0.3705 -0.9035  1.7521
18116SOL     OW55768   6.274   3.309   1.557 -0.5962  0.3787 -0.2881
18116SOL    HW155769   6.319   3.259   1.489 -0.3072  0.6991 -0.3385
18116SOL    HW255770   6.224   3.244   1.606  2.8507 -0.6795  2.1946
18117SOL     OW55771   6.737   6.195   3.862  0.1505 -0.4207 -0.3646
18117SOL    HW155772   6.677   6.227   3.794 -1.2627 -2.3625 -0.1097
18117SOL    HW255773   6.681   6.173   3.936  1.3030 -1.2243  0.3148
18118SOL     OW55774   3.428   4.369   2.801 -0.1051 -0.6233 -0.4653
18118SOL    HW155775   3.415   4.464   2.800  1.2089 -0.4005  0.6927
18118SOL    HW255776   3.377   4.338   2.875  0.2415 -0.6865 -0.2502
18119SOL     OW55777   0.215   6.929   6.176 -0.0887 -0.4605  0.0865
18119SOL    HW155778   0.173   6.844   6.161 -0.1899 -0.4296  0.1899
18119SOL    HW255779   0.169   6.989   6.117  0.5803 -0.6478 -0.6477
18120SOL     OW55780   5.894   7.816   4.387 -0.0643 -0.0947  0.2619
18120SOL    HW155781   5.982   7.840   4.416 -0.0578 -2.4149  2.4072
18120SOL    HW255782   5.906   7.794   4.294  1.5962 -0.2201  0.4625
18121SOL     OW55783   4.490   3.959   8.533 -0.2645  0.1099 -0.3179
18121SOL    HW155784   4.474   3.949   8.627 -1.2879  1.0191 -0.3806
18121SOL    HW255785   4.426   3.901   8.492 -0.5874  0.5750 -0.4771
18122SOL     OW55786   1.276   8.818   3.328 -0.3995 -0.1792 -0.5514
18122SOL    HW155787   1.255   8.891   3.386  0.1388 -0.6931  0.3072
18122SOL    HW255788   1.209   8.822   3.260 -0.5732  0.9109 -0.3377
18123SOL     OW55789   8.458   4.629   2.254 -0.6740 -0.1640  0.9409
18123SOL    HW155790   8.495   4.696   2.196 -2.4849  1.6099  1.6984
18123SOL    HW255791   8.403   4.576   2.197 -1.1346  0.5218  0.7327
18124SOL     OW55792   8.318   8.856   5.992 -0.3043 -0.5010  0.0963
18124SOL    HW155793   8.312   8.882   6.084 -1.9035 -0.7760  0.1056
18124SOL    HW255794   8.412   8.852   5.974  0.0919  2.5408  0.8552
18125SOL     OW55795   0.848   0.810   0.068  0.6932 -0.0774 -0.1180
18125SOL    HW155796   0.863   0.832   0.159 -1.3871  0.4573  0.1462
18125SOL    HW255797   0.798   0.883   0.033  1.4740 -0.2470 -1.7246
18126SOL     OW55798   5.165   0.193   1.082 -0.3356  0.3366  0.5485
18126SOL    HW155799   5.256   0.221   1.081 -0.3706  0.4574 -0.2744
18126SOL    HW255800   5.142   0.186   1.175  0.1945  1.3322  0.7702
18127SOL     OW55801   8.068   3.846   8.837 -0.2055  0.5410 -0.0060
18127SOL    HW155802   8.042   3.806   8.754 -1.1540  1.6033 -0.2413
18127SOL    HW255803   8.163   3.835   8.841 -0.3385 -0.9352 -0.4648
18128SOL     OW55804   7.432   3.834   3.837  0.0698  0.4647  0.4095
18128SOL    HW155805   7.485   3.910   3.860  0.4226 -0.2275  2.0288
18128SOL    HW255806   7.477   3.794   3.763 -0.3589  2.0329 -0.7604
18129SOL     OW55807   3.303   6.567   3.686 -0.3372  0.1003 -0.0282
18129SOL    HW155808   3.268   6.486   3.724  2.9618 -0.6775  1.6448
18129SOL    HW255809   3.340   6.540   3.602 -1.1793  0.3766 -0.5054
18130SOL     OW55810   6.327   1.088   1.894 -0.1910 -0.0107  0.0330
18130SOL    HW155811   6.246   1.085   1.945 -0.1238 -0.3241  0.1237
18130SOL    HW255812   6.313   1.025   1.823 -0.4756  0.7783 -0.6237
18131SOL     OW55813   7.773   5.177   6.496  0.3311 -0.3517 -0.1913
18131SOL    HW155814   7.732   5.106   6.446 -1.1360 -0.1500  0.6895
18131SOL    HW255815   7.729   5.256   6.467 -1.4637 -0.3529  2.2490
18132SOL     OW55816   8.575   1.735   7.236 -0.0685 -0.1146  0.3478
18132SOL    HW155817   8.578   1.705   7.327 -0.4788  1.2185  0.8285
18132SOL    HW255818   8.615   1.664   7.186 -2.2580 -2.1109  1.2325
18133SOL     OW55819   6.428   6.208   0.625  0.0861 -0.2448  0.1807
18133SOL    HW155820   6.361   6.144   0.600  0.9087 -1.1686  0.2395
18133SOL    HW255821   6.450   6.185   0.715  0.7626 -0.2259  0.0296
18134SOL     OW55822   6.173   7.909   8.386 -0.5217  0.6794 -0.7142
18134SOL    HW155823   6.221   7.830   8.412  1.9435  2.3238  0.0316
18134SOL    HW255824   6.172   7.906   8.291  0.0286  0.0158 -0.7090
18135SOL     OW55825   2.796   5.262   3.503  0.2918 -0.6549 -0.0774
18135SOL    HW155826   2.730   5.194   3.491  0.5838 -0.8891 -0.3606
18135SOL    HW255827   2.758   5.339   3.460 -0.9723 -0.0224  2.0322
18136SOL     OW55828   3.911   0.052   4.561  0.1320 -0.0328 -0.2787
18136SOL    HW155829   3.956   0.088   4.484 -0.9009  0.0004 -0.8766
18136SOL    HW255830   3.843   0.116   4.582 -1.5784 -1.4592 -1.2075
18137SOL     OW55831   8.043   5.023   7.698 -0.5121  0.8492  0.2964
18137SOL    HW155832   7.997   5.064   7.625 -0.5265 -1.2083 -0.9504
18137SOL    HW255833   8.126   4.993   7.660 -0.0152  0.7664  1.4226
18138SOL     OW55834   0.090   2.691   0.092 -0.0196  0.1822  0.6123
18138SOL    HW155835   0.009   2.661   0.051  1.1407  0.0606 -1.7985
18138SOL    HW255836   0.140   2.611   0.108  0.0044  0.3212  1.2778
18139SOL     OW55837   2.045   1.361   8.489  0.0425  0.3857 -0.1078
18139SOL    HW155838   1.957   1.370   8.525 -0.2596  1.0619 -0.9912
18139SOL    HW255839   2.096   1.430   8.532  0.5732 -1.0172  1.6162
18140SOL     OW55840   3.251   9.194   4.396  0.0411 -0.0137 -0.2831
18140SOL    HW155841   3.220   9.226   4.480 -0.5541 -0.6499 -0.2472
18140SOL    HW255842   3.299   9.113   4.417  2.3974  1.3036 -0.2538
18141SOL     OW55843   4.221   6.122   7.563 -0.6775 -0.5679  0.4221
18141SOL    HW155844   4.202   6.094   7.473 -1.5973  2.9860 -0.6300
18141SOL    HW255845   4.316   6.121   7.569 -0.5726 -0.1372 -0.8798
18142SOL     OW55846   1.527   5.708   8.055 -0.7323 -0.0132 -0.7067
18142SOL    HW155847   1.563   5.791   8.023  0.4035 -0.7087 -1.3217
18142SOL    HW255848   1.557   5.643   7.991  0.2267 -1.2233  0.8934
18143SOL     OW55849   0.877   7.110   6.506  0.0272 -0.1848  0.1173
18143SOL    HW155850   0.858   7.102   6.412  2.2989 -0.6022 -0.3503
18143SOL    HW255851   0.921   7.028   6.529  0.1782  0.2304  1.3770
18144SOL     OW55852   2.860   2.243   3.729  0.2199 -0.9777 -0.1967
18144SOL    HW155853   2.871   2.253   3.635  2.3481  0.4342  0.1267
18144SOL    HW255854   2.943   2.209   3.760 -0.8128 -2.4833  1.0867
18145SOL     OW55855   2.113   7.043   1.348 -0.0118 -0.0854 -0.0745
18145SOL    HW155856   2.020   7.055   1.367 -0.3914 -2.8276  0.1793
18145SOL    HW255857   2.158   7.109   1.401 -1.7874  1.1440 -0.0492
18146SOL     OW55858   3.671   3.688   1.818 -0.6142  0.2769 -0.4101
18146SOL    HW155859   3.714   3.690   1.903 -2.1892  1.6665  0.4097
18146SOL    HW255860   3.588   3.642   1.834 -0.7593  0.2077 -1.2844
18147SOL     OW55861   1.586   7.089   1.401  0.1527  0.3584  0.0241
18147SOL    HW155862   1.569   7.104   1.308 -1.1443 -0.4666  0.1023
18147SOL    HW255863   1.532   7.013   1.424  2.4663 -1.1370  0.8454
18148SOL     OW55864   6.379   3.811   2.538 -0.0561 -0.0512  0.4046
18148SOL    HW155865   6.449   3.870   2.512 -1.4532  2.1880  1.4145
18148SOL    HW255866   6.424   3.736   2.577  1.7874  0.8164  0.0454
18149SOL     OW55867   3.593   5.607   2.294 -0.4426  0.3286  0.3616
18149SOL    HW155868   3.671   5.614   2.348 -0.8874 -1.0513  1.2341
18149SOL    HW255869   3.529   5.663   2.337 -0.6451 -0.3879  1.0157
18150SOL     OW55870   9.081   2.543   7.612 -0.0742 -0.0271 -0.1616
18150SOL    HW155871   8.996   2.523   7.651 -0.2156 -0.9526 -0.8962
18150SOL    HW255872   9.061   2.567   7.522  0.4672 -0.8052 -0.5084
18151SOL     OW55873   2.075   1.495   3.126  0.3639  0.1072 -0.5905
18151SOL    HW155874   2.043   1.450   3.204  0.2406 -0.6793 -1.0876
18151SOL    HW255875   2.161   1.529   3.152 -0.4494  1.4813  0.4741
18152SOL     OW55876   8.919   1.508   6.960 -0.9761 -0.1116  0.0880
18152SOL    HW155877   8.921   1.477   6.869 -1.5825  0.6486 -0.1964
18152SOL    HW255878   8.827   1.526   6.977 -1.2086 -2.3184  1.6107
18153SOL     OW55879   6.992   3.997   2.222  0.1127 -0.6930 -0.1805
18153SOL    HW155880   7.062   3.992   2.158 -0.4622  2.3793 -1.2149
18153SOL    HW255881   6.919   4.038   2.175 -1.1427 -0.4868  1.8084
18154SOL     OW55882   8.080   7.918   1.840 -0.2365  0.3223  0.4308
18154SOL    HW155883   7.994   7.920   1.882  0.3316 -0.0104  1.6412
18154SOL    HW255884   8.060   7.922   1.746 -1.7272 -2.2267  0.5354
18155SOL     OW55885   1.452   8.637   2.761  0.1438  0.1152 -0.0771
18155SOL    HW155886   1.520   8.695   2.726 -1.1204  2.7661  1.6286
18155SOL    HW255887   1.491   8.600   2.840  0.9129 -1.3887 -1.1118
18156SOL     OW55888   5.539   5.425   1.108  0.0881  0.1483  0.5757
18156SOL    HW155889   5.541   5.435   1.012  1.6197 -2.2391  0.2835
18156SOL    HW255890   5.630   5.435   1.135 -0.3165  0.6848  1.7916
18157SOL     OW55891   7.167   0.368   4.947 -0.1907  0.0443 -0.1231
18157SOL    HW155892   7.072   0.367   4.960 -0.1591  0.5426  0.1837
18157SOL    HW255893   7.185   0.452   4.905  0.4654  1.4460  2.7583
18158SOL     OW55894   6.187   1.235   1.154 -0.0745  0.8153  0.2797
18158SOL    HW155895   6.134   1.313   1.172  0.5113  1.8499 -2.1810
18158SOL    HW255896   6.222   1.249   1.066  2.5392 -0.8321  0.9448
18159SOL     OW55897   5.270   5.414   1.584  0.3552  0.2616  0.2790
18159SOL    HW155898   5.276   5.405   1.489 -0.5294 -2.7634  0.4066
18159SOL    HW255899   5.293   5.327   1.618  0.1942  1.1285  2.8219
18160SOL     OW55900   6.753   6.571   0.177 -0.4572 -0.4062 -0.0168
18160SOL    HW155901   6.680   6.543   0.234  0.3584 -1.5585  0.4879
18160SOL    HW255902   6.766   6.663   0.200 -1.1544 -0.4380  0.5524
18161SOL     OW55903   4.930   8.528   3.071  0.2426  0.2264  0.0700
18161SOL    HW155904   4.876   8.607   3.077 -0.4956 -0.3069  0.6286
18161SOL    HW255905   4.944   8.501   3.162  0.3724 -0.3531 -0.1163
18162SOL     OW55906   6.928   0.372   6.732  0.1604  1.0005 -0.0186
18162SOL    HW155907   6.899   0.326   6.811 -0.1203 -0.8257 -1.1264
18162SOL    HW255908   7.022   0.355   6.728  0.0946  0.6967 -0.3101
18163SOL     OW55909   1.426   8.808   8.587  0.0990 -0.0147 -0.8438
18163SOL    HW155910   1.460   8.724   8.618  2.6630  1.3985  0.5030
18163SOL    HW255911   1.332   8.794   8.577  0.3751 -2.8749 -0.2204
18164SOL     OW55912   3.357   1.384   2.533  0.6357  0.5322  0.1453
18164SOL    HW155913   3.309   1.316   2.579 -0.7566  1.6189  0.3746
18164SOL    HW255914   3.348   1.361   2.440  1.0343 -0.1228  0.2625
18165SOL     OW55915   1.381   0.520   5.641 -0.3468  0.0598  0.2853
18165SOL    HW155916   1.467   0.480   5.653 -0.0729  0.5495 -0.0073
18165SOL    HW255917   1.393   0.580   5.568 -1.3469 -1.0407 -0.8152
18166SOL     OW55918   3.740   7.569   1.584  0.6555  0.0642  0.0931
18166SOL    HW155919   3.784   7.557   1.668  0.1807  0.7454  0.4528
18166SOL    HW255920   3.788   7.513   1.523  1.2552 -0.1274  0.7296
18167SOL     OW55921   1.612   5.338   7.228 -0.0629  0.1864 -0.1571
18167SOL    HW155922   1.700   5.373   7.243  0.7335 -0.9024 -2.0151
18167SOL    HW255923   1.569   5.344   7.314  2.3605 -0.7329  1.2197
18168SOL     OW55924   4.478   6.689   8.384  0.6014  0.0498  0.2282
18168SOL    HW155925   4.555   6.678   8.440  0.8753 -1.9642 -0.4617
18168SOL    HW255926   4.503   6.651   8.300 -0.6544  0.7368 -0.4990
18169SOL     OW55927   7.168   7.238   1.259 -0.5897  0.5347 -0.2495
18169SOL    HW155928   7.147   7.257   1.168 -3.1265  1.6576  0.4861
18169SOL    HW255929   7.216   7.315   1.289 -2.5053  1.6515  0.1366
18170SOL     OW55930   2.277   8.400   1.999 -0.2134 -0.4095 -0.1959
18170SOL    HW155931   2.289   8.481   1.949  0.5140 -0.3340  0.0820
18170SOL    HW255932   2.350   8.344   1.971  0.4256 -0.2324  1.0193
18171SOL     OW55933   5.624   9.022   1.317  0.1049 -0.0896 -0.0676
18171SOL    HW155934   5.577   9.068   1.248 -1.2820  0.3788  1.1477
18171SOL    HW255935   5.639   9.088   1.385  1.0834 -0.6327  0.2657
18172SOL     OW55936   3.240   7.261   2.916  0.4309 -0.1126  0.7748
18172SOL    HW155937   3.331   7.268   2.946  0.6670  0.0836  0.0357
18172SOL    HW255938   3.238   7.314   2.836 -0.1491 -0.7248  0.3802
18173SOL     OW55939   8.437   6.427   2.942 -0.4788 -0.0330  0.5456
18173SOL    HW155940   8.458   6.363   2.874 -0.8999 -0.6429  0.9685
18173SOL    HW255941   8.383   6.492   2.899 -0.2170 -0.0712  0.1554
18174SOL     OW55942   0.275   6.320   5.693  0.1752  1.0550 -0.5869
18174SOL    HW155943   0.217   6.359   5.757 -0.1050  1.2743 -0.9703
18174SOL    HW255944   0.219   6.304   5.617  0.4100  0.4202 -0.6321
18175SOL     OW55945   6.407   6.284   1.155  0.6294 -0.1595  0.7086
18175SOL    HW155946   6.373   6.360   1.201 -0.0150 -0.2587  0.4098
18175SOL    HW255947   6.345   6.214   1.177  0.4012 -0.2452 -0.1739
18176SOL     OW55948   0.796   9.127   3.953 -0.3898  0.0656  0.5041
18176SOL    HW155949   0.791   9.089   4.040 -0.6226  0.1297  0.5202
18176SOL    HW255950   0.726   9.193   3.951 -0.9719 -0.5530 -0.0358
18177SOL     OW55951   7.345   1.087   6.614  0.1389 -0.2399  0.2102
18177SOL    HW155952   7.310   1.043   6.536  2.2789 -0.1214 -0.8971
18177SOL    HW255953   7.357   1.178   6.587  1.1615 -0.2594  0.5589
18178SOL     OW55954   7.608   5.764   7.940  0.1328  0.1688  0.8108
18178SOL    HW155955   7.630   5.722   8.024 -2.4436 -0.2712  1.3443
18178SOL    HW255956   7.560   5.843   7.965  0.9546  1.0366 -0.2602
18179SOL     OW55957   0.994   2.434   4.920  0.3295  0.2423  0.0543
18179SOL    HW155958   1.068   2.402   4.868  0.3210 -0.9316  0.7323
18179SOL    HW255959   0.973   2.361   4.978 -0.6049  1.0022  0.6852
18180SOL     OW55960   6.608   5.408   2.987 -0.4565 -0.5695  0.3480
18180SOL    HW155961   6.610   5.418   2.892 -1.2016  1.1843  0.4892
18180SOL    HW255962   6.574   5.319   3.000  0.4648 -1.1622 -1.0019
18181SOL     OW55963   7.478   8.185   8.422  0.2363 -0.8494 -0.4621
18181SOL    HW155964   7.551   8.191   8.361  0.5578 -0.6423 -0.0661
18181SOL    HW255965   7.518   8.202   8.508 -0.5681  1.0817 -0.4276
18182SOL     OW55966   8.588   8.905   4.057  0.3552 -0.2235 -0.3435
18182SOL    HW155967   8.662   8.966   4.069 -0.3513  0.4227  0.9801
18182SOL    HW255968   8.514   8.961   4.035 -0.4415 -0.5039  1.4643
18183SOL     OW55969   2.506   6.699   3.787  0.0512 -0.3735 -0.4197
18183SOL    HW155970   2.543   6.614   3.766  0.1161 -0.6466  0.7371
18183SOL    HW255971   2.419   6.679   3.822 -0.1000  0.0725 -0.5298
18184SOL     OW55972   6.423   5.788   0.345 -0.4882 -0.3771 -0.5189
18184SOL    HW155973   6.380   5.843   0.279  2.1638  2.4495 -0.1027
18184SOL    HW255974   6.362   5.790   0.420 -2.2380 -1.3375 -1.8489
18185SOL     OW55975   6.180   6.090   1.185 -0.4676  0.0557  0.1088
18185SOL    HW155976   6.147   6.048   1.105 -1.6856 -0.2957  0.7603
18185SOL    HW255977   6.213   6.017   1.238  3.3186  0.5489 -1.2975
18186SOL     OW55978   4.556   1.299   7.716  0.3852  0.1389  0.3810
18186SOL    HW155979   4.499   1.269   7.787 -1.7596 -0.0037 -1.2962
18186SOL    HW255980   4.563   1.394   7.729 -1.5225  0.3891 -0.2199
18187SOL     OW55981   7.127   9.179   1.038  0.1300  0.6231 -0.3581
18187SOL    HW155982   7.153   9.203   1.127  0.1541  1.9042 -0.6842
18187SOL    HW255983   7.204   9.200   0.985  0.3020 -0.6191 -0.6325
18188SOL     OW55984   6.663   7.549   7.167  0.4019 -0.0056  0.3615
18188SOL    HW155985   6.589   7.528   7.225  0.4467  1.2863  0.9226
18188SOL    HW255986   6.717   7.608   7.219  1.0091  0.3169 -0.6255
18189SOL     OW55987   0.944   2.278   4.655 -0.1942 -0.4170 -0.3370
18189SOL    HW155988   1.026   2.315   4.689 -0.8411  1.1053 -0.3529
18189SOL    HW255989   0.965   2.252   4.565  0.4409 -0.6799 -0.1243
18190SOL     OW55990   2.614   2.504   5.418 -0.5725  0.2959  0.2467
18190SOL    HW155991   2.642   2.448   5.345 -0.5102  0.3518  0.2270
18190SOL    HW255992   2.695   2.519   5.468 -0.9130 -1.2019  1.3381
18191SOL     OW55993   6.870   1.084   3.881  0.2375 -0.3680 -0.7383
18191SOL    HW155994   6.782   1.081   3.844  0.4911  1.0110 -1.5196
18191SOL    HW255995   6.907   1.166   3.848  1.2527 -0.1431  0.8621
18192SOL     OW55996   2.743   4.896   7.584  0.5174  0.3378  0.2072
18192SOL    HW155997   2.828   4.919   7.547  0.4457  1.6798  0.8243
18192SOL    HW255998   2.722   4.968   7.643 -1.5781  0.6018 -0.7683
18193SOL     OW55999   0.758   5.491   6.369 -0.1763 -0.3056  0.5304
18193SOL    HW156000   0.779   5.571   6.417  2.2414 -0.6417  0.1577
18193SOL    HW256001   0.824   5.428   6.399 -1.0882 -1.6888 -0.3234
18194SOL     OW56002   3.535   7.344   5.365 -0.7168 -0.5778  0.2216
18194SOL    HW156003   3.482   7.312   5.438  0.4535 -1.6387  0.6467
18194SOL    HW256004   3.608   7.282   5.359  1.7813  2.0264  1.1550
18195SOL     OW56005   2.557   0.910   0.974 -0.3056  0.1677  0.6108
18195SOL    HW156006   2.559   0.923   1.068 -0.9641  0.1357  0.6336
18195SOL    HW256007   2.555   0.815   0.962 -1.4804  0.1862  0.6018
18196SOL     OW56008   3.102   8.764   8.691 -0.4349  0.3518 -0.2567
18196SOL    HW156009   3.063   8.791   8.775 -0.7156  1.8583 -0.8332
18196SOL    HW256010   3.038   8.703   8.654 -1.1149  0.9431 -0.0954
18197SOL     OW56011   1.521   5.879   1.046 -0.0579  0.2402  0.2321
18197SOL    HW156012   1.514   5.936   1.123  0.6491 -2.2852  2.3238
18197SOL    HW256013   1.548   5.938   0.975 -0.2991  2.6297  1.9952
18198SOL     OW56014   0.875   2.115   3.097  0.4081  0.1509 -0.2472
18198SOL    HW156015   0.955   2.147   3.139  1.7330 -2.8306 -0.2894
18198SOL    HW256016   0.865   2.170   3.019  1.6330  1.4315  0.4637
18199SOL     OW56017   3.307   5.086   2.588  0.4894  0.4865  0.0896
18199SOL    HW156018   3.294   5.166   2.538 -1.7714  0.3871  0.4507
18199SOL    HW256019   3.323   5.019   2.521 -0.7757  0.6798 -0.4366
18200SOL     OW56020   9.146   0.028   7.373 -0.2519  0.0097  0.1534
18200SOL    HW156021   9.146   0.086   7.449  1.0164  2.0447 -1.2677
18200SOL    HW256022   9.180  -0.055   7.406 -1.3665  0.2708  2.1126
18201SOL     OW56023   6.949   0.698   1.288  0.0972 -0.0435 -0.4142
18201SOL    HW156024   6.936   0.632   1.356  1.5312  0.9023  0.8373
18201SOL    HW256025   6.861   0.727   1.265 -0.4119  0.2031  1.6358
18202SOL     OW56026   6.660   9.247   7.927 -0.1547 -0.0361 -0.1333
18202SOL    HW156027   6.685   9.230   8.018  0.9786 -1.4959 -0.6702
18202SOL    HW256028   6.742   9.237   7.878 -0.9844 -0.6223 -1.4639
18203SOL     OW56029   2.217   2.772   7.728  0.1509  0.4204  0.3091
18203SOL    HW156030   2.295   2.797   7.679 -0.1782 -0.0670 -0.4820
18203SOL    HW256031   2.149   2.760   7.661 -0.2815 -0.3528  0.8721
18204SOL     OW56032   0.923   1.698   2.575  0.1948 -0.0557  0.5243
18204SOL    HW156033   0.904   1.777   2.524  1.4307 -0.3468 -0.4503
18204SOL    HW256034   0.838   1.660   2.595 -0.3449  0.3485 -0.9260
18205SOL     OW56035   8.674   1.630   2.814 -0.1420  0.4924 -0.2176
18205SOL    HW156036   8.763   1.666   2.823 -0.8103  2.3186 -0.4150
18205SOL    HW256037   8.628   1.661   2.892 -0.0333 -2.4891  1.1684
18206SOL     OW56038   3.964   1.874   7.201 -0.1784  0.0637  0.5286
18206SOL    HW156039   3.895   1.813   7.173  0.8113 -0.6412 -0.4422
18206SOL    HW256040   3.959   1.945   7.136  0.3355 -0.2376  0.1568
18207SOL     OW56041   7.306   8.176   5.464 -0.2358 -0.3749 -0.4781
18207SOL    HW156042   7.377   8.211   5.411  0.5078 -0.8542  0.1827
18207SOL    HW256043   7.227   8.218   5.429  0.4052  0.4207 -1.0046
18208SOL     OW56044   5.979   0.239   5.450  0.4748 -0.2350  0.3535
18208SOL    HW156045   5.906   0.299   5.434  0.3287 -0.5862 -0.3652
18208SOL    HW256046   5.937   0.160   5.485  0.1700 -1.3683 -2.3399
18209SOL     OW56047   1.634   3.008   3.608 -0.4055  0.3642 -0.2284
18209SOL    HW156048   1.592   3.056   3.680 -1.1727 -0.1757 -0.3153
18209SOL    HW256049   1.619   2.916   3.628  1.2254  0.1107  0.0315
18210SOL     OW56050   6.378   5.803   4.482 -0.1146  0.1441  0.1248
18210SOL    HW156051   6.296   5.810   4.434 -0.5611 -1.6095  0.5473
18210SOL    HW256052   6.354   5.761   4.565  1.1424 -0.0608  0.4114
18211SOL     OW56053   6.473   7.110   2.371  0.1397 -0.0735 -0.0984
18211SOL    HW156054   6.567   7.096   2.369  0.3747  1.4322 -1.9740
18211SOL    HW256055   6.445   7.102   2.280 -1.4900 -0.0287  0.3594
18212SOL     OW56056   6.086   7.157   2.433  0.0182  0.2499 -0.0759
18212SOL    HW156057   6.131   7.201   2.361 -0.6164 -0.1717 -0.7367
18212SOL    HW256058   6.015   7.216   2.457  0.5715  0.6575  0.5998
18213SOL     OW56059   0.933   5.461   6.077  0.4658 -0.0980 -0.0861
18213SOL    HW156060   0.997   5.527   6.101 -1.2407  1.8696 -0.6155
18213SOL    HW256061   0.900   5.427   6.160  1.4760 -0.4357  0.1894
18214SOL     OW56062   2.645   0.839   6.197 -0.4745 -0.0545 -0.0713
18214SOL    HW156063   2.658   0.932   6.175 -0.1526 -0.3993 -1.4145
18214SOL    HW256064   2.550   0.826   6.190 -0.3637 -0.2261 -1.6960
18215SOL     OW56065   2.157   6.539   9.046  0.0539 -0.0600 -0.5973
18215SOL    HW156066   2.140   6.584   8.963  1.5707  0.1796 -0.7997
18215SOL    HW256067   2.216   6.467   9.022 -1.3927 -1.4627 -0.0875
18216SOL     OW56068   7.465   4.111   3.677  0.4802 -0.0730  0.7876
18216SOL    HW156069   7.444   4.180   3.740  0.7492  0.4564  0.3197
18216SOL    HW256070   7.382   4.066   3.661  0.8035 -1.6428  3.1359
18217SOL     OW56071   1.666   1.477   6.931  0.0209 -0.7411  0.0415
18217SOL    HW156072   1.671   1.455   6.838  2.4875 -2.3698  0.4818
18217SOL    HW256073   1.754   1.460   6.965 -0.3777  1.2934  2.3948
18218SOL     OW56074   1.369   8.758   8.210  0.1803 -0.2474  0.0505
18218SOL    HW156075   1.412   8.774   8.125 -0.2544 -0.0211 -0.1245
18218SOL    HW256076   1.308   8.686   8.192 -2.0844  1.7252 -0.5621
18219SOL     OW56077   4.422   3.930   2.218 -0.1363  0.3473  0.1627
18219SOL    HW156078   4.344   3.887   2.184  0.0507 -0.1997  0.4066
18219SOL    HW256079   4.390   4.010   2.259 -0.5575  0.1620  0.1960
18220SOL     OW56080   4.152   9.019   1.903 -0.0533 -0.0740 -0.7892
18220SOL    HW156081   4.194   8.942   1.864 -1.7409 -1.7181  0.4717
18220SOL    HW256082   4.186   9.022   1.992  0.5727  1.1396 -1.0496
18221SOL     OW56083   1.178   4.458   1.091  0.3222 -0.3141  0.4239
18221SOL    HW156084   1.096   4.506   1.094  0.8806  0.6379  1.2127
18221SOL    HW256085   1.224   4.494   1.015  0.5555  0.1006  0.7569
18222SOL     OW56086   5.417   9.137   7.671 -0.1697  0.9495  0.2615
18222SOL    HW156087   5.465   9.164   7.749 -1.5231  2.2928  0.6811
18222SOL    HW256088   5.325   9.152   7.693 -0.5610  2.0899 -1.8527
18223SOL     OW56089   2.491   0.689   7.926 -0.1280  0.0601  0.8533
18223SOL    HW156090   2.535   0.767   7.891 -1.2197 -0.0101 -0.8187
18223SOL    HW256091   2.412   0.681   7.872 -1.1532 -0.9585  2.4393
18224SOL     OW56092   4.190   5.900   8.465 -0.2065  0.4393 -0.3056
18224SOL    HW156093   4.199   5.913   8.560 -0.7724 -0.5462 -0.1077
18224SOL    HW256094   4.279   5.894   8.433 -0.0191 -0.2554  0.3183
18225SOL     OW56095   5.712   7.008   5.407  0.2411 -0.1170 -0.0552
18225SOL    HW156096   5.693   7.102   5.408  1.4032  0.1303 -0.0136
18225SOL    HW256097   5.632   6.967   5.440 -0.1588  0.8780  0.2487
18226SOL     OW56098   8.298   0.648   6.564  0.4040  0.2952  0.0813
18226SOL    HW156099   8.314   0.590   6.637 -0.4480 -0.9163 -0.6563
18226SOL    HW256100   8.202   0.649   6.555  0.4160  1.6026 -0.0936
18227SOL     OW56101   1.944   6.615   8.187  0.1858 -0.2878 -0.2813
18227SOL    HW156102   2.008   6.648   8.249  0.9019 -2.2512  0.0752
18227SOL    HW256103   1.960   6.665   8.107  1.7276 -0.3121 -0.0038
18228SOL     OW56104   0.664   8.260   6.818 -0.2620  0.5053  0.4539
18228SOL    HW156105   0.738   8.210   6.853 -1.5825 -1.9597 -0.0541
18228SOL    HW256106   0.621   8.297   6.895  0.9935  1.3145  0.8031
18229SOL     OW56107   2.838   6.198   6.861  0.3057  0.3620  0.4802
18229SOL    HW156108   2.900   6.234   6.924 -1.7823  3.0639  1.1991
18229SOL    HW256109   2.886   6.196   6.778  1.2086  3.1866  0.8051
18230SOL     OW56110   3.725   2.197   6.247 -0.2962  0.5060  0.5954
18230SOL    HW156111   3.769   2.188   6.331  0.0233 -0.0959  0.3758
18230SOL    HW256112   3.742   2.287   6.219  1.0464  0.2113  0.3898
18231SOL     OW56113   3.220   2.289   0.332  0.5604 -0.1542 -0.6173
18231SOL    HW156114   3.208   2.295   0.238  1.6676 -0.6612 -0.8113
18231SOL    HW256115   3.212   2.379   0.364  1.7197  0.2432 -1.4054
18232SOL     OW56116   1.840   3.217   4.425  0.0986  0.3106  0.1095
18232SOL    HW156117   1.830   3.311   4.409  0.7287  0.9476  2.8636
18232SOL    HW256118   1.928   3.209   4.464 -0.5042 -1.1708  1.2799
18233SOL     OW56119   3.444   0.229   1.519 -0.1791 -0.5224  0.7598
18233SOL    HW156120   3.371   0.290   1.502 -1.3013 -1.6508  1.3700
18233SOL    HW256121   3.510   0.283   1.563  0.6747  1.2439 -2.3612
18234SOL     OW56122   8.490   7.631   6.784 -0.2140 -0.2917 -0.0894
18234SOL    HW156123   8.467   7.634   6.877  0.4441 -0.4164  0.0807
18234SOL    HW256124   8.569   7.577   6.781 -0.4319 -0.5798 -0.7629
18235SOL     OW56125   2.821   4.427   3.624  0.3006 -0.0249 -0.0500
18235SOL    HW156126   2.787   4.357   3.678 -2.0673 -1.2987 -2.8618
18235SOL    HW256127   2.898   4.390   3.581  0.0033 -0.3511 -0.3089
18236SOL     OW56128   8.742   7.122   6.743  0.6857 -0.1842  0.1822
18236SOL    HW156129   8.726   7.099   6.834 -1.2011 -1.9845 -0.5247
18236SOL    HW256130   8.771   7.040   6.702 -0.6251  0.0281 -1.2649
18237SOL     OW56131   7.776   1.147   1.610  0.5864 -0.1836 -0.2859
18237SOL    HW156132   7.733   1.061   1.611  1.7954 -0.8990 -2.7729
18237SOL    HW256133   7.870   1.127   1.617  0.8701  0.9554 -0.6712
18238SOL     OW56134   5.148   9.038   4.306  0.5076 -0.2911  0.3367
18238SOL    HW156135   5.100   9.102   4.253  2.0731 -1.3710 -2.6578
18238SOL    HW256136   5.083   8.970   4.325 -0.2017  0.2962  0.0846
18239SOL     OW56137   5.352   5.800   7.082  0.3869  0.0579 -0.6449
18239SOL    HW156138   5.304   5.723   7.052  0.5022 -0.5026  0.5720
18239SOL    HW256139   5.444   5.775   7.075  0.4115 -0.7077  1.6627
18240SOL     OW56140   5.609   7.054   4.757 -0.2673  0.4329 -0.0590
18240SOL    HW156141   5.598   7.076   4.664  0.2273 -0.0465 -0.2347
18240SOL    HW256142   5.696   7.014   4.762 -0.6218 -0.2799  0.4745
18241SOL     OW56143   2.366   2.163   7.334 -0.1054 -0.0890  0.1622
18241SOL    HW156144   2.297   2.168   7.401  0.2414  1.4586  0.4555
18241SOL    HW256145   2.321   2.136   7.255 -0.7013 -0.9991  0.8015
18242SOL     OW56146   7.187   6.323   7.029  0.1616  0.5869 -0.3192
18242SOL    HW156147   7.273   6.330   7.071 -0.3545  0.4745  0.8025
18242SOL    HW256148   7.156   6.413   7.023  0.8125  0.7383 -1.7559
18243SOL     OW56149   9.146   1.244   3.398 -0.0471  0.0601 -0.1113
18243SOL    HW156150   9.129   1.153   3.372  0.7496 -1.1037  2.9967
18243SOL    HW256151   9.063   1.274   3.435  0.1054  0.0536  0.2405
18244SOL     OW56152   4.140   1.534   5.009 -0.4100  0.3086  0.2558
18244SOL    HW156153   4.051   1.560   5.032 -0.0271  1.7178  0.2263
18244SOL    HW256154   4.196   1.595   5.057  0.5127  0.1041 -0.5354
18245SOL     OW56155   0.296   4.077   5.126  0.4613  0.2903 -0.5570
18245SOL    HW156156   0.349   3.999   5.108  0.5297  0.3465 -0.6020
18245SOL    HW256157   0.327   4.141   5.062  0.5500  0.4219 -0.3812
18246SOL     OW56158   1.773   6.534   5.974  0.6331  0.2472  0.4853
18246SOL    HW156159   1.776   6.488   6.058 -0.0678 -0.3954  0.1606
18246SOL    HW256160   1.754   6.467   5.910  0.5970  0.8323 -0.1289
18247SOL     OW56161   4.588   7.640   4.555 -0.1342 -0.1612 -0.2076
18247SOL    HW156162   4.587   7.548   4.581  0.6473 -0.2932 -0.6423
18247SOL    HW256163   4.557   7.687   4.633  0.8780 -0.6745  0.5250
18248SOL     OW56164   2.907   2.468   0.130  0.6470  0.0607 -0.2900
18248SOL    HW156165   2.999   2.441   0.129  1.0306  1.1544 -2.5001
18248SOL    HW256166   2.861   2.394   0.170  2.3816 -0.8575  0.1408
18249SOL     OW56167   5.597   9.030   4.195 -0.1197  0.4995 -0.0421
18249SOL    HW156168   5.616   8.952   4.246  0.1512  1.1157  0.8298
18249SOL    HW256169   5.667   9.091   4.218 -0.5390  1.1318 -0.4162
18250SOL     OW56170   7.920   1.740   8.427  0.2839  0.1753 -0.4673
18250SOL    HW156171   7.926   1.658   8.475  0.7019  0.1606 -0.5425
18250SOL    HW256172   7.954   1.806   8.487  3.1289 -0.1689 -1.5500
18251SOL     OW56173   8.908   4.400   6.307 -0.2033 -0.3398  0.1079
18251SOL    HW156174   8.997   4.429   6.288  1.1216 -2.1129  3.0220
18251SOL    HW256175   8.877   4.458   6.377 -0.9784 -0.3700 -0.1945
18252SOL     OW56176   0.748   6.496   5.050  0.4640 -0.1770  0.1233
18252SOL    HW156177   0.720   6.507   5.140  1.3172 -0.8442  0.4926
18252SOL    HW256178   0.824   6.553   5.041  0.2792  0.0192 -0.2274
18253SOL     OW56179   3.245   7.617   1.137  0.2639 -0.8153  0.3487
18253SOL    HW156180   3.305   7.591   1.067  0.0652  1.3346 -0.7321
18253SOL    HW256181   3.259   7.553   1.207  1.6962 -2.0493 -0.9992
18254SOL     OW56182   1.435   7.247   0.268  0.6268  0.4581 -0.2718
18254SOL    HW156183   1.464   7.285   0.185  0.4726  0.6348 -0.2458
18254SOL    HW256184   1.373   7.179   0.242  1.6342 -0.4486 -0.3630
18255SOL     OW56185   1.390   7.792   3.804 -0.6830  0.0403 -0.2848
18255SOL    HW156186   1.449   7.774   3.876  1.1153 -1.6383 -2.0484
18255SOL    HW256187   1.447   7.822   3.733 -2.1503 -0.0481 -1.5543
18256SOL     OW56188   4.218   3.169   9.102  0.4482  0.0383 -0.0563
18256SOL    HW156189   4.290   3.107   9.090  1.1451  0.7998  0.0237
18256SOL    HW256190   4.154   3.145   9.035  0.6552 -0.8299  0.0542
18257SOL     OW56191   6.082   3.593   9.131  0.3476 -0.5347  0.2296
18257SOL    HW156192   6.045   3.628   9.050  1.9687  0.7066 -0.0234
18257SOL    HW256193   6.142   3.525   9.102 -0.3509 -1.2855  0.5192
18258SOL     OW56194   2.467   3.153   0.677  0.7045 -0.1814  0.8091
18258SOL    HW156195   2.376   3.129   0.657  0.8249 -0.4678  0.5967
18258SOL    HW256196   2.460   3.230   0.734  0.3442  0.8737 -0.6101
18259SOL     OW56197   2.299   2.723   8.695 -0.2906 -0.3432 -0.3937
18259SOL    HW156198   2.356   2.646   8.691 -1.0394 -0.9433  0.1543
18259SOL    HW256199   2.271   2.737   8.604 -0.4268 -0.9452 -0.4523
18260SOL     OW56200   2.177   7.587   1.889 -0.4709  0.0465 -0.4354
18260SOL    HW156201   2.240   7.583   1.817 -0.9254 -0.6623 -0.8001
18260SOL    HW256202   2.215   7.650   1.950  0.2329  0.1768 -0.9934
18261SOL     OW56203   4.921   4.863   6.156  0.0399 -0.0894 -0.0777
18261SOL    HW156204   5.010   4.851   6.121  0.3351 -0.3661  0.7374
18261SOL    HW256205   4.868   4.885   6.080  0.7686 -0.1430 -0.6124
18262SOL     OW56206   3.952   7.911   0.224 -0.1380  0.2498 -0.3145
18262SOL    HW156207   4.042   7.939   0.241  0.0892 -0.5943 -0.1177
18262SOL    HW256208   3.899   7.965   0.282  0.3393 -0.0655  0.4319
18263SOL     OW56209   4.655   2.339   2.885  0.2574  0.2177  0.3180
18263SOL    HW156210   4.689   2.340   2.975  1.3369  0.1645 -0.0723
18263SOL    HW256211   4.699   2.411   2.842  1.2400 -0.9284 -0.6754
18264SOL     OW56212   1.906   0.847   4.349 -0.3496  0.0187 -0.2756
18264SOL    HW156213   1.923   0.789   4.424 -1.0291  1.3093  0.9342
18264SOL    HW256214   1.828   0.811   4.308 -0.4986 -0.1986  0.1880
18265SOL     OW56215   0.746   7.573   5.291 -0.1821  0.2018 -0.6436
18265SOL    HW156216   0.840   7.578   5.308  0.4066 -2.1380 -2.6987
18265SOL    HW256217   0.710   7.652   5.333  2.5286  0.7007  0.9747
18266SOL     OW56218   2.858   2.583   3.579  0.4585 -0.2402  0.1944
18266SOL    HW156219   2.947   2.580   3.544  0.5606  0.3153  0.4006
18266SOL    HW256220   2.864   2.638   3.657 -0.3278  0.9518 -0.5603
18267SOL     OW56221   1.242   5.014   7.086 -0.0532  0.0707 -0.2436
18267SOL    HW156222   1.306   5.028   7.016 -0.0649  0.5501 -0.1589
18267SOL    HW256223   1.220   5.102   7.117 -0.2345 -0.1259  0.1939
18268SOL     OW56224   6.433   8.051   4.666  0.0931  0.1097 -0.2925
18268SOL    HW156225   6.398   8.128   4.622 -0.7891 -0.6113 -0.8766
18268SOL    HW256226   6.377   8.039   4.742  0.3219  0.1287 -0.1197
18269SOL     OW56227   3.692   3.002   0.420 -0.5045 -0.7463 -0.3255
18269SOL    HW156228   3.670   3.093   0.404  0.6293 -0.3203  0.4509
18269SOL    HW256229   3.626   2.972   0.484 -0.2979 -0.1879  0.1543
18270SOL     OW56230   7.362   4.384   1.804  0.4765 -0.5184  0.4222
18270SOL    HW156231   7.403   4.403   1.720 -0.9822  1.3075  0.0614
18270SOL    HW256232   7.393   4.452   1.863 -1.2117  0.3373  0.3888
18271SOL     OW56233   0.728   6.969   5.356  0.0460  0.3163 -0.2057
18271SOL    HW156234   0.763   6.924   5.279  1.8667  1.7735 -0.3073
18271SOL    HW256235   0.749   7.061   5.342 -0.4827  0.7595  1.5837
18272SOL     OW56236   1.240   6.073   7.003 -0.2529  0.1885 -0.0239
18272SOL    HW156237   1.288   6.155   6.999 -1.3552  0.9972  1.8091
18272SOL    HW256238   1.294   6.015   7.057 -0.2649  0.2988  0.1056
18273SOL     OW56239   7.826   8.509   9.001 -0.0834  0.1813  0.7696
18273SOL    HW156240   7.832   8.600   8.972  1.4929  0.1713  0.9701
18273SOL    HW256241   7.917   8.480   9.005 -0.5903 -1.5713  0.2049
18274SOL     OW56242   4.808   6.011   7.860 -0.2559  0.3537  0.2338
18274SOL    HW156243   4.749   5.958   7.913 -0.4669  0.9833  0.6479
18274SOL    HW256244   4.887   5.958   7.850 -0.9627 -0.5992 -0.5103
18275SOL     OW56245   0.527   3.292   2.393  0.2792 -0.0890 -0.2339
18275SOL    HW156246   0.561   3.303   2.304  0.5023  0.0277 -0.1348
18275SOL    HW256247   0.480   3.208   2.390 -0.6430  0.4240 -0.7508
18276SOL     OW56248   1.512   8.679   0.110 -0.4061  0.4727 -0.3414
18276SOL    HW156249   1.545   8.651   0.195  2.0007  0.2511 -1.2526
18276SOL    HW256250   1.578   8.648   0.047 -2.2611  0.3076 -2.3441
18277SOL     OW56251   2.581   1.923   2.702 -0.3138 -0.2290  0.0328
18277SOL    HW156252   2.640   1.868   2.651  1.1116 -0.3712  1.7634
18277SOL    HW256253   2.569   1.876   2.784  0.1087  1.5357  1.1484
18278SOL     OW56254   4.406   1.501   1.480  0.1195  0.0525  0.1129
18278SOL    HW156255   4.388   1.592   1.501  0.0494 -0.0354  0.4336
18278SOL    HW256256   4.323   1.455   1.496 -0.2410  0.1446 -1.3209
18279SOL     OW56257   7.792   3.345   6.194 -0.2551 -0.7140 -0.0113
18279SOL    HW156258   7.705   3.386   6.191 -0.2061 -0.4297  1.5270
18279SOL    HW256259   7.853   3.419   6.194 -0.1426 -0.7506  1.9876
18280SOL     OW56260   3.488   4.933   7.050  0.6972  0.2618  0.1969
18280SOL    HW156261   3.484   4.934   7.146  0.1272 -1.2228  0.2220
18280SOL    HW256262   3.542   5.008   7.027  2.5132 -0.4680  1.7838
18281SOL     OW56263   7.721   1.151   2.689 -0.0345  0.4693  0.0210
18281SOL    HW156264   7.788   1.195   2.637 -0.8448 -0.2057 -1.6659
18281SOL    HW256265   7.658   1.220   2.711 -0.6789  0.4536 -1.5866
18282SOL     OW56266   1.226   6.853   7.002  0.0453  0.7057 -0.8109
18282SOL    HW156267   1.215   6.909   6.925 -0.9037  2.7529  0.7456
18282SOL    HW256268   1.245   6.913   7.074 -0.6252 -1.0052  0.8813
18283SOL     OW56269   2.017   6.116   7.585 -0.8632 -0.2418  0.5860
18283SOL    HW156270   1.934   6.080   7.617 -0.4843 -1.8159 -0.1057
18283SOL    HW256271   2.031   6.072   7.501  1.1033 -0.7006  1.1147
18284SOL     OW56272   7.757   9.071   3.382 -0.1284 -0.0638 -0.3017
18284SOL    HW156273   7.771   9.071   3.477 -0.9551  0.1532 -0.1642
18284SOL    HW256274   7.757   8.978   3.358  0.6544 -0.0943 -0.1828
18285SOL     OW56275   1.450   9.165   3.708  0.4010 -0.3384  0.0979
18285SOL    HW156276   1.489   9.214   3.781  1.2128  0.2071 -0.6766
18285SOL    HW256277   1.452   9.074   3.736 -0.3199 -0.0280  1.2056
18286SOL     OW56278   0.475   4.421   5.339  0.5067  0.3077 -0.3370
18286SOL    HW156279   0.396   4.475   5.346  1.0360  0.9466  1.1505
18286SOL    HW256280   0.488   4.409   5.245  0.2726  2.6375 -0.7159
18287SOL     OW56281   2.092   4.291   9.079  0.4613  0.5597 -0.1836
18287SOL    HW156282   2.127   4.374   9.047  1.4438  0.4581  0.5632
18287SOL    HW256283   2.136   4.278   9.163 -0.6622 -0.0812  0.3264
18288SOL     OW56284   4.949   4.148   4.735 -0.4214 -0.0013  0.0369
18288SOL    HW156285   4.931   4.126   4.643  2.1708  0.6604 -0.7231
18288SOL    HW256286   4.884   4.215   4.756 -0.2589  0.8258 -1.8072
18289SOL     OW56287   0.662   9.124   8.967 -0.0887 -0.4238  0.0364
18289SOL    HW156288   0.754   9.146   8.954  0.5723 -2.1130  1.5446
18289SOL    HW256289   0.622   9.207   8.993  1.6647 -0.2182  2.4134
18290SOL     OW56290   7.236   4.477   0.067 -0.3226 -0.3427  0.4238
18290SOL    HW156291   7.290   4.402   0.094 -2.0347 -1.4974  0.7694
18290SOL    HW256292   7.165   4.439   0.016 -0.0249  1.3115 -1.3205
18291SOL     OW56293   0.726   6.812   4.845 -0.0724  0.1140  0.0917
18291SOL    HW156294   0.734   6.905   4.866 -0.0611 -0.3627  2.5362
18291SOL    HW256295   0.777   6.801   4.765 -0.4175  2.2614 -0.4880
18292SOL     OW56296   0.354   9.057   4.160  0.1393  0.0716  0.1537
18292SOL    HW156297   0.274   9.095   4.194  0.6663  2.0767 -0.7058
18292SOL    HW256298   0.354   9.079   4.066  1.5284 -0.1425  0.0713
18293SOL     OW56299   0.095   2.807   7.271 -0.1351 -0.3453  0.3832
18293SOL    HW156300   0.187   2.809   7.244  0.2285 -0.3800  1.5860
18293SOL    HW256301   0.082   2.889   7.319 -0.6764 -0.4452  0.4142
18294SOL     OW56302   4.441   7.289   2.376 -0.7942  0.0714  0.3235
18294SOL    HW156303   4.502   7.243   2.434  0.2454  0.5586 -0.3587
18294SOL    HW256304   4.464   7.381   2.386 -1.9681  0.3481  0.6581
18295SOL     OW56305   6.459   3.110   1.882  0.5163 -0.6480 -0.5263
18295SOL    HW156306   6.502   3.025   1.895  1.4293  0.1129  1.7593
18295SOL    HW256307   6.520   3.159   1.827  1.2464 -0.5683  0.3368
18296SOL     OW56308   4.761   6.497   1.807 -0.8157 -0.1597 -0.0413
18296SOL    HW156309   4.793   6.432   1.744 -0.9774 -0.8568  0.5749
18296SOL    HW256310   4.823   6.493   1.879 -1.1122  0.0086  0.2263
18297SOL     OW56311   7.074   3.737   3.675  0.3526 -0.2618 -0.2409
18297SOL    HW156312   7.091   3.740   3.769  0.2853  1.2526 -0.2398
18297SOL    HW256313   7.120   3.659   3.644 -0.5749 -1.4288  1.2031
18298SOL     OW56314   4.625   7.424   4.794 -0.1296 -0.3156  0.2487
18298SOL    HW156315   4.532   7.405   4.798 -0.5454  1.3940 -0.2826
18298SOL    HW256316   4.641   7.481   4.870  0.1853  0.4784 -0.3973
18299SOL     OW56317   6.923   3.392   6.196  0.4660  0.2938 -0.9021
18299SOL    HW156318   6.924   3.313   6.250  1.4767 -0.0156 -1.3476
18299SOL    HW256319   6.830   3.406   6.176  0.3026 -1.1140 -1.2812
18300SOL     OW56320   7.034   3.066   1.156  0.0543 -0.2207 -0.1377
18300SOL    HW156321   7.036   3.087   1.062 -0.1664 -0.3110 -0.1604
18300SOL    HW256322   6.942   3.067   1.179  0.0807 -0.6149 -0.0112
18301SOL     OW56323   7.608   5.098   2.572  0.4049 -0.1128  0.8223
18301SOL    HW156324   7.639   5.114   2.483  0.3607  0.0811  0.8401
18301SOL    HW256325   7.574   5.183   2.601 -1.4922 -0.6164  0.2741
18302SOL     OW56326   8.587   3.457   1.652  0.3158  0.0915 -0.1082
18302SOL    HW156327   8.670   3.469   1.606  0.6871  1.2996  0.8363
18302SOL    HW256328   8.552   3.545   1.663  0.5150 -0.0882  2.3926
18303SOL     OW56329   5.212   5.664   2.123 -0.4092 -0.3592 -0.5554
18303SOL    HW156330   5.250   5.608   2.191 -1.4818  0.5573  0.8803
18303SOL    HW256331   5.284   5.722   2.097 -0.0419 -0.5573 -0.0090
18304SOL     OW56332   4.557   1.593   4.256 -0.1516 -0.0348  0.3824
18304SOL    HW156333   4.609   1.666   4.289 -1.9176  1.5017 -0.0950
18304SOL    HW256334   4.620   1.540   4.207  0.8329  2.2518 -0.9819
18305SOL     OW56335   7.297   0.153   5.278  0.0799 -0.0001 -0.1461
18305SOL    HW156336   7.348   0.150   5.197  1.5554  0.6102  0.7215
18305SOL    HW256337   7.212   0.118   5.254  0.4807  0.1760 -1.9691
18306SOL     OW56338   4.906   1.675   3.100 -0.2504  0.1216 -0.4084
18306SOL    HW156339   4.841   1.732   3.142 -0.2716 -0.8216  0.8660
18306SOL    HW256340   4.940   1.728   3.028 -0.3612  1.7067  0.6563
18307SOL     OW56341   3.731   4.493   7.205  0.1582  0.3205 -0.1527
18307SOL    HW156342   3.791   4.523   7.274  1.1013 -0.2565 -0.6898
18307SOL    HW256343   3.644   4.507   7.241  0.6241 -0.0474  1.2009
18308SOL     OW56344   5.836   0.969   1.078 -0.0656  0.4121  0.5124
18308SOL    HW156345   5.846   0.989   1.171  0.9217  1.6539  0.1785
18308SOL    HW256346   5.926   0.959   1.045 -0.3428 -4.8550  0.5497
18309SOL     OW56347   8.815   7.731   7.373 -0.0570 -0.2357  0.3428
18309SOL    HW156348   8.720   7.721   7.360 -0.3836  2.2619  0.4069
18309SOL    HW256349   8.828   7.825   7.385  2.7158 -0.1905 -1.9810
18310SOL     OW56350   2.789   8.283   1.063  0.6005 -0.3114 -0.1177
18310SOL    HW156351   2.788   8.351   0.996  0.9752 -0.5490 -0.3659
18310SOL    HW256352   2.699   8.249   1.063  0.1706  0.7394  0.5967
18311SOL     OW56353   7.081   8.496   8.053 -0.4976  0.6159  0.5701
18311SOL    HW156354   7.024   8.562   8.094 -0.2461  0.8361  0.5716
18311SOL    HW256355   7.162   8.500   8.103 -0.7701 -0.2938  1.0988
18312SOL     OW56356   7.539   6.413   0.759  0.5538 -0.0243  0.6346
18312SOL    HW156357   7.527   6.320   0.739  0.6677  0.3549 -1.4368
18312SOL    HW256358   7.630   6.431   0.736  0.6775  0.4961  1.5099
18313SOL     OW56359   0.803   1.252   2.361  0.0217  0.4035  0.1535
18313SOL    HW156360   0.737   1.192   2.326  0.5399  0.3725 -0.8084
18313SOL    HW256361   0.758   1.337   2.364  0.4519  0.7765 -2.2762
18314SOL     OW56362   6.740   8.553   0.766 -0.2410 -0.4421 -0.2003
18314SOL    HW156363   6.746   8.493   0.841  0.0145  1.0719  1.0484
18314SOL    HW256364   6.726   8.639   0.806  0.7244  0.5340 -1.8666
18315SOL     OW56365   0.006   4.465   4.546  0.3166 -0.1097  0.2493
18315SOL    HW156366  -0.074   4.425   4.581  0.5703 -1.2144 -0.3741
18315SOL    HW256367   0.070   4.455   4.616  0.8467 -2.3941 -0.4622
18316SOL     OW56368   8.245   2.180   1.780 -0.3167  0.5721 -0.0623
18316SOL    HW156369   8.180   2.233   1.826 -0.7648  0.9732 -1.1315
18316SOL    HW256370   8.196   2.132   1.714  0.6822  2.6181 -2.4619
18317SOL     OW56371   7.744   2.028   1.508  0.0268  0.5507  0.3726
18317SOL    HW156372   7.792   2.054   1.587 -2.1492  0.2942  1.8974
18317SOL    HW256373   7.805   1.974   1.459  1.4494  0.6479  1.9327
18318SOL     OW56374   2.999   7.363   0.035 -0.4150  0.5921 -0.2656
18318SOL    HW156375   3.092   7.375   0.054  0.1487 -0.8804 -1.8278
18318SOL    HW256376   2.959   7.349   0.121  1.3738 -2.0082  0.2884
18319SOL     OW56377   2.954   7.684   4.803  0.4162 -0.2975  0.4117
18319SOL    HW156378   2.863   7.660   4.789  0.9909 -0.5515 -4.2398
18319SOL    HW256379   2.960   7.776   4.777  1.3253  0.1636  2.0494
18320SOL     OW56380   5.664   2.377   7.111 -0.2144  0.2050  0.1103
18320SOL    HW156381   5.636   2.418   7.029  0.3391  0.7635  0.1964
18320SOL    HW256382   5.751   2.342   7.093 -0.4231 -0.3915  0.2245
18321SOL     OW56383   8.483   6.614   0.297  0.1054 -0.1122 -0.3669
18321SOL    HW156384   8.436   6.689   0.334  0.1386 -0.0243 -0.5007
18321SOL    HW256385   8.453   6.609   0.207 -0.0804 -0.4141 -0.2879
18322SOL     OW56386   2.620   0.486   8.391  0.0722  0.4447 -0.1102
18322SOL    HW156387   2.584   0.452   8.473  1.0657  0.7836  0.4811
18322SOL    HW256388   2.693   0.542   8.418  0.9553 -0.1105 -1.2662
18323SOL     OW56389   0.286   7.515   7.916 -0.4864 -0.1502 -0.0677
18323SOL    HW156390   0.269   7.508   7.822 -0.0738 -0.2400 -0.1364
18323SOL    HW256391   0.200   7.502   7.957 -0.6959  0.0733 -0.4387
18324SOL     OW56392   1.140   2.598   5.112 -0.0212 -0.2117 -0.7630
18324SOL    HW156393   1.093   2.674   5.076  0.7828  0.5436 -0.2655
18324SOL    HW256394   1.107   2.523   5.062 -0.7946  0.4696 -1.3041
18325SOL     OW56395   4.023   6.161   5.191  0.1913  0.2046 -0.1770
18325SOL    HW156396   4.017   6.137   5.099 -2.0642  0.9220 -0.2679
18325SOL    HW256397   4.008   6.256   5.193 -0.5479  0.0902  0.9681
18326SOL     OW56398   9.192   8.835   7.406  0.2026  0.5867  0.0162
18326SOL    HW156399   9.193   8.781   7.327 -0.3295  0.4238  0.1175
18326SOL    HW256400   9.168   8.775   7.477  0.8129  0.7020  0.3273
18327SOL     OW56401   0.659   2.311   9.186  0.0942 -0.0279  0.1310
18327SOL    HW156402   0.672   2.219   9.208  0.5760  0.2014  0.8463
18327SOL    HW256403   0.733   2.356   9.227 -0.0126  0.6521 -0.4050
18328SOL     OW56404   3.220   0.555   2.156  0.9190 -0.6528 -0.2035
18328SOL    HW156405   3.179   0.506   2.227  0.8499 -1.4006 -0.7512
18328SOL    HW256406   3.158   0.548   2.083  0.5336  0.9094 -0.0784
18329SOL     OW56407   0.231   6.849   9.110  0.1671 -0.6795  0.2442
18329SOL    HW156408   0.260   6.763   9.139 -1.5580 -1.9217 -1.3791
18329SOL    HW256409   0.302   6.882   9.056 -1.1252 -3.7512 -3.8786
18330SOL     OW56410   5.798   5.033   2.476 -0.0999 -0.3741  0.3966
18330SOL    HW156411   5.890   5.062   2.475 -0.3214  0.3650  0.6491
18330SOL    HW256412   5.748   5.114   2.467 -0.7277 -0.9502 -2.0330
18331SOL     OW56413   0.844   5.703   1.858  0.2873  0.2071  0.7401
18331SOL    HW156414   0.796   5.661   1.929 -1.9435  0.8458 -0.3165
18331SOL    HW256415   0.860   5.633   1.795 -1.3507  0.3990  0.0584
18332SOL     OW56416   6.248   1.170   3.422 -0.2469 -0.4840  0.0456
18332SOL    HW156417   6.174   1.223   3.452  0.4784 -0.1840  1.4150
18332SOL    HW256418   6.324   1.228   3.427  0.4182 -1.3592  0.7170
18333SOL     OW56419   9.159   5.642   2.393 -0.0288  0.3797 -0.1251
18333SOL    HW156420   9.068   5.619   2.411 -0.2781  1.0016 -0.5624
18333SOL    HW256421   9.198   5.657   2.478 -1.2019  3.4041 -0.0233
18334SOL     OW56422   0.904   8.736   0.495 -0.1946 -0.7643 -0.4168
18334SOL    HW156423   0.982   8.756   0.444  0.2655  0.0253  0.5594
18334SOL    HW256424   0.939   8.699   0.577 -0.6599  1.9759  1.1328
18335SOL     OW56425   1.118   9.273   9.250  0.4436  0.3482  0.0111
18335SOL    HW156426   1.192   9.221   9.217 -0.7593 -0.0924 -2.1796
18335SOL    HW256427   1.144   9.364   9.233  0.9405  0.2609  0.2839
18336SOL     OW56428   6.670   8.490   5.114  0.0120  0.1543 -0.1151
18336SOL    HW156429   6.574   8.483   5.108  0.1861 -2.5527 -0.8149
18336SOL    HW256430   6.695   8.541   5.036 -0.7966  0.4087 -0.2189
18337SOL     OW56431   3.772   2.126   3.484 -0.2802  0.0525 -0.3741
18337SOL    HW156432   3.856   2.089   3.510 -1.8899 -3.4320  0.4803
18337SOL    HW256433   3.751   2.190   3.553  0.2449 -1.4400  1.2452
18338SOL     OW56434   8.155   7.597   6.054 -0.1612 -0.4015 -0.5918
18338SOL    HW156435   8.146   7.502   6.054 -0.2513 -0.4077 -1.8703
18338SOL    HW256436   8.068   7.629   6.077 -0.1512 -0.6265 -0.2381
18339SOL     OW56437   3.332   1.424   7.490 -0.2114 -0.0592  0.5774
18339SOL    HW156438   3.260   1.448   7.432  0.2410  0.2382  0.1289
18339SOL    HW256439   3.290   1.408   7.575 -1.0099 -1.4562 -0.0508
18340SOL     OW56440   8.319   9.179   4.052  0.0825  0.0377  0.2191
18340SOL    HW156441   8.379   9.189   3.978 -0.0893  1.2534  0.2287
18340SOL    HW256442   8.239   9.145   4.014 -0.2698  1.3938 -0.3026
18341SOL     OW56443   6.821   1.902   3.891  0.1588 -0.3331  0.4620
18341SOL    HW156444   6.800   1.990   3.921  0.2179  0.6716 -2.1370
18341SOL    HW256445   6.916   1.905   3.874  0.0463 -0.6778 -0.2398
18342SOL     OW56446   3.600   8.192   4.763 -0.2178  0.4858 -0.0598
18342SOL    HW156447   3.638   8.157   4.682  1.9465 -0.2362  1.2015
18342SOL    HW256448   3.625   8.284   4.764  0.4492  0.3054  0.1619
18343SOL     OW56449   1.155   5.592   7.220  0.4066 -0.1406  0.5945
18343SOL    HW156450   1.172   5.614   7.311  2.1196  0.8658  0.0782
18343SOL    HW256451   1.241   5.571   7.183 -0.0960  0.4266 -1.0022
18344SOL     OW56452   2.974   8.035   2.204 -0.6813 -0.0813 -0.9639
18344SOL    HW156453   2.896   8.072   2.163 -0.8324 -1.7625 -2.3120
18344SOL    HW256454   2.986   7.950   2.161  0.6227 -0.8416  0.7781
18345SOL     OW56455   7.682   8.985   2.283  0.0410  0.2465  0.1739
18345SOL    HW156456   7.693   9.013   2.374 -0.6886 -0.9832  0.6486
18345SOL    HW256457   7.587   8.981   2.270  0.0426 -3.1110  0.5141
18346SOL     OW56458   6.034   1.524   8.385  0.3660  0.2468  0.4552
18346SOL    HW156459   5.946   1.500   8.413  1.0429 -0.8181  1.7812
18346SOL    HW256460   6.022   1.564   8.299 -1.1331 -2.8057 -0.9159
18347SOL     OW56461   5.774   2.419   9.137  0.1968 -0.1362  0.0004
18347SOL    HW156462   5.773   2.391   9.045 -2.7609 -1.2662  0.2693
18347SOL    HW256463   5.839   2.363   9.179  0.5503 -0.5998 -1.1355
18348SOL     OW56464   5.172   0.211   2.520  0.2435 -0.1622 -0.9822
18348SOL    HW156465   5.088   0.165   2.521 -0.1046  0.3572 -2.7059
18348SOL    HW256466   5.164   0.276   2.588 -1.2583  0.6705 -1.8911
18349SOL     OW56467   1.657   2.409   1.004 -0.1027  0.2571  0.0905
18349SOL    HW156468   1.735   2.354   1.019 -0.8187 -0.9349 -0.4887
18349SOL    HW256469   1.665   2.438   0.913 -0.4762 -0.1026 -0.0586
18350SOL     OW56470   1.543   2.831   1.977  0.7507 -0.0024  0.2585
18350SOL    HW156471   1.538   2.780   1.897 -0.2269 -0.0543  0.3356
18350SOL    HW256472   1.470   2.894   1.970  1.7738  1.2340  0.2710
18351SOL     OW56473   5.650   1.598   2.406 -0.2604  0.1704 -0.3598
18351SOL    HW156474   5.605   1.564   2.484  1.4014 -1.1573  0.0810
18351SOL    HW256475   5.743   1.592   2.427  0.1979  1.7927 -1.6664
18352SOL     OW56476   4.486   4.775   6.195  0.3450  0.5555 -0.1055
18352SOL    HW156477   4.408   4.829   6.182 -0.1054  0.2018  1.0374
18352SOL    HW256478   4.504   4.738   6.109 -0.6765  0.7432 -0.4104
18353SOL     OW56479   0.230   1.903   2.317  0.0686 -1.2493 -0.7181
18353SOL    HW156480   0.279   1.833   2.361  0.8105 -0.3971 -0.1581
18353SOL    HW256481   0.288   1.979   2.320 -0.8798 -0.4932 -0.9502
18354SOL     OW56482   6.465   7.755   3.752 -0.0794  0.5720 -0.1651
18354SOL    HW156483   6.441   7.693   3.821 -0.8440  1.0372 -0.0035
18354SOL    HW256484   6.482   7.700   3.675  2.4277 -0.1136  0.7722
18355SOL     OW56485   7.431   6.297   3.295  0.7270  0.0822  0.4166
18355SOL    HW156486   7.441   6.234   3.223 -1.6165 -0.6377  0.6429
18355SOL    HW256487   7.406   6.243   3.370  0.1863  1.1408  1.0063
18356SOL     OW56488   1.013   2.981   0.144  0.1454  0.7452 -0.4201
18356SOL    HW156489   0.955   2.986   0.068  0.6328 -0.6767 -0.9158
18356SOL    HW256490   1.035   2.888   0.152 -1.0902  0.5930  2.3986
18357SOL     OW56491   5.947   8.586   3.405  0.5399  0.5947  0.0568
18357SOL    HW156492   5.896   8.667   3.400 -0.8241 -0.2972 -1.4915
18357SOL    HW256493   6.034   8.614   3.434  0.9929  3.0934 -3.0972
18358SOL     OW56494   0.841   2.623   1.203  0.1200 -0.1359 -0.0554
18358SOL    HW156495   0.840   2.528   1.206  1.0354 -0.2129 -1.3454
18358SOL    HW256496   0.906   2.645   1.135 -0.3420  1.3909 -0.0556
18359SOL     OW56497   9.067   6.956   8.899  0.2645  0.7652  0.6199
18359SOL    HW156498   9.147   7.009   8.894  0.0433  1.0075 -1.1832
18359SOL    HW256499   9.092   6.879   8.951  1.5375  1.0699  0.4901
18360SOL     OW56500   4.680   4.237   4.542  0.0254 -0.5927  0.1570
18360SOL    HW156501   4.629   4.160   4.516 -0.9922  0.1842 -0.2003
18360SOL    HW256502   4.688   4.229   4.637 -2.0105 -0.0179  0.4209
18361SOL     OW56503   5.071   0.823   7.709 -0.1961  0.5092 -0.1163
18361SOL    HW156504   5.093   0.834   7.801 -1.0774 -2.0105  0.4792
18361SOL    HW256505   5.156   0.821   7.664  0.5383 -1.8281  1.1808
18362SOL     OW56506   5.497   5.363   9.263 -0.0687 -0.1859 -0.4995
18362SOL    HW156507   5.558   5.315   9.319 -0.2872  0.6001  0.4501
18362SOL    HW256508   5.532   5.352   9.174  1.1129 -0.2538 -0.0454
18363SOL     OW56509   1.432   6.075   3.321 -0.0226 -0.1455  0.7628
18363SOL    HW156510   1.369   6.006   3.344 -1.7247  1.1899  0.3441
18363SOL    HW256511   1.397   6.113   3.241  0.2490  1.9250  1.5737
18364SOL     OW56512   4.982   4.287   2.503 -0.1544  0.0277  0.1421
18364SOL    HW156513   4.972   4.274   2.597 -0.4213 -0.6271  0.0265
18364SOL    HW256514   4.894   4.308   2.472 -0.3961 -1.4274 -0.2104
18365SOL     OW56515   6.184   0.404   5.906  0.3910  0.5030 -0.0964
18365SOL    HW156516   6.116   0.367   5.962 -0.0746  0.5273 -0.6306
18365SOL    HW256517   6.140   0.475   5.859  1.1576  1.4523  0.5861
18366SOL     OW56518   5.312   3.104   5.902  0.2180  0.1027  0.0547
18366SOL    HW156519   5.253   3.165   5.946  1.3638  0.0867  1.7490
18366SOL    HW256520   5.330   3.144   5.817 -0.3131  1.3088  0.4918
18367SOL     OW56521   8.193   1.469   5.193 -0.0264  0.1487  0.5353
18367SOL    HW156522   8.103   1.443   5.212 -0.0734 -0.7367 -0.7110
18367SOL    HW256523   8.185   1.536   5.125  0.2252  0.9133  1.2494
18368SOL     OW56524   2.514   8.688   3.302  0.1214 -0.1800  0.2788
18368SOL    HW156525   2.580   8.620   3.288  0.7335  0.4935 -0.1538
18368SOL    HW256526   2.446   8.670   3.237 -0.3410 -1.1170  0.9907
18369SOL     OW56527   7.092   6.841   0.355  0.3004  0.0356 -0.2389
18369SOL    HW156528   7.176   6.822   0.312 -0.2176  1.2852 -1.9368
18369SOL    HW256529   7.116   6.896   0.429  0.9215  2.0772 -1.8396
18370SOL     OW56530   6.603   3.540   6.697 -0.3086  0.2396  0.4932
18370SOL    HW156531   6.522   3.571   6.738  0.2179  0.3012  1.5143
18370SOL    HW256532   6.580   3.453   6.664 -1.0346  0.6109 -0.0211
18371SOL     OW56533   0.675   5.449   5.989  0.0500  0.2457 -0.0815
18371SOL    HW156534   0.670   5.513   5.919  1.5800  0.3696 -0.1157
18371SOL    HW256535   0.759   5.466   6.032 -0.8521  0.1898  1.8126
18372SOL     OW56536   7.578   8.488   3.293  0.6154  0.4233 -0.2293
18372SOL    HW156537   7.532   8.466   3.373  1.6037  0.9356  0.5021
18372SOL    HW256538   7.553   8.578   3.274  1.1056  0.6236  0.0414
18373SOL     OW56539   7.310   1.700   2.021  0.5580 -0.0499 -0.3357
18373SOL    HW156540   7.242   1.765   2.004  1.9166  0.7505 -3.4281
18373SOL    HW256541   7.262   1.624   2.057 -1.3595  1.7752  1.2330
18374SOL     OW56542   8.241   6.929   4.095  0.2449  1.1503 -0.8854
18374SOL    HW156543   8.330   6.947   4.127  0.6088  1.0479 -1.7804
18374SOL    HW256544   8.185   6.942   4.170  1.3814 -3.0925  0.9812
18375SOL     OW56545   0.154   5.949   3.597  0.3514 -0.3730  0.1837
18375SOL    HW156546   0.108   5.954   3.680  0.1137  1.1598 -0.0022
18375SOL    HW256547   0.229   6.008   3.607  1.5132 -1.7735  0.0056
18376SOL     OW56548   0.049   2.115   8.935  0.9173 -0.0754 -0.4802
18376SOL    HW156549   0.037   2.134   9.028  0.9189  3.0226 -1.0135
18376SOL    HW256550   0.127   2.060   8.931  0.3614 -1.0756  1.3594
18377SOL     OW56551   7.769   3.944   7.619  0.6739 -0.0764  0.4651
18377SOL    HW156552   7.747   3.857   7.584  1.5496 -0.3450  0.5553
18377SOL    HW256553   7.764   4.002   7.544 -1.7866  0.1769  0.7381
18378SOL     OW56554   3.437   4.351   1.072 -0.4437 -0.2523 -0.1998
18378SOL    HW156555   3.521   4.344   1.026 -0.6284 -2.7191 -0.3121
18378SOL    HW256556   3.391   4.422   1.027  0.3636 -0.9174 -2.1989
18379SOL     OW56557   7.896   5.266   3.298  0.4486  0.0063 -0.3023
18379SOL    HW156558   7.940   5.191   3.258  0.0349 -0.7268  0.5763
18379SOL    HW256559   7.896   5.247   3.392 -0.7363  0.5195 -0.1701
18380SOL     OW56560   1.458   2.830   0.505 -0.2291  0.5403 -0.4152
18380SOL    HW156561   1.447   2.807   0.597  0.5631  1.3844 -0.0927
18380SOL    HW256562   1.535   2.888   0.504  0.8112 -0.7739 -1.8019
18381SOL     OW56563   6.590   0.571   2.622  0.1073 -0.2149  1.3026
18381SOL    HW156564   6.648   0.625   2.568 -1.5201 -0.3890 -0.7663
18381SOL    HW256565   6.580   0.620   2.703 -0.6716  2.2551 -0.1759
18382SOL     OW56566   7.107   6.861   5.521  0.7049 -0.8896  0.2556
18382SOL    HW156567   7.168   6.935   5.527  0.7962 -0.9391 -0.0269
18382SOL    HW256568   7.070   6.868   5.433  1.6612 -1.9044 -0.2669
18383SOL     OW56569   6.954   1.877   8.464 -0.1431  0.0523 -0.4020
18383SOL    HW156570   7.022   1.940   8.441 -0.9249  0.6879 -1.0247
18383SOL    HW256571   6.906   1.862   8.382 -1.1632  0.1370  0.1603
18384SOL     OW56572   1.988   6.700   6.611 -0.1477  0.3334  0.4272
18384SOL    HW156573   2.063   6.641   6.608 -0.8246 -0.5053 -2.3944
18384SOL    HW256574   1.964   6.703   6.704  1.6004 -1.6202  1.0199
18385SOL     OW56575   1.968   2.324   4.989 -0.1971  0.5833 -0.1359
18385SOL    HW156576   1.999   2.273   5.064 -1.4909  1.2132  0.8703
18385SOL    HW256577   2.040   2.383   4.969 -0.5136  1.7403  1.8807
18386SOL     OW56578   2.182   4.477   2.971 -0.9440 -0.4490 -0.1318
18386SOL    HW156579   2.201   4.444   3.059 -1.3976 -0.8852 -0.1915
18386SOL    HW256580   2.161   4.570   2.985  1.6844  0.2380 -0.1265
18387SOL     OW56581   4.660   8.111   7.573  0.6230  0.5849 -0.9085
18387SOL    HW156582   4.681   8.093   7.481  0.0323 -0.8683 -0.7728
18387SOL    HW256583   4.732   8.073   7.622  0.0878 -0.1501 -0.6870
18388SOL     OW56584   1.302   5.298   6.298  0.3718 -0.5038  0.2732
18388SOL    HW156585   1.364   5.295   6.225 -0.4407  0.7447 -0.5247
18388SOL    HW256586   1.349   5.345   6.367  0.5293 -0.0758 -0.1139
18389SOL     OW56587   2.204   1.446   4.786 -0.1074  0.7114 -0.2515
18389SOL    HW156588   2.199   1.512   4.855 -0.5190  2.7150 -2.0720
18389SOL    HW256589   2.283   1.469   4.737  0.1699 -0.6551 -0.5008
18390SOL     OW56590   7.321   6.808   0.171 -0.1831 -0.0528 -0.2910
18390SOL    HW156591   7.369   6.885   0.139 -2.1597  1.2525 -0.3095
18390SOL    HW256592   7.313   6.752   0.094  1.2697 -0.3098 -0.2846
18391SOL     OW56593   6.621   8.282   4.113  0.4602 -0.1913  0.0577
18391SOL    HW156594   6.627   8.314   4.203 -0.4378 -1.2567  0.5162
18391SOL    HW256595   6.611   8.361   4.060 -1.2136  0.3561  1.1146
18392SOL     OW56596   1.423   5.716   3.431  0.4513  0.1505  0.7665
18392SOL    HW156597   1.450   5.716   3.523 -0.4342 -0.3926  1.0340
18392SOL    HW256598   1.353   5.781   3.427  0.2316 -0.0989  0.5549
18393SOL     OW56599   0.528   3.809   6.440 -0.2512 -0.5052  0.6869
18393SOL    HW156600   0.549   3.770   6.355 -1.2537  1.1577 -0.3730
18393SOL    HW256601   0.599   3.871   6.457  0.5000 -1.5669  1.6071
18394SOL     OW56602   3.256   4.922   5.246  0.8074  0.0070 -0.7241
18394SOL    HW156603   3.171   4.897   5.208  0.0060  3.1432 -1.2625
18394SOL    HW256604   3.321   4.875   5.194 -0.4745  0.4806 -2.8551
18395SOL     OW56605   4.210   2.343   8.643  0.0582  0.3348 -0.1566
18395SOL    HW156606   4.286   2.362   8.698  0.6471 -0.3842 -0.6981
18395SOL    HW256607   4.136   2.338   8.704  0.6065  0.0799  0.4965
18396SOL     OW56608   5.556   6.972   1.007 -0.3888 -0.2935  0.3771
18396SOL    HW156609   5.636   7.024   1.015 -0.1291 -0.5844 -0.2549
18396SOL    HW256610   5.548   6.926   1.090  1.0591 -1.6154 -0.1745
18397SOL     OW56611   7.886   0.888   5.421 -0.6333 -0.0301  0.4808
18397SOL    HW156612   7.850   0.801   5.442 -2.0888  0.4282  0.0180
18397SOL    HW256613   7.881   0.936   5.503 -0.5842 -0.1408  0.5493
18398SOL     OW56614   3.903   6.942   1.677 -0.3360  0.3362  0.0846
18398SOL    HW156615   3.839   6.891   1.727 -0.8891  1.4430  0.5419
18398SOL    HW256616   3.875   6.934   1.586 -0.8756  0.4502  0.2389
18399SOL     OW56617   2.512   1.268   7.609 -0.1238 -0.2333  0.4438
18399SOL    HW156618   2.424   1.241   7.634 -0.2030 -2.0085 -1.5101
18399SOL    HW256619   2.503   1.360   7.583 -1.5251 -0.5411 -0.2237
18400SOL     OW56620   3.945   6.625   2.121  0.7210  0.1372 -0.2938
18400SOL    HW156621   3.911   6.536   2.120 -1.3987  0.8157  1.7680
18400SOL    HW256622   3.886   6.675   2.065 -0.1602  0.8096  1.1613
18401SOL     OW56623   3.450   7.460   2.867 -0.0771 -0.0490  0.0709
18401SOL    HW156624   3.447   7.388   2.805 -0.6278 -0.4835  0.5914
18401SOL    HW256625   3.528   7.442   2.921  0.4380  0.3635 -0.5232
18402SOL     OW56626   7.829   6.775   1.347 -0.0179  0.3740 -0.3379
18402SOL    HW156627   7.798   6.863   1.326 -0.2747 -0.1014 -2.1008
18402SOL    HW256628   7.751   6.728   1.378 -0.4048  0.1042 -1.6781
18403SOL     OW56629   3.874   5.884   5.357  0.1269 -0.0976  0.3996
18403SOL    HW156630   3.948   5.839   5.399  1.6944  1.7062 -0.2847
18403SOL    HW256631   3.869   5.968   5.402  0.2334  0.8609 -1.3116
18404SOL     OW56632   6.400   7.792   8.699  0.2960 -0.2694  0.0746
18404SOL    HW156633   6.377   7.824   8.612 -1.3121  1.1895  0.9739
18404SOL    HW256634   6.482   7.836   8.721  0.1477  0.1915 -0.2793
18405SOL     OW56635   6.596   6.530   8.798 -0.2863  0.4778  0.6439
18405SOL    HW156636   6.659   6.602   8.798 -0.4382  0.6212 -0.3230
18405SOL    HW256637   6.645   6.454   8.827  1.1402 -0.0816 -2.8345
18406SOL     OW56638   6.305   2.950   7.494 -0.1434 -0.3177  0.1366
18406SOL    HW156639   6.231   2.893   7.513  0.0214 -0.9274 -0.9790
18406SOL    HW256640   6.295   3.023   7.555 -2.2734  0.1539 -0.6664
18407SOL     OW56641   8.437   0.626   0.975 -0.1691  0.0780  0.1488
18407SOL    HW156642   8.405   0.545   1.013  0.7831 -0.4122 -0.0524
18407SOL    HW256643   8.528   0.607   0.951  0.9675  1.9299  2.4624
18408SOL     OW56644   8.417   2.884   1.737  0.5391  0.4023  0.0162
18408SOL    HW156645   8.440   2.947   1.669 -1.8042  0.3784 -0.8747
18408SOL    HW256646   8.381   2.936   1.808 -2.2587  0.1242 -1.0856
18409SOL     OW56647   2.089   6.763   4.104  0.1558  0.3280  0.1705
18409SOL    HW156648   2.085   6.801   4.192 -3.3490  1.6583 -0.4235
18409SOL    HW256649   2.059   6.673   4.115 -0.8583  0.6742  0.2713
18410SOL     OW56650   1.150   8.004   5.709 -0.0783  0.3541  0.1429
18410SOL    HW156651   1.085   7.944   5.672  0.3823  0.4362 -0.8251
18410SOL    HW256652   1.206   7.948   5.763  0.2837 -0.0791 -0.6645
18411SOL     OW56653   2.073   4.499   6.521 -0.1204 -0.1935 -0.4745
18411SOL    HW156654   2.120   4.493   6.605 -1.6713 -0.4122  0.4263
18411SOL    HW256655   2.060   4.592   6.507 -1.4944 -0.2041  0.5284
18412SOL     OW56656   0.616   5.992   7.431 -0.3828 -0.2167  0.0997
18412SOL    HW156657   0.603   5.898   7.444 -0.5687  0.0573  2.2942
18412SOL    HW256658   0.618   6.003   7.336  1.7110 -2.7024 -0.2538
18413SOL     OW56659   8.625   8.597   2.835 -0.6396 -0.1567 -0.5066
18413SOL    HW156660   8.554   8.581   2.772 -0.7375 -1.7647 -0.0333
18413SOL    HW256661   8.584   8.584   2.920  0.0971 -0.6246 -0.2172
18414SOL     OW56662   8.652   4.271   6.386  0.5500  0.7266  0.5294
18414SOL    HW156663   8.740   4.269   6.348  0.7903 -0.7880  1.1128
18414SOL    HW256664   8.667   4.284   6.480  0.1660  0.2208  0.6628
18415SOL     OW56665   4.029   7.083   0.107  0.1179 -0.6580  0.1987
18415SOL    HW156666   3.959   7.095   0.043  1.2569  0.8569 -0.8493
18415SOL    HW256667   4.001   7.009   0.160 -1.4704 -1.1648 -1.2573
18416SOL     OW56668   1.909   1.173   3.280 -0.0834  0.1032 -0.3428
18416SOL    HW156669   1.917   1.078   3.270 -1.1116 -0.1017  0.5469
18416SOL    HW256670   1.955   1.192   3.362 -1.1056  0.1389  0.2458
18417SOL     OW56671   1.934   3.805   4.285  0.3639  0.1307  0.3175
18417SOL    HW156672   1.986   3.737   4.242  1.1634 -0.1973  1.7326
18417SOL    HW256673   1.857   3.758   4.318  0.1511  0.2221 -0.0466
18418SOL     OW56674   5.449   0.173   8.089 -0.7485 -0.2858 -0.5024
18418SOL    HW156675   5.539   0.160   8.060 -1.1355 -0.5115 -1.6538
18418SOL    HW256676   5.405   0.212   8.014 -1.6431 -0.2858  0.0042
18419SOL     OW56677   4.378   4.224   3.428  0.3142 -0.0681  0.2440
18419SOL    HW156678   4.336   4.301   3.466  1.2583  0.9852 -0.7534
18419SOL    HW256679   4.337   4.149   3.472 -1.3703  0.9519  0.4995
18420SOL     OW56680   6.448   9.148   2.826  0.3831  0.2087  0.1148
18420SOL    HW156681   6.512   9.218   2.813  0.7105 -0.4746 -2.6670
18420SOL    HW256682   6.436   9.110   2.739 -0.2847 -2.7678  1.3785
18421SOL     OW56683   3.745   4.551   8.674 -0.5394 -0.2628 -0.2622
18421SOL    HW156684   3.710   4.556   8.585 -0.4200 -0.2333 -0.3081
18421SOL    HW256685   3.794   4.468   8.676  1.7417  0.9789 -1.0602
18422SOL     OW56686   2.090   7.483   3.988 -0.0574  0.0792 -0.5469
18422SOL    HW156687   1.996   7.466   3.976 -0.1540  0.1659  0.0584
18422SOL    HW256688   2.111   7.442   4.072  1.2439 -3.0585 -2.2198
18423SOL     OW56689   5.296   8.249   4.151  0.2918 -0.0141 -0.0843
18423SOL    HW156690   5.323   8.171   4.103  1.5389  1.3747 -1.7764
18423SOL    HW256691   5.372   8.273   4.203 -0.2177 -0.1177  0.7228
18424SOL     OW56692   8.850   1.350   1.481 -0.7622  0.0550 -0.1372
18424SOL    HW156693   8.924   1.388   1.528  0.0607 -0.3840 -1.0358
18424SOL    HW256694   8.819   1.280   1.538 -1.6889  1.4090  1.0928
18425SOL     OW56695   2.048   5.181   3.478 -0.0611  0.4943  0.8045
18425SOL    HW156696   2.050   5.274   3.500  3.6631  0.9467 -0.6984
18425SOL    HW256697   2.049   5.180   3.382  2.5134 -0.9552  0.7629
18426SOL     OW56698   6.023   4.874   0.085  0.3261  0.0322 -0.3679
18426SOL    HW156699   6.106   4.903   0.048  1.3196  0.3945  1.9448
18426SOL    HW256700   6.013   4.784   0.054  1.4506  0.0739 -0.9166
18427SOL     OW56701   8.787   4.587   8.385 -0.0736 -0.2447 -0.4889
18427SOL    HW156702   8.741   4.631   8.313  0.4680 -0.0470 -0.7288
18427SOL    HW256703   8.878   4.615   8.374 -0.2248  1.0758  1.2159
18428SOL     OW56704   8.034   8.165   8.239 -0.2526 -0.3708  0.2837
18428SOL    HW156705   8.091   8.207   8.304  0.9349 -0.1584 -0.8429
18428SOL    HW256706   8.015   8.235   8.176 -1.5480 -0.5212  0.4841
18429SOL     OW56707   6.685   8.227   5.052 -0.7273  0.1608 -0.4182
18429SOL    HW156708   6.707   8.315   5.022 -0.1088  0.2378  0.2244
18429SOL    HW256709   6.590   8.223   5.046 -0.7189  0.6644 -1.0069
18430SOL     OW56710   8.334   3.428   3.539  0.1025 -0.1365 -0.4813
18430SOL    HW156711   8.295   3.467   3.461  1.5478  1.7816 -0.2935
18430SOL    HW256712   8.427   3.421   3.519  0.8101  1.9529  1.5990
18431SOL     OW56713   3.266   5.706   6.305  0.3502  0.3556  0.0006
18431SOL    HW156714   3.226   5.621   6.319 -0.1959  0.6802  0.4740
18431SOL    HW256715   3.229   5.738   6.223  0.4445  0.1976 -0.1026
18432SOL     OW56716   2.843   0.226   8.284  0.2378 -0.7119  0.1486
18432SOL    HW156717   2.819   0.311   8.247  0.8087 -0.0870  1.1728
18432SOL    HW256718   2.797   0.163   8.230 -0.2969  0.2558 -0.5600
18433SOL     OW56719   3.341   5.692   1.766  0.3707 -0.0263  0.3671
18433SOL    HW156720   3.299   5.762   1.816 -0.2232  0.9192 -1.3557
18433SOL    HW256721   3.416   5.666   1.819 -1.0288 -0.1058  2.4175
18434SOL     OW56722   7.603   4.607   7.764 -0.4327  0.6060 -0.1820
18434SOL    HW156723   7.679   4.659   7.791 -1.3820  1.3613  1.1314
18434SOL    HW256724   7.629   4.517   7.781  0.6154  0.7527 -0.9096
18435SOL     OW56725   3.701   7.945   3.665 -0.6242 -0.3319  0.1753
18435SOL    HW156726   3.620   7.919   3.620 -0.3801 -0.1841 -0.3539
18435SOL    HW256727   3.684   8.034   3.695  0.4323  0.9638 -2.6930
18436SOL     OW56728   8.260   7.975   4.750 -0.1476 -0.3894  0.0961
18436SOL    HW156729   8.185   8.016   4.708 -0.7928  0.3278  1.8248
18436SOL    HW256730   8.301   8.046   4.799  0.8455 -1.0709  0.2830
18437SOL     OW56731   8.329   3.889   4.597 -0.2011  0.0830 -0.5425
18437SOL    HW156732   8.333   3.905   4.691 -4.6569 -0.1801 -0.1159
18437SOL    HW256733   8.363   3.800   4.586  2.0493  0.7471  0.4569
18438SOL     OW56734   3.692   8.283   2.165  0.5047 -0.6702 -0.7395
18438SOL    HW156735   3.627   8.352   2.151  1.2078 -0.1562 -1.5636
18438SOL    HW256736   3.730   8.303   2.251  1.0460  0.2813 -1.1796
18439SOL     OW56737   4.187   6.201   3.815  0.1877 -0.9672 -0.2504
18439SOL    HW156738   4.272   6.217   3.856  0.7077 -2.5949 -0.6161
18439SOL    HW256739   4.166   6.110   3.839 -1.5617 -0.5385  0.0083
18440SOL     OW56740   5.587   3.890   1.752  0.1647 -0.1893 -0.0335
18440SOL    HW156741   5.644   3.864   1.680 -2.1926 -2.1977 -1.2915
18440SOL    HW256742   5.541   3.968   1.719 -0.0429 -0.4029 -0.2566
18441SOL     OW56743   3.131   5.980   8.498 -0.2165 -0.7032 -0.2936
18441SOL    HW156744   3.042   5.947   8.510 -0.6355  0.5070  0.0291
18441SOL    HW256745   3.124   6.042   8.425  0.5698 -1.3381 -0.9336
18442SOL     OW56746   2.438   2.102   1.588 -0.4553  0.3930 -0.3677
18442SOL    HW156747   2.390   2.055   1.656  0.6455 -0.3363 -0.0507
18442SOL    HW256748   2.475   2.178   1.632  0.0752  0.0381 -0.1842
18443SOL     OW56749   0.378   0.613   3.108  0.0907 -0.3679 -0.3725
18443SOL    HW156750   0.355   0.635   3.018  1.6344 -0.8860 -0.9379
18443SOL    HW256751   0.433   0.535   3.100 -1.3761 -1.6202  1.1975
18444SOL     OW56752   9.259   1.676   2.696 -0.3622  0.1556  0.4923
18444SOL    HW156753   9.213   1.635   2.623  0.1544  0.9106 -0.2821
18444SOL    HW256754   9.278   1.765   2.666 -0.4761  0.6153  1.6972
18445SOL     OW56755   4.430   6.778   8.788  0.2049  1.0222  0.3211
18445SOL    HW156756   4.448   6.853   8.844  0.3716  2.9930 -2.2354
18445SOL    HW256757   4.511   6.764   8.740  0.1577 -0.8194  0.6802
18446SOL     OW56758   8.329   7.506   0.692  0.0985 -0.4282  0.2773
18446SOL    HW156759   8.237   7.521   0.713 -0.2358 -1.3221 -0.4795
18446SOL    HW256760   8.359   7.587   0.653 -0.7452 -0.5824 -0.7165
18447SOL     OW56761   0.943   4.532   5.140  0.6051 -0.0972  0.1215
18447SOL    HW156762   0.925   4.625   5.127 -1.2207 -0.6403 -1.7056
18447SOL    HW256763   1.010   4.530   5.209  0.4822  2.5305  0.4145
18448SOL     OW56764   0.137   9.191   3.072  0.4954 -0.4239  0.7645
18448SOL    HW156765   0.101   9.108   3.101  0.8805 -0.1470  2.1027
18448SOL    HW256766   0.082   9.257   3.114  0.2257  0.0091 -0.2405
18449SOL     OW56767   3.319   3.524   5.589  0.6205  0.1815 -0.0968
18449SOL    HW156768   3.382   3.453   5.577  0.4542  0.0350 -0.1082
18449SOL    HW256769   3.333   3.581   5.514  1.1045  0.4293  0.1747
18450SOL     OW56770   5.096   0.475   7.886 -0.6072 -0.1261  0.0191
18450SOL    HW156771   5.117   0.390   7.924  1.7488  1.2418  2.0812
18450SOL    HW256772   5.134   0.473   7.798  1.6304 -0.4012  0.9456
18451SOL     OW56773   8.899   7.412   7.719 -0.3220  0.2608  0.1098
18451SOL    HW156774   8.920   7.352   7.648 -0.9625 -1.0354  0.9838
18451SOL    HW256775   8.810   7.443   7.698 -0.9495 -0.9482  0.8529
18452SOL     OW56776   7.461   6.588   4.593 -0.2110 -0.9752 -0.1231
18452SOL    HW156777   7.404   6.602   4.518  1.2839 -1.7034 -1.4658
18452SOL    HW256778   7.512   6.668   4.600  1.5545 -1.8911 -1.6715
18453SOL     OW56779   8.055   6.788   1.532 -0.0514  0.0052 -0.1421
18453SOL    HW156780   8.044   6.719   1.597  0.0119 -0.2634 -0.4125
18453SOL    HW256781   8.007   6.862   1.568  1.0297  0.2647  0.7929
18454SOL     OW56782   8.821   8.299   3.352  0.0727  0.4100  0.7572
18454SOL    HW156783   8.899   8.245   3.363  1.1078  1.9591  1.4935
18454SOL    HW256784   8.753   8.256   3.404  0.8352 -0.2522  1.2221
18455SOL     OW56785   2.872   4.921   8.649  0.2105  0.7369  0.4747
18455SOL    HW156786   2.957   4.940   8.611  0.5843 -0.4426  0.6880
18455SOL    HW256787   2.819   4.999   8.630 -0.1348 -0.2814 -3.8654
18456SOL     OW56788   5.039   4.309   3.692  0.3401 -0.9097 -0.3784
18456SOL    HW156789   5.063   4.371   3.760  0.0026  0.8692 -1.8073
18456SOL    HW256790   4.968   4.257   3.730 -1.5927  1.7055 -0.1273
18457SOL     OW56791   4.612   2.409   1.760 -0.2687 -0.2428 -0.1410
18457SOL    HW156792   4.550   2.339   1.779 -0.8503 -0.3153 -2.0659
18457SOL    HW256793   4.567   2.464   1.695  1.7855 -0.5291 -1.9310
18458SOL     OW56794   4.373   0.921   0.989 -0.0839 -0.3809 -0.1907
18458SOL    HW156795   4.343   0.874   0.911  0.8805  1.7953 -2.0151
18458SOL    HW256796   4.395   1.008   0.956  4.8859 -0.6947  1.4926
18459SOL     OW56797   0.888   2.074   8.984 -0.3698  0.2139  0.0159
18459SOL    HW156798   0.976   2.048   8.959 -0.7442 -0.8407 -0.2276
18459SOL    HW256799   0.842   1.992   9.004 -1.5335  0.6748 -0.6445
18460SOL     OW56800   4.544   0.358   2.818  0.6476 -1.4379 -0.2129
18460SOL    HW156801   4.560   0.343   2.725  0.4978 -3.2536  0.0289
18460SOL    HW256802   4.630   0.352   2.858  0.4027 -3.3239  0.0839
18461SOL     OW56803   9.127   5.621   3.648 -0.2671  0.3644 -0.4526
18461SOL    HW156804   9.155   5.602   3.738  0.8384 -2.1279 -1.2261
18461SOL    HW256805   9.089   5.708   3.653  2.7764  1.7572  1.8021
18462SOL     OW56806   0.723   7.520   0.572  0.0572 -0.1461  0.4940
18462SOL    HW156807   0.759   7.598   0.614 -0.7818  0.2955  0.4010
18462SOL    HW256808   0.654   7.490   0.630 -0.0297 -0.4715  0.2284
18463SOL     OW56809   2.414   6.207   1.988  0.1103  0.5553  0.1137
18463SOL    HW156810   2.433   6.281   1.931  1.4486 -0.5685 -0.9523
18463SOL    HW256811   2.329   6.228   2.027  0.8564  3.0421  0.5315
18464SOL     OW56812   3.789   2.455   8.747 -0.1317 -0.1367  0.2829
18464SOL    HW156813   3.781   2.465   8.842 -0.0205  1.9990  0.1148
18464SOL    HW256814   3.704   2.421   8.719 -0.4263 -0.0811  1.0704
18465SOL     OW56815   3.033   3.967   8.362  0.1011  0.1026  0.2554
18465SOL    HW156816   3.031   4.051   8.316 -1.7318 -0.5287 -0.9340
18465SOL    HW256817   3.001   3.986   8.450  0.4836  0.7648  0.2561
18466SOL     OW56818   5.071   7.989   4.823  0.0772  0.0512  0.2250
18466SOL    HW156819   5.132   7.930   4.868  0.2134 -0.1020 -0.1575
18466SOL    HW256820   5.060   8.062   4.883 -0.3499 -0.5119  0.8462
18467SOL     OW56821   5.144   1.061   0.326  0.1818  0.6407 -0.1073
18467SOL    HW156822   5.210   0.992   0.314  0.0044  0.2138  1.1793
18467SOL    HW256823   5.184   1.122   0.388 -1.2198 -0.5125  2.0643
18468SOL     OW56824   3.880   5.147   9.001  0.2317  0.1351 -0.2291
18468SOL    HW156825   3.967   5.133   9.037  0.2886  0.2728 -0.3134
18468SOL    HW256826   3.876   5.090   8.925 -0.0685 -0.5304  0.2809
18469SOL     OW56827   3.581   6.641   7.856  0.2696  0.0317  0.2493
18469SOL    HW156828   3.562   6.697   7.931  3.6449 -0.8598  1.9480
18469SOL    HW256829   3.580   6.552   7.891  0.2217 -0.5758 -1.1941
18470SOL     OW56830   2.868   8.072   3.067 -0.0259 -0.0818 -0.5466
18470SOL    HW156831   2.960   8.096   3.055  0.1235  0.5643  1.4555
18470SOL    HW256832   2.871   7.979   3.088  0.3681  0.2566  1.0341
18471SOL     OW56833   4.698   8.449   7.024 -0.2113 -0.1276  0.4826
18471SOL    HW156834   4.791   8.466   7.014 -0.0460 -2.0306 -1.7769
18471SOL    HW256835   4.656   8.530   6.994  0.6645  0.1614 -0.0012
18472SOL     OW56836   1.072   1.104   8.761 -0.3003  0.3440 -0.2785
18472SOL    HW156837   1.057   1.129   8.670 -0.5752 -1.5919 -0.8063
18472SOL    HW256838   0.992   1.129   8.807 -0.3186  0.9632 -0.6390
18473SOL     OW56839   5.831   2.496   3.294 -0.1287  0.0494 -0.3053
18473SOL    HW156840   5.793   2.575   3.331 -1.7622 -0.5846 -0.5831
18473SOL    HW256841   5.916   2.525   3.260 -0.9472  1.8384 -0.9546
18474SOL     OW56842   0.880   6.637   3.996  0.2329 -0.3910 -0.5832
18474SOL    HW156843   0.809   6.590   3.952 -0.1482 -0.9682  0.6005
18474SOL    HW256844   0.944   6.655   3.927 -0.4332 -1.0741 -1.4016
18475SOL     OW56845   4.821   1.969   2.763  0.0851  0.0408 -0.5253
18475SOL    HW156846   4.738   2.002   2.797  0.0132  0.0217 -0.6843
18475SOL    HW256847   4.864   2.046   2.725  0.5337  0.2395  0.3330
18476SOL     OW56848   4.349   2.770   1.463  0.1119  0.2171  0.1406
18476SOL    HW156849   4.414   2.700   1.459  1.5791  1.6010 -1.3762
18476SOL    HW256850   4.288   2.741   1.532  2.3809 -1.0586  1.7652
18477SOL     OW56851   4.441   3.786   9.136  0.2198 -0.1514  0.1395
18477SOL    HW156852   4.365   3.754   9.088  0.4346  1.0380 -1.0520
18477SOL    HW256853   4.463   3.869   9.094  2.1477 -0.4404  0.4843
18478SOL     OW56854   8.050   8.394   0.218 -0.1339  1.1512 -0.1074
18478SOL    HW156855   8.115   8.352   0.162  1.3951  0.9614  1.6808
18478SOL    HW256856   7.978   8.417   0.160  1.1766  0.6008 -2.0269
18479SOL     OW56857   6.785   3.192   1.152 -0.1990  0.1837  0.0586
18479SOL    HW156858   6.701   3.187   1.199 -0.1253  0.2039  0.1935
18479SOL    HW256859   6.762   3.182   1.060 -0.3633  0.3103  0.0859
18480SOL     OW56860   2.584   8.977   5.109 -0.4459  0.2935  0.4026
18480SOL    HW156861   2.674   8.981   5.141 -0.2789  0.5721 -0.1007
18480SOL    HW256862   2.588   9.016   5.022 -1.1958  0.9980  0.6798
18481SOL     OW56863   8.199   1.843   4.568  0.0040  0.1311 -0.5735
18481SOL    HW156864   8.204   1.876   4.658 -0.7085 -1.3453  0.0380
18481SOL    HW256865   8.172   1.919   4.516 -1.4318  0.5909  0.7643
18482SOL     OW56866   3.055   2.861   8.775 -0.3962 -0.1306 -0.3710
18482SOL    HW156867   2.961   2.843   8.770 -0.7233  1.4116 -0.4683
18482SOL    HW256868   3.089   2.837   8.689 -1.2006  1.6541 -1.2473
18483SOL     OW56869   1.014   3.865   0.902 -0.2613 -0.4666  0.1002
18483SOL    HW156870   1.085   3.906   0.851  0.1811 -0.1021  0.9742
18483SOL    HW256871   1.033   3.891   0.993 -2.7866  1.6062  0.1534
18484SOL     OW56872   8.095   4.533   7.062 -0.0971 -0.2970  0.0271
18484SOL    HW156873   8.104   4.572   6.975 -0.8311  0.8167  0.4308
18484SOL    HW256874   8.182   4.497   7.081  0.6348  1.1739 -0.3571
18485SOL     OW56875   7.240   6.257   8.730 -0.4971  0.1130 -0.6039
18485SOL    HW156876   7.303   6.255   8.657  1.6192 -0.2396  1.1194
18485SOL    HW256877   7.202   6.169   8.730 -0.8144  0.2353 -1.4983
18486SOL     OW56878   6.111   6.088   7.439 -0.0029  0.1552  0.6111
18486SOL    HW156879   6.168   6.011   7.438 -0.3993 -0.1687 -1.1749
18486SOL    HW256880   6.025   6.054   7.463 -0.3145 -0.0969 -0.7953
18487SOL     OW56881   6.056   2.878   5.242 -0.0924 -0.0254  0.3336
18487SOL    HW156882   6.089   2.949   5.296  0.8863 -0.4599  0.3140
18487SOL    HW256883   6.110   2.879   5.163 -0.1309 -0.7209  0.2847
18488SOL     OW56884   8.031   3.290   3.813  0.8195  0.7576 -0.2601
18488SOL    HW156885   8.054   3.321   3.725 -0.4173  2.0585 -0.1736
18488SOL    HW256886   8.114   3.286   3.860  1.1333  3.9866 -0.3233
18489SOL     OW56887   6.024   9.104   1.141 -0.2688 -0.4621 -0.0868
18489SOL    HW156888   5.964   9.033   1.165 -1.0107  0.0542 -0.3792
18489SOL    HW256889   6.002   9.125   1.050  0.8516 -0.7450 -0.4506
18490SOL     OW56890   2.074   4.339   4.011 -0.2736  0.5085  0.0403
18490SOL    HW156891   2.136   4.333   4.085 -2.0487  1.2057  1.6507
18490SOL    HW256892   2.054   4.432   4.004  0.1858  0.4999 -1.6358
18491SOL     OW56893   4.014   0.970   8.312 -0.3063 -0.3252 -0.2861
18491SOL    HW156894   4.024   1.060   8.279 -0.2681 -0.2112  0.0352
18491SOL    HW256895   4.097   0.928   8.291 -0.4465 -0.3870 -0.7423
18492SOL     OW56896   7.944   4.517   4.254 -0.1738 -0.0423  0.0617
18492SOL    HW156897   7.883   4.443   4.251  0.9948 -1.0539  0.4337
18492SOL    HW256898   7.895   4.587   4.299 -0.6246 -1.2366  1.5138
18493SOL     OW56899   1.963   8.947   0.597 -0.6229  0.4218  0.3611
18493SOL    HW156900   2.002   8.928   0.511  0.4833  0.3716  0.8537
18493SOL    HW256901   1.905   8.873   0.614 -0.9842  0.5169 -0.4122
18494SOL     OW56902   3.307   7.172   4.210  0.2026 -0.2931  0.8652
18494SOL    HW156903   3.360   7.202   4.137 -1.8558  0.6113 -0.3581
18494SOL    HW256904   3.325   7.078   4.217  1.3847 -0.1398  0.0550
18495SOL     OW56905   6.613   8.101   6.279 -0.8110  0.2310  0.1244
18495SOL    HW156906   6.558   8.179   6.273 -0.0117  0.7993  0.1060
18495SOL    HW256907   6.640   8.097   6.370  0.1071  0.6474 -0.1238
18496SOL     OW56908   6.461   1.049   5.106  0.4464 -0.0986  0.2437
18496SOL    HW156909   6.518   1.014   5.175  2.2016 -1.3035 -1.6918
18496SOL    HW256910   6.518   1.106   5.055  0.3062 -2.1718 -2.3968
18497SOL     OW56911   3.741   4.022   0.332 -0.3264 -0.3212  0.5651
18497SOL    HW156912   3.764   4.046   0.421 -1.6946  1.0407  0.5864
18497SOL    HW256913   3.650   3.991   0.337  0.1717 -2.0665 -0.0821
18498SOL     OW56914   4.823   5.183   9.082 -0.2494  0.7820 -0.3294
18498SOL    HW156915   4.747   5.193   9.140 -0.5921 -1.4895 -0.2851
18498SOL    HW256916   4.880   5.256   9.104 -0.6930  0.4024  2.4191
18499SOL     OW56917   6.891   6.754   5.683 -0.0857  0.0798  0.4834
18499SOL    HW156918   6.898   6.767   5.778  0.7579 -2.6250  0.8630
18499SOL    HW256919   6.967   6.800   5.647 -0.1717  0.7567  1.1484
18500SOL     OW56920   4.371   5.313   5.821  0.1343  0.5030 -0.0494
18500SOL    HW156921   4.456   5.271   5.804 -0.0638 -0.0054  0.1804
18500SOL    HW256922   4.389   5.407   5.817  1.2790  0.4806  2.5683
18501SOL     OW56923   8.172   6.340   0.916  0.6436 -0.3102 -0.3873
18501SOL    HW156924   8.153   6.419   0.966 -0.0354 -1.3042  0.9959
18501SOL    HW256925   8.205   6.372   0.832  0.8027  1.4218  0.2939
18502SOL     OW56926   4.452   3.664   6.441  0.0562  0.2095 -0.0239
18502SOL    HW156927   4.357   3.653   6.442  0.0710 -0.3544 -1.8158
18502SOL    HW256928   4.484   3.586   6.396  1.3341  0.7175 -0.0211
18503SOL     OW56929   3.466   1.313   7.730  0.4207 -0.4697  0.5505
18503SOL    HW156930   3.517   1.346   7.655 -0.0726 -3.0256 -1.0324
18503SOL    HW256931   3.522   1.245   7.768 -0.6946 -1.5330  0.3633
18504SOL     OW56932   7.520   7.612   3.574 -0.0452  0.1549  0.1416
18504SOL    HW156933   7.450   7.651   3.627 -0.7354 -0.5375 -0.2358
18504SOL    HW256934   7.532   7.673   3.501 -0.1534  0.3549  0.2898
18505SOL     OW56935   3.556   5.884   8.712 -0.0613  0.2079  0.5111
18505SOL    HW156936   3.546   5.943   8.787 -2.2905  1.1088 -0.4079
18505SOL    HW256937   3.484   5.907   8.653  0.3313 -1.9337 -0.9377
18506SOL     OW56938   8.482   6.910   1.187 -0.3661 -0.2798 -0.1631
18506SOL    HW156939   8.415   6.912   1.119 -1.0682  0.0605  0.5216
18506SOL    HW256940   8.542   6.841   1.159 -0.6549 -0.1705 -1.1039
18507SOL     OW56941   7.120   7.531   2.905  0.8300  0.0339 -0.0532
18507SOL    HW156942   7.121   7.548   3.000  1.5432  0.7868 -0.1874
18507SOL    HW256943   7.080   7.444   2.897  1.5270 -0.4023  0.9906
18508SOL     OW56944   6.214   0.560   3.471  0.0613  0.6510 -0.4914
18508SOL    HW156945   6.172   0.476   3.488  0.2186  0.3030 -1.7019
18508SOL    HW256946   6.284   0.540   3.409 -0.7383  1.8585 -1.8616
18509SOL     OW56947   5.864   5.188   0.652  0.4754 -0.2973  0.0622
18509SOL    HW156948   5.796   5.216   0.714  0.1611 -1.2618  0.1661
18509SOL    HW256949   5.942   5.176   0.707  0.6974  0.6436 -0.0307
18510SOL     OW56950   7.894   7.419   5.219  0.3486 -0.1218 -0.6237
18510SOL    HW156951   7.987   7.411   5.195  0.0975  0.5494 -1.8797
18510SOL    HW256952   7.866   7.501   5.179 -0.4213  0.4797  1.0431
18511SOL     OW56953   8.170   7.542   6.969  0.3477 -0.2111  0.3954
18511SOL    HW156954   8.138   7.562   6.881 -0.8496 -1.3905  0.5250
18511SOL    HW256955   8.103   7.577   7.027  1.2333  0.7481  0.8837
18512SOL     OW56956   1.786   8.975   7.284  0.0095 -0.2139 -0.6881
18512SOL    HW156957   1.846   9.045   7.310  1.4168 -1.2143 -1.1066
18512SOL    HW256958   1.820   8.943   7.201 -0.1430 -1.8586 -0.1653
18513SOL     OW56959   6.713   6.826   7.398 -0.7464 -0.7556 -0.0864
18513SOL    HW156960   6.744   6.769   7.469 -0.6594  1.0540  1.4104
18513SOL    HW256961   6.775   6.900   7.398 -1.9410  0.2783 -0.6540
18514SOL     OW56962   5.792   4.771   4.390 -0.5671  0.4084 -0.4269
18514SOL    HW156963   5.750   4.702   4.441 -1.0502 -0.7251 -2.2758
18514SOL    HW256964   5.761   4.852   4.429  0.3283 -0.3435  2.0696
18515SOL     OW56965   2.754   4.987   1.931  0.1897 -0.0819  0.4089
18515SOL    HW156966   2.786   4.937   1.855  1.2781 -0.1973  0.9265
18515SOL    HW256967   2.834   5.018   1.974 -0.3447 -1.3389  2.4067
18516SOL     OW56968   8.534   3.207   6.422  0.3767 -0.3700 -0.2078
18516SOL    HW156969   8.610   3.254   6.389  0.0720  0.0372 -0.3325
18516SOL    HW256970   8.563   3.169   6.506  0.7287 -0.2633 -0.2822
18517SOL     OW56971   5.207   6.883   1.539 -0.1268 -0.4659  0.1637
18517SOL    HW156972   5.238   6.934   1.464 -3.3420  0.8641 -0.4157
18517SOL    HW256973   5.185   6.950   1.605  0.9577 -1.5140  1.6473
18518SOL     OW56974   1.037   0.430   3.766  0.0177  0.0207  0.3580
18518SOL    HW156975   1.065   0.517   3.795  0.1877 -0.7682  2.8016
18518SOL    HW256976   0.949   0.443   3.731 -0.4543  1.0029  1.8424
18519SOL     OW56977   5.786   2.938   7.196 -0.3242 -0.1449  0.1462
18519SOL    HW156978   5.782   2.909   7.287  0.6572 -1.4907 -0.2102
18519SOL    HW256979   5.767   3.032   7.200  1.7421  0.2748  1.9962
18520SOL     OW56980   7.216   8.197   6.480  0.0548  0.0452 -0.1005
18520SOL    HW156981   7.147   8.263   6.475  0.1867  0.2601  0.7368
18520SOL    HW256982   7.170   8.114   6.490 -0.1201 -0.0436 -1.4471
18521SOL     OW56983   2.730   0.024   7.786 -0.5287  0.3960  0.0591
18521SOL    HW156984   2.679   0.104   7.785 -0.3689  0.5161  0.7185
18521SOL    HW256985   2.819   0.052   7.806 -0.4148  0.0861  0.0004
18522SOL     OW56986   3.241   6.603   1.057  0.1089  0.0653  0.4532
18522SOL    HW156987   3.153   6.567   1.063  0.1033  0.3173  2.9930
18522SOL    HW256988   3.229   6.697   1.043 -0.1837  0.5713  3.5398
18523SOL     OW56989   8.890   3.128   0.233  0.1307 -0.3439 -0.5584
18523SOL    HW156990   8.874   3.096   0.322  1.4201 -0.3769 -0.3115
18523SOL    HW256991   8.939   3.058   0.190  1.0895  0.3823 -0.7048
18524SOL     OW56992   7.409   3.596   2.980 -0.3814 -0.2826 -0.0437
18524SOL    HW156993   7.350   3.534   3.024  0.1494 -0.8613 -0.1360
18524SOL    HW256994   7.479   3.612   3.044 -0.5328  0.2473 -0.0101
18525SOL     OW56995   6.208   1.520   1.583 -0.0493  0.3695 -0.5730
18525SOL    HW156996   6.112   1.527   1.582 -0.1615 -0.8502 -2.4218
18525SOL    HW256997   6.225   1.426   1.589  1.1122  0.6641  2.0931
18526SOL     OW56998   4.512   6.123   4.282 -0.4410 -0.4541 -0.0280
18526SOL    HW156999   4.474   6.085   4.361 -1.5252 -1.2270 -0.9035
18526SOL    HW257000   4.482   6.067   4.211 -0.2639  0.7749 -1.1024
18527SOL     OW57001   6.980   1.611   2.901  0.4764 -0.2877  0.9658
18527SOL    HW157002   6.944   1.683   2.849  3.2272 -0.8255 -1.9546
18527SOL    HW257003   6.999   1.651   2.986  0.0913  1.8938  0.1041
18528SOL     OW57004   3.401   0.466   1.366 -0.2554  0.4780  0.2153
18528SOL    HW157005   3.468   0.509   1.313  0.2319 -1.3126 -0.7221
18528SOL    HW257006   3.323   0.468   1.311  0.3889 -1.8655 -0.9335
18529SOL     OW57007   0.211   0.606   9.035 -0.7395  0.3983 -0.4547
18529SOL    HW157008   0.187   0.522   9.074  0.2259  0.1691 -0.3243
18529SOL    HW257009   0.204   0.668   9.107 -0.2701  0.2111 -0.2423
18530SOL     OW57010   8.858   1.642   1.962 -0.0273  0.3799 -0.3154
18530SOL    HW157011   8.953   1.645   1.959  0.1452 -1.3035  1.4417
18530SOL    HW257012   8.837   1.549   1.955 -1.6619  0.8197 -2.1497
18531SOL     OW57013   7.779   5.011   3.172 -0.3854  0.2592  0.4143
18531SOL    HW157014   7.866   5.031   3.137 -0.6104 -1.2486 -1.1386
18531SOL    HW257015   7.726   5.088   3.148  0.2170  0.6316  0.2459
18532SOL     OW57016   3.609   8.002   6.073 -0.0019 -0.0038 -0.2351
18532SOL    HW157017   3.661   8.080   6.053  1.9072 -1.2047 -0.1804
18532SOL    HW257018   3.575   7.973   5.988  1.7449 -0.7463 -0.7221
18533SOL     OW57019   6.352   6.037   2.526  0.3676  0.2419  0.1559
18533SOL    HW157020   6.426   5.978   2.542  1.2383  0.9137 -1.1365
18533SOL    HW257021   6.393   6.118   2.494 -0.9633 -0.4395 -3.8067
18534SOL     OW57022   8.375   5.711   3.258  0.1623 -0.6465 -0.4313
18534SOL    HW157023   8.451   5.656   3.240 -0.3938 -1.2675 -0.9411
18534SOL    HW257024   8.310   5.683   3.194  0.3869  1.6957 -1.8184
18535SOL     OW57025   3.172   4.556   7.946 -0.3552  0.2344 -0.2529
18535SOL    HW157026   3.077   4.548   7.934 -0.6264  0.9687  1.1463
18535SOL    HW257027   3.199   4.472   7.981 -0.5182  0.0878 -0.4739
18536SOL     OW57028   4.282   1.361   3.250 -0.5807  0.3763 -0.2044
18536SOL    HW157029   4.312   1.383   3.161  0.6373 -1.1674 -0.2252
18536SOL    HW257030   4.190   1.385   3.251 -0.3924  1.2751 -1.5867
18537SOL     OW57031   8.094   3.318   6.145 -0.5042  0.0106  0.2648
18537SOL    HW157032   8.181   3.318   6.184 -0.4488 -0.3504  0.1384
18537SOL    HW257033   8.055   3.401   6.174 -0.2377  0.0281  0.5792
18538SOL     OW57034   8.741   3.287   3.282  0.0628  0.1955  0.5415
18538SOL    HW157035   8.781   3.352   3.223  0.2018  2.2510  2.7297
18538SOL    HW257036   8.688   3.232   3.225 -1.8498  3.5972 -1.3048
18539SOL     OW57037   3.694   7.874   0.124 -0.0510 -0.1103  0.0387
18539SOL    HW157038   3.782   7.877   0.161 -0.3541  0.3241  0.7482
18539SOL    HW257039   3.706   7.895   0.032  0.6567 -0.6713 -0.0043
18540SOL     OW57040   6.678   7.072   3.094  0.4692  0.4416 -0.3676
18540SOL    HW157041   6.696   7.017   3.018  4.0677 -0.2556  0.8077
18540SOL    HW257042   6.755   7.063   3.149 -1.0910  2.5647  2.4223
18541SOL     OW57043   9.162   5.126   7.592 -0.3089  0.0533  0.5715
18541SOL    HW157044   9.089   5.065   7.588  1.1475 -1.7870  0.8742
18541SOL    HW257045   9.210   5.112   7.510  0.2429  0.5318  0.8035
18542SOL     OW57046   4.754   8.956   3.078  0.3904  0.1469 -0.2332
18542SOL    HW157047   4.684   8.973   3.141  0.1948  0.6549 -0.5745
18542SOL    HW257048   4.750   8.862   3.062 -1.9823  0.5051 -2.2456
18543SOL     OW57049   5.499   5.228   6.481 -0.3462 -0.0968 -0.4222
18543SOL    HW157050   5.471   5.318   6.490  1.1240  0.4277 -0.7674
18543SOL    HW257051   5.554   5.212   6.558 -1.0840 -0.8910 -0.0537
18544SOL     OW57052   7.974   7.214   6.757 -0.0356  0.4576  0.4122
18544SOL    HW157053   7.947   7.261   6.836  0.7410  0.5472  0.6282
18544SOL    HW257054   8.032   7.145   6.788  1.0086  1.0541 -0.1495
18545SOL     OW57055   4.230   8.404   5.163 -0.2657 -0.0768 -0.3422
18545SOL    HW157056   4.240   8.468   5.093  0.5229  2.1663  1.7102
18545SOL    HW257057   4.135   8.389   5.168 -0.3409 -0.2827 -1.8337
18546SOL     OW57058   0.075   2.909   1.670  0.3334  0.5553  0.0902
18546SOL    HW157059   0.017   2.840   1.639  0.8634 -0.1463  0.6246
18546SOL    HW257060   0.159   2.891   1.627  1.7223 -1.7160  3.3917
18547SOL     OW57061   0.307   8.392   3.539  0.0554  0.0864 -0.0324
18547SOL    HW157062   0.250   8.463   3.568 -0.3765  0.0464 -0.7435
18547SOL    HW257063   0.258   8.351   3.467  0.8830 -0.0889 -0.5018
18548SOL     OW57064   1.240   8.549   1.828 -0.5763  0.0408 -0.2653
18548SOL    HW157065   1.278   8.637   1.827 -1.5002  0.5285 -3.1697
18548SOL    HW257066   1.312   8.492   1.856  0.3664  1.5731  0.5981
18549SOL     OW57067   0.196   6.867   8.745  0.1912 -0.3763  0.3418
18549SOL    HW157068   0.280   6.870   8.790  0.4064  0.5246 -0.0913
18549SOL    HW257069   0.132   6.884   8.814  0.4906  0.5740  0.4062
18550SOL     OW57070   5.453   4.056   2.428 -0.5258 -0.0114 -0.2144
18550SOL    HW157071   5.478   4.075   2.337  0.3386 -1.0232 -0.2119
18550SOL    HW257072   5.362   4.085   2.435 -0.1081  1.6123 -0.9275
18551SOL     OW57073   8.902   1.472   8.169  0.1748  0.2739  0.2109
18551SOL    HW157074   8.891   1.542   8.234 -1.4967  0.3309 -0.1034
18551SOL    HW257075   8.844   1.402   8.199  0.2462 -0.1490 -0.6106
18552SOL     OW57076   6.217   7.004   0.249  0.5081 -0.3425  0.3790
18552SOL    HW157077   6.260   7.062   0.313 -1.9342  0.6089  1.3057
18552SOL    HW257078   6.123   7.016   0.266 -0.2540 -0.5672 -2.9769
18553SOL     OW57079   9.053   1.826   2.400  0.3716  0.3899  0.1555
18553SOL    HW157080   9.138   1.847   2.438 -0.1032  0.1095  1.4198
18553SOL    HW257081   9.008   1.910   2.396  0.5524  0.4745 -0.1207
18554SOL     OW57082   6.313   6.116   6.137 -0.2428  0.0711  0.3728
18554SOL    HW157083   6.377   6.185   6.119 -0.1308 -0.1205  0.0262
18554SOL    HW257084   6.274   6.097   6.052  0.4198 -0.9816  0.2860
18555SOL     OW57085   2.422   3.764   1.850 -0.6063  0.0334  0.3688
18555SOL    HW157086   2.397   3.724   1.933  0.8938 -0.4177  0.6294
18555SOL    HW257087   2.506   3.723   1.828  0.7181  2.5471  0.3384
18556SOL     OW57088   8.799   7.426   5.948  0.3599  0.2733  0.0100
18556SOL    HW157089   8.713   7.388   5.963  1.0521 -0.7767  1.5510
18556SOL    HW257090   8.796   7.510   5.994 -0.6791  1.5427 -2.1885
18557SOL     OW57091   8.471   0.754   7.943 -0.0097 -0.3718  0.4352
18557SOL    HW157092   8.506   0.766   8.031 -0.9761  0.0662  0.7788
18557SOL    HW257093   8.542   0.714   7.893  1.7100  2.2578  0.5690
18558SOL     OW57094   3.942   6.321   7.284 -0.8481  0.4678 -0.5723
18558SOL    HW157095   3.927   6.372   7.205  0.6666  1.2182 -0.4164
18558SOL    HW257096   4.037   6.315   7.291 -0.9392  0.4141  1.1718
18559SOL     OW57097   4.465   1.868   8.784 -0.3869  0.3176  0.3143
18559SOL    HW157098   4.421   1.937   8.833  0.4147  0.7133  0.4808
18559SOL    HW257099   4.427   1.787   8.819 -1.0858  0.6543  0.3543
18560SOL     OW57100   4.195   6.542   2.150  0.1125 -0.3619  0.1428
18560SOL    HW157101   4.100   6.555   2.144  0.2105  0.2471 -0.1747
18560SOL    HW257102   4.221   6.587   2.230  0.1502 -0.4341  0.1712
18561SOL     OW57103   5.994   4.813   4.215 -0.5291 -0.1709 -0.1086
18561SOL    HW157104   5.913   4.796   4.262 -0.2213 -2.7389 -0.3562
18561SOL    HW257105   5.974   4.890   4.161 -2.2504  0.2290  1.0054
18562SOL     OW57106   0.125   8.205   6.959  0.2834 -0.1032 -0.1145
18562SOL    HW157107   0.077   8.124   6.977  1.0442 -0.2238  1.5315
18562SOL    HW257108   0.188   8.181   6.892  0.1561 -0.7518 -0.0104
18563SOL     OW57109   7.942   5.527   5.795 -0.1047 -0.2075 -0.8183
18563SOL    HW157110   7.868   5.586   5.800  0.3009  0.4480 -2.1920
18563SOL    HW257111   8.016   5.579   5.826  0.0173 -0.4296 -0.7340
18564SOL     OW57112   7.754   2.659   7.165 -0.2232 -0.1546 -0.2078
18564SOL    HW157113   7.732   2.586   7.223  0.4140 -1.3881 -1.4960
18564SOL    HW257114   7.676   2.671   7.111 -0.5095  0.4558  0.3282
18565SOL     OW57115   4.574   4.718   3.934  0.5608 -0.1533  0.3097
18565SOL    HW157116   4.623   4.658   3.878  1.7843  1.5402 -0.5238
18565SOL    HW257117   4.482   4.705   3.910  0.8595 -1.1637 -0.3307
18566SOL     OW57118   7.350   5.237   2.185  0.1454  0.0236 -0.1015
18566SOL    HW157119   7.412   5.279   2.125  0.0659 -0.2940 -0.4099
18566SOL    HW257120   7.349   5.145   2.158 -0.0856 -0.0706  0.2243
18567SOL     OW57121   0.059   6.659   6.779 -0.2197 -0.2207  0.2139
18567SOL    HW157122  -0.031   6.630   6.769  0.2368 -1.2478 -1.3948
18567SOL    HW257123   0.056   6.754   6.763 -1.1032 -0.0938  1.0349
18568SOL     OW57124   3.834   6.180   5.909 -0.2850 -0.3040  0.7954
18568SOL    HW157125   3.849   6.152   5.818  2.3973 -0.3568  1.1487
18568SOL    HW257126   3.763   6.125   5.940 -1.4876 -0.0685 -1.3439
18569SOL     OW57127   3.555   2.663   1.462 -0.2620  0.3143  0.2243
18569SOL    HW157128   3.569   2.731   1.396  0.8588  0.6613  0.7943
18569SOL    HW257129   3.606   2.588   1.430 -0.6548  0.0807  0.1280
18570SOL     OW57130   9.076   5.052   6.737  0.0172  0.8380 -0.5814
18570SOL    HW157131   9.077   4.957   6.735  1.5428  0.8348 -0.4123
18570SOL    HW257132   9.017   5.077   6.665 -1.0388 -0.2115 -0.1196
18571SOL     OW57133   7.964   8.106   3.142  0.2683 -0.3492  0.1083
18571SOL    HW157134   7.878   8.146   3.126 -0.7714 -2.1554  0.8588
18571SOL    HW257135   8.001   8.090   3.056  0.0966  0.9024 -0.2156
18572SOL     OW57136   4.019   0.986   8.997  0.0347 -0.0697  0.5202
18572SOL    HW157137   4.035   0.905   8.949  1.3671  0.2971  0.2891
18572SOL    HW257138   4.025   1.054   8.930 -1.3681  0.2065  0.6572
18573SOL     OW57139   4.165   2.254   6.050  0.2620 -0.5265  0.6464
18573SOL    HW157140   4.096   2.281   5.990  1.8862 -2.3799 -2.3231
18573SOL    HW257141   4.174   2.160   6.036  1.9790 -0.7302  2.5318
18574SOL     OW57142   3.242   4.315   6.540  0.5725 -0.0951  0.4814
18574SOL    HW157143   3.297   4.242   6.512 -1.0210 -0.5386 -1.7054
18574SOL    HW257144   3.184   4.278   6.606 -0.3802 -0.9307 -0.7801
18575SOL     OW57145   8.009   3.173   6.592  0.5073 -0.2111  0.3500
18575SOL    HW157146   7.978   3.260   6.566  0.6273 -0.3571 -0.3011
18575SOL    HW257147   8.028   3.129   6.509  1.3842 -0.5132  0.7034
18576SOL     OW57148   1.709   1.638   0.824  0.0397 -0.2782  0.0686
18576SOL    HW157149   1.624   1.662   0.789 -0.2311  0.5242  1.2071
18576SOL    HW257150   1.713   1.543   0.814 -1.5538 -0.5079  1.1356
18577SOL     OW57151   9.223   4.832   6.477 -0.0287  0.4629  0.3089
18577SOL    HW157152   9.308   4.869   6.452 -0.8037  1.8627 -0.3447
18577SOL    HW257153   9.245   4.765   6.542  1.3760  2.8657  2.4627
18578SOL     OW57154   5.077   3.729   1.657  0.5731 -0.3578 -0.3029
18578SOL    HW157155   5.095   3.782   1.735 -0.8578  0.4317 -0.4784
18578SOL    HW257156   5.158   3.735   1.606  0.9547  0.4731  0.3574
18579SOL     OW57157   5.771   1.590   5.509  0.0112 -0.4402 -0.4765
18579SOL    HW157158   5.765   1.546   5.424  0.5428  0.3619 -0.9424
18579SOL    HW257159   5.864   1.603   5.523 -0.1531  1.4064 -0.8263
18580SOL     OW57160   4.016   4.815   1.394 -0.1728 -0.4538 -0.0811
18580SOL    HW157161   3.949   4.747   1.388 -0.2188 -0.7090  2.2408
18580SOL    HW257162   4.086   4.776   1.446  0.6868  0.6341 -0.3694
18581SOL     OW57163   2.274   1.912   0.470  0.0380  0.2641 -0.2625
18581SOL    HW157164   2.204   1.923   0.406 -0.7033  1.0027  0.6465
18581SOL    HW257165   2.242   1.841   0.527  1.6203 -1.8896 -1.8866
18582SOL     OW57166   5.642   0.235   8.776  0.0581 -0.0047  0.0260
18582SOL    HW157167   5.599   0.320   8.770 -1.0628 -0.6354 -1.2572
18582SOL    HW257168   5.733   0.252   8.751  0.7896  1.4112  3.0934
18583SOL     OW57169   5.848   4.049   8.054 -0.1087  0.2368 -0.3725
18583SOL    HW157170   5.801   4.130   8.034  0.4480  1.9524  3.9667
18583SOL    HW257171   5.902   4.071   8.131  0.6539 -4.0560  0.6047
18584SOL     OW57172   4.271   5.918   7.836 -0.1261 -0.1175 -0.8218
18584SOL    HW157173   4.339   5.952   7.779 -0.0926  0.3517 -0.5036
18584SOL    HW257174   4.202   5.984   7.834 -0.6301 -0.6461 -1.2412
18585SOL     OW57175   0.113   8.554   3.679  0.4661  0.5387 -0.1006
18585SOL    HW157176   0.068   8.637   3.698  0.4763  1.0657 -2.1358
18585SOL    HW257177   0.068   8.520   3.602  0.8365 -1.0976  0.3741
18586SOL     OW57178   2.503   9.088   3.984 -0.6307 -0.4155  0.4029
18586SOL    HW157179   2.556   9.156   3.943  0.6691 -1.9103 -0.5198
18586SOL    HW257180   2.524   9.093   4.077 -1.4042  1.1286  0.5225
18587SOL     OW57181   1.054   2.192   1.251 -0.3153  0.1136  0.1128
18587SOL    HW157182   1.025   2.141   1.175  0.9352 -0.2672 -0.1359
18587SOL    HW257183   0.986   2.257   1.263 -1.1023 -0.5405 -0.6325
18588SOL     OW57184   1.179   0.178   1.140 -0.1227  0.7170  0.0805
18588SOL    HW157185   1.101   0.166   1.195  0.8230 -0.3769  1.2509
18588SOL    HW257186   1.170   0.112   1.072 -0.3938  0.8462 -0.0134
18589SOL     OW57187   7.942   0.110   1.543  0.1021 -0.0430 -0.4915
18589SOL    HW157188   7.926   0.104   1.448 -0.2603 -0.9931 -0.3737
18589SOL    HW257189   7.955   0.204   1.558  3.3060 -0.1384 -1.9770
18590SOL     OW57190   8.716   4.209   2.683 -0.0671  0.1357 -0.3289
18590SOL    HW157191   8.670   4.264   2.619  0.8286  0.7236 -0.4729
18590SOL    HW257192   8.806   4.204   2.651 -0.0611 -1.1881 -0.1588
18591SOL     OW57193   2.426   8.042   8.220 -0.0030 -0.6295 -0.2366
18591SOL    HW157194   2.411   8.103   8.148  0.6441 -0.2154 -0.0257
18591SOL    HW257195   2.439   7.957   8.177 -0.3290 -0.5200 -0.5614
18592SOL     OW57196   8.082   6.056   2.741 -0.6588  0.3712 -0.6303
18592SOL    HW157197   8.169   6.038   2.776 -0.5946  0.3816 -0.7870
18592SOL    HW257198   8.055   5.974   2.701 -1.2749 -0.0492  0.5984
18593SOL     OW57199   8.329   0.749   5.677 -0.3098  0.4315  0.2186
18593SOL    HW157200   8.265   0.804   5.722 -1.4737 -1.0001  0.3898
18593SOL    HW257201   8.289   0.730   5.592 -0.8525 -1.7105  0.8981
18594SOL     OW57202   2.618   3.921   0.351 -0.2061 -0.5925  0.1612
18594SOL    HW157203   2.578   3.889   0.270 -2.3496  1.1519  0.4542
18594SOL    HW257204   2.666   3.999   0.326  1.4639 -1.5684  0.1644
18595SOL     OW57205   4.564   0.503   7.295 -0.7526  0.2282  0.0690
18595SOL    HW157206   4.540   0.541   7.210 -0.6448  1.6150  0.6334
18595SOL    HW257207   4.656   0.479   7.285 -0.9252 -0.2511 -0.4190
18596SOL     OW57208   8.526   0.369   3.322 -0.1977  0.0167 -0.3557
18596SOL    HW157209   8.550   0.315   3.398  0.7033 -0.7859 -1.1686
18596SOL    HW257210   8.440   0.335   3.295 -1.0255  1.0248  0.9143
18597SOL     OW57211   1.866   6.179   1.384  0.0296 -0.0584  0.5115
18597SOL    HW157212   1.858   6.105   1.324 -0.0628 -1.0126  1.6520
18597SOL    HW257213   1.820   6.250   1.341 -1.4274 -1.1669  0.1548
18598SOL     OW57214   6.145   9.005   8.754 -0.3086 -0.0232  0.4745
18598SOL    HW157215   6.090   8.928   8.739  0.7552 -0.4723 -1.5539
18598SOL    HW257216   6.098   9.056   8.820 -1.2423 -2.1960  1.5659
18599SOL     OW57217   6.717   7.173   6.250 -0.4523  0.7916  0.0442
18599SOL    HW157218   6.728   7.240   6.182 -1.3356  0.1289 -0.7773
18599SOL    HW257219   6.771   7.100   6.220 -0.8606  0.4913  0.0320
18600SOL     OW57220   1.048   7.656   3.094 -0.1879  0.4580 -0.0393
18600SOL    HW157221   0.968   7.603   3.093 -0.8332  1.2936 -3.0269
18600SOL    HW257222   1.049   7.696   3.181 -1.5145 -1.7198  1.0541
18601SOL     OW57223   8.455   6.037   3.126  0.5420  0.1796  0.1983
18601SOL    HW157224   8.548   6.055   3.132  0.8608 -1.2943 -0.0610
18601SOL    HW257225   8.447   5.942   3.139 -0.9071  0.2643  0.1629
18602SOL     OW57226   1.713   5.516   6.943  0.5626  0.3349  0.1356
18602SOL    HW157227   1.796   5.500   6.898  1.0699 -0.9021  1.4351
18602SOL    HW257228   1.653   5.452   6.906  0.7192 -0.0422  0.5239
18603SOL     OW57229   8.556   7.775   1.555 -0.3302  0.7066 -0.1683
18603SOL    HW157230   8.511   7.777   1.471 -1.3695  0.0966  0.3524
18603SOL    HW257231   8.580   7.683   1.568  0.5735  0.9328 -0.1756
18604SOL     OW57232   1.476   4.139   4.993  0.0102  0.1915 -0.1015
18604SOL    HW157233   1.402   4.089   5.026 -0.3691  0.5227 -0.4488
18604SOL    HW257234   1.464   4.141   4.898  0.0963  0.8130 -0.1067
18605SOL     OW57235   3.116   3.242   9.214 -0.1034 -0.5686  0.6629
18605SOL    HW157236   3.043   3.291   9.178  0.3817  0.9436  1.6180
18605SOL    HW257237   3.091   3.227   9.306  0.4211 -0.7676  0.7756
18606SOL     OW57238   8.512   9.037   0.673  0.9054  0.1283  0.3016
18606SOL    HW157239   8.489   8.990   0.594 -2.6870  0.6197  0.8981
18606SOL    HW257240   8.450   9.109   0.678  2.9009  1.8878  2.0894
18607SOL     OW57241   3.390   3.643   7.130  0.4863  0.3058  0.0937
18607SOL    HW157242   3.373   3.718   7.072  0.1070  0.6819  0.6872
18607SOL    HW257243   3.484   3.629   7.123  0.5387  0.7457 -0.1366
18608SOL     OW57244   1.676   5.335   4.409 -0.1870  0.0780 -0.2154
18608SOL    HW157245   1.760   5.290   4.418 -0.8169 -0.9621  0.6232
18608SOL    HW257246   1.683   5.381   4.325  0.8803 -0.7161 -0.5836
18609SOL     OW57247   1.695   0.563   5.958  0.3679 -0.1635  0.4381
18609SOL    HW157248   1.731   0.623   5.892  1.3058 -2.0586 -0.8844
18609SOL    HW257249   1.635   0.617   6.009 -0.4433  1.4316 -1.9910
18610SOL     OW57250   3.721   5.576   4.847  0.5027  0.2879 -0.6632
18610SOL    HW157251   3.787   5.532   4.901 -1.8146 -0.7956  1.4798
18610SOL    HW257252   3.684   5.506   4.793 -1.5219 -0.0244  1.0027
18611SOL     OW57253   2.613   0.291   3.343 -0.1179  0.1738 -0.2346
18611SOL    HW157254   2.682   0.274   3.408 -0.4225 -0.5227 -0.0765
18611SOL    HW257255   2.612   0.386   3.333  0.5953  0.2194  0.0566
18612SOL     OW57256   4.369   5.462   8.992 -0.3400  0.3588  1.0546
18612SOL    HW157257   4.383   5.378   9.036  0.6491  0.5850  1.1971
18612SOL    HW257258   4.315   5.440   8.916 -0.3653 -0.3538  1.2687
18613SOL     OW57259   2.984   0.305   1.607  0.5810 -0.0661 -0.1221
18613SOL    HW157260   2.973   0.334   1.516 -1.2360 -0.9850 -0.2362
18613SOL    HW257261   3.078   0.313   1.623  0.9110  0.3461 -2.0050
18614SOL     OW57262   8.259   3.969   6.486 -0.5062 -0.0655 -0.8204
18614SOL    HW157263   8.170   4.002   6.496 -1.1319 -1.8711  0.0162
18614SOL    HW257264   8.307   4.003   6.562 -0.8932 -0.3066 -0.4643
18615SOL     OW57265   4.926   1.023   0.072  0.1740  0.1985 -0.8007
18615SOL    HW157266   4.970   1.105   0.095 -1.9208  1.5072 -1.2225
18615SOL    HW257267   4.945   1.011  -0.021 -2.6061  2.3487 -1.7707
18616SOL     OW57268   5.681   4.498   1.720 -0.1080  0.5640  0.2728
18616SOL    HW157269   5.725   4.504   1.805  2.2245 -2.4099 -0.5468
18616SOL    HW257270   5.750   4.513   1.656 -1.0293 -0.7198 -1.0968
18617SOL     OW57271   2.204   4.960   7.620 -0.4695 -0.1626  0.1015
18617SOL    HW157272   2.230   4.939   7.710  1.0528  0.3107 -0.2009
18617SOL    HW257273   2.183   4.875   7.581  1.2122 -0.6682  0.2182
18618SOL     OW57274   1.679   2.411   6.244  0.4990 -0.3035 -0.4311
18618SOL    HW157275   1.664   2.505   6.241 -2.2758 -0.5634  1.3254
18618SOL    HW257276   1.709   2.388   6.157  2.1442  2.2833 -0.6575
18619SOL     OW57277   7.243   5.590   1.998 -0.1661  0.3162 -0.3608
18619SOL    HW157278   7.313   5.530   1.972 -0.7056 -0.7555  0.5753
18619SOL    HW257279   7.240   5.655   1.928  0.9750 -0.2845 -0.9982
18620SOL     OW57280   4.444   9.187   1.332  0.4702 -0.0113 -0.1751
18620SOL    HW157281   4.484   9.273   1.346  1.0151 -0.6764  3.7750
18620SOL    HW257282   4.497   9.146   1.264  0.8169  2.3399 -1.4416
18621SOL     OW57283   4.070   3.383   7.314 -0.0222  0.5380  0.0121
18621SOL    HW157284   4.100   3.295   7.335 -0.7451  0.7242  2.0718
18621SOL    HW257285   4.150   3.433   7.298  0.7405  0.4114  2.8289
18622SOL     OW57286   9.010   0.691   4.167  0.1590 -0.8961  0.0102
18622SOL    HW157287   8.939   0.632   4.141  1.1843 -2.9234  1.5431
18622SOL    HW257288   9.090   0.642   4.148  1.0707  0.0876  1.1461
18623SOL     OW57289   0.847   7.844   4.823 -0.0783 -0.3877  0.2747
18623SOL    HW157290   0.889   7.921   4.786 -1.2547  0.0293 -0.2667
18623SOL    HW257291   0.908   7.812   4.888  1.4541 -0.3498 -1.0944
18624SOL     OW57292   6.065   8.237   1.688 -0.0930  0.4597 -0.0104
18624SOL    HW157293   6.064   8.180   1.765 -0.5074  0.5074  0.0207
18624SOL    HW257294   6.011   8.312   1.713  1.1374  1.2860  0.2616
18625SOL     OW57295   5.238   2.715   5.568 -0.0704  0.1250 -0.5327
18625SOL    HW157296   5.313   2.661   5.591 -0.1719  0.5210  0.7622
18625SOL    HW257297   5.240   2.718   5.472  1.4014 -0.0885 -0.5298
18626SOL     OW57298   3.031   8.679   3.419 -0.2024 -0.8968  0.0217
18626SOL    HW157299   2.968   8.610   3.442  0.1439 -0.9214  0.9060
18626SOL    HW257300   2.994   8.759   3.456 -0.4638 -0.6388 -0.7699
18627SOL     OW57301   1.400   1.909   9.109 -0.1868  0.0118 -0.3695
18627SOL    HW157302   1.419   1.911   9.203  0.0672 -1.9547 -0.3417
18627SOL    HW257303   1.486   1.923   9.067 -0.3521  1.2160 -0.3289
18628SOL     OW57304   5.551   4.221   4.275 -0.0942 -0.5735 -0.3380
18628SOL    HW157305   5.637   4.179   4.282 -0.5371 -1.8358 -1.9195
18628SOL    HW257306   5.568   4.302   4.226  0.3869 -0.1031  0.5803
18629SOL     OW57307   0.742   6.488   2.255  0.2336 -0.2613  0.2235
18629SOL    HW157308   0.702   6.443   2.180 -0.5711  1.0004 -0.1347
18629SOL    HW257309   0.757   6.419   2.319  1.4965 -1.4779 -1.3131
18630SOL     OW57310   1.394   4.727   1.195  0.6753 -0.5809  0.4232
18630SOL    HW157311   1.324   4.707   1.133  0.5679 -0.7467  0.5979
18630SOL    HW257312   1.381   4.820   1.215  0.8183 -0.4789  0.0642
18631SOL     OW57313   6.874   0.079   6.557 -0.4805 -0.0044 -0.2797
18631SOL    HW157314   6.829  -0.004   6.569 -0.4845 -0.0908 -0.8477
18631SOL    HW257315   6.949   0.075   6.616  0.6273 -1.2470 -1.6767
18632SOL     OW57316   0.091   2.551   8.872 -0.2662 -0.1810 -0.3457
18632SOL    HW157317   0.112   2.474   8.819  0.1809  1.4270 -2.6405
18632SOL    HW257318   0.010   2.585   8.833  0.0658  1.0496 -0.0069
18633SOL     OW57319   2.523   2.314   0.310  0.4175  0.6001 -0.2705
18633SOL    HW157320   2.573   2.236   0.336  1.9874  1.6674  0.0396
18633SOL    HW257321   2.545   2.326   0.217  0.5016  0.8993 -0.2126
18634SOL     OW57322   4.974   1.342   2.169  0.0180  0.2665 -0.2765
18634SOL    HW157323   4.882   1.358   2.146  0.1004 -0.8482 -1.5249
18634SOL    HW257324   5.012   1.304   2.090  1.0945 -0.9935  0.7840
18635SOL     OW57325   6.877   5.932   0.033  0.8824  0.4324  0.0283
18635SOL    HW157326   6.885   6.019  -0.006  0.0905  0.6457  0.3149
18635SOL    HW257327   6.809   5.942   0.100  0.3325 -0.5374 -0.3571
18636SOL     OW57328   5.982   3.214   1.924  0.3747 -0.4535  0.1246
18636SOL    HW157329   5.990   3.199   2.018  0.0197 -1.2419  0.0366
18636SOL    HW257330   6.067   3.187   1.889  0.0740 -1.3997  0.0823
18637SOL     OW57331   5.863   7.003   9.069 -0.1175 -0.4024  0.0902
18637SOL    HW157332   5.784   6.996   9.016  0.1162 -0.8876 -0.2050
18637SOL    HW257333   5.861   7.092   9.104 -0.4750 -0.2081 -0.4138
18638SOL     OW57334   1.014   6.707   1.165  0.6259 -0.3811 -0.0549
18638SOL    HW157335   1.088   6.647   1.173  0.5076 -0.4728  0.3977
18638SOL    HW257336   1.046   6.790   1.201  0.3421 -0.5718  0.6589
18639SOL     OW57337   6.767   4.332   1.686 -0.5895 -0.0455  0.2013
18639SOL    HW157338   6.720   4.252   1.709 -1.5932  1.1630  2.7479
18639SOL    HW257339   6.723   4.401   1.736  1.7587  1.7115  0.0104
18640SOL     OW57340   1.250   9.276   6.287  0.5106 -0.3858 -0.3091
18640SOL    HW157341   1.169   9.231   6.264 -1.1445  2.3466 -0.2621
18640SOL    HW257342   1.274   9.240   6.372 -0.4047 -1.5448 -0.5160
18641SOL     OW57343   1.860   7.992   5.503  0.7844  0.4367  0.5343
18641SOL    HW157344   1.863   7.899   5.527  1.7857  0.8408  2.1189
18641SOL    HW257345   1.771   8.019   5.524  0.5766 -0.0821  0.3510
18642SOL     OW57346   6.113   5.336   7.804  0.0313  0.2814  0.1380
18642SOL    HW157347   6.149   5.248   7.811 -2.2825 -0.8311 -0.8987
18642SOL    HW257348   6.185   5.389   7.771  1.8922 -0.8539  2.1227
18643SOL     OW57349   1.477   3.259   0.813  0.3388 -0.1354  0.4177
18643SOL    HW157350   1.556   3.217   0.846  1.7091  1.6518 -0.4049
18643SOL    HW257351   1.505   3.304   0.733 -1.8100 -0.4976 -0.6348
18644SOL     OW57352   2.937   7.516   3.554  0.0089 -0.4485 -0.2250
18644SOL    HW157353   2.926   7.432   3.599 -0.8798 -0.6141 -0.7343
18644SOL    HW257354   2.904   7.500   3.465 -0.5824  0.5623 -0.2031
18645SOL     OW57355   0.800   8.626   8.846  0.2265  0.1477  0.6635
18645SOL    HW157356   0.767   8.552   8.897 -1.4237  0.8959  0.7491
18645SOL    HW257357   0.750   8.701   8.877 -0.6095  0.7043 -1.7949
18646SOL     OW57358   7.826   2.118   2.769  0.0618  0.2866 -0.5254
18646SOL    HW157359   7.753   2.056   2.777  0.3185  0.1628  1.5388
18646SOL    HW257360   7.842   2.124   2.675 -0.3133 -2.3840 -0.8410
18647SOL     OW57361   5.154   1.723   7.679  0.4818 -0.1525 -0.1316
18647SOL    HW157362   5.062   1.748   7.685  0.5949  0.4543 -0.8465
18647SOL    HW257363   5.151   1.628   7.661 -0.0054 -0.1133 -0.2960
18648SOL     OW57364   1.561   0.131   6.420  0.0027  0.6459 -0.1116
18648SOL    HW157365   1.531   0.184   6.347 -0.4342 -0.6204 -0.8864
18648SOL    HW257366   1.655   0.148   6.427  0.1890  0.2427 -1.4396
18649SOL     OW57367   3.024   9.099   3.795  0.4453 -0.2576  0.2983
18649SOL    HW157368   2.968   9.031   3.834  0.4482 -0.1730  0.4513
18649SOL    HW257369   3.108   9.088   3.839  0.6673 -0.6354 -0.2082
18650SOL     OW57370   0.454   0.153   6.039 -0.5498 -0.0781  0.2986
18650SOL    HW157371   0.516   0.193   6.100 -1.4129  0.0836  1.0837
18650SOL    HW257372   0.436   0.067   6.076 -1.4558  0.2098  0.5489
18651SOL     OW57373   1.514   2.650   6.346  0.3966 -0.5342 -0.8415
18651SOL    HW157374   1.483   2.587   6.411  0.6904 -0.7008 -0.8631
18651SOL    HW257375   1.450   2.721   6.349  0.3507 -0.5898 -0.4409
18652SOL     OW57376   7.712   1.424   8.668 -0.5936 -0.5438  0.3235
18652SOL    HW157377   7.629   1.409   8.714 -1.2581 -1.2729 -1.0441
18652SOL    HW257378   7.686   1.441   8.577  0.7381 -0.3781 -0.0412
18653SOL     OW57379   2.806   0.854   0.837  0.2353 -0.6918  0.2555
18653SOL    HW157380   2.755   0.870   0.758 -0.5274 -0.6057  0.7413
18653SOL    HW257381   2.747   0.880   0.908  1.0033 -0.5043  0.8373
18654SOL     OW57382   0.882   2.475   1.596 -0.4176  0.2099  0.1401
18654SOL    HW157383   0.932   2.540   1.547  0.0163 -1.0686 -1.1797
18654SOL    HW257384   0.802   2.521   1.621 -0.6859  0.9025 -1.8395
18655SOL     OW57385   3.015   6.451   4.782  0.2041 -0.2378  0.0106
18655SOL    HW157386   2.968   6.378   4.823  0.3185 -1.4044 -1.8147
18655SOL    HW257387   2.960   6.527   4.798 -0.6222 -0.9671  0.7758
18656SOL     OW57388   8.623   7.954   0.377 -0.3385  0.0671  0.2354
18656SOL    HW157389   8.607   7.862   0.402 -1.4880  0.2725  0.3210
18656SOL    HW257390   8.681   7.948   0.302 -0.8416 -0.7676 -0.1073
18657SOL     OW57391   1.888   4.842   6.625  0.0020  0.2061 -0.4088
18657SOL    HW157392   1.976   4.803   6.618 -0.0852 -0.0502 -0.0802
18657SOL    HW257393   1.843   4.814   6.545  0.0775 -0.0233 -0.3722
18658SOL     OW57394   2.330   7.140   6.882 -0.1854 -0.1037 -0.4453
18658SOL    HW157395   2.235   7.141   6.895 -0.3380 -0.0174 -1.5302
18658SOL    HW257396   2.342   7.114   6.791  0.8272  0.0884 -0.3757
18659SOL     OW57397   7.737   7.482   8.042 -0.0605  0.2793  0.2290
18659SOL    HW157398   7.728   7.573   8.015 -1.2974  0.7498  2.0924
18659SOL    HW257399   7.789   7.442   7.972  2.4540  2.8935  0.4188
18660SOL     OW57400   7.087   4.200   2.427 -0.1464  0.6717 -0.0405
18660SOL    HW157401   7.077   4.124   2.371  0.3004  0.2837  0.3950
18660SOL    HW257402   7.001   4.243   2.426 -0.2907  0.3701 -0.5798
18661SOL     OW57403   5.939   4.443   6.376 -0.4172 -0.1820  0.1156
18661SOL    HW157404   5.862   4.417   6.326 -1.0714  1.7498  0.0398
18661SOL    HW257405   5.952   4.371   6.439 -1.9991 -0.7538 -0.1637
18662SOL     OW57406   2.410   7.769   3.217  0.1468  0.3041  0.4040
18662SOL    HW157407   2.408   7.763   3.122 -2.0554 -1.9277  0.4568
18662SOL    HW257408   2.349   7.701   3.246 -0.0372  1.5707  3.3879
18663SOL     OW57409   4.859   8.158   0.459 -0.2373  1.0046 -0.3354
18663SOL    HW157410   4.853   8.117   0.545 -0.2187  0.2235 -0.6969
18663SOL    HW257411   4.931   8.112   0.416 -0.4617  1.1640 -0.8886
18664SOL     OW57412   9.120   2.717   2.523  0.6473 -0.2129 -0.0608
18664SOL    HW157413   9.054   2.665   2.569 -0.9565  1.7857 -0.0008
18664SOL    HW257414   9.185   2.738   2.590  1.2803 -1.9391 -0.0584
18665SOL     OW57415   7.480   7.656   0.792  0.3317 -0.2671  0.0192
18665SOL    HW157416   7.492   7.574   0.840  1.0191 -0.2476 -0.1208
18665SOL    HW257417   7.481   7.630   0.700 -1.4060 -0.3677 -0.0173
18666SOL     OW57418   3.964   6.849   5.084 -0.2153 -0.3669  0.0904
18666SOL    HW157419   3.981   6.823   5.175 -0.4247 -0.1646  0.1893
18666SOL    HW257420   4.051   6.858   5.045 -0.1315 -0.7764  0.1784
18667SOL     OW57421   2.053   4.896   2.134 -0.0020  0.2622 -1.0202
18667SOL    HW157422   2.105   4.817   2.130 -0.9940 -0.3862 -1.6955
18667SOL    HW257423   2.116   4.966   2.149  0.9247 -0.6090 -0.7504
18668SOL     OW57424   8.046   2.305   1.922  0.4840  0.0051  0.3166
18668SOL    HW157425   8.046   2.392   1.882 -1.3323 -0.6062 -1.1006
18668SOL    HW257426   7.954   2.286   1.938  0.5709 -2.7894 -1.9589
18669SOL     OW57427   9.040   8.292   5.839  0.5468 -0.5342 -0.5388
18669SOL    HW157428   9.067   8.278   5.930  0.0188 -2.4227 -0.6331
18669SOL    HW257429   9.119   8.277   5.788  0.5665 -0.6910 -0.4640
18670SOL     OW57430   5.440   1.796   8.320  0.5383 -0.5223 -0.0554
18670SOL    HW157431   5.521   1.811   8.271  0.0883  0.4449 -0.5440
18670SOL    HW257432   5.373   1.784   8.252  0.2457 -1.2299  0.3395
18671SOL     OW57433   8.882   4.521   4.553 -0.7075  0.1502  0.1181
18671SOL    HW157434   8.931   4.557   4.479  0.2887 -0.8404  0.2856
18671SOL    HW257435   8.866   4.597   4.609  1.1871  0.4213  0.3636
18672SOL     OW57436   2.462   1.582   6.237 -0.0314 -0.1663 -0.2047
18672SOL    HW157437   2.493   1.649   6.176 -1.3134  0.9991  0.3578
18672SOL    HW257438   2.414   1.520   6.182 -0.6592  0.5480 -0.4965
18673SOL     OW57439   8.603   8.094   3.917  0.5420 -0.3049 -0.2963
18673SOL    HW157440   8.596   8.060   3.828  3.4653 -0.7455 -0.4786
18673SOL    HW257441   8.599   8.016   3.973  2.2009 -0.4770 -0.3567
18674SOL     OW57442   8.377   0.230   6.504 -0.0210 -0.1546 -0.4780
18674SOL    HW157443   8.428   0.303   6.470 -0.2672 -0.0004 -0.5179
18674SOL    HW257444   8.343   0.186   6.426 -0.7837  0.3384 -0.4398
18675SOL     OW57445   4.399   4.859   0.641 -0.1701  0.2979 -0.5308
18675SOL    HW157446   4.441   4.888   0.560  3.1756 -1.0670  0.4917
18675SOL    HW257447   4.431   4.919   0.708 -2.2221  0.9129 -0.0387
18676SOL     OW57448   6.873   3.756   0.155 -0.0515  0.0402  0.1870
18676SOL    HW157449   6.882   3.750   0.060  2.1508  1.2699  0.2654
18676SOL    HW257450   6.944   3.813   0.183 -1.5800  0.9946  2.4364
18677SOL     OW57451   6.242   5.529   2.239 -0.1518 -0.1591 -0.2783
18677SOL    HW157452   6.263   5.602   2.179  0.1557 -1.5843 -2.0058
18677SOL    HW257453   6.150   5.508   2.219  0.6525 -2.2915 -2.2465
18678SOL     OW57454   0.656   8.691   7.420  0.1471  0.7451  0.4007
18678SOL    HW157455   0.628   8.714   7.332  0.1795 -0.5233  0.0392
18678SOL    HW257456   0.748   8.719   7.424  0.6506 -0.6490 -0.5584
18679SOL     OW57457   3.780   7.179   1.407  0.3952 -0.2972 -0.1087
18679SOL    HW157458   3.713   7.190   1.339 -1.0109  0.7763  1.3957
18679SOL    HW257459   3.814   7.267   1.422  2.0208 -0.7814 -0.6489
18680SOL     OW57460   2.012   6.612   2.936  0.1618  0.2424  0.5552
18680SOL    HW157461   2.097   6.582   2.966  1.0366 -0.4915 -2.3738
18680SOL    HW257462   1.951   6.544   2.964  0.5663  0.5651  2.3048
18681SOL     OW57463   8.230   0.400   8.699  0.2107  0.2438  0.2995
18681SOL    HW157464   8.210   0.446   8.780 -3.0840 -1.0168  0.3482
18681SOL    HW257465   8.189   0.314   8.710 -0.7099  0.1770 -2.8328
18682SOL     OW57466   1.628   4.685   2.488 -0.3515  0.2754  0.2258
18682SOL    HW157467   1.603   4.750   2.422 -1.0319  2.0828  2.1473
18682SOL    HW257468   1.663   4.736   2.560  0.3622 -1.6330  1.3079
18683SOL     OW57469   0.535   9.214   3.954  1.3027 -0.3176  0.6120
18683SOL    HW157470   0.521   9.306   3.930  1.7846 -0.4324 -0.1159
18683SOL    HW257471   0.521   9.165   3.873 -0.9654 -1.1173  1.4077
18684SOL     OW57472   7.311   6.383   8.965  0.0311  0.1827 -0.9796
18684SOL    HW157473   7.406   6.377   8.960  0.1168  0.1989  0.3658
18684SOL    HW257474   7.280   6.315   8.905  0.9125 -0.9834 -0.1509
18685SOL     OW57475   5.982   7.478   3.800  0.1122 -0.2868 -0.3389
18685SOL    HW157476   6.040   7.465   3.876 -0.5644 -0.2488  0.1975
18685SOL    HW257477   5.991   7.570   3.778  0.8548 -0.4550 -0.7615
18686SOL     OW57478   6.546   3.353   8.426  0.1925  0.4085  0.6018
18686SOL    HW157479   6.594   3.424   8.468  1.2062  1.2434 -1.7826
18686SOL    HW257480   6.614   3.299   8.384 -0.7795  0.7426 -1.5459
18687SOL     OW57481   4.531   7.146   7.302  0.0908  0.3007 -0.7149
18687SOL    HW157482   4.497   7.060   7.325 -1.8506  1.3271  0.4397
18687SOL    HW257483   4.465   7.185   7.245  1.4019  0.6978 -2.0546
18688SOL     OW57484   6.435   5.975   7.467 -0.2498 -1.0270  0.2093
18688SOL    HW157485   6.453   6.050   7.524 -0.6325 -0.3312 -0.5679
18688SOL    HW257486   6.399   5.909   7.526 -0.2429 -0.4721  0.8525
18689SOL     OW57487   0.796   1.111   1.312 -0.4565 -0.9514  0.6422
18689SOL    HW157488   0.788   1.206   1.318 -1.2218 -0.9568 -0.1514
18689SOL    HW257489   0.797   1.082   1.404  0.6719 -0.1279  0.9159
18690SOL     OW57490   5.330   4.937   3.325  0.4181 -0.0555 -0.1527
18690SOL    HW157491   5.401   4.906   3.269  0.8445  0.4016  0.1294
18690SOL    HW257492   5.250   4.916   3.276  0.7701 -0.0228 -0.7467
18691SOL     OW57493   0.606   6.638   6.320  0.1808 -0.5230 -0.1090
18691SOL    HW157494   0.526   6.660   6.366 -0.4475 -2.5427 -0.1599
18691SOL    HW257495   0.656   6.585   6.382  0.0600 -1.8826 -1.1351
18692SOL     OW57496   0.395   3.697   6.894 -1.0095  0.3812  0.6495
18692SOL    HW157497   0.370   3.618   6.941 -0.3927 -0.1931  0.0220
18692SOL    HW257498   0.366   3.682   6.804  4.0470 -1.6633 -0.9514
18693SOL     OW57499   4.700   0.433   3.442  1.1268  0.1199 -0.5276
18693SOL    HW157500   4.744   0.370   3.385  1.4569  1.1649 -1.4585
18693SOL    HW257501   4.769   0.469   3.497  0.8245 -0.8133  0.4932
18694SOL     OW57502   4.716   2.610   6.644 -0.5351 -0.1107 -0.0400
18694SOL    HW157503   4.776   2.535   6.644  0.4326  0.6406 -0.3490
18694SOL    HW257504   4.709   2.634   6.551 -1.0589  0.0099  0.0299
18695SOL     OW57505   2.175   2.879   0.474  0.3395 -0.1103 -0.5356
18695SOL    HW157506   2.108   2.817   0.504  0.4703 -0.0304 -0.0688
18695SOL    HW257507   2.255   2.850   0.517  0.4010  0.3787 -0.3101
18696SOL     OW57508   9.026   9.051   4.299  0.1456 -0.5293  0.5247
18696SOL    HW157509   9.057   8.972   4.255  0.5230 -0.8032  1.2691
18696SOL    HW257510   9.027   9.118   4.230  0.2110 -1.0766 -0.0129
18697SOL     OW57511   4.943   2.920   8.744  0.2477  0.1868  0.1204
18697SOL    HW157512   4.938   2.922   8.840  0.8176 -0.5087  0.1740
18697SOL    HW257513   5.029   2.957   8.723 -0.4122  1.6255 -0.2114
18698SOL     OW57514   6.939   4.797   6.401 -0.1231 -0.0080  0.2859
18698SOL    HW157515   6.977   4.884   6.384 -1.1456  0.0395 -2.1432
18698SOL    HW257516   7.015   4.739   6.412  0.5729  0.9792  0.9283
18699SOL     OW57517   5.545   9.052   1.992  0.4723  0.1289 -0.2160
18699SOL    HW157518   5.494   9.070   1.913  0.9049  1.4597 -0.2093
18699SOL    HW257519   5.480   9.022   2.056 -0.1450  0.7672 -0.5304
18700SOL     OW57520   1.094   5.086   4.538 -0.2733  0.2619  0.2303
18700SOL    HW157521   1.137   5.086   4.452 -0.8370  1.0610 -0.0627
18700SOL    HW257522   1.111   5.174   4.573 -0.4336  0.0923  0.7490
18701SOL     OW57523   7.345   4.911   4.374 -0.8953 -0.0132  0.1075
18701SOL    HW157524   7.276   4.915   4.308 -0.3937 -0.8898 -0.4939
18701SOL    HW257525   7.303   4.873   4.451 -1.1940 -0.1263 -0.1107
18702SOL     OW57526   8.534   6.424   7.653 -0.2526  0.1192  0.2908
18702SOL    HW157527   8.578   6.437   7.737  0.7142 -1.7502  0.1332
18702SOL    HW257528   8.570   6.342   7.620 -0.9400  0.5821 -1.7583
18703SOL     OW57529   8.925   4.516   5.911  0.2986  0.0624 -0.2949
18703SOL    HW157530   8.927   4.550   5.822  0.1905 -0.3908 -0.4746
18703SOL    HW257531   9.015   4.488   5.929  0.6261  1.3897  0.2361
18704SOL     OW57532   6.386   3.898   8.617  0.1455  0.0006 -0.0942
18704SOL    HW157533   6.403   3.809   8.649  1.1966  0.3168  0.2940
18704SOL    HW257534   6.429   3.902   8.532 -0.7526 -0.1579 -0.5649
18705SOL     OW57535   2.580   7.139   3.096 -0.1225  0.1844 -0.0045
18705SOL    HW157536   2.649   7.162   3.033 -0.4068 -0.0680 -0.4127
18705SOL    HW257537   2.499   7.141   3.045 -0.3131 -0.3983  0.2621
18706SOL     OW57538   2.097   4.353   7.514  0.0957  0.4743  0.0281
18706SOL    HW157539   2.080   4.269   7.470 -0.8219 -0.5239  2.1462
18706SOL    HW257540   2.011   4.383   7.542  0.6496  1.0243  1.2064
18707SOL     OW57541   0.156   5.681   3.325 -0.2288 -0.8073 -0.2887
18707SOL    HW157542   0.164   5.597   3.369 -1.3923 -0.2157  1.1132
18707SOL    HW257543   0.064   5.686   3.299 -0.5323  0.6112  0.9198
18708SOL     OW57544   7.929   6.002   1.780 -0.0878  0.4503  0.3117
18708SOL    HW157545   7.916   5.911   1.804 -1.5130  0.6285  0.2964
18708SOL    HW257546   7.937   6.048   1.864  0.7578  0.3074  0.3177
18709SOL     OW57547   3.192   2.014   6.635 -0.1126 -0.1942  0.3714
18709SOL    HW157548   3.164   2.025   6.545 -2.0071  0.6857  1.0263
18709SOL    HW257549   3.137   1.944   6.670  0.9765 -0.9100  0.7168
18710SOL     OW57550   4.896   0.545   8.063  0.0337 -0.7607  0.2522
18710SOL    HW157551   4.928   0.612   8.124 -0.9647 -1.0510  1.1372
18710SOL    HW257552   4.973   0.518   8.014  0.5961  0.4913  0.4114
18711SOL     OW57553   7.539   0.682   4.474 -0.0593 -0.2506 -0.0673
18711SOL    HW157554   7.548   0.601   4.524 -0.0039 -0.3657 -0.2675
18711SOL    HW257555   7.575   0.749   4.532  0.1202 -0.4027 -0.0019
18712SOL     OW57556   1.175   8.375   2.797 -0.0714  0.0713  0.4102
18712SOL    HW157557   1.116   8.315   2.752  0.7087 -1.2608  1.1088
18712SOL    HW257558   1.196   8.331   2.880  2.9371 -0.1843 -0.3571
18713SOL     OW57559   0.246   6.999   5.535  0.3928 -0.6807 -0.2378
18713SOL    HW157560   0.337   6.977   5.553  0.9702  0.9598 -0.9459
18713SOL    HW257561   0.200   6.915   5.535  1.8143 -1.4899  0.5544
18714SOL     OW57562   1.636   1.248   4.385 -0.0728 -0.4755  0.1954
18714SOL    HW157563   1.653   1.329   4.433 -0.8420 -0.3636  0.2985
18714SOL    HW257564   1.721   1.221   4.351  0.5608 -0.7337  1.8968
18715SOL     OW57565   8.135   6.113   6.377  0.2143  0.1357  0.2507
18715SOL    HW157566   8.147   6.041   6.315 -1.8841  1.4905 -1.9589
18715SOL    HW257567   8.043   6.105   6.404  0.3714  1.1350  1.1130
18716SOL     OW57568   7.568   3.481   1.313 -0.0356 -0.4117  0.2283
18716SOL    HW157569   7.492   3.461   1.258  0.0886 -1.5844  0.4544
18716SOL    HW257570   7.572   3.577   1.314 -1.7616 -0.2997  0.5424
18717SOL     OW57571   2.260   2.307   6.421  0.1644 -0.0994  0.4510
18717SOL    HW157572   2.331   2.297   6.485 -0.5000  0.7832  1.3550
18717SOL    HW257573   2.305   2.308   6.336  1.3350  1.2245  1.0492
18718SOL     OW57574   6.783   0.957   4.861 -0.4120  0.2766  0.5114
18718SOL    HW157575   6.713   0.900   4.894 -2.5416  2.5669  0.2164
18718SOL    HW257576   6.745   0.998   4.783  2.3982 -0.6148 -1.4840
18719SOL     OW57577   6.759   0.550   4.792  0.2555 -0.2254  0.0347
18719SOL    HW157578   6.807   0.633   4.791 -1.7761  1.0580 -1.7961
18719SOL    HW257579   6.670   0.574   4.767 -0.4645 -2.9534 -0.3335
18720SOL     OW57580   6.893   2.731   7.733 -0.0514  0.3411 -0.4227
18720SOL    HW157581   6.925   2.701   7.818 -2.4249 -0.7618  0.1651
18720SOL    HW257582   6.864   2.651   7.689 -0.8203  1.1360 -1.4008
18721SOL     OW57583   7.006   3.368   0.880 -0.1167 -0.0174 -0.2576
18721SOL    HW157584   7.091   3.326   0.866 -1.1329 -1.6959 -1.8229
18721SOL    HW257585   6.988   3.354   0.973  1.2721  0.3119  0.0835
18722SOL     OW57586   0.877   4.538   6.984 -0.0872 -0.0929 -0.0099
18722SOL    HW157587   0.866   4.470   7.050 -0.7801 -0.4210 -0.4507
18722SOL    HW257588   0.899   4.491   6.904  1.7761  0.3706  0.1913
18723SOL     OW57589   4.930   1.806   3.700 -0.5078  0.5450 -0.2985
18723SOL    HW157590   5.019   1.777   3.722 -0.7757 -0.4184 -0.4074
18723SOL    HW257591   4.875   1.769   3.769 -0.7187  2.0033  0.3466
18724SOL     OW57592   6.332   1.876   0.880  0.0168  0.0096 -0.0801
18724SOL    HW157593   6.327   1.781   0.891 -0.8648  0.0429 -0.1036
18724SOL    HW257594   6.418   1.899   0.915  0.5772 -0.8887 -0.8146
18725SOL     OW57595   4.050   7.848   1.512  0.2168 -0.0383  0.3032
18725SOL    HW157596   4.066   7.942   1.524 -0.8857  0.1075  0.7270
18725SOL    HW257597   3.959   7.835   1.540  0.2642 -1.1858 -0.0231
18726SOL     OW57598   6.849   7.959   7.491 -0.6082 -0.2102  0.2056
18726SOL    HW157599   6.846   7.888   7.555 -2.9269  0.6135  1.0669
18726SOL    HW257600   6.903   8.027   7.532  1.0051 -1.0924 -0.3249
18727SOL     OW57601   3.342   5.083   4.015  0.0261  0.0157 -0.1926
18727SOL    HW157602   3.302   5.160   4.054 -2.0977 -1.1752  0.1649
18727SOL    HW257603   3.389   5.041   4.087  0.4967  0.5213 -0.1963
18728SOL     OW57604   4.008   4.439   8.779  1.1437 -0.1085  0.3145
18728SOL    HW157605   3.952   4.467   8.851  0.9704 -1.5212  0.7692
18728SOL    HW257606   4.042   4.520   8.742 -3.6548  1.2130 -2.0832
18729SOL     OW57607   5.590   0.938   7.397 -0.5910  0.1675  0.1006
18729SOL    HW157608   5.662   0.875   7.403 -2.0376 -1.4390  2.1998
18729SOL    HW257609   5.628   1.020   7.429  1.0367  0.1782 -1.6474
18730SOL     OW57610   3.030   3.672   2.238 -0.5603 -0.5203  0.7914
18730SOL    HW157611   3.017   3.617   2.316 -1.4052  0.1342  1.1208
18730SOL    HW257612   2.983   3.753   2.258 -1.1889 -0.5263 -0.5887
18731SOL     OW57613   6.570   6.475   0.336  0.2882 -0.2277 -0.0335
18731SOL    HW157614   6.524   6.452   0.255  1.7273 -0.9860 -0.6623
18731SOL    HW257615   6.508   6.452   0.405 -2.1890  3.1024 -0.8716
18732SOL     OW57616   8.101   2.149   4.473 -0.0739 -0.0806  0.2182
18732SOL    HW157617   8.125   2.192   4.391  2.5662  0.8129  1.3430
18732SOL    HW257618   8.045   2.213   4.518  1.5448  1.0952  0.6649
18733SOL     OW57619   0.066   7.292   6.269 -0.4017 -0.5136  0.2447
18733SOL    HW157620   0.082   7.385   6.254 -0.2771 -0.6886 -0.7367
18733SOL    HW257621   0.153   7.256   6.286 -0.2069 -0.7670 -1.1992
18734SOL     OW57622   8.371   8.892   9.061 -0.4278  0.4060  0.4511
18734SOL    HW157623   8.298   8.904   9.122 -0.2771  0.3892  0.6353
18734SOL    HW257624   8.390   8.799   9.064  0.4175  0.5917  1.3531
18735SOL     OW57625   4.102   3.273   0.357  0.0710 -0.1793 -0.6688
18735SOL    HW157626   4.178   3.302   0.406 -0.6999  1.1986 -0.2124
18735SOL    HW257627   4.137   3.240   0.274  1.1588  0.5146 -0.5054
18736SOL     OW57628   0.234   4.230   6.467  0.0410  0.3697  0.3484
18736SOL    HW157629   0.267   4.141   6.480  0.0769  0.1762 -0.9105
18736SOL    HW257630   0.139   4.221   6.472  0.0735  0.4143  1.0767
18737SOL     OW57631   3.475   7.630   7.763  0.3170  0.1701  0.3366
18737SOL    HW157632   3.459   7.718   7.796 -1.7264 -0.6250  1.7389
18737SOL    HW257633   3.553   7.600   7.810  0.8803  1.1285  0.0236
18738SOL     OW57634   8.540   4.357   1.990 -0.1755  0.4801  0.0605
18738SOL    HW157635   8.614   4.374   1.932  1.2613 -1.5470  1.1650
18738SOL    HW257636   8.486   4.294   1.943  0.7351 -0.7944  0.6800
18739SOL     OW57637   0.166   8.517   6.848 -0.0958  0.3639  0.2787
18739SOL    HW157638   0.141   8.598   6.804  1.7085  0.5763 -0.4288
18739SOL    HW257639   0.091   8.496   6.904 -0.0795  3.2679  1.5502
18740SOL     OW57640   6.406   8.640   1.621  0.0751  0.5663  0.2747
18740SOL    HW157641   6.402   8.545   1.634 -0.5452  0.6780  0.9366
18740SOL    HW257642   6.320   8.664   1.587  1.1197  0.5218 -2.6155
18741SOL     OW57643   6.316   7.879   1.753 -0.1646  0.1384 -0.0397
18741SOL    HW157644   6.364   7.960   1.736 -0.9197  0.4145 -0.9213
18741SOL    HW257645   6.266   7.897   1.833  2.2706 -0.6579  1.7798
18742SOL     OW57646   4.082   4.201   5.554  0.5739 -0.3055  0.0282
18742SOL    HW157647   4.018   4.129   5.550  0.6266 -0.3262 -0.7130
18742SOL    HW257648   4.145   4.180   5.485  0.1678  0.8383 -0.7297
18743SOL     OW57649   7.796   1.504   9.250 -0.2026  0.0963  0.3540
18743SOL    HW157650   7.840   1.554   9.182  0.2156 -0.3210  0.3143
18743SOL    HW257651   7.703   1.524   9.237 -0.1095  0.2135 -0.1828
18744SOL     OW57652   7.915   2.913   7.139  0.1716 -0.4007  0.8224
18744SOL    HW157653   7.868   2.830   7.144 -0.8168  0.0005 -0.8700
18744SOL    HW257654   7.868   2.963   7.073  2.4645  0.3659 -0.3605
18745SOL     OW57655   5.000   6.952   4.477 -0.0446  0.4422  0.2429
18745SOL    HW157656   5.095   6.954   4.484  0.0839 -1.5730 -0.3491
18745SOL    HW257657   4.983   6.967   4.384 -0.1727 -1.2350 -0.0231
18746SOL     OW57658   6.721   2.898   1.057  0.1494 -1.0776  0.5153
18746SOL    HW157659   6.632   2.913   1.090  0.1764  0.0982  0.0948
18746SOL    HW257660   6.713   2.908   0.962  0.9646  0.2979  0.5845
18747SOL     OW57661   8.512   2.416   2.277  0.5415  0.2552 -0.4278
18747SOL    HW157662   8.516   2.511   2.270  0.8576  0.2984  0.2539
18747SOL    HW257663   8.602   2.387   2.263  0.5649  0.1074  0.0146
18748SOL     OW57664   7.434   3.098   3.092  0.1366  0.0491 -0.4418
18748SOL    HW157665   7.397   3.021   3.048  0.5926  0.8830 -2.3989
18748SOL    HW257666   7.412   3.171   3.034  1.0492  1.1834  0.5896
18749SOL     OW57667   1.556   5.431   1.143 -0.3621 -0.0384  0.0288
18749SOL    HW157668   1.471   5.388   1.152 -0.8951  1.1291  0.9358
18749SOL    HW257669   1.565   5.447   1.050 -0.7376 -0.9425 -0.1777
18750SOL     OW57670   3.210   7.002   7.073  0.1345  0.7908 -0.5048
18750SOL    HW157671   3.166   7.027   7.154  0.0117  2.5447 -1.0807
18750SOL    HW257672   3.209   7.081   7.019 -0.0562 -0.4090 -2.3631
18751SOL     OW57673   5.778   2.280   7.515 -0.1494 -0.5285 -0.0107
18751SOL    HW157674   5.834   2.357   7.506 -1.0911  0.1093 -0.5249
18751SOL    HW257675   5.710   2.306   7.578 -0.8441 -0.7088 -0.6725
18752SOL     OW57676   1.508   9.190   8.854 -0.1034  0.3729 -0.1228
18752SOL    HW157677   1.511   9.113   8.796  2.9277  1.1356 -1.1521
18752SOL    HW257678   1.568   9.168   8.926  0.7108  1.7044 -0.3750
18753SOL     OW57679   5.509   4.924   8.471  0.2143 -0.2789 -0.4390
18753SOL    HW157680   5.529   4.834   8.498  1.5006  0.2190  0.3548
18753SOL    HW257681   5.420   4.920   8.437  0.4969 -1.9885 -1.0601
18754SOL     OW57682   5.446   3.032   2.376  0.5057 -0.5807  0.2825
18754SOL    HW157683   5.466   3.040   2.469 -0.2054 -1.2610  0.5010
18754SOL    HW257684   5.360   2.990   2.373  0.3568 -0.2364 -0.6778
18755SOL     OW57685   6.103   6.166   3.081 -0.3198 -0.0189  0.1522
18755SOL    HW157686   6.026   6.130   3.038 -0.7101  0.0718  0.7621
18755SOL    HW257687   6.077   6.177   3.173  1.0221 -1.8262  0.8233
18756SOL     OW57688   6.915   6.191   9.216  0.3079 -0.4256  0.3032
18756SOL    HW157689   6.919   6.251   9.290 -0.1866 -0.5560  0.4367
18756SOL    HW257690   6.942   6.244   9.141 -0.2779  0.0102  0.3966
18757SOL     OW57691   7.127   5.429   5.423 -0.2734 -0.5788 -0.0542
18757SOL    HW157692   7.041   5.443   5.462 -0.3271  0.0296 -0.3689
18757SOL    HW257693   7.112   5.434   5.329 -0.1223 -1.9055 -0.1665
18758SOL     OW57694   5.052   5.136   5.665 -0.3269  0.7636 -0.1813
18758SOL    HW157695   5.080   5.211   5.717 -0.1036 -0.6974  1.9203
18758SOL    HW257696   5.097   5.061   5.705 -0.8923 -0.5725 -1.9108
18759SOL     OW57697   4.087   9.215   6.137  0.0903 -0.8494 -0.3063
18759SOL    HW157698   4.088   9.133   6.089 -2.0148 -1.0184 -0.1494
18759SOL    HW257699   4.018   9.267   6.096  1.4873  0.9496 -0.5216
18760SOL     OW57700   1.393   5.835   1.873 -0.2810  0.7835  0.1019
18760SOL    HW157701   1.301   5.862   1.873 -0.8553 -1.0041  0.5494
18760SOL    HW257702   1.417   5.831   1.966 -0.1771 -0.0285  0.0503
18761SOL     OW57703   4.258   5.458   1.292 -0.5887  0.0845 -0.3591
18761SOL    HW157704   4.254   5.548   1.259 -0.0908  0.1485 -0.2510
18761SOL    HW257705   4.349   5.431   1.277 -0.4935 -0.0709  0.4610
18762SOL     OW57706   0.298   8.229   0.155  0.4132  0.1390 -0.1304
18762SOL    HW157707   0.390   8.202   0.160  0.8638  1.5083 -0.5581
18762SOL    HW257708   0.292   8.276   0.072 -0.2136  1.6695  0.7492
18763SOL     OW57709   8.666   2.722   8.503  0.2537  0.1706  0.7095
18763SOL    HW157710   8.677   2.642   8.554 -0.3815 -0.7124 -0.4783
18763SOL    HW257711   8.584   2.760   8.534  0.9870  0.8706  1.8897
18764SOL     OW57712   2.812   9.100   2.442 -0.2648 -0.1604  0.3304
18764SOL    HW157713   2.795   9.036   2.372 -0.5860  0.4864 -0.1866
18764SOL    HW257714   2.906   9.117   2.435 -0.4953  0.7885 -0.7247
18765SOL     OW57715   2.272   7.717   4.074 -0.2201  0.3972 -0.1050
18765SOL    HW157716   2.260   7.649   4.007 -1.3658  2.0189 -1.6360
18765SOL    HW257717   2.278   7.799   4.024 -1.4667  1.7173  1.7712
18766SOL     OW57718   4.785   1.771   3.451 -0.2733 -0.4663 -0.0684
18766SOL    HW157719   4.866   1.781   3.401 -0.6038  0.7930 -0.3798
18766SOL    HW257720   4.813   1.769   3.543  0.1363 -0.3247 -0.1893
18767SOL     OW57721   8.827   1.967   8.028 -1.0031 -0.1432 -0.3760
18767SOL    HW157722   8.854   1.952   8.119  1.4385 -0.8804 -1.1563
18767SOL    HW257723   8.851   2.058   8.011 -1.7237  0.0820 -0.2186
18768SOL     OW57724   2.256   8.242   6.717  0.1367  0.2493 -0.1853
18768SOL    HW157725   2.293   8.240   6.805  0.5522 -0.0232 -0.3586
18768SOL    HW257726   2.205   8.161   6.711 -1.1006  0.9765  0.3036
18769SOL     OW57727   5.433   5.603   3.477  0.7104 -0.2808 -0.0432
18769SOL    HW157728   5.489   5.679   3.492  1.6818 -1.0565  0.3288
18769SOL    HW257729   5.413   5.606   3.383  1.6545 -0.1932 -0.2433
18770SOL     OW57730   4.099   6.061   8.069 -0.2302 -0.8452  0.4360
18770SOL    HW157731   4.070   5.972   8.052 -0.5860 -0.7304  0.4429
18770SOL    HW257732   4.073   6.111   7.992 -1.6315 -0.3785  1.1666
18771SOL     OW57733   1.824   3.917   5.962 -0.3568  0.4488 -0.0355
18771SOL    HW157734   1.738   3.891   5.994  0.1340 -0.7641  0.3890
18771SOL    HW257735   1.831   4.010   5.982 -0.3421 -0.0862  2.8997
18772SOL     OW57736   7.949   8.570   7.650 -0.0912 -0.0221  0.5891
18772SOL    HW157737   8.033   8.551   7.609 -0.3371 -1.3386  0.6575
18772SOL    HW257738   7.972   8.622   7.727  0.4763  1.3815 -0.4843
18773SOL     OW57739   1.114   9.073   4.911  0.1417  0.0881 -0.2055
18773SOL    HW157740   1.148   9.053   4.824  0.5483 -0.9645  0.1668
18773SOL    HW257741   1.179   9.131   4.949  0.3255 -0.0158 -0.3579
18774SOL     OW57742   6.959   1.621   0.356 -0.2993  0.0631  0.1756
18774SOL    HW157743   7.042   1.604   0.310 -0.9736 -4.4319  0.1388
18774SOL    HW257744   6.985   1.663   0.438  1.7355  1.0794 -0.9279
18775SOL     OW57745   1.653   0.601   7.619  0.1349 -0.5042 -0.5522
18775SOL    HW157746   1.670   0.619   7.527 -0.2363  0.8446 -0.3672
18775SOL    HW257747   1.670   0.507   7.628  0.3928 -0.6107 -1.9367
18776SOL     OW57748   4.662   2.632   2.615  0.4249 -0.7599 -0.0525
18776SOL    HW157749   4.685   2.541   2.630  0.7933 -0.5859  0.4713
18776SOL    HW257750   4.738   2.682   2.646 -0.9747 -0.1184  2.6404
18777SOL     OW57751   0.328   7.109   1.343  0.0824  0.5885 -0.3695
18777SOL    HW157752   0.342   7.105   1.437  1.0119  0.6284 -0.4950
18777SOL    HW257753   0.340   7.018   1.313 -2.1023  0.2044 -0.2216
18778SOL     OW57754   2.375   0.095   5.639  0.0610 -0.3990  0.1889
18778SOL    HW157755   2.385   0.005   5.608  0.7435 -0.4137  0.4422
18778SOL    HW257756   2.421   0.148   5.575 -0.1782 -0.2425  0.1443
18779SOL     OW57757   0.356   5.260   2.215  0.5572 -0.0863  0.4461
18779SOL    HW157758   0.300   5.329   2.249 -0.0194 -0.8023  1.0011
18779SOL    HW257759   0.337   5.184   2.271 -0.6113 -1.3948 -1.5612
18780SOL     OW57760   5.660   3.876   3.732 -0.3845  0.3682  0.0266
18780SOL    HW157761   5.622   3.801   3.777  0.2953  0.6442  1.0872
18780SOL    HW257762   5.605   3.950   3.757 -0.5686  0.3651 -0.3631
18781SOL     OW57763   6.528   3.835   4.141  0.0960 -0.6160  0.0947
18781SOL    HW157764   6.541   3.880   4.058 -1.1876  0.7517  0.5781
18781SOL    HW257765   6.561   3.896   4.207 -1.0219 -0.6509  0.7200
18782SOL     OW57766   1.348   6.803   3.291  0.1432 -0.2544 -0.1481
18782SOL    HW157767   1.424   6.759   3.253  1.3693  0.6039  1.2336
18782SOL    HW257768   1.385   6.869   3.349 -1.6098 -1.2761  2.3149
18783SOL     OW57769   1.035   3.962   3.170  0.3976  0.6285  0.2823
18783SOL    HW157770   0.958   4.010   3.198 -0.4614  0.3057 -1.3845
18783SOL    HW257771   1.104   4.028   3.161 -0.1809  1.2035  0.0694
18784SOL     OW57772   4.227   3.723   6.264 -0.2674  0.3148  0.0095
18784SOL    HW157773   4.137   3.691   6.276 -0.2280 -0.4444 -1.4952
18784SOL    HW257774   4.222   3.816   6.288 -1.6448  0.4816 -0.7943
18785SOL     OW57775   1.537   2.451   3.335  0.2487  0.3143  0.4987
18785SOL    HW157776   1.554   2.439   3.242  0.4716  0.0172  0.5767
18785SOL    HW257777   1.450   2.412   3.349  1.1656 -1.7216  0.8406
18786SOL     OW57778   4.326   2.821   6.844 -0.2476 -0.2107  0.3640
18786SOL    HW157779   4.291   2.774   6.919 -0.6203 -0.6215 -0.0622
18786SOL    HW257780   4.356   2.905   6.880 -0.7136 -0.2751  0.9135
18787SOL     OW57781   7.364   3.956   2.317  0.3005 -0.1915  0.3853
18787SOL    HW157782   7.316   3.887   2.362 -1.9505  1.2401  0.3199
18787SOL    HW257783   7.422   3.993   2.385 -0.6941 -0.1783  1.2427
18788SOL     OW57784   8.072   0.408   3.610 -0.7165 -0.3013 -0.1072
18788SOL    HW157785   8.010   0.399   3.537 -1.0451  0.3624  0.0866
18788SOL    HW257786   8.105   0.319   3.623  0.6214 -0.1810 -2.1690
18789SOL     OW57787   1.213   2.538   2.744  0.3407 -0.6219 -0.0274
18789SOL    HW157788   1.284   2.598   2.771 -1.0488  1.0632  0.0615
18789SOL    HW257789   1.164   2.588   2.678  0.4936 -2.6005 -1.7593
18790SOL     OW57790   4.261   2.491   7.491  0.1820 -0.6833 -0.6051
18790SOL    HW157791   4.249   2.436   7.569  0.3567  1.3181  0.8905
18790SOL    HW257792   4.350   2.470   7.461 -0.5409 -2.8396 -1.4485
18791SOL     OW57793   8.112   5.131   8.773 -0.3041 -0.1299 -0.4340
18791SOL    HW157794   8.192   5.182   8.786 -0.7467 -0.0016  2.2341
18791SOL    HW257795   8.043   5.184   8.814 -1.3916 -1.2211 -0.8112
18792SOL     OW57796   3.287   5.753   5.311 -0.0957 -0.3361 -0.1385
18792SOL    HW157797   3.287   5.848   5.299  1.6243 -0.3119 -0.1915
18792SOL    HW257798   3.377   5.732   5.336 -0.3992 -1.9820 -0.3059
18793SOL     OW57799   2.623   2.354   2.315 -0.8419  0.0373  0.4851
18793SOL    HW157800   2.612   2.266   2.350  0.8894 -0.5182 -0.2307
18793SOL    HW257801   2.535   2.381   2.290 -1.4834 -1.2690  1.1952
18794SOL     OW57802   1.056   5.303   4.800  0.1144 -0.3161  0.0453
18794SOL    HW157803   1.025   5.309   4.710  0.0672 -1.3211 -0.0181
18794SOL    HW257804   0.982   5.331   4.854  0.4088  1.0939 -0.2402
18795SOL     OW57805   5.754   8.371   3.839 -0.0854  0.1849  0.5153
18795SOL    HW157806   5.678   8.331   3.798  0.6586 -0.1022 -0.6282
18795SOL    HW257807   5.813   8.298   3.856  0.2842  0.5049  0.6134
18796SOL     OW57808   6.874   7.114   0.443 -0.0114 -0.1854  0.3925
18796SOL    HW157809   6.949   7.079   0.491  0.9150 -0.4883 -1.1878
18796SOL    HW257810   6.909   7.189   0.395 -0.6083 -0.5645 -0.6694
18797SOL     OW57811   3.903   4.365   7.669 -0.3440 -0.3550 -0.6036
18797SOL    HW157812   3.966   4.372   7.598 -0.5606 -1.7657 -0.9720
18797SOL    HW257813   3.945   4.309   7.733 -0.6647 -0.1429 -0.2044
18798SOL     OW57814   4.799   3.081   8.182 -0.0940 -0.5663 -0.0179
18798SOL    HW157815   4.877   3.071   8.238  0.7132 -1.9279 -1.3015
18798SOL    HW257816   4.820   3.154   8.124 -0.1039 -0.4353  0.1417
18799SOL     OW57817   5.693   7.737   7.986 -0.0824 -0.1774  0.1846
18799SOL    HW157818   5.655   7.683   8.055 -1.3044  0.3321 -0.0586
18799SOL    HW257819   5.623   7.797   7.961  0.6182  0.2288 -0.8960
18800SOL     OW57820   4.397   2.011   1.888 -0.1019 -0.3273  0.5066
18800SOL    HW157821   4.476   1.985   1.840 -1.4651  0.6759 -2.5352
18800SOL    HW257822   4.411   2.103   1.910 -0.5895  0.0402 -0.6034
18801SOL     OW57823   7.963   2.716   9.219  0.0527  0.7201 -0.2604
18801SOL    HW157824   8.008   2.719   9.134  0.5716 -1.9602 -0.1788
18801SOL    HW257825   7.901   2.643   9.210  0.9205 -0.3737  2.0010
18802SOL     OW57826   8.319   6.258   5.400  0.3550  0.1486  0.5746
18802SOL    HW157827   8.242   6.312   5.385 -0.5059 -1.2305 -0.1401
18802SOL    HW257828   8.379   6.314   5.449 -0.6151  1.6374  0.1053
18803SOL     OW57829   6.331   7.790   1.472  0.9323  0.3864  0.2686
18803SOL    HW157830   6.395   7.727   1.503 -0.5825 -0.9661  0.7404
18803SOL    HW257831   6.307   7.841   1.549  0.4627  0.0074  0.3733
18804SOL     OW57832   1.955   6.216   7.933 -0.6244  0.1457  0.2497
18804SOL    HW157833   1.908   6.255   7.859 -2.5346 -1.6586  0.3943
18804SOL    HW257834   1.952   6.122   7.916  2.5488 -0.1006  0.6043
18805SOL     OW57835   1.152   7.067   4.385 -0.1768 -0.5092  0.1911
18805SOL    HW157836   1.214   7.140   4.377 -1.2765  0.4471  0.1399
18805SOL    HW257837   1.138   7.038   4.295  2.0155 -2.3557  0.3582
18806SOL     OW57838   4.731   2.324   1.005  0.0065 -0.4207  0.4613
18806SOL    HW157839   4.707   2.258   0.940  1.4345  0.5141 -1.1036
18806SOL    HW257840   4.784   2.387   0.956 -0.1788  1.1700  2.2077
18807SOL     OW57841   4.664   6.757   5.183 -0.8352 -0.4343  0.0994
18807SOL    HW157842   4.713   6.727   5.259 -2.0330  0.5716  1.3382
18807SOL    HW257843   4.573   6.760   5.212 -0.9935  3.1548 -0.2040
18808SOL     OW57844   3.350   8.715   4.169 -0.1582 -0.5116  0.1085
18808SOL    HW157845   3.276   8.770   4.144 -0.0356  0.7661  2.3317
18808SOL    HW257846   3.310   8.636   4.206 -0.5360  0.6766  2.4237
18809SOL     OW57847   2.082   7.398   6.134 -0.2648 -0.3188  0.1165
18809SOL    HW157848   1.987   7.402   6.144 -0.1706 -1.1483  1.7268
18809SOL    HW257849   2.102   7.305   6.123  0.3809 -0.1786  0.0217
18810SOL     OW57850   6.157   2.113   2.145  0.1994  0.0231  0.0764
18810SOL    HW157851   6.082   2.055   2.156  0.1779 -0.4388 -2.1224
18810SOL    HW257852   6.202   2.111   2.230 -0.2289 -2.6022  0.3092
18811SOL     OW57853   0.943   6.129   4.073  0.2737  0.3026  0.5706
18811SOL    HW157854   0.940   6.214   4.030  1.0405  0.1406  0.1842
18811SOL    HW257855   1.032   6.097   4.058 -0.8200 -1.9495 -1.9995
18812SOL     OW57856   5.167   6.169   7.954  0.5439 -0.1312  0.5009
18812SOL    HW157857   5.162   6.131   7.866 -0.5291 -0.2703  0.6091
18812SOL    HW257858   5.134   6.100   8.011 -0.0677  0.4471  0.8561
18813SOL     OW57859   3.288   7.249   2.451  0.5149 -0.3770 -0.9453
18813SOL    HW157860   3.327   7.198   2.380  1.6129 -2.4199  1.0081
18813SOL    HW257861   3.200   7.211   2.462  0.3323 -0.0383 -1.1960
18814SOL     OW57862   5.306   5.736   4.739 -0.1071  0.4287 -0.6666
18814SOL    HW157863   5.387   5.699   4.774 -0.1698  0.2167 -0.7399
18814SOL    HW257864   5.325   5.829   4.725 -0.8201  1.1135  2.2292
18815SOL     OW57865   7.942   7.470   0.180 -0.1599  0.2426 -0.1313
18815SOL    HW157866   8.009   7.522   0.225 -2.1229  2.9859 -0.1024
18815SOL    HW257867   7.873   7.533   0.160 -1.6777 -1.9462 -2.3461
18816SOL     OW57868   5.293   6.741   3.876 -0.5010  0.4882  0.4196
18816SOL    HW157869   5.218   6.699   3.833 -0.2339 -2.1057  2.2789
18816SOL    HW257870   5.255   6.814   3.924 -1.6870 -0.1143  0.4424
18817SOL     OW57871   6.923   6.511   0.883 -0.8327  0.4467  0.1853
18817SOL    HW157872   6.917   6.558   0.966  1.9899  0.3206  0.5569
18817SOL    HW257873   6.996   6.451   0.894 -1.5732 -0.9563 -1.7842
18818SOL     OW57874   2.806   5.830   3.949 -0.5516 -0.6953 -0.5027
18818SOL    HW157875   2.781   5.759   4.008 -0.0363 -0.0646  0.4877
18818SOL    HW257876   2.899   5.815   3.932  0.0923  0.8602  1.3363
18819SOL     OW57877   7.769   3.361   4.973 -0.4825 -0.1402 -0.5577
18819SOL    HW157878   7.844   3.417   4.991 -0.9607 -0.3455  2.4487
18819SOL    HW257879   7.693   3.419   4.980 -0.7447 -0.1360 -2.6613
18820SOL     OW57880   5.829   1.457   5.074  0.3659  0.3015 -0.5595
18820SOL    HW157881   5.827   1.552   5.086  2.9384  0.3617 -0.2152
18820SOL    HW257882   5.906   1.441   5.020 -0.5687 -1.5377 -1.4255
18821SOL     OW57883   6.352   8.684   4.252  0.2518 -0.0068 -0.0392
18821SOL    HW157884   6.278   8.719   4.204  1.0925  1.1401 -0.5471
18821SOL    HW257885   6.418   8.754   4.249  2.2180 -1.7827 -1.5414
18822SOL     OW57886   3.938   5.826   3.219 -0.1989  0.5029 -0.2780
18822SOL    HW157887   3.966   5.738   3.247 -3.5498 -0.8128 -0.5378
18822SOL    HW257888   3.942   5.878   3.299 -2.0114 -1.0611  0.9357
18823SOL     OW57889   2.199   6.926   5.497  0.1014  0.5147 -0.2650
18823SOL    HW157890   2.163   6.858   5.554  0.9831  0.9435  0.8384
18823SOL    HW257891   2.294   6.920   5.510  0.4604 -0.2726 -2.7328
18824SOL     OW57892   7.136   1.881   0.123  0.0249  0.2277 -0.4704
18824SOL    HW157893   7.151   1.958   0.178  1.4896  2.0006 -3.1106
18824SOL    HW257894   7.041   1.875   0.115 -0.2869 -0.4655  2.5570
18825SOL     OW57895   0.429   4.542   0.085 -0.2043 -0.0657 -0.0024
18825SOL    HW157896   0.455   4.598   0.013 -0.8324  0.7176  0.3649
18825SOL    HW257897   0.426   4.454   0.048 -0.8352  0.3714 -1.0075
18826SOL     OW57898   6.955   9.239   4.852 -0.7537 -0.1511 -0.4567
18826SOL    HW157899   6.939   9.163   4.796 -2.6903  0.4117 -0.7501
18826SOL    HW257900   6.873   9.289   4.848 -0.6639  0.3696  2.1791
18827SOL     OW57901   1.003   0.229   2.275  0.4390 -0.1191 -0.0683
18827SOL    HW157902   0.914   0.250   2.247  0.7518 -0.5713 -1.4797
18827SOL    HW257903   1.030   0.305   2.326 -1.0104 -0.3048  1.0545
18828SOL     OW57904   0.544   0.620   8.248 -0.4130 -0.1396  0.1524
18828SOL    HW157905   0.620   0.563   8.260 -0.7065 -0.4534  0.5296
18828SOL    HW257906   0.551   0.650   8.157  0.7824  0.7287  0.4966
18829SOL     OW57907   8.180   5.224   6.248  0.8241  0.0411  0.0426
18829SOL    HW157908   8.270   5.191   6.253  0.5141 -0.6773  1.2319
18829SOL    HW257909   8.180   5.300   6.307  0.8523  0.5705 -0.6243
18830SOL     OW57910   3.102   4.770   4.466 -0.0062  0.4097  0.4363
18830SOL    HW157911   3.009   4.746   4.462  0.4476 -1.3753 -0.0232
18830SOL    HW257912   3.121   4.804   4.378 -0.0759  0.1840  0.3330
18831SOL     OW57913   5.091   1.659   0.923  0.9210  0.0809 -0.2404
18831SOL    HW157914   4.999   1.645   0.945  0.8968 -0.2298 -0.5210
18831SOL    HW257915   5.139   1.641   1.004  0.7026  0.7022  0.0332
18832SOL     OW57916   9.184   5.437   0.663  0.7927  0.4102 -0.4084
18832SOL    HW157917   9.154   5.452   0.574  3.1229  0.1966 -1.2696
18832SOL    HW257918   9.248   5.367   0.657  1.3025  0.6524  1.3850
18833SOL     OW57919   1.425   4.505   9.051 -0.6535 -0.1069 -0.5920
18833SOL    HW157920   1.432   4.597   9.025 -0.3299  0.0451  0.0181
18833SOL    HW257921   1.490   4.460   8.999 -0.5607  0.0695 -0.6288
18834SOL     OW57922   2.503   3.693   4.522 -0.5020 -0.3264 -0.0812
18834SOL    HW157923   2.574   3.752   4.496 -1.5892  0.7590 -0.7037
18834SOL    HW257924   2.533   3.606   4.498  0.0321  0.2663 -1.6751
18835SOL     OW57925   6.346   2.972   6.997  0.0665  0.2203  0.2570
18835SOL    HW157926   6.276   2.906   6.998  1.2522 -1.0822 -0.3196
18835SOL    HW257927   6.353   3.000   7.089 -0.5906 -0.3195  0.4846
18836SOL     OW57928   3.099   2.229   6.838  0.5079  0.2610 -0.0262
18836SOL    HW157929   3.044   2.249   6.914 -0.6466 -0.7482 -0.5476
18836SOL    HW257930   3.039   2.186   6.777  1.6834  0.0017 -1.0244
18837SOL     OW57931   3.821   0.575   8.273 -0.3054 -0.2652  0.3009
18837SOL    HW157932   3.881   0.502   8.259 -1.3439 -1.2634  0.8476
18837SOL    HW257933   3.745   0.555   8.218  0.2389  1.5060 -1.1986
18838SOL     OW57934   0.973   9.223   2.448  0.1477  0.2836  0.1808
18838SOL    HW157935   0.895   9.270   2.476 -0.7787 -0.4954 -1.0332
18838SOL    HW257936   1.023   9.287   2.397 -0.4403  0.3643 -0.3036
18839SOL     OW57937   4.669   2.724   5.116 -0.6121  0.0793  0.1696
18839SOL    HW157938   4.595   2.730   5.055 -1.0333 -1.0260  0.5546
18839SOL    HW257939   4.724   2.654   5.082  0.0024  0.5487  0.1723
18840SOL     OW57940   7.733   0.815   4.648 -0.0544 -0.5437 -0.6287
18840SOL    HW157941   7.700   0.800   4.737  0.5569 -1.7730 -0.5903
18840SOL    HW257942   7.826   0.792   4.653 -0.0264 -0.6570 -1.5999
18841SOL     OW57943   7.999   5.406   0.386  0.0629 -0.4042 -0.4953
18841SOL    HW157944   7.996   5.416   0.291  2.2110  1.7045 -0.4094
18841SOL    HW257945   8.089   5.425   0.411 -0.3464 -1.2140  1.9734
18842SOL     OW57946   0.247   4.855   0.126  0.4692 -0.4259  0.6170
18842SOL    HW157947   0.208   4.768   0.115  0.6186 -0.3450 -0.7251
18842SOL    HW257948   0.172   4.915   0.122  0.5551 -0.3756 -0.3580
18843SOL     OW57949   1.446   3.520   0.121 -0.2307  0.1261 -0.5138
18843SOL    HW157950   1.515   3.582   0.141 -0.3082  0.1343 -0.2729
18843SOL    HW257951   1.370   3.573   0.100 -0.7769  0.1332  1.3049
18844SOL     OW57952   3.916   7.713   6.863 -0.1782 -0.6198 -0.3777
18844SOL    HW157953   3.991   7.657   6.883  0.1123 -0.1797 -0.2142
18844SOL    HW257954   3.912   7.776   6.936 -0.6318 -0.5623 -0.4441
18845SOL     OW57955   3.889   3.779   1.167 -0.3686  0.2268 -0.0237
18845SOL    HW157956   3.968   3.817   1.207 -0.6661  0.0026  0.8079
18845SOL    HW257957   3.884   3.691   1.204 -0.0665 -0.4024 -1.4052
18846SOL     OW57958   1.211   1.143   2.757  0.6727 -0.3712  0.0237
18846SOL    HW157959   1.291   1.194   2.766 -0.5541  1.5057  1.0633
18846SOL    HW257960   1.188   1.118   2.846 -0.6414  0.3886 -0.0704
18847SOL     OW57961   3.653   3.633   4.287 -0.1009  0.0042  0.2534
18847SOL    HW157962   3.670   3.590   4.371  1.3624  0.0572  0.0126
18847SOL    HW257963   3.717   3.594   4.227 -1.9741 -0.9967 -1.2033
18848SOL     OW57964   6.524   1.201   4.294  0.1831 -0.3394  0.1908
18848SOL    HW157965   6.537   1.221   4.202 -0.5179  0.4900  0.2666
18848SOL    HW257966   6.612   1.205   4.332  0.3273  0.4676 -0.2205
18849SOL     OW57967   9.008   7.923   7.047 -0.4627  0.0669 -0.4986
18849SOL    HW157968   9.081   7.884   7.094 -0.1268  1.8977  0.6046
18849SOL    HW257969   8.997   7.868   6.969  0.4610 -1.6914  0.5534
18850SOL     OW57970   0.533   2.540   4.078  0.1728  0.7730 -0.3489
18850SOL    HW157971   0.512   2.532   4.171  1.4794 -1.7675 -0.1888
18850SOL    HW257972   0.462   2.494   4.033  0.7776 -0.1152 -0.4147
18851SOL     OW57973   5.638   4.586   7.173 -0.2522  0.0898  0.5680
18851SOL    HW157974   5.712   4.528   7.192 -1.2020 -0.7975  1.7629
18851SOL    HW257975   5.574   4.529   7.131 -0.2639  0.8565 -0.4852
18852SOL     OW57976   0.703   6.933   3.852  1.1098  0.1372  0.1347
18852SOL    HW157977   0.709   6.925   3.757  1.7801 -0.4263  0.2219
18852SOL    HW257978   0.618   6.893   3.874  0.2173  1.6790 -0.3677
18853SOL     OW57979   5.869   2.248   1.964  0.0882  0.2516  0.1555
18853SOL    HW157980   5.962   2.265   1.955  0.5660 -2.0050  0.3465
18853SOL    HW257981   5.850   2.265   2.057  0.9318 -1.7850  0.7547
18854SOL     OW57982   1.756   8.215   4.942  0.5889 -0.0475 -0.9087
18854SOL    HW157983   1.810   8.164   4.881 -0.6145 -1.9008 -0.5148
18854SOL    HW257984   1.816   8.242   5.011  1.1469 -1.6828 -0.7105
18855SOL     OW57985   0.187   6.111   1.677 -0.1985 -0.5054 -0.0006
18855SOL    HW157986   0.212   6.087   1.766 -0.9108  1.7476  0.8820
18855SOL    HW257987   0.249   6.179   1.651 -1.3865  0.5263 -0.2791
18856SOL     OW57988   4.496   5.104   0.432 -0.1650 -0.2686 -0.3880
18856SOL    HW157989   4.427   5.049   0.394  0.3587 -2.1496  1.2027
18856SOL    HW257990   4.450   5.162   0.492 -0.5137 -0.5626 -0.3656
18857SOL     OW57991   3.497   4.084   6.725  0.1391 -0.2448 -0.3296
18857SOL    HW157992   3.425   4.021   6.727 -1.8540  1.8918  0.0650
18857SOL    HW257993   3.492   4.129   6.810 -0.3201  2.2337 -1.5671
18858SOL     OW57994   0.938   6.736   7.284 -0.5799 -0.3111  0.6130
18858SOL    HW157995   1.017   6.693   7.314  0.1672  0.0027 -0.8201
18858SOL    HW257996   0.905   6.783   7.361  1.4430  0.7534  0.8980
18859SOL     OW57997   6.595   4.395   8.527 -0.1506  0.6308  0.0385
18859SOL    HW157998   6.500   4.403   8.534  0.0004  1.8343  1.1581
18859SOL    HW257999   6.610   4.351   8.444 -1.7160 -0.3532  0.2377
18860SOL     OW58000   4.740   5.665   2.648  0.0805 -0.3774  0.9933
18860SOL    HW158001   4.829   5.653   2.679 -0.0544  0.7367  1.8995
18860SOL    HW258002   4.685   5.651   2.726 -0.4205  0.3903  0.7967
18861SOL     OW58003   0.748   4.907   8.930 -0.8730  0.2855 -0.1973
18861SOL    HW158004   0.742   4.986   8.984  1.3421  0.1491  0.3611
18861SOL    HW258005   0.813   4.929   8.864  0.3775 -1.3013  0.4363
18862SOL     OW58006   9.182   4.428   5.939 -0.0971 -0.2185  0.2598
18862SOL    HW158007   9.216   4.471   6.018 -0.0598  0.2810 -0.0249
18862SOL    HW258008   9.223   4.475   5.866 -1.8097  0.7722 -0.1174
18863SOL     OW58009   5.966   5.102   0.415  0.1069 -0.4084 -0.1699
18863SOL    HW158010   5.895   5.064   0.363  1.0947 -1.6432 -0.6783
18863SOL    HW258011   5.922   5.141   0.490 -1.0605 -1.9390  0.0038
18864SOL     OW58012   6.924   0.344   8.616 -0.4490  0.5229 -0.6807
18864SOL    HW158013   6.855   0.389   8.567 -0.4863 -0.4627 -1.5607
18864SOL    HW258014   6.988   0.412   8.636 -1.3628  1.3282 -0.3985
18865SOL     OW58015   1.045   7.165   7.660  0.0812 -0.3821 -0.2909
18865SOL    HW158016   0.988   7.183   7.585 -0.6868  0.0129  0.3795
18865SOL    HW258017   0.995   7.105   7.715 -0.5998  1.5827  1.3578
18866SOL     OW58018   1.594   8.122   1.722  0.4961 -0.1808  0.0246
18866SOL    HW158019   1.671   8.069   1.743  0.4485 -0.2352  0.0601
18866SOL    HW258020   1.605   8.143   1.629  0.9243  0.4178  0.2063
18867SOL     OW58021   3.598   9.199   7.547 -0.5881 -0.0034  0.2283
18867SOL    HW158022   3.512   9.240   7.548  0.1114  1.5088  0.2481
18867SOL    HW258023   3.649   9.249   7.611  0.6834 -0.0357 -0.7310
18868SOL     OW58024   2.095   5.537   7.387 -0.3813  0.1918  0.4808
18868SOL    HW158025   2.089   5.589   7.468  3.7151  0.7645  0.6511
18868SOL    HW258026   2.106   5.447   7.418  0.0211  0.2565  0.5335
18869SOL     OW58027   8.860   0.394   4.406  0.1363 -0.1149  0.4517
18869SOL    HW158028   8.916   0.401   4.483 -0.0561  0.2198  0.5671
18869SOL    HW258029   8.918   0.407   4.332  0.1180  0.8044  0.5927
18870SOL     OW58030   5.262   2.867   8.236 -0.0393 -0.3697  0.4001
18870SOL    HW158031   5.169   2.850   8.221 -0.0652  1.2776 -1.6845
18870SOL    HW258032   5.300   2.781   8.254 -1.3320 -1.7006 -2.5721
18871SOL     OW58033   3.501   2.882   0.999 -0.0002 -0.5794  0.2521
18871SOL    HW158034   3.535   2.959   0.954  0.6080  0.8507  2.9521
18871SOL    HW258035   3.504   2.813   0.933 -0.2133  1.5673 -2.1772
18872SOL     OW58036   3.344   1.748   3.064 -0.3623 -0.0877  0.2361
18872SOL    HW158037   3.291   1.781   3.136  0.2165 -1.2630  1.2405
18872SOL    HW258038   3.283   1.740   2.991 -1.1504  0.3186  0.8393
18873SOL     OW58039   1.405   7.378   8.722  0.4872  0.2834 -0.1190
18873SOL    HW158040   1.357   7.454   8.689 -2.4538 -1.0125  0.8672
18873SOL    HW258041   1.388   7.309   8.658  0.3864 -0.4042  0.6307
18874SOL     OW58042   2.553   6.669   8.593 -0.4377  0.4939 -0.7122
18874SOL    HW158043   2.556   6.613   8.515 -0.6516  0.8155 -0.9525
18874SOL    HW258044   2.620   6.735   8.578 -1.3371  1.3129 -1.2071
18875SOL     OW58045   8.733   2.263   6.178 -0.8557  0.1756 -0.8052
18875SOL    HW158046   8.664   2.327   6.165  0.6131  2.0305  0.0808
18875SOL    HW258047   8.744   2.259   6.273 -0.2603 -0.6528 -0.8959
18876SOL     OW58048   3.827   6.626   5.564 -0.4353 -0.5077  0.1040
18876SOL    HW158049   3.778   6.545   5.583  1.3009 -1.6180  0.0213
18876SOL    HW258050   3.858   6.655   5.649  0.6519 -1.0788 -0.0822
18877SOL     OW58051   5.530   3.403   5.612  0.1357 -0.0976  0.2120
18877SOL    HW158052   5.625   3.403   5.619  0.0817  0.2321  1.0936
18877SOL    HW258053   5.511   3.462   5.539  0.5538  1.1600  1.0924
18878SOL     OW58054   6.924   2.306   7.449 -0.1990 -0.0571 -0.3403
18878SOL    HW158055   6.936   2.249   7.373 -0.9559  1.0220 -1.3095
18878SOL    HW258056   6.865   2.375   7.418 -2.7703 -1.0091  1.9529
18879SOL     OW58057   0.750   4.829   3.346 -0.7028  0.3353 -0.0745
18879SOL    HW158058   0.829   4.845   3.397  0.9514 -4.2884 -0.6270
18879SOL    HW258059   0.768   4.869   3.261  2.1742 -2.2571 -0.8690
18880SOL     OW58060   7.985   8.809   8.768  0.2945 -0.2031 -0.0100
18880SOL    HW158061   8.065   8.836   8.723  1.1634 -0.3585  1.4020
18880SOL    HW258062   7.998   8.716   8.787  0.4687  0.1151  1.5774
18881SOL     OW58063   8.972   8.824   6.768  0.5388  0.6629 -0.4287
18881SOL    HW158064   8.919   8.863   6.837  0.4606 -0.6895  0.3097
18881SOL    HW258065   9.061   8.855   6.786  0.7734 -0.8050  1.1760
18882SOL     OW58066   5.079   6.036   6.033  0.2763  0.0680  0.8520
18882SOL    HW158067   5.173   6.045   6.042  0.3109  1.2989 -0.4059
18882SOL    HW258068   5.060   5.947   6.063  2.1419 -1.0025 -0.9110
18883SOL     OW58069   7.149   7.688   8.123  0.1583  0.3623  0.2445
18883SOL    HW158070   7.122   7.622   8.059 -0.2526 -1.3543  2.1088
18883SOL    HW258071   7.243   7.673   8.135 -0.3695 -1.7039  2.5364
18884SOL     OW58072   2.340   5.798   2.289 -0.2083  0.2288  0.4542
18884SOL    HW158073   2.354   5.761   2.202 -0.4775 -0.1002  0.5490
18884SOL    HW258074   2.348   5.724   2.348  0.1347  0.4795  0.7285
18885SOL     OW58075   3.393   6.319   8.602 -0.3317 -0.0050  0.3499
18885SOL    HW158076   3.417   6.264   8.677  0.5199  1.4613  1.2117
18885SOL    HW258077   3.424   6.271   8.526  0.4536 -0.6780  1.0735
18886SOL     OW58078   4.578   0.262   9.049  0.3381 -0.1896 -0.4619
18886SOL    HW158079   4.548   0.348   9.079  0.5270 -0.0904 -0.5638
18886SOL    HW258080   4.598   0.274   8.957  1.6554 -0.0061 -0.1619
18887SOL     OW58081   7.209   4.831   4.889 -0.5122  0.0905  0.0578
18887SOL    HW158082   7.148   4.762   4.915 -1.1485 -0.7010 -3.1194
18887SOL    HW258083   7.159   4.912   4.898 -0.8676 -0.1977  0.7440
18888SOL     OW58084   8.033   2.385   4.902  0.4261 -0.1001 -0.1021
18888SOL    HW158085   8.037   2.454   4.968 -0.1424  1.1103 -1.2634
18888SOL    HW258086   8.040   2.303   4.951 -0.0992  0.7434  1.4483
18889SOL     OW58087   3.442   7.642   3.463 -0.1430 -0.2112  0.2476
18889SOL    HW158088   3.400   7.588   3.529  0.5014 -0.6044  0.3455
18889SOL    HW258089   3.522   7.594   3.439  0.9630  1.1306  1.0459
18890SOL     OW58090   6.279   4.288   5.313 -0.3764 -0.3817 -0.0949
18890SOL    HW158091   6.319   4.231   5.379 -0.5763 -0.4927 -0.0662
18890SOL    HW258092   6.338   4.283   5.238  0.6192  0.8829  0.5723
18891SOL     OW58093   8.649   0.064   4.033 -0.5591  0.5536  0.4842
18891SOL    HW158094   8.571   0.094   4.080 -0.8945 -1.7877  1.5690
18891SOL    HW258095   8.721   0.077   4.094 -0.3222  1.3443  0.0448
18892SOL     OW58096   6.678   0.142   0.324 -0.0885 -0.1453 -0.1193
18892SOL    HW158097   6.724   0.198   0.262 -0.6295  0.7104  0.2332
18892SOL    HW258098   6.585   0.160   0.309 -0.2572 -0.6108  0.3065
18893SOL     OW58099   8.461   9.012   1.608 -0.2964 -0.2368 -0.0651
18893SOL    HW158100   8.491   8.922   1.618  0.8706 -0.2335 -2.7473
18893SOL    HW258101   8.379   9.005   1.559  0.5442  0.1704 -1.5867
18894SOL     OW58102   0.028   5.165   6.858  0.0031 -0.0880  0.8987
18894SOL    HW158103  -0.052   5.122   6.828  1.4755 -1.1959 -1.7655
18894SOL    HW258104   0.093   5.095   6.859  1.5818  1.3245  0.2714
18895SOL     OW58105   1.394   4.828   8.360 -0.0028 -0.5856 -0.2238
18895SOL    HW158106   1.391   4.885   8.437 -1.3310 -0.6465 -0.2038
18895SOL    HW258107   1.414   4.741   8.396  1.0493 -0.3310 -0.1503
18896SOL     OW58108   5.680   8.522   0.613  0.2214 -0.2986  0.7776
18896SOL    HW158109   5.623   8.549   0.685 -1.0078 -0.4707 -0.0940
18896SOL    HW258110   5.747   8.591   0.609 -0.8566  0.7995  0.8204
18897SOL     OW58111   3.667   1.909   1.193  0.2818  0.1632  0.3684
18897SOL    HW158112   3.579   1.874   1.183 -0.7853  2.9995 -1.3068
18897SOL    HW258113   3.716   1.874   1.118  0.6471 -1.3874  1.2829
18898SOL     OW58114   3.438   6.842   3.252  0.0597  0.0813 -0.2230
18898SOL    HW158115   3.425   6.833   3.346  0.7532  0.6715 -0.0576
18898SOL    HW258116   3.458   6.935   3.240  1.9918 -0.3459 -0.6874
18899SOL     OW58117   2.473   7.139   7.531 -0.0009 -0.1817 -0.2008
18899SOL    HW158118   2.477   7.193   7.452  1.3515 -0.4890 -0.3609
18899SOL    HW258119   2.535   7.181   7.591 -0.1686 -0.6164  0.2824
18900SOL     OW58120   0.778   1.723   0.607 -0.2338 -0.1262 -0.6327
18900SOL    HW158121   0.850   1.701   0.666 -0.5756 -1.3843 -0.6570
18900SOL    HW258122   0.821   1.754   0.527  0.2455  0.4029 -0.1778
18901SOL     OW58123   8.310   7.392   5.432 -0.4462  0.0599  0.2559
18901SOL    HW158124   8.355   7.370   5.514 -1.9511  0.6275  1.2997
18901SOL    HW258125   8.220   7.362   5.447 -0.6993  0.0162 -1.2817
18902SOL     OW58126   3.267   8.434   4.454 -0.5740  0.2980  0.3062
18902SOL    HW158127   3.215   8.432   4.373  1.9497 -2.6024 -1.4676
18902SOL    HW258128   3.237   8.358   4.503  0.0564  0.2265  0.5855
18903SOL     OW58129   3.796   0.593   4.710 -0.2811 -0.1959 -0.1051
18903SOL    HW158130   3.812   0.686   4.726 -1.1415 -0.0888  0.1782
18903SOL    HW258131   3.704   0.588   4.687  0.0293 -0.8346 -1.3040
18904SOL     OW58132   4.336   5.281   6.123  0.2750 -0.1936  0.4358
18904SOL    HW158133   4.357   5.307   6.034 -1.4183 -0.5677 -0.1075
18904SOL    HW258134   4.241   5.267   6.123  0.5023 -2.2269  1.7573
18905SOL     OW58135   5.865   7.385   6.426 -0.0431  0.1525 -0.1774
18905SOL    HW158136   5.797   7.325   6.396  0.3478 -0.3432 -0.0728
18905SOL    HW258137   5.904   7.420   6.346  1.1676 -1.3556 -0.2924
18906SOL     OW58138   1.221   0.695   2.285 -0.3785 -0.4864 -0.2597
18906SOL    HW158139   1.307   0.660   2.262  0.2129  1.0881 -0.4932
18906SOL    HW258140   1.176   0.704   2.201 -1.1020 -2.0306 -0.0845
18907SOL     OW58141   9.030   2.808   2.906 -0.5573 -0.0179 -0.9914
18907SOL    HW158142   9.094   2.804   2.835  0.1041  0.8960 -0.4742
18907SOL    HW258143   9.037   2.722   2.949  1.9168  0.7633  0.3682
18908SOL     OW58144   6.350   1.835   5.294 -0.2597 -0.4404 -0.1714
18908SOL    HW158145   6.287   1.886   5.243 -0.2352 -0.9163 -0.6822
18908SOL    HW258146   6.403   1.790   5.228 -0.4928 -1.3887  0.2716
18909SOL     OW58147   7.393   2.603   8.584  0.0194 -0.3902  0.2373
18909SOL    HW158148   7.342   2.529   8.617 -1.5140  0.5955  0.1620
18909SOL    HW258149   7.328   2.670   8.563  1.3978  1.3723  1.2530
18910SOL     OW58150   8.048   4.255   5.852 -0.3037 -0.0179 -0.3074
18910SOL    HW158151   8.001   4.278   5.932  0.3229  1.5109 -0.3490
18910SOL    HW258152   8.132   4.300   5.859 -0.5543  0.8516 -2.1792
18911SOL     OW58153   7.903   6.059   7.866  0.3713  0.7034 -0.8645
18911SOL    HW158154   7.845   6.058   7.790 -1.1982  1.4884  0.2636
18911SOL    HW258155   7.904   6.150   7.894 -1.4231  0.0686  1.7018
18912SOL     OW58156   5.827   6.483   9.229 -0.3440  0.1873 -0.1618
18912SOL    HW158157   5.835   6.540   9.152 -0.4308 -1.5926 -1.5590
18912SOL    HW258158   5.738   6.499   9.261 -0.1734  1.2480 -0.1540
18913SOL     OW58159   8.125   3.115   3.504  0.0941  0.5203 -0.5412
18913SOL    HW158160   8.159   3.033   3.538 -0.9834  0.3020  0.0631
18913SOL    HW258161   8.032   3.097   3.488  0.0207  1.3844 -1.1659
18914SOL     OW58162   2.660   1.596   0.583  0.1516 -0.1719  0.0653
18914SOL    HW158163   2.643   1.506   0.610  0.7602 -0.5223 -0.6636
18914SOL    HW258164   2.611   1.605   0.501 -0.0617  0.2260  0.2353
18915SOL     OW58165   3.248   7.232   4.692 -0.0678  0.8959 -0.5380
18915SOL    HW158166   3.171   7.177   4.709  1.5886 -1.1407  0.8132
18915SOL    HW258167   3.261   7.281   4.773  0.9894 -0.0125 -0.1383
18916SOL     OW58168   1.442   8.464   4.467  0.4187 -0.6267 -0.6569
18916SOL    HW158169   1.376   8.403   4.499  2.2279 -1.8532  0.9500
18916SOL    HW258170   1.450   8.444   4.374  1.2780 -3.2605 -0.1091
18917SOL     OW58171   5.515   0.755   7.909  0.2570  0.4125 -0.1705
18917SOL    HW158172   5.437   0.801   7.941 -0.0654 -0.7555  0.7766
18917SOL    HW258173   5.585   0.786   7.966  0.2731  0.6048 -0.2921
18918SOL     OW58174   7.633   4.912   1.785 -0.3560  0.4442  0.5245
18918SOL    HW158175   7.627   4.997   1.742  1.4774 -0.7586 -2.4576
18918SOL    HW258176   7.726   4.902   1.805 -0.5320 -0.8661  0.7949
18919SOL     OW58177   7.351   0.800   4.323 -0.4502 -0.3098  0.3170
18919SOL    HW158178   7.311   0.723   4.281 -1.0401  0.7750 -1.1991
18919SOL    HW258179   7.414   0.763   4.385 -0.8921 -2.0189 -0.1864
18920SOL     OW58180   3.233   3.707   6.338  0.0863 -0.2833 -0.1400
18920SOL    HW158181   3.255   3.631   6.391 -0.5114  1.4841  2.8367
18920SOL    HW258182   3.155   3.744   6.379 -1.4622  0.3219 -3.2920
18921SOL     OW58183   5.926   0.589   4.112 -0.2666  0.0370  0.3717
18921SOL    HW158184   5.864   0.521   4.137  1.7183 -2.2267 -0.5040
18921SOL    HW258185   5.920   0.594   4.017  0.7579 -0.1071  0.2857
18922SOL     OW58186   8.862   8.474   4.173  0.0205  0.2300 -0.1570
18922SOL    HW158187   8.799   8.544   4.196 -0.7986 -1.0296  1.6813
18922SOL    HW258188   8.817   8.424   4.104 -0.1414  0.4948 -0.2479
18923SOL     OW58189   0.847   0.684   4.459  0.0139 -0.1312 -0.2623
18923SOL    HW158190   0.893   0.765   4.441  0.5951 -0.6611 -1.2599
18923SOL    HW258191   0.911   0.627   4.501 -0.3903 -0.0825  0.4389
18924SOL     OW58192   4.730   6.453   4.069 -0.0891  0.2637 -0.1629
18924SOL    HW158193   4.701   6.537   4.033 -1.2185  0.0326  0.1782
18924SOL    HW258194   4.652   6.416   4.109 -0.7030 -2.7475 -3.6038
18925SOL     OW58195   2.632   8.360   1.915  0.1199  0.8054 -0.1154
18925SOL    HW158196   2.563   8.294   1.908  0.0616  0.6765  1.3627
18925SOL    HW258197   2.625   8.411   1.834 -0.5366 -0.3166 -0.7879
18926SOL     OW58198   5.041   7.806   6.478  0.2711  0.4331  0.2112
18926SOL    HW158199   4.981   7.825   6.406  1.3083  1.2521 -0.4488
18926SOL    HW258200   5.003   7.728   6.520 -0.6380  0.2606 -0.8765
18927SOL     OW58201   9.084   7.562   6.461 -0.0916  0.1015 -0.0760
18927SOL    HW158202   9.112   7.561   6.553 -1.9619  1.0650  0.5525
18927SOL    HW258203   9.098   7.652   6.433 -2.8626  0.7816  0.4303
18928SOL     OW58204   5.375   0.563   1.599 -0.5458  0.4327 -0.1019
18928SOL    HW158205   5.325   0.550   1.680  0.3039  0.0707  0.3843
18928SOL    HW258206   5.359   0.484   1.548 -0.8260  0.5185 -0.1481
18929SOL     OW58207   6.690   7.540   1.797  0.5963  0.5958 -0.1933
18929SOL    HW158208   6.676   7.626   1.758 -0.7623 -0.0639 -1.2422
18929SOL    HW258209   6.618   7.486   1.763  2.8201 -1.6553 -1.6309
18930SOL     OW58210   0.616   5.523   2.503 -0.8358 -0.3240  0.0555
18930SOL    HW158211   0.633   5.430   2.515 -2.5976 -0.5307  1.4705
18930SOL    HW258212   0.693   5.567   2.538  0.7877 -1.1979 -2.1888
18931SOL     OW58213   1.077   1.658   1.613 -0.0900 -0.5571 -0.1129
18931SOL    HW158214   1.134   1.612   1.674 -0.3951 -0.4276  0.2742
18931SOL    HW258215   1.065   1.745   1.651  0.0353 -0.3388 -0.5586
18932SOL     OW58216   0.843   2.099   0.012 -0.1734  0.7564 -0.3279
18932SOL    HW158217   0.867   2.045  -0.064  0.4858 -0.6163  0.8223
18932SOL    HW258218   0.782   2.045   0.062  0.7376  0.9195  1.0135
18933SOL     OW58219   6.537   3.489   9.223 -0.8020 -0.0533  0.0127
18933SOL    HW158220   6.559   3.397   9.238 -2.9562 -0.4781  0.9008
18933SOL    HW258221   6.611   3.524   9.174  0.8415 -1.8268  1.1126
18934SOL     OW58222   0.672   4.644   1.948  0.2233  0.4554  0.1580
18934SOL    HW158223   0.585   4.637   1.986 -0.6888  0.4847 -1.8020
18934SOL    HW258224   0.692   4.738   1.949 -0.3474  0.5953 -0.5441
18935SOL     OW58225   8.944   3.538   8.030 -0.1856  0.2382  0.4507
18935SOL    HW158226   8.998   3.562   8.105 -0.0724 -0.3021  0.5472
18935SOL    HW258227   9.003   3.491   7.972 -0.8540 -1.5806  1.1793
18936SOL     OW58228   4.505   5.856   1.296 -0.0534  0.3833  0.0023
18936SOL    HW158229   4.549   5.930   1.337  0.2846 -0.2333  0.7968
18936SOL    HW258230   4.567   5.823   1.232  0.3820 -0.0455  0.6227
18937SOL     OW58231   8.551   7.262   6.166  0.0568  0.1341  0.2273
18937SOL    HW158232   8.606   7.207   6.221 -0.9387 -0.4844  0.6351
18937SOL    HW258233   8.527   7.336   6.223  0.3020  0.3032  0.1125
18938SOL     OW58234   0.567   3.484   7.744  0.1175 -0.1109  0.3134
18938SOL    HW158235   0.555   3.558   7.684 -0.7796  0.6824  1.4301
18938SOL    HW258236   0.654   3.450   7.722 -0.1685  0.1652 -1.4014
18939SOL     OW58237   8.035   0.979   0.346 -0.2702 -0.6680 -0.0389
18939SOL    HW158238   8.080   0.930   0.415  0.9356 -0.6868 -0.8135
18939SOL    HW258239   8.103   1.033   0.306 -1.2124  0.2927 -0.3910
18940SOL     OW58240   2.280   2.589   6.427  0.1998  0.7055 -0.3621
18940SOL    HW158241   2.259   2.495   6.433 -1.3378  1.0628  0.3847
18940SOL    HW258242   2.304   2.614   6.516  1.5805  0.8375 -0.7481
18941SOL     OW58243   5.940   7.922   5.027 -0.0789 -0.0014 -0.3225
18941SOL    HW158244   5.876   7.851   5.032 -0.3184  0.1661 -0.8684
18941SOL    HW258245   5.922   7.963   4.942  0.7122  0.0837 -0.4542
18942SOL     OW58246   4.476   6.855   4.594  0.3005 -0.1530  0.4810
18942SOL    HW158247   4.394   6.808   4.580  0.7209 -0.7915  0.1326
18942SOL    HW258248   4.449   6.939   4.633 -0.4099 -0.9565  1.7959
18943SOL     OW58249   8.161   8.542   7.428  0.2272 -0.1395  0.2259
18943SOL    HW158250   8.232   8.557   7.365 -0.7457  0.4918 -0.7415
18943SOL    HW258251   8.103   8.617   7.418 -0.8898 -0.9247  0.5834
18944SOL     OW58252   7.480   5.028   5.917  0.0766  0.4881 -0.0252
18944SOL    HW158253   7.388   5.035   5.943  0.8945 -0.1388  3.4959
18944SOL    HW258254   7.497   4.934   5.916  0.7028  0.5997 -0.7151
18945SOL     OW58255   5.478   2.524   4.283  0.7801 -0.1893  0.8306
18945SOL    HW158256   5.547   2.530   4.349  1.8834 -0.2007 -0.2693
18945SOL    HW258257   5.478   2.432   4.256  0.7017 -0.0825  0.4586
18946SOL     OW58258   4.749   8.068   0.946 -0.0148  0.0115 -0.5887
18946SOL    HW158259   4.658   8.047   0.928 -0.0218 -0.3375 -0.1741
18946SOL    HW258260   4.796   7.985   0.932  0.0488 -0.1498  0.4727
18947SOL     OW58261   6.352   6.976   5.459 -0.1717  0.6446  0.0149
18947SOL    HW158262   6.363   7.064   5.494 -0.9364  1.2249 -1.1199
18947SOL    HW258263   6.389   6.981   5.371 -0.7416 -0.0041 -0.2739
18948SOL     OW58264   2.215   1.546   8.575 -0.4092  0.8170  0.6975
18948SOL    HW158265   2.265   1.474   8.536 -0.0150  2.2143 -1.5581
18948SOL    HW258266   2.265   1.570   8.653  1.6624  1.1898 -0.6713
18949SOL     OW58267   1.223   5.652   8.891 -0.0508  0.0267 -0.3353
18949SOL    HW158268   1.283   5.703   8.836 -1.7828  0.9629 -1.4275
18949SOL    HW258269   1.173   5.598   8.829 -1.0494  0.0357  0.4391
18950SOL     OW58270   2.832   4.113   2.875  0.3432  0.5196  0.5954
18950SOL    HW158271   2.878   4.139   2.955  0.6891  0.0587  0.5546
18950SOL    HW258272   2.775   4.041   2.902 -0.7406  1.4141  0.7464
18951SOL     OW58273   6.639   7.069   7.575 -0.2454  0.4135 -0.6654
18951SOL    HW158274   6.571   7.111   7.521  0.1846  0.4167 -1.2125
18951SOL    HW258275   6.713   7.059   7.516  1.2005  2.8055  0.5904
18952SOL     OW58276   3.780   9.149   8.579 -0.4353 -0.8750 -0.3844
18952SOL    HW158277   3.684   9.154   8.579 -0.3703  1.0025 -0.7317
18952SOL    HW258278   3.803   9.136   8.487 -0.3130  1.1205 -0.6807
18953SOL     OW58279   5.035   8.815   4.612  0.0437 -0.2269  0.1732
18953SOL    HW158280   5.006   8.866   4.537 -2.6035 -1.1567  0.4239
18953SOL    HW258281   4.957   8.808   4.668  1.2279 -1.6505  1.7809
18954SOL     OW58282   0.232   4.963   0.823  0.1246  0.4500 -0.4979
18954SOL    HW158283   0.287   4.890   0.851 -1.5073 -1.3049 -1.6028
18954SOL    HW258284   0.200   4.937   0.737 -1.7403  1.7550 -0.2617
18955SOL     OW58285   7.929   2.693   4.656 -0.4512  0.2397 -0.3664
18955SOL    HW158286   7.841   2.691   4.693  0.2816 -0.3350  1.4403
18955SOL    HW258287   7.964   2.606   4.671  2.0052  1.6264  3.1214
18956SOL     OW58288   8.199   7.516   7.798  0.6404  0.3979  0.6091
18956SOL    HW158289   8.159   7.501   7.884 -1.1896  1.7886  0.0613
18956SOL    HW258290   8.203   7.429   7.758  0.6785 -0.1398  1.7466
18957SOL     OW58291   3.910   2.358   2.066  0.7788  0.1871  0.1899
18957SOL    HW158292   3.842   2.318   2.011  0.3320 -0.3971  1.1547
18957SOL    HW258293   3.887   2.451   2.067  0.8112  0.2108 -0.6357
18958SOL     OW58294   7.098   5.236   5.709  0.0084  0.1256  0.1120
18958SOL    HW158295   7.059   5.224   5.622  0.9262  3.0274 -0.8193
18958SOL    HW258296   7.192   5.226   5.694  0.0051 -3.0464  1.5884
18959SOL     OW58297   7.797   7.306   5.454 -0.3978 -0.0294 -0.1704
18959SOL    HW158298   7.831   7.349   5.376  0.9943  1.1815  1.0405
18959SOL    HW258299   7.866   7.317   5.520 -1.7244 -0.5813  1.3824
18960SOL     OW58300   4.400   3.082   2.139 -0.0832 -0.3867 -0.7823
18960SOL    HW158301   4.327   3.090   2.076 -0.3575  0.0781 -0.4125
18960SOL    HW258302   4.446   3.166   2.133 -2.4844  1.3835  2.5271
18961SOL     OW58303   3.026   5.044   7.770 -0.1468  0.0735 -0.5546
18961SOL    HW158304   3.021   4.957   7.730 -2.3194  0.3596 -1.0469
18961SOL    HW258305   3.091   5.090   7.718  0.2825 -0.9310 -0.9422
18962SOL     OW58306   1.172   0.744   0.077 -0.0161  0.3927 -0.4732
18962SOL    HW158307   1.093   0.693   0.065 -0.7552  1.7302 -1.6631
18962SOL    HW258308   1.155   0.797   0.155  0.1199 -0.0233 -0.1559
18963SOL     OW58309   0.964   7.055   3.385 -0.0404 -0.2468  0.8529
18963SOL    HW158310   0.916   6.994   3.442  0.9305 -1.9852 -0.0958
18963SOL    HW258311   0.999   7.000   3.315  0.2775  1.5529 -0.4733
18964SOL     OW58312   7.689   4.729   0.173  0.5138 -0.1197  0.2233
18964SOL    HW158313   7.627   4.725   0.100  1.8813  0.1339 -1.0003
18964SOL    HW258314   7.775   4.720   0.132  1.3155 -0.1851  1.8407
18965SOL     OW58315   4.197   7.011   3.866 -0.1952 -0.0458  0.1853
18965SOL    HW158316   4.198   7.084   3.928 -2.0122 -0.4371  0.7238
18965SOL    HW258317   4.219   6.934   3.917  3.0955  0.1792 -0.6333
18966SOL     OW58318   1.421   0.074   8.126 -0.1500  0.2493 -0.0286
18966SOL    HW158319   1.403   0.001   8.185 -2.0422  1.2103  0.6837
18966SOL    HW258320   1.484   0.128   8.173 -0.8337  0.4576  0.6791
18967SOL     OW58321   7.995   5.447   7.786 -0.8106  0.1542  0.1238
18967SOL    HW158322   8.015   5.526   7.735  0.8909 -0.6145 -0.4928
18967SOL    HW258323   7.924   5.405   7.739 -1.8431  1.3755  0.5456
18968SOL     OW58324   5.856   6.430   5.420  0.5011 -0.2665  0.2913
18968SOL    HW158325   5.895   6.505   5.465 -0.2341 -0.0235  0.5474
18968SOL    HW258326   5.832   6.464   5.333 -0.0786 -0.1219  0.5031
18969SOL     OW58327   0.907   8.591   3.518 -0.1877  0.1538  0.8556
18969SOL    HW158328   0.842   8.581   3.587  0.9047  2.3174  2.2849
18969SOL    HW258329   0.873   8.660   3.461  0.3186  0.4838  0.9476
18970SOL     OW58330   5.160   3.393   1.866 -0.0228  0.4122  0.0820
18970SOL    HW158331   5.103   3.324   1.899 -1.0988  2.1698  2.1351
18970SOL    HW258332   5.111   3.434   1.794 -0.2913  0.3564  0.2335
18971SOL     OW58333   3.082   7.125   4.340  0.0080 -0.2540  0.7744
18971SOL    HW158334   3.148   7.148   4.275 -2.3551  2.9989 -0.7987
18971SOL    HW258335   3.104   7.178   4.417  0.5223 -0.9413  1.0979
18972SOL     OW58336   6.274   2.250   8.009  0.4955  0.0905 -0.0519
18972SOL    HW158337   6.288   2.344   8.017 -1.2362  0.3370  0.5204
18972SOL    HW258338   6.224   2.240   7.927  1.1802 -0.4014 -0.4195
18973SOL     OW58339   6.267   4.348   0.618 -0.2201  0.1710 -0.1927
18973SOL    HW158340   6.185   4.363   0.665  0.6975 -2.6606  2.6148
18973SOL    HW258341   6.336   4.357   0.684  1.3491 -1.6289 -1.4535
18974SOL     OW58342   0.503   7.818   5.047  0.3150  0.3468 -0.4733
18974SOL    HW158343   0.482   7.733   5.085 -0.9004 -0.2841 -2.4389
18974SOL    HW258344   0.528   7.872   5.122 -1.6780 -0.9034  1.2013
18975SOL     OW58345   8.218   5.134   0.800 -0.2183 -0.2461 -0.1072
18975SOL    HW158346   8.243   5.226   0.800  0.3583 -0.3964  0.6827
18975SOL    HW258347   8.183   5.119   0.712  1.1783  0.3295 -0.8016
18976SOL     OW58348   7.656   6.399   8.098  0.0369 -0.3130 -0.1553
18976SOL    HW158349   7.575   6.351   8.116 -0.9148  0.9498 -0.7915
18976SOL    HW258350   7.631   6.461   8.029  1.3576  0.6231  0.1709
18977SOL     OW58351   1.032   6.164   5.175 -0.4991  0.6583  0.1418
18977SOL    HW158352   1.014   6.198   5.262 -1.6993  1.0457 -0.2378
18977SOL    HW258353   1.054   6.072   5.189 -1.0046  0.6334  0.8234
18978SOL     OW58354   4.892   1.771   2.040 -0.4153  0.1881 -0.6945
18978SOL    HW158355   4.951   1.699   2.064 -0.9103 -0.0874 -0.2894
18978SOL    HW258356   4.944   1.827   1.982  0.3634  0.1480 -0.0399
18979SOL     OW58357   5.693   7.288   6.943 -0.4594  0.2282  0.9483
18979SOL    HW158358   5.722   7.373   6.974  1.2067 -0.5822  1.7186
18979SOL    HW258359   5.764   7.257   6.886 -1.8232  0.0848 -0.7709
18980SOL     OW58360   4.170   5.708   5.183 -0.5748  0.3189 -0.4674
18980SOL    HW158361   4.151   5.662   5.265  0.9222 -0.0010 -0.2788
18980SOL    HW258362   4.165   5.801   5.205  2.6328  0.3054  0.7621
18981SOL     OW58363   8.058   4.579   5.654 -0.3230 -0.0280 -0.1578
18981SOL    HW158364   8.089   4.638   5.585  0.6223 -0.4176 -0.0762
18981SOL    HW258365   8.105   4.607   5.733 -0.2664 -0.5487 -0.0016
18982SOL     OW58366   9.225   2.403   2.783  0.0924 -0.0988  0.0542
18982SOL    HW158367   9.299   2.441   2.830 -0.0062  2.3388 -1.5295
18982SOL    HW258368   9.157   2.393   2.850 -0.2363  3.7417  0.5766
18983SOL     OW58369   4.981   9.097   5.884 -0.0435 -0.4058 -0.1661
18983SOL    HW158370   4.990   9.026   5.820 -1.0444  0.7227 -1.6345
18983SOL    HW258371   4.905   9.147   5.853  0.7263  1.4017  0.7266
18984SOL     OW58372   5.596   4.290   6.857  0.3159  0.4760  0.1937
18984SOL    HW158373   5.604   4.202   6.894 -0.5041  1.0565  1.8390
18984SOL    HW258374   5.529   4.333   6.910  0.9502  2.2223 -0.3206
18985SOL     OW58375   4.739   8.834   7.611  0.7521 -0.4952  0.2079
18985SOL    HW158376   4.718   8.913   7.661 -0.5546  0.1431 -1.2553
18985SOL    HW258377   4.834   8.830   7.610  0.8197 -0.1789  2.1631
18986SOL     OW58378   3.068   7.512   7.450  0.3677 -0.1502  0.2064
18986SOL    HW158379   3.049   7.482   7.539  0.2484 -0.4322  0.0839
18986SOL    HW258380   3.006   7.465   7.394 -0.2373  0.7639  0.0772
18987SOL     OW58381   2.539   4.504   6.379  0.0509 -0.1742 -0.3041
18987SOL    HW158382   2.547   4.588   6.335 -1.8589 -0.9116 -2.2008
18987SOL    HW258383   2.522   4.526   6.471  1.3544  1.4352 -0.3984
18988SOL     OW58384   1.381   2.167   4.875 -0.1278 -0.5698 -0.1722
18988SOL    HW158385   1.375   2.201   4.964 -1.0097 -0.1950 -0.3684
18988SOL    HW258386   1.465   2.121   4.872  0.4406  0.4074  0.5033
18989SOL     OW58387   0.581   6.279   6.356 -0.1125  0.2394  0.6124
18989SOL    HW158388   0.590   6.342   6.427 -1.3778  1.0567  0.0819
18989SOL    HW258389   0.487   6.263   6.350  0.1455 -1.3748  0.4415
18990SOL     OW58390   5.571   6.335   8.766 -0.3558  0.0512 -0.2282
18990SOL    HW158391   5.603   6.305   8.681 -1.3704  1.0959 -1.0104
18990SOL    HW258392   5.650   6.344   8.820  0.3252 -0.4065 -1.1228
18991SOL     OW58393   8.197   7.076   1.454  0.1761 -0.6761  0.2374
18991SOL    HW158394   8.137   7.109   1.520 -0.2731  0.6500 -0.8039
18991SOL    HW258395   8.217   7.151   1.399  1.6587 -1.4236 -0.3135
18992SOL     OW58396   7.961   5.944   1.511  0.5387 -0.7763  0.2672
18992SOL    HW158397   8.038   5.894   1.537 -0.5881 -2.5049  0.4188
18992SOL    HW258398   7.929   5.983   1.593 -0.5623 -2.7250  0.8293
18993SOL     OW58399   4.975   3.172   4.199 -0.7202  0.0685  0.1989
18993SOL    HW158400   5.062   3.138   4.218 -0.5322  1.2635  1.6035
18993SOL    HW258401   4.973   3.182   4.104  0.3308 -0.8486  0.0707
18994SOL     OW58402   0.724   2.928   7.222 -0.3559 -0.0789 -0.0331
18994SOL    HW158403   0.816   2.945   7.203 -0.0868 -0.0738  1.1598
18994SOL    HW258404   0.696   2.864   7.156  0.6097 -0.3866 -0.1542
18995SOL     OW58405   7.730   1.951   6.878  0.2962 -0.5249  0.2978
18995SOL    HW158406   7.645   1.983   6.909  1.2669  1.4018  1.1643
18995SOL    HW258407   7.711   1.865   6.842 -2.3629  0.5499 -1.2252
18996SOL     OW58408   9.078   3.290   0.415 -0.1998  0.2195 -0.0123
18996SOL    HW158409   9.100   3.249   0.331 -0.4144  0.2866 -0.1016
18996SOL    HW258410   9.052   3.379   0.393  0.2503  0.4013  0.1822
18997SOL     OW58411   3.034   1.183   2.523  0.2343 -0.3676 -0.4904
18997SOL    HW158412   2.968   1.122   2.489 -1.0206 -1.1282  2.9467
18997SOL    HW258413   3.115   1.131   2.527 -0.3854 -1.2984  0.6581
18998SOL     OW58414   1.136   6.939   6.340  0.0342 -0.0897 -0.2684
18998SOL    HW158415   1.207   6.920   6.401  1.0552 -0.8995 -1.6299
18998SOL    HW258416   1.080   6.861   6.345 -1.4586  1.0302  1.6517
18999SOL     OW58417   1.869   3.374   4.668  0.0741 -0.0688  0.4487
18999SOL    HW158418   1.778   3.394   4.690 -0.1812 -1.3055  0.6079
18999SOL    HW258419   1.898   3.313   4.736  0.2598 -1.5256 -0.8763
19000SOL     OW58420   6.157   3.649   4.416 -0.2032  0.0681 -0.4114
19000SOL    HW158421   6.210   3.722   4.382  1.1462 -0.0486  1.3102
19000SOL    HW258422   6.210   3.571   4.400 -0.1450 -0.1367  0.6985
19001SOL     OW58423   6.934   2.281   6.097  0.2471  0.2167  0.2698
19001SOL    HW158424   6.889   2.197   6.086  2.1159 -0.6877 -0.9167
19001SOL    HW258425   6.863   2.344   6.111 -1.3190 -1.2709 -0.5708
19002SOL     OW58426   6.685   2.321   2.179 -0.7015  0.0161  0.2885
19002SOL    HW158427   6.728   2.246   2.137 -0.3825  1.7102 -2.6641
19002SOL    HW258428   6.630   2.281   2.246  2.0556 -2.5641  1.2426
19003SOL     OW58429   6.279   2.402   5.051 -0.0827  0.3916 -0.1967
19003SOL    HW158430   6.248   2.340   4.986 -2.0565  1.6156 -0.5136
19003SOL    HW258431   6.310   2.347   5.124  0.1157 -0.9492 -1.2568
19004SOL     OW58432   1.287   2.832   8.694 -0.6254  0.3026  0.3195
19004SOL    HW158433   1.262   2.749   8.652 -0.3583  0.2967  0.1715
19004SOL    HW258434   1.312   2.889   8.621 -1.6822  0.8189  0.3494
19005SOL     OW58435   2.410   0.921   2.661  0.7374 -0.1782 -0.4775
19005SOL    HW158436   2.329   0.942   2.614  0.2383 -0.2257  0.3235
19005SOL    HW258437   2.400   0.967   2.745  0.0516 -2.7654  0.9635
19006SOL     OW58438   6.587   2.599   8.579  0.3282  0.3192 -0.0084
19006SOL    HW158439   6.634   2.558   8.507 -0.7801 -0.8965 -0.0738
19006SOL    HW258440   6.603   2.542   8.654 -1.3417 -0.3921 -0.1336
19007SOL     OW58441   6.573   6.396   7.733 -0.4872 -0.5259 -0.1739
19007SOL    HW158442   6.530   6.470   7.776  0.7262 -0.4912  1.0835
19007SOL    HW258443   6.644   6.372   7.793  0.8995 -0.9043 -1.8809
19008SOL     OW58444   8.625   3.697   1.797 -0.1977  0.0416 -0.5038
19008SOL    HW158445   8.567   3.771   1.778  0.1859 -0.1508 -2.7224
19008SOL    HW258446   8.658   3.714   1.885 -3.1036  0.4831  0.6164
19009SOL     OW58447   1.122   6.797   1.881 -0.2096  0.2174 -0.2446
19009SOL    HW158448   1.160   6.845   1.808  2.3174  0.9812  1.4439
19009SOL    HW258449   1.156   6.708   1.871  1.1206  0.6114  0.6114
19010SOL     OW58450   7.409   2.966   5.367 -0.4913  0.5925  0.5224
19010SOL    HW158451   7.377   3.044   5.412 -1.4432  0.6070 -0.1422
19010SOL    HW258452   7.380   2.893   5.423 -1.1943  0.6377  0.2301
19011SOL     OW58453   0.014   5.134   8.115 -0.1147  0.6419  0.7487
19011SOL    HW158454  -0.041   5.199   8.158 -0.2625  1.8795 -1.1540
19011SOL    HW258455   0.030   5.171   8.028  1.8897 -0.7195  0.4694
19012SOL     OW58456   2.543   2.288   5.532  0.3068  0.2645 -0.1082
19012SOL    HW158457   2.504   2.299   5.618  0.3606  0.3159 -0.0900
19012SOL    HW258458   2.543   2.376   5.494  0.1075  0.2105 -0.2368
19013SOL     OW58459   2.360   7.441   2.355 -0.1495 -0.3246 -0.5885
19013SOL    HW158460   2.336   7.390   2.278 -1.0050 -0.1182 -0.4683
19013SOL    HW258461   2.455   7.429   2.363  0.0502  0.0853 -1.9780
19014SOL     OW58462   4.767   5.197   8.171 -0.3863  0.0560 -0.1706
19014SOL    HW158463   4.768   5.291   8.154  0.0300  0.4275  1.6911
19014SOL    HW258464   4.846   5.182   8.224  0.2512 -1.5781 -1.4967
19015SOL     OW58465   2.739   4.998   6.837  0.3526 -0.1856  0.0099
19015SOL    HW158466   2.821   5.009   6.885 -0.7833  0.9447  1.7793
19015SOL    HW258467   2.696   5.083   6.841 -0.7638 -0.6413 -1.2149
19016SOL     OW58468   1.448   5.251   9.212 -0.1572 -0.6406  0.5648
19016SOL    HW158469   1.415   5.217   9.296 -0.5103  1.2125  1.2069
19016SOL    HW258470   1.424   5.343   9.212 -0.7259 -0.7309 -1.8909
19017SOL     OW58471   2.510   8.907   5.898  0.2084 -0.2706 -0.7718
19017SOL    HW158472   2.543   8.992   5.869 -1.8066  0.5265 -0.9529
19017SOL    HW258473   2.415   8.918   5.898 -0.0402 -1.7717  1.5136
19018SOL     OW58474   0.106   9.220   6.916 -0.3185  0.1173  0.0542
19018SOL    HW158475   0.153   9.303   6.902 -1.2836  0.8304  0.8807
19018SOL    HW258476   0.027   9.245   6.963 -1.1936 -1.1538 -0.6974
19019SOL     OW58477   5.623   4.878   5.540 -0.2345 -0.2170 -0.0740
19019SOL    HW158478   5.659   4.862   5.453 -1.3159 -1.0136 -0.3781
19019SOL    HW258479   5.611   4.973   5.543 -1.6242 -0.3153 -1.3825
19020SOL     OW58480   0.162   6.170   8.741  0.0946  0.5531 -0.4306
19020SOL    HW158481   0.221   6.245   8.749 -0.6363  1.1068 -0.1093
19020SOL    HW258482   0.089   6.203   8.688 -0.5954  0.2956  0.3437
19021SOL     OW58483   7.468   5.630   6.628 -0.0196  0.4143  0.3339
19021SOL    HW158484   7.492   5.556   6.684  0.6094  0.5319  0.2180
19021SOL    HW258485   7.445   5.590   6.544 -2.0895  0.1204  0.9827
19022SOL     OW58486   7.022   2.300   5.073  0.4498  0.4016 -0.2890
19022SOL    HW158487   6.987   2.249   5.145 -2.0526  1.0680 -0.9525
19022SOL    HW258488   6.988   2.258   4.994  2.2273  0.3485 -1.0859
19023SOL     OW58489   2.076   7.356   5.408 -0.0283  0.2295  0.0032
19023SOL    HW158490   2.152   7.331   5.355 -0.7550 -0.5742 -0.6941
19023SOL    HW258491   2.036   7.273   5.434  1.3748  0.4881  3.5407
19024SOL     OW58492   0.178   2.094   5.573 -0.3115 -0.6987  0.2763
19024SOL    HW158493   0.143   2.182   5.581  2.5758  0.5691  0.3996
19024SOL    HW258494   0.204   2.086   5.481  2.0413 -0.2245  0.8239
19025SOL     OW58495   3.832   1.903   9.234  0.0554  0.5163  0.4092
19025SOL    HW158496   3.883   1.824   9.217 -1.5699 -0.7463  1.1976
19025SOL    HW258497   3.835   1.914   9.329 -1.0031  0.5231  0.4466
19026SOL     OW58498   0.659   1.466   0.749  0.1065 -0.1610  0.1264
19026SOL    HW158499   0.741   1.430   0.784  0.3140  0.9207  0.7997
19026SOL    HW258500   0.687   1.528   0.682 -0.1356  0.4470  0.5760
19027SOL     OW58501   5.309   3.588   4.553 -0.1376 -0.2469 -0.6472
19027SOL    HW158502   5.371   3.525   4.517  1.2260 -0.3473  1.6319
19027SOL    HW258503   5.236   3.535   4.584  1.5834 -1.0624  2.4736
19028SOL     OW58504   3.975   8.939   4.634  0.4576  0.7871 -0.1843
19028SOL    HW158505   3.904   8.901   4.685  2.5898 -1.0068  1.6391
19028SOL    HW258506   3.967   8.898   4.548 -1.1325  1.2030 -0.2551
19029SOL     OW58507   7.678   2.523   2.213  0.6680  0.1595 -0.2293
19029SOL    HW158508   7.594   2.568   2.223  1.5217  1.9509 -0.7901
19029SOL    HW258509   7.743   2.586   2.244  2.0210 -0.1821 -2.1720
19030SOL     OW58510   0.602   0.688   0.784  0.4180 -0.5299  0.0112
19030SOL    HW158511   0.563   0.757   0.730  0.8144  2.4484  3.1713
19030SOL    HW258512   0.695   0.692   0.765  0.3657 -0.6677 -0.2810
19031SOL     OW58513   2.280   5.710   1.590 -0.3640  0.2835  0.5952
19031SOL    HW158514   2.261   5.621   1.559 -2.8365  1.0814 -0.4320
19031SOL    HW258515   2.373   5.708   1.613  0.2712 -1.9059 -1.7037
19032SOL     OW58516   1.137   1.248   3.461 -0.1404 -0.3523  0.4246
19032SOL    HW158517   1.069   1.311   3.486 -0.5729 -0.9880  0.8822
19032SOL    HW258518   1.107   1.164   3.496  0.7092 -0.7142  0.3247
19033SOL     OW58519   1.617   6.511   7.555  0.9977 -0.4134 -0.2569
19033SOL    HW158520   1.597   6.579   7.619 -0.0232 -0.9800  0.0350
19033SOL    HW258521   1.587   6.546   7.472 -0.3767 -0.8442  0.0267
19034SOL     OW58522   8.192   2.486   1.344  0.3577 -0.2365 -0.2582
19034SOL    HW158523   8.239   2.420   1.395 -1.4675 -1.0640  0.4412
19034SOL    HW258524   8.188   2.563   1.401  1.0069 -0.0941 -0.3988
19035SOL     OW58525   0.430   7.835   2.097 -0.7110  0.4137  0.4345
19035SOL    HW158526   0.362   7.861   2.160 -1.5971 -2.7802  0.9816
19035SOL    HW258527   0.496   7.905   2.103 -1.9448  1.5067  3.0312
19036SOL     OW58528   0.086   7.916   1.501  0.9425  0.0111  0.2190
19036SOL    HW158529   0.046   7.838   1.464 -1.6735  1.3786 -0.0977
19036SOL    HW258530   0.013   7.977   1.512  2.8768  2.4429  0.3861
19037SOL     OW58531   5.252   1.962   0.525 -0.2311  0.0789  0.4792
19037SOL    HW158532   5.296   1.963   0.610 -1.9914  0.2915  1.4535
19037SOL    HW258533   5.202   1.880   0.525 -0.0833 -0.0125 -0.4371
19038SOL     OW58534   8.625   6.171   7.575 -0.2640  0.5828 -0.8408
19038SOL    HW158535   8.618   6.126   7.490  0.9294  1.2559 -1.3135
19038SOL    HW258536   8.685   6.117   7.626 -0.4350  0.5538 -0.6677
19039SOL     OW58537   2.553   4.876   8.282  0.2284  0.2192  0.1276
19039SOL    HW158538   2.646   4.875   8.260  0.0358  0.5329 -0.7656
19039SOL    HW258539   2.543   4.810   8.350  1.2423  0.7547  0.8203
19040SOL     OW58540   7.282   1.811   9.075 -0.1741 -0.1343  0.3197
19040SOL    HW158541   7.196   1.802   9.034  0.3956 -2.1656 -0.5436
19040SOL    HW258542   7.264   1.816   9.169 -1.2324 -0.6249  0.1512
19041SOL     OW58543   7.515   6.638   9.023  0.0607  0.6314 -0.2365
19041SOL    HW158544   7.555   6.559   9.059 -1.0681 -0.6356 -1.6192
19041SOL    HW258545   7.562   6.652   8.940 -0.0755  1.1142 -0.2335
19042SOL     OW58546   3.952   5.160   1.558 -0.4500  0.2966 -0.2106
19042SOL    HW158547   3.910   5.208   1.487  0.9990 -0.5467 -1.7162
19042SOL    HW258548   3.993   5.227   1.612 -0.2110  0.8769 -1.0938
19043SOL     OW58549   8.421   2.460   3.745  0.2703  0.5911 -1.1552
19043SOL    HW158550   8.485   2.526   3.772 -0.6713  1.2386 -0.4583
19043SOL    HW258551   8.341   2.509   3.728 -0.9211 -0.4780  0.9156
19044SOL     OW58552   2.085   1.036   9.015 -0.3494 -0.2880  0.8370
19044SOL    HW158553   2.061   0.945   9.031  1.7203 -0.9079  0.7042
19044SOL    HW258554   2.153   1.032   8.948 -1.6107  1.5331 -0.6830
19045SOL     OW58555   5.668   3.312   5.357  0.1052 -0.5521  0.1518
19045SOL    HW158556   5.615   3.302   5.436 -0.3243 -0.9403 -0.1813
19045SOL    HW258557   5.606   3.303   5.285  0.6451 -1.1827 -0.2473
19046SOL     OW58558   5.755   5.120   4.293  0.1292  0.0688  0.0961
19046SOL    HW158559   5.791   5.135   4.205 -0.0142  0.7727  0.1546
19046SOL    HW258560   5.692   5.190   4.305 -2.0689 -1.7087 -0.4120
19047SOL     OW58561   6.309   8.843   2.519  0.0748  0.0990 -0.1234
19047SOL    HW158562   6.381   8.904   2.504  0.7616 -0.7475 -0.3376
19047SOL    HW258563   6.351   8.763   2.550 -0.9762  0.5035  2.6686
19048SOL     OW58564   8.856   6.471   8.556  0.2086 -0.0172 -0.3449
19048SOL    HW158565   8.940   6.464   8.511 -0.0887 -0.8523 -0.7916
19048SOL    HW258566   8.791   6.448   8.489 -0.4011  0.9001 -0.0866
19049SOL     OW58567   3.917   4.889   4.042  0.1030  0.5624 -0.1939
19049SOL    HW158568   3.865   4.817   4.079 -0.7582  1.8505  1.2398
19049SOL    HW258569   3.852   4.949   4.005  0.6541  1.5213  0.3539
19050SOL     OW58570   6.511   0.526   4.590  0.2844  0.4843 -0.1154
19050SOL    HW158571   6.573   0.567   4.530  0.3875  0.5980  0.0687
19050SOL    HW258572   6.425   0.541   4.550  0.4363 -0.4715 -0.8474
19051SOL     OW58573   0.768   0.451   3.971  0.1705 -0.2723  0.1147
19051SOL    HW158574   0.782   0.376   4.030  1.8354 -0.0749  0.0261
19051SOL    HW258575   0.756   0.526   4.029  1.4981 -0.1319  0.2507
19052SOL     OW58576   3.049   6.232   7.042  0.4951  0.1687 -0.4378
19052SOL    HW158577   3.111   6.161   7.060  0.0007  0.0421  0.8483
19052SOL    HW258578   3.096   6.289   6.981  1.1621 -0.8965 -0.9544
19053SOL     OW58579   3.349   4.274   5.251  0.3031 -0.0039 -0.4482
19053SOL    HW158580   3.275   4.253   5.194  0.0574  0.1927 -0.2079
19053SOL    HW258581   3.422   4.223   5.216  0.6354  1.4772 -2.0265
19054SOL     OW58582   0.484   2.704   0.067  0.0474 -0.2608 -0.4915
19054SOL    HW158583   0.399   2.674   0.099  1.3004 -1.1917  2.2954
19054SOL    HW258584   0.482   2.799   0.079 -0.2095 -0.3992  0.6780
19055SOL     OW58585   9.166   1.932   0.124 -0.0597  0.0847 -0.7847
19055SOL    HW158586   9.112   1.931   0.203  0.0636 -0.2974 -0.7038
19055SOL    HW258587   9.113   1.887   0.058 -0.8737  1.8302 -1.4072
19056SOL     OW58588   0.784   8.629   5.751  0.1179  0.6315 -0.0730
19056SOL    HW158589   0.779   8.684   5.673  0.1765  0.3064 -0.3074
19056SOL    HW258590   0.693   8.617   5.778  0.0812  0.5523 -0.2296
19057SOL     OW58591   1.586   1.255   5.899  0.1226  0.2554  0.0071
19057SOL    HW158592   1.554   1.221   5.816  0.6210  0.2428 -0.1810
19057SOL    HW258593   1.530   1.332   5.916 -0.2301  0.0350 -0.1442
19058SOL     OW58594   5.533   5.483   0.822 -0.1213  0.8202  0.2915
19058SOL    HW158595   5.550   5.565   0.776 -1.9449  1.4573  0.6782
19058SOL    HW258596   5.439   5.467   0.810  0.3130 -1.6226 -0.3892
19059SOL     OW58597   2.984   5.367   3.135 -0.1572  0.3065 -0.1119
19059SOL    HW158598   2.955   5.389   3.046  0.1457  0.1084 -0.2597
19059SOL    HW258599   2.937   5.429   3.191  2.2143  2.7545 -0.6602
19060SOL     OW58600   5.722   7.685   7.689 -0.3701  0.5486  0.2066
19060SOL    HW158601   5.670   7.684   7.770 -0.1970  0.0758  0.3135
19060SOL    HW258602   5.716   7.775   7.658 -0.5718  0.6939  0.6621
19061SOL     OW58603   3.094   6.535   7.545  0.3404 -0.5302  0.2075
19061SOL    HW158604   3.028   6.574   7.489  0.8659 -1.6331 -1.2426
19061SOL    HW258605   3.100   6.594   7.620 -1.3300  0.2742 -0.2578
19062SOL     OW58606   1.073   2.706   0.091  0.1083 -0.4024  0.1312
19062SOL    HW158607   1.169   2.702   0.085  0.0886  0.6203 -1.8633
19062SOL    HW258608   1.052   2.657   0.170  2.1680 -2.1649 -0.3111
19063SOL     OW58609   7.932   8.430   5.378 -0.2543  0.5518  0.1253
19063SOL    HW158610   8.013   8.393   5.345  0.3096  0.8620  1.1264
19063SOL    HW258611   7.867   8.360   5.366  0.6875 -0.6314  1.5692
19064SOL     OW58612   8.879   7.585   9.128  0.3390 -0.0951  0.6406
19064SOL    HW158613   8.790   7.552   9.118  0.5385 -0.4578 -0.0842
19064SOL    HW258614   8.901   7.619   9.041  1.1511 -0.6588  0.6078
19065SOL     OW58615   4.826   5.447   4.588 -0.1744 -0.7513  0.2373
19065SOL    HW158616   4.768   5.478   4.519 -0.9068  0.2000  1.2351
19065SOL    HW258617   4.881   5.522   4.609  1.3928 -1.6052 -0.6137
19066SOL     OW58618   2.433   6.083   5.328 -0.0353  0.6224  0.5265
19066SOL    HW158619   2.507   6.033   5.362 -0.4999 -0.2743  0.2470
19066SOL    HW258620   2.384   6.109   5.406 -1.4009 -1.8954  0.6290
19067SOL     OW58621   5.441   4.119   6.400 -0.2059  0.1023  0.3543
19067SOL    HW158622   5.389   4.180   6.453 -0.9920 -0.9519  0.8448
19067SOL    HW258623   5.524   4.111   6.447 -0.2294  0.5425  0.4706
19068SOL     OW58624   9.232   0.908   6.345 -0.2884 -0.1393  0.0017
19068SOL    HW158625   9.174   0.859   6.403 -0.8611  1.2232  0.6199
19068SOL    HW258626   9.181   0.920   6.265 -0.9206  1.1161  0.5692
19069SOL     OW58627   6.976   2.381   5.805  0.4207 -0.8984  0.0972
19069SOL    HW158628   7.050   2.348   5.753  0.7074 -0.8495  0.4636
19069SOL    HW258629   6.919   2.305   5.816  0.6062 -1.0339  0.1354
19070SOL     OW58630   0.309   0.301   5.205  0.0494  0.4638  0.3396
19070SOL    HW158631   0.233   0.318   5.260 -0.5015 -2.4513  0.6691
19070SOL    HW258632   0.275   0.252   5.131  1.6028 -1.4964  0.8273
19071SOL     OW58633   0.601   5.172   0.741  0.2110  0.3100  0.2613
19071SOL    HW158634   0.600   5.097   0.682  1.0967  0.1760  0.4121
19071SOL    HW258635   0.531   5.154   0.803 -0.3645  0.1885 -0.4105
19072SOL     OW58636   0.609   5.548   1.170 -0.5474  0.7317 -0.0030
19072SOL    HW158637   0.590   5.631   1.215  0.1613  1.4448 -0.9679
19072SOL    HW258638   0.605   5.569   1.077 -0.3331 -0.3194 -0.2670
19073SOL     OW58639   7.443   0.608   0.327  0.0175  0.0687 -0.0631
19073SOL    HW158640   7.534   0.592   0.303  0.8991  0.9012  2.3536
19073SOL    HW258641   7.424   0.696   0.295  1.4173  1.4749  2.6597
19074SOL     OW58642   4.681   3.818   5.250 -0.0976  0.2508  0.3269
19074SOL    HW158643   4.744   3.751   5.222 -0.7200  0.6611 -2.2970
19074SOL    HW258644   4.700   3.894   5.195 -1.0937  1.3595  1.4422
19075SOL     OW58645   0.884   4.634   8.891 -0.1897  0.0404 -0.4090
19075SOL    HW158646   0.804   4.596   8.928 -0.6970 -0.7071 -2.1565
19075SOL    HW258647   0.927   4.560   8.847  1.1826  0.5608  0.0087
19076SOL     OW58648   9.110   9.190   4.980 -0.6084 -0.1063  0.1282
19076SOL    HW158649   9.192   9.159   5.018 -0.6864  0.3957  0.7117
19076SOL    HW258650   9.130   9.275   4.943 -0.9909  0.2887  0.7955
19077SOL     OW58651   1.231   0.299   4.411 -0.1450  0.4013 -0.0073
19077SOL    HW158652   1.183   0.261   4.484 -1.0888 -0.3258 -0.9631
19077SOL    HW258653   1.232   0.393   4.428 -1.2914  0.3471  0.4041
19078SOL     OW58654   5.939   5.336   8.046  0.3043 -0.0328  0.3264
19078SOL    HW158655   5.986   5.393   8.107 -0.3177  3.1260 -1.8814
19078SOL    HW258656   5.989   5.342   7.964 -0.5924 -1.5704 -0.3797
19079SOL     OW58657   0.714   6.495   4.527  0.5654 -0.7627  0.2753
19079SOL    HW158658   0.643   6.545   4.567  1.3440  1.3538 -0.8340
19079SOL    HW258659   0.711   6.519   4.434  1.1185 -2.6762 -0.2852
19080SOL     OW58660   0.361   3.094   3.025 -0.0120  0.4649  0.0372
19080SOL    HW158661   0.303   3.170   3.019  0.8033  1.2634  1.5378
19080SOL    HW258662   0.302   3.020   3.039 -0.7310  1.3768  2.4691
19081SOL     OW58663   2.113   7.325   6.431 -0.4608 -0.3188  0.2478
19081SOL    HW158664   2.199   7.349   6.397 -0.3355 -0.6474  0.3264
19081SOL    HW258665   2.087   7.249   6.378 -1.4635  0.8117 -0.9560
19082SOL     OW58666   0.840   7.834   1.625  0.5472 -0.2330  0.3683
19082SOL    HW158667   0.893   7.755   1.634 -0.1986 -0.7045  0.6327
19082SOL    HW258668   0.831   7.867   1.714 -0.3170 -0.6267  0.4327
19083SOL     OW58669   8.856   3.427   5.815 -0.3042  0.6542 -0.1611
19083SOL    HW158670   8.840   3.491   5.884  1.8085  0.4357  0.5971
19083SOL    HW258671   8.807   3.350   5.842  0.8592  0.4155  1.3708
19084SOL     OW58672   2.285   7.254   8.290 -0.3925  0.4369  0.2929
19084SOL    HW158673   2.290   7.186   8.223 -1.6070  0.3065  0.3132
19084SOL    HW258674   2.325   7.330   8.249 -0.4572  0.1492 -0.3222
19085SOL     OW58675   1.552   1.650   7.294  0.1124 -0.0888 -0.2898
19085SOL    HW158676   1.515   1.635   7.207  2.4502  0.6679 -1.4792
19085SOL    HW258677   1.510   1.584   7.349  0.0771 -1.9685 -2.4306
19086SOL     OW58678   9.269   4.975   0.332 -0.0509  0.7381  0.2792
19086SOL    HW158679   9.245   4.963   0.240 -2.2673  0.0145  0.8687
19086SOL    HW258680   9.323   5.054   0.333  1.7277 -0.3339 -1.8490
19087SOL     OW58681   1.479   7.455   5.575  0.5000  0.9630  0.1319
19087SOL    HW158682   1.539   7.381   5.582 -1.5478 -0.9428 -0.8760
19087SOL    HW258683   1.439   7.445   5.488 -0.5072  2.7515  0.3369
19088SOL     OW58684   5.178   5.463   8.135 -0.1387  0.1684  0.5146
19088SOL    HW158685   5.126   5.539   8.109 -1.2380 -0.7882 -0.2174
19088SOL    HW258686   5.141   5.390   8.084  0.9703 -0.8287  1.0805
19089SOL     OW58687   3.194   7.584   7.756  0.0219  0.1247  0.0424
19089SOL    HW158688   3.288   7.568   7.766 -0.2452 -0.5684  1.7218
19089SOL    HW258689   3.189   7.663   7.702  1.5110 -1.1588 -2.1574
19090SOL     OW58690   8.254   4.316   7.444  0.1463  0.1332  0.3012
19090SOL    HW158691   8.224   4.277   7.526  0.5732  0.4361  0.6078
19090SOL    HW258692   8.176   4.360   7.409 -0.8461 -2.4868 -0.9880
19091SOL     OW58693   7.704   7.699   0.555  0.2341  0.2803 -0.0761
19091SOL    HW158694   7.653   7.624   0.525 -1.4571  1.2072  0.3937
19091SOL    HW258695   7.656   7.775   0.524  0.0861  1.2292  2.2981
19092SOL     OW58696   0.085   6.163   3.164 -0.5415 -0.1386  0.0410
19092SOL    HW158697   0.048   6.130   3.246 -0.7240  0.3265  0.1430
19092SOL    HW258698   0.021   6.226   3.131 -0.6569 -0.6059 -0.6622
19093SOL     OW58699   0.051   0.816   4.707  0.4738 -0.1470 -0.0519
19093SOL    HW158700  -0.016   0.759   4.669  1.0319 -1.1571  0.4272
19093SOL    HW258701   0.046   0.897   4.656 -1.2080 -0.1274  0.0734
19094SOL     OW58702   5.970   0.488   2.923  0.5908 -0.0115  0.2703
19094SOL    HW158703   6.045   0.520   2.973  0.9728 -1.2316  0.5094
19094SOL    HW258704   5.931   0.567   2.885  0.0290  1.0235  2.8176
19095SOL     OW58705   0.850   5.931   1.673  0.3210  0.1516  0.9273
19095SOL    HW158706   0.880   5.918   1.583 -1.3509  1.4087  0.1296
19095SOL    HW258707   0.856   5.844   1.713  0.6928 -0.5191 -0.5259
19096SOL     OW58708   2.698   7.970   4.635 -0.8116 -1.0510 -0.1776
19096SOL    HW158709   2.633   7.937   4.697 -2.1822 -2.2003 -2.1201
19096SOL    HW258710   2.691   7.911   4.559  1.5142 -0.3365 -1.0269
19097SOL     OW58711   1.109   3.869   5.682  0.1884  0.0325 -0.0537
19097SOL    HW158712   1.180   3.805   5.679 -1.0179 -1.5311  2.0940
19097SOL    HW258713   1.129   3.925   5.757  0.4344  1.2408 -0.9878
19098SOL     OW58714   8.691   6.768   5.646  1.1211 -0.4267 -0.3241
19098SOL    HW158715   8.697   6.707   5.720  0.6074  0.5092  0.5065
19098SOL    HW258716   8.676   6.711   5.570  0.1490 -1.3096  0.4964
19099SOL     OW58717   1.555   4.187   4.729  0.5897 -0.2875  0.0956
19099SOL    HW158718   1.597   4.188   4.643 -0.7016 -1.0857 -0.5831
19099SOL    HW258719   1.498   4.110   4.727  2.3206 -1.7999  2.5666
19100SOL     OW58720   8.091   2.782   1.129  0.1127  0.0525 -0.0487
19100SOL    HW158721   8.180   2.808   1.152 -0.1680  0.4256  0.6462
19100SOL    HW258722   8.047   2.769   1.214 -0.9483  1.4576 -0.3580
19101SOL     OW58723   1.600   8.964   8.730 -0.0198 -0.3385 -0.1858
19101SOL    HW158724   1.545   8.933   8.657 -1.8160 -1.1986  1.4481
19101SOL    HW258725   1.620   8.885   8.780 -1.0037  0.4977  1.6512
19102SOL     OW58726   6.439   1.112   5.446  0.8092  0.0463 -0.6288
19102SOL    HW158727   6.484   1.194   5.424  2.4895 -0.3572  1.0368
19102SOL    HW258728   6.476   1.048   5.386 -0.0142  0.3568 -1.4839
19103SOL     OW58729   6.102   8.161   1.157 -0.4027  0.0770  0.4937
19103SOL    HW158730   6.043   8.236   1.144  0.5337  1.0183  1.3945
19103SOL    HW258731   6.144   8.148   1.072 -0.9845  0.2226  0.1830
19104SOL     OW58732   4.752   0.943   3.768 -0.1875  0.9391 -0.2152
19104SOL    HW158733   4.706   1.007   3.715  0.7510  1.2476 -0.6613
19104SOL    HW258734   4.758   0.865   3.712 -1.0858  0.5280  0.2282
19105SOL     OW58735   6.483   6.275   0.106 -0.7525 -0.1228  0.0603
19105SOL    HW158736   6.442   6.231   0.181 -0.1052  0.1675  0.5987
19105SOL    HW258737   6.434   6.356   0.097  1.9591  2.1174  3.1580
19106SOL     OW58738   8.915   1.953   8.482  0.3061  0.2649  0.2891
19106SOL    HW158739   8.821   1.971   8.478  0.6672  2.3128  0.3382
19106SOL    HW258740   8.930   1.924   8.572 -0.2452  0.1068  0.3338
19107SOL     OW58741   4.182   0.604   4.160 -0.2685  0.0631  0.3555
19107SOL    HW158742   4.232   0.651   4.227 -1.0861  1.6466 -0.0890
19107SOL    HW258743   4.096   0.645   4.162 -0.3065  0.1529 -1.6723
19108SOL     OW58744   7.495   3.950   7.765 -0.2870 -0.2768  0.3976
19108SOL    HW158745   7.445   3.941   7.684 -0.0521  0.1545  0.1992
19108SOL    HW258746   7.567   4.009   7.742  1.1978 -2.0754  0.2642
19109SOL     OW58747   7.916   6.239   2.866 -0.7201  0.0860 -0.3198
19109SOL    HW158748   7.968   6.171   2.824 -1.8269  1.0464 -3.5326
19109SOL    HW258749   7.901   6.206   2.955  0.3465 -2.9466 -1.1461
19110SOL     OW58750   7.384   9.026   0.705  0.5746 -0.4629 -0.6113
19110SOL    HW158751   7.300   9.065   0.729  2.8901  3.2468  2.5850
19110SOL    HW258752   7.400   8.961   0.773  0.6265 -0.6525 -0.8051
19111SOL     OW58753   5.411   2.499   0.922 -0.2877  0.1917 -0.6557
19111SOL    HW158754   5.465   2.493   0.844  0.2478 -1.3991 -0.1801
19111SOL    HW258755   5.326   2.529   0.890 -0.2962 -1.1646 -1.9542
19112SOL     OW58756   3.803   3.508   7.608  0.1029 -0.7137  0.0896
19112SOL    HW158757   3.882   3.539   7.652  0.0196 -1.9157  1.1363
19112SOL    HW258758   3.786   3.573   7.540  0.0102  1.4180  2.0690
19113SOL     OW58759   0.532   7.357   9.094 -0.7133 -0.0513  0.2612
19113SOL    HW158760   0.621   7.330   9.070 -0.3351 -0.0069  1.5225
19113SOL    HW258761   0.477   7.323   9.025  0.4021  0.8150 -1.1166
19114SOL     OW58762   7.077   6.548   6.986 -0.4280 -0.2334 -0.3680
19114SOL    HW158763   7.097   6.633   6.946 -1.4713  0.0127 -0.3946
19114SOL    HW258764   7.054   6.492   6.912  0.1715 -0.5148 -0.3412
19115SOL     OW58765   2.741   8.090   8.993 -0.4619 -0.4570  0.3736
19115SOL    HW158766   2.693   8.155   9.045 -0.5844 -0.4817  0.2907
19115SOL    HW258767   2.757   8.019   9.055  1.2457  0.3931  0.9779
19116SOL     OW58768   1.949   7.791   7.739  0.0938 -0.9981 -0.4078
19116SOL    HW158769   1.874   7.744   7.776 -0.8645  1.2849  0.7866
19116SOL    HW258770   1.910   7.846   7.670  0.5872  0.3448  0.3471
19117SOL     OW58771   1.478   6.559   8.052 -0.2947  0.0040  0.8078
19117SOL    HW158772   1.514   6.533   8.137 -0.4307 -0.4566  0.7233
19117SOL    HW258773   1.491   6.483   7.996 -1.3719 -0.1538  0.7607
19118SOL     OW58774   4.880   5.902   3.444  0.1487  0.2742 -0.4360
19118SOL    HW158775   4.949   5.836   3.445  0.5419  0.6263  2.3354
19118SOL    HW258776   4.917   5.976   3.492 -1.1745  1.5861 -1.3540
19119SOL     OW58777   2.420   1.579   2.691  0.5972  0.4681 -0.0650
19119SOL    HW158778   2.509   1.549   2.676  1.0682  1.5177  0.5441
19119SOL    HW258779   2.370   1.499   2.710  0.9626 -0.3685 -2.3367
19120SOL     OW58780   7.798   5.119   7.035  0.4665  0.9861  0.2795
19120SOL    HW158781   7.720   5.130   6.980  0.7125 -0.9433 -0.5205
19120SOL    HW258782   7.765   5.085   7.118  0.4410 -0.0081 -0.1233
19121SOL     OW58783   7.978   3.127   0.717  0.1560 -0.5938 -0.1928
19121SOL    HW158784   7.981   3.092   0.628 -0.3878 -0.8407 -0.1205
19121SOL    HW258785   8.012   3.056   0.772 -0.4123 -0.7986 -0.1045
19122SOL     OW58786   5.420   6.082   5.171 -0.7970  0.0431 -0.7175
19122SOL    HW158787   5.493   6.129   5.211 -0.5719 -0.1493 -0.8992
19122SOL    HW258788   5.373   6.043   5.245  0.8447 -2.1185 -0.7234
19123SOL     OW58789   4.086   6.904   7.068  0.3431  0.2901 -0.1570
19123SOL    HW158790   4.102   6.905   7.162 -0.8212 -0.1348  0.0570
19123SOL    HW258791   3.994   6.929   7.059  0.9407  2.2193 -1.3066
19124SOL     OW58792   1.205   6.068   5.641 -0.0650  0.7682  0.0321
19124SOL    HW158793   1.147   6.033   5.709 -3.1464  2.1738 -1.6706
19124SOL    HW258794   1.236   5.991   5.594 -2.2116 -0.0228 -0.2131
19125SOL     OW58795   2.424   1.878   1.252  0.5709 -0.9418 -0.7841
19125SOL    HW158796   2.471   1.917   1.326  1.6256  0.8033 -2.2885
19125SOL    HW258797   2.333   1.875   1.280  1.1423 -1.9690  1.2161
19126SOL     OW58798   4.162   3.518   7.827  0.2450  0.3034 -0.1692
19126SOL    HW158799   4.103   3.574   7.878 -0.3991 -0.7980  0.3194
19126SOL    HW258800   4.248   3.534   7.865  0.2255  1.6167 -0.6218
19127SOL     OW58801   6.657   5.113   3.586 -0.0952 -0.3902  0.2509
19127SOL    HW158802   6.677   5.178   3.519  0.3227 -1.0044 -0.2372
19127SOL    HW258803   6.571   5.138   3.619  0.4357  0.9091  0.6962
19128SOL     OW58804   3.765   7.673   4.351 -0.2873  0.5682 -0.3005
19128SOL    HW158805   3.859   7.680   4.368  0.1944 -0.4642 -2.1785
19128SOL    HW258806   3.757   7.687   4.257 -2.1751  1.6706 -0.0216
19129SOL     OW58807   8.642   3.625   3.292 -0.3290 -0.8218  0.3915
19129SOL    HW158808   8.652   3.552   3.353 -0.7490 -0.4307  0.9343
19129SOL    HW258809   8.555   3.614   3.254 -1.1725  0.4057  1.8535
19130SOL     OW58810   8.284   4.771   6.310 -0.1529  0.1186  0.1778
19130SOL    HW158811   8.358   4.816   6.350  0.5340 -1.6945  1.0486
19130SOL    HW258812   8.321   4.691   6.273 -1.5666 -0.5244  0.0697
19131SOL     OW58813   7.246   1.909   4.215  0.1296 -0.3265  0.2975
19131SOL    HW158814   7.200   1.904   4.131 -0.4844 -1.1869  0.6639
19131SOL    HW258815   7.323   1.963   4.198 -0.4158  0.1783 -0.6200
19132SOL     OW58816   1.509   3.025   7.786 -0.0496 -0.0901  0.2635
19132SOL    HW158817   1.468   3.008   7.702 -1.1432  0.7259  0.6048
19132SOL    HW258818   1.602   3.040   7.765 -0.3273  0.2239 -0.8100
19133SOL     OW58819   6.846   1.593   6.765  0.1296 -0.1763 -0.0430
19133SOL    HW158820   6.826   1.676   6.808  0.2327 -0.3767  0.4009
19133SOL    HW258821   6.878   1.536   6.836  0.1225 -0.5725 -0.3510
19134SOL     OW58822   6.666   3.937   5.961 -0.1336  0.1003 -0.4097
19134SOL    HW158823   6.655   3.845   5.985  3.1464 -0.0555  1.1612
19134SOL    HW258824   6.577   3.971   5.953 -1.7741 -1.5752  5.6083
19135SOL     OW58825   0.424   7.042   6.314 -0.4853 -1.0005  0.0907
19135SOL    HW158826   0.353   7.009   6.259 -0.3543 -0.9072 -0.1331
19135SOL    HW258827   0.499   7.049   6.256 -0.7953  0.7744 -0.1702
19136SOL     OW58828   2.289   4.106   7.715 -0.1180  0.3821  0.0902
19136SOL    HW158829   2.211   4.060   7.747 -1.0448  0.6589 -1.6263
19136SOL    HW258830   2.357   4.084   7.778 -1.9084  1.3714  2.5609
19137SOL     OW58831   6.958   8.101   3.861  0.2622 -0.4745 -0.1961
19137SOL    HW158832   7.017   8.065   3.796  3.0073  1.6951  0.8788
19137SOL    HW258833   6.971   8.047   3.939  1.2155  0.2070  0.1472
19138SOL     OW58834   6.025   5.953   6.987 -0.4192 -0.1956  0.0369
19138SOL    HW158835   6.054   6.003   7.063 -0.4031 -1.6122  1.0084
19138SOL    HW258836   6.050   5.863   7.006  0.4145 -0.4810 -2.0728
19139SOL     OW58837   8.909   5.902   1.416 -0.0474  0.3151  0.9727
19139SOL    HW158838   9.001   5.888   1.392 -0.5318  0.2192 -1.0242
19139SOL    HW258839   8.885   5.983   1.372 -1.1581 -0.1319  0.7244
19140SOL     OW58840   5.746   1.323   3.506  0.8991  0.2596 -0.4824
19140SOL    HW158841   5.743   1.337   3.601  1.3500  0.1549 -0.4479
19140SOL    HW258842   5.676   1.260   3.489  1.0483  0.0069 -0.1679
19141SOL     OW58843   2.035   3.337   8.919 -0.3151  0.3667  0.5207
19141SOL    HW158844   2.011   3.246   8.938 -1.7933  0.9229  1.4742
19141SOL    HW258845   2.000   3.353   8.832  2.5777 -0.8281 -1.0006
19142SOL     OW58846   3.547   5.491   3.216 -0.1741  0.9335 -0.2465
19142SOL    HW158847   3.602   5.418   3.187 -0.1174  0.9373 -0.1485
19142SOL    HW258848   3.609   5.553   3.255 -0.5106 -0.2176  2.2866
19143SOL     OW58849   7.250   0.578   4.724 -0.2782 -0.0469 -0.0607
19143SOL    HW158850   7.315   0.637   4.761 -0.6359 -0.3805  1.1151
19143SOL    HW258851   7.169   0.628   4.725 -0.4135 -0.2713  0.1704
19144SOL     OW58852   5.777   0.652   4.549  0.1953  0.2809 -0.2588
19144SOL    HW158853   5.838   0.684   4.483  2.8356 -1.3897  1.1714
19144SOL    HW258854   5.820   0.573   4.584 -1.5926  0.4583  2.6241
19145SOL     OW58855   7.692   8.908   1.212 -0.4546 -0.3982  0.1509
19145SOL    HW158856   7.658   8.853   1.283 -0.3521 -1.4640 -0.6156
19145SOL    HW258857   7.779   8.872   1.193  0.0001  0.6045  0.2473
19146SOL     OW58858   2.708   8.746   4.948 -0.3444 -0.2294 -0.4344
19146SOL    HW158859   2.763   8.805   5.000 -1.1131 -1.6066  2.0965
19146SOL    HW258860   2.649   8.804   4.901 -0.2760  1.0926  1.0228
19147SOL     OW58861   1.282   7.504   3.109  0.2773 -0.0817  0.0310
19147SOL    HW158862   1.203   7.558   3.114  0.3553 -0.0230  0.6964
19147SOL    HW258863   1.327   7.535   3.030  0.0345  0.4338  0.0891
19148SOL     OW58864   6.714   3.366   2.352 -0.4115  0.3649 -0.1265
19148SOL    HW158865   6.655   3.434   2.317 -0.2810  0.7958  0.4776
19148SOL    HW258866   6.657   3.294   2.375 -0.5814  0.3593 -0.5481
19149SOL     OW58867   0.366   7.108   3.362 -0.0889 -0.3858 -0.1675
19149SOL    HW158868   0.339   7.038   3.302  0.6490 -0.5951 -0.2755
19149SOL    HW258869   0.285   7.154   3.385 -0.7733 -1.9850  0.8096
19150SOL     OW58870   0.610   5.975   2.150  0.0908  0.0588  0.5375
19150SOL    HW158871   0.697   6.014   2.144  1.0412 -1.8943  0.9403
19150SOL    HW258872   0.575   5.981   2.061  0.2643  1.5900  0.5399
19151SOL     OW58873   8.525   4.888   1.325  0.2172  0.4018  0.9682
19151SOL    HW158874   8.513   4.970   1.277  1.4839  0.5649  0.8963
19151SOL    HW258875   8.528   4.914   1.417 -0.5256  0.2889  1.0304
19152SOL     OW58876   8.897   6.134   7.113  0.2181  0.2405  0.2354
19152SOL    HW158877   8.965   6.089   7.163 -0.7371 -1.2581  0.2475
19152SOL    HW258878   8.817   6.119   7.164 -0.5648 -0.2604 -1.0960
19153SOL     OW58879   0.663   2.599   6.047  0.1629 -0.0200  0.0333
19153SOL    HW158880   0.651   2.603   6.142 -0.8380 -1.9395  0.0177
19153SOL    HW258881   0.690   2.509   6.030  0.9800  0.4737 -1.4588
19154SOL     OW58882   2.412   0.594   2.040  0.2320  0.1188 -0.4172
19154SOL    HW158883   2.438   0.682   2.013  1.4747 -0.5472 -1.4644
19154SOL    HW258884   2.444   0.536   1.971  0.0962 -1.2443  0.6103
19155SOL     OW58885   7.042   3.981   0.203 -0.2962 -0.3407 -0.2556
19155SOL    HW158886   7.110   3.952   0.263 -0.6037  1.7080  1.2145
19155SOL    HW258887   7.067   4.070   0.179 -0.0022 -1.2031 -3.5561
19156SOL     OW58888   7.485   5.640   0.803  0.3023 -0.3854  0.5859
19156SOL    HW158889   7.412   5.581   0.785 -0.5716  0.8744 -0.1452
19156SOL    HW258890   7.519   5.610   0.887 -2.0158 -0.1273  1.7072
19157SOL     OW58891   7.622   8.023   1.773 -0.3960 -0.4363  0.1521
19157SOL    HW158892   7.592   7.941   1.732  0.3711  0.2794 -2.0020
19157SOL    HW258893   7.696   8.050   1.719 -0.8753  1.8863  0.5590
19158SOL     OW58894   6.012   3.431   7.604  0.4679  0.0415 -0.0118
19158SOL    HW158895   5.956   3.407   7.530 -0.2660 -0.2102  0.6123
19158SOL    HW258896   5.950   3.451   7.675  1.1692 -1.3844  1.0411
19159SOL     OW58897   0.436   6.947   8.886 -0.2020  0.6778  0.6397
19159SOL    HW158898   0.517   6.951   8.935 -0.1304  0.9535  0.5026
19159SOL    HW258899   0.423   7.036   8.853 -0.3756  0.5555  0.3693
19160SOL     OW58900   0.380   6.820   0.987 -0.4965  0.2838 -0.3285
19160SOL    HW158901   0.375   6.877   0.910 -0.3636 -0.9167 -1.2513
19160SOL    HW258902   0.295   6.775   0.990  0.7382 -2.4379 -2.0361
19161SOL     OW58903   4.484   9.098   4.158 -0.1373  0.4298  0.0848
19161SOL    HW158904   4.461   9.180   4.116 -2.1917 -0.9663 -1.7184
19161SOL    HW258905   4.404   9.071   4.203  0.5422 -0.5291  0.7525
19162SOL     OW58906   3.025   8.681   8.029 -0.3230 -0.1686  0.5470
19162SOL    HW158907   3.060   8.599   8.063  1.2019  0.5100  0.6940
19162SOL    HW258908   3.048   8.746   8.096  1.2429  0.9034 -0.9563
19163SOL     OW58909   7.358   0.979   7.114 -0.2872 -0.4992  0.1277
19163SOL    HW158910   7.282   0.923   7.132 -0.0492 -0.8445  0.0665
19163SOL    HW258911   7.382   0.959   7.023  0.6079 -1.2816  0.5185
19164SOL     OW58912   5.245   5.004   8.417  0.4027  0.1789 -0.6963
19164SOL    HW158913   5.224   5.044   8.501  0.9976  0.1657 -0.5423
19164SOL    HW258914   5.179   4.935   8.407 -0.1447  0.6867 -0.6056
19165SOL     OW58915   5.397   6.487   7.635 -0.5555 -0.2607  0.2723
19165SOL    HW158916   5.412   6.436   7.555  0.8505  1.2937 -0.5343
19165SOL    HW258917   5.325   6.443   7.679  0.6600 -2.9974 -0.2739
19166SOL     OW58918   4.767   8.735   8.634 -0.0982  0.1898 -0.2042
19166SOL    HW158919   4.756   8.640   8.647 -0.5880  0.2566 -0.1096
19166SOL    HW258920   4.861   8.746   8.622  0.1314 -0.1665  1.0598
19167SOL     OW58921   3.063   0.020   0.881 -0.2117  0.1017 -0.1371
19167SOL    HW158922   3.152   0.041   0.909  0.1449 -0.0327 -1.0961
19167SOL    HW258923   3.062  -0.076   0.877 -1.2228 -0.0447  2.3497
19168SOL     OW58924   7.612   4.819   5.464 -0.0970 -0.5810 -0.0379
19168SOL    HW158925   7.548   4.752   5.488  0.6268 -1.6410 -0.9704
19168SOL    HW258926   7.603   4.827   5.369  0.1631  0.3197  0.0014
19169SOL     OW58927   7.211   9.042   8.064  0.1828 -0.3203 -0.7357
19169SOL    HW158928   7.256   8.992   7.996 -1.3692 -1.6231 -0.8497
19169SOL    HW258929   7.137   8.987   8.089  0.9278 -0.0819  2.3287
19170SOL     OW58930   4.003   7.772   5.099  0.2323 -0.1924 -0.0993
19170SOL    HW158931   4.023   7.862   5.121  0.8549  0.4854 -3.0851
19170SOL    HW258932   3.981   7.773   5.006  0.9738 -3.2195 -0.4381
19171SOL     OW58933   8.372   1.071   3.893  0.0209 -0.0775  0.1069
19171SOL    HW158934   8.457   1.100   3.927  1.4796 -3.2744 -0.4358
19171SOL    HW258935   8.364   1.114   3.808 -0.6255  2.9147  1.5378
19172SOL     OW58936   7.451   2.980   5.733 -0.9941  0.6520  0.3809
19172SOL    HW158937   7.520   2.920   5.707  0.5394  2.1590  0.7689
19172SOL    HW258938   7.475   3.064   5.693 -1.8620  1.5285  1.5936
19173SOL     OW58939   8.843   9.009   3.326 -0.7662 -0.1773  0.2756
19173SOL    HW158940   8.885   9.083   3.369  0.0270  0.2412 -1.1559
19173SOL    HW258941   8.801   8.960   3.397  0.8414  0.2306  1.5613
19174SOL     OW58942   5.968   3.953   3.694  0.0314  0.2894 -0.7928
19174SOL    HW158943   6.003   3.979   3.779  1.6996 -0.3322 -1.2447
19174SOL    HW258944   5.874   3.945   3.708  0.2327  0.5693  0.8983
19175SOL     OW58945   2.468   8.573   4.268 -0.0142  0.1060 -0.1491
19175SOL    HW158946   2.470   8.570   4.364  0.0709 -1.5430 -0.1867
19175SOL    HW258947   2.448   8.665   4.248 -2.1354  0.0768  1.4843
19176SOL     OW58948   0.559   0.245   7.715  0.0668 -0.1075  0.0323
19176SOL    HW158949   0.562   0.261   7.810  1.1949 -3.1716  0.6258
19176SOL    HW258950   0.467   0.229   7.696  0.1244 -2.0010  1.1645
19177SOL     OW58951   6.063   7.168   8.161  0.0911  0.3609 -0.0057
19177SOL    HW158952   6.098   7.079   8.171  1.4115  0.8134 -0.3695
19177SOL    HW258953   6.066   7.184   8.067 -1.6295  0.2424 -0.1115
19178SOL     OW58954   8.665   8.555   5.283  0.2046  0.3657 -0.5946
19178SOL    HW158955   8.668   8.514   5.370  0.0559 -0.2778 -0.8813
19178SOL    HW258956   8.756   8.564   5.258  0.3160  2.1080  0.3215
19179SOL     OW58957   1.501   1.684   0.597 -0.2230  0.3807 -0.0067
19179SOL    HW158958   1.590   1.651   0.590 -0.3843 -0.2092  0.6260
19179SOL    HW258959   1.446   1.606   0.604 -0.6885  0.7578  0.7053
19180SOL     OW58960   4.223   5.691   3.152  0.2951  0.2829 -0.4257
19180SOL    HW158961   4.210   5.686   3.246 -2.3362  2.1639 -0.5783
19180SOL    HW258962   4.299   5.749   3.142 -1.7104  3.3452  0.6420
19181SOL     OW58963   7.345   7.834   1.324  0.0148  0.4380  0.1497
19181SOL    HW158964   7.372   7.880   1.403  1.3206  1.2831 -0.7458
19181SOL    HW258965   7.421   7.780   1.301 -0.3812  0.1380 -0.4720
19182SOL     OW58966   0.190   6.715   0.327 -0.1330  0.6168  0.0071
19182SOL    HW158967   0.211   6.669   0.408 -0.4726 -0.1312 -0.3216
19182SOL    HW258968   0.167   6.804   0.356  1.0932  0.7692  0.5884
19183SOL     OW58969   2.633   7.356   8.144  0.0754  0.2694 -0.4377
19183SOL    HW158970   2.688   7.404   8.081  0.1395  0.1554 -0.4684
19183SOL    HW258971   2.546   7.394   8.134  0.0329  0.0840 -0.7665
19184SOL     OW58972   6.324   3.721   6.691 -0.5576  0.1813  0.1772
19184SOL    HW158973   6.277   3.647   6.654 -0.2862 -0.9229  1.9127
19184SOL    HW258974   6.343   3.695   6.781  0.6263  1.8690  0.4715
19185SOL     OW58975   0.933   7.799   0.399 -0.2096 -0.4045 -0.1014
19185SOL    HW158976   0.899   7.721   0.355 -1.1162  0.0441 -0.2263
19185SOL    HW258977   1.023   7.776   0.423  0.1110 -0.8849 -1.6308
19186SOL     OW58978   0.902   8.155   7.549  0.3874  0.5826 -0.0053
19186SOL    HW158979   0.881   8.100   7.474 -0.3768 -0.2667  0.8119
19186SOL    HW258980   0.841   8.228   7.542 -0.9052 -0.3982  0.7492
19187SOL     OW58981   0.548   8.860   3.656 -0.1069 -0.4537 -0.2550
19187SOL    HW158982   0.527   8.798   3.585  0.5944 -0.7075 -0.2428
19187SOL    HW258983   0.544   8.807   3.735 -0.8374 -0.1800 -0.0939
19188SOL     OW58984   6.410   0.322   3.393 -0.4456 -0.3276 -0.7070
19188SOL    HW158985   6.449   0.355   3.312  1.2097 -0.9198 -0.1916
19188SOL    HW258986   6.430   0.228   3.392  1.5360 -0.0256  1.3523
19189SOL     OW58987   4.564   2.466   2.149  0.2342  0.0381 -0.2224
19189SOL    HW158988   4.476   2.429   2.153 -0.2588  1.2550  1.4116
19189SOL    HW258989   4.597   2.459   2.239  2.0885 -0.9963 -0.9354
19190SOL     OW58990   2.281   3.521   4.698  0.1171 -0.5238  0.6816
19190SOL    HW158991   2.363   3.564   4.722  0.1540 -0.9664  1.3898
19190SOL    HW258992   2.236   3.508   4.782 -1.3937  1.0988  0.1915
19191SOL     OW58993   6.661   3.273   4.282 -0.0187  0.0400 -0.2131
19191SOL    HW158994   6.626   3.224   4.207 -2.5611  0.5581  0.5251
19191SOL    HW258995   6.660   3.209   4.354  0.7534  0.0231 -0.2117
19192SOL     OW58996   0.943   4.228   0.784 -0.0917  0.6006  0.0177
19192SOL    HW158997   0.862   4.223   0.836  0.0755 -0.3766  0.2136
19192SOL    HW258998   0.917   4.273   0.704 -0.5278  1.4643  0.6287
19193SOL     OW58999   4.863   7.667   4.471  0.2240 -0.1100  0.3348
19193SOL    HW159000   4.889   7.576   4.458 -0.4404 -0.5030  1.5916
19193SOL    HW259001   4.775   7.662   4.510 -0.6962  1.1271 -1.4569
19194SOL     OW59002   8.444   1.922   2.817  0.5399  0.2594 -0.1878
19194SOL    HW159003   8.454   1.971   2.735  2.6353  0.1219 -0.0690
19194SOL    HW259004   8.437   1.989   2.885  0.3214  0.3832 -0.3331
19195SOL     OW59005   2.504   7.100   3.978 -0.1957 -0.1334 -0.2470
19195SOL    HW159006   2.413   7.073   3.994 -0.5647  0.9876 -0.4064
19195SOL    HW259007   2.554   7.020   3.990 -1.3830 -1.1943 -1.9145
19196SOL     OW59008   6.983   3.200   4.121  0.0744 -0.2487  0.1982
19196SOL    HW159009   7.011   3.222   4.032 -2.0576  1.2415 -0.1845
19196SOL    HW259010   6.923   3.126   4.109 -0.3050  0.0284  0.3650
19197SOL     OW59011   3.776   6.005   7.776  0.1662  0.1219 -0.2960
19197SOL    HW159012   3.850   6.065   7.771  0.2297  0.2149  1.2200
19197SOL    HW259013   3.734   6.025   7.860 -0.5967 -1.0524 -0.3653
19198SOL     OW59014   6.573   4.724   5.675 -0.0902  0.3579 -0.6347
19198SOL    HW159015   6.610   4.636   5.687 -1.1069 -0.1434 -1.0684
19198SOL    HW259016   6.515   4.716   5.599  0.0418  1.4892 -0.8766
19199SOL     OW59017   5.096   8.237   3.978  0.1712 -0.1791  0.4224
19199SOL    HW159018   5.175   8.260   4.028  0.6045  0.4267 -0.5114
19199SOL    HW259019   5.100   8.141   3.971  2.5883 -0.0205 -2.3109
19200SOL     OW59020   5.480   5.256   8.604 -0.1690 -0.0292  0.6139
19200SOL    HW159021   5.546   5.209   8.654  0.2673  1.2563  1.2644
19200SOL    HW259022   5.509   5.249   8.513  0.7478  0.3349  0.8689
19201SOL     OW59023   7.465   0.307   8.502 -0.3150 -0.0108  0.2958
19201SOL    HW159024   7.493   0.253   8.428  0.0237 -0.4413  0.7420
19201SOL    HW259025   7.479   0.397   8.471  1.4946 -0.2018  0.4723
19202SOL     OW59026   4.348   0.991   5.223  0.8936 -0.0651 -0.1102
19202SOL    HW159027   4.320   0.992   5.314 -0.3512 -0.0531 -0.4756
19202SOL    HW259028   4.435   1.031   5.224  0.7128  0.3207  1.0096
19203SOL     OW59029   0.499   1.883   3.751  0.0620  0.1700 -0.1079
19203SOL    HW159030   0.417   1.925   3.776 -0.7521 -1.5759  0.3609
19203SOL    HW259031   0.538   1.856   3.835 -0.7281 -2.2242 -0.4406
19204SOL     OW59032   9.179   5.590   6.449 -0.2429  0.0922  0.1253
19204SOL    HW159033   9.268   5.575   6.418 -0.2350 -0.5209  0.4309
19204SOL    HW259034   9.150   5.505   6.482 -0.3330  0.6398  1.5572
19205SOL     OW59035   9.165   5.747   0.454 -0.2050  0.5761 -0.7459
19205SOL    HW159036   9.231   5.744   0.523  1.0078 -0.2607 -1.8983
19205SOL    HW259037   9.085   5.713   0.495  0.8616 -1.3376 -0.1336
19206SOL     OW59038   4.925   2.805   9.018  0.4348 -0.1631  0.1909
19206SOL    HW159039   4.990   2.839   9.079  0.3504 -1.1916  0.8773
19206SOL    HW259040   4.956   2.717   8.995  0.9000  0.4925 -1.9060
19207SOL     OW59041   8.998   0.133   6.264 -0.1027 -0.3127  0.1841
19207SOL    HW159042   9.092   0.143   6.280 -0.0572  0.7747 -0.6189
19207SOL    HW259043   8.989   0.142   6.169 -1.1212  0.5806  0.3419
19208SOL     OW59044   3.859   6.875   0.557 -0.4012  0.4987  0.4241
19208SOL    HW159045   3.848   6.819   0.480  0.1900  0.7378  0.1617
19208SOL    HW259046   3.776   6.866   0.604 -0.5382 -0.1309  0.0811
19209SOL     OW59047   2.813   3.812   8.538 -0.1990  0.3588  0.0114
19209SOL    HW159048   2.753   3.759   8.486 -0.2190  0.2604  0.1338
19209SOL    HW259049   2.883   3.752   8.562  0.4958  0.7367 -1.0241
19210SOL     OW59050   8.258   5.303   1.505 -0.7430  0.1479 -0.2225
19210SOL    HW159051   8.303   5.350   1.575  0.6281 -0.1999 -0.8518
19210SOL    HW259052   8.206   5.370   1.461 -3.1650  0.0637  2.2422
19211SOL     OW59053   2.727   1.968   8.079  0.1154 -0.1610  0.0360
19211SOL    HW159054   2.641   2.006   8.098  0.0384  0.1825 -0.9155
19211SOL    HW259055   2.756   1.931   8.162 -0.2310  1.1553  0.7770
19212SOL     OW59056   6.977   4.856   6.922 -0.2980  0.6457 -0.8877
19212SOL    HW159057   6.916   4.854   6.996 -1.1753  2.2710 -1.5133
19212SOL    HW259058   6.921   4.845   6.845  0.4112  0.4906 -1.3906
19213SOL     OW59059   0.365   6.000   6.357  0.2836  0.8332  0.1742
19213SOL    HW159060   0.443   6.008   6.412 -0.4189  1.1522  1.1398
19213SOL    HW259061   0.295   5.975   6.417 -0.0089 -1.3420 -0.9650
19214SOL     OW59062   6.973   1.549   7.252 -0.3944  0.0236 -0.2222
19214SOL    HW159063   6.975   1.593   7.337 -1.4080  0.6527 -0.5147
19214SOL    HW259064   7.053   1.496   7.251 -0.0330  0.5223  0.8438
19215SOL     OW59065   6.255   7.317   7.336  0.1873 -0.6712  0.1194
19215SOL    HW159066   6.178   7.263   7.320 -0.1177  0.3666 -2.3308
19215SOL    HW259067   6.286   7.290   7.423 -2.9528 -1.0553  1.2370
19216SOL     OW59068   8.548   2.285   8.896 -0.0803 -0.1280  0.0421
19216SOL    HW159069   8.625   2.234   8.921 -0.3196 -2.4496 -3.2670
19216SOL    HW259070   8.477   2.250   8.951  0.2846 -1.6433 -0.4042
19217SOL     OW59071   1.318   9.204   5.051  0.6573 -0.8378  0.7759
19217SOL    HW159072   1.272   9.212   5.134  2.2571 -0.2283  1.6289
19217SOL    HW259073   1.395   9.260   5.060 -0.1839  0.9434 -1.8797
19218SOL     OW59074   1.824   8.673   5.776  0.1296 -0.0866  0.0394
19218SOL    HW159075   1.885   8.661   5.703  0.4651 -0.5925  0.3994
19218SOL    HW259076   1.829   8.592   5.826 -2.1434 -0.8850 -0.8772
19219SOL     OW59077   8.198   5.438   4.591  0.1577  0.3780  0.0895
19219SOL    HW159078   8.228   5.494   4.519 -0.7577  0.3364 -0.3357
19219SOL    HW259079   8.155   5.365   4.548  0.7846 -0.3368  0.6638
19220SOL     OW59080   1.247   3.248   1.729  0.1591  0.4407  0.1324
19220SOL    HW159081   1.279   3.336   1.748  1.9201  0.0513 -0.7798
19220SOL    HW259082   1.296   3.192   1.790  1.1561 -0.1490 -1.1577
19221SOL     OW59083   0.559   5.307   4.937  0.3127  0.0541 -0.2068
19221SOL    HW159084   0.534   5.249   4.865 -0.0954 -0.0739  0.0338
19221SOL    HW259085   0.513   5.389   4.918 -1.4146 -0.6003  0.9417
19222SOL     OW59086   4.475   8.802   1.473 -0.1228 -0.3503 -0.0542
19222SOL    HW159087   4.544   8.790   1.538 -1.9063  1.2240  2.3389
19222SOL    HW259088   4.518   8.789   1.389  3.4251  1.9519  1.1815
19223SOL     OW59089   3.568   6.462   3.751 -0.4705 -0.5445 -0.1286
19223SOL    HW159090   3.629   6.441   3.822  0.5710 -0.9429 -1.1085
19223SOL    HW259091   3.540   6.552   3.769  1.1165 -0.0258 -0.1326
19224SOL     OW59092   8.727   8.789   0.580  0.3341  0.2958  0.1327
19224SOL    HW159093   8.688   8.703   0.571 -1.8620  1.2060  0.3610
19224SOL    HW259094   8.800   8.789   0.518 -1.1735 -0.8766 -1.7511
19225SOL     OW59095   6.860   0.097   7.345 -0.3106  0.3821  0.1403
19225SOL    HW159096   6.940   0.139   7.376  1.4197 -0.9164 -2.2235
19225SOL    HW259097   6.790   0.159   7.369  1.5391  2.2681  1.0091
19226SOL     OW59098   1.671   1.956   8.916  0.0382  0.0639 -0.0720
19226SOL    HW159099   1.752   1.934   8.963  1.0993  1.1580 -1.3187
19226SOL    HW259100   1.645   1.874   8.874  0.3968 -0.3383  0.4666
19227SOL     OW59101   3.404   1.926   8.602  0.1928  0.3511 -0.6052
19227SOL    HW159102   3.401   1.959   8.692  3.4224  1.7162 -0.8503
19227SOL    HW259103   3.413   1.831   8.611  0.9117  0.5116  0.5577
19228SOL     OW59104   5.744   9.128   9.169 -0.3398 -0.3238 -0.6361
19228SOL    HW159105   5.796   9.125   9.088  0.4336  0.5711 -0.1963
19228SOL    HW259106   5.669   9.183   9.147 -1.2149 -1.7222 -1.3139
19229SOL     OW59107   1.861   7.119   4.131  0.8873  0.7062  0.4187
19229SOL    HW159108   1.890   7.093   4.044 -1.3553  1.1402 -0.5293
19229SOL    HW259109   1.939   7.113   4.186  1.5234 -3.5982 -0.6568
19230SOL     OW59110   4.289   8.605   2.720  0.3118 -0.0231 -0.1170
19230SOL    HW159111   4.349   8.672   2.688  1.0649 -0.0234  1.2237
19230SOL    HW259112   4.206   8.652   2.734  0.1009  0.0738 -1.5125
19231SOL     OW59113   6.011   2.510   5.948 -0.3567  0.3128 -0.2742
19231SOL    HW159114   6.034   2.426   5.908  0.3508  1.8204 -3.3956
19231SOL    HW259115   6.088   2.565   5.934 -0.4302  1.2831  2.5594
19232SOL     OW59116   4.965   1.639   1.776 -0.5560 -0.0564  0.7899
19232SOL    HW159117   5.036   1.577   1.792 -1.6283 -0.7845  3.2563
19232SOL    HW259118   5.009   1.720   1.753  1.0615 -0.6629  1.5587
19233SOL     OW59119   3.864   1.579   8.239 -0.1512  0.0574  0.0525
19233SOL    HW159120   3.775   1.603   8.265 -0.3047  1.1303 -1.3357
19233SOL    HW259121   3.876   1.620   8.153  0.8606 -2.0149 -0.8643
19234SOL     OW59122   3.581   7.807   8.810 -0.3915 -0.4024  0.0752
19234SOL    HW159123   3.594   7.743   8.881 -0.3519 -2.3730 -1.6097
19234SOL    HW259124   3.491   7.836   8.820 -0.9428 -1.9542 -0.0206
19235SOL     OW59125   1.970   5.258   2.572  0.7968 -0.2336 -0.0876
19235SOL    HW159126   2.002   5.306   2.649  1.5141 -1.1766  0.2359
19235SOL    HW259127   1.976   5.320   2.500 -1.0015  1.0564  0.8013
19236SOL     OW59128   2.408   3.164   6.558  0.1291  0.4247  0.3082
19236SOL    HW159129   2.403   3.071   6.577  0.6279  0.3868  0.2795
19236SOL    HW259130   2.397   3.207   6.643 -0.9348  0.3687  0.2001
19237SOL     OW59131   1.201   3.017   8.214  0.2254 -0.0813 -0.1515
19237SOL    HW159132   1.243   3.077   8.151  0.5612  0.4342  0.5534
19237SOL    HW259133   1.110   3.048   8.217 -0.1341 -0.9278 -1.3507
19238SOL     OW59134   6.485   8.871   6.217  0.7370  0.3129  0.3754
19238SOL    HW159135   6.526   8.788   6.242  0.8037 -0.3769 -1.7823
19238SOL    HW259136   6.559   8.931   6.206  1.1405 -0.4434 -1.7431
19239SOL     OW59137   4.033   1.447   8.709  0.6611 -0.2205 -0.1838
19239SOL    HW159138   3.955   1.496   8.737  1.0675  0.7276 -0.6899
19239SOL    HW259139   4.032   1.452   8.614  0.8069 -1.0630 -0.2376
19240SOL     OW59140   7.782   6.268   3.372  0.0095 -0.6082 -0.3834
19240SOL    HW159141   7.829   6.300   3.449 -2.3442  1.7390  0.2320
19240SOL    HW259142   7.712   6.214   3.407 -1.1133  0.5186 -0.7950
19241SOL     OW59143   4.773   0.135   0.917  0.0659  0.4322 -0.0024
19241SOL    HW159144   4.700   0.079   0.891 -0.9475  1.0160  1.4609
19241SOL    HW259145   4.833   0.076   0.963 -0.6038  0.3682  0.8124
19242SOL     OW59146   0.499   7.035   8.362 -0.1149 -0.9035 -0.1914
19242SOL    HW159147   0.423   6.978   8.368  0.3997 -1.8943 -2.4700
19242SOL    HW259148   0.572   6.982   8.393 -0.0357 -0.5473  0.2577
19243SOL     OW59149   1.004   6.977   5.174 -0.1331 -0.2721  0.0961
19243SOL    HW159150   1.091   6.986   5.212  0.2613 -1.3768 -0.5059
19243SOL    HW259151   0.987   7.062   5.133  1.9531 -0.9471 -2.4052
19244SOL     OW59152   9.192   4.100   2.326  0.4326 -0.2367 -0.1554
19244SOL    HW159153   9.273   4.146   2.346  0.3781  0.3827 -1.2813
19244SOL    HW259154   9.162   4.138   2.243 -1.3397 -0.0030  0.5418
19245SOL     OW59155   7.752   8.199   5.369  0.3602 -0.3647  0.6974
19245SOL    HW159156   7.737   8.184   5.462  1.8758  1.0119  1.2335
19245SOL    HW259157   7.669   8.177   5.327 -0.5525 -0.4536  2.4360
19246SOL     OW59158   3.057   2.106   2.130 -0.5512  0.0518 -0.1279
19246SOL    HW159159   3.145   2.107   2.168  0.5195  0.5217 -2.4806
19246SOL    HW259160   3.005   2.160   2.190  0.7396 -0.1713  1.2696
19247SOL     OW59161   6.448   0.168   0.176  0.5197  0.1226  0.4036
19247SOL    HW159162   6.497   0.111   0.117 -1.0285  0.7359 -1.5742
19247SOL    HW259163   6.374   0.116   0.205  1.0923 -0.0626  1.5723
19248SOL     OW59164   5.948   7.718   6.895  0.0544 -0.6548 -0.1399
19248SOL    HW159165   6.031   7.699   6.850 -0.5588 -0.1264 -1.5598
19248SOL    HW259166   5.904   7.781   6.837 -0.3902  0.7780  1.6524
19249SOL     OW59167   0.355   0.227   1.904  0.3323 -0.2395 -0.1306
19249SOL    HW159168   0.440   0.214   1.862  0.4399 -1.1612  0.3488
19249SOL    HW259169   0.292   0.184   1.846  0.6562 -2.9135  1.3178
19250SOL     OW59170   1.479   6.402   2.528  0.1749 -0.3539 -0.1659
19250SOL    HW159171   1.451   6.350   2.603 -0.5815 -0.5952 -0.6068
19250SOL    HW259172   1.397   6.425   2.484  0.5168  0.9078 -0.1773
19251SOL     OW59173   1.944   0.161   1.082  0.3067 -0.2900  0.0140
19251SOL    HW159174   1.913   0.084   1.130  0.7658 -0.9719 -0.7663
19251SOL    HW259175   1.866   0.196   1.039 -0.0801  0.2373  1.1126
19252SOL     OW59176   7.356   3.589   6.804 -0.7484 -0.0192 -0.6942
19252SOL    HW159177   7.302   3.547   6.871  1.5592  3.1093  3.6289
19252SOL    HW259178   7.317   3.675   6.792  1.8292  1.5238  0.9880
19253SOL     OW59179   2.521   3.200   3.987 -0.2340  0.1602 -0.6234
19253SOL    HW159180   2.560   3.125   4.033  0.5845  0.1579 -1.2978
19253SOL    HW259181   2.459   3.162   3.926 -0.4933  0.0903 -0.3163
19254SOL     OW59182   5.170   6.925   2.490  0.0085  0.3679  0.2497
19254SOL    HW159183   5.202   6.840   2.523  0.6720  0.7375  0.5860
19254SOL    HW259184   5.115   6.959   2.560  0.7943  0.7982  0.6790
19255SOL     OW59185   0.435   4.726   9.157  0.2298 -0.1920 -0.4910
19255SOL    HW159186   0.412   4.770   9.075 -1.3997 -0.6512 -0.3168
19255SOL    HW259187   0.488   4.790   9.205 -0.7979  0.9918 -0.8917
19256SOL     OW59188   7.232   6.138   7.315  0.5603  0.0351 -0.0280
19256SOL    HW159189   7.194   6.194   7.383  1.1832  0.3347  0.0816
19256SOL    HW259190   7.300   6.192   7.274 -0.0614 -0.0069 -1.1523
19257SOL     OW59191   4.233   3.053   0.603  0.3333  0.6405  0.1279
19257SOL    HW159192   4.227   2.968   0.647 -0.2446 -0.8290 -2.5254
19257SOL    HW259193   4.149   3.063   0.560  1.0817  1.6244 -1.1738
19258SOL     OW59194   3.189   2.002   8.464  0.0028  0.4478 -0.1234
19258SOL    HW159195   3.186   1.921   8.412  0.5776  0.0748  0.4150
19258SOL    HW259196   3.274   2.000   8.507 -0.9181  0.1168  1.8139
19259SOL     OW59197   7.029   3.334   4.826  0.1060  0.6221 -0.0196
19259SOL    HW159198   6.983   3.412   4.860  1.0234  1.0696  0.2156
19259SOL    HW259199   7.026   3.345   4.731 -1.5742 -0.1176 -0.0889
19260SOL     OW59200   5.459   6.029   8.685 -0.1718  0.4808 -0.1521
19260SOL    HW159201   5.454   6.025   8.780  0.1487  0.5259 -0.1323
19260SOL    HW259202   5.468   5.938   8.657  1.7937  0.5969 -0.0157
19261SOL     OW59203   2.105   4.034   1.352 -0.1979 -0.5834 -0.0393
19261SOL    HW159204   2.097   4.106   1.415 -1.4528 -0.7393  0.0084
19261SOL    HW259205   2.081   4.073   1.268 -0.5393 -0.8641 -0.0714
19262SOL     OW59206   7.123   1.671   8.431  0.4204 -0.0448  0.0164
19262SOL    HW159207   7.076   1.745   8.469 -0.9867 -0.0720 -1.5227
19262SOL    HW259208   7.054   1.606   8.413  1.2745 -0.7512 -0.8091
19263SOL     OW59209   0.452   1.046   4.644 -0.0304  0.0648 -0.2303
19263SOL    HW159210   0.521   1.111   4.660 -0.5151  0.9238 -1.4541
19263SOL    HW259211   0.483   0.997   4.568 -0.2755 -0.2833 -0.1098
19264SOL     OW59212   5.050   1.609   0.318  0.1087 -0.2288  0.6752
19264SOL    HW159213   5.132   1.649   0.289 -0.1051  0.4874  1.0584
19264SOL    HW259214   5.025   1.658   0.395  0.0288 -1.3419  1.3869
19265SOL     OW59215   3.943   4.377   4.453  0.0034 -0.3724 -0.1559
19265SOL    HW159216   3.876   4.421   4.505 -0.0138 -0.9361  0.3134
19265SOL    HW259217   3.953   4.291   4.494  0.2022 -0.7215 -0.9075
19266SOL     OW59218   1.186   1.086   8.294 -0.2984 -0.0529 -0.0623
19266SOL    HW159219   1.227   1.152   8.351 -0.8083  0.8430 -0.7152
19266SOL    HW259220   1.252   1.067   8.228  0.3340 -1.1690  0.8448
19267SOL     OW59221   2.954   1.940   5.419  0.8631  0.2154 -0.2664
19267SOL    HW159222   2.863   1.958   5.395  0.1108 -2.3109  0.2933
19267SOL    HW259223   2.947   1.890   5.501  2.8728  1.2826  0.6344
19268SOL     OW59224   3.061   5.533   4.384  0.2107 -0.2110 -0.4064
19268SOL    HW159225   3.021   5.482   4.314  0.1156  0.1327 -0.6069
19268SOL    HW259226   3.088   5.615   4.341  0.9471 -0.3556 -0.2303
19269SOL     OW59227   0.939   1.131   3.640 -0.4617 -0.3859 -0.7367
19269SOL    HW159228   0.935   1.209   3.696  1.5464  0.3070 -1.4641
19269SOL    HW259229   0.978   1.064   3.696  1.1082  0.1748 -1.1029
19270SOL     OW59230   4.227   7.254   2.896 -0.0082  0.3388 -0.4273
19270SOL    HW159231   4.206   7.222   2.808 -0.3487 -1.1208  0.1444
19270SOL    HW259232   4.171   7.331   2.908  1.3954  1.7138 -2.1490
19271SOL     OW59233   5.053   5.057   5.374 -0.2540 -0.5500 -0.2870
19271SOL    HW159234   5.148   5.051   5.380 -0.0844  0.7649 -1.2765
19271SOL    HW259235   5.025   5.088   5.460  0.4218  0.9454 -0.5710
19272SOL     OW59236   0.451   7.072   1.618 -0.1807  0.5185  0.2254
19272SOL    HW159237   0.428   6.979   1.616 -0.3184  0.5485 -1.6130
19272SOL    HW259238   0.522   7.078   1.681  0.6132 -1.0512 -0.4547
19273SOL     OW59239   3.451   3.989   3.476 -0.0770 -0.2947 -0.2352
19273SOL    HW159240   3.493   4.075   3.484  1.2782 -0.8945 -0.5060
19273SOL    HW259241   3.523   3.930   3.455 -0.5149 -1.9330  2.3843
19274SOL     OW59242   4.691   6.421   1.265  0.1250 -0.0425 -0.4477
19274SOL    HW159243   4.737   6.370   1.199  2.3460  2.5768 -1.0833
19274SOL    HW259244   4.633   6.478   1.215 -1.2331 -0.8311  0.1663
19275SOL     OW59245   2.103   5.427   2.752  0.0755  0.1606 -0.3034
19275SOL    HW159246   2.193   5.453   2.730  0.1857 -0.5524 -0.7164
19275SOL    HW259247   2.062   5.508   2.784  0.7100  0.6068 -0.5923
19276SOL     OW59248   6.895   2.480   4.387  0.0951  0.2258 -0.3115
19276SOL    HW159249   6.801   2.467   4.371  0.2965 -0.8823 -0.6486
19276SOL    HW259250   6.898   2.531   4.468 -0.7941  0.4730 -0.4127
19277SOL     OW59251   3.859   2.532   7.891  0.2164 -0.1633  0.1671
19277SOL    HW159252   3.933   2.557   7.947  0.2522 -1.5214  0.7596
19277SOL    HW259253   3.795   2.494   7.951  0.2884 -1.7215 -0.6977
19278SOL     OW59254   2.862   6.373   5.888  0.1557 -0.4144  0.2139
19278SOL    HW159255   2.950   6.408   5.903  0.1808  0.5262 -1.7439
19278SOL    HW259256   2.815   6.444   5.845 -1.7915 -0.6937  1.7486
19279SOL     OW59257   4.152   3.773   1.721  0.6865 -0.2502  0.5808
19279SOL    HW159258   4.112   3.688   1.701  1.1387 -0.1479 -0.9184
19279SOL    HW259259   4.224   3.752   1.781  1.4384 -1.0975 -0.5593
19280SOL     OW59260   5.252   0.216   2.269  0.3482  0.4736  0.0249
19280SOL    HW159261   5.207   0.195   2.351 -1.7299 -0.4177 -1.2798
19280SOL    HW259262   5.254   0.134   2.220  2.0449  0.8589 -0.6386
19281SOL     OW59263   7.781   7.622   1.975  0.1058  0.4966  1.1079
19281SOL    HW159264   7.812   7.705   1.938  0.0466  0.2559  0.5034
19281SOL    HW259265   7.687   7.623   1.959 -0.0295  0.6950  1.8787
19282SOL     OW59266   1.242   5.130   0.911 -0.3634 -0.1611 -0.0505
19282SOL    HW159267   1.148   5.141   0.924 -0.3850 -0.2044 -0.1647
19282SOL    HW259268   1.251   5.040   0.880 -0.3585  0.0777 -0.7533
19283SOL     OW59269   3.913   5.959   6.258 -0.2284  0.1726  0.1863
19283SOL    HW159270   3.857   5.979   6.182 -1.1924  0.1641  0.8732
19283SOL    HW259271   3.909   5.863   6.265  2.3399 -0.1804 -1.5656
19284SOL     OW59272   0.303   2.183   6.850 -0.1206  0.8799 -0.3735
19284SOL    HW159273   0.357   2.104   6.859  0.8609  1.6864  1.4002
19284SOL    HW259274   0.214   2.152   6.863 -0.0432 -0.3139 -2.3152
19285SOL     OW59275   7.247   5.876   6.948 -0.0009  0.3146 -0.0515
19285SOL    HW159276   7.328   5.854   6.994 -0.9214  0.0615  1.5436
19285SOL    HW259277   7.178   5.841   7.005 -1.2440  1.1307 -1.0230
19286SOL     OW59278   8.653   1.138   5.196  0.0410  0.0760 -0.5005
19286SOL    HW159279   8.589   1.106   5.259 -0.5750  0.4824 -0.9018
19286SOL    HW259280   8.702   1.061   5.169  1.7167  0.1488  1.9720
19287SOL     OW59281   4.487   4.913   1.435 -0.0140 -0.2438 -0.1015
19287SOL    HW159282   4.412   4.957   1.477 -0.0279  0.3461 -0.7243
19287SOL    HW259283   4.505   4.838   1.492 -1.5828 -0.8728 -0.3588
19288SOL     OW59284   5.130   6.762   6.778  0.3285 -0.0904 -0.5211
19288SOL    HW159285   5.111   6.675   6.741  3.0481 -0.6728 -0.7499
19288SOL    HW259286   5.202   6.747   6.839 -0.5785  1.7182  1.0991
19289SOL     OW59287   1.962   0.093   0.460  0.0144  0.2842  0.8266
19289SOL    HW159288   1.966   0.114   0.553 -0.5827  0.3412  0.8445
19289SOL    HW259289   1.886   0.141   0.427 -0.0045 -0.0306  0.3899
19290SOL     OW59290   3.369   4.042   7.721  0.2831  0.1437 -0.4427
19290SOL    HW159291   3.365   4.011   7.631 -1.4115  2.4916 -1.3015
19290SOL    HW259292   3.461   4.063   7.736  0.4000  1.1476 -2.2328
19291SOL     OW59293   0.775   8.408   7.492  0.1258 -0.0931 -0.2977
19291SOL    HW159294   0.776   8.492   7.537  0.8270 -0.1689 -0.1491
19291SOL    HW259295   0.842   8.416   7.424  0.8447 -0.8196  0.2932
19292SOL     OW59296   8.098   3.225   7.447  0.5274  0.1042  0.2916
19292SOL    HW159297   8.091   3.165   7.373  1.6342 -0.0503  0.2981
19292SOL    HW259298   8.017   3.212   7.496  0.5014 -0.9701 -0.0148
19293SOL     OW59299   1.011   3.586   4.136 -0.0856  0.3852  0.2254
19293SOL    HW159300   1.088   3.532   4.118 -0.1969 -0.0074  0.8858
19293SOL    HW259301   0.964   3.539   4.205  0.4996  1.9685  1.7831
19294SOL     OW59302   6.147   6.463   8.669  0.8501  0.0921 -0.3392
19294SOL    HW159303   6.100   6.544   8.650  0.3898 -0.3524 -1.1632
19294SOL    HW259304   6.093   6.394   8.632  1.4673 -0.5594 -0.0690
19295SOL     OW59305   8.619   0.655   8.468  0.3467  0.1075 -0.1205
19295SOL    HW159306   8.618   0.588   8.400 -1.4412  1.1944 -1.2553
19295SOL    HW259307   8.562   0.620   8.536 -0.7591  0.5054 -0.8041
19296SOL     OW59308   5.438   2.343   1.701  0.1650 -0.5516 -0.7308
19296SOL    HW159309   5.350   2.321   1.671 -1.0502  0.4334  1.8380
19296SOL    HW259310   5.432   2.339   1.797  2.3827  1.4954 -0.4298
19297SOL     OW59311   8.859   1.486   5.833  0.2163 -0.9095 -0.4726
19297SOL    HW159312   8.896   1.497   5.746 -0.2731 -0.3441 -0.6106
19297SOL    HW259313   8.792   1.418   5.822 -2.5171  1.7083 -1.3933
19298SOL     OW59314   2.551   7.849   8.601 -0.1776  0.0237  0.4182
19298SOL    HW159315   2.545   7.855   8.696 -0.1556  0.9803  0.3732
19298SOL    HW259316   2.475   7.899   8.569  0.0507  0.0720 -0.0645
19299SOL     OW59317   7.858   1.150   7.265 -0.5988  0.0612  0.9861
19299SOL    HW159318   7.812   1.090   7.324 -0.9140  0.4435  1.1380
19299SOL    HW259319   7.911   1.094   7.209 -0.6683 -0.3384  1.3185
19300SOL     OW59320   7.612   2.183   6.532  0.1546  0.0880  0.1606
19300SOL    HW159321   7.655   2.182   6.617 -0.8630  2.8222  0.8182
19300SOL    HW259322   7.551   2.109   6.534 -0.9854  0.9876  2.4897
19301SOL     OW59323   4.370   4.412   4.811 -0.0554  0.2209 -0.5209
19301SOL    HW159324   4.369   4.497   4.856 -0.1639  0.6553 -1.3102
19301SOL    HW259325   4.441   4.421   4.747  0.6836 -0.7052  0.1480
19302SOL     OW59326   4.977   7.318   3.204  0.0941  0.1506  0.6196
19302SOL    HW159327   5.068   7.321   3.234 -0.3309  0.1858  1.9599
19302SOL    HW259328   4.965   7.399   3.155 -0.3349  2.2066  3.8848
19303SOL     OW59329   5.776   7.934   3.755  0.6545  0.1473 -0.0801
19303SOL    HW159330   5.740   7.845   3.748 -0.1313  0.5268 -1.1336
19303SOL    HW259331   5.764   7.958   3.847  0.7274 -0.7796  0.1781
19304SOL     OW59332   8.001   6.872   0.816 -0.3509 -0.4567  0.2122
19304SOL    HW159333   8.066   6.825   0.868 -0.3488 -1.1002 -0.3648
19304SOL    HW259334   7.969   6.808   0.754  0.1407  0.4831 -1.0507
19305SOL     OW59335   6.457   4.880   3.640  0.4114 -0.3363 -0.5529
19305SOL    HW159336   6.517   4.869   3.714 -0.1599 -0.2030 -0.0649
19305SOL    HW259337   6.451   4.794   3.600 -0.5999 -0.8252  0.5870
19306SOL     OW59338   8.018   2.805   4.292  0.0876 -0.0137  0.0051
19306SOL    HW159339   7.998   2.874   4.228 -0.3820 -0.5267 -0.4194
19306SOL    HW259340   7.936   2.794   4.340 -0.0662 -0.7500 -0.4017
19307SOL     OW59341   5.986   5.406   6.623 -0.0696  0.4727 -0.1770
19307SOL    HW159342   5.936   5.447   6.693 -1.3489 -0.8515 -0.2867
19307SOL    HW259343   5.984   5.313   6.643  1.5721  0.2883 -0.7135
19308SOL     OW59344   7.848   9.273   2.710  0.1670 -0.2671  0.1662
19308SOL    HW159345   7.893   9.316   2.783  1.2745 -0.0454 -0.6097
19308SOL    HW259346   7.911   9.209   2.678  0.0700  0.2894 -1.1787
19309SOL     OW59347   7.401   6.342   1.402 -0.4935  0.2844  0.1109
19309SOL    HW159348   7.329   6.335   1.339 -1.0989 -0.3270  0.8599
19309SOL    HW259349   7.449   6.421   1.375 -1.4076  0.6665 -0.4230
19310SOL     OW59350   8.784   5.605   2.416  0.5112  0.2450  0.5671
19310SOL    HW159351   8.693   5.590   2.390  0.3194  1.3453  0.5331
19310SOL    HW259352   8.824   5.518   2.417 -0.1557 -0.0988 -0.8676
19311SOL     OW59353   8.293   6.042   8.277  0.1846 -0.0281 -0.2688
19311SOL    HW159354   8.216   6.095   8.260  0.4785  0.5510  0.1832
19311SOL    HW259355   8.269   5.954   8.247 -0.4613  0.2570 -0.5983
19312SOL     OW59356   4.715   2.813   1.095 -0.1478 -0.3293  0.0781
19312SOL    HW159357   4.745   2.837   1.182  1.8212  1.2353 -0.9385
19312SOL    HW259358   4.619   2.813   1.101 -0.0553 -1.1204  2.4027
19313SOL     OW59359   1.764   3.096   3.200 -0.3787 -0.1591  0.2114
19313SOL    HW159360   1.782   3.164   3.134  0.2460 -0.0724  0.4685
19313SOL    HW259361   1.783   3.014   3.155 -2.0622 -0.2458 -0.4153
19314SOL     OW59362   8.488   7.395   3.480  0.4477 -0.2503 -0.1711
19314SOL    HW159363   8.567   7.428   3.522  0.0440  1.6706 -0.8386
19314SOL    HW259364   8.461   7.464   3.420 -2.6356 -0.1023  1.1683
19315SOL     OW59365   3.472   3.631   0.407 -0.2881  0.0326  0.2350
19315SOL    HW159366   3.407   3.587   0.461 -0.8374  0.6380  0.0772
19315SOL    HW259367   3.488   3.570   0.334 -1.2651  0.2080 -0.1461
19316SOL     OW59368   8.529   6.606   1.777 -0.4266 -0.1154 -0.4241
19316SOL    HW159369   8.463   6.652   1.725  1.1616  1.2908 -1.3113
19316SOL    HW259370   8.606   6.663   1.774  1.3424 -2.3543 -0.7146
19317SOL     OW59371   9.141   4.271   7.181 -0.2001 -0.5134  0.1458
19317SOL    HW159372   9.164   4.363   7.195  0.9582 -0.4560 -1.7222
19317SOL    HW259373   9.182   4.225   7.255  1.2501  0.2341 -0.1485
19318SOL     OW59374   6.731   7.952   3.643  0.0197 -0.0016 -0.0095
19318SOL    HW159375   6.671   7.961   3.718  0.5548  0.9067  0.3347
19318SOL    HW259376   6.759   7.860   3.646  0.3861  0.1215  1.2047
19319SOL     OW59377   3.649   6.870   9.124 -0.3880  0.3463  0.5288
19319SOL    HW159378   3.621   6.856   9.215  0.1845  0.9687  0.8060
19319SOL    HW259379   3.670   6.782   9.093  1.1221  0.3003  1.5742
19320SOL     OW59380   7.700   5.272   7.275 -0.2867  0.0650 -0.5392
19320SOL    HW159381   7.756   5.315   7.341 -0.3224  0.8811 -1.0393
19320SOL    HW259382   7.711   5.178   7.294  0.9246  0.2217 -0.3542
19321SOL     OW59383   3.520   3.131   2.748  0.0527 -0.1838 -0.0657
19321SOL    HW159384   3.453   3.114   2.814  0.2523  0.1214  0.2242
19321SOL    HW259385   3.538   3.046   2.709 -2.2145  0.0621 -1.8353
19322SOL     OW59386   1.310   1.300   5.305  0.0154  0.0616 -0.3803
19322SOL    HW159387   1.221   1.333   5.290  0.6560  1.0411 -2.3945
19322SOL    HW259388   1.308   1.210   5.274 -0.4392 -0.1626  0.2712
19323SOL     OW59389   9.133   1.130   2.383 -0.6927 -0.4911 -0.0008
19323SOL    HW159390   9.193   1.202   2.401 -0.8222  0.4063 -2.6542
19323SOL    HW259391   9.186   1.051   2.393  0.5493  0.2040 -0.7788
19324SOL     OW59392   1.647   4.332   7.377  0.1128  0.1040  0.5443
19324SOL    HW159393   1.598   4.414   7.371 -1.7763 -1.0754 -1.5396
19324SOL    HW259394   1.581   4.264   7.385  1.3761 -1.4881 -1.4644
19325SOL     OW59395   3.304   4.487   1.787 -0.3413 -0.4384 -0.1608
19325SOL    HW159396   3.364   4.422   1.751  0.1947 -1.3504  2.1796
19325SOL    HW259397   3.268   4.532   1.710  1.2249 -1.7358 -1.7417
19326SOL     OW59398   6.130   2.001   2.721 -0.2314  0.5808 -0.3482
19326SOL    HW159399   6.167   2.068   2.662 -2.1551  0.2801 -2.0094
19326SOL    HW259400   6.149   1.918   2.677 -0.3749  0.2411  0.2285
19327SOL     OW59401   6.004   4.776   1.543 -0.4103 -0.5129 -0.4952
19327SOL    HW159402   6.071   4.799   1.608 -0.7827 -0.4927 -0.1131
19327SOL    HW259403   5.990   4.682   1.555  1.7149 -1.2168 -2.6219
19328SOL     OW59404   3.201   7.662   0.013  0.6713 -0.0885  0.2479
19328SOL    HW159405   3.208   7.754   0.036 -0.6796 -0.4755  2.4947
19328SOL    HW259406   3.203   7.661  -0.083  1.0500  2.2176  0.1775
19329SOL     OW59407   4.196   4.500   1.349  0.0426 -0.0528  0.3059
19329SOL    HW159408   4.223   4.417   1.390  1.5606  0.2891  0.0869
19329SOL    HW259409   4.271   4.525   1.295 -1.1948  0.4466 -1.2552
19330SOL     OW59410   4.597   6.977   0.232  0.4492 -0.2916  0.1667
19330SOL    HW159411   4.601   6.991   0.327 -0.1813 -0.1637  0.1782
19330SOL    HW259412   4.504   6.974   0.212  0.5304 -2.4318 -0.1463
19331SOL     OW59413   6.368   7.384   1.486 -0.0926 -0.1571  0.6357
19331SOL    HW159414   6.305   7.333   1.436 -0.3549  2.1747 -1.6347
19331SOL    HW259415   6.453   7.364   1.446  0.2695 -1.1272  1.8184
19332SOL     OW59416   0.816   8.261   3.622 -0.1177  0.3987 -0.0981
19332SOL    HW159417   0.791   8.173   3.595  2.0256 -0.7245  1.3154
19332SOL    HW259418   0.911   8.262   3.615 -0.1329  3.2378 -1.7620
19333SOL     OW59419   9.116   6.826   2.350  0.3183 -0.7080 -0.0153
19333SOL    HW159420   9.147   6.816   2.439  0.8452 -0.1494 -0.1287
19333SOL    HW259421   9.020   6.826   2.357  0.3314  1.3153  0.8085
19334SOL     OW59422   1.875   2.238   8.425 -0.0499  0.5245 -0.4297
19334SOL    HW159423   1.938   2.254   8.354  0.4981 -1.0270 -0.3183
19334SOL    HW259424   1.929   2.221   8.502 -0.6430  1.5893  0.2638
19335SOL     OW59425   7.371   2.886   1.734 -0.4225  0.1523 -0.3847
19335SOL    HW159426   7.315   2.818   1.698 -1.4935 -0.4996  2.2591
19335SOL    HW259427   7.460   2.857   1.716 -0.7986 -2.7151  1.7621
19336SOL     OW59428   0.808   0.550   0.485  0.1176 -0.1036 -0.1159
19336SOL    HW159429   0.793   0.468   0.532 -2.3431  0.2648 -0.1012
19336SOL    HW259430   0.865   0.601   0.542 -0.4547 -0.8085  1.1331
19337SOL     OW59431   7.021   2.196   0.674  0.8059  0.0304  0.3390
19337SOL    HW159432   7.038   2.111   0.634 -2.3488 -1.0426  1.0162
19337SOL    HW259433   7.025   2.179   0.768 -0.4097  0.4618  0.4859
19338SOL     OW59434   2.449   1.925   0.980  0.0712  0.3283 -0.1999
19338SOL    HW159435   2.466   2.015   0.953 -1.1921  0.6956  0.1824
19338SOL    HW259436   2.449   1.928   1.076  0.4924 -0.1789 -0.1756
19339SOL     OW59437   1.139   1.691   3.130  0.0070  0.3738  0.7540
19339SOL    HW159438   1.137   1.697   3.226 -0.0021 -0.4580  0.8126
19339SOL    HW259439   1.216   1.637   3.112 -0.6840 -0.4860  0.3482
19340SOL     OW59440   3.421   5.768   7.938 -0.0701 -0.1316 -0.0599
19340SOL    HW159441   3.378   5.683   7.932  1.4588 -1.0212  1.0115
19340SOL    HW259442   3.461   5.769   8.025  2.3366  0.4761 -1.0990
19341SOL     OW59443   1.268   2.905   5.688 -0.2885 -0.1725 -0.0792
19341SOL    HW159444   1.177   2.896   5.658 -0.4017 -1.8979  0.6413
19341SOL    HW259445   1.283   3.000   5.692 -2.0351  0.1467 -0.2835
19342SOL     OW59446   9.161   5.195   3.104 -0.6030 -0.0385  0.4638
19342SOL    HW159447   9.098   5.250   3.058 -2.3813 -1.4657  1.0720
19342SOL    HW259448   9.115   5.167   3.183  1.4922  0.3540  1.8963
19343SOL     OW59449   5.829   6.954   8.623 -0.1864  0.1255 -0.3322
19343SOL    HW159450   5.791   6.870   8.650 -0.4777  0.1768 -0.5692
19343SOL    HW259451   5.757   7.016   8.628 -0.6768 -0.1466 -2.6102
19344SOL     OW59452   5.783   7.801   1.977  0.1910  0.1916  0.2548
19344SOL    HW159453   5.768   7.872   1.914  1.4183  0.4398  0.2280
19344SOL    HW259454   5.705   7.745   1.968  1.5925 -1.4909 -3.7180
19345SOL     OW59455   3.025   7.147   7.784 -0.1293 -0.3902  0.0892
19345SOL    HW159456   2.932   7.130   7.802  0.0975 -0.9711  0.7593
19345SOL    HW259457   3.025   7.228   7.733 -1.0874 -0.9858 -0.9318
19346SOL     OW59458   6.890   3.779   4.001 -0.1614 -0.0666 -0.0027
19346SOL    HW159459   6.810   3.831   4.009  0.8291  1.2136  3.4967
19346SOL    HW259460   6.952   3.837   3.957 -1.0553 -1.1288 -2.8990
19347SOL     OW59461   7.620   6.551   0.377  0.0455 -0.2910  0.1992
19347SOL    HW159462   7.563   6.511   0.312 -0.9481 -1.5660  1.7862
19347SOL    HW259463   7.697   6.493   0.381  1.2428  1.0901 -1.4948
19348SOL     OW59464   4.454   7.129   8.194 -0.2527  0.7038  0.5976
19348SOL    HW159465   4.387   7.074   8.235  0.9387 -0.1686  1.4264
19348SOL    HW259466   4.453   7.210   8.246 -0.8486  0.8193  0.4215
19349SOL     OW59467   0.877   6.499   1.603 -0.2383  0.2612 -0.2675
19349SOL    HW159468   0.965   6.505   1.566  0.3241 -1.5479  0.6687
19349SOL    HW259469   0.849   6.590   1.613  1.8012  0.8975  0.0970
19350SOL     OW59470   1.677   5.255   0.653  0.0604  0.4109  0.8920
19350SOL    HW159471   1.666   5.346   0.625  1.0098  0.6479  1.2373
19350SOL    HW259472   1.772   5.240   0.647 -0.2461 -1.0835 -0.7523
19351SOL     OW59473   1.864   4.904   4.129  0.6058  0.4419 -0.3565
19351SOL    HW159474   1.828   4.829   4.176 -0.0797  0.4208 -0.9193
19351SOL    HW259475   1.871   4.972   4.196 -2.7138  1.2392 -0.6578
19352SOL     OW59476   4.320   3.470   6.909 -0.2062 -0.1070  0.2252
19352SOL    HW159477   4.392   3.493   6.969 -0.1575  1.1536 -0.2770
19352SOL    HW259478   4.364   3.451   6.826 -0.1941 -2.7282  0.7556
19353SOL     OW59479   1.573   0.059   3.311 -0.6415  1.0787 -0.1869
19353SOL    HW159480   1.590   0.132   3.251  2.0664 -0.9041 -2.0330
19353SOL    HW259481   1.637   0.070   3.381  1.2436 -0.5526 -1.5605
19354SOL     OW59482   6.991   5.059   3.045 -0.7445 -0.6868 -0.5982
19354SOL    HW159483   6.961   4.970   3.062  1.3352 -1.4217 -0.5456
19354SOL    HW259484   7.086   5.056   3.057 -0.5182  1.3531 -1.4024
19355SOL     OW59485   3.431   5.693   1.485  0.2793  0.3237  0.1831
19355SOL    HW159486   3.420   5.676   1.578  2.6906 -0.7624  0.3660
19355SOL    HW259487   3.346   5.672   1.446 -0.9970  1.4874  2.1688
19356SOL     OW59488   0.640   0.192   5.624 -0.4713  0.3363 -0.8081
19356SOL    HW159489   0.617   0.282   5.601 -0.1628  0.2763 -1.3763
19356SOL    HW259490   0.700   0.165   5.555  0.7251  0.2398  0.2321
19357SOL     OW59491   2.857   2.012   2.345 -0.1115 -0.1484  0.3527
19357SOL    HW159492   2.940   1.963   2.345  0.0585  0.1064 -0.6734
19357SOL    HW259493   2.793   1.950   2.378  0.2124 -0.8917 -0.3559
19358SOL     OW59494   5.715   9.143   4.710 -0.0025  0.2297 -0.3370
19358SOL    HW159495   5.665   9.224   4.697  0.5362  0.8390  1.1258
19358SOL    HW259496   5.650   9.082   4.745  0.1973  1.0400  1.6222
19359SOL     OW59497   0.241   5.081   2.404  0.2576 -0.5410  0.1739
19359SOL    HW159498   0.166   5.029   2.434  0.9918 -0.6253  2.0181
19359SOL    HW259499   0.316   5.044   2.452  1.3069  0.2216 -0.8327
19360SOL     OW59500   3.630   6.906   6.608  0.1309 -0.1714 -0.5082
19360SOL    HW159501   3.537   6.926   6.625  0.6401  2.6891 -0.4830
19360SOL    HW259502   3.672   6.909   6.694  0.0976 -2.9700 -0.3132
19361SOL     OW59503   7.150   1.742   4.860  0.4191 -0.0529  0.0647
19361SOL    HW159504   7.213   1.680   4.898  0.3331 -0.0615  0.1938
19361SOL    HW259505   7.204   1.816   4.830  0.4504  0.1190  0.5362
19362SOL     OW59506   6.460   5.172   8.795 -0.1595  0.1070 -0.2445
19362SOL    HW159507   6.407   5.130   8.863 -1.0180 -0.7180 -1.3976
19362SOL    HW259508   6.546   5.183   8.837 -0.6641 -0.3580  0.9831
19363SOL     OW59509   3.142   4.971   8.545  0.1127 -0.4354  0.1762
19363SOL    HW159510   3.174   4.900   8.490 -1.1888 -1.3847  0.6015
19363SOL    HW259511   3.118   5.040   8.483  2.5998  0.2200 -0.1759
19364SOL     OW59512   3.220   5.410   5.104  0.4857  0.2100  0.1831
19364SOL    HW159513   3.185   5.375   5.021  1.6010 -0.7838  0.1038
19364SOL    HW259514   3.155   5.475   5.131 -0.1220  0.2497 -1.2494
19365SOL     OW59515   1.332   3.934   0.894 -0.2522 -0.2193  0.1971
19365SOL    HW159516   1.272   3.995   0.936  1.1466  2.1648 -1.0481
19365SOL    HW259517   1.359   3.875   0.964  0.6992  2.5471  2.3712
19366SOL     OW59518   2.199   7.755   6.058  0.8583 -0.4680 -0.3814
19366SOL    HW159519   2.193   7.739   5.964 -0.0613  1.0325 -0.6130
19366SOL    HW259520   2.126   7.706   6.096 -0.7620  1.4303 -0.8613
19367SOL     OW59521   6.433   1.059   4.508 -0.0343  0.2481  0.0269
19367SOL    HW159522   6.440   0.964   4.504 -0.6751  0.1746  0.4998
19367SOL    HW259523   6.490   1.090   4.437  0.1801 -0.4822 -0.1314
19368SOL     OW59524   6.419   1.290   0.214  0.7573  0.1336  0.1670
19368SOL    HW159525   6.370   1.372   0.222  0.3031 -0.1270  0.0866
19368SOL    HW259526   6.487   1.295   0.281 -0.7965 -0.4975  1.8744
19369SOL     OW59527   7.722   7.772   9.046  0.2315  0.5746 -0.1921
19369SOL    HW159528   7.702   7.823   9.124  2.4839  2.0755 -0.4872
19369SOL    HW259529   7.728   7.682   9.077 -0.9205  0.8688  0.9476
19370SOL     OW59530   2.695   8.374   6.204 -0.1013  0.3203  0.1733
19370SOL    HW159531   2.697   8.372   6.300 -1.2053 -1.7576  0.2043
19370SOL    HW259532   2.749   8.300   6.177 -0.7063  0.2064 -0.7600
19371SOL     OW59533   5.185   4.693   9.154 -0.0230  0.2506 -0.3833
19371SOL    HW159534   5.163   4.785   9.169  0.1569  0.2114  0.1669
19371SOL    HW259535   5.278   4.687   9.177 -0.0627 -0.0882 -0.3050
19372SOL     OW59536   1.109   5.073   8.193  0.4175  0.2945 -0.3670
19372SOL    HW159537   1.201   5.059   8.167  0.5252 -2.2360  1.0594
19372SOL    HW259538   1.059   5.023   8.129  0.2203 -0.3014  0.2417
19373SOL     OW59539   8.142   3.437   2.701  0.4318 -0.4993  0.7122
19373SOL    HW159540   8.117   3.500   2.770  0.8953 -1.8743  2.2012
19373SOL    HW259541   8.233   3.415   2.722  0.5202 -1.0779 -0.2544
19374SOL     OW59542   0.121   7.519   2.142 -0.0730  0.4585 -0.3490
19374SOL    HW159543   0.123   7.573   2.064  0.5055  0.4558 -0.3408
19374SOL    HW259544   0.082   7.575   2.209 -0.4122  0.5176 -0.5941
19375SOL     OW59545   3.549   2.788   8.254  0.3095  0.2347 -0.5654
19375SOL    HW159546   3.552   2.704   8.300  1.3420  0.5399 -0.0442
19375SOL    HW259547   3.478   2.778   8.191  1.0506 -1.4181 -1.2075
19376SOL     OW59548   1.685   1.408   1.556  0.4174  0.3563  0.3615
19376SOL    HW159549   1.611   1.393   1.615 -1.3110 -1.1832 -2.0246
19376SOL    HW259550   1.761   1.406   1.613 -1.1892 -0.1971  2.6441
19377SOL     OW59551   3.006   5.478   1.821 -0.0707  0.5648  1.1536
19377SOL    HW159552   3.052   5.433   1.892  0.4629 -0.0529  0.4369
19377SOL    HW259553   2.973   5.558   1.861 -2.9478 -1.3929  3.1105
19378SOL     OW59554   9.206   0.485   4.037 -0.2317  0.0666 -0.0042
19378SOL    HW159555   9.291   0.455   4.070 -0.4540 -0.5410  0.0382
19378SOL    HW259556   9.194   0.435   3.956 -0.2981  0.5594 -0.2981
19379SOL     OW59557   1.547   7.479   4.022 -0.7206 -0.0180 -1.0142
19379SOL    HW159558   1.469   7.436   3.986 -0.8822 -0.5106 -0.0965
19379SOL    HW259559   1.524   7.498   4.113 -0.2475  1.0309 -1.0998
19380SOL     OW59560   8.344   7.982   5.481  0.0864  0.0294 -0.2512
19380SOL    HW159561   8.390   7.945   5.406  1.1836 -0.4284  0.6296
19380SOL    HW259562   8.251   7.970   5.460  0.3839 -1.3855 -0.8957
19381SOL     OW59563   7.885   0.760   0.279 -0.4215  0.4008 -0.4768
19381SOL    HW159564   7.806   0.771   0.332 -1.1252  0.1848 -1.4589
19381SOL    HW259565   7.922   0.848   0.273  0.1615  0.3002  1.0801
19382SOL     OW59566   9.276   1.479   6.249  0.0208 -0.8837 -0.2976
19382SOL    HW159567   9.269   1.383   6.251  0.5425 -0.9540 -1.2700
19382SOL    HW259568   9.365   1.495   6.217 -1.0897 -0.1074 -3.3897
19383SOL     OW59569   1.752   1.686   6.395  0.1429  0.3007  0.0503
19383SOL    HW159570   1.719   1.619   6.455  1.9836 -0.7101  0.0100
19383SOL    HW259571   1.728   1.654   6.308  1.6410 -0.7365 -0.0182
19384SOL     OW59572   8.103   0.760   8.108  0.1667 -0.7813 -0.0518
19384SOL    HW159573   8.113   0.855   8.112  1.3657 -0.8859 -0.0366
19384SOL    HW259574   8.030   0.741   8.167 -0.9138  0.2281 -1.0309
19385SOL     OW59575   2.129   0.698   0.203 -0.3287  0.0357 -0.3020
19385SOL    HW159576   2.128   0.625   0.265  0.4971 -1.3640 -1.8577
19385SOL    HW259577   2.080   0.666   0.127 -1.2721  1.6863 -0.4342
19386SOL     OW59578   2.628   4.500   3.853 -0.1771 -0.1301 -0.1444
19386SOL    HW159579   2.682   4.491   3.774 -0.3764 -0.6052 -0.2239
19386SOL    HW259580   2.538   4.498   3.821 -0.2798 -1.1846  0.1798
19387SOL     OW59581   4.645   7.233   8.524 -0.2769  0.3362  0.1115
19387SOL    HW159582   4.553   7.256   8.527 -0.1702  0.7566  0.1760
19387SOL    HW259583   4.691   7.316   8.510  0.0570  0.0597 -0.4766
19388SOL     OW59584   8.607   7.953   6.834  0.0178  0.0347  0.2000
19388SOL    HW159585   8.583   8.040   6.803 -1.5253  0.1599  1.6016
19388SOL    HW259586   8.665   7.918   6.766 -1.4773  1.0932 -1.7272
19389SOL     OW59587   7.818   2.941   2.517 -0.0655 -0.0767  0.3323
19389SOL    HW159588   7.798   2.981   2.602 -0.8846  0.0785  0.0812
19389SOL    HW259589   7.897   2.985   2.488 -0.9999  1.4743  0.0216
19390SOL     OW59590   7.480   7.808   3.371  0.1504  0.3598 -0.1200
19390SOL    HW159591   7.420   7.737   3.346 -1.2197  1.8152 -1.1205
19390SOL    HW259592   7.534   7.823   3.293  1.0873 -0.1864  0.4043
19391SOL     OW59593   1.009   6.270   8.081 -0.0414  0.2747  0.0609
19391SOL    HW159594   1.036   6.362   8.074 -0.1835  0.3483  0.4709
19391SOL    HW259595   1.025   6.234   7.993  1.8654  0.1914  0.3936
19392SOL     OW59596   1.700   1.023   2.378 -0.1415 -0.4886  0.2645
19392SOL    HW159597   1.617   1.015   2.425  0.1081 -0.7250  0.6699
19392SOL    HW259598   1.674   1.037   2.287 -0.6294 -0.9231  0.3267
19393SOL     OW59599   1.796   0.482   2.037 -0.4638 -0.3155 -0.0591
19393SOL    HW159600   1.787   0.391   2.009  0.4793 -0.2360 -0.6513
19393SOL    HW259601   1.839   0.526   1.964 -2.1166  0.9249 -0.3425
19394SOL     OW59602   6.319   3.861   2.097 -0.3367 -0.6380  0.1226
19394SOL    HW159603   6.353   3.944   2.064 -1.0470  1.2556  3.6510
19394SOL    HW259604   6.397   3.806   2.109  0.4384  0.3814 -0.1307
19395SOL     OW59605   0.340   3.917   4.486  0.4266 -0.1025 -0.1241
19395SOL    HW159606   0.283   3.879   4.553 -1.7192  3.5842  0.3876
19395SOL    HW259607   0.324   3.864   4.408 -2.0771 -0.5234  0.6082
19396SOL     OW59608   7.876   0.872   1.731  0.1456 -0.2249  0.0037
19396SOL    HW159609   7.876   0.904   1.821  0.6374 -0.2294  0.0036
19396SOL    HW259610   7.788   0.893   1.699  0.1538  0.2815  0.3011
19397SOL     OW59611   1.837   6.878   2.328 -0.7539  0.3023 -0.2300
19397SOL    HW159612   1.863   6.799   2.377  1.5619  0.6091 -0.8243
19397SOL    HW259613   1.848   6.854   2.236 -1.1363  0.9665 -0.4544
19398SOL     OW59614   1.456   9.219   1.950 -0.6962  0.4149 -0.3078
19398SOL    HW159615   1.487   9.306   1.925  0.5393  0.3755  0.9770
19398SOL    HW259616   1.524   9.184   2.007 -0.8117 -1.7146 -1.3711
19399SOL     OW59617   7.134   6.182   3.040 -0.8363  0.0141  0.5223
19399SOL    HW159618   7.096   6.193   2.953  1.9765 -0.0636 -0.8325
19399SOL    HW259619   7.120   6.267   3.083  0.2957  1.1129 -1.1443
19400SOL     OW59620   1.827   6.858   2.055  0.1742  0.0102 -0.4171
19400SOL    HW159621   1.842   6.830   1.964  1.8090  0.3007 -0.2491
19400SOL    HW259622   1.808   6.952   2.048 -1.1314 -0.2396 -0.5678
19401SOL     OW59623   0.467   1.135   3.123  0.1155  0.1722  0.1818
19401SOL    HW159624   0.538   1.198   3.110 -0.9204  0.8248 -3.2078
19401SOL    HW259625   0.513   1.053   3.143  1.7257  0.9592 -0.0561
19402SOL     OW59626   6.252   8.393   7.784  0.0938  0.3172 -0.8778
19402SOL    HW159627   6.261   8.390   7.689 -0.7666  1.2040 -1.0099
19402SOL    HW259628   6.175   8.338   7.802 -0.1473  0.6920 -0.7637
19403SOL     OW59629   0.318   5.884   9.219  0.4466  0.0218 -0.2524
19403SOL    HW159630   0.299   5.953   9.156  1.9830  0.6501 -0.0550
19403SOL    HW259631   0.398   5.843   9.187  0.7630 -0.2248  0.8108
19404SOL     OW59632   6.414   4.284   7.871  0.4239  0.1107 -0.3206
19404SOL    HW159633   6.367   4.245   7.946  0.8180  0.8794  0.3362
19404SOL    HW259634   6.380   4.236   7.795  0.9344 -1.5786  0.4518
19405SOL     OW59635   3.312   6.416   3.178 -0.7131 -0.2516  0.2525
19405SOL    HW159636   3.350   6.383   3.096 -1.0630  1.6771 -0.7416
19405SOL    HW259637   3.226   6.375   3.183  0.1812 -2.1766  0.8910
19406SOL     OW59638   8.557   0.073   5.481 -0.5052  0.2884 -0.0067
19406SOL    HW159639   8.542   0.009   5.550  3.2623  0.7293  1.4233
19406SOL    HW259640   8.577   0.154   5.527  1.7809  0.6940 -1.5339
19407SOL     OW59641   6.968   2.938   8.682 -0.3627 -0.0103  0.3399
19407SOL    HW159642   6.906   3.011   8.688 -0.1504  0.1527  0.5517
19407SOL    HW259643   6.974   2.920   8.588 -0.9082 -0.1800  0.3365
19408SOL     OW59644   3.300   4.635   7.016  0.3374 -0.4937  0.8922
19408SOL    HW159645   3.275   4.547   7.042 -2.7368 -0.7091 -2.0654
19408SOL    HW259646   3.329   4.625   6.925  1.2049  1.4263  0.9099
19409SOL     OW59647   6.202   4.917   6.394  0.1518 -0.5666  0.3561
19409SOL    HW159648   6.142   4.864   6.341 -1.0417  1.0182  0.0152
19409SOL    HW259649   6.211   4.869   6.476 -2.2614 -0.5343  0.7243
19410SOL     OW59650   3.364   3.809   8.685 -0.1085  0.0064 -0.1424
19410SOL    HW159651   3.404   3.749   8.749 -0.7005  0.0325  0.2614
19410SOL    HW259652   3.369   3.762   8.602  0.4429 -0.1354 -0.0305
19411SOL     OW59653   0.937   3.577   8.249  0.2447  0.4513 -0.3875
19411SOL    HW159654   0.879   3.533   8.186  0.5042 -2.3490  1.1675
19411SOL    HW259655   1.024   3.566   8.212  0.5142 -2.0681  0.7508
19412SOL     OW59656   8.830   2.321   0.993  0.3715  0.2672  0.2914
19412SOL    HW159657   8.910   2.370   0.973 -1.0612  2.6736  0.1879
19412SOL    HW259658   8.815   2.335   1.086  0.0152 -0.1301  0.2999
19413SOL     OW59659   8.557   3.725   0.150 -0.2109  0.1515  0.5553
19413SOL    HW159660   8.583   3.812   0.121 -0.9436 -0.3316 -1.6975
19413SOL    HW259661   8.463   3.731   0.166 -0.0438  0.0695  1.7153
19414SOL     OW59662   4.756   5.580   8.964  0.1944 -0.3586  0.4630
19414SOL    HW159663   4.843   5.544   8.952 -0.1126 -0.5210 -1.4709
19414SOL    HW259664   4.698   5.521   8.917 -0.5304  1.6215 -1.2665
19415SOL     OW59665   9.054   8.133   4.666  0.1880  0.5633  0.5733
19415SOL    HW159666   9.098   8.218   4.660 -0.4777  0.8407 -0.7119
19415SOL    HW259667   9.117   8.071   4.631  0.4417  0.6194  0.9309
19416SOL     OW59668   4.976   6.634   4.634 -0.3954 -0.3189 -0.1893
19416SOL    HW159669   5.013   6.692   4.567  0.8038  0.5882  1.2243
19416SOL    HW259670   4.915   6.688   4.682 -3.5899 -1.7170 -2.2939
19417SOL     OW59671   2.288   5.013   4.932 -0.0419  0.0180  0.3476
19417SOL    HW159672   2.208   4.961   4.928 -1.0225  1.4827  0.3945
19417SOL    HW259673   2.345   4.974   4.866 -1.4931  0.0762 -0.9865
19418SOL     OW59674   8.488   3.188   3.955  0.3775  0.3244 -0.5322
19418SOL    HW159675   8.428   3.116   3.937 -0.0297  0.4040  0.4288
19418SOL    HW259676   8.554   3.182   3.886  0.4832 -1.1187 -0.3434
19419SOL     OW59677   2.885   4.051   5.499  0.2231 -0.4750 -0.6205
19419SOL    HW159678   2.936   4.128   5.473  1.1622 -0.7707  0.2867
19419SOL    HW259679   2.888   3.994   5.422 -1.4668  0.8451 -1.7338
19420SOL     OW59680   5.209   4.444   3.502  0.1791 -0.1595  0.2035
19420SOL    HW159681   5.227   4.520   3.557  1.2024 -0.6283  0.5351
19420SOL    HW259682   5.150   4.390   3.555 -2.4691  1.4314 -0.9317
19421SOL     OW59683   9.160   4.779   7.401  0.0216 -0.0190  0.0612
19421SOL    HW159684   9.073   4.778   7.362 -0.6212 -0.8467  1.4504
19421SOL    HW259685   9.175   4.871   7.423 -0.8765  0.0055  0.6114
19422SOL     OW59686   8.114   3.259   5.885 -0.0186 -0.9359 -0.2488
19422SOL    HW159687   8.108   3.286   5.977  1.7939 -1.0006 -0.0730
19422SOL    HW259688   8.094   3.165   5.887  0.1166 -0.9611  0.1013
19423SOL     OW59689   3.130   6.332   1.975  0.3505  0.1992 -0.6279
19423SOL    HW159690   3.109   6.397   1.909  1.2804  0.8410 -0.3093
19423SOL    HW259691   3.181   6.265   1.928 -0.3413 -0.1509 -0.8876
19424SOL     OW59692   3.245   6.760   7.007  0.1764  0.2660 -0.1527
19424SOL    HW159693   3.215   6.712   7.084 -1.3717  1.2466 -0.0987
19424SOL    HW259694   3.236   6.852   7.032  1.6499  0.5984 -0.7771
19425SOL     OW59695   7.733   2.837   8.883 -0.3881 -0.6625 -0.0886
19425SOL    HW159696   7.786   2.760   8.862  0.6263  0.0046 -0.0500
19425SOL    HW259697   7.720   2.880   8.799  0.1126 -0.2159  0.0606
19426SOL     OW59698   8.175   0.123   8.712  0.0107 -0.0145 -0.2194
19426SOL    HW159699   8.237   0.076   8.767 -0.9350  0.1494  1.0523
19426SOL    HW259700   8.089   0.086   8.735 -0.6905  1.8101  0.3378
19427SOL     OW59701   3.437   8.605   3.830 -0.0634  0.2495 -0.6153
19427SOL    HW159702   3.395   8.521   3.812 -0.8173  0.6897 -0.9528
19427SOL    HW259703   3.510   8.584   3.888 -0.7709 -0.5319  0.0154
19428SOL     OW59704   6.242   0.682   0.602  0.2648 -0.0913 -0.0386
19428SOL    HW159705   6.257   0.601   0.554  0.7319 -0.0522  0.0352
19428SOL    HW259706   6.196   0.739   0.539 -1.4712 -0.9326  0.4009
19429SOL     OW59707   8.085   2.912   4.636 -0.9445 -0.8084 -0.0079
19429SOL    HW159708   8.162   2.902   4.581 -1.1709  0.3250 -0.5807
19429SOL    HW259709   8.037   2.829   4.628 -0.2520 -1.1744 -0.3686
19430SOL     OW59710   2.300   5.362   5.667  0.3816 -0.3675  0.7546
19430SOL    HW159711   2.384   5.357   5.621 -0.2236 -1.2620 -0.3129
19430SOL    HW259712   2.294   5.453   5.697  1.4577 -0.1462  0.3309
19431SOL     OW59713   4.504   6.997   2.621 -0.0230 -0.0875 -0.7047
19431SOL    HW159714   4.544   7.072   2.576 -1.1332  2.0235  1.5786
19431SOL    HW259715   4.486   7.029   2.709 -2.0241 -2.5780 -0.1020
19432SOL     OW59716   1.438   3.558   6.034  0.0355 -0.2702 -0.3667
19432SOL    HW159717   1.475   3.570   5.946  0.5429 -1.2589 -0.3016
19432SOL    HW259718   1.343   3.570   6.022  0.1223 -0.1914 -1.0098
19433SOL     OW59719   2.530   4.702   0.766 -0.2580  0.0804  0.4056
19433SOL    HW159720   2.559   4.716   0.676  0.9583  0.3330  0.8246
19433SOL    HW259721   2.586   4.758   0.819 -0.1303 -0.9932  1.4453
19434SOL     OW59722   4.335   8.921   3.388  0.3901  0.4558  0.6704
19434SOL    HW159723   4.319   8.886   3.476  0.1916 -0.5677  0.2449
19434SOL    HW259724   4.255   8.966   3.364  0.8381  1.7065  1.4405
19435SOL     OW59725   4.974   5.010   4.109 -0.1005 -0.3297  0.7744
19435SOL    HW159726   4.918   4.948   4.156  0.2325 -0.3107  1.2078
19435SOL    HW259727   5.048   5.024   4.168 -0.0408  0.2730  0.5624
19436SOL     OW59728   1.853   7.065   1.432  0.7086 -0.2252  0.1758
19436SOL    HW159729   1.761   7.066   1.408  0.4273  0.3557  1.1852
19436SOL    HW259730   1.858   7.122   1.509  2.0655  0.5146 -0.4147
19437SOL     OW59731   0.446   5.951   8.360 -0.1279  0.4959  0.2127
19437SOL    HW159732   0.371   5.930   8.305 -0.5743  1.4696  0.4415
19437SOL    HW259733   0.409   5.988   8.439  0.3636 -2.6513  2.1056
19438SOL     OW59734   3.969   8.600   8.847  0.4910  0.1700 -0.0149
19438SOL    HW159735   3.971   8.595   8.751 -1.1335  1.4404 -0.1574
19438SOL    HW259736   3.920   8.522   8.873 -1.7664  1.3479 -0.4719
19439SOL     OW59737   3.963   2.854   1.760 -0.6251 -0.0900  0.2480
19439SOL    HW159738   3.919   2.918   1.817 -0.2216  0.6436 -0.2445
19439SOL    HW259739   3.900   2.837   1.690 -0.7366 -0.2339  0.3838
19440SOL     OW59740   3.408   0.500   4.944  0.1581 -0.5121 -0.2490
19440SOL    HW159741   3.480   0.439   4.964 -0.3054 -0.3761  1.9916
19440SOL    HW259742   3.373   0.525   5.029 -2.1142 -0.0168 -1.2622
19441SOL     OW59743   5.830   3.674   8.591  0.1748 -0.1393  0.3582
19441SOL    HW159744   5.849   3.700   8.501 -1.2741 -1.8400 -0.5145
19441SOL    HW259745   5.849   3.752   8.644  2.0184  0.5894 -1.2637
19442SOL     OW59746   2.236   4.777   5.110 -0.0233  0.5568  0.2212
19442SOL    HW159747   2.267   4.858   5.152 -0.3986  0.4577  0.6913
19442SOL    HW259748   2.149   4.800   5.077 -0.2512  0.2589  0.6128
19443SOL     OW59749   7.977   3.243   2.352  0.0787 -0.1549  0.2974
19443SOL    HW159750   7.989   3.265   2.260 -2.1148 -1.2100 -0.3218
19443SOL    HW259751   7.966   3.148   2.353  1.4243 -0.3386  1.8530
19444SOL     OW59752   5.812   2.170   0.800  0.2589 -0.7919 -0.2475
19444SOL    HW159753   5.880   2.124   0.849  2.6654  0.1816 -2.4720
19444SOL    HW259754   5.830   2.150   0.708 -0.1066  2.4728 -1.1671
19445SOL     OW59755   3.136   5.865   7.981  0.8118  0.5087  0.9920
19445SOL    HW159756   3.135   5.867   7.885 -0.0481 -0.4144  0.9682
19445SOL    HW259757   3.100   5.950   8.006  1.5312  0.9676  0.5073
19446SOL     OW59758   3.899   3.446   2.476 -0.6660 -0.1608  0.1101
19446SOL    HW159759   3.943   3.361   2.478 -0.3914 -0.0159  0.5431
19446SOL    HW259760   3.967   3.507   2.444 -1.1794 -0.2746 -1.2576
19447SOL     OW59761   1.609   4.197   5.474  0.2003 -0.1390 -0.6400
19447SOL    HW159762   1.649   4.175   5.389  0.9727  0.5530 -0.4726
19447SOL    HW259763   1.543   4.264   5.453  1.2676  0.9773 -0.5710
19448SOL     OW59764   0.168   4.653   7.234  0.2901  0.1522 -0.2611
19448SOL    HW159765   0.226   4.577   7.234 -0.3275 -0.3254  0.3898
19448SOL    HW259766   0.184   4.696   7.318  0.2841  0.4747 -0.4214
19449SOL     OW59767   5.345   9.169   1.465 -0.0086  0.0905 -0.0863
19449SOL    HW159768   5.359   9.244   1.407  1.2150  1.1555  1.4851
19449SOL    HW259769   5.257   9.183   1.501  0.1790  0.7708  0.1382
19450SOL     OW59770   8.169   2.431   0.617 -0.2863  0.2718 -0.4277
19450SOL    HW159771   8.121   2.428   0.700 -0.0204 -1.4549 -0.3059
19450SOL    HW259772   8.107   2.470   0.555 -0.9099  0.4789  0.3069
19451SOL     OW59773   4.595   3.811   4.379  0.3469 -0.2870  0.0007
19451SOL    HW159774   4.663   3.877   4.363 -0.1906  0.5051  0.8656
19451SOL    HW259775   4.608   3.784   4.469  0.3885 -1.1804 -0.2698
19452SOL     OW59776   2.038   3.410   0.553 -0.7987 -0.5767 -0.0013
19452SOL    HW159777   2.056   3.441   0.641 -2.0743 -0.4993  0.2418
19452SOL    HW259778   2.040   3.489   0.498 -0.1814 -0.6038 -0.0337
19453SOL     OW59779   6.190   6.757   4.718  0.3241  0.5067  0.1282
19453SOL    HW159780   6.173   6.798   4.633 -1.0365 -0.9299 -0.3347
19453SOL    HW259781   6.236   6.676   4.697  1.4283  0.9020  0.9111
19454SOL     OW59782   6.567   7.343   0.959  0.1458 -0.0146  0.0463
19454SOL    HW159783   6.587   7.303   0.874  0.3433  2.3298 -1.0941
19454SOL    HW259784   6.477   7.374   0.949 -1.0297 -2.4608  1.9030
19455SOL     OW59785   7.681   8.493   1.252  0.3619  0.7523  0.9861
19455SOL    HW159786   7.740   8.463   1.321 -0.1154 -0.9576  0.7002
19455SOL    HW259787   7.719   8.460   1.171 -1.5833 -1.5711  0.9000
19456SOL     OW59788   8.334   2.091   2.214 -0.2072  0.1665 -0.0342
19456SOL    HW159789   8.254   2.144   2.216 -0.4261 -0.1525 -0.2642
19456SOL    HW259790   8.321   2.031   2.140  1.0987  1.4474 -1.3619
19457SOL     OW59791   5.923   2.414   1.055 -0.4851  0.6285 -0.1940
19457SOL    HW159792   6.008   2.406   1.012 -0.2888  0.8921  0.1448
19457SOL    HW259793   5.940   2.466   1.133 -0.6087 -0.9511  0.9187
19458SOL     OW59794   8.425   4.430   5.482 -0.2614 -0.0140  0.1672
19458SOL    HW159795   8.443   4.511   5.530 -0.3384 -0.3534  0.7790
19458SOL    HW259796   8.465   4.361   5.535 -1.1623 -0.4989  0.2468
19459SOL     OW59797   1.992   0.611   2.747  0.0874  0.0519 -0.5515
19459SOL    HW159798   1.930   0.539   2.750  0.8217 -0.6560 -1.6507
19459SOL    HW259799   1.968   0.660   2.669  1.5033 -0.8276 -1.5953
19460SOL     OW59800   6.987   7.281   6.878  0.2442  0.0132 -0.5212
19460SOL    HW159801   6.925   7.343   6.838  0.1903  1.9472  2.3093
19460SOL    HW259802   7.072   7.309   6.845  0.0979  0.7814 -0.2607
19461SOL     OW59803   5.377   4.315   2.785  0.1750  0.5243  0.4791
19461SOL    HW159804   5.386   4.316   2.689 -1.0063  3.0666  0.3296
19461SOL    HW259805   5.447   4.373   2.816  0.4998 -0.2214  1.1853
19462SOL     OW59806   2.749   7.416   6.262 -0.4047  0.0412  0.1857
19462SOL    HW159807   2.687   7.371   6.319  0.7468 -0.4055  1.1329
19462SOL    HW259808   2.741   7.371   6.178 -0.9815 -0.3463  0.4406
19463SOL     OW59809   7.794   2.111   4.265  0.1048  0.1346 -0.0663
19463SOL    HW159810   7.803   2.206   4.276  0.9632 -0.0841  1.4723
19463SOL    HW259811   7.803   2.096   4.171 -0.3561  1.6029 -0.3648
19464SOL     OW59812   6.341   1.833   8.748  0.2523  0.2104 -0.2207
19464SOL    HW159813   6.387   1.917   8.739 -0.9884  0.8953 -0.4293
19464SOL    HW259814   6.335   1.799   8.659 -1.2627  1.0446 -0.4714
19465SOL     OW59815   6.416   3.586   6.923  0.3084  0.6069  0.1547
19465SOL    HW159816   6.380   3.514   6.975 -0.9378  0.2991 -1.0686
19465SOL    HW259817   6.457   3.644   6.987  3.1947 -2.1394  1.0473
19466SOL     OW59818   4.850   5.142   6.300 -0.4311 -0.0693  0.2334
19466SOL    HW159819   4.933   5.110   6.337 -0.0751 -0.1111 -0.5829
19466SOL    HW259820   4.786   5.074   6.323 -0.2262 -0.0811  0.7894
19467SOL     OW59821   2.595   3.584   2.060  0.3785  0.3510  0.1920
19467SOL    HW159822   2.628   3.592   1.971  0.5488 -1.2068  0.0864
19467SOL    HW259823   2.670   3.553   2.111  0.9251  3.3021  1.3772
19468SOL     OW59824   1.691   8.857   4.173  0.3707 -0.2564 -0.4902
19468SOL    HW159825   1.751   8.783   4.174  0.8992  0.1616  0.4108
19468SOL    HW259826   1.695   8.892   4.262  0.5388  1.1820 -1.0444
19469SOL     OW59827   7.236   1.509   9.244  0.5760  0.1199 -0.0413
19469SOL    HW159828   7.185   1.440   9.286  1.1636 -0.7695 -0.7463
19469SOL    HW259829   7.193   1.523   9.159  1.5964 -0.8177 -0.7525
19470SOL     OW59830   5.979   6.146   8.667  0.3881 -0.0981  0.4029
19470SOL    HW159831   6.049   6.082   8.656  0.7857  0.4595 -0.3347
19470SOL    HW259832   5.956   6.173   8.578 -0.8276 -0.3286  0.6202
19471SOL     OW59833   4.047   0.866   3.779 -0.2341 -0.0938  0.7057
19471SOL    HW159834   3.973   0.866   3.718 -0.2050  1.7498  0.6055
19471SOL    HW259835   4.053   0.956   3.809  0.1225 -0.8220  3.0314
19472SOL     OW59836   9.087   3.105   3.264  0.0758 -0.2488 -0.3161
19472SOL    HW159837   9.020   3.055   3.218  0.1182 -2.3566  1.6831
19472SOL    HW259838   9.040   3.180   3.301 -0.5988 -0.2610 -1.1306
19473SOL     OW59839   1.605   7.369   0.420 -0.1426  0.4556 -0.6938
19473SOL    HW159840   1.687   7.325   0.397 -0.0855  1.3667 -2.4287
19473SOL    HW259841   1.537   7.317   0.379 -0.3578  0.2395 -0.0714
19474SOL     OW59842   7.789   6.363   1.113  0.1059  0.3469  0.1292
19474SOL    HW159843   7.884   6.368   1.107  0.1767  0.2544  1.0719
19474SOL    HW259844   7.769   6.375   1.206 -0.7298 -0.5967  0.0991
19475SOL     OW59845   7.131   3.475   6.939 -0.1461 -0.4093 -0.0331
19475SOL    HW159846   7.099   3.394   6.979  0.0080  0.1924  1.3787
19475SOL    HW259847   7.061   3.501   6.879 -0.7663 -0.9276  0.4451
19476SOL     OW59848   3.756   8.597   3.848  0.3711 -0.1974  0.0393
19476SOL    HW159849   3.831   8.541   3.865  0.3562 -0.1568  0.2360
19476SOL    HW259850   3.769   8.628   3.758  1.1944  0.7461  0.4723
19477SOL     OW59851   4.314   1.772   7.759  0.1216  0.7816 -0.0569
19477SOL    HW159852   4.238   1.742   7.709  0.6354 -0.6326 -0.0538
19477SOL    HW259853   4.291   1.753   7.850  0.1651  1.0638  0.0122
19478SOL     OW59854   0.205   1.110   3.583 -0.1177  0.1766 -0.1360
19478SOL    HW159855   0.265   1.036   3.570  0.3073  0.4798  0.0967
19478SOL    HW259856   0.261   1.184   3.604 -0.7279 -0.3394  4.0961
19479SOL     OW59857   6.376   6.031   5.116 -0.2277  0.1504  0.0118
19479SOL    HW159858   6.369   6.127   5.111 -2.6743  0.0686  0.7132
19479SOL    HW259859   6.407   6.013   5.204 -1.5582  0.2826  0.5295
19480SOL     OW59860   1.758   4.357   0.895 -0.1714 -0.1707 -0.3024
19480SOL    HW159861   1.703   4.432   0.918  0.9301  0.2349  1.1362
19480SOL    HW259862   1.701   4.281   0.908 -1.3576  0.3857 -1.9515
19481SOL     OW59863   6.369   7.596   3.961  0.7177 -0.6300 -0.0281
19481SOL    HW159864   6.279   7.566   3.974  0.4453  0.4603  0.7746
19481SOL    HW259865   6.403   7.607   4.050  1.5418 -0.7144 -0.3223
19482SOL     OW59866   4.260   6.659   0.477 -0.1043  0.7376  0.1645
19482SOL    HW159867   4.273   6.606   0.399 -0.8416 -0.4436  0.8164
19482SOL    HW259868   4.234   6.745   0.443  1.3707  0.7991 -0.9110
19483SOL     OW59869   0.918   2.736   1.432  0.1310 -0.6777 -0.3248
19483SOL    HW159870   0.901   2.705   1.343  0.1973 -0.7162 -0.3246
19483SOL    HW259871   1.013   2.747   1.436  0.0708 -0.0505 -0.4646
19484SOL     OW59872   3.076   7.113   0.298  0.0109 -0.2178 -0.6427
19484SOL    HW159873   2.985   7.143   0.304  0.0016 -0.3750  0.1964
19484SOL    HW259874   3.086   7.054   0.373  0.8297 -0.1354 -0.6830
19485SOL     OW59875   3.238   5.679   0.934  0.1536  0.4049 -0.2386
19485SOL    HW159876   3.236   5.607   0.997  2.6623 -0.0067 -0.5628
19485SOL    HW259877   3.197   5.644   0.855 -3.2337  0.9888  1.0754
19486SOL     OW59878   4.572   7.127   6.685  0.1532  0.0080 -0.3790
19486SOL    HW159879   4.513   7.079   6.742 -0.0960 -0.5660 -1.1029
19486SOL    HW259880   4.514   7.177   6.627  0.3257 -0.9789 -1.4542
19487SOL     OW59881   2.135   0.088   5.797  0.2480 -0.4556  0.0762
19487SOL    HW159882   2.081   0.010   5.792  0.7092 -0.8525  0.9853
19487SOL    HW259883   2.195   0.081   5.723  1.2267 -1.7007  0.9516
19488SOL     OW59884   0.296   6.671   3.240 -0.5338 -0.0498 -0.0679
19488SOL    HW159885   0.362   6.730   3.278 -0.7510  0.4521 -0.4573
19488SOL    HW259886   0.339   6.586   3.237 -0.4797 -0.0761  1.2034
19489SOL     OW59887   0.533   6.838   0.634  0.5406  0.2096  0.2504
19489SOL    HW159888   0.606   6.897   0.650  0.4878 -0.1776  2.0998
19489SOL    HW259889   0.463   6.894   0.599  0.8616  1.0344  0.9118
19490SOL     OW59890   0.939   0.539   5.051 -0.6387 -0.2760  0.8752
19490SOL    HW159891   0.882   0.581   4.987 -0.4618  1.9027  2.0507
19490SOL    HW259892   0.886   0.531   5.130  0.0539 -0.1007  1.3706
19491SOL     OW59893   1.263   5.937   2.309  0.0934  0.2187  0.1679
19491SOL    HW159894   1.214   6.019   2.305 -0.1081  0.1430  1.0603
19491SOL    HW259895   1.198   5.870   2.327  0.4528  0.0510  0.8655
19492SOL     OW59896   5.382   7.501   0.979  0.3282  0.3323 -0.0126
19492SOL    HW159897   5.308   7.510   0.919  1.3933  1.4416 -1.2368
19492SOL    HW259898   5.394   7.589   1.016  1.8884  0.5534 -0.9381
19493SOL     OW59899   5.178   2.079   7.815  0.0789  0.2309  0.1117
19493SOL    HW159900   5.238   2.027   7.761 -0.1570  0.7467 -0.6625
19493SOL    HW259901   5.229   2.154   7.843  0.4003 -0.3643  1.1802
19494SOL     OW59902   3.878   5.716   6.070  0.7718  0.0251  0.5840
19494SOL    HW159903   3.856   5.623   6.070  0.4574  0.0738 -0.8804
19494SOL    HW259904   3.969   5.720   6.099  1.6368 -1.0109 -1.7442
19495SOL     OW59905   7.215   4.826   4.604  0.3414 -0.6354 -0.2466
19495SOL    HW159906   7.121   4.842   4.602  0.4539  0.1664  0.2286
19495SOL    HW259907   7.231   4.791   4.692  0.4322 -1.1705 -0.4723
19496SOL     OW59908   5.652   2.033   2.734  0.4482 -0.8776  0.2115
19496SOL    HW159909   5.577   2.061   2.787  1.3626 -0.6231  1.4269
19496SOL    HW259910   5.658   2.097   2.664  1.6557  1.2752  2.1413
19497SOL     OW59911   1.460   8.757   4.045 -0.4458 -0.3314 -0.2593
19497SOL    HW159912   1.540   8.783   4.091 -0.9955 -0.0945  0.5866
19497SOL    HW259913   1.484   8.676   4.000  0.2029 -0.3880  0.1744
19498SOL     OW59914   8.823   3.952   8.275  0.2794 -0.2943  0.2454
19498SOL    HW159915   8.729   3.945   8.260  0.3430  0.8745 -0.8879
19498SOL    HW259916   8.833   4.026   8.335  0.5503  0.7710 -1.0633
19499SOL     OW59917   6.176   0.897   1.414 -0.3676  0.0920  0.1566
19499SOL    HW159918   6.137   0.984   1.423 -0.1481  0.0285  2.2710
19499SOL    HW259919   6.199   0.891   1.322  0.4141  2.6250  0.0975
19500SOL     OW59920   0.535   0.114   8.943 -0.5388  0.2785  0.0824
19500SOL    HW159921   0.533   0.141   9.035  1.5988 -0.3036  0.3563
19500SOL    HW259922   0.596   0.176   8.902 -1.1336  0.2538 -0.8489
19501SOL     OW59923   2.394   6.007   8.749 -0.5774 -0.3466  0.2170
19501SOL    HW159924   2.429   5.939   8.692 -2.0286  0.2459 -1.5184
19501SOL    HW259925   2.463   6.073   8.754 -0.5983 -0.1559 -1.3948
19502SOL     OW59926   1.688   2.061   7.589 -0.3900  0.0073 -0.8200
19502SOL    HW159927   1.681   1.992   7.523 -0.3959  0.0987 -0.9147
19502SOL    HW259928   1.713   2.015   7.669 -2.7310 -0.4437 -0.2626
19503SOL     OW59929   6.891   8.701   0.248  0.4050 -0.1152  0.3762
19503SOL    HW159930   6.797   8.687   0.236  0.4041 -0.2548  0.5414
19503SOL    HW259931   6.907   8.683   0.341  0.3879  1.0550  0.6321
19504SOL     OW59932   8.326   4.543   6.139 -0.0827 -0.1060  0.0056
19504SOL    HW159933   8.250   4.492   6.168 -0.2579  0.6428  0.8993
19504SOL    HW259934   8.399   4.507   6.189  0.2539 -1.1021 -1.1512
19505SOL     OW59935   1.079   8.284   3.031  0.1858  0.5107 -0.4039
19505SOL    HW159936   1.027   8.207   3.055  0.6598 -0.0543 -1.1435
19505SOL    HW259937   1.016   8.356   3.031 -0.2782  0.1134  0.2377
19506SOL     OW59938   2.171   3.142   6.387  0.1395 -0.0534 -0.1989
19506SOL    HW159939   2.095   3.176   6.435 -0.6469 -3.1133  0.9485
19506SOL    HW259940   2.246   3.184   6.429 -0.7188 -0.0650  1.4406
19507SOL     OW59941   5.060   1.030   1.067  0.2046 -0.0483  0.0877
19507SOL    HW159942   4.990   0.968   1.085  0.1981 -0.8146 -2.1945
19507SOL    HW259943   5.034   1.110   1.112 -1.9862 -0.4081 -0.4563
19508SOL     OW59944   8.583   6.587   3.551 -0.7429 -0.6922  0.4572
19508SOL    HW159945   8.612   6.600   3.460 -1.8269  0.4505  0.2510
19508SOL    HW259946   8.507   6.529   3.544 -1.6825  0.5035  0.4764
19509SOL     OW59947   0.638   5.231   7.823  0.2325 -0.0958 -0.4302
19509SOL    HW159948   0.619   5.181   7.744 -1.4527  0.8681 -0.6887
19509SOL    HW259949   0.554   5.239   7.868  0.7883  0.9949  0.4845
19510SOL     OW59950   6.927   6.233   8.694  0.1505  0.4459 -0.0442
19510SOL    HW159951   6.910   6.163   8.756 -0.4074 -0.8088 -1.5477
19510SOL    HW259952   7.023   6.240   8.692  0.2775 -0.9809 -0.5713
19511SOL     OW59953   1.302   7.457   0.437  0.3538 -0.3604 -0.1837
19511SOL    HW159954   1.320   7.501   0.520 -0.5844  0.6625 -0.4973
19511SOL    HW259955   1.389   7.434   0.403  0.7918  0.0678  0.6134
19512SOL     OW59956   2.223   6.792   7.444  0.0786  0.0098  0.1907
19512SOL    HW159957   2.201   6.768   7.354 -1.1947 -1.2622  0.8009
19512SOL    HW259958   2.140   6.816   7.484  0.6182  0.5224  1.0463
19513SOL     OW59959   8.460   1.200   1.471  0.0573 -0.6807 -0.0464
19513SOL    HW159960   8.444   1.156   1.554  0.4033 -0.8610 -0.0732
19513SOL    HW259961   8.553   1.223   1.473 -0.0497 -0.2314 -0.1672
19514SOL     OW59962   0.453   8.833   9.185  0.0121 -0.8243  0.1248
19514SOL    HW159963   0.540   8.850   9.221  0.2649 -0.6670 -0.5534
19514SOL    HW259964   0.397   8.827   9.262  0.0360  2.2570  0.4995
19515SOL     OW59965   6.521   8.274   2.418  0.1070  0.1519 -0.5047
19515SOL    HW159966   6.580   8.345   2.395  2.2406 -1.3003  0.2131
19515SOL    HW259967   6.537   8.207   2.351 -0.6893 -0.2930 -0.2693
19516SOL     OW59968   5.506   4.796   2.217  0.0679  1.1315  0.0194
19516SOL    HW159969   5.489   4.719   2.271 -1.1931  2.5622  1.8102
19516SOL    HW259970   5.430   4.852   2.230 -0.1192  1.7520 -3.0407
19517SOL     OW59971   2.744   7.007   6.761  0.5722  0.8215  0.2124
19517SOL    HW159972   2.780   6.949   6.828  2.3856  1.0767 -0.4936
19517SOL    HW259973   2.792   6.985   6.682 -2.4703 -0.4465 -1.4302
19518SOL     OW59974   6.148   2.512   5.674 -0.1757 -0.1462 -0.3802
19518SOL    HW159975   6.221   2.510   5.736  0.0868  0.0516 -0.6752
19518SOL    HW259976   6.124   2.605   5.669  0.6033  0.0148 -1.4811
19519SOL     OW59977   2.325   8.577   5.042 -0.7841  0.2280 -0.0671
19519SOL    HW159978   2.400   8.616   5.087 -1.3476  1.0625  0.1546
19519SOL    HW259979   2.273   8.651   5.011 -1.3521 -0.3401 -0.5031
19520SOL     OW59980   8.826   2.381   1.242 -0.1694 -0.4553 -0.0807
19520SOL    HW159981   8.828   2.321   1.316 -0.6127 -1.5077 -0.9059
19520SOL    HW259982   8.790   2.462   1.278 -0.4175 -0.9662  0.8424
19521SOL     OW59983   6.432   8.593   2.505  0.3273  0.4885 -0.0567
19521SOL    HW159984   6.402   8.510   2.541 -1.3447  1.4808  0.9558
19521SOL    HW259985   6.439   8.577   2.411 -1.7090 -0.3459 -0.1231
19522SOL     OW59986   8.856   2.171   7.734  0.5191  0.2804 -0.7844
19522SOL    HW159987   8.778   2.153   7.786  1.8117 -0.5922  0.9398
19522SOL    HW259988   8.865   2.267   7.737 -1.7236  0.6485 -2.9750
19523SOL     OW59989   1.537   1.658   3.615  0.0975 -0.1164  0.5848
19523SOL    HW159990   1.603   1.727   3.603  0.7108 -0.5807  1.2088
19523SOL    HW259991   1.565   1.588   3.555  0.6938 -0.6695  1.4772
19524SOL     OW59992   0.322   4.783   1.194  0.0598 -0.2933  0.0123
19524SOL    HW159993   0.403   4.758   1.150 -0.2351  1.7569 -1.8781
19524SOL    HW259994   0.339   4.769   1.287  2.0445 -1.2564 -0.4517
19525SOL     OW59995   7.757   1.917   0.650  0.6371 -0.4104 -0.2809
19525SOL    HW159996   7.712   1.833   0.637 -0.0899  0.0549 -0.8302
19525SOL    HW259997   7.753   1.931   0.745  1.1145 -1.1772 -0.1356
19526SOL     OW59998   1.431   1.883   4.960  0.2176 -0.2419  0.5779
19526SOL    HW159999   1.416   1.821   5.031  1.8451  0.2553  1.4072
19526SOL    HW260000   1.343   1.914   4.936 -0.5845 -2.4471  0.4722
19527SOL     OW60001   0.858   2.500   0.022 -0.6487  0.0065 -0.4465
19527SOL    HW160002   0.919   2.573   0.032 -0.2057 -0.2365 -1.2666
19527SOL    HW260003   0.778   2.529   0.066 -0.0582  0.4637  0.3537
19528SOL     OW60004   2.892   8.726   7.464  0.2178 -0.0703 -0.0993
19528SOL    HW160005   2.976   8.746   7.504 -0.0921 -0.4217  0.7601
19528SOL    HW260006   2.912   8.663   7.395  0.8584  1.1208 -1.0337
19529SOL     OW60007   5.923   3.382   2.601 -0.2213 -0.0196 -0.5932
19529SOL    HW160008   5.985   3.360   2.671  0.4995 -0.3251 -1.3091
19529SOL    HW260009   5.885   3.298   2.576 -0.8258  0.1492 -0.2615
19530SOL     OW60010   7.127   6.903   3.987  0.7763 -0.3249  0.3939
19530SOL    HW160011   7.134   6.813   3.957  0.9718 -0.7511  1.6415
19530SOL    HW260012   7.037   6.911   4.019  0.3371  0.3436 -0.9312
19531SOL     OW60013   8.018   1.476   3.844 -0.0367 -0.3947  0.4029
19531SOL    HW160014   7.968   1.556   3.827  1.0526  0.1992 -0.1226
19531SOL    HW260015   7.960   1.422   3.897 -0.9266  0.6034  0.4750
19532SOL     OW60016   8.170   0.391   2.728  0.9541  0.1047  0.3354
19532SOL    HW160017   8.082   0.406   2.693  1.0513 -1.2514 -0.6075
19532SOL    HW260018   8.223   0.463   2.693  0.9504 -0.9669 -2.1215
19533SOL     OW60019   6.431   1.736   1.517  0.3099  0.2454 -0.6639
19533SOL    HW160020   6.369   1.672   1.553  1.4256 -0.0772  0.7965
19533SOL    HW260021   6.385   1.820   1.525 -0.1709 -0.0601 -0.1244
19534SOL     OW60022   7.008   2.406   5.491 -0.3533  0.3112 -0.6009
19534SOL    HW160023   7.069   2.366   5.553 -0.7336  0.7098  0.0307
19534SOL    HW260024   7.054   2.402   5.407 -0.1693 -0.9864 -0.4647
19535SOL     OW60025   0.937   4.826   2.848  0.4956 -0.1473  0.4594
19535SOL    HW160026   0.867   4.769   2.818 -0.4896  1.0652  0.3757
19535SOL    HW260027   0.893   4.891   2.903  1.6434  0.3081  0.8730
19536SOL     OW60028   0.835   7.955   7.747 -0.8966  0.0484  0.3054
19536SOL    HW160029   0.886   8.018   7.695  0.2410  0.1755  1.5351
19536SOL    HW260030   0.868   7.965   7.836 -2.8433 -0.1286  1.0894
19537SOL     OW60031   6.522   7.748   4.562 -0.3103 -0.3728  0.6540
19537SOL    HW160032   6.570   7.780   4.486 -0.2606 -1.3420  0.2621
19537SOL    HW260033   6.493   7.827   4.607 -0.3778  0.2207 -0.3924
19538SOL     OW60034   8.634   9.212   7.914 -0.2020  0.2545  0.2347
19538SOL    HW160035   8.663   9.125   7.886  0.7304  0.1526  1.4293
19538SOL    HW260036   8.660   9.270   7.843  1.5657 -0.0842  0.5566
19539SOL     OW60037   7.483   2.034   4.134  0.2976 -0.2959 -0.4319
19539SOL    HW160038   7.498   2.086   4.055 -1.3242  0.5881 -0.1988
19539SOL    HW260039   7.557   2.055   4.191 -0.6108  2.2497 -0.1105
19540SOL     OW60040   0.506   0.954   7.776 -0.5817  0.2029 -0.7763
19540SOL    HW160041   0.517   0.957   7.681  1.9477  2.2274 -0.5344
19540SOL    HW260042   0.411   0.945   7.789 -0.9224 -1.0556 -3.4365
19541SOL     OW60043   5.562   2.089   1.627  0.2624  0.3514  0.1273
19541SOL    HW160044   5.587   2.114   1.716 -0.1002  0.0924  0.3031
19541SOL    HW260045   5.540   2.172   1.585  0.3599  0.4666  0.2989
19542SOL     OW60046   9.073   2.560   3.028 -0.3918 -0.4508 -0.1621
19542SOL    HW160047   9.124   2.581   3.107  1.6885  0.5211 -1.6505
19542SOL    HW260048   9.085   2.466   3.016 -0.6006 -0.5810  0.5910
19543SOL     OW60049   4.343   7.488   6.790  0.1130 -0.2185  0.2181
19543SOL    HW160050   4.326   7.561   6.730  1.7648  0.6143  0.7191
19543SOL    HW260051   4.325   7.409   6.738 -0.8301  0.5157 -0.6056
19544SOL     OW60052   6.067   3.519   5.034  0.2312  0.4190  0.0686
19544SOL    HW160053   6.075   3.544   5.126  0.9061 -0.4667  0.2673
19544SOL    HW260054   6.088   3.599   4.986  0.8783  0.6273  0.6782
19545SOL     OW60055   0.022   4.830   3.759 -0.0919  0.0417  0.4238
19545SOL    HW160056  -0.048   4.876   3.712  1.1588  1.7506  0.1112
19545SOL    HW260057  -0.021   4.795   3.837 -1.4743  0.2342 -0.2103
19546SOL     OW60058   0.112   2.055   7.816  0.4791 -0.4076 -0.3506
19546SOL    HW160059   0.023   2.079   7.789 -0.0957 -1.6666  0.3538
19546SOL    HW260060   0.100   1.984   7.879  2.0244 -1.1738 -0.8741
19547SOL     OW60061   1.133   8.123   0.869 -0.0635 -0.3609 -0.0191
19547SOL    HW160062   1.180   8.124   0.786  0.1753  2.1743  0.0464
19547SOL    HW260063   1.152   8.209   0.908 -2.8373 -0.1398  1.0936
19548SOL     OW60064   4.359   5.110   7.289 -0.1231  0.4591 -0.1235
19548SOL    HW160065   4.288   5.153   7.336 -0.5139  1.1906 -1.3366
19548SOL    HW260066   4.315   5.058   7.221  0.4677  0.3705 -0.4485
19549SOL     OW60067   9.189   7.199   7.558  0.1551 -0.0022  0.2644
19549SOL    HW160068   9.247   7.238   7.624 -4.0480  2.0535  3.1791
19549SOL    HW260069   9.156   7.273   7.508 -0.3080 -1.0570 -1.0634
19550SOL     OW60070   6.609   7.742   3.058 -0.6196 -0.3428 -0.1930
19550SOL    HW160071   6.605   7.665   3.115  0.2079  0.0720  0.4452
19550SOL    HW260072   6.619   7.816   3.118 -1.0165  0.2308 -0.8165
19551SOL     OW60073   8.706   8.415   3.142  0.1269  0.8476  0.6769
19551SOL    HW160074   8.643   8.344   3.147 -1.9610  2.5326 -0.1612
19551SOL    HW260075   8.783   8.383   3.189 -0.6711 -1.9549  0.2250
19552SOL     OW60076   6.535   5.746   9.184  0.4856  0.4227 -0.5304
19552SOL    HW160077   6.497   5.833   9.196  0.0059  0.2729 -0.9132
19552SOL    HW260078   6.511   5.698   9.263 -1.2452 -0.0600 -1.2903
19553SOL     OW60079   6.073   8.315   6.055 -0.3859 -0.3338 -0.6437
19553SOL    HW160080   5.994   8.356   6.088 -0.2273 -0.3847 -0.2006
19553SOL    HW260081   6.073   8.334   5.961 -1.8531 -1.8528 -0.9921
19554SOL     OW60082   0.149   4.116   0.313 -0.4883 -0.1696  0.2018
19554SOL    HW160083   0.092   4.053   0.357  0.3865 -2.6142 -1.9240
19554SOL    HW260084   0.100   4.143   0.235 -0.1161  0.4147  0.1613
19555SOL     OW60085   6.439   6.900   7.663  0.2395 -0.2164 -0.3805
19555SOL    HW160086   6.396   6.971   7.710 -0.1336 -1.6490  1.5604
19555SOL    HW260087   6.513   6.942   7.618 -2.1160  2.0018 -2.4730
19556SOL     OW60088   5.007   3.494   9.059 -0.4795 -0.1257  0.5033
19556SOL    HW160089   4.986   3.440   8.982  0.3824  0.5480 -0.2256
19556SOL    HW260090   4.922   3.507   9.103 -1.1912  0.3729 -0.9388
19557SOL     OW60091   4.906   7.740   9.154  0.6961 -0.4576  0.4587
19557SOL    HW160092   4.942   7.661   9.195  0.0548 -1.1815 -0.3476
19557SOL    HW260093   4.823   7.712   9.116  0.6756  0.5005 -0.2469
19558SOL     OW60094   1.797   4.470   8.189  0.2353 -0.9091 -0.0501
19558SOL    HW160095   1.727   4.405   8.187 -1.4817  0.7706  1.2812
19558SOL    HW260096   1.790   4.511   8.275  0.4382  1.8221 -1.2085
19559SOL     OW60097   1.328   3.161   4.719  0.1994  0.2149  0.5789
19559SOL    HW160098   1.279   3.082   4.697  1.8888 -0.4054 -1.2203
19559SOL    HW260099   1.381   3.135   4.795  1.5159 -0.7909 -0.6177
19560SOL     OW60100   7.855   6.705   7.817  0.3582  0.2466  0.2739
19560SOL    HW160101   7.937   6.687   7.862  1.9236 -0.6622 -2.6601
19560SOL    HW260102   7.795   6.638   7.849  1.7053 -0.9837  0.3117
19561SOL     OW60103   5.563   8.916   3.157  0.0378 -0.0152 -0.1258
19561SOL    HW160104   5.529   8.892   3.244 -1.9302 -0.6281 -1.0084
19561SOL    HW260105   5.627   8.985   3.175 -0.1016 -0.3298  1.8381
19562SOL     OW60106   2.661   6.687   1.511  0.5783  0.3597  0.1807
19562SOL    HW160107   2.707   6.603   1.513 -0.4588 -0.2088  0.9053
19562SOL    HW260108   2.672   6.718   1.421  3.5296  0.9359  0.6451
19563SOL     OW60109   9.091   6.232   5.838  0.5191  0.4700  0.2941
19563SOL    HW160110   8.998   6.226   5.817  0.5617  0.3942  0.1174
19563SOL    HW260111   9.135   6.221   5.753  0.7219 -0.4169  0.4996
19564SOL     OW60112   1.623   5.190   4.957 -0.5723 -0.4200  0.4928
19564SOL    HW160113   1.551   5.126   4.956 -0.6001 -0.3887  0.4457
19564SOL    HW260114   1.702   5.137   4.956 -0.5858 -0.4479 -1.0973
19565SOL     OW60115   8.355   6.381   0.407 -0.1619  0.2986 -0.2442
19565SOL    HW160116   8.410   6.427   0.344  0.3358  0.6349  0.4244
19565SOL    HW260117   8.412   6.363   0.481 -0.2478 -1.7602 -0.6304
19566SOL     OW60118   6.989   2.633   2.434 -0.5408  0.5370 -0.8693
19566SOL    HW160119   6.939   2.622   2.353  2.2246  1.1032 -2.7694
19566SOL    HW260120   7.047   2.557   2.437  0.6810  1.4617 -0.4263
19567SOL     OW60121   6.830   0.007   2.461  0.0038 -0.5207 -0.2701
19567SOL    HW160122   6.910   0.035   2.505  0.8250 -1.5544 -1.0659
19567SOL    HW260123   6.854  -0.001   2.369 -0.9147 -1.1746 -0.4695
19568SOL     OW60124   2.414   3.415   0.693  0.0185 -0.6733 -0.0796
19568SOL    HW160125   2.476   3.484   0.670  0.6870 -0.2761  2.5090
19568SOL    HW260126   2.383   3.381   0.609  1.2901  1.3023 -1.4435
19569SOL     OW60127   4.205   6.672   5.191 -0.1854 -0.0051 -0.4295
19569SOL    HW160128   4.219   6.580   5.169  0.4704  0.1900 -0.8895
19569SOL    HW260129   4.151   6.671   5.269 -1.8951 -0.7558 -1.5689
19570SOL     OW60130   7.959   4.570   3.183 -0.2689  0.2187  0.0163
19570SOL    HW160131   7.897   4.634   3.148  0.5780  0.9042 -0.2654
19570SOL    HW260132   8.037   4.579   3.127 -0.0024 -0.7899  0.2099
19571SOL     OW60133   5.174   3.027   7.004 -0.0230  0.4530 -0.0350
19571SOL    HW160134   5.168   2.997   7.095  0.2439 -1.3723 -0.5672
19571SOL    HW260135   5.120   2.965   6.956  0.3156  1.0457 -1.2013
19572SOL     OW60136   4.751   2.810   0.823 -0.4001  0.0529  0.0646
19572SOL    HW160137   4.728   2.821   0.916 -0.3071 -0.0284  0.0980
19572SOL    HW260138   4.702   2.733   0.795 -0.1778 -0.1158  0.1339
19573SOL     OW60139   4.281   7.976   3.008 -0.3278  0.4884  0.4235
19573SOL    HW160140   4.188   7.988   3.029 -0.2668  1.0966  0.3589
19573SOL    HW260141   4.306   7.897   3.055 -1.2087 -0.4344 -0.5811
19574SOL     OW60142   3.111   2.755   5.570  0.4275 -0.7237  0.1590
19574SOL    HW160143   3.070   2.763   5.656 -0.0060 -1.9984  0.0808
19574SOL    HW260144   3.205   2.746   5.588  0.7265  1.8947  0.3517
19575SOL     OW60145   7.241   3.493   7.277  0.1876 -0.5063  0.5806
19575SOL    HW160146   7.284   3.503   7.362  0.8330  0.5975  0.1541
19575SOL    HW260147   7.289   3.554   7.219 -1.0693 -0.2789 -0.2534
19576SOL     OW60148   5.341   3.963   5.517  0.2692 -0.4147  0.1293
19576SOL    HW160149   5.396   4.039   5.539 -3.4136  2.2654  1.1022
19576SOL    HW260150   5.277   3.959   5.588 -0.9826 -3.1630 -1.0260
19577SOL     OW60151   4.772   1.481   2.986  0.7689  0.0299 -0.5881
19577SOL    HW160152   4.783   1.514   2.896  2.2374  2.8222  0.4866
19577SOL    HW260153   4.825   1.540   3.039 -1.1156 -0.7046  2.2980
19578SOL     OW60154   4.410   1.550   4.644  0.5199  0.8767  0.1383
19578SOL    HW160155   4.445   1.631   4.681 -0.1963  1.1896  0.1453
19578SOL    HW260156   4.324   1.540   4.685  1.5272 -1.1538  1.9754
19579SOL     OW60157   6.989   2.149   5.308  0.4611 -0.2799 -0.4239
19579SOL    HW160158   7.002   2.060   5.339  1.3195  0.4525  1.4983
19579SOL    HW260159   7.074   2.191   5.320  0.5881  0.3765 -2.9503
19580SOL     OW60160   5.239   3.764   6.748 -0.4380  0.9476  0.0651
19580SOL    HW160161   5.239   3.805   6.835 -0.7452  1.2243 -0.0643
19580SOL    HW260162   5.229   3.836   6.687  0.7099  0.8557 -0.2596
19581SOL     OW60163   5.038   5.745   8.862 -0.3580 -0.5554  0.5345
19581SOL    HW160164   4.948   5.744   8.830 -0.6787 -1.8043  1.3742
19581SOL    HW260165   5.092   5.739   8.784 -1.0529 -1.0032  0.0781
19582SOL     OW60166   8.065   0.247   6.581  0.4474  0.0618 -0.1605
19582SOL    HW160167   8.120   0.177   6.545  0.6206 -0.3691  0.9171
19582SOL    HW260168   8.006   0.270   6.509  1.4020 -0.1271 -1.0254
19583SOL     OW60169   0.738   6.322   0.071 -0.1466  0.1506 -0.0064
19583SOL    HW160170   0.657   6.338   0.118  0.6080  0.2628  1.2866
19583SOL    HW260171   0.733   6.381  -0.005  0.5151  3.2991  2.2067
19584SOL     OW60172   0.857   7.858   6.352  0.4102 -0.0312  0.4985
19584SOL    HW160173   0.946   7.883   6.377  0.4314  0.3081  0.0935
19584SOL    HW260174   0.830   7.795   6.419  2.0891 -2.4672 -0.9612
19585SOL     OW60175   6.129   1.393   7.950 -0.1161 -0.0998 -0.6393
19585SOL    HW160176   6.113   1.348   7.866 -0.9328  1.3583 -1.3053
19585SOL    HW260177   6.224   1.400   7.955 -0.0669  1.1791 -2.2664
19586SOL     OW60178   4.690   5.584   1.681  0.1380  0.1408 -0.7696
19586SOL    HW160179   4.639   5.590   1.761  0.5369  1.2776 -0.5808
19586SOL    HW260180   4.634   5.624   1.614 -1.0520 -2.6257 -1.5375
19587SOL     OW60181   4.852   3.565   6.356  0.6376  0.4896  0.0873
19587SOL    HW160182   4.887   3.518   6.432  1.2439 -0.3578 -0.6936
19587SOL    HW260183   4.919   3.556   6.289 -0.5843 -0.2081 -1.0887
19588SOL     OW60184   0.821   8.589   8.196 -0.5477 -0.3459 -0.4067
19588SOL    HW160185   0.876   8.609   8.121 -2.2649  0.3821 -1.5283
19588SOL    HW260186   0.743   8.548   8.158 -0.1835 -2.8189  1.2491
19589SOL     OW60187   1.121   3.087   0.637 -0.1716 -0.0838 -0.1861
19589SOL    HW160188   1.152   3.038   0.561 -0.6618 -0.1197 -0.3710
19589SOL    HW260189   1.046   3.137   0.604 -1.2529 -1.1541  0.5768
19590SOL     OW60190   0.922   1.304   3.849  0.5453  0.8160 -0.0985
19590SOL    HW160191   0.875   1.374   3.805 -2.0404 -0.3022  0.6938
19590SOL    HW260192   0.965   1.347   3.923 -2.5108  1.4368  1.4859
19591SOL     OW60193   8.101   7.091   8.366 -0.0779  0.7715  0.1387
19591SOL    HW160194   8.121   7.011   8.317 -1.8714  0.4099 -0.0546
19591SOL    HW260195   8.109   7.065   8.458  1.9557  1.1007  0.1049
19592SOL     OW60196   5.990   4.619   0.329 -0.1184 -0.2857  0.2901
19592SOL    HW160197   6.013   4.581   0.414  0.9313 -2.1100 -0.7360
19592SOL    HW260198   5.959   4.544   0.277 -0.8590  0.8059 -0.9070
19593SOL     OW60199   4.193   2.702   3.910 -0.1196 -0.0961  0.1578
19593SOL    HW160200   4.161   2.734   3.826  2.1643 -1.7111 -1.4372
19593SOL    HW260201   4.239   2.621   3.889  2.1500  0.4078  2.6933
19594SOL     OW60202   4.173   7.093   6.884  0.0340 -0.1939 -0.3987
19594SOL    HW160203   4.107   7.160   6.864  1.5426  1.1377 -1.1694
19594SOL    HW260204   4.162   7.078   6.978 -2.3087 -1.1257 -0.7439
19595SOL     OW60205   7.205   2.526   0.317 -0.3126  0.2483 -0.7641
19595SOL    HW160206   7.175   2.443   0.354  1.4917 -0.6376 -1.1764
19595SOL    HW260207   7.127   2.581   0.315 -1.0108 -0.5266  1.9136
19596SOL     OW60208   4.031   8.019   3.120  0.2702  0.0140 -0.3861
19596SOL    HW160209   3.955   7.964   3.100 -0.3922 -0.7820  3.5058
19596SOL    HW260210   3.997   8.108   3.122 -0.8162 -0.3689  1.7195
19597SOL     OW60211   1.213   8.002   2.556 -0.0838 -0.6602 -0.3631
19597SOL    HW160212   1.292   8.052   2.575 -1.0185  0.2687  1.4032
19597SOL    HW260213   1.141   8.063   2.576 -1.2432 -1.6041 -1.5216
19598SOL     OW60214   4.960   7.476   6.981  0.2002  0.4689 -0.0938
19598SOL    HW160215   4.965   7.544   6.914 -0.0487 -1.2364 -1.9457
19598SOL    HW260216   4.931   7.398   6.934 -0.8247 -0.6257  2.1807
19599SOL     OW60217   9.155   6.289   1.694  0.0583  0.0978  0.0888
19599SOL    HW160218   9.231   6.292   1.753 -1.0097 -2.3164  1.7338
19599SOL    HW260219   9.163   6.205   1.648 -1.3042  0.0733 -0.1531
19600SOL     OW60220   0.256   4.862   6.429  0.1812  0.1119 -0.8586
19600SOL    HW160221   0.274   4.835   6.338  0.8834  1.6096 -1.2020
19600SOL    HW260222   0.300   4.947   6.437  1.8358 -0.8677  1.5041
19601SOL     OW60223   7.028   7.021   6.762  0.2064 -0.4860 -0.5875
19601SOL    HW160224   6.968   7.073   6.816  0.2946 -0.7285 -0.2561
19601SOL    HW260225   6.980   6.941   6.743 -0.8032  0.5576 -2.9112
19602SOL     OW60226   8.226   0.032   7.114  0.5315 -0.3330 -0.0302
19602SOL    HW160227   8.304   0.048   7.061  0.2618  1.4298  0.0420
19602SOL    HW260228   8.154   0.029   7.051  0.2283  1.6317  0.1643
19603SOL     OW60229   8.336   4.954   7.601 -0.3767 -0.1763 -0.5590
19603SOL    HW160230   8.400   4.940   7.531 -1.3341  0.0061 -1.5046
19603SOL    HW260231   8.309   4.866   7.627  0.2639 -0.2527 -0.1451
19604SOL     OW60232   6.486   6.790   7.264  0.4448  0.4542 -0.1360
19604SOL    HW160233   6.453   6.714   7.312  0.4928 -0.8132 -2.0084
19604SOL    HW260234   6.573   6.805   7.300  0.2647 -0.0789  0.5485
19605SOL     OW60235   1.167   8.914   6.406  0.1815  0.3156  0.3334
19605SOL    HW160236   1.221   8.875   6.475  1.0870  1.7994  0.5094
19605SOL    HW260237   1.101   8.964   6.453 -1.2212 -1.2615  0.1138
19606SOL     OW60238   6.499   4.494   6.763 -0.3918 -0.3605  0.0458
19606SOL    HW160239   6.423   4.475   6.818 -1.0559 -1.8581 -1.3091
19606SOL    HW260240   6.487   4.585   6.736 -1.1625 -0.2677  0.6663
19607SOL     OW60241   5.340   1.964   5.156 -0.5275  0.2747 -0.1285
19607SOL    HW160242   5.349   2.036   5.093 -1.4616  1.1327  0.6720
19607SOL    HW260243   5.352   1.885   5.104  1.3121  0.9950 -0.9095
19608SOL     OW60244   5.224   7.757   6.953  0.1277  0.1603  0.2246
19608SOL    HW160245   5.175   7.813   7.013  1.7172  1.5767  0.2878
19608SOL    HW260246   5.298   7.726   7.004 -1.1747 -2.8408  0.4621
19609SOL     OW60247   7.926   0.724   8.677 -0.7818  0.2080 -0.1397
19609SOL    HW160248   7.980   0.650   8.706  0.2297  0.5649 -1.0251
19609SOL    HW260249   7.989   0.795   8.662 -1.3896  0.4454 -1.8340
19610SOL     OW60250   6.016   1.707   8.967 -0.3308 -0.8810 -0.3541
19610SOL    HW160251   5.943   1.690   9.027  1.6682  0.2506  2.6219
19610SOL    HW260252   6.065   1.777   9.009  0.6916  0.7442 -3.9248
19611SOL     OW60253   7.879   2.567   1.055 -0.7299 -0.2512  0.4674
19611SOL    HW160254   7.971   2.586   1.074 -0.3580 -0.4804 -0.9715
19611SOL    HW260255   7.830   2.640   1.093 -0.1954 -1.2542  3.2802
19612SOL     OW60256   3.754   6.046   3.195 -0.2426  0.2285 -0.1181
19612SOL    HW160257   3.758   6.045   3.291 -0.3319  1.5145 -0.0810
19612SOL    HW260258   3.826   5.989   3.168  1.9889  2.4235  0.7390
19613SOL     OW60259   7.652   8.423   7.547 -0.1240 -0.0489 -0.3965
19613SOL    HW160260   7.676   8.332   7.564  0.6995 -0.4282 -3.0908
19613SOL    HW260261   7.727   8.475   7.577 -0.1409 -0.3288  0.1435
19614SOL     OW60262   0.863   1.608   7.073  0.4977 -0.4532  0.0316
19614SOL    HW160263   0.905   1.533   7.030  2.2033  1.1535 -1.3175
19614SOL    HW260264   0.916   1.623   7.151  0.0849 -0.6990  0.3635
19615SOL     OW60265   6.466   0.984   8.559  0.3258 -0.0656 -0.2885
19615SOL    HW160266   6.477   0.895   8.593  1.6641  0.7868  1.7513
19615SOL    HW260267   6.384   1.014   8.598  0.4397 -0.0433 -0.0615
19616SOL     OW60268   5.185   7.362   7.812  0.1029  0.1353 -0.0604
19616SOL    HW160269   5.164   7.428   7.746 -1.7643  0.3505  0.6855
19616SOL    HW260270   5.177   7.279   7.766 -0.0640  0.3277 -0.3858
19617SOL     OW60271   8.456   5.001   2.142  0.1738  0.2838 -0.6772
19617SOL    HW160272   8.493   5.052   2.071 -0.0639  0.1141 -0.9257
19617SOL    HW260273   8.461   5.058   2.218 -0.6429  0.9042 -1.0797
19618SOL     OW60274   8.201   1.025   8.795 -0.3589  0.2779  0.2410
19618SOL    HW160275   8.181   0.955   8.858  0.4769  0.8893  1.2165
19618SOL    HW260276   8.250   1.089   8.846  3.7838 -0.9450 -1.8458
19619SOL     OW60277   4.826   5.709   8.015  0.1424 -0.1763  0.3915
19619SOL    HW160278   4.747   5.761   8.033  0.7737  0.7617  0.5519
19619SOL    HW260279   4.808   5.623   8.054 -0.5747  0.2096  0.9378
19620SOL     OW60280   0.431   6.028   7.648  0.2419  0.0961 -0.3263
19620SOL    HW160281   0.510   6.032   7.594  1.4081 -2.3922  1.0289
19620SOL    HW260282   0.362   6.004   7.587  0.7468  1.0881 -1.3328
19621SOL     OW60283   4.330   6.281   3.472  0.3733 -0.0690 -0.0349
19621SOL    HW160284   4.403   6.275   3.534 -1.2338  1.4084  2.1280
19621SOL    HW260285   4.290   6.194   3.472  1.9176 -0.8424 -1.0981
19622SOL     OW60286   3.992   0.239   2.833  0.3607  0.1995 -0.6718
19622SOL    HW160287   4.021   0.327   2.859 -0.6421  0.4532 -0.3242
19622SOL    HW260288   3.976   0.245   2.739  1.3066  0.0820 -0.8464
19623SOL     OW60289   2.063   0.825   2.047  0.3636 -0.0185 -0.1991
19623SOL    HW160290   2.073   0.870   2.131  0.7811  1.0868 -0.8216
19623SOL    HW260291   2.065   0.732   2.069  1.9281  0.2323  0.8611
19624SOL     OW60292   4.249   0.305   8.150 -0.1395  0.5662  0.5054
19624SOL    HW160293   4.334   0.345   8.134 -0.3164  0.5305 -0.6239
19624SOL    HW260294   4.269   0.223   8.193  0.4861  0.0590 -0.6956
19625SOL     OW60295   6.299   4.344   1.544 -0.3429 -0.1178  0.6712
19625SOL    HW160296   6.274   4.256   1.570  1.7210 -0.7872  0.5597
19625SOL    HW260297   6.251   4.359   1.462 -0.4991 -1.2484  0.5438
19626SOL     OW60298   2.982   4.766   4.203  0.0570  0.3593 -0.3031
19626SOL    HW160299   3.020   4.773   4.115  2.1978  1.1485  0.6153
19626SOL    HW260300   2.975   4.857   4.233  0.1329  0.0539  0.6524
19627SOL     OW60301   7.880   0.887   7.165  0.7157  0.7040  0.0458
19627SOL    HW160302   7.806   0.848   7.118  1.4946  0.4370 -0.9842
19627SOL    HW260303   7.885   0.837   7.247  1.5500 -1.2808 -1.1334
19628SOL     OW60304   7.397   6.290   8.102  0.3702  0.6232 -0.0526
19628SOL    HW160305   7.370   6.329   8.019  0.4399 -0.3116 -0.5346
19628SOL    HW260306   7.339   6.329   8.167  0.6556  1.7567 -0.4514
19629SOL     OW60307   4.184   2.020   7.880  0.3194 -0.6472 -0.0401
19629SOL    HW160308   4.233   1.944   7.846 -0.4707 -0.7054 -1.0929
19629SOL    HW260309   4.137   2.054   7.804 -0.3827  0.1006  0.7148
19630SOL     OW60310   4.639   7.342   7.783  0.0638  0.3314  0.2682
19630SOL    HW160311   4.696   7.418   7.787  0.8452 -0.2291  0.1243
19630SOL    HW260312   4.638   7.317   7.691  1.1769 -0.8096  0.5320
19631SOL     OW60313   7.881   6.172   3.142  0.0932 -0.3695 -0.7645
19631SOL    HW160314   7.870   6.194   3.235  0.4635  2.2745 -1.2557
19631SOL    HW260315   7.949   6.104   3.142 -0.0473 -0.5688  0.8895
19632SOL     OW60316   6.509   1.404   9.213 -0.1940  0.1164 -0.5765
19632SOL    HW160317   6.438   1.340   9.216 -0.9700  0.9758  1.2528
19632SOL    HW260318   6.586   1.356   9.246 -0.9331  0.2309  1.4953
19633SOL     OW60319   0.067   6.619   7.690  0.5023 -0.4469 -0.3211
19633SOL    HW160320   0.087   6.707   7.658 -0.9492  1.0824  2.5717
19633SOL    HW260321   0.151   6.587   7.725  0.8065  0.2666 -0.3797
19634SOL     OW60322   8.997   5.772   6.612 -0.2262 -0.1815 -0.2248
19634SOL    HW160323   9.021   5.855   6.570  0.6598  0.0001  0.5910
19634SOL    HW260324   9.045   5.705   6.563  1.4778  0.1097  0.9519
19635SOL     OW60325   8.156   7.952   4.047  0.5392  0.2177  0.8473
19635SOL    HW160326   8.148   8.040   4.009 -0.8374  1.2691  3.3149
19635SOL    HW260327   8.142   7.893   3.973 -1.0481  2.1034 -0.4824
19636SOL     OW60328   1.106   3.288   5.007 -0.0192  0.1608 -0.0029
19636SOL    HW160329   1.108   3.213   4.947  0.0766  0.4597 -0.3748
19636SOL    HW260330   1.196   3.319   5.009  0.1244 -0.2880  0.8606
19637SOL     OW60331   6.350   0.116   6.057 -0.0686 -0.2628  0.1359
19637SOL    HW160332   6.305   0.057   5.996 -0.6526  1.3426 -1.0668
19637SOL    HW260333   6.308   0.201   6.044  0.8642  0.4832  1.6715
19638SOL     OW60334   3.216   2.024   5.475 -0.0101  0.0505 -0.2595
19638SOL    HW160335   3.124   1.997   5.475  0.3406 -1.2449  1.1392
19638SOL    HW260336   3.249   1.995   5.390 -0.1717 -2.1777  0.3774
19639SOL     OW60337   2.259   4.423   2.066  0.2175 -0.7420 -0.6044
19639SOL    HW160338   2.296   4.491   2.010 -1.6731  1.0208  0.1832
19639SOL    HW260339   2.294   4.441   2.153 -1.2903  0.0895 -0.1342
19640SOL     OW60340   5.637   1.010   2.407  0.0375 -0.1104  0.2206
19640SOL    HW160341   5.560   1.034   2.458  1.9586  2.7112  2.0744
19640SOL    HW260342   5.676   0.937   2.454 -1.0691 -1.0978 -0.3464
19641SOL     OW60343   8.709   3.247   6.692 -0.4094  0.5266 -0.1315
19641SOL    HW160344   8.636   3.195   6.725 -0.2915  0.7794  0.5457
19641SOL    HW260345   8.787   3.201   6.724 -0.3103  1.4303  1.0001
19642SOL     OW60346   5.826   2.501   3.890 -0.5844  0.0634  0.4426
19642SOL    HW160347   5.841   2.528   3.800 -0.9808 -2.7786 -0.5507
19642SOL    HW260348   5.744   2.545   3.914 -1.0117  0.0563 -0.9310
19643SOL     OW60349   0.006   3.876   6.153 -0.1076  0.2394 -0.4987
19643SOL    HW160350   0.036   3.967   6.154  0.2674  0.1180 -0.4500
19643SOL    HW260351   0.079   3.827   6.191 -0.1726 -0.1209 -0.8347
19644SOL     OW60352   3.997   7.143   7.884  0.3352  0.3803  0.3603
19644SOL    HW160353   4.037   7.230   7.876  0.2645  0.4235  0.4588
19644SOL    HW260354   3.913   7.160   7.927  0.7804  0.1463  1.3580
19645SOL     OW60355   8.265   5.999   8.777  0.5646 -0.3762  0.3717
19645SOL    HW160356   8.330   6.028   8.840  0.9631 -0.6807  0.1117
19645SOL    HW260357   8.270   5.903   8.780  0.4410 -0.3962  0.0358
19646SOL     OW60358   3.188   4.119   1.692 -0.4299 -0.3814 -0.2776
19646SOL    HW160359   3.205   4.199   1.742  3.1535 -0.8570 -0.4517
19646SOL    HW260360   3.209   4.048   1.753 -2.8938 -1.2790 -0.3477
19647SOL     OW60361   1.164   5.311   0.518 -0.1749 -0.4846 -0.0856
19647SOL    HW160362   1.230   5.334   0.583  0.1345  0.7526 -0.8129
19647SOL    HW260363   1.194   5.352   0.437 -1.4688 -0.5000 -0.5991
19648SOL     OW60364   4.176   4.249   2.603  0.8551  0.0939  0.4103
19648SOL    HW160365   4.151   4.199   2.681  0.3606 -0.5086 -0.1171
19648SOL    HW260366   4.103   4.235   2.543  1.3203  0.4014 -0.2249
19649SOL     OW60367   2.151   4.731   7.499  0.8508 -0.0830 -0.4089
19649SOL    HW160368   2.134   4.651   7.548  0.1914 -0.8184 -1.7722
19649SOL    HW260369   2.228   4.711   7.446  0.3097 -0.0591 -1.2308
19650SOL     OW60370   6.760   1.461   2.820 -0.2622  0.0864 -0.5975
19650SOL    HW160371   6.780   1.381   2.770 -0.6104  0.4173 -1.2802
19650SOL    HW260372   6.843   1.509   2.822 -0.4351  0.4422 -1.5532
19651SOL     OW60373   8.113   1.184   5.545  0.5025 -0.3612 -0.3559
19651SOL    HW160374   8.105   1.279   5.541  1.0357 -0.3238 -0.5180
19651SOL    HW260375   8.205   1.168   5.563  0.4467 -0.8558 -0.4953
19652SOL     OW60376   4.299   9.262   2.378 -0.2950 -0.1920  0.5753
19652SOL    HW160377   4.263   9.349   2.365  1.0998  0.1686 -1.1636
19652SOL    HW260378   4.375   9.275   2.434 -0.5868 -0.4278  1.0358
19653SOL     OW60379   5.927   2.317   5.698 -0.1170  0.1758 -0.0885
19653SOL    HW160380   6.010   2.363   5.685 -0.2082  0.4683  0.3269
19653SOL    HW260381   5.860   2.385   5.686 -0.1862  0.6834  2.6173
19654SOL     OW60382   8.417   7.875   5.741 -0.0870 -0.1496  0.3972
19654SOL    HW160383   8.458   7.919   5.666  1.4970 -1.3031  0.5256
19654SOL    HW260384   8.349   7.936   5.770 -0.1057  0.7529 -1.3728
19655SOL     OW60385   4.706   4.689   0.071 -0.2526  0.0709 -0.4401
19655SOL    HW160386   4.787   4.706   0.023 -1.2474 -0.5030 -2.4674
19655SOL    HW260387   4.639   4.739   0.024 -1.5443 -1.6884 -0.6219
19656SOL     OW60388   5.382   0.303   1.498  0.1427  0.0054 -0.1223
19656SOL    HW160389   5.347   0.263   1.578 -1.0986  0.3819 -0.4613
19656SOL    HW260390   5.397   0.229   1.439 -2.0033 -0.0399 -0.6904
19657SOL     OW60391   5.120   0.354   2.765  0.1175  0.0150 -0.1582
19657SOL    HW160392   5.114   0.434   2.816  0.3958 -0.5716  0.8171
19657SOL    HW260393   5.163   0.291   2.822 -0.1313 -0.8504 -0.8834
19658SOL     OW60394   2.754   9.041   7.719  0.3529  0.1269  0.0679
19658SOL    HW160395   2.710   9.039   7.634 -0.3430  1.3330  0.3669
19658SOL    HW260396   2.729   9.126   7.756 -0.8722 -1.0977  2.2552
19659SOL     OW60397   6.142   2.016   9.193 -0.1928  0.1625  0.2315
19659SOL    HW160398   6.159   1.989   9.103 -1.8239  1.2443 -0.4667
19659SOL    HW260399   6.074   1.956   9.224 -0.9800  0.9381  0.0560
19660SOL     OW60400   7.297   6.683   4.372 -0.6815 -0.0341 -0.3329
19660SOL    HW160401   7.321   6.765   4.329 -0.5057 -0.4255 -1.0026
19660SOL    HW260402   7.214   6.702   4.417  0.1901  0.9702  0.9300
19661SOL     OW60403   7.569   2.102   5.198 -0.1242 -0.6769  0.2242
19661SOL    HW160404   7.528   2.115   5.112 -0.7231  0.5964  0.6705
19661SOL    HW260405   7.625   2.179   5.210  1.1146 -1.5662  0.3624
19662SOL     OW60406   0.239   6.804   1.782 -0.5393 -0.2389  0.3093
19662SOL    HW160407   0.200   6.725   1.746  0.8966 -0.7026 -0.3000
19662SOL    HW260408   0.332   6.797   1.761 -0.4368  1.8619 -0.2368
19663SOL     OW60409   0.656   6.658   4.226 -0.1550  0.2087  0.0513
19663SOL    HW160410   0.724   6.725   4.225  1.1598 -1.0733 -0.1527
19663SOL    HW260411   0.574   6.706   4.237  0.7818  1.7940  0.3011
19664SOL     OW60412   7.543   6.805   2.034 -0.2228 -0.2692 -0.0873
19664SOL    HW160413   7.565   6.892   2.067  0.9508 -0.4513 -0.3575
19664SOL    HW260414   7.492   6.821   1.955 -0.3172  0.1689  0.0618
19665SOL     OW60415   8.386   2.462   4.443  0.4478  0.1745 -0.5993
19665SOL    HW160416   8.380   2.399   4.515 -1.0811 -0.1755 -1.0062
19665SOL    HW260417   8.424   2.541   4.484 -0.3989 -0.0122  0.6098
19666SOL     OW60418   7.107   9.197   4.620  0.0583  0.4528  0.0225
19666SOL    HW160419   7.027   9.246   4.601 -1.8862 -2.5874 -0.3589
19666SOL    HW260420   7.129   9.222   4.710 -2.3940  0.1324  0.7960
19667SOL     OW60421   8.377   4.714   3.159  0.7101 -0.3294 -0.1886
19667SOL    HW160422   8.375   4.647   3.227  1.3758 -0.0279  0.1399
19667SOL    HW260423   8.458   4.763   3.175  0.3382  0.4301 -0.5408
19668SOL     OW60424   6.105   5.092   3.235 -0.1348  1.0351 -0.0666
19668SOL    HW160425   6.190   5.120   3.270 -0.5988  0.1546  1.9297
19668SOL    HW260426   6.099   5.135   3.150  1.7625  2.1154  0.2766
19669SOL     OW60427   6.773   7.040   1.419 -0.0260  0.1982 -0.1437
19669SOL    HW160428   6.851   7.080   1.458  0.1030 -0.4081  0.2348
19669SOL    HW260429   6.752   7.097   1.345  0.4817  0.6476  0.0467
19670SOL     OW60430   6.317   5.432   4.850 -0.6231 -0.4478 -0.4300
19670SOL    HW160431   6.352   5.356   4.895 -0.5683 -0.4599 -0.4930
19670SOL    HW260432   6.222   5.421   4.855 -0.6538  0.1748  0.7595
19671SOL     OW60433   5.812   8.595   1.639 -0.1636  0.0469  0.2086
19671SOL    HW160434   5.743   8.651   1.676  0.4725  0.9621  0.0636
19671SOL    HW260435   5.781   8.574   1.551 -0.2016  0.5805  0.0890
19672SOL     OW60436   1.331   4.526   0.853 -0.0709 -0.3479 -0.0236
19672SOL    HW160437   1.277   4.605   0.853  0.3796 -0.0356  0.4675
19672SOL    HW260438   1.420   4.558   0.844  0.0496 -0.8542 -0.7170
19673SOL     OW60439   7.127   6.529   5.746 -0.3359 -0.0106 -0.2624
19673SOL    HW160440   7.123   6.434   5.747 -0.7573  0.0130  0.1680
19673SOL    HW260441   7.158   6.550   5.657  1.5720 -0.6109  0.2078
19674SOL     OW60442   8.253   3.243   0.766 -0.2549 -0.3333  0.3717
19674SOL    HW160443   8.319   3.178   0.742  0.1465  0.7905 -1.7815
19674SOL    HW260444   8.197   3.250   0.689 -1.9125 -0.0309  1.5516
19675SOL     OW60445   0.402   7.968   6.933 -0.3130  0.2487 -0.2444
19675SOL    HW160446   0.370   7.961   7.023 -1.4781  0.3242 -0.6386
19675SOL    HW260447   0.497   7.954   6.940 -0.6614 -2.0686  0.7306
19676SOL     OW60448   4.094   4.574   4.577 -0.5890  0.4328 -0.0888
19676SOL    HW160449   4.109   4.502   4.638 -1.3532 -0.2836 -0.7262
19676SOL    HW260450   4.045   4.535   4.505 -0.8546  1.5530 -0.5379
19677SOL     OW60451   6.172   4.820   5.922 -0.1765  0.0594  0.4227
19677SOL    HW160452   6.125   4.779   5.995 -0.9085 -0.7641 -0.4927
19677SOL    HW260453   6.111   4.815   5.849  1.4120 -1.3024 -0.8884
19678SOL     OW60454   3.784   5.472   0.951 -0.3584  0.0536 -0.0389
19678SOL    HW160455   3.838   5.401   0.986  1.2904  0.5525 -1.4043
19678SOL    HW260456   3.697   5.434   0.942 -0.1841 -0.9441  1.7854
19679SOL     OW60457   8.293   6.327   4.954 -0.1208 -0.6206  0.4125
19679SOL    HW160458   8.203   6.315   4.984 -0.1051 -0.9039  0.3557
19679SOL    HW260459   8.296   6.281   4.869  0.5039 -2.0496  1.1733
19680SOL     OW60460   0.330   6.607   5.437 -0.5524 -0.6273 -0.1977
19680SOL    HW160461   0.353   6.517   5.461 -1.9858 -1.1070 -0.5194
19680SOL    HW260462   0.257   6.629   5.495  0.8147  0.9564  1.0269
19681SOL     OW60463   5.305   7.557   1.998  0.6011 -0.1296 -0.1350
19681SOL    HW160464   5.304   7.479   2.054  0.6594  0.2905  0.4685
19681SOL    HW260465   5.285   7.525   1.910  1.2394 -0.9092 -0.0042
19682SOL     OW60466   3.889   7.567   8.754  0.6244 -0.0323 -0.0837
19682SOL    HW160467   3.808   7.540   8.797  0.1342  1.0312 -0.2806
19682SOL    HW260468   3.924   7.636   8.810  1.8421 -1.0252  0.4240
19683SOL     OW60469   3.113   5.031   0.828 -0.7812  0.1004  0.0877
19683SOL    HW160470   3.094   5.024   0.922  0.5840  0.2352  0.3893
19683SOL    HW260471   3.045   5.089   0.794 -2.8371 -1.8981  0.4873
19684SOL     OW60472   0.762   6.436   2.565  0.7991  0.0825 -0.1080
19684SOL    HW160473   0.785   6.519   2.523  2.1140 -0.5577 -0.7090
19684SOL    HW260474   0.811   6.436   2.647  0.5482  0.0414  0.0429
19685SOL     OW60475   7.237   9.046   0.142  0.2674  0.4214 -0.2201
19685SOL    HW160476   7.264   9.078   0.056  1.1421 -2.4687 -1.1439
19685SOL    HW260477   7.169   8.981   0.123  0.0522  0.1608  1.3253
19686SOL     OW60478   4.110   5.537   0.087  0.3345 -0.2054 -0.0963
19686SOL    HW160479   4.071   5.604   0.143  0.0364  1.4027 -2.1304
19686SOL    HW260480   4.192   5.576   0.057 -0.3703 -0.2326 -2.1994
19687SOL     OW60481   3.053   6.626   3.888  0.0361 -0.8610 -0.3453
19687SOL    HW160482   3.059   6.532   3.904  0.4353 -0.8092 -0.1884
19687SOL    HW260483   3.045   6.633   3.793 -1.4210 -1.1211 -0.2681
19688SOL     OW60484   7.596   4.383   0.825 -0.4543  0.2672 -0.8825
19688SOL    HW160485   7.593   4.377   0.920 -1.5901 -0.0107 -0.9221
19688SOL    HW260486   7.640   4.467   0.808  1.8595 -0.7371 -0.1724
19689SOL     OW60487   1.450   9.239   0.803  0.0929 -0.6120  0.4270
19689SOL    HW160488   1.419   9.195   0.724 -0.2504 -2.9343  1.7669
19689SOL    HW260489   1.545   9.224   0.804  0.0637 -0.7938  0.5667
19690SOL     OW60490   9.011   4.104   1.022  0.0324  0.0171 -0.0937
19690SOL    HW160491   9.007   4.114   1.117  0.0549  0.3983 -0.1283
19690SOL    HW260492   8.986   4.013   1.006 -0.9533  0.2180  0.2159
19691SOL     OW60493   5.360   8.467   3.816  0.1349  0.3775  0.2736
19691SOL    HW160494   5.343   8.531   3.747  1.0352  0.0682 -0.2554
19691SOL    HW260495   5.276   8.425   3.832 -0.5006  1.7922  0.7311
19692SOL     OW60496   5.005   5.730   2.721 -0.0212 -0.4213 -0.7624
19692SOL    HW160497   5.056   5.798   2.765  0.3581 -1.3250  0.2322
19692SOL    HW260498   5.041   5.726   2.632  0.5463  0.0579 -0.5589
19693SOL     OW60499   6.207   0.858   4.388  0.3234  0.1179  0.4116
19693SOL    HW160500   6.260   0.901   4.321 -2.3149 -0.1216 -1.9820
19693SOL    HW260501   6.134   0.918   4.403 -1.0915 -1.5069  0.2791
19694SOL     OW60502   3.406   1.163   8.416 -0.1979 -0.2867  0.4494
19694SOL    HW160503   3.385   1.106   8.342  0.4329 -0.8581  0.6952
19694SOL    HW260504   3.500   1.177   8.410  0.2278 -1.9267  2.1988
19695SOL     OW60505   8.303   0.167   9.077  0.2153 -0.2253 -0.0213
19695SOL    HW160506   8.215   0.204   9.073  1.2705  2.3963 -1.9017
19695SOL    HW260507   8.321   0.158   9.170 -1.4993  0.5872  0.4331
19696SOL     OW60508   2.705   9.151   5.704 -0.4478 -0.5079  0.1579
19696SOL    HW160509   2.667   9.171   5.790 -0.7283 -0.7465  0.0908
19696SOL    HW260510   2.670   9.065   5.682  1.8170 -1.7355  1.0554
19697SOL     OW60511   7.489   2.067   6.808  0.2900 -0.0443 -0.3416
19697SOL    HW160512   7.406   2.038   6.845  0.6759 -1.6440 -0.6515
19697SOL    HW260513   7.470   2.153   6.770 -1.4143 -0.7041 -1.0903
19698SOL     OW60514   6.838   7.478   4.993  0.2157 -0.1545 -0.1638
19698SOL    HW160515   6.834   7.468   5.088  1.2545 -0.0010 -0.0945
19698SOL    HW260516   6.748   7.500   4.968 -0.2545 -1.0413  0.6714
19699SOL     OW60517   2.616   0.642   0.950  0.3094  0.1328  0.0108
19699SOL    HW160518   2.674   0.645   1.026  0.3935 -0.7580 -0.0031
19699SOL    HW260519   2.618   0.550   0.923  0.4246  0.4696 -1.1761
19700SOL     OW60520   0.097   9.041   0.279  0.1114 -0.1175 -0.6618
19700SOL    HW160521   0.191   9.022   0.279  0.2005  0.3233 -0.1428
19700SOL    HW260522   0.086   9.111   0.215  0.0808 -0.4205 -0.9927
19701SOL     OW60523   0.661   4.356   0.391 -0.2792  0.2200 -0.2004
19701SOL    HW160524   0.691   4.345   0.301 -1.9109 -0.3585 -0.7189
19701SOL    HW260525   0.601   4.431   0.386 -0.7115 -0.0888  0.3199
19702SOL     OW60526   7.325   0.457   1.083 -0.1741 -0.2459  0.3615
19702SOL    HW160527   7.349   0.484   1.171 -0.3222 -2.1900  1.0485
19702SOL    HW260528   7.238   0.493   1.069 -0.5827 -0.7787  1.4308
19703SOL     OW60529   3.587   8.561   0.943  0.0545  0.2353  0.3019
19703SOL    HW160530   3.530   8.485   0.926  0.7857 -0.4956  1.0290
19703SOL    HW260531   3.634   8.538   1.024  1.7358  0.6079 -0.5299
19704SOL     OW60532   5.836   7.018   1.814 -0.0741  0.0876  0.2729
19704SOL    HW160533   5.866   7.017   1.905 -2.1381 -1.0851  1.0224
19704SOL    HW260534   5.916   7.011   1.762  1.0898 -0.3722  2.0219
19705SOL     OW60535   0.600   5.208   6.701 -0.1071  0.3495 -0.4979
19705SOL    HW160536   0.581   5.296   6.668  0.1154  0.7187  0.3272
19705SOL    HW260537   0.689   5.215   6.736  0.1757 -0.3905 -1.0462
19706SOL     OW60538   7.482   5.671   7.228 -0.4379 -0.0467  0.4751
19706SOL    HW160539   7.481   5.586   7.185 -0.5100 -1.1267  2.5367
19706SOL    HW260540   7.391   5.689   7.248 -0.4844  0.7874 -0.4214
19707SOL     OW60541   4.751   8.668   2.366  0.3580  0.0532  0.6398
19707SOL    HW160542   4.696   8.745   2.347 -2.0462 -1.4043  1.2291
19707SOL    HW260543   4.720   8.601   2.306  0.4864 -1.2515  1.9745
19708SOL     OW60544   8.631   1.523   0.568 -0.5011  0.2203  0.4472
19708SOL    HW160545   8.669   1.437   0.555  0.1361  0.6055 -0.3244
19708SOL    HW260546   8.644   1.542   0.661  0.9821  0.2465  0.2463
19709SOL     OW60547   6.157   3.499   6.672 -0.7393  0.1431 -0.0632
19709SOL    HW160548   6.068   3.490   6.637 -0.9541 -0.1197  0.5386
19709SOL    HW260549   6.168   3.424   6.730 -1.4801  2.0729  2.7839
19710SOL     OW60550   8.232   5.809   3.467 -0.2123 -0.7216 -0.1106
19710SOL    HW160551   8.189   5.725   3.487 -0.6913 -0.4662 -0.0539
19710SOL    HW260552   8.307   5.785   3.412 -0.7868 -1.1273 -0.7430
19711SOL     OW60553   1.275   0.519   3.458  0.3120  0.4989 -0.5905
19711SOL    HW160554   1.261   0.424   3.458 -0.3517  0.5589 -2.0282
19711SOL    HW260555   1.328   0.536   3.535 -0.7370 -0.8613  0.4746
19712SOL     OW60556   1.120   1.327   4.459 -0.3805  0.0071 -0.2444
19712SOL    HW160557   1.093   1.417   4.477 -1.3368 -0.1840 -0.6780
19712SOL    HW260558   1.199   1.336   4.406 -0.1065  0.5823  0.2505
19713SOL     OW60559   3.087   1.452   7.665 -0.6323  0.2047  0.3018
19713SOL    HW160560   3.003   1.409   7.645 -1.1389  2.0028 -1.9003
19713SOL    HW260561   3.070   1.545   7.649  1.8081  0.5932 -0.3840
19714SOL     OW60562   3.450   4.482   6.786 -0.6739  0.3266 -0.4969
19714SOL    HW160563   3.501   4.455   6.710  0.5811 -0.0965  0.4665
19714SOL    HW260564   3.459   4.409   6.848  0.4062  1.7126  1.0411
19715SOL     OW60565   8.289   3.571   4.254 -0.1441  0.0046 -0.1191
19715SOL    HW160566   8.336   3.606   4.330 -0.6159  0.3517  0.0146
19715SOL    HW260567   8.344   3.592   4.179  1.6704 -2.6370  0.3357
19716SOL     OW60568   7.027   0.595   5.653  0.9317  0.2499 -0.1079
19716SOL    HW160569   7.004   0.544   5.575  2.8296 -0.9358  0.0370
19716SOL    HW260570   7.037   0.530   5.722 -2.2063  1.4172  1.6078
19717SOL     OW60571   4.706   7.987   7.002 -0.0326  0.0483  0.5793
19717SOL    HW160572   4.616   7.995   7.034 -0.8420  1.2574 -1.7415
19717SOL    HW260573   4.734   8.077   6.988  0.1194 -0.3473 -2.2312
19718SOL     OW60574   2.621   2.858   2.149 -0.2546 -0.1173 -0.0580
19718SOL    HW160575   2.692   2.793   2.152 -1.2404 -1.2170  0.0361
19718SOL    HW260576   2.611   2.887   2.240 -1.0078 -1.1890  0.2205
19719SOL     OW60577   4.374   4.698   6.932 -0.2603  0.1792 -0.1150
19719SOL    HW160578   4.295   4.751   6.929  0.3466  1.1240  0.2005
19719SOL    HW260579   4.437   4.745   6.878  0.4156 -0.0055  0.5002
19720SOL     OW60580   7.025   7.305   5.660 -0.1642 -0.3685  0.5587
19720SOL    HW160581   7.060   7.392   5.682  1.6416 -0.5941 -1.2207
19720SOL    HW260582   7.049   7.250   5.735  0.3228  0.2406  0.8616
19721SOL     OW60583   6.653   3.603   0.652  0.2818  0.0956  1.0132
19721SOL    HW160584   6.685   3.606   0.562 -0.0756 -2.8305  0.6637
19721SOL    HW260585   6.586   3.671   0.656 -1.4509 -1.2431 -1.7533
19722SOL     OW60586   4.527   6.070   0.594  0.2370 -0.2599 -0.0424
19722SOL    HW160587   4.474   6.119   0.531 -0.4930 -1.3387 -0.3078
19722SOL    HW260588   4.463   6.023   0.647  0.8526  0.4868  1.4044
19723SOL     OW60589   5.159   2.392   5.916  0.7041 -0.4746 -0.4561
19723SOL    HW160590   5.135   2.313   5.964  1.6529 -1.3556 -1.3820
19723SOL    HW260591   5.216   2.361   5.846 -0.3071  0.8192 -1.9099
19724SOL     OW60592   5.799   7.389   8.103 -0.2058  0.2683 -0.1955
19724SOL    HW160593   5.807   7.311   8.158 -0.5813  0.9664  0.8795
19724SOL    HW260594   5.873   7.444   8.130 -0.0492  0.3723 -0.8183
19725SOL     OW60595   6.682   7.341   6.633 -0.2869 -0.0405 -0.1980
19725SOL    HW160596   6.737   7.277   6.589 -0.8963 -1.9932  1.6778
19725SOL    HW260597   6.596   7.330   6.593  0.2489  1.9627 -2.0918
19726SOL     OW60598   6.910   5.896   0.382 -0.2889  0.0724  0.0999
19726SOL    HW160599   6.815   5.890   0.385 -0.3379  1.1795  1.5078
19726SOL    HW260600   6.932   5.972   0.436  1.2603  1.2665 -2.0474
19727SOL     OW60601   4.377   7.372   4.850 -0.0110 -0.2823  0.0658
19727SOL    HW160602   4.352   7.335   4.934  1.4821 -0.9897  0.2332
19727SOL    HW260603   4.333   7.457   4.847 -1.1178 -0.7911  0.9781
19728SOL     OW60604   5.353   9.029   4.560  0.5604 -0.1755  0.4823
19728SOL    HW160605   5.303   9.013   4.480  0.2484  0.0039  0.6399
19728SOL    HW260606   5.439   9.057   4.529  0.3113  0.2966  0.2015
19729SOL     OW60607   6.549   0.856   5.991  0.3447 -0.7420  0.2519
19729SOL    HW160608   6.592   0.905   6.062  0.1056 -0.3629  0.1393
19729SOL    HW260609   6.604   0.779   5.979 -1.0976 -2.2834  2.7281
19730SOL     OW60610   8.911   5.427   1.312  0.0555 -0.6232 -0.7286
19730SOL    HW160611   8.891   5.517   1.337  2.6809 -0.0513 -0.3969
19730SOL    HW260612   8.994   5.433   1.264  0.1024 -2.8305 -1.0505
19731SOL     OW60613   6.613   7.937   8.769 -1.0989 -0.2638  0.1739
19731SOL    HW160614   6.631   8.030   8.788 -1.8458 -0.2045  0.6475
19731SOL    HW260615   6.688   7.891   8.806 -1.0224  0.1101  0.5018
19732SOL     OW60616   1.742   2.986   4.319  0.2253  0.1838 -0.1297
19732SOL    HW160617   1.761   3.077   4.340 -1.3127  0.6164 -0.4980
19732SOL    HW260618   1.827   2.942   4.326  0.7288  1.3150  1.6179
19733SOL     OW60619   5.497   8.036   3.363  0.1488 -0.1330 -0.2949
19733SOL    HW160620   5.482   8.089   3.284 -1.5468 -1.0994 -0.6684
19733SOL    HW260621   5.506   7.946   3.330  0.1311 -0.4523  0.5522
19734SOL     OW60622   6.005   8.442   2.118  0.3466  0.6163 -0.5641
19734SOL    HW160623   6.027   8.363   2.166 -1.5823  0.7353  0.6575
19734SOL    HW260624   6.088   8.487   2.106  1.0842  0.0143  1.6916
19735SOL     OW60625   1.999   0.329   1.708 -0.2347  0.8039 -0.3997
19735SOL    HW160626   2.064   0.387   1.669 -0.0746  0.4056 -0.7357
19735SOL    HW260627   1.940   0.388   1.756  0.3772  1.1634 -0.0778
19736SOL     OW60628   0.849   2.279   2.857  0.6890  0.5972 -0.2835
19736SOL    HW160629   0.930   2.227   2.848 -0.1950 -0.4788 -3.2841
19736SOL    HW260630   0.879   2.370   2.857  1.9804  0.1968 -0.2311
19737SOL     OW60631   0.548   5.388   6.951  0.0583  0.3619  0.7400
19737SOL    HW160632   0.462   5.422   6.928 -0.0415  0.7250  1.6258
19737SOL    HW260633   0.532   5.333   7.028  0.4501 -0.4801  0.2342
19738SOL     OW60634   0.056   7.378   5.482 -0.5943  0.1745 -0.5307
19738SOL    HW160635   0.151   7.370   5.469 -0.2681 -0.5936  1.8319
19738SOL    HW260636   0.020   7.298   5.444 -0.1157 -0.2191 -0.1813
19739SOL     OW60637   8.039   5.265   4.856 -0.1891  0.0356  0.1317
19739SOL    HW160638   8.093   5.315   4.917  0.2388  0.9471 -0.9538
19739SOL    HW260639   8.010   5.329   4.791 -1.6814 -0.6578  0.0631
19740SOL     OW60640   8.098   6.923   1.880  0.2277 -0.1336 -0.2582
19740SOL    HW160641   8.029   6.867   1.843  1.7848 -0.4258 -2.9645
19740SOL    HW260642   8.148   6.865   1.936 -1.1779 -0.1200  1.0743
19741SOL     OW60643   3.813   8.599   2.799  0.5139 -0.2454 -0.4019
19741SOL    HW160644   3.724   8.593   2.832  0.5466  2.6014  0.4147
19741SOL    HW260645   3.868   8.574   2.873  0.4646  2.1159  0.4883
19742SOL     OW60646   4.980   8.873   3.687  0.0576  0.4301 -0.2333
19742SOL    HW160647   4.902   8.889   3.741  0.4746  1.8135  0.0112
19742SOL    HW260648   5.043   8.834   3.748  0.3172  1.4261  0.1697
19743SOL     OW60649   7.456   2.130   4.968 -0.1374 -0.5308  0.1880
19743SOL    HW160650   7.408   2.213   4.956 -0.0480 -0.6459 -1.1845
19743SOL    HW260651   7.414   2.070   4.907  0.9396 -0.9912 -0.1164
19744SOL     OW60652   5.515   2.073   9.145 -0.1433 -0.3831 -0.3267
19744SOL    HW160653   5.467   2.123   9.078  1.1186  0.3976 -0.6795
19744SOL    HW260654   5.505   2.125   9.225  1.0832  0.4451 -0.6714
19745SOL     OW60655   7.133   6.370   6.327 -0.2106  0.0582  0.0282
19745SOL    HW160656   7.165   6.331   6.409  0.1222  0.9382  0.3325
19745SOL    HW260657   7.038   6.372   6.338 -0.1984 -0.2273  0.2066
19746SOL     OW60658   1.520   5.965   4.212  0.1397  0.1610 -0.3490
19746SOL    HW160659   1.476   5.935   4.292 -0.8827  1.2419 -0.4684
19746SOL    HW260660   1.477   5.917   4.141 -0.2805  0.5860 -0.3916
19747SOL     OW60661   6.441   6.137   3.293 -0.4486  0.1361 -0.0018
19747SOL    HW160662   6.419   6.047   3.317 -0.5295  0.0027 -0.5759
19747SOL    HW260663   6.362   6.187   3.312  0.0560  0.3699  1.7383
19748SOL     OW60664   0.724   7.892   2.762  0.0255 -0.4547 -0.0761
19748SOL    HW160665   0.739   7.987   2.767 -1.0778 -0.1685 -1.5845
19748SOL    HW260666   0.644   7.879   2.813 -0.3523 -0.4160 -0.6476
19749SOL     OW60667   6.638   5.746   2.785  0.0218  0.7583  0.1349
19749SOL    HW160668   6.713   5.741   2.844 -0.3303 -0.1849  0.5165
19749SOL    HW260669   6.563   5.755   2.843 -0.3341 -0.2459 -0.1627
19750SOL     OW60670   1.562   1.500   8.378  0.4268  0.1307 -0.1543
19750SOL    HW160671   1.556   1.443   8.301  2.3228  0.9192 -0.9271
19750SOL    HW260672   1.655   1.520   8.386  0.1388  0.8612  1.7879
19751SOL     OW60673   2.170   8.648   7.564  0.6171 -0.2519 -0.2456
19751SOL    HW160674   2.101   8.639   7.630  0.6101  3.2014  0.3779
19751SOL    HW260675   2.250   8.664   7.614  1.0478  0.1463 -1.0510
19752SOL     OW60676   6.945   6.171   2.604 -0.5037  0.3431 -0.0880
19752SOL    HW160677   7.027   6.218   2.592  0.8443 -1.0030  2.7616
19752SOL    HW260678   6.902   6.216   2.677 -1.0862 -0.4687  0.0860
19753SOL     OW60679   1.587   3.619   8.039  0.1183 -0.0421 -0.9502
19753SOL    HW160680   1.592   3.634   7.945  2.2570 -3.8629 -1.6715
19753SOL    HW260681   1.496   3.594   8.054 -0.4070  1.2288 -1.8240
19754SOL     OW60682   8.732   6.607   6.805 -0.1693  0.0574 -0.1285
19754SOL    HW160683   8.743   6.567   6.891 -0.1374  2.0164  0.8428
19754SOL    HW260684   8.643   6.583   6.779 -0.8377  0.8288  1.2787
19755SOL     OW60685   6.590   8.867   3.297 -0.9471 -0.5096  0.4251
19755SOL    HW160686   6.651   8.939   3.285 -2.7889  1.0044 -0.3335
19755SOL    HW260687   6.592   8.819   3.214 -2.1992  0.7345 -0.3692
19756SOL     OW60688   5.550   4.176   5.556 -0.1828 -0.3354  0.0984
19756SOL    HW160689   5.639   4.213   5.551 -0.9811  2.0831  1.8482
19756SOL    HW260690   5.524   4.189   5.647 -2.5753 -0.3767 -0.5287
19757SOL     OW60691   5.242   2.311   6.237  0.0786  0.0324  0.2816
19757SOL    HW160692   5.250   2.406   6.246 -0.6632  0.0588  0.7782
19757SOL    HW260693   5.331   2.281   6.219  0.2137  0.8855 -0.5870
19758SOL     OW60694   0.108   1.556   7.993 -0.3180 -0.1124  0.2676
19758SOL    HW160695   0.066   1.567   8.079  0.4091  2.1202  0.4004
19758SOL    HW260696   0.172   1.486   8.007  0.3632  0.7497  1.8336
19759SOL     OW60697   6.790   0.999   6.981  0.1166 -0.1215 -0.3085
19759SOL    HW160698   6.774   1.009   7.075 -2.4745  0.8524 -0.7699
19759SOL    HW260699   6.850   1.070   6.960 -0.3045  0.4612  0.3982
19760SOL     OW60700   4.279   4.191   7.258  0.0785  0.0687  0.7471
19760SOL    HW160701   4.291   4.113   7.203  1.6775 -0.0740  1.2568
19760SOL    HW260702   4.348   4.251   7.232 -1.0702  1.3116  0.4386
19761SOL     OW60703   6.398   6.076   7.934  0.2191  0.4309 -0.2883
19761SOL    HW160704   6.384   6.165   7.899  0.8496  0.1878 -1.2083
19761SOL    HW260705   6.477   6.045   7.889  0.4791 -0.2922  0.6452
19762SOL     OW60706   0.883   0.897   6.961  0.7285 -0.2421  0.3778
19762SOL    HW160707   0.854   0.857   7.043  1.4402  1.7900  1.6931
19762SOL    HW260708   0.807   0.889   6.902  0.0747 -1.4045  1.3510
19763SOL     OW60709   4.394   2.009   2.380  0.3556 -1.0125  0.2426
19763SOL    HW160710   4.330   1.982   2.446  0.7439 -1.9287  0.2651
19763SOL    HW260711   4.478   2.006   2.426  0.6086 -1.4796 -0.2411
19764SOL     OW60712   6.026   0.352   1.212 -0.2312 -0.9288 -0.5659
19764SOL    HW160713   6.061   0.355   1.122 -0.6810 -1.2353 -0.7556
19764SOL    HW260714   6.013   0.444   1.235 -0.2360 -0.8528 -0.8660
19765SOL     OW60715   1.325   1.032   4.176  0.3842 -0.1663  0.2501
19765SOL    HW160716   1.336   1.109   4.233 -0.2043  0.5853 -0.6225
19765SOL    HW260717   1.251   1.055   4.120  0.3218 -1.3105 -0.1474
19766SOL     OW60718   4.465   2.850   0.564 -0.1387  0.3171  0.4912
19766SOL    HW160719   4.395   2.914   0.582 -2.2304 -1.7239  0.0798
19766SOL    HW260720   4.507   2.884   0.485 -1.7893  0.7587 -0.2455
19767SOL     OW60721   1.516   4.617   1.723  0.0818 -0.3002  0.8141
19767SOL    HW160722   1.560   4.533   1.734  0.0033 -0.6473 -1.1379
19767SOL    HW260723   1.441   4.598   1.666 -0.3879  0.9622  0.9710
19768SOL     OW60724   2.174   8.511   6.883 -0.0014 -0.2267 -0.1583
19768SOL    HW160725   2.097   8.561   6.914  0.5330  1.2392 -1.0825
19768SOL    HW260726   2.162   8.424   6.920 -0.7257  0.7084  1.9997
19769SOL     OW60727   2.913   0.366   3.213 -0.0381 -0.3023 -0.1485
19769SOL    HW160728   2.883   0.395   3.127 -0.5266 -0.1285  0.0794
19769SOL    HW260729   2.914   0.445   3.266 -1.2756 -0.6591  0.4430
19770SOL     OW60730   6.211   8.720   7.651  0.6135 -0.2565  0.1656
19770SOL    HW160731   6.203   8.679   7.565  3.1560 -0.2015 -0.1879
19770SOL    HW260732   6.191   8.812   7.636 -0.4575 -0.5177 -0.0346
19771SOL     OW60733   1.098   6.905   7.989 -0.1563  0.0857 -0.8101
19771SOL    HW160734   1.083   6.838   8.056  0.5295 -1.6492 -2.2974
19771SOL    HW260735   1.068   6.987   8.029 -0.1554 -0.9438  1.4304
19772SOL     OW60736   5.799   6.883   2.835  0.0537 -0.6096 -0.6192
19772SOL    HW160737   5.858   6.842   2.898  0.3136 -0.0743 -0.5140
19772SOL    HW260738   5.724   6.823   2.831 -0.3850 -0.2081  0.8879
19773SOL     OW60739   7.665   3.513   0.671 -0.1124  0.4523  0.3941
19773SOL    HW160740   7.594   3.499   0.734 -0.3340  1.0146  0.2776
19773SOL    HW260741   7.635   3.468   0.591 -0.4234  0.8438  0.2883
19774SOL     OW60742   0.917   1.946   8.321 -0.1146  0.1279  0.1115
19774SOL    HW160743   0.952   2.007   8.386  2.6673 -2.3207  1.1202
19774SOL    HW260744   0.920   1.995   8.239 -0.3614  2.1464  1.2387
19775SOL     OW60745   3.891   3.874   1.550 -0.3636 -0.2348  0.1666
19775SOL    HW160746   3.872   3.785   1.580 -2.2598  0.2318  0.4727
19775SOL    HW260747   3.895   3.926   1.631  3.3751 -0.3946  0.2513
19776SOL     OW60748   2.652   2.710   3.322  0.0400 -0.4032 -0.9240
19776SOL    HW160749   2.662   2.692   3.416 -1.1194  1.6259 -0.3621
19776SOL    HW260750   2.558   2.702   3.306  0.2885 -1.3254 -2.0920
19777SOL     OW60751   4.804   2.497   0.406  0.5350 -0.5393 -0.6869
19777SOL    HW160752   4.886   2.544   0.417 -0.0827  0.6594 -1.0000
19777SOL    HW260753   4.736   2.563   0.425 -0.3621 -1.1287 -1.7387
19778SOL     OW60754   1.708   2.613   2.562  0.4082  0.0870 -0.0037
19778SOL    HW160755   1.762   2.644   2.489  0.5791 -2.6191 -1.1423
19778SOL    HW260756   1.629   2.578   2.520 -0.2884  0.0702  1.2703
19779SOL     OW60757   6.884   5.627   0.427  0.4270 -0.0093  0.0458
19779SOL    HW160758   6.898   5.626   0.332  0.1974 -1.0458  0.0013
19779SOL    HW260759   6.900   5.717   0.454  0.4437  0.3048 -0.9886
19780SOL     OW60760   6.041   4.354   0.774 -0.2550 -0.0770  0.0530
19780SOL    HW160761   5.985   4.291   0.819  0.4914 -0.9993 -0.2636
19780SOL    HW260762   6.108   4.376   0.839 -0.7447  0.7297  0.3025
19781SOL     OW60763   2.109   1.045   8.600 -0.1054 -0.2155 -0.1922
19781SOL    HW160764   2.154   1.049   8.685 -2.3523  1.9259  1.0013
19781SOL    HW260765   2.153   1.112   8.547  0.5668 -0.7914 -0.3890
19782SOL     OW60766   4.700   7.723   6.250 -0.1323  0.4169  0.0256
19782SOL    HW160767   4.637   7.686   6.312 -0.8325 -0.3173 -1.0694
19782SOL    HW260768   4.690   7.669   6.171  2.9502 -0.6855  0.2617
19783SOL     OW60769   5.979   2.414   5.075  0.0163 -0.2881  0.1835
19783SOL    HW160770   6.044   2.480   5.050 -0.3115  0.7228  1.8375
19783SOL    HW260771   5.934   2.453   5.150 -2.7841 -0.7738 -1.1322
19784SOL     OW60772   1.375   5.522   0.111 -0.2809 -0.6683 -0.2571
19784SOL    HW160773   1.331   5.444   0.147 -0.2993 -0.5967 -0.1238
19784SOL    HW260774   1.307   5.589   0.108 -0.1645 -0.5330  0.0266
19785SOL     OW60775   0.884   4.353   2.375  0.2963  0.2167  0.4271
19785SOL    HW160776   0.893   4.299   2.454  0.7475 -1.0428 -0.4516
19785SOL    HW260777   0.971   4.391   2.361  0.4160 -0.1630  0.1258
19786SOL     OW60778   0.340   8.049   3.335 -0.6355  0.5809 -0.0184
19786SOL    HW160779   0.253   8.017   3.311 -0.6695  1.0918 -0.5769
19786SOL    HW260780   0.355   8.012   3.422 -1.2574  0.1921 -0.0686
19787SOL     OW60781   4.884   7.328   1.312 -0.2132  0.5041 -0.6663
19787SOL    HW160782   4.797   7.366   1.301 -0.4594 -0.3637 -2.0009
19787SOL    HW260783   4.870   7.249   1.364 -0.2067  0.4138 -0.8021
19788SOL     OW60784   6.789   2.726   3.902 -0.2351 -0.4484 -0.2648
19788SOL    HW160785   6.712   2.669   3.909 -1.9226  1.8981  1.6547
19788SOL    HW260786   6.819   2.714   3.811 -0.6309 -4.0699 -0.0798
19789SOL     OW60787   3.685   3.677   0.638  0.1814 -0.3353  0.0084
19789SOL    HW160788   3.621   3.678   0.567  0.8619  2.3938 -0.7034
19789SOL    HW260789   3.645   3.732   0.706  0.1219 -1.8329  1.2385
19790SOL     OW60790   7.186   2.317   1.875 -0.6723  0.8655 -0.3370
19790SOL    HW160791   7.151   2.397   1.913 -0.3554 -0.2586  2.5783
19790SOL    HW260792   7.280   2.332   1.871 -0.5486  0.4841  0.7516
19791SOL     OW60793   2.372   7.235   6.412  0.1866 -0.4588  0.2634
19791SOL    HW160794   2.445   7.194   6.459 -0.5073 -0.1622  1.6610
19791SOL    HW260795   2.362   7.181   6.333  1.2347 -1.1322  0.5595
19792SOL     OW60796   4.590   3.173   2.418  0.1037  0.3718 -0.0032
19792SOL    HW160797   4.566   3.208   2.332 -0.5552  1.1379  0.4773
19792SOL    HW260798   4.590   3.078   2.406 -1.4760  0.3999 -0.4849
19793SOL     OW60799   8.713   8.733   8.915  0.1257 -0.2318  0.2294
19793SOL    HW160800   8.700   8.660   8.975  1.0277  0.4042  1.2426
19793SOL    HW260801   8.627   8.775   8.910 -0.5237 -1.6106 -0.7384
19794SOL     OW60802   4.968   8.463   1.083  0.2458 -0.1223 -0.3436
19794SOL    HW160803   5.049   8.499   1.047 -0.1982  0.3902 -0.8585
19794SOL    HW260804   4.921   8.428   1.006 -0.2807  0.1162 -0.1381
19795SOL     OW60805   5.990   1.779   0.636  0.0185 -0.9700 -0.3433
19795SOL    HW160806   6.048   1.816   0.569  0.9997 -1.1882  0.3811
19795SOL    HW260807   6.048   1.744   0.703 -0.8881 -3.4367 -0.7508
19796SOL     OW60808   1.665   7.558   3.761 -0.4345  0.4973 -0.4042
19796SOL    HW160809   1.733   7.622   3.784 -1.0200  1.0571 -0.1990
19796SOL    HW260810   1.616   7.545   3.843 -0.4526 -0.0474 -0.5011
19797SOL     OW60811   6.908   4.760   1.475 -0.2788 -0.0894 -0.0945
19797SOL    HW160812   6.905   4.795   1.564  0.1209  1.5930 -0.7144
19797SOL    HW260813   6.923   4.666   1.487 -0.1783  0.1193  1.6058
19798SOL     OW60814   2.869   2.118   6.715  0.1975  0.6163  0.0570
19798SOL    HW160815   2.802   2.075   6.767 -0.5618  0.7819 -0.7752
19798SOL    HW260816   2.882   2.061   6.639  3.1825 -1.0128  1.6216
19799SOL     OW60817   0.743   4.748   2.631 -0.1028  0.8900 -0.5688
19799SOL    HW160818   0.836   4.735   2.612  0.2824  3.6675 -0.9495
19799SOL    HW260819   0.727   4.696   2.710  1.9558  0.9738 -0.0583
19800SOL     OW60820   6.821   5.034   5.947  0.4688 -0.6457  0.2853
19800SOL    HW160821   6.731   5.032   5.913  0.6611  3.6360 -1.0248
19800SOL    HW260822   6.811   5.034   6.042 -0.7452 -2.1934  0.1962
19801SOL     OW60823   7.924   6.331   5.466  0.6564  0.2567 -0.2358
19801SOL    HW160824   7.865   6.275   5.517  0.4524  1.3740  0.7950
19801SOL    HW260825   7.996   6.351   5.526  1.4400 -0.0266 -1.0588
19802SOL     OW60826   4.441   4.225   8.459  0.6985 -0.0609  0.1260
19802SOL    HW160827   4.461   4.135   8.482  0.0221 -0.9634 -2.4416
19802SOL    HW260828   4.351   4.222   8.426  1.0120  1.3443 -0.9360
19803SOL     OW60829   7.798   2.785   5.059  0.7863 -0.3665  0.2772
19803SOL    HW160830   7.748   2.831   4.991  1.4255  0.3457  0.2830
19803SOL    HW260831   7.808   2.696   5.024 -0.1905 -0.4348  0.1303
19804SOL     OW60832   4.910   2.486   1.641  0.1977  0.3416 -0.0689
19804SOL    HW160833   4.996   2.486   1.683  0.0186 -0.3127  0.3244
19804SOL    HW260834   4.888   2.393   1.634  0.6089  0.3727 -2.4317
19805SOL     OW60835   7.458   6.069   7.521 -0.0087 -0.0813  0.0412
19805SOL    HW160836   7.465   6.162   7.542 -0.0646 -0.1183  0.2244
19805SOL    HW260837   7.374   6.061   7.476  0.1411  0.0083 -0.2601
19806SOL     OW60838   2.330   7.753   2.080 -0.0784 -0.0744 -0.4529
19806SOL    HW160839   2.416   7.792   2.094 -0.6349  1.4086 -0.9954
19806SOL    HW260840   2.281   7.775   2.159 -0.1780 -0.2706 -0.4609
19807SOL     OW60841   5.372   3.446   1.403 -0.1361 -0.4619 -0.1139
19807SOL    HW160842   5.367   3.482   1.491 -0.3391  0.1713 -0.3834
19807SOL    HW260843   5.289   3.469   1.362 -0.7802 -2.2672  0.0955
19808SOL     OW60844   2.369   5.743   7.269  0.0368  0.2295 -0.2089
19808SOL    HW160845   2.385   5.838   7.272 -0.7725  0.3517  0.8246
19808SOL    HW260846   2.353   5.719   7.360 -0.6208 -0.7441 -0.5690
19809SOL     OW60847   6.012   5.985   6.538 -0.0348 -0.7044 -0.0004
19809SOL    HW160848   5.977   6.073   6.529  0.6524 -0.4134  0.1242
19809SOL    HW260849   5.943   5.936   6.584 -0.5043 -0.2938 -0.2601
19810SOL     OW60850   1.536   5.970   6.750 -0.1793  0.2886  0.3376
19810SOL    HW160851   1.537   6.018   6.667  1.1414 -0.7740 -0.2906
19810SOL    HW260852   1.628   5.952   6.769 -0.5561 -0.7623  1.2701
19811SOL     OW60853   8.342   8.149   5.184  0.0367  0.2432  0.0288
19811SOL    HW160854   8.417   8.208   5.173 -0.7735  1.7840  2.0085
19811SOL    HW260855   8.381   8.065   5.207  1.2308  1.3601  2.4871
19812SOL     OW60856   0.741   5.514   7.187  0.3359 -0.1484  0.1199
19812SOL    HW160857   0.820   5.531   7.239 -0.3803  0.5890  0.9953
19812SOL    HW260858   0.726   5.420   7.196 -0.4644  0.1178  2.3356
19813SOL     OW60859   2.166   3.487   5.910  0.5238 -0.7033 -0.0509
19813SOL    HW160860   2.201   3.575   5.895  2.6511 -1.0865  2.1062
19813SOL    HW260861   2.127   3.491   5.997 -0.1922 -1.7062 -0.3025
19814SOL     OW60862   9.101   9.160   3.080  0.0443  0.0952 -0.5976
19814SOL    HW160863   9.087   9.066   3.092  0.0626  0.2899  1.2097
19814SOL    HW260864   9.014   9.196   3.063 -0.8112  0.3172  3.3593
19815SOL     OW60865   5.092   3.210   8.021 -0.1622 -0.1609  0.0394
19815SOL    HW160866   5.018   3.266   8.044  0.2463  1.1298 -1.5728
19815SOL    HW260867   5.169   3.265   8.034  0.1874  0.1368 -2.6399
19816SOL     OW60868   2.711   2.297   8.543  0.5056  0.0032  0.1027
19816SOL    HW160869   2.735   2.268   8.455  0.3015 -1.4495  0.5072
19816SOL    HW260870   2.792   2.328   8.582  0.6704  0.2743 -0.4462
19817SOL     OW60871   7.040   4.294   2.747 -0.8114 -0.2474  0.3484
19817SOL    HW160872   7.128   4.260   2.763 -0.2917  0.7511 -0.2340
19817SOL    HW260873   6.988   4.260   2.819  0.2719 -0.1132  1.2307
19818SOL     OW60874   4.287   8.061   8.686  0.4570 -0.3936  0.0553
19818SOL    HW160875   4.215   8.067   8.749  0.6585 -0.9040  0.3423
19818SOL    HW260876   4.355   8.013   8.732  0.7902 -0.3551 -0.3897
19819SOL     OW60877   2.821   4.083   4.495 -0.2016  0.2080  0.2093
19819SOL    HW160878   2.900   4.105   4.544  0.7968 -0.5426 -1.0007
19819SOL    HW260879   2.752   4.137   4.534  1.2318  2.1297  0.2116
19820SOL     OW60880   1.318   7.845   6.916  0.5101  0.5489 -0.3484
19820SOL    HW160881   1.254   7.830   6.846  0.6736 -1.0719 -0.1764
19820SOL    HW260882   1.338   7.938   6.910 -0.6895  0.7673 -1.4163
19821SOL     OW60883   4.546   2.032   9.112  0.1425 -0.6793  0.8211
19821SOL    HW160884   4.519   2.060   9.025 -0.3854 -1.2064  0.8032
19821SOL    HW260885   4.538   1.937   9.110  2.5951 -0.9562  0.6331
19822SOL     OW60886   0.055   5.724   1.141  0.1291 -0.3450  0.0835
19822SOL    HW160887  -0.009   5.654   1.128  0.2861 -0.6358  0.8289
19822SOL    HW260888   0.129   5.681   1.183  0.3238  0.2169  0.3216
19823SOL     OW60889   6.498   3.495   5.531 -0.2528  0.1898  0.3492
19823SOL    HW160890   6.547   3.420   5.497 -1.0812  0.4709 -1.5928
19823SOL    HW260891   6.564   3.552   5.570  1.0213  0.6162 -2.2647
19824SOL     OW60892   1.164   1.689   0.018 -0.1193 -0.6927 -0.0239
19824SOL    HW160893   1.082   1.685   0.067 -0.4900 -2.5245 -0.7143
19824SOL    HW260894   1.196   1.778   0.032 -3.1517  0.7217 -1.2467
19825SOL     OW60895   2.031   7.771   3.512  0.3781  0.1122  0.6416
19825SOL    HW160896   2.036   7.676   3.521  0.9444  0.1336  0.5937
19825SOL    HW260897   2.075   7.806   3.589  3.7072  0.2978 -1.1446
19826SOL     OW60898   7.090   1.900   3.145  0.0646  0.5604  0.1174
19826SOL    HW160899   6.995   1.893   3.154  0.2465 -1.0234  1.1916
19826SOL    HW260900   7.106   1.890   3.051 -0.8387  1.2424 -0.1270
19827SOL     OW60901   1.216   4.441   4.331  0.0430  0.3836  0.0682
19827SOL    HW160902   1.242   4.514   4.388 -1.9184 -0.1138  1.7081
19827SOL    HW260903   1.245   4.363   4.378 -0.3444  0.0182 -0.2950
19828SOL     OW60904   4.532   4.124   5.960 -0.7972 -0.2796 -0.4923
19828SOL    HW160905   4.552   4.061   5.891  0.2157 -0.0990 -0.3918
19828SOL    HW260906   4.611   4.124   6.014 -1.2418  0.2278  0.1661
19829SOL     OW60907   1.084   8.426   3.680 -0.3884 -0.2700 -0.5940
19829SOL    HW160908   1.067   8.506   3.631  0.7382  0.7803  0.6663
19829SOL    HW260909   1.010   8.418   3.740 -0.1733  0.2021 -0.2602
19830SOL     OW60910   6.927   8.552   3.839 -0.1770  0.5292  0.3105
19830SOL    HW160911   6.973   8.490   3.896 -1.5864  0.3088  1.2643
19830SOL    HW260912   6.928   8.511   3.752  0.2213 -0.0983  0.6085
19831SOL     OW60913   2.068   0.348   5.817 -0.5893 -0.4152 -0.4457
19831SOL    HW160914   2.151   0.396   5.823 -0.6553 -0.2742 -0.6267
19831SOL    HW260915   2.093   0.256   5.816 -0.3895 -0.3608 -1.1168
19832SOL     OW60916   1.660   3.557   6.835 -0.1560  0.1769 -0.8743
19832SOL    HW160917   1.749   3.592   6.836 -0.0588 -0.0764  0.2394
19832SOL    HW260918   1.606   3.627   6.870  0.2259 -1.1477  2.7947
19833SOL     OW60919   2.055   8.476   2.618  0.4348  0.2211  0.0277
19833SOL    HW160920   2.090   8.397   2.658  1.0479  1.2093  1.5409
19833SOL    HW260921   1.963   8.479   2.645  0.2776 -0.2108 -0.4446
19834SOL     OW60922   3.163   6.439   1.660 -0.7573  0.1853 -0.1311
19834SOL    HW160923   3.131   6.529   1.652 -0.2480  0.5335  1.5407
19834SOL    HW260924   3.258   6.447   1.660 -0.6967 -0.4376 -0.6526
19835SOL     OW60925   2.916   1.742   3.269 -0.0518  0.3815  0.1985
19835SOL    HW160926   2.918   1.752   3.364  0.6877 -0.3941  0.2795
19835SOL    HW260927   2.825   1.721   3.248  0.0331 -0.7063  0.8831
19836SOL     OW60928   6.282   9.003   6.351 -0.5630 -0.8949  0.0060
19836SOL    HW160929   6.359   8.974   6.301  0.7752  1.4472  0.5844
19836SOL    HW260930   6.217   9.025   6.285  0.1939 -0.4509 -0.6020
19837SOL     OW60931   4.337   7.277   4.601  0.2592  0.0630  0.0879
19837SOL    HW160932   4.349   7.306   4.692 -1.1206  2.6170 -0.4542
19837SOL    HW260933   4.253   7.230   4.602 -0.3952  1.1923 -0.0515
19838SOL     OW60934   6.728   8.197   7.608 -0.1132 -0.2677  0.3423
19838SOL    HW160935   6.686   8.282   7.612 -0.0962 -0.2909  3.3578
19838SOL    HW260936   6.667   8.138   7.653  0.3469 -1.6496 -0.7590
19839SOL     OW60937   6.379   4.760   2.690 -0.5731 -0.6017 -0.0549
19839SOL    HW160938   6.336   4.764   2.605  0.1987 -2.3478 -0.5644
19839SOL    HW260939   6.414   4.849   2.703  1.1597 -0.8129 -2.5647
19840SOL     OW60940   7.930   0.957   2.008 -0.7479  0.1962 -0.4751
19840SOL    HW160941   7.867   0.959   2.081 -1.6583  0.0705 -1.2470
19840SOL    HW260942   7.962   1.047   2.003  0.5178 -0.1142  1.0784
19841SOL     OW60943   2.021   8.810   6.537  0.1362  0.0344  0.1541
19841SOL    HW160944   2.027   8.728   6.586 -2.8892 -0.9297 -0.8618
19841SOL    HW260945   1.995   8.875   6.602  1.5577  0.0325  0.7702
19842SOL     OW60946   7.577   8.266   7.863  0.4167  0.0942  0.0541
19842SOL    HW160947   7.597   8.198   7.928  1.2345  0.9064  0.6855
19842SOL    HW260948   7.602   8.348   7.906  0.0613  0.7383 -0.9325
19843SOL     OW60949   5.756   9.224   8.663  0.0580 -0.1212  0.1770
19843SOL    HW160950   5.696   9.295   8.687 -1.9645 -1.2350 -1.2933
19843SOL    HW260951   5.822   9.266   8.608 -0.3300  0.8399  0.4156
19844SOL     OW60952   0.956   8.666   3.938 -0.0374 -0.1098  0.0001
19844SOL    HW160953   0.990   8.703   3.857 -0.5550  0.8365  0.1965
19844SOL    HW260954   1.034   8.649   3.992  0.4209 -2.0056 -1.1728
19845SOL     OW60955   9.172   2.678   4.880 -0.3108  0.0353  0.1683
19845SOL    HW160956   9.233   2.619   4.925 -0.3604 -0.6368 -0.6337
19845SOL    HW260957   9.119   2.621   4.825 -0.4501  0.8088 -0.5172
19846SOL     OW60958   4.272   8.734   1.974 -0.0331  0.1415 -0.0340
19846SOL    HW160959   4.225   8.731   1.891  0.4426  0.3284 -0.3110
19846SOL    HW260960   4.364   8.735   1.950  0.1243  2.9688  0.3679
19847SOL     OW60961   0.213   4.657   2.280 -0.3583 -0.1719 -0.1727
19847SOL    HW160962   0.171   4.589   2.332  0.5347  0.7602  1.8462
19847SOL    HW260963   0.168   4.738   2.304  1.2708  0.5555  0.6142
19848SOL     OW60964   3.907   8.305   7.721  0.0051  0.6131 -0.1165
19848SOL    HW160965   3.930   8.212   7.721  2.2171  1.0397 -2.3048
19848SOL    HW260966   3.813   8.306   7.736 -0.2166 -2.0475 -0.7330
19849SOL     OW60967   3.559   7.158   2.974 -0.0445  0.5983  0.4270
19849SOL    HW160968   3.645   7.198   2.961  0.7429 -1.3807 -0.8903
19849SOL    HW260969   3.532   7.130   2.886  0.0264 -2.7516  1.3350
19850SOL     OW60970   0.790   2.144   7.002 -0.0926  0.5694  0.1007
19850SOL    HW160971   0.717   2.179   7.053  1.0232  3.4436 -0.0559
19850SOL    HW260972   0.865   2.198   7.027  1.6484 -1.2603 -0.8787
19851SOL     OW60973   4.725   4.454   2.852  0.1367 -0.0410  0.7226
19851SOL    HW160974   4.649   4.407   2.818 -0.2370 -0.6376  2.2846
19851SOL    HW260975   4.734   4.422   2.942  1.5458  0.8715  0.9305
19852SOL     OW60976   8.444   3.933   2.864 -0.2053  0.6606  0.4140
19852SOL    HW160977   8.537   3.954   2.872  0.0711 -0.4995  0.4114
19852SOL    HW260978   8.405   4.011   2.825  0.8342  1.0150  0.0576
19853SOL     OW60979   5.917   0.477   6.375  0.1014  0.2417 -0.3782
19853SOL    HW160980   5.941   0.507   6.463 -0.6204  0.3082 -0.1990
19853SOL    HW260981   5.992   0.425   6.347  0.2726  0.0732  0.3548
19854SOL     OW60982   4.380   6.087   8.092 -0.4649  0.2994 -0.2016
19854SOL    HW160983   4.410   6.037   8.168 -1.8247  1.5417  1.2242
19854SOL    HW260984   4.288   6.064   8.083 -0.1747 -0.3180 -1.9166
19855SOL     OW60985   8.891   8.012   8.673 -0.2788  0.2087 -0.0464
19855SOL    HW160986   8.866   8.103   8.658  0.3347  0.3779 -0.0391
19855SOL    HW260987   8.901   8.005   8.768  0.9096  0.4654 -0.1377
19856SOL     OW60988   3.488   8.957   8.910 -0.3215 -1.1044  0.1529
19856SOL    HW160989   3.535   9.018   8.967 -0.8579  0.4491 -0.9938
19856SOL    HW260990   3.556   8.920   8.853 -0.3389  1.0045 -1.3811
19857SOL     OW60991   4.474   8.054   7.835 -0.0329 -0.0657  0.1916
19857SOL    HW160992   4.537   8.030   7.766 -0.1842 -0.4424  0.1829
19857SOL    HW260993   4.434   8.134   7.803 -2.0663 -1.6307 -1.4904
19858SOL     OW60994   1.223   3.874   6.045 -0.5070  0.3910 -0.4221
19858SOL    HW160995   1.221   3.959   6.002 -0.4269  0.9175  0.5743
19858SOL    HW260996   1.249   3.893   6.135 -0.4423 -0.6957 -0.1893
19859SOL     OW60997   0.947   0.190   3.875 -0.4222  0.4771  0.0583
19859SOL    HW160998   0.986   0.262   3.826  1.0633 -1.2771 -1.5070
19859SOL    HW260999   0.969   0.208   3.966  2.1779  0.7402 -0.5408
19860SOL     OW61000   3.268   9.197   5.172  0.0698  0.0115  0.6502
19860SOL    HW161001   3.177   9.192   5.145  0.3002 -1.1378 -0.0204
19860SOL    HW261002   3.265   9.219   5.265 -0.9952 -2.1522  1.2006
19861SOL     OW61003   5.021   0.018   2.110  0.5991  0.2120  0.3282
19861SOL    HW161004   4.986  -0.058   2.157  0.6498 -0.8423 -1.2633
19861SOL    HW261005   5.113   0.020   2.134  0.8051 -0.7973 -0.2813
19862SOL     OW61006   8.882   2.741   8.053 -0.0222 -0.3660 -0.3485
19862SOL    HW161007   8.882   2.764   7.961  0.2864  1.1748  0.0021
19862SOL    HW261008   8.887   2.645   8.055 -0.5064 -0.4326 -1.9111
19863SOL     OW61009   8.653   3.410   6.028 -0.7790 -0.2684  0.4370
19863SOL    HW161010   8.566   3.436   6.058 -0.3904  2.1892 -0.3942
19863SOL    HW261011   8.699   3.492   6.014  1.2200 -1.4933 -0.5418
19864SOL     OW61012   4.104   8.704   2.502 -0.2969  0.0733  0.2161
19864SOL    HW161013   4.163   8.749   2.441 -0.8140 -0.6191 -0.8364
19864SOL    HW261014   4.082   8.770   2.568 -0.9251  1.3315 -1.1942
19865SOL     OW61015   5.290   7.295   4.554 -0.0614 -0.5823  0.0844
19865SOL    HW161016   5.301   7.382   4.592 -0.0332 -0.4995 -0.1104
19865SOL    HW261017   5.215   7.258   4.600  0.3635 -0.7289  0.6663
19866SOL     OW61018   4.047   8.356   0.062 -0.0764 -0.4797 -0.5582
19866SOL    HW161019   4.086   8.333   0.146 -0.3569  0.9231 -0.0094
19866SOL    HW261020   4.105   8.317  -0.003  0.3714 -1.2403  0.2792
19867SOL     OW61021   3.821   2.292   6.722  0.6616  0.5487 -0.2297
19867SOL    HW161022   3.814   2.238   6.801 -1.9870  0.3001 -0.5334
19867SOL    HW261023   3.838   2.381   6.755  0.1622  0.3494  0.5893
19868SOL     OW61024   1.699   4.807   6.100  0.2856  0.3395 -0.7041
19868SOL    HW161025   1.627   4.772   6.048  0.0286  0.3569 -0.3621
19868SOL    HW261026   1.663   4.819   6.187  0.2618  1.7346 -0.8690
19869SOL     OW61027   4.430   5.513   6.457 -0.0514 -0.2964  0.1474
19869SOL    HW161028   4.390   5.596   6.434  0.1743  0.2244  1.5486
19869SOL    HW261029   4.374   5.478   6.527  0.3924 -0.8662  0.2251
19870SOL     OW61030   0.018   4.025   5.267  0.4342 -0.6683 -0.4219
19870SOL    HW161031   0.094   4.075   5.238  1.7102 -2.7311 -0.8228
19870SOL    HW261032   0.054   3.943   5.299 -1.3914 -0.5510  2.2298
19871SOL     OW61033   8.080   7.911   8.474  0.5657  0.0989  0.4549
19871SOL    HW161034   8.125   7.853   8.535  1.6035  0.0267 -0.3458
19871SOL    HW261035   8.129   7.993   8.478  0.8154  0.0073 -0.4609
19872SOL     OW61036   7.415   4.960   7.670 -0.0394  0.1245 -0.0930
19872SOL    HW161037   7.427   5.002   7.755  2.1985 -0.9175  0.1937
19872SOL    HW261038   7.401   5.032   7.609  0.9580  1.1057  0.7848
19873SOL     OW61039   6.567   3.274   7.445  0.3989 -0.3824 -0.6005
19873SOL    HW161040   6.607   3.356   7.470 -0.5297 -0.1609  0.2290
19873SOL    HW261041   6.631   3.207   7.471  0.5152 -0.0070  0.1081
19874SOL     OW61042   2.245   1.758   1.661  0.2820 -0.1163  0.4650
19874SOL    HW161043   2.237   1.841   1.708 -2.1585 -0.0105 -0.0542
19874SOL    HW261044   2.178   1.702   1.699  0.6215 -1.2349 -0.5054
19875SOL     OW61045   1.543   7.983   5.092 -0.5203  0.0378  0.0163
19875SOL    HW161046   1.571   8.037   5.166 -2.2139 -0.8191  1.3463
19875SOL    HW261047   1.513   8.046   5.026 -1.5352  0.7724  1.1407
19876SOL     OW61048   3.676   4.455   4.566  0.4142 -0.6880 -0.1149
19876SOL    HW161049   3.639   4.530   4.613  1.2190  1.2756 -2.4095
19876SOL    HW261050   3.607   4.389   4.570 -0.8507  0.6088  0.9029
19877SOL     OW61051   4.410   6.206   0.399 -0.2123  0.8729  0.0618
19877SOL    HW161052   4.439   6.233   0.311  1.7811  2.0804  0.9962
19877SOL    HW261053   4.336   6.263   0.418  0.1813  1.5329 -0.3318
19878SOL     OW61054   1.340   0.152   0.455 -0.2830 -0.4873 -0.5499
19878SOL    HW161055   1.323   0.227   0.511  0.9233 -0.4815 -0.1679
19878SOL    HW261056   1.412   0.180   0.399 -1.1135 -0.6839 -1.7525
19879SOL     OW61057   2.069   7.705   4.281 -0.7317 -0.3906 -0.0621
19879SOL    HW161058   1.998   7.685   4.220  0.1083 -0.5401 -1.0107
19879SOL    HW261059   2.143   7.730   4.225  0.7971 -2.7636  0.7451
19880SOL     OW61060   2.621   4.144   2.409  0.6383  0.0689 -0.5761
19880SOL    HW161061   2.668   4.146   2.493 -0.4687 -1.3887  0.1370
19880SOL    HW261062   2.585   4.232   2.400  0.5795  0.1979  0.6307
19881SOL     OW61063   1.867   7.726   5.585  0.0382 -0.3941 -0.7468
19881SOL    HW161064   1.932   7.706   5.653 -0.5196 -0.6027 -0.2717
19881SOL    HW261065   1.909   7.696   5.504 -0.3617 -2.6853 -0.1851
19882SOL     OW61066   1.435   6.927   1.580  0.3795 -0.1470 -0.0273
19882SOL    HW161067   1.427   6.834   1.599 -1.0574  0.1390  0.9576
19882SOL    HW261068   1.500   6.960   1.642 -0.9198 -0.0704  1.3417
19883SOL     OW61069   9.268   2.612   6.678 -0.4845  0.4466 -0.0685
19883SOL    HW161070   9.209   2.623   6.752  0.9047  0.1455  1.1174
19883SOL    HW261071   9.349   2.577   6.716  1.1757  2.6674 -1.3386
19884SOL     OW61072   2.144   0.210   1.308 -0.0473  0.6761 -0.0849
19884SOL    HW161073   2.080   0.215   1.237  0.7608 -0.3705 -0.9340
19884SOL    HW261074   2.195   0.290   1.299  1.6072 -0.5071 -2.3081
19885SOL     OW61075   8.050   1.161   5.000  0.5267 -0.3631 -0.2221
19885SOL    HW161076   7.956   1.164   5.020  0.6873  2.2088  0.4926
19885SOL    HW261077   8.091   1.131   5.081  0.4933  1.5655  0.5750
19886SOL     OW61078   7.531   0.425   1.913  0.1526 -0.6232 -0.1708
19886SOL    HW161079   7.613   0.469   1.891  0.3534 -0.8872  0.0482
19886SOL    HW261080   7.464   0.474   1.865  0.5236 -0.8977 -0.9733
19887SOL     OW61081   5.272   6.219   2.278  0.3521  0.4630 -0.1725
19887SOL    HW161082   5.304   6.303   2.310 -0.2343  0.9703 -0.8630
19887SOL    HW261083   5.284   6.224   2.183 -1.3338  0.5140 -0.4161
19888SOL     OW61084   2.404   8.282   3.835 -0.0668 -0.2222  0.4159
19888SOL    HW161085   2.432   8.361   3.789  0.2160  0.0473  1.0394
19888SOL    HW261086   2.457   8.280   3.914 -0.3622 -0.8194  0.6049
19889SOL     OW61087   7.114   1.456   6.713 -0.0019 -0.4115  1.0962
19889SOL    HW161088   7.077   1.372   6.686 -1.7683 -0.0296  2.2362
19889SOL    HW261089   7.143   1.497   6.631 -0.4045 -1.5164  0.3892
19890SOL     OW61090   5.416   8.804   9.044  0.0494 -0.0411  0.4465
19890SOL    HW161091   5.483   8.855   9.089  1.4779 -1.1282 -0.3527
19890SOL    HW261092   5.463   8.759   8.974 -1.8964  0.8167 -1.5517
19891SOL     OW61093   1.765   5.548   3.745 -0.3074  0.1584  0.1566
19891SOL    HW161094   1.709   5.543   3.668 -0.2247  0.9041  0.0443
19891SOL    HW261095   1.710   5.590   3.812  0.6923  2.7789 -0.5323
19892SOL     OW61096   2.556   1.129   1.468 -0.1144 -0.2450  0.6631
19892SOL    HW161097   2.599   1.063   1.522  1.4341  0.6525  0.5740
19892SOL    HW261098   2.506   1.181   1.531  2.4105  1.3733  1.4696
19893SOL     OW61099   9.259   0.404   4.439 -1.0452 -0.0534 -0.4195
19893SOL    HW161100   9.234   0.404   4.346 -0.3454  0.1405 -0.6165
19893SOL    HW261101   9.184   0.366   4.484 -1.6596  0.4643 -0.9922
19894SOL     OW61102   5.215   6.391   8.099 -0.0629  0.0210  0.1389
19894SOL    HW161103   5.230   6.447   8.022  0.5405 -0.5544 -0.1708
19894SOL    HW261104   5.223   6.302   8.065  0.0596 -0.2383  0.8438
19895SOL     OW61105   0.626   3.186   1.205 -0.5310 -0.1646 -0.4611
19895SOL    HW161106   0.642   3.165   1.113  1.3783  0.8652 -0.3986
19895SOL    HW261107   0.682   3.125   1.254 -0.0756  0.5645 -0.0618
19896SOL     OW61108   2.832   4.665   8.697  0.1846  0.1680  0.5345
19896SOL    HW161109   2.854   4.756   8.675 -0.8181  0.4038  0.4823
19896SOL    HW261110   2.825   4.621   8.612  1.0242 -0.0553  0.5707
19897SOL     OW61111   6.838   1.803   3.113 -0.1117 -0.1222 -0.2455
19897SOL    HW161112   6.778   1.876   3.095 -0.1022  0.2412  1.1182
19897SOL    HW261113   6.782   1.725   3.109 -0.8106  0.2507  1.4466
19898SOL     OW61114   3.210   2.847   0.923  0.6337 -0.1542  0.1280
19898SOL    HW161115   3.233   2.762   0.886 -0.1325  0.1814 -1.2265
19898SOL    HW261116   3.116   2.839   0.942  0.7322  0.1316  0.7271
19899SOL     OW61117   8.442   2.698   4.019 -0.2731  0.0392 -0.3655
19899SOL    HW161118   8.349   2.719   4.034 -0.7099 -0.9443 -1.5683
19899SOL    HW261119   8.484   2.721   4.102 -1.5133  0.9009  0.0692
19900SOL     OW61120   4.529   0.946   3.324 -0.1481  0.3268 -0.1056
19900SOL    HW161121   4.494   0.939   3.413 -1.6821 -1.1886 -0.7780
19900SOL    HW261122   4.456   0.979   3.272 -1.4404 -4.4899 -1.8686
19901SOL     OW61123   5.586   3.277   7.467  0.0437  0.4845  0.2084
19901SOL    HW161124   5.516   3.328   7.425  0.0394  1.1597  0.9966
19901SOL    HW261125   5.577   3.189   7.430 -1.1196  0.5978  0.1605
19902SOL     OW61126   7.170   3.653   2.416  0.0433 -0.6612 -0.0812
19902SOL    HW161127   7.109   3.669   2.344  1.2098  1.2465 -0.7253
19902SOL    HW261128   7.230   3.587   2.383 -0.2431 -0.7971 -0.3383
19903SOL     OW61129   9.197   4.080   7.718 -0.2753  0.6123 -0.2489
19903SOL    HW161130   9.134   4.152   7.710  0.9114  1.5739 -1.1671
19903SOL    HW261131   9.282   4.123   7.723  0.4585 -0.7366 -0.7658
19904SOL     OW61132   8.230   1.001   2.019 -0.6570 -0.2888 -0.4202
19904SOL    HW161133   8.216   1.016   2.113 -0.2965 -1.8490 -0.0791
19904SOL    HW261134   8.162   0.937   1.995  0.1445 -0.9821 -0.8756
19905SOL     OW61135   7.220   4.910   6.556 -0.3621 -0.1844 -0.4502
19905SOL    HW161136   7.174   4.855   6.619 -2.8021  0.9622 -1.0796
19905SOL    HW261137   7.151   4.942   6.498  1.6344 -0.3503 -3.0866
19906SOL     OW61138   3.903   3.870   4.520  0.2449  0.4660 -0.2319
19906SOL    HW161139   3.879   3.818   4.597 -3.1166  0.2815 -1.2702
19906SOL    HW261140   3.956   3.810   4.467 -0.6200 -0.7362  0.2033
19907SOL     OW61141   4.519   7.354   1.285 -0.1474 -0.2361 -0.2568
19907SOL    HW161142   4.521   7.385   1.376  2.6612  1.0070 -0.6330
19907SOL    HW261143   4.440   7.393   1.248 -1.0565 -0.3349  1.4873
19908SOL     OW61144   7.590   7.198   6.128 -0.4752 -0.7499  0.2288
19908SOL    HW161145   7.577   7.246   6.210  0.6883  0.1456 -0.0766
19908SOL    HW261146   7.656   7.132   6.149 -0.1978 -0.5385  0.0259
19909SOL     OW61147   2.160   3.827   8.235 -0.0951  0.2000 -0.7882
19909SOL    HW161148   2.246   3.785   8.225  0.3193  1.1706 -1.3892
19909SOL    HW261149   2.097   3.758   8.215  0.4388 -1.1808  1.7998
19910SOL     OW61150   4.762   8.120   1.240  0.0122 -0.0116  0.4465
19910SOL    HW161151   4.770   8.098   1.147 -0.0848  0.6427  0.2831
19910SOL    HW261152   4.670   8.106   1.259  0.3975 -2.1838  0.9748
19911SOL     OW61153   8.580   5.530   6.725 -0.3150 -0.0428  0.0859
19911SOL    HW161154   8.524   5.533   6.802 -1.1374 -0.5243 -0.4772
19911SOL    HW261155   8.665   5.560   6.756 -0.0241 -2.2487  1.7226
19912SOL     OW61156   0.871   8.112   4.589  0.1302 -0.0329 -0.4891
19912SOL    HW161157   0.894   8.061   4.511 -1.4349  0.2961 -1.1995
19912SOL    HW261158   0.793   8.069   4.623 -0.3119  0.9668 -0.2123
19913SOL     OW61159   8.093   8.350   5.601 -0.2670 -0.3248 -0.3266
19913SOL    HW161160   8.023   8.359   5.537  0.0928 -1.8536 -0.9922
19913SOL    HW261161   8.173   8.346   5.549  0.2421  0.4687  0.3694
19914SOL     OW61162   1.265   0.281   5.685 -0.2861 -0.0842  0.6491
19914SOL    HW161163   1.252   0.243   5.597 -1.0199 -0.4190  0.8927
19914SOL    HW261164   1.317   0.360   5.669  2.1077 -1.6172  0.2074
19915SOL     OW61165   2.698   8.134   0.030  0.7594 -0.7018 -0.4192
19915SOL    HW161166   2.782   8.089   0.032  0.0555 -2.0520 -0.1195
19915SOL    HW261167   2.660   8.119   0.116  0.8218  1.1599 -0.0195
19916SOL     OW61168   3.244   6.351   2.224 -0.0812  0.1829  0.3499
19916SOL    HW161169   3.332   6.328   2.193  1.0897  4.9848 -0.7528
19916SOL    HW261170   3.190   6.350   2.145 -0.1839  0.3919  0.4179
19917SOL     OW61171   7.233   4.175   0.401 -0.8898 -0.6693  0.5199
19917SOL    HW161172   7.196   4.087   0.413 -0.9498 -0.9487 -1.3006
19917SOL    HW261173   7.170   4.219   0.345  0.0534 -0.1150 -0.1288
19918SOL     OW61174   7.529   2.945   0.407 -0.3261  0.0788 -0.3424
19918SOL    HW161175   7.573   2.896   0.338  1.3923  0.7441  0.2222
19918SOL    HW261176   7.543   2.894   0.486  2.4168  1.8646  0.4594
19919SOL     OW61177   6.716   9.109   1.515  0.1433  0.6354  0.2512
19919SOL    HW161178   6.768   9.146   1.444 -1.7853 -0.4039 -1.8397
19919SOL    HW261179   6.775   9.047   1.559  1.2081  0.8384 -0.8414
19920SOL     OW61180   4.511   4.042   7.814 -0.4897  0.4157  1.2897
19920SOL    HW161181   4.486   4.008   7.900 -0.8190 -0.3135  0.9062
19920SOL    HW261182   4.577   3.980   7.782 -0.5076  0.5789  0.9323
19921SOL     OW61183   2.816   6.176   3.309  0.2106  0.2657 -0.0684
19921SOL    HW161184   2.795   6.240   3.241 -2.0868 -2.3814 -2.1338
19921SOL    HW261185   2.749   6.189   3.376 -0.7490 -0.4115 -0.8671
19922SOL     OW61186   5.761   6.775   3.647  0.5808  0.0923 -0.2552
19922SOL    HW161187   5.755   6.706   3.713 -0.9128  0.4425  0.0108
19922SOL    HW261188   5.837   6.751   3.594  0.3482 -1.5189  0.0970
19923SOL     OW61189   0.600   0.866   1.810 -0.3801 -0.7178  0.1412
19923SOL    HW161190   0.675   0.837   1.758 -0.5422 -2.2489  0.7271
19923SOL    HW261191   0.630   0.948   1.851  0.5731 -0.7376 -0.4912
19924SOL     OW61192   1.596   5.023   0.537  0.3963  0.3397 -0.0159
19924SOL    HW161193   1.634   5.109   0.553 -0.4859  0.9927 -1.2169
19924SOL    HW261194   1.669   4.962   0.547  0.9938  1.1919  1.0371
19925SOL     OW61195   0.075   7.312   1.549  0.2694 -0.0899 -0.2283
19925SOL    HW161196   0.033   7.278   1.628  0.0983  1.2539  0.2921
19925SOL    HW261197   0.146   7.367   1.582 -0.2202  1.0289 -0.9691
19926SOL     OW61198   7.085   2.742   0.222 -0.3058  0.0983 -0.4314
19926SOL    HW161199   7.087   2.835   0.245 -1.2328  0.1194 -0.4057
19926SOL    HW261200   6.992   2.722   0.211 -0.1894 -1.0544  0.4941
19927SOL     OW61201   1.625   5.842   4.589  0.0417  0.9271  0.5821
19927SOL    HW161202   1.656   5.777   4.652  0.1658  3.7760  3.7186
19927SOL    HW261203   1.530   5.830   4.588  0.1405  0.1225  0.4408
19928SOL     OW61204   0.920   0.115   5.664 -0.3527  0.3959 -0.0362
19928SOL    HW161205   0.894   0.044   5.722  0.4331 -1.2172 -1.5484
19928SOL    HW261206   0.867   0.102   5.586  0.6720  0.6933 -0.8075
19929SOL     OW61207   3.193   2.796   0.272  0.1295  0.8205  0.3404
19929SOL    HW161208   3.266   2.780   0.212  0.3737  0.3252  0.7592
19929SOL    HW261209   3.126   2.838   0.218  1.0999  2.2387  0.1560
19930SOL     OW61210   8.784   7.807   5.599  0.1716  0.1065 -0.0647
19930SOL    HW161211   8.759   7.737   5.538 -0.7129 -0.4064  0.8586
19930SOL    HW261212   8.758   7.774   5.685 -0.2432  1.5636  0.3948
19931SOL     OW61213   1.986   7.031   3.880 -0.0146 -0.3223 -0.3980
19931SOL    HW161214   2.009   7.109   3.829  1.1160 -0.6097 -0.3610
19931SOL    HW261215   1.909   6.995   3.835  0.7282 -0.3618 -1.6879
19932SOL     OW61216   0.918   3.436   5.119  0.4205 -0.9730  0.2424
19932SOL    HW161217   1.000   3.396   5.090  1.5036  0.0214  1.7683
19932SOL    HW261218   0.884   3.480   5.042  2.2926  0.1194 -0.0402
19933SOL     OW61219   4.593   5.142   3.883  0.3582  0.3565  0.1940
19933SOL    HW161220   4.614   5.049   3.878 -0.8907  0.0432  0.2329
19933SOL    HW261221   4.638   5.174   3.961  3.8030  0.6650 -1.7373
19934SOL     OW61222   5.895   4.898   5.803  0.0679  0.0803  0.1491
19934SOL    HW161223   5.966   4.952   5.767 -0.6796  0.2095 -1.1914
19934SOL    HW261224   5.851   4.955   5.866  0.7769  0.1967  0.5580
19935SOL     OW61225   6.057   3.517   1.294 -0.0465 -0.0072 -0.6540
19935SOL    HW161226   6.101   3.588   1.341  0.8533 -0.3750 -0.9170
19935SOL    HW261227   5.982   3.559   1.252 -0.4666  0.4665  0.5088
19936SOL     OW61228   2.138   2.461   6.678  0.5801 -0.0260 -0.7761
19936SOL    HW161229   2.142   2.376   6.633 -0.5318 -0.7491  0.4030
19936SOL    HW261230   2.062   2.505   6.639  0.6710  0.0819 -0.8298
19937SOL     OW61231   6.014   0.686   8.917 -0.5697 -0.2864  0.0639
19937SOL    HW161232   5.946   0.731   8.967 -0.7199 -0.3300 -0.0979
19937SOL    HW261233   6.096   0.714   8.956 -0.5708  1.3354 -1.0147
19938SOL     OW61234   5.420   5.466   2.981  0.3069 -0.5895 -0.3265
19938SOL    HW161235   5.386   5.413   2.909  1.8098 -0.6654 -1.0224
19938SOL    HW261236   5.476   5.405   3.030  3.6141  0.6591 -2.2279
19939SOL     OW61237   7.075   8.809   3.137 -0.0228 -0.5887 -0.4394
19939SOL    HW161238   7.003   8.790   3.077 -1.1471 -0.1003  0.7024
19939SOL    HW261239   7.150   8.826   3.080 -1.0786 -0.0042 -1.7054
19940SOL     OW61240   8.256   4.838   3.574 -0.1009 -0.7307 -0.0020
19940SOL    HW161241   8.280   4.748   3.593  0.9441 -0.2667  1.0869
19940SOL    HW261242   8.269   4.884   3.658 -1.2923  0.2937 -0.3490
19941SOL     OW61243   0.854   1.546   4.045 -0.2752 -0.0309 -0.2541
19941SOL    HW161244   0.945   1.566   4.023 -0.2107  0.2994  0.3000
19941SOL    HW261245   0.820   1.502   3.967  0.2324  0.2357 -0.6329
19942SOL     OW61246   8.229   6.925   2.634  0.3592 -0.1712 -0.3154
19942SOL    HW161247   8.159   6.861   2.629 -0.7648  1.1047 -2.4160
19942SOL    HW261248   8.234   6.948   2.726 -1.4071 -0.9377  0.0147
19943SOL     OW61249   5.951   7.586   1.874 -0.1203  0.0484  0.7829
19943SOL    HW161250   5.919   7.536   1.799  0.2278  0.4871  0.3324
19943SOL    HW261251   5.887   7.657   1.884  0.3992  0.6126  0.2190
19944SOL     OW61252   8.877   8.352   0.316  0.8470 -0.2222  0.2554
19944SOL    HW161253   8.912   8.360   0.405  0.9533  0.3277  0.1641
19944SOL    HW261254   8.789   8.317   0.328 -0.2840  2.6081  0.7864
19945SOL     OW61255   9.171   3.795   4.812 -0.5055  0.0707 -0.7116
19945SOL    HW161256   9.251   3.771   4.765  0.4512 -0.2041  0.9475
19945SOL    HW261257   9.195   3.873   4.862 -1.0921 -0.3350  0.2336
19946SOL     OW61258   2.058   0.677   7.226 -0.3932  0.2187  0.1936
19946SOL    HW161259   2.078   0.590   7.262 -0.3508 -0.6253 -1.7344
19946SOL    HW261260   2.121   0.688   7.154  0.0093  2.1363  0.7865
19947SOL     OW61261   1.737   8.111   8.851  0.4155  0.2749  0.1483
19947SOL    HW161262   1.770   8.056   8.922  0.8592 -1.0077 -1.0077
19947SOL    HW261263   1.643   8.097   8.852  0.1958  1.5801  1.5208
19948SOL     OW61264   5.094   4.209   6.123  0.0203  0.2053  0.3516
19948SOL    HW161265   5.109   4.298   6.092 -0.1381  0.1659  0.1565
19948SOL    HW261266   5.098   4.215   6.218 -0.2466  0.4658  0.3450
19949SOL     OW61267   4.048   5.311   6.126 -0.2362 -0.2539 -0.6260
19949SOL    HW161268   4.041   5.388   6.182  0.0195  0.5495 -1.6727
19949SOL    HW261269   3.983   5.325   6.057  0.4218 -0.5416 -1.3181
19950SOL     OW61270   6.498   5.517   1.940  0.1835 -0.2442  0.2597
19950SOL    HW161271   6.501   5.455   2.013 -0.5156 -1.9667 -1.1224
19950SOL    HW261272   6.568   5.488   1.881  1.2646  1.6056  0.5508
19951SOL     OW61273   0.519   8.208   9.157  0.6671 -0.4854  0.4063
19951SOL    HW161274   0.521   8.230   9.064  1.7094 -1.5012  0.1503
19951SOL    HW261275   0.465   8.275   9.197 -1.3471 -1.0636 -1.1909
19952SOL     OW61276   1.859   3.972   6.368 -0.0621 -0.2064  0.0932
19952SOL    HW161277   1.893   3.923   6.443 -0.7444 -4.1537 -1.9405
19952SOL    HW261278   1.764   3.964   6.375 -0.3240  2.4895  0.5994
19953SOL     OW61279   6.200   6.448   9.077 -0.4243  0.4078  0.4139
19953SOL    HW161280   6.123   6.498   9.048  0.1729  0.5041 -1.0783
19953SOL    HW261281   6.275   6.500   9.049  0.2135 -0.0140  1.2674
19954SOL     OW61282   3.469   0.085   6.548  0.4028 -0.3560  0.0682
19954SOL    HW161283   3.492  -0.004   6.574 -1.8685 -0.7556  0.9226
19954SOL    HW261284   3.399   0.074   6.484 -0.7128  0.8080  1.0458
19955SOL     OW61285   6.733   3.009   6.761  0.2181  0.0565  0.4286
19955SOL    HW161286   6.785   3.071   6.710 -1.0495  0.4222 -0.4555
19955SOL    HW261287   6.644   3.043   6.757 -0.4503 -1.6315  0.2355
19956SOL     OW61288   0.893   8.475   6.565  0.7589  0.2810 -0.1212
19956SOL    HW161289   0.842   8.395   6.549  1.3704  0.3829 -3.3296
19956SOL    HW261290   0.984   8.445   6.571  0.8445  0.5970  0.1990
19957SOL     OW61291   0.700   0.151   6.164 -0.0577 -0.0321  0.6532
19957SOL    HW161292   0.679   0.098   6.241 -0.0723  0.9031  1.3207
19957SOL    HW261293   0.793   0.136   6.149 -0.5215 -1.9831 -0.5712
19958SOL     OW61294   0.368   6.623   6.512 -0.1018  0.1472 -0.7220
19958SOL    HW161295   0.286   6.579   6.490 -1.8729  1.8089  1.8815
19958SOL    HW261296   0.407   6.569   6.580  0.4965 -0.1375 -1.2821
19959SOL     OW61297   6.926   2.739   8.204 -0.4871  0.2418  0.2192
19959SOL    HW161298   6.841   2.732   8.161  0.0099 -0.9751 -0.6458
19959SOL    HW261299   6.979   2.669   8.164  1.3898  1.8994 -0.3762
19960SOL     OW61300   4.722   5.138   0.745 -0.0570 -0.2487  0.4962
19960SOL    HW161301   4.787   5.155   0.677 -0.8713 -0.2680 -0.3057
19960SOL    HW261302   4.698   5.046   0.735 -0.6728 -0.0825  0.3583
19961SOL     OW61303   3.280   0.210   8.120 -0.7365 -0.3016 -0.4546
19961SOL    HW161304   3.297   0.219   8.213 -0.6821  0.8945 -0.5647
19961SOL    HW261305   3.185   0.196   8.114 -0.6510 -1.0647 -0.1980
19962SOL     OW61306   2.899   3.225   0.631  0.0746  0.5374 -0.2593
19962SOL    HW161307   2.940   3.139   0.644 -0.7289  0.5404  3.7491
19962SOL    HW261308   2.816   3.205   0.588 -0.5580 -0.9411  1.4953
19963SOL     OW61309   8.601   3.739   8.430  0.2879  0.3366  0.5553
19963SOL    HW161310   8.589   3.751   8.336 -0.9808  0.5270  0.7294
19963SOL    HW261311   8.663   3.666   8.438  0.9456  0.7741 -0.4235
19964SOL     OW61312   1.099   4.425   4.623  0.7358 -0.7348 -0.4153
19964SOL    HW161313   1.178   4.371   4.617  1.8000  0.6145  0.6792
19964SOL    HW261314   1.030   4.372   4.583  2.4070 -1.4882 -2.4860
19965SOL     OW61315   7.822   0.237   8.641 -0.1357  0.4989  0.5449
19965SOL    HW161316   7.885   0.283   8.696 -0.0354 -0.5065  1.3075
19965SOL    HW261317   7.736   0.266   8.671 -0.1967 -1.8556  3.0205
19966SOL     OW61318   5.681   6.434   3.130  0.6133 -1.0032 -0.2707
19966SOL    HW161319   5.738   6.406   3.057  0.0240  1.7780 -1.9429
19966SOL    HW261320   5.607   6.476   3.087 -1.3516 -2.0383  1.9390
19967SOL     OW61321   8.900   1.899   4.074  0.4850 -0.1001  0.4122
19967SOL    HW161322   8.962   1.903   4.147  1.1480  0.7452 -0.1653
19967SOL    HW261323   8.840   1.828   4.096  0.1081  0.7300  2.2134
19968SOL     OW61324   0.261   5.501   3.861  0.2285  0.3604  0.3182
19968SOL    HW161325   0.297   5.538   3.942  1.8406  2.0466 -1.0761
19968SOL    HW261326   0.301   5.414   3.856  5.0237  2.3150 -1.4292
19969SOL     OW61327   5.505   6.828   1.223 -0.0159 -0.4127  0.0795
19969SOL    HW161328   5.463   6.748   1.253  0.5367 -1.1924 -1.1470
19969SOL    HW261329   5.539   6.868   1.302  0.0442 -1.5993  0.6771
19970SOL     OW61330   8.460   7.338   7.104  0.5616 -0.2500 -0.3958
19970SOL    HW161331   8.464   7.426   7.142  1.3631 -0.8203  0.9251
19970SOL    HW261332   8.489   7.280   7.174 -1.4125 -1.7550 -0.7097
19971SOL     OW61333   5.794   8.907   7.626  0.1325  0.4496 -0.5295
19971SOL    HW161334   5.757   8.856   7.698 -0.9520 -1.3760 -2.2733
19971SOL    HW261335   5.883   8.926   7.654  0.1306 -1.2305  0.8203
19972SOL     OW61336   7.187   5.604   3.306  0.0207 -0.3584 -0.0628
19972SOL    HW161337   7.259   5.624   3.366  0.7484  1.1355 -1.3681
19972SOL    HW261338   7.227   5.606   3.219 -1.4065 -0.5158 -0.7490
19973SOL     OW61339   1.525   8.140   4.020 -0.3182 -0.3226  0.4115
19973SOL    HW161340   1.549   8.052   4.048 -0.0206  0.0980  1.5445
19973SOL    HW261341   1.609   8.184   4.004 -0.4185  0.1347  1.1073
19974SOL     OW61342   2.178   7.602   1.026 -0.2677  0.1013  0.0551
19974SOL    HW161343   2.158   7.547   0.950  1.8481 -0.1826 -0.3611
19974SOL    HW261344   2.095   7.609   1.073 -1.3848 -0.6092 -1.6965
19975SOL     OW61345   3.151   1.192   2.251 -0.0684  0.4091 -0.2533
19975SOL    HW161346   3.208   1.147   2.313  1.7801  1.9853 -0.7346
19975SOL    HW261347   3.170   1.151   2.167 -1.0231 -0.2840 -0.1521
19976SOL     OW61348   6.132   4.974   5.652  0.0095 -0.0800  1.1504
19976SOL    HW161349   6.199   4.922   5.607 -0.6432 -1.8093  2.1098
19976SOL    HW261350   6.095   5.029   5.583 -1.2764 -2.9677 -0.6609
19977SOL     OW61351   0.143   3.982   3.705  1.0196  0.2730  0.3977
19977SOL    HW161352   0.057   3.958   3.671  1.7023 -0.8195 -0.6430
19977SOL    HW261353   0.133   4.073   3.733 -0.2666  0.4101 -0.4199
19978SOL     OW61354   0.678   8.368   2.894 -0.2839 -0.3301  0.1064
19978SOL    HW161355   0.593   8.410   2.889  1.3205  3.4399  1.0376
19978SOL    HW261356   0.668   8.300   2.961 -2.7214 -0.5871 -0.4606
19979SOL     OW61357   2.477   5.738   6.256  0.1758  0.2671 -0.3218
19979SOL    HW161358   2.424   5.817   6.262  1.7940  1.3910 -0.3055
19979SOL    HW261359   2.545   5.759   6.192  0.0584 -1.4797 -1.0818
19980SOL     OW61360   6.981   3.485   8.105 -0.0190 -0.1376  0.1118
19980SOL    HW161361   7.029   3.561   8.071 -1.2093  0.6341  0.1008
19980SOL    HW261362   7.033   3.410   8.077  0.1860  0.5804 -1.5483
19981SOL     OW61363   1.389   4.881   7.813  0.3401 -0.3119  0.2678
19981SOL    HW161364   1.428   4.794   7.822  0.4272 -0.3017  0.0145
19981SOL    HW261365   1.442   4.937   7.869  1.0480 -0.1896 -0.4929
19982SOL     OW61366   2.087   3.019   8.177  0.4404 -0.5785 -0.2952
19982SOL    HW161367   2.073   3.081   8.105  0.9801 -1.1606 -0.9237
19982SOL    HW261368   2.173   3.043   8.212 -0.6782  1.0213  1.5324
19983SOL     OW61369   5.847   1.238   6.448 -0.2223 -0.7774 -0.0927
19983SOL    HW161370   5.931   1.195   6.435  0.5200  0.2842  0.9976
19983SOL    HW261371   5.826   1.278   6.364  1.4342  0.7701  0.1884
19984SOL     OW61372   8.304   2.605   6.475  0.6355 -0.4111  0.3485
19984SOL    HW161373   8.362   2.663   6.426  1.1626 -1.5075 -0.3776
19984SOL    HW261374   8.357   2.526   6.490 -0.1142 -0.7713  1.1430
19985SOL     OW61375   3.045   2.420   2.228 -0.4441  0.0654  0.1027
19985SOL    HW161376   3.074   2.449   2.314 -0.7904 -2.5308  1.1880
19985SOL    HW261377   3.125   2.409   2.177 -0.1503  0.4851  0.4730
19986SOL     OW61378   8.414   0.918   0.976 -0.5162 -0.2036  0.0751
19986SOL    HW161379   8.430   0.922   1.070  0.7873 -1.1093 -0.0733
19986SOL    HW261380   8.436   0.828   0.952 -1.3850 -0.1490 -1.0097
19987SOL     OW61381   0.382   6.469   4.587  0.3646  0.0576  0.1478
19987SOL    HW161382   0.324   6.481   4.511  1.0103 -1.7933 -0.7198
19987SOL    HW261383   0.433   6.549   4.591  0.2978  0.2245 -1.3817
19988SOL     OW61384   1.523   2.605   1.142 -0.0517 -0.4517  0.0156
19988SOL    HW161385   1.558   2.548   1.074  0.1303  0.1638 -0.4180
19988SOL    HW261386   1.428   2.599   1.132 -0.0538 -1.1217  0.3563
19989SOL     OW61387   7.725   5.930   5.687  0.2159  0.1569  0.0376
19989SOL    HW161388   7.711   5.861   5.752  0.8567 -0.3448 -0.3385
19989SOL    HW261389   7.815   5.916   5.656 -0.7221 -0.9264 -2.4592
19990SOL     OW61390   2.854   2.705   0.253  0.2658  0.1386 -0.6389
19990SOL    HW161391   2.913   2.769   0.213  1.1086 -0.1695  0.0724
19990SOL    HW261392   2.868   2.625   0.203  1.0552 -0.1490  0.0171
19991SOL     OW61393   7.736   2.265   8.552 -0.0765  0.2174  0.2018
19991SOL    HW161394   7.796   2.191   8.557  1.3262  1.2836 -0.2035
19991SOL    HW261395   7.714   2.285   8.643 -0.8988 -0.9981  0.2965
19992SOL     OW61396   0.602   8.409   3.468  0.3546 -0.1867 -0.4378
19992SOL    HW161397   0.510   8.420   3.491 -0.0538  0.7065 -2.3093
19992SOL    HW261398   0.639   8.359   3.541 -1.6513 -0.7944  0.2305
19993SOL     OW61399   1.265   5.519   5.359 -0.2174  0.1809 -0.2711
19993SOL    HW161400   1.316   5.566   5.293 -1.3961 -1.4452 -2.5058
19993SOL    HW261401   1.193   5.578   5.381  1.1836  1.4729  1.0063
19994SOL     OW61402   4.890   9.017   1.270  0.3128 -0.1265 -0.5000
19994SOL    HW161403   4.900   9.048   1.360 -0.5433  0.0580 -0.4578
19994SOL    HW261404   4.951   8.944   1.263 -0.0453 -0.5273  0.4203
19995SOL     OW61405   7.909   6.299   6.098  0.5174  0.2997 -0.2176
19995SOL    HW161406   7.896   6.266   6.187  1.7790  0.2889 -0.0287
19995SOL    HW261407   8.003   6.289   6.081  0.1189 -0.8998 -2.0292
19996SOL     OW61408   5.271   0.365   0.785 -0.1274  0.7205  0.1077
19996SOL    HW161409   5.182   0.393   0.809  0.4977  3.2081 -0.2854
19996SOL    HW261410   5.317   0.358   0.869 -0.5321 -0.0387  0.2725
19997SOL     OW61411   5.870   5.372   2.651 -0.4028 -0.0752  0.1457
19997SOL    HW161412   5.800   5.369   2.716  0.2631  3.3627  1.2503
19997SOL    HW261413   5.945   5.332   2.694 -0.6927 -0.3390  0.4072
19998SOL     OW61414   1.054   1.635   3.648  0.2935  0.2823  0.1739
19998SOL    HW161415   1.051   1.720   3.692  0.2864  0.4259 -0.1017
19998SOL    HW261416   1.148   1.619   3.634  0.2778  0.4127 -0.0932
19999SOL     OW61417   3.258   3.403   4.333 -0.1424 -0.5418  0.1077
19999SOL    HW161418   3.338   3.453   4.318 -0.3932 -0.2974 -0.4110
19999SOL    HW261419   3.188   3.457   4.297 -0.2878 -1.8071 -1.6094
20000SOL     OW61420   4.888   5.076   7.809 -0.2713 -0.0530 -0.0258
20000SOL    HW161421   4.872   5.089   7.716  0.6753  0.6759 -0.0982
20000SOL    HW261422   4.920   4.986   7.816 -0.6849 -0.2290 -0.3502
20001SOL     OW61423   4.082   7.662   5.401  0.5381 -0.4073  0.3344
20001SOL    HW161424   4.051   7.747   5.432 -0.3651 -0.1903 -1.0795
20001SOL    HW261425   4.039   7.650   5.317  1.1004 -2.0186  0.2449
20002SOL     OW61426   1.865   3.537   2.011 -0.2635 -0.1898  0.3083
20002SOL    HW161427   1.875   3.445   2.035  1.6339  0.1365  0.8707
20002SOL    HW261428   1.949   3.562   1.972 -0.7752  1.2876  0.0747
20003SOL     OW61429   5.733   8.995   6.480  0.1890 -0.0825  0.3948
20003SOL    HW161430   5.753   9.053   6.406 -1.6330 -0.1722 -0.2310
20003SOL    HW261431   5.801   8.927   6.477  1.3074  1.0146  0.0487
20004SOL     OW61432   6.533   1.254   4.042 -0.1102  0.2031 -0.2859
20004SOL    HW161433   6.591   1.204   3.984 -0.8499  0.7195 -1.4961
20004SOL    HW261434   6.514   1.334   3.994 -1.5275  0.2111  0.2386
20005SOL     OW61435   2.399   7.561   0.641  0.4551 -0.4649  0.7283
20005SOL    HW161436   2.312   7.522   0.646  0.4016 -0.9376 -2.3512
20005SOL    HW261437   2.382   7.654   0.626  0.5048 -0.4100  1.0063
20006SOL     OW61438   7.897   6.008   3.928  0.4419 -0.0728  0.1113
20006SOL    HW161439   7.980   6.029   3.972  0.3407  1.5540 -0.3804
20006SOL    HW261440   7.831   6.012   3.998  0.5577  0.3830  0.1978
20007SOL     OW61441   1.520   0.015   7.873 -0.0096  0.4243 -0.0507
20007SOL    HW161442   1.528   0.040   7.965  0.9903  0.6375 -0.1873
20007SOL    HW261443   1.525  -0.080   7.873 -0.7722  0.3804  0.1837
20008SOL     OW61444   0.625   3.544   0.933  0.4633 -0.2650  0.1087
20008SOL    HW161445   0.555   3.492   0.972  1.0876 -1.5076 -0.3360
20008SOL    HW261446   0.641   3.615   0.995  0.7638 -1.6115  1.6356
20009SOL     OW61447   3.564   4.296   3.229  0.5767 -0.1802  0.2167
20009SOL    HW161448   3.476   4.265   3.211  0.0405  0.9055  0.9061
20009SOL    HW261449   3.616   4.267   3.153 -0.6786  0.4568 -0.9209
20010SOL     OW61450   2.753   1.911   1.671  0.1855 -0.1838 -0.1241
20010SOL    HW161451   2.689   1.870   1.613  1.1950 -0.6988 -0.9038
20010SOL    HW261452   2.708   1.988   1.707 -0.2601  0.5248 -2.1023
20011SOL     OW61453   6.945   5.655   5.016 -0.1425  0.6196  0.9018
20011SOL    HW161454   6.975   5.682   4.929  1.2029 -0.4230  1.0097
20011SOL    HW261455   6.966   5.729   5.073 -0.5038  1.0787  0.4477
20012SOL     OW61456   8.693   3.892   4.284  0.5010  0.0305 -0.0272
20012SOL    HW161457   8.735   3.841   4.216  0.1054  0.9835 -1.0162
20012SOL    HW261458   8.604   3.908   4.252  1.0146  2.5131 -0.4518
20013SOL     OW61459   9.081   8.126   3.703  0.1918  0.0284  0.3672
20013SOL    HW161460   9.047   8.112   3.615  3.3400  0.0321 -0.9540
20013SOL    HW261461   9.081   8.221   3.714  2.2655  0.1911 -0.7450
20014SOL     OW61462   0.358   9.232   8.810  0.2065 -0.6132 -0.5319
20014SOL    HW161463   0.354   9.192   8.896  1.0085  2.2951  1.0085
20014SOL    HW261464   0.444   9.274   8.807  0.0198 -0.2446 -2.5660
20015SOL     OW61465   1.160   4.639   8.311  0.3118  0.2846  0.5664
20015SOL    HW161466   1.234   4.579   8.303 -1.7073 -2.1904 -0.8027
20015SOL    HW261467   1.179   4.709   8.249  1.3247 -0.4922 -0.0288
20016SOL     OW61468   3.956   4.817   0.496 -0.0980 -0.1279 -0.3666
20016SOL    HW161469   3.932   4.801   0.405 -0.5138 -0.6906 -0.1634
20016SOL    HW261470   3.967   4.730   0.534  1.8272  0.0779 -0.3239
20017SOL     OW61471   2.296   1.015   8.830 -0.0829  0.4793 -0.2923
20017SOL    HW161472   2.300   1.103   8.867  0.4103 -0.0202  0.8793
20017SOL    HW261473   2.386   0.982   8.839 -0.4041 -0.3686 -0.1665
20018SOL     OW61474   0.672   7.295   0.981  0.2170  0.2485 -0.4635
20018SOL    HW161475   0.645   7.203   0.976 -1.7446  0.7663 -0.2691
20018SOL    HW261476   0.636   7.326   1.064  1.4128  1.0444 -0.2172
20019SOL     OW61477   3.895   3.014   6.595  0.0327  0.0053 -0.4752
20019SOL    HW161478   3.896   2.942   6.532  0.4949  1.1843 -1.8846
20019SOL    HW261479   3.821   3.069   6.566 -0.2913  0.1224  0.5553
20020SOL     OW61480   1.073   1.366   2.404 -0.7107 -0.0304  0.0896
20020SOL    HW161481   1.009   1.307   2.443 -0.1790 -0.8159 -0.2010
20020SOL    HW261482   1.042   1.454   2.426 -1.5069 -0.4182  0.5357
20021SOL     OW61483   8.655   5.522   2.151  0.3897 -0.4447 -0.0516
20021SOL    HW161484   8.581   5.463   2.138  0.2308  0.0122 -1.3774
20021SOL    HW261485   8.712   5.505   2.076  0.8101  0.3917  0.0745
20022SOL     OW61486   3.879   0.422   0.708 -0.0577 -0.3104 -0.0694
20022SOL    HW161487   3.828   0.365   0.652  1.7162 -0.1927 -1.9352
20022SOL    HW261488   3.894   0.372   0.788 -1.4054 -1.0773 -0.2832
20023SOL     OW61489   5.880   7.952   8.173 -0.5227 -0.7070  0.5459
20023SOL    HW161490   5.830   7.944   8.255  0.6926 -0.9993  1.2866
20023SOL    HW261491   5.851   7.878   8.120 -1.7887 -0.1561  0.4311
20024SOL     OW61492   5.502   8.311   5.076  0.4041 -0.1905 -0.2732
20024SOL    HW161493   5.567   8.272   5.017  1.4226 -0.5951  1.0637
20024SOL    HW261494   5.519   8.269   5.161 -2.2981 -1.0885 -0.0998
20025SOL     OW61495   5.827   6.024   7.348 -0.3410 -0.3476 -0.1391
20025SOL    HW161496   5.851   6.105   7.304 -0.0921  0.7664  1.9081
20025SOL    HW261497   5.747   6.047   7.396  0.1715 -1.0625  1.0917
20026SOL     OW61498   6.715   3.512   8.121 -0.1138 -0.2558  0.2032
20026SOL    HW161499   6.810   3.507   8.129 -0.0211  1.5682  0.7370
20026SOL    HW261500   6.682   3.491   8.208 -0.0630  1.0475  0.5656
20027SOL     OW61501   4.611   9.049   8.422 -0.1618 -0.3746  0.1976
20027SOL    HW161502   4.567   8.978   8.468 -2.2572 -0.2773 -1.5218
20027SOL    HW261503   4.589   9.128   8.471 -0.1288 -0.5818  0.5433
20028SOL     OW61504   5.352   6.249   4.430 -0.1234 -0.1713 -0.6403
20028SOL    HW161505   5.351   6.154   4.444 -0.6793  0.1407  2.0766
20028SOL    HW261506   5.264   6.270   4.402 -0.5595 -0.3018  0.5543
20029SOL     OW61507   3.842   0.198   2.265 -0.3116  0.5084  0.0783
20029SOL    HW161508   3.912   0.229   2.207 -1.0398  1.0278 -0.5599
20029SOL    HW261509   3.863   0.107   2.282 -0.0930  0.3268 -1.0572
20030SOL     OW61510   8.947   7.905   3.491 -0.0334 -0.3374  0.7886
20030SOL    HW161511   8.950   7.870   3.580  0.1128  0.0152  0.9212
20030SOL    HW261512   9.037   7.898   3.459 -0.3546 -1.8541  0.1288
20031SOL     OW61513   1.934   8.373   0.166  0.3834 -0.2338  0.6142
20031SOL    HW161514   1.948   8.409   0.078 -0.8214 -0.6838  0.2183
20031SOL    HW261515   1.989   8.427   0.223  0.0146  1.0641 -0.2081
20032SOL     OW61516   9.071   5.866   0.945 -0.9900 -0.3093 -0.2940
20032SOL    HW161517   9.060   5.959   0.965  0.8502 -0.5489  2.1210
20032SOL    HW261518   9.156   5.860   0.902 -1.4563 -0.8104 -1.1810
20033SOL     OW61519   7.195   2.029   1.191 -0.7009 -0.4268 -0.3703
20033SOL    HW161520   7.268   1.978   1.155 -0.0425  0.6171 -0.5649
20033SOL    HW261521   7.150   2.065   1.115 -0.1582  0.6180 -0.2237
20034SOL     OW61522   4.731   2.390   7.808 -0.1467 -0.1257  0.0911
20034SOL    HW161523   4.760   2.300   7.822 -0.7727 -0.1574  1.2227
20034SOL    HW261524   4.811   2.442   7.819  1.0002 -0.7208 -3.8557
20035SOL     OW61525   6.084   7.092   3.303  0.2248 -0.4600 -0.0794
20035SOL    HW161526   6.115   7.013   3.348 -0.5237  0.1197  1.5497
20035SOL    HW261527   6.156   7.154   3.311  0.6720 -0.8405 -1.0358
20036SOL     OW61528   1.896   6.641   2.427 -0.2719  0.0581  0.1125
20036SOL    HW161529   1.862   6.564   2.381  0.9399 -2.4087  3.0392
20036SOL    HW261530   1.991   6.638   2.413 -0.1896  0.9521  0.3867
20037SOL     OW61531   5.747   0.078   3.044 -0.1540  0.8347 -0.3387
20037SOL    HW161532   5.776   0.158   2.999  0.1269  0.6540 -0.4815
20037SOL    HW261533   5.810   0.011   3.017  0.7096  0.9721  1.1918
20038SOL     OW61534   3.804   2.285   1.782  0.1332 -0.0333 -0.3490
20038SOL    HW161535   3.863   2.212   1.799  0.2036  0.0019 -0.4439
20038SOL    HW261536   3.717   2.247   1.782  0.3059 -0.5886 -3.0104
20039SOL     OW61537   2.019   3.485   7.022 -0.3318  0.2908  0.0154
20039SOL    HW161538   2.109   3.508   7.046 -0.3960  1.8075 -1.0169
20039SOL    HW261539   2.022   3.391   7.005  0.8302  0.1345  0.8981
20040SOL     OW61540   1.481   6.889   1.189 -0.3082  0.5084  0.2904
20040SOL    HW161541   1.475   6.883   1.093  0.3905 -1.3481  0.3208
20040SOL    HW261542   1.392   6.869   1.219 -0.8851  2.4793  0.0368
20041SOL     OW61543   4.846   4.625   6.935 -0.1020 -0.2664 -0.3424
20041SOL    HW161544   4.855   4.565   6.860  1.9859  0.2593 -0.5707
20041SOL    HW261545   4.933   4.664   6.945 -1.1675  2.0955  0.3475
20042SOL     OW61546   5.517   0.768   1.201 -0.1396  1.0235 -0.0962
20042SOL    HW161547   5.504   0.775   1.296 -1.9256 -2.0728  0.0239
20042SOL    HW261548   5.607   0.737   1.191 -0.2449  0.4349  0.6723
20043SOL     OW61549   1.521   3.805   0.715 -0.2941  0.2251 -0.2254
20043SOL    HW161550   1.472   3.860   0.776 -0.5007  1.2815 -1.3011
20043SOL    HW261551   1.453   3.753   0.671  0.0369 -2.5161  2.2250
20044SOL     OW61552   5.769   1.214   7.299  0.3519  0.1230  0.2012
20044SOL    HW161553   5.757   1.264   7.380 -0.7217  4.0383 -2.1297
20044SOL    HW261554   5.857   1.239   7.269  0.1705 -0.1257 -0.5500
20045SOL     OW61555   5.077   5.031   8.688  0.0054  0.4524 -0.3555
20045SOL    HW161556   5.017   4.957   8.685  2.0091 -1.3447  1.1302
20045SOL    HW261557   5.024   5.106   8.662 -3.0832 -0.8536  1.6833
20046SOL     OW61558   1.728   3.988   3.165 -0.0500 -0.0426 -0.4259
20046SOL    HW161559   1.769   4.066   3.129  1.3398 -0.2024  0.7028
20046SOL    HW261560   1.648   4.019   3.207  0.2573  0.6993 -0.3858
20047SOL     OW61561   7.302   7.830   4.404 -0.1076 -0.0610 -0.1181
20047SOL    HW161562   7.388   7.817   4.445 -0.2518  0.5816  0.4131
20047SOL    HW261563   7.320   7.883   4.327  0.0505 -0.4894 -0.3807
20048SOL     OW61564   1.688   5.394   5.675 -0.6057  0.1313 -0.8174
20048SOL    HW161565   1.627   5.321   5.666  0.7284 -1.0879 -0.4919
20048SOL    HW261566   1.730   5.401   5.589  2.5717 -2.6706  0.2435
20049SOL     OW61567   3.036   8.063   6.638  0.3130  0.4151 -0.3701
20049SOL    HW161568   3.121   8.095   6.609  2.0546 -2.5843  1.0193
20049SOL    HW261569   3.026   8.099   6.726 -1.0316  2.5642 -1.2916
20050SOL     OW61570   0.117   4.479   2.001  0.2682 -0.6728  0.9692
20050SOL    HW161571   0.036   4.449   2.042 -0.1864 -0.2665  0.3837
20050SOL    HW261572   0.186   4.433   2.048 -0.2222 -0.0100  2.3654
20051SOL     OW61573   8.167   7.329   2.428 -0.2952 -0.3161  0.6868
20051SOL    HW161574   8.214   7.351   2.348 -0.7483 -1.5641  0.0434
20051SOL    HW261575   8.217   7.257   2.466 -1.4336 -1.4434  0.1600
20052SOL     OW61576   6.961   5.696   0.176  0.3503 -0.1550  0.1632
20052SOL    HW161577   7.055   5.688   0.158  0.1396 -4.2068 -0.0560
20052SOL    HW261578   6.937   5.781   0.140  3.9751  1.2281  0.6096
20053SOL     OW61579   1.236   8.820   4.818 -0.7066  0.4437 -0.7959
20053SOL    HW161580   1.205   8.759   4.885 -1.8566  0.1798 -1.5467
20053SOL    HW261581   1.332   8.817   4.825 -0.7873  1.1515  1.4711
20054SOL     OW61582   1.960   9.167   5.538  0.2311  0.6412 -0.5185
20054SOL    HW161583   1.971   9.148   5.631 -1.0197 -0.5426 -0.5833
20054SOL    HW261584   1.880   9.218   5.533 -0.3206 -0.2608 -1.0453
20055SOL     OW61585   3.942   9.187   9.210 -0.5890 -0.2981  0.0627
20055SOL    HW161586   3.869   9.243   9.236 -0.4146  0.7389 -1.5507
20055SOL    HW261587   3.985   9.235   9.140  0.5209 -1.7595 -0.2990
20056SOL     OW61588   2.086   1.189   9.241 -0.1481  0.2072  0.3742
20056SOL    HW161589   2.144   1.141   9.300  0.9070  1.7283  0.6604
20056SOL    HW261590   2.091   1.143   9.158  0.2302 -0.5885  0.8329
20057SOL     OW61591   4.199   5.686   3.416 -0.5601  0.1317 -0.0872
20057SOL    HW161592   4.226   5.760   3.470  2.8643  0.1028 -1.5133
20057SOL    HW261593   4.189   5.613   3.478 -0.7433  1.0157  0.9441
20058SOL     OW61594   5.336   2.976   1.288 -0.6068 -0.2928  0.1500
20058SOL    HW161595   5.329   3.044   1.355  0.1463 -0.4498  0.4057
20058SOL    HW261596   5.376   2.902   1.333 -1.3599 -0.8890 -0.1461
20059SOL     OW61597   1.989   6.209   5.887  0.4660 -0.4455  0.6891
20059SOL    HW161598   2.001   6.114   5.895 -0.5744 -0.5306  1.4463
20059SOL    HW261599   1.896   6.223   5.905  0.0049  0.4703 -1.8671
20060SOL     OW61600   9.151   3.575   6.433  0.3051  0.2927 -0.4242
20060SOL    HW161601   9.201   3.648   6.469  0.9974 -0.2495 -0.2653
20060SOL    HW261602   9.117   3.528   6.510  0.0336  0.3333 -0.5197
20061SOL     OW61603   9.245   2.808   2.757 -0.0958  0.2781 -0.4111
20061SOL    HW161604   9.273   2.900   2.759  1.5447 -0.1860  1.6023
20061SOL    HW261605   9.327   2.758   2.765 -1.1245 -1.3026  0.8815
20062SOL     OW61606   2.032   1.600   1.701  0.6932  0.1147  0.2291
20062SOL    HW161607   2.007   1.616   1.792 -0.4987  1.9483 -0.3910
20062SOL    HW261608   2.005   1.509   1.685 -2.0059  0.7385  0.7918
20063SOL     OW61609   6.054   1.705   8.602 -0.3667 -0.4262 -0.4516
20063SOL    HW161610   6.149   1.709   8.614 -0.5631  0.3413  1.0714
20063SOL    HW261611   6.042   1.640   8.533  1.2921 -0.0143 -1.1839
20064SOL     OW61612   4.341   4.171   2.320 -0.2836  0.2920  0.4493
20064SOL    HW161613   4.358   4.198   2.410  1.6004  0.0327  0.2013
20064SOL    HW261614   4.372   4.243   2.266  0.7953 -0.5130 -0.0513
20065SOL     OW61615   0.739   2.054   7.336  0.1909 -0.2183 -0.4165
20065SOL    HW161616   0.703   2.106   7.264 -0.6278 -0.8657 -0.4948
20065SOL    HW261617   0.709   2.099   7.415 -0.4791 -0.5343 -0.4838
20066SOL     OW61618   5.719   3.981   3.436  0.4930 -0.5262 -0.1156
20066SOL    HW161619   5.670   4.058   3.465 -0.0974 -0.8148 -0.3341
20066SOL    HW261620   5.727   3.926   3.515  0.6888 -0.3691 -0.0227
20067SOL     OW61621   1.240   6.534   1.352 -0.3548 -0.0354  0.1007
20067SOL    HW161622   1.308   6.591   1.388 -0.2219 -0.5352  0.6725
20067SOL    HW261623   1.273   6.509   1.266  0.6373 -0.9901  0.7221
20068SOL     OW61624   2.507   2.475   2.884  0.2360  0.3173 -0.7743
20068SOL    HW161625   2.559   2.454   2.807  0.2139 -0.4144 -0.5968
20068SOL    HW261626   2.490   2.569   2.876  2.0106  0.6892 -0.5617
20069SOL     OW61627   1.994   0.110   1.512 -0.0643 -0.3345  0.2750
20069SOL    HW161628   2.047   0.147   1.442 -0.2777 -1.3988 -0.4679
20069SOL    HW261629   1.996   0.177   1.581  0.0420  0.7737 -0.7751
20070SOL     OW61630   2.442   5.346   4.296 -0.0644 -0.3701  0.3622
20070SOL    HW161631   2.404   5.260   4.282  0.2428 -0.2920 -1.0563
20070SOL    HW261632   2.392   5.383   4.370 -1.4848 -0.9904 -0.2595
20071SOL     OW61633   7.447   4.840   4.953  0.2526 -0.1715  0.2995
20071SOL    HW161634   7.354   4.838   4.930  0.5819  0.0557 -1.1225
20071SOL    HW261635   7.468   4.933   4.964  0.2646 -0.2359  0.8705
20072SOL     OW61636   5.862   1.291   5.436  0.2538 -0.1469 -0.7410
20072SOL    HW161637   5.816   1.321   5.358 -0.7370  0.5609  0.0899
20072SOL    HW261638   5.809   1.218   5.469  2.3245 -2.5758 -2.4087
20073SOL     OW61639   5.621   0.348   1.264  0.2917  1.0688  0.8574
20073SOL    HW161640   5.642   0.436   1.297 -1.1689  0.9089  2.3313
20073SOL    HW261641   5.687   0.292   1.304  0.2032  1.2627  1.2800
20074SOL     OW61642   0.889   5.178   9.041 -0.6546  0.1209  0.3150
20074SOL    HW161643   0.802   5.208   9.016  0.1576  0.8430 -1.8578
20074SOL    HW261644   0.932   5.256   9.076 -0.6645 -0.0795  0.7763
20075SOL     OW61645   4.253   7.915   9.014  0.9406  0.5847 -0.1102
20075SOL    HW161646   4.293   7.912   9.101  0.2244 -0.2944  0.1967
20075SOL    HW261647   4.308   7.859   8.960  0.4043 -0.2612  0.2041
20076SOL     OW61648   6.473   6.529   5.882 -0.7189 -0.6411  0.4424
20076SOL    HW161649   6.441   6.607   5.927 -1.3798 -0.9799  0.5726
20076SOL    HW261650   6.554   6.557   5.839  0.6397 -0.5688  2.8273
20077SOL     OW61651   2.555   9.144   2.298 -0.1243 -0.4593  0.4834
20077SOL    HW161652   2.638   9.190   2.317  0.8968 -1.5651 -1.0739
20077SOL    HW261653   2.505   9.153   2.379  1.5051  0.2576  1.4888
20078SOL     OW61654   5.744   0.361   5.422 -0.3858  0.0388 -0.2185
20078SOL    HW161655   5.743   0.372   5.327 -0.5160 -2.0715 -0.4924
20078SOL    HW261656   5.657   0.388   5.451 -0.7623 -0.4928 -0.8524
20079SOL     OW61657   1.589   3.613   5.801 -0.3311 -0.1497 -0.9312
20079SOL    HW161658   1.621   3.696   5.767  1.7257 -0.0358  1.0440
20079SOL    HW261659   1.650   3.547   5.768 -1.0240 -0.6608 -1.2135
20080SOL     OW61660   4.156   4.682   2.116  0.1687 -0.2613  0.3144
20080SOL    HW161661   4.095   4.738   2.164 -0.2494  0.1547 -0.6700
20080SOL    HW261662   4.227   4.741   2.091  0.0853 -0.3303 -0.0918
20081SOL     OW61663   2.325   7.865   4.943 -0.3596  0.1317 -0.5556
20081SOL    HW161664   2.306   7.944   4.994  0.4088  0.2669 -0.4681
20081SOL    HW261665   2.249   7.808   4.959 -0.9235  0.8451 -0.6248
20082SOL     OW61666   3.626   1.873   4.069  0.2878  0.2977  0.1186
20082SOL    HW161667   3.617   1.802   4.133  1.0898  0.3764  0.3241
20082SOL    HW261668   3.605   1.831   3.985 -0.9977  0.2506  0.4368
20083SOL     OW61669   6.429   0.688   9.277 -0.1998  0.2787 -0.6399
20083SOL    HW161670   6.418   0.599   9.242 -2.5270  1.0581 -2.0766
20083SOL    HW261671   6.422   0.745   9.200  2.3600  1.7303  0.0891
20084SOL     OW61672   3.079   2.588   6.672 -0.5402 -0.1346 -0.1119
20084SOL    HW161673   3.067   2.680   6.695  0.0903  0.0927 -0.6774
20084SOL    HW261674   3.121   2.590   6.587 -1.4603 -0.9642 -0.6068
20085SOL     OW61675   3.727   0.560   9.181  0.0988 -0.3507 -0.4555
20085SOL    HW161676   3.637   0.573   9.211  0.1591  1.8696 -1.0153
20085SOL    HW261677   3.742   0.466   9.187 -1.4233 -0.5132  2.0209
20086SOL     OW61678   5.383   8.127   7.707 -0.3898  0.0391 -0.5471
20086SOL    HW161679   5.357   8.061   7.642 -0.5448  0.1425 -0.5903
20086SOL    HW261680   5.446   8.183   7.661 -0.8157  0.3656 -0.7426
20087SOL     OW61681   8.324   6.781   1.667  0.7568 -0.0539  0.3842
20087SOL    HW161682   8.259   6.748   1.605  1.1747 -0.0939 -0.0378
20087SOL    HW261683   8.366   6.854   1.622  3.1673 -1.9292 -0.6531
20088SOL     OW61684   7.909   8.038   6.382  0.1566  0.1175  0.1829
20088SOL    HW161685   7.895   7.976   6.453  0.3664 -0.9657 -0.6881
20088SOL    HW261686   7.991   8.081   6.404 -0.7920  1.3027  1.6258
20089SOL     OW61687   0.157   8.685   1.495  0.0950  0.1715 -0.3479
20089SOL    HW161688   0.238   8.642   1.521 -1.0323 -1.2235  1.0815
20089SOL    HW261689   0.129   8.638   1.417 -0.5257 -0.9979  0.5373
20090SOL     OW61690   7.228   3.965   2.080  0.3325  0.2279  0.0431
20090SOL    HW161691   7.276   3.938   2.159 -0.4269 -1.3369  0.0247
20090SOL    HW261692   7.276   3.925   2.008 -0.1543 -0.1317 -0.0917
20091SOL     OW61693   0.058   3.896   8.579  0.6344  0.2668 -0.0643
20091SOL    HW161694  -0.023   3.874   8.534  0.4872 -0.9359  0.7308
20091SOL    HW261695   0.126   3.846   8.533  0.6451 -0.1198  0.3613
20092SOL     OW61696   6.046   0.541   5.746  0.4250 -0.0836  0.9465
20092SOL    HW161697   6.003   0.618   5.783 -0.9174 -0.0100 -0.6216
20092SOL    HW261698   6.016   0.539   5.654  0.8071 -2.1767  0.8158
20093SOL     OW61699   6.913   5.660   8.195 -0.1178  0.3246 -0.4113
20093SOL    HW161700   6.878   5.745   8.222  1.2178  0.5328  0.7839
20093SOL    HW261701   6.921   5.611   8.277  1.4417 -0.0539 -0.7708
20094SOL     OW61702   0.197   2.694   2.791 -0.2442  0.3771  0.3633
20094SOL    HW161703   0.279   2.734   2.822  0.6466 -1.2832  0.3161
20094SOL    HW261704   0.184   2.620   2.851 -0.3995 -0.7930 -1.0672
20095SOL     OW61705   6.722   7.986   2.515  0.6666  0.5470 -0.1397
20095SOL    HW161706   6.745   7.975   2.607 -0.2451  1.1122  0.1726
20095SOL    HW261707   6.631   8.017   2.517  0.5800  0.4019 -1.2349
20096SOL     OW61708   4.430   2.402   8.072  0.4525 -0.1626 -0.0051
20096SOL    HW161709   4.457   2.451   7.994 -0.7737  0.2741 -0.1741
20096SOL    HW261710   4.499   2.420   8.136  0.8808  0.4195 -0.6135
20097SOL     OW61711   7.696   4.411   3.703  0.3454 -0.1890 -0.0242
20097SOL    HW161712   7.761   4.442   3.765  0.0064  0.4936  0.0042
20097SOL    HW261713   7.712   4.317   3.695  2.1920  0.1669 -1.0309
20098SOL     OW61714   9.225   1.140   5.932 -0.5550 -0.3092  0.7280
20098SOL    HW161715   9.304   1.121   5.882  1.2728  3.1424  1.9523
20098SOL    HW261716   9.180   1.208   5.882 -0.2949  1.0012  2.2022
20099SOL     OW61717   5.626   4.989   9.120  0.4736 -0.2818 -0.1257
20099SOL    HW161718   5.679   4.913   9.096  0.2596 -0.5299  0.1688
20099SOL    HW261719   5.592   5.022   9.038  0.9534 -0.2163 -0.3036
20100SOL     OW61720   5.792   5.422   9.180  0.0977  0.3202  0.4440
20100SOL    HW161721   5.731   5.420   9.106  1.1682 -0.2620 -0.4649
20100SOL    HW261722   5.863   5.364   9.154  0.9597  0.8314  1.5435
20101SOL     OW61723   6.506   8.969   7.895 -0.0170 -0.0241  0.1775
20101SOL    HW161724   6.419   9.009   7.904 -0.2909 -0.6589  0.4057
20101SOL    HW261725   6.541   9.004   7.813 -0.9233 -0.5664 -0.4585
20102SOL     OW61726   2.350   8.192   8.014 -0.0600 -0.2826 -0.3346
20102SOL    HW161727   2.282   8.177   7.948  0.8821 -1.8596 -0.9969
20102SOL    HW261728   2.403   8.263   7.977 -1.0628  0.6535 -0.0169
20103SOL     OW61729   2.898   6.034   4.271  0.1814  0.3082 -0.1347
20103SOL    HW161730   2.917   6.064   4.360  0.6303 -2.6454  0.8694
20103SOL    HW261731   2.803   6.042   4.264  0.2031  1.1861  0.3330
20104SOL     OW61732   7.123   9.005   5.510  0.0459 -0.5125  0.2994
20104SOL    HW161733   7.145   9.064   5.438 -0.5575  0.0782  0.5856
20104SOL    HW261734   7.085   8.928   5.468 -1.7705  0.4866  0.0458
20105SOL     OW61735   5.040   5.448   9.158 -0.1270 -0.0041 -0.2366
20105SOL    HW161736   5.091   5.429   9.237  1.1838  0.4920 -0.9216
20105SOL    HW261737   4.966   5.500   9.189  0.2163 -0.0579  0.7045
20106SOL     OW61738   6.051   6.287   2.234 -0.6685  0.5710 -0.2425
20106SOL    HW161739   5.969   6.246   2.263  0.0809  0.4741  1.9557
20106SOL    HW261740   6.077   6.238   2.157 -1.5472 -0.8599  0.3333
20107SOL     OW61741   0.239   5.329   3.346 -0.1602 -0.0900 -0.7098
20107SOL    HW161742   0.274   5.318   3.434  0.0811  1.5687 -0.5726
20107SOL    HW261743   0.268   5.251   3.299 -1.0757 -1.4620  0.8973
20108SOL     OW61744   6.432   4.231   5.668 -0.3003  0.2681 -0.1324
20108SOL    HW161745   6.376   4.187   5.732  0.7337 -1.4332 -0.3147
20108SOL    HW261746   6.416   4.324   5.681 -0.4033 -0.0404  2.3248
20109SOL     OW61747   4.955   2.707   2.138  0.1117 -0.6369  0.3235
20109SOL    HW161748   5.047   2.730   2.133  0.0234 -0.1105  0.9749
20109SOL    HW261749   4.950   2.641   2.207  0.2589 -2.1155 -1.0342
20110SOL     OW61750   4.059   9.096   7.880 -0.2415 -0.9013 -0.0425
20110SOL    HW161751   3.967   9.107   7.904 -0.2061 -0.4771 -0.0986
20110SOL    HW261752   4.106   9.160   7.933  0.1412 -1.7868  0.7135
20111SOL     OW61753   5.109   7.573   7.655  0.4894  0.0351  0.9485
20111SOL    HW161754   5.039   7.636   7.667  0.7901  0.5952 -0.1020
20111SOL    HW261755   5.066   7.494   7.622  0.3240  0.3062  0.5120
20112SOL     OW61756   6.133   0.797   7.758  0.3270 -0.3796  0.2196
20112SOL    HW161757   6.183   0.721   7.785  1.3421 -0.4492 -1.6230
20112SOL    HW261758   6.123   0.850   7.837  1.0783 -1.6190  1.1636
20113SOL     OW61759   7.770   8.417   4.010 -0.5377  0.1894  0.6687
20113SOL    HW161760   7.754   8.322   4.011  2.6839 -0.4551  1.0266
20113SOL    HW261761   7.851   8.427   3.959 -0.5735  2.7159  0.9993
20114SOL     OW61762   8.721   8.650   8.011  0.2398  0.8062  0.2220
20114SOL    HW161763   8.791   8.622   7.953  0.8338  2.9174 -0.1814
20114SOL    HW261764   8.647   8.670   7.953  0.2543  1.2631  0.3518
20115SOL     OW61765   0.195   5.227   7.501 -0.2804  0.6588  0.4396
20115SOL    HW161766   0.243   5.267   7.429 -0.1747  0.7409  0.5545
20115SOL    HW261767   0.164   5.302   7.554 -1.2996  0.6461 -0.1160
20116SOL     OW61768   4.947   0.988   9.033  0.1416 -0.1804  0.1038
20116SOL    HW161769   5.026   1.009   8.983  0.1106 -0.3302 -0.0092
20116SOL    HW261770   4.948   0.893   9.040 -0.7615 -0.3018 -1.1284
20117SOL     OW61771   9.048   0.507   7.495  0.5623 -0.5515  1.1594
20117SOL    HW161772   8.990   0.453   7.441 -0.4824  1.4805  0.1249
20117SOL    HW261773   9.136   0.476   7.473  0.2030  0.2673 -1.9514
20118SOL     OW61774   0.026   7.670   1.406  0.1816  1.0944 -0.5234
20118SOL    HW161775   0.040   7.614   1.330 -1.7588 -0.9722  0.5262
20118SOL    HW261776   0.081   7.631   1.474 -1.8758 -0.2595  0.4780
20119SOL     OW61777   2.358   0.739   2.872 -0.2120  0.5968  0.1993
20119SOL    HW161778   2.431   0.801   2.872  0.0424  0.2977 -0.2247
20119SOL    HW261779   2.330   0.733   2.781 -0.7933  0.7352  0.3612
20120SOL     OW61780   8.369   4.881   2.604 -0.2825  0.6663 -0.4755
20120SOL    HW161781   8.324   4.818   2.548 -2.1086  1.3383  0.1621
20120SOL    HW261782   8.367   4.963   2.554 -1.6321  1.1905  0.3904
20121SOL     OW61783   8.144   1.300   1.531 -0.3936 -0.0586 -0.3440
20121SOL    HW161784   8.211   1.237   1.503  1.3341  0.7021  1.7377
20121SOL    HW261785   8.078   1.298   1.462  1.0102 -2.0175 -1.7376
20122SOL     OW61786   2.729   6.150   2.453 -0.0635  0.1429  0.0547
20122SOL    HW161787   2.742   6.152   2.358 -0.5518  0.2545 -0.0114
20122SOL    HW261788   2.639   6.181   2.465  1.0844  3.5571  0.7876
20123SOL     OW61789   7.788   6.049   5.336  0.0772  0.2517  0.0959
20123SOL    HW161790   7.792   6.115   5.406 -0.8203 -0.7050  1.1116
20123SOL    HW261791   7.759   6.098   5.259  0.5860  1.2531  0.5184
20124SOL     OW61792   9.201   5.622   5.369  0.1847  0.1185  0.3934
20124SOL    HW161793   9.268   5.672   5.323 -0.0889  0.6015  0.5079
20124SOL    HW261794   9.236   5.533   5.374 -0.2401 -0.2015 -1.6700
20125SOL     OW61795   0.036   8.636   0.477  0.3817  0.2420  0.3471
20125SOL    HW161796   0.021   8.653   0.384 -0.6315  1.2879  0.6694
20125SOL    HW261797   0.014   8.719   0.520 -0.4251 -0.5995  1.6269
20126SOL     OW61798   3.463   4.508   8.137 -0.0187  0.4585  0.3307
20126SOL    HW161799   3.431   4.591   8.102 -0.5954  1.2091  2.4668
20126SOL    HW261800   3.556   4.523   8.152  0.4331 -0.1584 -1.5369
20127SOL     OW61801   8.548   1.461   9.264  0.3503  0.1859 -0.4567
20127SOL    HW161802   8.555   1.529   9.331  0.6910 -0.0947 -0.2010
20127SOL    HW261803   8.639   1.438   9.244  0.2398 -0.4063 -0.3152
20128SOL     OW61804   6.654   0.728   6.981  0.5797  0.4034 -0.0486
20128SOL    HW161805   6.633   0.737   7.074 -1.6955  0.4348 -0.4951
20128SOL    HW261806   6.708   0.804   6.961  0.2972  0.9231  1.0566
20129SOL     OW61807   6.893   8.809   6.618  0.1195 -0.6929 -0.4550
20129SOL    HW161808   6.927   8.795   6.706 -1.7483  2.0819  0.8708
20129SOL    HW261809   6.914   8.901   6.598 -1.1577 -0.6989 -2.0740
20130SOL     OW61810   9.006   2.564   8.512  0.7514  0.0883 -0.9145
20130SOL    HW161811   9.048   2.575   8.427 -0.0933  2.2002 -1.1009
20130SOL    HW261812   8.997   2.653   8.546  1.6567 -0.7167  1.6956
20131SOL     OW61813   7.603   2.793   2.481  0.3364 -0.0943 -0.1757
20131SOL    HW161814   7.686   2.839   2.492  0.0431  0.5031 -0.4118
20131SOL    HW261815   7.537   2.861   2.488 -0.0860 -0.4050 -1.0487
20132SOL     OW61816   0.698   6.380   0.960 -0.2004 -0.2669  0.2907
20132SOL    HW161817   0.792   6.376   0.975  0.1002 -0.2826 -1.4670
20132SOL    HW261818   0.684   6.461   0.911 -0.6590 -1.7811 -2.2196
20133SOL     OW61819   5.759   0.795   0.513  0.1471 -0.2752  0.0586
20133SOL    HW161820   5.805   0.731   0.458  2.0205  0.9678  0.0567
20133SOL    HW261821   5.830   0.841   0.559 -0.8942  3.2964 -1.5945
20134SOL     OW61822   6.436   1.649   5.474  0.3612  0.1200 -0.1846
20134SOL    HW161823   6.523   1.667   5.439 -0.6386  2.3638 -1.7783
20134SOL    HW261824   6.376   1.692   5.412 -1.8079 -0.1192  1.6169
20135SOL     OW61825   5.862   0.960   1.362  0.3478  0.0615 -0.0581
20135SOL    HW161826   5.769   0.945   1.379  0.0472 -1.2334 -2.4364
20135SOL    HW261827   5.906   0.888   1.409  0.0127 -0.2450 -0.2079
20136SOL     OW61828   6.832   4.519   6.237 -0.6216 -0.2851 -0.8739
20136SOL    HW161829   6.841   4.561   6.151 -1.3684 -1.4328 -1.5494
20136SOL    HW261830   6.738   4.516   6.252 -0.4489  1.0697  0.6059
20137SOL     OW61831   9.139   5.931   2.285  0.0638  0.1072 -0.1980
20137SOL    HW161832   9.070   5.867   2.273  0.2990 -0.4196  1.0678
20137SOL    HW261833   9.102   6.013   2.252 -0.2314 -0.6469 -1.8558
20138SOL     OW61834   6.509   8.115   1.737  0.3283 -0.4681 -0.1332
20138SOL    HW161835   6.581   8.156   1.785  0.0980 -0.0754 -0.1168
20138SOL    HW261836   6.529   8.130   1.645  1.6336 -2.6551 -0.2809
20139SOL     OW61837   7.821   5.797   0.107  0.2274  0.2180  0.2865
20139SOL    HW161838   7.766   5.728   0.143 -0.4474  2.2230  3.4661
20139SOL    HW261839   7.789   5.809   0.017 -1.9937 -1.1799  0.8268
20140SOL     OW61840   0.556   2.517   0.549 -0.1237  0.0837  0.6544
20140SOL    HW161841   0.505   2.441   0.523  1.2659 -0.4482 -0.6962
20140SOL    HW261842   0.642   2.481   0.572  1.2804  1.3559 -2.1164
20141SOL     OW61843   4.191   1.361   9.063  0.2856  0.5480 -0.3368
20141SOL    HW161844   4.280   1.368   9.028  0.1314  1.3945 -0.5839
20141SOL    HW261845   4.138   1.414   9.004 -0.3032  0.4579  0.1047
20142SOL     OW61846   6.391   8.485   5.063  0.3943 -0.0421  0.0990
20142SOL    HW161847   6.311   8.529   5.091  1.2488  1.2314  0.6394
20142SOL    HW261848   6.362   8.397   5.037 -0.9170 -0.2825  2.0720
20143SOL     OW61849   2.330   5.063   4.608 -0.3891  0.0678  0.4475
20143SOL    HW161850   2.323   5.068   4.513 -0.1235  1.8571  0.4880
20143SOL    HW261851   2.307   5.150   4.639 -0.3558 -0.4413  2.0331
20144SOL     OW61852   6.687   7.837   4.928  0.7124  0.5211  0.2267
20144SOL    HW161853   6.684   7.876   4.840  0.0688 -0.8163 -0.3729
20144SOL    HW261854   6.780   7.829   4.948  0.8760  2.4004  0.4170
20145SOL     OW61855   5.288   8.209   4.963 -0.0853  0.3554  0.2132
20145SOL    HW161856   5.345   8.163   4.902 -0.4174  0.1380  0.0655
20145SOL    HW261857   5.347   8.248   5.027  0.1962 -0.3233  0.3718
20146SOL     OW61858   4.233   9.017   7.707 -0.3170  0.7797  0.5313
20146SOL    HW161859   4.308   9.006   7.766 -0.9290  1.4105  1.4556
20146SOL    HW261860   4.162   9.046   7.764 -1.1846  0.4951 -0.3841
20147SOL     OW61861   3.490   4.670   3.336 -0.0035 -0.5819 -0.0110
20147SOL    HW161862   3.455   4.753   3.371  2.0270 -0.4597  1.9977
20147SOL    HW261863   3.509   4.689   3.244 -1.0615  0.6563 -0.0097
20148SOL     OW61864   4.386   2.406   6.934  0.3461 -0.1123  0.1224
20148SOL    HW161865   4.365   2.498   6.919  0.7732 -0.0512 -0.0982
20148SOL    HW261866   4.414   2.373   6.849 -1.3970 -0.8885 -0.2052
20149SOL     OW61867   1.704   0.322   8.584  0.2774  0.2806  0.0008
20149SOL    HW161868   1.638   0.385   8.557  0.6950 -0.2292 -2.4814
20149SOL    HW261869   1.781   0.374   8.606 -0.9842  0.9177  3.4376
20150SOL     OW61870   7.790   2.531   2.818  0.3078  0.0483 -0.0141
20150SOL    HW161871   7.781   2.627   2.815  0.0518  0.0410  0.4748
20150SOL    HW261872   7.763   2.507   2.906  2.4047 -0.2724  0.5945
20151SOL     OW61873   7.551   4.453   6.453 -0.0945 -0.0763 -0.8245
20151SOL    HW161874   7.466   4.496   6.446 -0.0095  0.4001  0.6947
20151SOL    HW261875   7.554   4.422   6.544  1.1436 -0.5448 -1.0119
20152SOL     OW61876   3.833   6.413   6.053  0.5354  0.2634  0.2955
20152SOL    HW161877   3.829   6.324   6.016  0.5643  0.1579  0.5437
20152SOL    HW261878   3.784   6.406   6.135 -0.0981  0.6548 -0.0378
20153SOL     OW61879   8.203   0.944   7.308  0.7332 -0.1181 -0.4063
20153SOL    HW161880   8.200   0.986   7.394 -0.2545 -0.4466 -0.2719
20153SOL    HW261881   8.147   0.867   7.317  2.3567 -1.3983 -0.7061
20154SOL     OW61882   6.697   2.246   7.681 -0.3345 -0.4524  0.3692
20154SOL    HW161883   6.776   2.194   7.667 -0.7549 -0.7337 -1.0718
20154SOL    HW261884   6.628   2.181   7.695 -0.3761 -0.2116  1.3397
20155SOL     OW61885   2.983   2.915   0.622  0.0043  0.2490  0.3134
20155SOL    HW161886   2.943   2.852   0.562  0.0397  1.0107 -0.5489
20155SOL    HW261887   2.911   2.945   0.678 -0.4256  0.7899 -0.4981
20156SOL     OW61888   1.579   4.432   1.376 -0.0831  0.0899  0.1858
20156SOL    HW161889   1.492   4.408   1.343  0.1120 -0.9973  0.4366
20156SOL    HW261890   1.620   4.349   1.400  0.1180  0.7711  2.3819
20157SOL     OW61891   7.705   2.513   3.778 -0.0571 -0.3355 -0.5572
20157SOL    HW161892   7.649   2.438   3.762  1.7197 -1.8021 -0.2179
20157SOL    HW261893   7.753   2.491   3.858 -0.6080  1.8747  0.4799
20158SOL     OW61894   8.511   8.983   5.362  0.3616  0.6258  0.5565
20158SOL    HW161895   8.565   8.923   5.310  0.2206 -0.9124  2.0697
20158SOL    HW261896   8.425   8.941   5.365 -0.0412  1.4551  0.7841
20159SOL     OW61897   2.645   3.033   2.412  0.7951  0.2115  0.4848
20159SOL    HW161898   2.702   3.102   2.378  0.6344  0.1572  0.0935
20159SOL    HW261899   2.653   3.039   2.507 -2.3455  3.4147  0.7046
20160SOL     OW61900   4.970   3.467   6.086 -1.1113  0.1341  0.4827
20160SOL    HW161901   4.908   3.532   6.053 -1.6686 -1.2039 -1.2535
20160SOL    HW261902   5.056   3.507   6.072 -1.4270  0.3961 -0.8752
20161SOL     OW61903   1.235   9.152   7.770 -0.2074 -0.0795  0.1365
20161SOL    HW161904   1.199   9.224   7.822 -2.2513 -0.9275  0.0099
20161SOL    HW261905   1.213   9.073   7.820 -1.1633 -0.8307 -1.3790
20162SOL     OW61906   4.583   0.853   0.145  0.0581  0.4609  0.1844
20162SOL    HW161907   4.668   0.813   0.123 -0.2307  0.2050 -0.4848
20162SOL    HW261908   4.550   0.800   0.218  0.4245  0.4945  0.3769
20163SOL     OW61909   8.981   7.925   0.843 -0.0483  0.4154 -0.3170
20163SOL    HW161910   9.014   7.933   0.753 -1.6107 -0.6522 -1.0453
20163SOL    HW261911   8.891   7.892   0.832  0.2608 -1.3251  1.6826
20164SOL     OW61912   3.850   8.793   0.625 -0.0545 -1.6556  0.1377
20164SOL    HW161913   3.805   8.710   0.637 -0.7252 -0.9914  2.8330
20164SOL    HW261914   3.781   8.856   0.606 -0.3200 -0.7937  3.4465
20165SOL     OW61915   3.781   3.586   4.038  0.2687 -0.0832  0.3723
20165SOL    HW161916   3.738   3.600   3.954  0.2565 -1.4428  0.1310
20165SOL    HW261917   3.808   3.494   4.037 -1.7389 -0.8452  2.7124
20166SOL     OW61918   4.064   8.797   2.759 -0.3036 -0.6524 -0.2722
20166SOL    HW161919   4.069   8.892   2.762  1.6845 -0.7314  0.4864
20166SOL    HW261920   3.980   8.776   2.800 -1.4159  0.7892 -1.7008
20167SOL     OW61921   0.039   7.700   3.089  0.3927  0.4387 -0.2687
20167SOL    HW161922   0.126   7.684   3.052  0.2308 -0.3100 -0.3448
20167SOL    HW261923  -0.012   7.623   3.064 -0.3867  1.0219 -0.4952
20168SOL     OW61924   5.320   5.074   2.074 -0.3431 -0.1931 -0.3100
20168SOL    HW161925   5.363   5.018   2.138 -0.6387 -0.4774 -0.3549
20168SOL    HW261926   5.226   5.061   2.090 -0.4342 -0.9129 -1.3600
20169SOL     OW61927   4.631   9.069   0.347 -0.1558  0.3330  0.1020
20169SOL    HW161928   4.674   9.154   0.335  0.3494  0.3309  1.7411
20169SOL    HW261929   4.621   9.036   0.258  1.4370  1.2354 -0.4658
20170SOL     OW61930   6.089   9.126   3.337  0.2915 -0.0335  0.3421
20170SOL    HW161931   6.102   9.216   3.308  0.5855 -0.3566 -0.5733
20170SOL    HW261932   6.178   9.092   3.349  0.1968 -0.4057  0.0110
20171SOL     OW61933   1.426   3.427   5.547 -0.5731 -0.1589 -0.1985
20171SOL    HW161934   1.371   3.432   5.469 -0.4991 -2.6378 -0.4829
20171SOL    HW261935   1.374   3.378   5.611  0.6738 -1.2262  0.0506
20172SOL     OW61936   3.506   8.900   2.435 -0.3475 -0.2500 -0.5318
20172SOL    HW161937   3.590   8.922   2.475  0.0890  0.0263 -1.5716
20172SOL    HW261938   3.477   8.822   2.482 -0.9154  1.2736  1.8021
20173SOL     OW61939   0.185   5.962   1.332 -0.5595  0.0180  0.3844
20173SOL    HW161940   0.144   6.040   1.293 -0.5673  0.3484  1.0395
20173SOL    HW261941   0.279   5.980   1.328 -0.5615  0.0647  0.5399
20174SOL     OW61942   1.645   3.807   2.962 -0.3502 -0.0153  0.4699
20174SOL    HW161943   1.682   3.842   3.042 -0.5358  1.4653 -0.0482
20174SOL    HW261944   1.696   3.847   2.892 -0.3276 -1.1125 -0.1658
20175SOL     OW61945   6.199   0.913   0.381  0.2055 -0.3423  0.2596
20175SOL    HW161946   6.130   0.862   0.340  0.9895 -1.5684  0.4289
20175SOL    HW261947   6.245   0.955   0.308  0.7141 -1.3794 -0.0234
20176SOL     OW61948   5.179   7.545   7.163  0.8287 -0.2995 -0.5324
20176SOL    HW161949   5.120   7.527   7.090  1.4342 -0.4070 -1.0080
20176SOL    HW261950   5.240   7.610   7.128  2.3079 -1.7487 -0.7756
20177SOL     OW61951   8.071   0.732   3.501  0.5811  0.4065 -0.2139
20177SOL    HW161952   8.128   0.713   3.576  0.3178 -0.1041 -0.1362
20177SOL    HW261953   8.064   0.648   3.455  1.0765  0.8120 -1.0484
20178SOL     OW61954   5.054   8.626   0.324 -0.4963 -0.2700  0.1761
20178SOL    HW161955   5.076   8.541   0.363 -0.1569 -0.2641  0.0063
20178SOL    HW261956   4.976   8.609   0.271 -0.9431 -0.2834  0.8278
20179SOL     OW61957   5.559   7.489   3.273  0.2220 -0.4278  0.0515
20179SOL    HW161958   5.644   7.532   3.270 -0.1190  0.2766  0.4255
20179SOL    HW261959   5.554   7.451   3.361 -0.5346  0.9541  0.6247
20180SOL     OW61960   2.728   0.637   8.885 -0.5886  0.4145  0.1214
20180SOL    HW161961   2.713   0.695   8.811 -0.9657  1.4910  1.0235
20180SOL    HW261962   2.818   0.653   8.911 -0.5606  0.2832  0.1064
20181SOL     OW61963   6.593   2.690   7.447 -0.3208  0.0701  0.2886
20181SOL    HW161964   6.686   2.669   7.458  0.3204  2.2620 -0.3763
20181SOL    HW261965   6.558   2.689   7.536  0.7613  0.8618  0.7577
20182SOL     OW61966   9.104   1.745   1.950 -0.4940  0.3254 -0.2726
20182SOL    HW161967   9.191   1.772   1.921 -0.1750 -1.2680 -0.8924
20182SOL    HW261968   9.078   1.812   2.013  0.9681  1.0886 -0.4407
20183SOL     OW61969   3.604   0.497   1.025 -0.7788  0.5051  0.0893
20183SOL    HW161970   3.597   0.441   1.102 -0.3566  0.3203 -0.0045
20183SOL    HW261971   3.528   0.474   0.972 -0.4384 -0.2172 -0.1007
20184SOL     OW61972   6.057   0.692   1.791 -0.6561 -0.4087 -0.5554
20184SOL    HW161973   6.034   0.646   1.872 -2.2255 -0.8517 -1.2208
20184SOL    HW261974   6.003   0.770   1.791  2.1878  1.7331  0.6984
20185SOL     OW61975   2.561   4.266   6.233  0.1374  0.1297 -0.6324
20185SOL    HW161976   2.550   4.350   6.277 -2.0144 -0.2416 -0.3446
20185SOL    HW261977   2.655   4.251   6.232  0.5330  2.3259 -0.2994
20186SOL     OW61978   1.496   6.273   5.223  0.0866  0.1741 -0.2172
20186SOL    HW161979   1.457   6.197   5.180  1.7546 -1.6877  1.3335
20186SOL    HW261980   1.500   6.340   5.155 -2.3707 -0.7338 -1.3746
20187SOL     OW61981   1.201   8.109   6.010  0.6491 -0.6644 -0.3717
20187SOL    HW161982   1.159   8.143   6.088 -2.9218 -0.1883 -2.3074
20187SOL    HW261983   1.230   8.021   6.035  1.9220  0.3516  2.0995
20188SOL     OW61984   3.230   0.124   8.960 -0.2196  0.3598  0.3418
20188SOL    HW161985   3.245   0.048   8.904  1.1533 -0.4699  1.7433
20188SOL    HW261986   3.196   0.088   9.042 -2.7726  1.6020 -0.0780
20189SOL     OW61987   5.399   6.457   2.389  0.0582  0.6388 -0.3310
20189SOL    HW161988   5.481   6.505   2.395 -0.6431  2.0950 -1.8539
20189SOL    HW261989   5.353   6.495   2.315 -0.7794 -2.0730 -1.3339
20190SOL     OW61990   1.830   0.052   7.209 -0.2549 -0.2821  0.0182
20190SOL    HW161991   1.875   0.130   7.242 -0.1522 -0.2143 -0.2767
20190SOL    HW261992   1.843  -0.014   7.277  1.1350 -0.5584 -0.4849
20191SOL     OW61993   1.922   6.938   1.788  0.7929  0.4424  0.5300
20191SOL    HW161994   1.850   6.969   1.733  1.5028  1.9967  0.4160
20191SOL    HW261995   1.987   7.008   1.783  1.2978  0.1781  2.5608
20192SOL     OW61996   0.027   8.033   6.595 -0.2532  0.0722  0.3463
20192SOL    HW161997   0.119   8.054   6.606 -0.3690  1.3926 -0.9002
20192SOL    HW261998   0.016   8.021   6.501 -1.1185 -1.2972  0.5959
20193SOL     OW61999   0.702   2.389   0.937  0.6708  0.0031 -0.2277
20193SOL    HW162000   0.653   2.459   0.980  2.0173 -0.0447  1.4772
20193SOL    HW262001   0.689   2.312   0.993  2.3178 -0.1126  0.0437
20194SOL     OW62002   6.148   5.162   3.847 -0.7867 -0.3815 -0.0121
20194SOL    HW162003   6.142   5.249   3.807 -0.0914 -0.2571  0.1402
20194SOL    HW262004   6.150   5.179   3.941  0.3693 -0.4754  0.0031
20195SOL     OW62005   1.393   2.985   3.089 -0.1388  0.0646  0.3082
20195SOL    HW162006   1.330   2.934   3.139  0.6030 -1.8063 -0.5632
20195SOL    HW262007   1.423   3.054   3.149  0.2153 -1.6559  2.1958
20196SOL     OW62008   0.199   2.171   4.677  0.2507  0.2677 -0.1287
20196SOL    HW162009   0.250   2.144   4.753  0.4395  0.3643 -0.2213
20196SOL    HW262010   0.121   2.213   4.714 -0.6901 -1.5140  0.0441
20197SOL     OW62011   2.890   3.006   3.930  0.3523 -0.0759  0.2764
20197SOL    HW162012   2.858   3.071   3.868  0.5870  0.2749  0.5220
20197SOL    HW262013   2.860   3.037   4.015  0.4348 -0.3085  0.3925
20198SOL     OW62014   7.050   7.349   7.614 -0.1590  0.4179  0.2710
20198SOL    HW162015   7.062   7.429   7.664  0.1568  1.4485 -1.3846
20198SOL    HW262016   6.980   7.369   7.552  0.7293 -0.1426 -0.9704
20199SOL     OW62017   7.278   2.672   6.823 -0.6160 -0.2072  0.1520
20199SOL    HW162018   7.329   2.595   6.846  0.0730  0.1308 -0.2113
20199SOL    HW262019   7.239   2.701   6.906  1.2612  0.5900  0.8271
20200SOL     OW62020   2.518   4.101   7.912 -0.2880  0.5610 -0.0604
20200SOL    HW162021   2.599   4.088   7.862 -0.3737  0.2881 -0.1257
20200SOL    HW262022   2.537   4.065   7.998  0.0290  1.4771  0.2678
20201SOL     OW62023   8.708   4.325   3.918  0.5987 -0.5041  0.0005
20201SOL    HW162024   8.780   4.361   3.970  0.5290  1.5362 -1.1804
20201SOL    HW262025   8.629   4.352   3.964  0.5524 -1.7677  0.6926
20202SOL     OW62026   4.284   5.218   2.046  0.1477  0.3336  0.0597
20202SOL    HW162027   4.274   5.154   2.117 -0.9246 -0.5420 -0.8394
20202SOL    HW262028   4.194   5.238   2.020  0.5322  0.4528 -1.2261
20203SOL     OW62029   3.838   5.860   7.206 -1.0210  0.3849 -0.0731
20203SOL    HW162030   3.807   5.951   7.201 -0.0681  0.6846 -0.9760
20203SOL    HW262031   3.926   5.863   7.168  0.1686 -0.4273  2.4083
20204SOL     OW62032   7.978   3.053   4.133  0.2829 -0.4830 -0.6382
20204SOL    HW162033   8.058   3.073   4.182  0.8554 -0.0520 -1.6967
20204SOL    HW262034   7.932   3.136   4.127 -0.6283 -0.8759  0.5887
20205SOL     OW62035   5.825   6.296   7.233 -0.1364 -0.4795  0.2455
20205SOL    HW162036   5.741   6.270   7.197  0.4484  0.1453 -1.7124
20205SOL    HW262037   5.881   6.311   7.156  1.4399  0.1594  1.4482
20206SOL     OW62038   7.372   8.716   4.432  0.1122 -0.1572  0.1128
20206SOL    HW162039   7.352   8.740   4.341 -0.1617  0.5102  0.3462
20206SOL    HW262040   7.393   8.622   4.427 -1.4161 -0.5065 -0.4099
20207SOL     OW62041   0.045   5.835   7.846 -0.8820 -0.6357  0.3272
20207SOL    HW162042   0.119   5.782   7.876 -1.2229 -1.1737  0.2404
20207SOL    HW262043   0.085   5.914   7.810 -0.3828 -0.6612  0.8054
20208SOL     OW62044   0.626   2.650   9.084 -0.2295 -0.1808 -0.6497
20208SOL    HW162045   0.565   2.697   9.027 -0.4705  1.2493  0.7534
20208SOL    HW262046   0.606   2.680   9.172  2.1245 -0.0876 -0.0830
20209SOL     OW62047   0.616   3.245   2.155  0.0168 -0.0435  0.6147
20209SOL    HW162048   0.677   3.304   2.110 -0.5170  1.3437  1.6503
20209SOL    HW262049   0.662   3.161   2.158  0.4054  0.0061 -1.7706
20210SOL     OW62050   8.466   6.702   3.234  0.3143  0.2666 -0.2190
20210SOL    HW162051   8.401   6.758   3.192 -0.5080  0.0025  0.6605
20210SOL    HW262052   8.415   6.628   3.268  0.9769  0.3244  0.9713
20211SOL     OW62053   1.156   1.889   1.828 -0.1348  0.1866 -0.2552
20211SOL    HW162054   1.232   1.947   1.818  0.2481 -0.3883 -0.7535
20211SOL    HW262055   1.175   1.838   1.907  0.1535 -0.1816 -0.5593
20212SOL     OW62056   7.064   6.035   6.505 -0.1478 -0.2139 -0.1497
20212SOL    HW162057   7.109   6.119   6.516 -1.8022  0.5643  1.0691
20212SOL    HW262058   7.103   5.979   6.572 -0.5650  0.2928  0.5396
20213SOL     OW62059   5.500   7.115   4.494  0.3551 -0.1249 -0.6260
20213SOL    HW162060   5.432   7.171   4.531 -0.6423 -1.7973  0.1584
20213SOL    HW262061   5.522   7.157   4.410 -1.0708  0.8637 -0.5460
20214SOL     OW62062   6.186   5.423   5.841 -0.6393  0.2146 -0.3594
20214SOL    HW162063   6.253   5.456   5.902 -0.9183 -0.5944  0.3929
20214SOL    HW262064   6.108   5.473   5.863 -1.2202 -1.2557  1.1709
20215SOL     OW62065   2.046   5.673   6.672  0.1943  0.2596 -0.9723
20215SOL    HW162066   1.970   5.716   6.633 -0.9938 -0.6838  0.2300
20215SOL    HW262067   2.117   5.737   6.662 -0.8563  1.3554 -1.6962
20216SOL     OW62068   5.512   5.542   3.768  0.1964  0.2372 -0.5502
20216SOL    HW162069   5.458   5.568   3.694  0.1644 -1.5224 -1.2075
20216SOL    HW262070   5.591   5.505   3.728  1.1068  1.1545  0.3583
20217SOL     OW62071   0.468   5.622   8.264 -0.2607 -0.0231 -0.1356
20217SOL    HW162072   0.456   5.532   8.231 -1.1447  0.0322 -0.0000
20217SOL    HW262073   0.526   5.612   8.339  0.1469 -0.4075 -0.4946
20218SOL     OW62074   0.335   0.225   4.302  0.1084  0.2449  0.1312
20218SOL    HW162075   0.269   0.169   4.343  0.7954  0.1432  1.1407
20218SOL    HW262076   0.285   0.281   4.243 -0.7834 -0.3587  0.2794
20219SOL     OW62077   8.057   8.828   8.257 -0.3815  0.3610 -0.3489
20219SOL    HW162078   8.018   8.754   8.304 -1.6702  0.3952 -1.2776
20219SOL    HW262079   8.022   8.905   8.301 -0.6799  0.3962 -0.6406
20220SOL     OW62080   2.446   6.586   3.331  0.2061  0.4677 -0.2871
20220SOL    HW162081   2.483   6.669   3.298  1.7306  0.0007  0.1353
20220SOL    HW262082   2.402   6.610   3.413  1.6596  0.7329  0.4653
20221SOL     OW62083   2.613   2.692   5.998  0.2281 -0.6331 -0.3348
20221SOL    HW162084   2.588   2.653   6.081 -0.7893  0.9575  0.1429
20221SOL    HW262085   2.540   2.749   5.974  1.5179  0.8034 -1.0946
20222SOL     OW62086   7.929   2.345   4.545 -0.3207 -0.4840  0.4777
20222SOL    HW162087   7.842   2.344   4.586 -0.1641  0.7241  0.8669
20222SOL    HW262088   7.923   2.411   4.476  0.0649 -0.9393  0.0037
20223SOL     OW62089   2.558   1.729   2.878  0.0932 -0.4887  0.2339
20223SOL    HW162090   2.634   1.679   2.906  0.1461 -0.3663  0.3076
20223SOL    HW262091   2.509   1.669   2.822  0.0355 -0.6993  0.5090
20224SOL     OW62092   7.877   6.040   0.238 -0.6814  0.1026 -0.1506
20224SOL    HW162093   7.943   6.027   0.306 -1.9383 -0.6295  0.9875
20224SOL    HW262094   7.847   5.952   0.217 -1.3207  0.4275 -0.6169
20225SOL     OW62095   7.219   2.839   1.036 -0.4037 -0.3336  0.2138
20225SOL    HW162096   7.227   2.746   1.013 -0.5731 -0.6464  1.3520
20225SOL    HW262097   7.301   2.878   1.005  0.7876 -1.3519  1.9204
20226SOL     OW62098   0.276   9.086   5.354 -0.6778  0.3228  0.2468
20226SOL    HW162099   0.189   9.058   5.382 -0.7149  0.9512  0.7891
20226SOL    HW262100   0.280   9.065   5.261 -0.5430 -1.8921  0.6989
20227SOL     OW62101   7.810   8.097   6.765  0.4588  0.4753 -0.6679
20227SOL    HW162102   7.892   8.049   6.760  0.2645  0.1897 -1.1551
20227SOL    HW262103   7.746   8.042   6.719 -0.2852  0.1178  0.7237
20228SOL     OW62104   5.455   2.699   6.839 -0.3628 -0.4671  0.4567
20228SOL    HW162105   5.435   2.793   6.842 -1.4854 -0.4396 -3.2600
20228SOL    HW262106   5.372   2.656   6.858  0.0625 -0.7462  1.7689
20229SOL     OW62107   6.631   1.370   2.401  0.6156  0.8520  0.1949
20229SOL    HW162108   6.687   1.311   2.451 -0.8599  0.2860  1.2445
20229SOL    HW262109   6.621   1.448   2.456  0.5003  1.0216 -0.0583
20230SOL     OW62110   7.498   3.499   3.222  0.4314  0.1042 -0.0950
20230SOL    HW162111   7.412   3.459   3.234  1.2382 -1.8034 -0.3438
20230SOL    HW262112   7.504   3.566   3.290 -1.0329 -0.0874  0.2459
20231SOL     OW62113   5.446   8.881   0.812  0.3121  0.0753 -0.4759
20231SOL    HW162114   5.492   8.938   0.751  2.2758 -0.9347 -0.0439
20231SOL    HW262115   5.371   8.932   0.842  1.6931  2.2115 -0.4940
20232SOL     OW62116   2.553   6.907   4.717  0.1716 -0.8366 -0.2801
20232SOL    HW162117   2.545   6.910   4.813 -0.6598  0.0443 -0.3595
20232SOL    HW262118   2.541   6.998   4.690  2.3578 -0.7383 -1.1087
20233SOL     OW62119   5.252   0.162   2.924  0.6076 -0.2224 -0.5041
20233SOL    HW162120   5.244   0.182   3.017 -0.6014 -1.9611 -0.1871
20233SOL    HW262121   5.342   0.186   2.902  1.4029 -1.1483  1.4787
20234SOL     OW62122   0.155   8.893   3.248 -0.3466  0.2029  0.1257
20234SOL    HW162123   0.235   8.841   3.238 -1.2369 -1.5170  1.4200
20234SOL    HW262124   0.177   8.957   3.315  0.8064  1.6830 -1.5805
20235SOL     OW62125   1.999   4.980   2.571 -0.0009  0.2271  0.0322
20235SOL    HW162126   1.961   5.068   2.571 -0.5825 -0.0096 -0.3948
20235SOL    HW262127   2.075   4.987   2.513  0.8116  0.7851  1.1457
20236SOL     OW62128   6.810   1.898   1.167  0.6248  0.8652  0.0777
20236SOL    HW162129   6.905   1.909   1.178  0.5653  1.4747 -0.0005
20236SOL    HW262130   6.775   1.901   1.255  0.7579 -0.1928  0.1789
20237SOL     OW62131   4.163   7.754   7.096  0.9329 -0.0072 -0.5617
20237SOL    HW162132   4.084   7.804   7.117  1.0247  0.1643 -0.6177
20237SOL    HW262133   4.130   7.673   7.058  0.7106 -1.0371  1.6698
20238SOL     OW62134   4.140   4.677   6.239 -0.2056 -0.4780 -0.3497
20238SOL    HW162135   4.081   4.728   6.183  2.7379  1.3137 -2.1517
20238SOL    HW262136   4.204   4.741   6.271  0.9818 -2.3094  1.1836
20239SOL     OW62137   1.726   3.296   6.257  0.2026  0.8402 -0.8098
20239SOL    HW162138   1.762   3.385   6.250 -0.5957  1.2034 -0.3796
20239SOL    HW262139   1.632   3.308   6.262  0.1596  0.0984  1.1864
20240SOL     OW62140   3.673   3.935   4.896  0.1893  0.2784  0.1008
20240SOL    HW162141   3.670   4.017   4.847  0.8264  1.2823  1.6720
20240SOL    HW262142   3.584   3.923   4.930  0.4020  0.9987  0.9257
20241SOL     OW62143   7.865   7.842   1.159  0.0894 -0.2466  0.1003
20241SOL    HW162144   7.814   7.763   1.144 -0.3050 -0.1737  1.0272
20241SOL    HW262145   7.801   7.913   1.160  0.3045 -0.0514  0.4074
20242SOL     OW62146   8.329   8.185   7.988 -0.2714  0.0951 -0.1417
20242SOL    HW162147   8.258   8.120   7.993  0.8203 -1.3190 -1.9459
20242SOL    HW262148   8.407   8.137   8.015  0.8959  0.0314 -3.2731
20243SOL     OW62149   5.754   3.243   5.939 -0.1292 -0.4008 -0.2004
20243SOL    HW162150   5.685   3.178   5.953 -2.0714  1.6454  0.1828
20243SOL    HW262151   5.708   3.327   5.936  2.4743  1.1958  1.2676
20244SOL     OW62152   0.857   6.510   3.010 -0.3657 -0.1615 -0.4491
20244SOL    HW162153   0.816   6.517   3.096  0.4568 -0.2271 -0.0478
20244SOL    HW262154   0.947   6.538   3.024 -0.8346  2.3357 -1.7814
20245SOL     OW62155   8.819   0.297   6.071  0.2087  0.5416 -0.1889
20245SOL    HW162156   8.832   0.384   6.108 -0.0379  0.4274  0.1679
20245SOL    HW262157   8.735   0.268   6.106  0.3176  0.1357 -0.2609
20246SOL     OW62158   5.143   5.990   8.221 -0.0671 -0.2863 -0.4555
20246SOL    HW162159   5.093   5.985   8.302  0.5412  0.3074 -0.0311
20246SOL    HW262160   5.207   6.059   8.237 -0.1007  0.0146 -1.5305
20247SOL     OW62161   8.918   3.399   8.730  0.5837  0.0333  0.1182
20247SOL    HW162162   8.882   3.427   8.646  1.4356  0.7618 -0.0190
20247SOL    HW262163   8.864   3.442   8.795  0.0490 -0.3689 -0.0496
20248SOL     OW62164   4.995   4.264   5.059  0.0513  0.3704 -0.0647
20248SOL    HW162165   5.067   4.232   5.004  0.5092  1.4879 -0.1485
20248SOL    HW262166   4.923   4.203   5.042  0.5929 -0.0508 -0.9268
20249SOL     OW62167   6.735   6.327   8.915 -0.3744  0.8734 -1.1075
20249SOL    HW162168   6.763   6.236   8.906  0.4009  0.9104  0.6017
20249SOL    HW262169   6.714   6.337   9.008  0.3339  2.6641 -1.1011
20250SOL     OW62170   1.838   4.419   5.515 -0.0246 -0.4315 -0.2113
20250SOL    HW162171   1.750   4.430   5.480 -0.1250 -3.5568 -1.2960
20250SOL    HW262172   1.895   4.423   5.438  0.5985 -0.2279  0.2479
20251SOL     OW62173   7.737   1.360   7.150  0.1504 -0.8241 -0.2039
20251SOL    HW162174   7.790   1.297   7.199 -0.9256 -1.0222  0.7622
20251SOL    HW262175   7.792   1.437   7.142  0.4355 -0.8507  1.1900
20252SOL     OW62176   5.052   4.318   1.232  0.2070 -0.1954 -0.4674
20252SOL    HW162177   5.016   4.405   1.213  0.1346 -0.2898 -0.7588
20252SOL    HW262178   5.032   4.266   1.154 -0.1414 -0.5950 -0.1144
20253SOL     OW62179   8.566   4.435   8.298  0.2600 -0.3868 -0.3415
20253SOL    HW162180   8.640   4.479   8.255 -0.1959  0.0947 -0.6503
20253SOL    HW262181   8.492   4.495   8.285  0.1285 -0.1634  1.2281
20254SOL     OW62182   0.125   2.952   0.090 -0.7097 -0.2032 -0.1189
20254SOL    HW162183   0.065   2.984   0.158  0.3048 -1.3771  1.3880
20254SOL    HW262184   0.108   2.858   0.086 -0.4616 -0.2098 -1.2268
20255SOL     OW62185   2.651   1.521   7.813 -0.3561  0.2789 -0.5501
20255SOL    HW162186   2.569   1.491   7.852  0.0612  0.9854  0.9379
20255SOL    HW262187   2.667   1.606   7.853  1.4170 -0.1214 -0.3275
20256SOL     OW62188   7.643   1.692   5.111  0.2847  0.0343 -0.6088
20256SOL    HW162189   7.654   1.597   5.104  0.2059 -0.1802  1.4305
20256SOL    HW262190   7.711   1.719   5.173  0.4583  1.3660 -1.3417
20257SOL     OW62191   4.436   4.848   8.922 -0.1538 -0.0014 -0.5356
20257SOL    HW162192   4.467   4.759   8.907 -1.5597 -0.5736 -0.2246
20257SOL    HW262193   4.374   4.864   8.850 -2.1061 -0.3918  0.9824
20258SOL     OW62194   0.742   5.996   7.135  0.1740 -0.5034 -0.0020
20258SOL    HW162195   0.816   5.948   7.172  0.2274 -0.4409 -0.0269
20258SOL    HW262196   0.710   5.941   7.063 -1.1069 -1.5364  1.2984
20259SOL     OW62197   4.794   8.393   1.299 -0.1091  0.2764  0.5062
20259SOL    HW162198   4.764   8.305   1.278  1.1736  0.1048 -0.7960
20259SOL    HW262199   4.858   8.413   1.230 -0.9947  2.5659  0.2793
20260SOL     OW62200   7.317   5.746   1.158 -0.1319 -0.1442  0.5448
20260SOL    HW162201   7.297   5.739   1.251 -0.5271 -1.5457  0.3882
20260SOL    HW262202   7.238   5.713   1.115  1.0269 -2.1491 -0.1983
20261SOL     OW62203   7.896   8.261   0.741 -0.2860  0.1194 -0.1219
20261SOL    HW162204   7.889   8.270   0.646  0.8827 -0.7275 -0.3129
20261SOL    HW262205   7.832   8.194   0.764 -1.6933  1.4443 -0.0804
20262SOL     OW62206   2.669   2.355   4.769  0.1503 -0.0979 -0.1987
20262SOL    HW162207   2.713   2.375   4.852  0.0471  2.1690 -0.6265
20262SOL    HW262208   2.586   2.401   4.775 -0.7600 -1.5892 -0.7805
20263SOL     OW62209   7.909   9.268   9.044  0.6750 -0.4313 -0.2224
20263SOL    HW162210   7.934   9.188   8.998 -0.6365 -1.4464  0.7542
20263SOL    HW262211   7.816   9.281   9.022  0.0575 -0.8436  1.9035
20264SOL     OW62212   7.748   7.791   6.876  0.2705 -0.4148  0.0477
20264SOL    HW162213   7.710   7.828   6.797 -0.4959 -2.4565 -0.6300
20264SOL    HW262214   7.834   7.758   6.849  0.3581 -0.3603  0.2620
20265SOL     OW62215   1.681   3.284   1.136 -0.1714  0.6686 -0.3289
20265SOL    HW162216   1.714   3.359   1.186  3.7130  0.5189 -2.2520
20265SOL    HW262217   1.682   3.211   1.197  1.3394  1.1228  0.2334
20266SOL     OW62218   3.263   2.702   1.441  0.4179  0.1724 -0.2149
20266SOL    HW162219   3.356   2.691   1.461  0.6010  2.0033  0.1100
20266SOL    HW262220   3.255   2.674   1.351  1.5618  1.1178 -0.6515
20267SOL     OW62221   5.333   7.516   6.592 -0.3093  0.7712 -0.0560
20267SOL    HW162222   5.341   7.595   6.538 -0.1200  1.2605  0.6821
20267SOL    HW262223   5.422   7.496   6.619 -0.4801  0.9383  0.6540
20268SOL     OW62224   6.810   1.213   6.314 -0.9325  0.4177 -0.1263
20268SOL    HW162225   6.794   1.153   6.241 -0.4538  1.3551 -1.0355
20268SOL    HW262226   6.893   1.256   6.291 -1.8789  2.3396 -0.1585
20269SOL     OW62227   7.978   3.024   1.193 -0.3906  0.0296  0.6819
20269SOL    HW162228   7.935   2.985   1.269  1.7444 -0.7614  1.5678
20269SOL    HW262229   8.008   2.949   1.141 -3.0070  0.5266 -1.7683
20270SOL     OW62230   0.081   4.624   0.771 -0.1738  0.0409  0.0786
20270SOL    HW162231   0.125   4.677   0.705 -0.6942 -0.7073 -0.9040
20270SOL    HW262232   0.011   4.680   0.804 -1.8507 -0.5335 -2.2061
20271SOL     OW62233   6.206   6.959   1.419  0.3961  0.2785  0.3568
20271SOL    HW162234   6.144   6.945   1.347  0.3786 -0.2708  0.4717
20271SOL    HW262235   6.254   7.038   1.395  0.3047  0.1676 -0.2009
20272SOL     OW62236   5.245   6.846   7.737 -0.4544  0.4822  0.4894
20272SOL    HW162237   5.278   6.866   7.650 -1.9684  0.5642 -0.0970
20272SOL    HW262238   5.242   6.930   7.782  1.2359  0.3170  0.9926
20273SOL     OW62239   1.082   0.665   0.574  0.1481  0.2023  0.2861
20273SOL    HW162240   1.127   0.721   0.510 -0.4747 -0.5871 -0.8740
20273SOL    HW262241   1.152   0.628   0.627  0.6031  1.7445  0.8254
20274SOL     OW62242   2.419   7.775   9.202 -0.3720 -0.0028  0.1182
20274SOL    HW162243   2.391   7.733   9.283  1.7466  0.6296  1.2387
20274SOL    HW262244   2.400   7.867   9.214  0.0368  0.1086 -0.0538
20275SOL     OW62245   1.428   0.905   2.331 -0.1881 -0.4511  0.8439
20275SOL    HW162246   1.348   0.944   2.365 -0.5744 -0.3777 -0.1309
20275SOL    HW262247   1.413   0.895   2.237  1.6081  1.2251  0.2990
20276SOL     OW62248   8.437   7.055   3.322  0.4596 -0.3168 -0.8729
20276SOL    HW162249   8.393   6.973   3.299  0.7932 -0.7399 -0.0325
20276SOL    HW262250   8.367   7.111   3.355 -0.2448  0.7023 -3.7642
20277SOL     OW62251   8.261   5.837   2.097  0.1211  0.0065 -0.7081
20277SOL    HW162252   8.295   5.919   2.132 -0.0459 -1.4195  3.2621
20277SOL    HW262253   8.167   5.851   2.088  0.3952  0.9521 -2.4612
20278SOL     OW62254   6.275   3.183   1.010  0.4559 -0.0097  0.1307
20278SOL    HW162255   6.267   3.279   1.010 -0.2745 -0.0060 -2.5504
20278SOL    HW262256   6.185   3.151   1.011  0.6905 -0.7641  2.0699
20279SOL     OW62257   6.304   1.518   8.296 -0.1646 -0.7992 -0.1339
20279SOL    HW162258   6.210   1.501   8.296 -0.2204 -0.9070  2.7388
20279SOL    HW262259   6.344   1.434   8.273 -0.7458 -2.0817  3.0355
20280SOL     OW62260   0.374   5.660   2.560  0.0160 -0.1734 -0.0454
20280SOL    HW162261   0.454   5.612   2.541  0.6835  0.5078  1.0051
20280SOL    HW262262   0.309   5.591   2.579  0.8280 -0.6915  0.9398
20281SOL     OW62263   7.380   5.161   1.249  0.2834  0.1941 -0.2556
20281SOL    HW162264   7.354   5.244   1.210  0.6245  1.0977  1.3241
20281SOL    HW262265   7.463   5.139   1.207  0.4689  0.9528 -0.2894
20282SOL     OW62266   5.922   7.222   8.399 -0.4315  0.4653  0.1504
20282SOL    HW162267   5.958   7.237   8.311  2.1646 -2.7959  0.4256
20282SOL    HW262268   5.836   7.184   8.384  0.2894 -0.7772 -1.0896
20283SOL     OW62269   1.360   4.301   0.386  0.2753  0.0502  0.9250
20283SOL    HW162270   1.416   4.266   0.455  1.4820  1.4876  0.7455
20283SOL    HW262271   1.340   4.391   0.414 -0.0158  0.3351 -0.1268
20284SOL     OW62272   7.434   5.505   9.208  0.1423 -0.0437  0.2791
20284SOL    HW162273   7.488   5.515   9.130  0.0188 -0.5221  0.1257
20284SOL    HW262274   7.432   5.592   9.248 -2.6246  1.1441 -2.0849
20285SOL     OW62275   1.142   6.051   8.234 -0.2238  0.0478  0.3101
20285SOL    HW162276   1.107   6.130   8.190  0.2797  0.2362  0.2434
20285SOL    HW262277   1.106   5.978   8.183  0.9758  0.2733 -0.9247
20286SOL     OW62278   6.058   0.390   8.897 -0.2483  0.5925 -0.3611
20286SOL    HW162279   6.004   0.469   8.907 -0.6485  0.4651 -1.3747
20286SOL    HW262280   6.146   0.423   8.878 -0.0131  0.7986  0.9747
20287SOL     OW62281   7.031   7.999   2.434  0.2225  0.2453  0.4340
20287SOL    HW162282   7.075   7.917   2.453  0.5236  0.4475  0.6103
20287SOL    HW262283   6.942   7.988   2.468  0.3755  0.1334  0.7994
20288SOL     OW62284   6.579   6.285   7.341  0.1011  0.2432 -0.0208
20288SOL    HW162285   6.554   6.238   7.421  0.2918 -0.2482 -0.2491
20288SOL    HW262286   6.532   6.241   7.271  0.8798 -0.1040 -0.3337
20289SOL     OW62287   2.935   1.187   0.623  0.0571 -0.1842  0.2634
20289SOL    HW162288   2.988   1.236   0.685  0.1436  1.6809 -1.1880
20289SOL    HW262289   2.971   1.099   0.625  2.3505  0.6832  0.3091
20290SOL     OW62290   7.861   1.472   0.238 -0.0159  0.1701 -0.4549
20290SOL    HW162291   7.866   1.460   0.143  0.2314  0.7848 -0.5213
20290SOL    HW262292   7.863   1.382   0.273  0.9462 -0.0333 -0.9835
20291SOL     OW62293   8.657   2.573   6.606  0.2025  0.3661 -0.0570
20291SOL    HW162294   8.678   2.613   6.522 -0.2354 -3.4616 -2.2491
20291SOL    HW262295   8.739   2.533   6.634  0.4864  2.0755  1.7509
20292SOL     OW62296   0.728   1.519   4.542  0.2705  0.1320  0.0459
20292SOL    HW162297   0.775   1.598   4.517 -1.4180  0.3927 -2.7089
20292SOL    HW262298   0.660   1.549   4.603 -1.5235  1.2902 -2.3253
20293SOL     OW62299   1.367   7.117   8.098  0.0248  0.1496  0.2185
20293SOL    HW162300   1.458   7.127   8.127 -0.3230  1.7835  0.9162
20293SOL    HW262301   1.323   7.078   8.173 -0.0033  0.1687  0.2121
20294SOL     OW62302   4.878   6.926   2.910  0.1753 -0.6270  0.1444
20294SOL    HW162303   4.898   6.857   2.973  0.5670  0.2677  1.0204
20294SOL    HW262304   4.807   6.890   2.858  0.6140 -1.8343  0.3428
20295SOL     OW62305   3.174   2.224   3.265 -0.5168  0.4789 -0.1473
20295SOL    HW162306   3.265   2.201   3.245  0.0108  1.7590  0.6496
20295SOL    HW262307   3.171   2.228   3.361 -1.4734  0.2333 -0.1580
20296SOL     OW62308   6.579   7.180   0.448 -0.1431 -0.0389  0.3185
20296SOL    HW162309   6.504   7.125   0.469  0.9253 -0.5603  3.1797
20296SOL    HW262310   6.651   7.118   0.435  0.3560  0.5630  0.1483
20297SOL     OW62311   4.418   8.789   2.596 -0.3357 -0.2500 -0.4655
20297SOL    HW162312   4.390   8.794   2.505 -0.2604  0.1622 -0.4663
20297SOL    HW262313   4.488   8.854   2.604  0.0279 -0.6648 -0.2457
20298SOL     OW62314   2.542   6.406   4.618 -0.1549  0.4594 -0.1405
20298SOL    HW162315   2.595   6.408   4.698  0.5266  0.7327 -0.5894
20298SOL    HW262316   2.584   6.470   4.560 -0.3800 -0.0405 -0.8740
20299SOL     OW62317   3.776   4.292   2.158 -0.0699  0.2383 -0.0712
20299SOL    HW162318   3.829   4.366   2.190 -1.1630  0.8690  0.3407
20299SOL    HW262319   3.721   4.330   2.089 -2.0438  0.3237  1.4632
20300SOL     OW62320   2.000   8.842   2.558 -0.2861 -0.6287  0.1906
20300SOL    HW162321   1.934   8.810   2.497 -0.3152 -1.1781  0.5086
20300SOL    HW262322   1.959   8.834   2.644 -0.1934  0.0131  0.3052
20301SOL     OW62323   5.929   6.167   1.477  0.4807 -0.3410 -0.5544
20301SOL    HW162324   5.898   6.237   1.535 -0.5702 -0.1593 -1.3138
20301SOL    HW262325   6.024   6.170   1.485  0.4436  0.9501 -0.3132
20302SOL     OW62326   3.735   8.844   7.814  0.2126 -0.0762  0.3561
20302SOL    HW162327   3.827   8.860   7.835 -0.1221  1.2524  0.9270
20302SOL    HW262328   3.723   8.881   7.727 -0.0519  0.8661  0.7816
20303SOL     OW62329   2.806   2.041   6.415 -0.1385  0.0111 -0.4220
20303SOL    HW162330   2.802   2.133   6.388  0.6825  0.2599  0.2270
20303SOL    HW262331   2.896   2.015   6.396 -0.1345 -0.4089  0.1472
20304SOL     OW62332   0.123   9.184   2.614 -0.2318  0.5640  0.0214
20304SOL    HW162333   0.170   9.112   2.656 -0.2816 -0.1180 -1.0345
20304SOL    HW262334   0.038   9.187   2.659 -0.9364 -1.2495 -1.0634
20305SOL     OW62335   0.379   2.497   8.067  0.3981  0.0466  0.2422
20305SOL    HW162336   0.335   2.523   8.149  0.4867  0.9650  0.0082
20305SOL    HW262337   0.431   2.421   8.092 -0.6401 -0.5384  0.7243
20306SOL     OW62338   3.412   5.122   7.923 -0.0821 -0.5947  0.2594
20306SOL    HW162339   3.401   5.196   7.863  0.5047 -1.7221 -1.2897
20306SOL    HW262340   3.492   5.144   7.972  0.0728 -0.1891 -0.1672
20307SOL     OW62341   7.820   3.109   5.006 -0.5610 -0.4007  0.2189
20307SOL    HW162342   7.786   3.199   5.013 -0.3822 -0.3130 -0.0546
20307SOL    HW262343   7.759   3.057   5.060 -0.7989 -0.1534  0.1940
20308SOL     OW62344   8.568   1.049   3.487  0.0148  0.3369  0.6848
20308SOL    HW162345   8.501   0.988   3.519 -0.9754  0.4684 -1.0421
20308SOL    HW262346   8.563   1.123   3.547 -0.9121  0.0575  0.9691
20309SOL     OW62347   3.664   3.790   5.274 -0.3616 -0.0168 -0.0254
20309SOL    HW162348   3.711   3.707   5.282 -0.4000  0.0289  0.7095
20309SOL    HW262349   3.709   3.837   5.204 -0.6236 -0.8476 -0.7753
20310SOL     OW62350   5.010   5.683   3.920  0.1712 -0.1467 -0.0006
20310SOL    HW162351   5.048   5.757   3.968 -0.7730 -0.6849  1.6561
20310SOL    HW262352   5.080   5.618   3.916  0.6223  0.3593 -0.3940
20311SOL     OW62353   8.767   0.113   5.030 -0.6918 -0.1261  0.1862
20311SOL    HW162354   8.811   0.131   5.114  0.4906  2.8625 -0.9158
20311SOL    HW262355   8.716   0.034   5.046  0.5618 -0.4594  3.3062
20312SOL     OW62356   0.961   5.345   8.103 -0.1712  0.0543  0.8559
20312SOL    HW162357   1.014   5.306   8.033 -0.5330  1.9785 -0.5991
20312SOL    HW262358   1.025   5.379   8.165  0.2900  0.8265 -0.0056
20313SOL     OW62359   1.933   0.569   1.347  0.5632  0.2159  0.3349
20313SOL    HW162360   1.905   0.593   1.258  1.5618  1.2172  0.2687
20313SOL    HW262361   1.852   0.549   1.393  0.0335 -0.4079 -0.8264
20314SOL     OW62362   8.873   5.291   2.685 -0.2942 -0.7647 -0.7497
20314SOL    HW162363   8.909   5.380   2.686 -0.3074 -0.7613 -0.3485
20314SOL    HW262364   8.779   5.304   2.701 -0.2324 -0.8779 -0.2894
20315SOL     OW62365   2.156   6.372   5.700 -0.8628  0.3750  0.2024
20315SOL    HW162366   2.188   6.447   5.751  1.2134 -0.4043  0.1077
20315SOL    HW262367   2.099   6.325   5.761 -0.7887  1.0721  0.8304
20316SOL     OW62368   1.982   0.873   1.439 -0.4193  0.5056 -0.5370
20316SOL    HW162369   2.075   0.898   1.439 -0.4597  0.6991 -1.6597
20316SOL    HW262370   1.958   0.873   1.346 -1.4354  0.0486 -0.2749
20317SOL     OW62371   2.487   0.907   3.757 -0.2218  0.0319 -0.0855
20317SOL    HW162372   2.457   0.970   3.822 -1.5405 -1.0502  0.4157
20317SOL    HW262373   2.532   0.959   3.691  1.3451  1.1415  1.7839
20318SOL     OW62374   4.184   7.872   2.535  0.1498  0.1800  0.1709
20318SOL    HW162375   4.249   7.869   2.464  0.2281 -0.3410  0.2595
20318SOL    HW262376   4.108   7.827   2.499  0.0095  0.3669  0.2369
20319SOL     OW62377   6.197   9.248   1.847 -0.0572 -0.1161  0.5613
20319SOL    HW162378   6.138   9.195   1.900 -1.7939  1.5711  0.4380
20319SOL    HW262379   6.168   9.231   1.757 -0.7925  1.1241  0.5317
20320SOL     OW62380   4.365   3.929   7.563  0.1147  0.0183  0.0769
20320SOL    HW162381   4.285   3.887   7.595 -0.1130  0.4592  0.0992
20320SOL    HW262382   4.421   3.935   7.640  0.0491 -0.0178  0.1270
20321SOL     OW62383   9.223   3.573   4.985 -0.4445  0.0146  0.5932
20321SOL    HW162384   9.174   3.652   4.962  1.7976  1.5137  0.7092
20321SOL    HW262385   9.308   3.605   5.013  1.7378 -2.5578 -2.3945
20322SOL     OW62386   7.637   5.979   4.092  0.4104 -0.7960  0.1530
20322SOL    HW162387   7.656   6.033   4.169  0.3333 -0.8657  0.2202
20322SOL    HW262388   7.672   5.893   4.114  0.1613 -0.8823  0.2116
20323SOL     OW62389   5.863   8.644   8.411 -0.2520 -0.3326  0.2603
20323SOL    HW162390   5.854   8.730   8.369  1.7733 -0.0242  0.3573
20323SOL    HW262391   5.953   8.618   8.392 -0.7865 -2.3831  0.3693
20324SOL     OW62392   2.830   4.663   7.893  0.0556 -0.1922 -0.4832
20324SOL    HW162393   2.877   4.680   7.812  1.5113  1.1920  0.5701
20324SOL    HW262394   2.870   4.723   7.956 -0.4232 -1.8024  1.4598
20325SOL     OW62395   7.476   5.403   7.144 -0.1765 -0.1420  0.5193
20325SOL    HW162396   7.422   5.335   7.183 -0.1599 -0.3415  0.1962
20325SOL    HW262397   7.566   5.378   7.165 -0.1777 -0.1381  0.5296
20326SOL     OW62398   1.658   3.395   3.678  0.0019  0.2270  0.0506
20326SOL    HW162399   1.662   3.322   3.740  0.4690  0.9208  0.8438
20326SOL    HW262400   1.735   3.447   3.697  0.1888  0.4281 -1.1621
20327SOL     OW62401   8.045   0.118   6.824 -0.3953  0.3317  0.4295
20327SOL    HW162402   8.062   0.027   6.799  0.9710  0.4183  0.9503
20327SOL    HW262403   8.044   0.165   6.741  0.8422  0.1256  0.2813
20328SOL     OW62404   8.556   7.119   0.903 -1.0291 -0.1241 -0.0703
20328SOL    HW162405   8.599   7.155   0.981  0.2268  0.0254 -0.7986
20328SOL    HW262406   8.565   7.024   0.913 -1.7404 -0.1493  0.4250
20329SOL     OW62407   6.026   4.720   6.865 -0.0086 -0.2757  0.3944
20329SOL    HW162408   5.932   4.699   6.864 -0.4301  1.2002  2.8074
20329SOL    HW262409   6.055   4.696   6.953  1.3954  1.2544  0.3814
20330SOL     OW62410   4.425   6.271   8.419 -0.4486  0.0610  0.7600
20330SOL    HW162411   4.436   6.312   8.333 -1.9620  0.8006  0.8779
20330SOL    HW262412   4.409   6.179   8.401 -2.3908  0.4828  0.0887
20331SOL     OW62413   6.997   5.424   6.501  0.1079  0.6221  0.3117
20331SOL    HW162414   7.050   5.352   6.535  1.3263  0.7426 -1.2505
20331SOL    HW262415   7.010   5.495   6.564  3.9509  1.5335 -1.2673
20332SOL     OW62416   3.343   0.958   8.148  0.1572 -0.1210  0.2017
20332SOL    HW162417   3.375   1.013   8.076 -2.6340 -1.9489 -2.6761
20332SOL    HW262418   3.262   1.001   8.177 -0.2602 -0.9201  0.2404
20333SOL     OW62419   2.532   3.348   2.312 -0.0784  0.3080 -0.3839
20333SOL    HW162420   2.536   3.442   2.330  1.0727 -0.0149  1.2455
20333SOL    HW262421   2.618   3.315   2.337 -0.5892 -1.2526 -0.5769
20334SOL     OW62422   2.001   4.911   9.036  0.6422 -0.1544 -0.1088
20334SOL    HW162423   2.019   4.911   9.130  1.8782 -2.5340 -0.2598
20334SOL    HW262424   1.905   4.915   9.030  0.4210 -1.9600  1.3627
20335SOL     OW62425   0.568   1.646   7.992 -0.3801  0.2657 -0.0522
20335SOL    HW162426   0.533   1.611   8.074  0.1023 -1.3932 -0.5187
20335SOL    HW262427   0.494   1.647   7.932  0.0851 -2.4511 -0.7897
20336SOL     OW62428   7.960   4.244   6.719 -0.4443 -0.1626 -0.5043
20336SOL    HW162429   8.028   4.250   6.786 -1.1829  1.0805  0.1810
20336SOL    HW262430   7.992   4.178   6.658  0.8979 -0.3289  0.3335
20337SOL     OW62431   5.300   7.863   4.949 -0.2528  0.2902 -0.0031
20337SOL    HW162432   5.359   7.914   4.893 -0.2390  0.7080  0.3909
20337SOL    HW262433   5.351   7.785   4.973  0.1568  0.6662  0.3637
20338SOL     OW62434   2.245   3.501   3.244  0.3126 -0.1955  0.3284
20338SOL    HW162435   2.275   3.591   3.234  0.3998 -0.1906  0.6283
20338SOL    HW262436   2.161   3.509   3.289  0.6549 -0.3051  0.9856
20339SOL     OW62437   8.721   7.471   2.647  0.3373 -0.2521 -0.8340
20339SOL    HW162438   8.711   7.498   2.556  0.4697  0.3079 -0.6875
20339SOL    HW262439   8.712   7.552   2.697  0.2385 -0.5613 -0.3473
20340SOL     OW62440   1.775   7.846   0.445  0.1406 -0.1643 -0.1220
20340SOL    HW162441   1.777   7.751   0.455 -0.6429 -0.0496  1.4035
20340SOL    HW262442   1.703   7.875   0.501  2.4043  1.5750  2.1628
20341SOL     OW62443   3.513   8.225   0.415 -0.0186 -0.2343  0.2911
20341SOL    HW162444   3.522   8.320   0.408 -1.3173 -0.1984 -1.9307
20341SOL    HW262445   3.562   8.191   0.339  0.9358 -1.4135  1.3869
20342SOL     OW62446   4.217   2.868   8.583 -0.1316 -0.4470  0.5953
20342SOL    HW162447   4.177   2.818   8.512 -1.1662 -0.1549  0.9461
20342SOL    HW262448   4.145   2.882   8.645 -0.7827  4.0067 -0.8225
20343SOL     OW62449   8.176   9.137   8.539 -0.5288  0.0190  0.0103
20343SOL    HW162450   8.246   9.200   8.521 -0.6663 -0.0926 -0.9378
20343SOL    HW262451   8.099   9.191   8.555 -1.0239  0.1222 -2.3378
20344SOL     OW62452   6.221   0.991   7.576  0.8956  0.1518  0.2955
20344SOL    HW162453   6.184   0.926   7.636  1.1404 -1.1932 -0.9398
20344SOL    HW262454   6.309   0.959   7.557  0.2322 -0.4846 -2.1065
20345SOL     OW62455   3.345   8.615   1.853  0.0725 -0.3360 -0.2851
20345SOL    HW162456   3.305   8.540   1.897 -1.9273  0.7229 -0.2060
20345SOL    HW262457   3.391   8.662   1.923 -0.7162 -0.2014  0.1549
20346SOL     OW62458   5.857   5.923   2.167 -0.0618 -0.5185 -0.5674
20346SOL    HW162459   5.873   5.830   2.181  0.5295 -0.5934 -1.6040
20346SOL    HW262460   5.938   5.956   2.126  0.7185  0.9896  1.9386
20347SOL     OW62461   0.512   0.631   4.758 -0.2977 -0.3192 -0.1634
20347SOL    HW162462   0.425   0.604   4.788 -0.0841 -0.9940 -0.1349
20347SOL    HW262463   0.496   0.684   4.680 -0.6357 -2.3235 -1.5250
20348SOL     OW62464   5.220   5.580   0.232 -0.4162  0.4129 -0.6813
20348SOL    HW162465   5.139   5.632   0.230 -0.8961 -0.3443 -1.6471
20348SOL    HW262466   5.199   5.501   0.183  0.1956 -0.9003  1.0798
20349SOL     OW62467   6.599   7.780   1.725 -0.3214 -0.3455 -0.0271
20349SOL    HW162468   6.604   7.817   1.637  0.7388  0.2997  0.2867
20349SOL    HW262469   6.506   7.786   1.749 -0.7965 -1.3997 -1.4493
20350SOL     OW62470   6.097   6.149   3.849 -0.0911  0.0190  0.2969
20350SOL    HW162471   6.068   6.062   3.877  1.3511 -0.3928  0.5813
20350SOL    HW262472   6.150   6.133   3.771  1.6141  0.4241  1.3189
20351SOL     OW62473   1.590   3.654   1.647 -0.1874  0.3675 -0.0012
20351SOL    HW162474   1.629   3.602   1.576 -0.8087  0.5709 -0.4987
20351SOL    HW262475   1.660   3.715   1.673 -0.0604  0.5055 -0.6529
20352SOL     OW62476   6.350   8.738   7.143 -0.4293  0.2886 -1.3125
20352SOL    HW162477   6.414   8.718   7.074 -0.8161 -1.9798 -1.0601
20352SOL    HW262478   6.286   8.668   7.139 -1.0328  0.6500  0.7089
20353SOL     OW62479   7.335   4.528   8.732  0.4239  0.0685 -0.0699
20353SOL    HW162480   7.322   4.438   8.701  1.6085  0.1261 -0.7655
20353SOL    HW262481   7.421   4.527   8.774 -0.7187  0.2218  2.4685
20354SOL     OW62482   7.181   6.288   6.575 -0.1485  0.1247 -0.1822
20354SOL    HW162483   7.245   6.359   6.584  0.8953 -0.9172  1.0783
20354SOL    HW262484   7.192   6.236   6.654 -1.3945 -1.0444 -0.7415
20355SOL     OW62485   4.108   5.848   0.444 -0.1650 -0.1350  0.8106
20355SOL    HW162486   4.043   5.812   0.503 -0.3147  0.9394  1.3290
20355SOL    HW262487   4.189   5.849   0.495 -0.3030  0.8326  1.0277
20356SOL     OW62488   4.906   6.211   3.027  0.0793 -0.5127 -0.2527
20356SOL    HW162489   4.923   6.260   3.108  0.0140 -1.3002  0.2436
20356SOL    HW262490   4.834   6.259   2.985 -1.0137 -1.0319  0.9747
20357SOL     OW62491   1.442   6.518   0.477  0.3579  0.5683  0.3109
20357SOL    HW162492   1.400   6.467   0.547  2.4701  0.4389  1.5526
20357SOL    HW262493   1.381   6.590   0.460 -0.6047  0.1122  1.6781
20358SOL     OW62494   7.688   7.744   7.402  0.3571  0.3470 -1.1032
20358SOL    HW162495   7.721   7.831   7.420 -0.6661  0.5534 -0.0525
20358SOL    HW262496   7.605   7.758   7.356 -0.2888 -0.0262 -0.0859
20359SOL     OW62497   1.775   2.900   7.495 -0.2601 -0.6293 -0.0199
20359SOL    HW162498   1.682   2.913   7.474  0.1313  0.8886 -0.9267
20359SOL    HW262499   1.781   2.918   7.588 -0.4768  1.9643 -0.4304
20360SOL     OW62500   3.336   4.884   2.382 -0.4318  0.4149 -0.1071
20360SOL    HW162501   3.264   4.922   2.332 -2.6796 -1.9385  1.0845
20360SOL    HW262502   3.411   4.888   2.324 -1.1522  3.9856 -1.0300
20361SOL     OW62503   7.274   0.130   7.261  0.5581 -0.1355  0.5732
20361SOL    HW162504   7.224   0.116   7.341 -0.1168  0.9457  0.3666
20361SOL    HW262505   7.290   0.225   7.259  2.1597 -0.3753  0.3516
20362SOL     OW62506   0.364   3.294   1.988 -0.0016 -0.0986  0.7385
20362SOL    HW162507   0.331   3.367   2.040  2.1263  1.4756  0.0127
20362SOL    HW262508   0.440   3.263   2.036 -0.4975 -1.4569  0.6957
20363SOL     OW62509   8.747   6.501   3.131  0.2736 -0.8375  0.2536
20363SOL    HW162510   8.670   6.479   3.183 -0.3267  2.3908  0.9189
20363SOL    HW262511   8.716   6.566   3.068  2.1876 -0.4077 -0.3224
20364SOL     OW62512   5.258   8.637   6.718 -0.2665 -0.0992  0.1756
20364SOL    HW162513   5.285   8.728   6.703  1.0631 -0.6342 -0.8397
20364SOL    HW262514   5.164   8.638   6.702  0.0201  0.7560 -1.7255
20365SOL     OW62515   5.400   7.992   2.205 -0.0266  0.0715 -0.1246
20365SOL    HW162516   5.357   7.911   2.177  0.3902 -0.7154  1.4333
20365SOL    HW262517   5.383   7.997   2.299  2.5064  0.1820  0.3920
20366SOL     OW62518   4.984   5.812   6.743 -0.6262 -0.0728 -0.6648
20366SOL    HW162519   5.004   5.748   6.811  0.7079  0.0486 -0.9187
20366SOL    HW262520   5.027   5.779   6.665  0.1160  1.1448 -0.7933
20367SOL     OW62521   8.144   1.345   8.299 -0.1965  0.0958  0.0068
20367SOL    HW162522   8.210   1.294   8.344  1.0705  2.1260  0.5697
20367SOL    HW262523   8.160   1.435   8.325 -2.0057  0.8899 -1.3336
20368SOL     OW62524   7.700   7.549   2.789 -0.1837  0.2433 -0.4350
20368SOL    HW162525   7.766   7.598   2.740  0.6793 -1.1444 -0.6896
20368SOL    HW262526   7.662   7.614   2.849  2.1007  0.8741  0.4362
20369SOL     OW62527   5.238   7.551   5.061  0.4333 -0.2748  0.1926
20369SOL    HW162528   5.202   7.489   5.124 -0.5524  1.0649  1.0139
20369SOL    HW262529   5.168   7.563   4.997  0.1070  0.8862  0.7306
20370SOL     OW62530   3.674   1.471   2.049 -0.1637 -0.0055 -0.1070
20370SOL    HW162531   3.640   1.384   2.070  1.5168 -0.5338  0.6255
20370SOL    HW262532   3.644   1.527   2.120  0.8522 -0.5648  0.7834
20371SOL     OW62533   7.799   2.019   5.045 -0.8717  0.1412  0.2020
20371SOL    HW162534   7.717   2.036   5.090 -0.4639 -1.1096  1.4825
20371SOL    HW262535   7.854   2.095   5.066 -0.9978 -0.0065  1.1196
20372SOL     OW62536   8.708   0.052   4.752 -0.2892 -0.0972  0.2095
20372SOL    HW162537   8.784   0.085   4.800 -0.1872 -1.7978  1.3054
20372SOL    HW262538   8.690  -0.033   4.792 -0.8753 -1.1197 -2.0697
20373SOL     OW62539   2.418   0.095   3.667  0.6275 -0.4863 -0.3000
20373SOL    HW162540   2.420   0.006   3.632  0.0125 -1.4332  1.9030
20373SOL    HW262541   2.377   0.147   3.598  1.8960 -1.6778 -2.0297
20374SOL     OW62542   6.073   3.969   4.765  0.0877 -0.2057 -0.3510
20374SOL    HW162543   5.997   3.937   4.716  0.1705  0.3619 -0.8597
20374SOL    HW262544   6.036   4.030   4.829  0.0744 -0.2582 -0.3082
20375SOL     OW62545   4.198   8.310   8.583  0.5870 -0.1197  0.1750
20375SOL    HW162546   4.214   8.323   8.489  0.4543 -2.3224 -0.2034
20375SOL    HW262547   4.231   8.222   8.601  1.4472  0.5889  2.4282
20376SOL     OW62548   8.748   1.539   3.914  0.3829  0.2594 -0.0408
20376SOL    HW162549   8.763   1.631   3.892  1.6906  0.3338  1.0031
20376SOL    HW262550   8.714   1.542   4.003 -1.3341 -0.2071 -0.6472
20377SOL     OW62551   7.983   5.276   6.908 -0.9046 -0.0595  0.1197
20377SOL    HW162552   7.914   5.232   6.958 -0.9423 -0.1314  0.0051
20377SOL    HW262553   7.950   5.277   6.818 -0.9507  0.2983  0.1397
20378SOL     OW62554   1.822   5.969   8.775  0.0464 -0.0223 -0.1566
20378SOL    HW162555   1.906   6.013   8.757 -0.9084  1.1748 -2.0548
20378SOL    HW262556   1.784   5.954   8.689 -1.4622 -1.0488  0.6438
20379SOL     OW62557   7.016   5.880   8.024  0.6821 -0.0752 -0.2285
20379SOL    HW162558   6.982   5.793   8.045  0.3394 -0.2876 -1.5669
20379SOL    HW262559   7.107   5.865   7.998  0.2520 -0.2458 -1.7372
20380SOL     OW62560   6.295   6.651   8.065 -0.3261  0.4679  0.6234
20380SOL    HW162561   6.321   6.696   8.145 -1.7242  2.7695 -0.0914
20380SOL    HW262562   6.211   6.691   8.042 -0.2036 -0.4728 -1.7134
20381SOL     OW62563   6.660   1.705   5.342 -0.1040 -0.3098 -0.1279
20381SOL    HW162564   6.702   1.621   5.324 -2.1588 -1.5846  0.6521
20381SOL    HW262565   6.719   1.748   5.405  2.0153 -0.1825 -2.0611
20382SOL     OW62566   4.030   5.311   1.999  0.4742  0.1149  0.1761
20382SOL    HW162567   3.936   5.331   1.999  0.4456  0.1205  1.7672
20382SOL    HW262568   4.049   5.288   1.909 -1.1048 -0.0949 -0.1421
20383SOL     OW62569   2.818   2.328   2.150  0.6227 -0.0429  0.6026
20383SOL    HW162570   2.901   2.364   2.179  0.9342  0.1181 -0.4369
20383SOL    HW262571   2.760   2.336   2.226  1.8251 -1.1030  1.6814
20384SOL     OW62572   3.300   5.716   8.308  0.4198 -0.3819  0.2536
20384SOL    HW162573   3.245   5.795   8.314 -1.4859 -1.7244  1.8204
20384SOL    HW262574   3.380   5.746   8.265 -0.5778  2.2121  0.0103
20385SOL     OW62575   2.392   4.113   0.013 -0.8914 -0.5003 -0.0254
20385SOL    HW162576   2.453   4.137   0.084 -1.0219 -0.1988 -0.0167
20385SOL    HW262577   2.435   4.143  -0.067 -0.5834 -1.1440 -0.1164
20386SOL     OW62578   5.524   3.368   4.456 -0.6120  0.3074  0.0925
20386SOL    HW162579   5.605   3.334   4.495  0.0495  0.7995 -0.8291
20386SOL    HW262580   5.552   3.412   4.376 -1.7717  0.6806 -0.1278
20387SOL     OW62581   3.192   7.695   9.024  0.1343  0.2937  0.2680
20387SOL    HW162582   3.175   7.784   8.993  0.9514  0.3103 -0.1661
20387SOL    HW262583   3.144   7.639   8.962  0.1699  0.4042  0.1397
20388SOL     OW62584   8.261   8.722   8.427 -0.7913  0.3758 -0.1522
20388SOL    HW162585   8.303   8.720   8.341  0.9559  3.8337  0.4248
20388SOL    HW262586   8.173   8.687   8.412  0.4700 -2.0307 -2.6081
20389SOL     OW62587   7.975   5.340   4.094 -0.0281  0.1623 -0.1178
20389SOL    HW162588   7.884   5.325   4.067  0.0981  2.6567 -2.3345
20389SOL    HW262589   8.020   5.259   4.070 -1.0696  0.1284 -2.2235
20390SOL     OW62590   5.535   3.846   6.550 -0.5884  0.2983  0.6538
20390SOL    HW162591   5.544   3.872   6.458 -1.5131 -2.9222 -0.4970
20390SOL    HW262592   5.543   3.927   6.599 -2.3491  2.5290 -2.4134
20391SOL     OW62593   2.013   8.160   6.396  0.1572 -0.0312 -0.1288
20391SOL    HW162594   2.001   8.254   6.382 -1.7425 -0.3889 -1.2143
20391SOL    HW262595   1.957   8.139   6.470 -1.0597 -0.6335 -1.1851
20392SOL     OW62596   5.840   0.147   1.694 -0.3480 -0.3238 -0.0281
20392SOL    HW162597   5.760   0.117   1.738 -1.4224  0.9507 -1.0473
20392SOL    HW262598   5.906   0.147   1.764 -1.6223  0.1151  1.2444
20393SOL     OW62599   4.357   2.078   6.485  0.2252  0.1019  0.0227
20393SOL    HW162600   4.390   2.055   6.399  0.0509  0.7279 -0.2160
20393SOL    HW262601   4.355   2.174   6.486 -1.4816  0.1008  0.0588
20394SOL     OW62602   1.225   3.620   2.752  0.1507 -0.3401  0.4503
20394SOL    HW162603   1.299   3.613   2.813  0.2053 -0.8735  0.3294
20394SOL    HW262604   1.177   3.538   2.762  0.6603 -0.8348 -0.8615
20395SOL     OW62605   1.814   6.919   3.345 -0.1184  0.1085 -0.3276
20395SOL    HW162606   1.859   6.910   3.261  0.8383  0.6782  0.1175
20395SOL    HW262607   1.764   7.001   3.336  0.6544  0.6154 -0.0385
20396SOL     OW62608   3.569   5.234   4.306  0.0341  0.2984  0.6642
20396SOL    HW162609   3.534   5.312   4.349  0.2698  1.3598 -0.9643
20396SOL    HW262610   3.644   5.267   4.255  0.7656 -1.1761  0.7410
20397SOL     OW62611   9.264   2.706   1.506 -0.3557 -0.2832 -0.4532
20397SOL    HW162612   9.257   2.732   1.414 -2.4445 -1.0228 -0.5492
20397SOL    HW262613   9.192   2.645   1.520  0.8304 -1.3865  1.3119
20398SOL     OW62614   0.107   6.675   8.583  0.1156  0.0583 -0.5533
20398SOL    HW162615   0.144   6.746   8.634 -0.9753  2.2718 -2.6328
20398SOL    HW262616   0.013   6.677   8.601  0.0409 -0.7280 -0.7879
20399SOL     OW62617   4.490   7.291   1.723  0.2426  0.0539  0.0743
20399SOL    HW162618   4.503   7.197   1.730 -0.6930 -0.1774 -1.0653
20399SOL    HW262619   4.397   7.304   1.742 -0.4702  0.3168 -3.0632
20400SOL     OW62620   4.575   9.004   3.279 -0.2677  0.5424 -0.4048
20400SOL    HW162621   4.562   9.094   3.310 -0.9901  0.1989  0.3431
20400SOL    HW262622   4.495   8.959   3.306  1.5248 -1.2156  2.4879
20401SOL     OW62623   9.259   7.048   1.444 -0.3551 -0.3437  0.1595
20401SOL    HW162624   9.295   7.137   1.448  1.3781 -0.9823 -0.5614
20401SOL    HW262625   9.251   7.029   1.351  1.7131 -1.8605  0.2383
20402SOL     OW62626   4.204   4.881   7.190  0.1818 -0.3916 -0.1938
20402SOL    HW162627   4.123   4.845   7.154 -0.4125  0.3844  0.3306
20402SOL    HW262628   4.267   4.809   7.184 -0.5448 -1.0095 -0.5951
20403SOL     OW62629   2.644   0.779   4.277 -0.0151 -0.3880  0.2445
20403SOL    HW162630   2.715   0.801   4.338  0.5219  0.6778 -0.7188
20403SOL    HW262631   2.573   0.838   4.300 -0.2815 -0.8698  0.6618
20404SOL     OW62632   2.033   3.188   4.177 -0.2930 -0.6991 -0.0048
20404SOL    HW162633   2.014   3.245   4.251 -1.0981 -0.9019 -0.0439
20404SOL    HW262634   2.008   3.100   4.207  0.0689 -0.8915 -0.2622
20405SOL     OW62635   2.068   8.253   7.275  0.4349  0.1951  0.0456
20405SOL    HW162636   2.128   8.327   7.269 -2.5716  2.8168 -0.2372
20405SOL    HW262637   2.001   8.281   7.337  0.2665 -3.2322  1.6264
20406SOL     OW62638   3.242   4.869   3.369  0.0869  0.2436 -0.4373
20406SOL    HW162639   3.266   4.883   3.277 -0.0342  0.3129 -0.4580
20406SOL    HW262640   3.147   4.867   3.369  0.0688  0.7536 -0.2403
20407SOL     OW62641   0.066   0.488   5.873 -0.1212  0.1387 -0.4687
20407SOL    HW162642  -0.025   0.517   5.866 -0.3498 -0.7454 -1.3732
20407SOL    HW262643   0.060   0.404   5.919  0.3812  0.7076  0.6838
20408SOL     OW62644   0.723   4.688   3.701 -0.2287 -0.3434  0.1122
20408SOL    HW162645   0.754   4.678   3.791 -0.6589 -0.9640  0.1901
20408SOL    HW262646   0.790   4.645   3.647 -0.2558 -0.4666  0.1775
20409SOL     OW62647   2.918   2.251   1.111 -0.1724 -0.1671 -0.4465
20409SOL    HW162648   2.896   2.193   1.183  2.2172 -1.6661 -0.7993
20409SOL    HW262649   2.864   2.222   1.038  1.8531 -2.9624 -0.9921
20410SOL     OW62650   5.141   8.154   8.495  0.2280 -0.1257  0.1408
20410SOL    HW162651   5.226   8.146   8.451  0.4112 -0.1732  0.5067
20410SOL    HW262652   5.078   8.148   8.424  0.5713  1.9855 -0.4273
20411SOL     OW62653   5.904   0.852   5.460 -0.0312  0.3932  0.1653
20411SOL    HW162654   5.876   0.870   5.550  0.3714 -1.3044  0.6735
20411SOL    HW262655   5.977   0.913   5.445 -1.4912  2.2287  0.1581
20412SOL     OW62656   2.537   5.629   1.710 -0.1369  0.0548  0.1783
20412SOL    HW162657   2.529   5.703   1.770 -1.1410 -0.5321  0.7978
20412SOL    HW262658   2.509   5.554   1.761  1.8812 -0.9573 -0.1163
20413SOL     OW62659   4.221   6.349   7.684 -0.5351  0.3174 -0.0925
20413SOL    HW162660   4.178   6.399   7.614 -1.4000 -0.5793 -0.2102
20413SOL    HW262661   4.224   6.259   7.652  3.7004  0.6125 -1.2251
20414SOL     OW62662   1.628   1.897   1.357  0.0650  0.3822  0.4546
20414SOL    HW162663   1.565   1.903   1.429 -1.4318 -0.3827 -0.7221
20414SOL    HW262664   1.646   1.987   1.332 -2.3761  0.6295 -0.6436
20415SOL     OW62665   2.129   0.108   1.870 -0.1424 -0.5344  0.1511
20415SOL    HW162666   2.094   0.019   1.883 -0.6181 -0.2335  1.0231
20415SOL    HW262667   2.073   0.145   1.802  0.7517 -1.2627 -1.0192
20416SOL     OW62668   6.699   5.266   3.378  0.3240 -0.2880 -0.1310
20416SOL    HW162669   6.638   5.242   3.309  0.2285  1.3709 -0.6519
20416SOL    HW262670   6.786   5.254   3.339  0.2919  2.4593 -1.3004
20417SOL     OW62671   7.983   7.045   7.995  0.2966  0.4399 -0.0447
20417SOL    HW162672   8.040   7.006   8.062 -0.3350 -2.2850 -0.9443
20417SOL    HW262673   7.895   7.034   8.030 -0.3332 -3.6366 -2.2361
20418SOL     OW62674   1.151   3.638   6.622  0.3641  0.1484 -0.2895
20418SOL    HW162675   1.160   3.709   6.686 -0.0338  0.6860 -0.8181
20418SOL    HW262676   1.113   3.680   6.545 -0.8540 -0.8352 -0.2604
20419SOL     OW62677   4.659   7.572   7.161 -0.0094  0.4983 -0.1175
20419SOL    HW162678   4.637   7.665   7.153  0.0196  0.4766 -0.4615
20419SOL    HW262679   4.744   7.563   7.117 -0.4198  0.1537 -0.8697
20420SOL     OW62680   2.603   9.111   8.959 -0.4793 -0.1917 -0.3361
20420SOL    HW162681   2.547   9.186   8.980  1.7163  1.3617  0.2377
20420SOL    HW262682   2.625   9.122   8.867  1.5639  1.1621  0.2464
20421SOL     OW62683   4.699   6.299   5.517 -0.0563 -0.1736 -0.3766
20421SOL    HW162684   4.673   6.359   5.447  2.3726  1.7092  0.1863
20421SOL    HW262685   4.755   6.234   5.474  2.1780  1.4973 -0.1898
20422SOL     OW62686   1.527   9.055   0.385  0.7279  0.4894  0.1268
20422SOL    HW162687   1.567   9.038   0.300  2.3538 -1.1347  1.1418
20422SOL    HW262688   1.542   8.975   0.435 -1.3159  0.9106  1.5506
20423SOL     OW62689   8.089   1.878   5.811  0.3814 -0.7108 -0.2630
20423SOL    HW162690   8.032   1.805   5.787 -0.1557 -0.1492 -0.7503
20423SOL    HW262691   8.101   1.927   5.729 -1.3346  1.1514  0.5073
20424SOL     OW62692   4.383   6.365   8.131  0.0207  0.1078 -0.0864
20424SOL    HW162693   4.307   6.408   8.092 -0.1906  1.7942  2.0197
20424SOL    HW262694   4.387   6.280   8.087 -2.4064  0.3970 -1.0395
20425SOL     OW62695   6.460   3.260   4.918  0.1969 -0.2546 -0.1820
20425SOL    HW162696   6.429   3.347   4.941 -0.3767  0.0776 -2.0068
20425SOL    HW262697   6.543   3.250   4.964 -0.1317  0.9097  0.7015
20426SOL     OW62698   4.582   3.737   7.409  0.3191 -0.0265 -0.4700
20426SOL    HW162699   4.521   3.806   7.436  0.4514 -0.2051  0.3070
20426SOL    HW262700   4.650   3.784   7.360 -1.2286 -0.0227 -2.7454
20427SOL     OW62701   6.693   0.962   3.410 -0.2016  0.0123  0.4093
20427SOL    HW162702   6.649   0.905   3.474 -4.6420  2.1954 -0.2979
20427SOL    HW262703   6.670   0.925   3.325  1.3324 -0.0071 -0.0268
20428SOL     OW62704   9.203   0.161   2.951 -0.3446  0.0904  0.1043
20428SOL    HW162705   9.195   0.095   2.882 -1.0391  0.0758  0.1845
20428SOL    HW262706   9.144   0.130   3.020 -1.5434  1.3401 -0.3056
20429SOL     OW62707   5.239   3.949   6.545  0.3872  0.2973 -0.0992
20429SOL    HW162708   5.171   3.910   6.489 -0.6088  0.3758  1.0150
20429SOL    HW262709   5.320   3.938   6.495 -0.4269  0.1599 -1.4495
20430SOL     OW62710   2.135   8.356   8.211  0.2481 -0.3226  0.4287
20430SOL    HW162711   2.113   8.426   8.150 -0.7485  0.8620  2.0551
20430SOL    HW262712   2.084   8.281   8.181  1.0157 -0.2625 -1.1064
20431SOL     OW62713   9.220   8.421   7.016 -0.3136  0.0181 -0.7197
20431SOL    HW162714   9.132   8.392   7.039 -0.1845  0.1789 -0.0084
20431SOL    HW262715   9.260   8.343   6.976 -0.1344 -0.6696  0.7327
20432SOL     OW62716   2.973   6.927   3.062 -0.1079  0.3483  0.0094
20432SOL    HW162717   3.037   6.860   3.085  1.1928  1.0026 -1.5356
20432SOL    HW262718   3.024   6.994   3.016 -1.6468  1.6464  0.1120
20433SOL     OW62719   6.308   0.532   5.542 -0.3385  0.1908  0.0457
20433SOL    HW162720   6.305   0.588   5.619 -4.7944  1.7075 -0.8779
20433SOL    HW262721   6.270   0.449   5.571 -0.6357  0.2555 -0.1449
20434SOL     OW62722   7.429   2.394   3.729 -0.2635  0.1803 -0.3034
20434SOL    HW162723   7.347   2.438   3.705 -1.0769 -0.5671  0.9660
20434SOL    HW262724   7.419   2.375   3.822  0.1626 -2.3834 -0.7113
20435SOL     OW62725   9.091   4.366   2.756  0.7777  0.1931 -0.0026
20435SOL    HW162726   9.136   4.428   2.699  0.5565  0.0697 -0.3222
20435SOL    HW262727   9.048   4.305   2.695  0.3063  0.2221  0.2911
20436SOL     OW62728   0.254   3.883   8.936 -0.0058  0.4561 -0.0648
20436SOL    HW162729   0.170   3.923   8.912 -0.0386  0.6176  0.3172
20436SOL    HW262730   0.317   3.922   8.876  0.0236  1.3496  0.5330
20437SOL     OW62731   7.486   1.442   4.316 -0.0783  0.0736 -0.1053
20437SOL    HW162732   7.546   1.431   4.389 -0.1701 -0.2322 -0.0761
20437SOL    HW262733   7.497   1.534   4.290  0.5983 -0.0442 -0.2718
20438SOL     OW62734   3.722   8.349   5.770  0.3264  0.5659 -0.0202
20438SOL    HW162735   3.716   8.399   5.689  0.5306  0.6428  0.0106
20438SOL    HW262736   3.725   8.415   5.839  2.4301  0.6030 -0.0833
20439SOL     OW62737   4.985   8.232   3.605 -0.2592 -0.5853  0.1403
20439SOL    HW162738   4.913   8.242   3.668  0.5208 -0.5213  1.0482
20439SOL    HW262739   4.983   8.140   3.580 -1.5145 -0.2936 -0.9125
20440SOL     OW62740   4.318   2.310   1.069 -0.5599 -0.1933 -0.0552
20440SOL    HW162741   4.388   2.373   1.087  0.6439 -1.5173  0.0070
20440SOL    HW262742   4.273   2.300   1.153 -0.2556 -0.0118  0.1311
20441SOL     OW62743   2.695   3.365   2.587  0.6557  0.0011  0.2628
20441SOL    HW162744   2.703   3.293   2.649 -0.8302  0.9091  1.5781
20441SOL    HW262745   2.679   3.442   2.642  1.4650  1.2231 -1.1422
20442SOL     OW62746   0.638   3.944   4.803 -0.1157  0.1171 -0.0402
20442SOL    HW162747   0.637   4.021   4.860  1.6210 -0.5420  0.9332
20442SOL    HW262748   0.567   3.889   4.837 -0.3183  0.5636  0.2754
20443SOL     OW62749   4.462   6.194   3.903 -0.3041  0.6957 -0.4355
20443SOL    HW162750   4.547   6.174   3.864  0.0883  1.7076 -0.1339
20443SOL    HW262751   4.441   6.118   3.957 -0.7096 -0.5975 -2.3317
20444SOL     OW62752   8.184   3.667   5.976 -0.3296  0.5420  0.1711
20444SOL    HW162753   8.198   3.737   6.039 -0.2422  0.0582  0.6931
20444SOL    HW262754   8.103   3.625   6.004 -0.1977  0.2108  0.0654
20445SOL     OW62755   4.482   9.217   0.083  0.1610  0.2220 -0.1841
20445SOL    HW162756   4.522   9.290   0.037 -0.6979  0.9497  0.1920
20445SOL    HW262757   4.456   9.253   0.168 -1.2510 -0.2142 -0.3963
20446SOL     OW62758   1.973   0.417   7.084  0.2869  0.7001 -0.9350
20446SOL    HW162759   1.882   0.446   7.072  0.3302  1.9752  1.3060
20446SOL    HW262760   2.001   0.458   7.166  2.5366 -0.5799 -0.9781
20447SOL     OW62761   0.115   1.413   5.839 -0.4625  0.1466 -0.2002
20447SOL    HW162762   0.027   1.378   5.820 -0.5768  0.4893 -0.2993
20447SOL    HW262763   0.141   1.457   5.759 -1.0149  1.7545  0.4723
20448SOL     OW62764   1.735   1.463   4.537 -0.0127  0.2647 -0.0289
20448SOL    HW162765   1.705   1.550   4.512 -1.3532 -0.0666  0.3085
20448SOL    HW262766   1.817   1.478   4.584 -0.6866  1.4487  0.8350
20449SOL     OW62767   0.193   7.382   4.479  0.2125  0.3488 -0.2975
20449SOL    HW162768   0.211   7.425   4.563 -1.3428  1.3323 -0.4314
20449SOL    HW262769   0.264   7.411   4.421  0.6959  0.5184  0.3716
20450SOL     OW62770   7.082   2.535   3.100  0.2796 -0.0728  0.1649
20450SOL    HW162771   7.055   2.623   3.075  1.5141 -0.2142 -1.9360
20450SOL    HW262772   7.174   2.544   3.125  0.2845 -0.6777  0.3772
20451SOL     OW62773   7.441   0.865   5.789  0.1409 -0.6648  0.0929
20451SOL    HW162774   7.421   0.950   5.749 -0.4176  0.0980  1.8623
20451SOL    HW262775   7.383   0.803   5.745  1.3799 -0.3904 -2.0401
20452SOL     OW62776   6.354   6.815   8.517  0.1380 -0.0114 -0.2712
20452SOL    HW162777   6.336   6.730   8.558 -0.9215  0.6779  0.7292
20452SOL    HW262778   6.409   6.861   8.581 -1.7340  1.1685  0.5931
20453SOL     OW62779   7.900   7.306   2.326  0.2399  0.2131 -0.8753
20453SOL    HW162780   7.992   7.330   2.341  0.0625 -1.0430  3.6791
20453SOL    HW262781   7.850   7.376   2.369 -0.5762 -2.1156  2.3247
20454SOL     OW62782   3.449   2.511   0.487  0.8050  0.0216  0.2126
20454SOL    HW162783   3.457   2.496   0.393  1.7330 -1.0472  0.4432
20454SOL    HW262784   3.356   2.530   0.500  0.6573  0.1259 -0.9076
20455SOL     OW62785   8.798   7.819   2.873  0.0083 -0.3430  0.2053
20455SOL    HW162786   8.866   7.762   2.909  1.7072  2.5935  2.0397
20455SOL    HW262787   8.716   7.776   2.897  1.1684 -2.3677  0.7916
20456SOL     OW62788   0.080   3.784   7.097 -0.3780 -0.4006  0.2484
20456SOL    HW162789  -0.006   3.776   7.055  0.6555 -1.2699 -1.8538
20456SOL    HW262790   0.097   3.697   7.133  0.9031 -1.2517 -2.1581
20457SOL     OW62791   8.651   0.512   5.951  0.2176 -0.0120  0.2339
20457SOL    HW162792   8.629   0.579   5.887 -0.6101 -1.7077 -1.3589
20457SOL    HW262793   8.689   0.441   5.899 -3.0133 -2.6145  1.1027
20458SOL     OW62794   5.872   4.918   8.101 -0.0549  0.1331 -0.1508
20458SOL    HW162795   5.838   5.003   8.126 -0.6547 -0.2505  0.3491
20458SOL    HW262796   5.795   4.862   8.093  0.3605 -0.4461 -0.1645
20459SOL     OW62797   4.023   1.537   9.268  0.4770 -0.0481 -0.0038
20459SOL    HW162798   3.981   1.600   9.209 -1.6874  1.3345  2.7604
20459SOL    HW262799   3.964   1.461   9.268  0.6573 -0.1884  0.0926
20460SOL     OW62800   7.997   6.000   4.532 -0.1890 -0.0628  0.1732
20460SOL    HW162801   7.908   6.010   4.567  0.5038 -0.9281  2.3457
20460SOL    HW262802   7.992   5.924   4.474 -0.9013  0.0487  0.0790
20461SOL     OW62803   2.462   8.348   8.343  0.4300  0.2585  0.1457
20461SOL    HW162804   2.398   8.281   8.321  1.4850 -0.8586  0.3847
20461SOL    HW262805   2.430   8.427   8.299 -1.1902 -0.2182  0.4075
20462SOL     OW62806   0.660   3.171   4.789 -0.1018 -0.2134 -0.1339
20462SOL    HW162807   0.664   3.175   4.694  0.0537 -0.6089 -0.1457
20462SOL    HW262808   0.711   3.093   4.812  0.8702  0.5301  0.3339
20463SOL     OW62809   0.972   3.943   7.179 -0.4611  0.5713  0.2764
20463SOL    HW162810   0.987   3.895   7.098 -0.7112  0.9731 -0.0164
20463SOL    HW262811   0.924   4.021   7.151 -0.7912  0.5758  0.8482
20464SOL     OW62812   4.717   3.120   2.668 -0.2299 -0.6022 -0.0992
20464SOL    HW162813   4.744   3.205   2.703  1.3809 -0.8246 -0.7464
20464SOL    HW262814   4.674   3.141   2.585  1.9720 -0.4904 -1.2904
20465SOL     OW62815   4.258   1.930   4.693  0.3037 -0.1491 -0.0714
20465SOL    HW162816   4.243   1.835   4.696 -0.0262 -0.0853  0.5437
20465SOL    HW262817   4.231   1.961   4.779 -0.3036  0.6176 -0.5286
20466SOL     OW62818   4.459   8.644   8.072  0.3544  0.5131 -0.4774
20466SOL    HW162819   4.371   8.679   8.057  1.0498  1.9877 -1.3037
20466SOL    HW262820   4.455   8.554   8.040 -0.9089  0.4933 -0.3038
20467SOL     OW62821   4.502   2.761   3.427 -0.3031 -0.0963  0.1612
20467SOL    HW162822   4.450   2.840   3.440  1.4436  1.2159 -0.5216
20467SOL    HW262823   4.531   2.765   3.336  0.7733 -0.9257  0.4471
20468SOL     OW62824   1.479   8.380   0.874 -0.2729  0.0369 -0.0588
20468SOL    HW162825   1.455   8.375   0.781  0.6325  0.4254 -0.3283
20468SOL    HW262826   1.574   8.367   0.874 -0.0344  1.6445  0.6546
20469SOL     OW62827   4.331   5.982   1.559 -0.8186 -0.0023  0.2385
20469SOL    HW162828   4.369   5.905   1.603  0.8806  0.1310 -0.8885
20469SOL    HW262829   4.382   6.056   1.593 -2.1078  0.5951  0.9334
20470SOL     OW62830   1.953   8.102   2.989 -0.3679 -0.3603  0.7581
20470SOL    HW162831   1.869   8.097   3.034 -0.9017 -1.5001 -0.2933
20470SOL    HW262832   2.000   8.173   3.032 -2.1340  0.7423  0.9425
20471SOL     OW62833   0.271   4.755   7.640  0.1985  0.3423  0.5979
20471SOL    HW162834   0.270   4.835   7.587  0.6151  0.2718  0.4841
20471SOL    HW262835   0.208   4.697   7.597  1.2950 -0.1115 -0.4431
20472SOL     OW62836   8.868   7.819   2.390 -0.1814 -0.7527  0.6956
20472SOL    HW162837   8.914   7.795   2.309  0.7660  0.7699  0.7492
20472SOL    HW262838   8.775   7.802   2.371  0.0421 -0.5635 -0.6659
20473SOL     OW62839   6.943   5.429   9.008  0.2438 -0.2221 -0.0285
20473SOL    HW162840   6.863   5.445   8.958 -1.1462 -0.6118  2.0040
20473SOL    HW262841   6.973   5.343   8.978  1.2128  0.8453 -2.4022
20474SOL     OW62842   8.355   1.777   3.940  0.2376 -0.4221 -0.4363
20474SOL    HW162843   8.404   1.696   3.954 -0.8809 -0.9212  0.7461
20474SOL    HW262844   8.308   1.792   4.022 -0.6455  0.6867 -1.1121
20475SOL     OW62845   6.118   6.874   6.083 -0.2664  0.6857  0.1617
20475SOL    HW162846   6.131   6.935   6.010 -1.0315  0.0005 -0.5773
20475SOL    HW262847   6.055   6.811   6.049  1.1285 -1.0140  0.5974
20476SOL     OW62848   9.040   2.814   7.797 -0.6657 -0.4373 -0.5211
20476SOL    HW162849   9.078   2.738   7.753  1.8836  0.3960  0.0462
20476SOL    HW262850   9.008   2.869   7.725  0.1541 -0.7396 -1.1380
20477SOL     OW62851   9.175   3.861   2.680 -0.4831 -0.6528  0.1765
20477SOL    HW162852   9.263   3.861   2.642 -0.7345 -0.1986 -0.4129
20477SOL    HW262853   9.186   3.816   2.764  0.0784 -1.6604 -0.4231
20478SOL     OW62854   9.018   2.467   2.240  0.3226  0.0736 -0.0417
20478SOL    HW162855   9.022   2.523   2.162 -1.5946  0.4509  0.0838
20478SOL    HW262856   9.005   2.379   2.205 -0.1138  0.1828 -0.1507
20479SOL     OW62857   1.546   7.229   4.306  0.0990 -0.0045  0.2570
20479SOL    HW162858   1.546   7.136   4.280 -2.8263 -0.7522  2.3985
20479SOL    HW262859   1.455   7.257   4.293  0.2848  1.7420  2.3025
20480SOL     OW62860   7.659   4.045   9.263 -0.0800  0.2472 -0.6558
20480SOL    HW162861   7.751   4.026   9.282  0.2232  1.7921 -0.4739
20480SOL    HW262862   7.652   4.140   9.272 -1.5982  0.1962 -1.1125
20481SOL     OW62863   7.031   0.122   7.023 -0.2878  0.4391 -0.2672
20481SOL    HW162864   7.103   0.163   7.072 -0.2998 -0.2280  0.3117
20481SOL    HW262865   6.953   0.172   7.049 -0.2648  0.2088  0.2497
20482SOL     OW62866   2.215   7.139   0.038  0.1013 -0.0847 -0.2416
20482SOL    HW162867   2.283   7.094   0.089 -1.0499 -0.3488  1.1053
20482SOL    HW262868   2.157   7.178   0.104 -0.1197  1.6052 -1.3673
20483SOL     OW62869   2.407   0.075   9.174 -0.0112 -0.3667  0.3563
20483SOL    HW162870   2.316   0.101   9.160 -0.6028 -2.6949 -0.7239
20483SOL    HW262871   2.401  -0.014   9.211  1.7986 -0.8365 -0.3565
20484SOL     OW62872   0.723   7.266   6.759 -0.4576  0.5295  0.3166
20484SOL    HW162873   0.693   7.178   6.737 -0.7382  1.0710 -1.6567
20484SOL    HW262874   0.814   7.254   6.788 -0.1904 -0.3275 -0.8170
20485SOL     OW62875   1.740   7.231   2.200  0.2781  0.4382  0.4271
20485SOL    HW162876   1.791   7.201   2.125 -1.1841 -0.4909 -0.2465
20485SOL    HW262877   1.805   7.260   2.263  1.5953  0.0267 -0.6886
20486SOL     OW62878   0.079   6.034   5.232 -0.5670  0.3925 -0.2167
20486SOL    HW162879   0.085   6.009   5.139 -0.1604  2.4279 -0.7931
20486SOL    HW262880  -0.012   6.019   5.255 -0.1495 -2.5298 -0.1665
20487SOL     OW62881   1.859   9.240   4.191 -0.0432  0.0090 -0.3643
20487SOL    HW162882   1.800   9.307   4.155 -1.0972  0.7479  2.4537
20487SOL    HW262883   1.944   9.283   4.198  0.0701 -0.0116 -1.4603
20488SOL     OW62884   6.959   0.821   3.044 -0.4234 -0.0769  0.6393
20488SOL    HW162885   7.038   0.768   3.053 -0.0468  0.0066 -1.6669
20488SOL    HW262886   6.892   0.759   3.014  0.2575  0.7680 -3.0446
20489SOL     OW62887   8.368   2.871   5.626 -0.1954  0.3423  0.1435
20489SOL    HW162888   8.282   2.895   5.661 -0.1285 -0.6379  1.0240
20489SOL    HW262889   8.419   2.952   5.631  0.2362  0.0334  3.6792
20490SOL     OW62890   2.870   9.273   9.178  0.5561  0.3133 -0.1100
20490SOL    HW162891   2.831   9.328   9.109  0.9569  1.2189  0.3751
20490SOL    HW262892   2.934   9.330   9.221  1.4558 -0.7428 -0.0157
20491SOL     OW62893   7.735   1.658   1.964 -0.2683  0.2600 -0.0629
20491SOL    HW162894   7.650   1.696   1.941 -0.7940 -1.3036 -0.8635
20491SOL    HW262895   7.795   1.691   1.898 -0.7742 -0.4559 -0.9020
20492SOL     OW62896   5.384   7.026   0.447  0.1167  0.1345  0.3323
20492SOL    HW162897   5.400   7.078   0.525 -1.5109 -0.2231  0.9422
20492SOL    HW262898   5.471   7.013   0.409  0.8408  1.0548  1.5844
20493SOL     OW62899   8.845   2.913   5.264  0.3987 -0.0077  0.1160
20493SOL    HW162900   8.762   2.923   5.311  1.0704  0.0437  1.3236
20493SOL    HW262901   8.902   2.979   5.303  0.8469  0.3477 -1.1002
20494SOL     OW62902   6.176   5.009   1.682  0.1872  0.2013  0.0172
20494SOL    HW162903   6.209   4.994   1.771  0.8341 -0.8063 -0.3807
20494SOL    HW262904   6.107   5.074   1.693  0.8716  0.7768  1.1480
20495SOL     OW62905   8.438   6.595   4.871 -0.3674  0.3487 -0.2559
20495SOL    HW162906   8.481   6.516   4.904 -0.6802  0.5213  0.5991
20495SOL    HW262907   8.352   6.566   4.842 -1.4636  0.7330  2.3547
20496SOL     OW62908   7.094   9.131   0.770  0.3702 -0.0219 -0.2927
20496SOL    HW162909   7.016   9.078   0.754 -0.6496  1.0995  0.7599
20496SOL    HW262910   7.099   9.138   0.865  0.2319  2.0485 -0.3858
20497SOL     OW62911   7.588   7.656   1.350 -0.0521  0.2482 -0.4310
20497SOL    HW162912   7.607   7.632   1.259 -1.1450 -0.7460 -0.4253
20497SOL    HW262913   7.627   7.587   1.402  0.8825  1.0045 -0.1061
20498SOL     OW62914   0.165   4.836   5.519  0.4146 -0.0553  0.0426
20498SOL    HW162915   0.210   4.753   5.505  1.2051 -0.0804  2.3517
20498SOL    HW262916   0.171   4.881   5.434  1.3218 -1.6839 -0.8143
20499SOL     OW62917   3.774   6.675   3.393  0.3658 -0.3610 -0.5382
20499SOL    HW162918   3.742   6.645   3.308 -0.6353  0.1915 -0.3686
20499SOL    HW262919   3.767   6.598   3.449 -5.4611  0.7390  0.8350
20500SOL     OW62920   0.716   3.094   3.664  0.0085 -0.1897  0.4841
20500SOL    HW162921   0.755   3.179   3.645  0.5493 -0.3217  0.9863
20500SOL    HW262922   0.709   3.052   3.579  0.3513  0.1006  0.3085
20501SOL     OW62923   6.561   3.517   2.965 -0.0215  0.0450  0.2271
20501SOL    HW162924   6.486   3.558   3.009 -0.3318  0.3198 -0.5360
20501SOL    HW262925   6.583   3.442   3.020 -1.8122 -0.9195 -0.2904
20502SOL     OW62926   5.693   0.160   6.292 -0.0580  0.0424  0.3616
20502SOL    HW162927   5.788   0.149   6.289 -0.2801 -1.8778 -1.2243
20502SOL    HW262928   5.676   0.239   6.240  0.7824  1.9759  2.8243
20503SOL     OW62929   6.046   7.715   6.527 -0.7367  0.4896 -0.3348
20503SOL    HW162930   6.007   7.782   6.583  0.0973  0.1872  0.6412
20503SOL    HW262931   6.140   7.726   6.539 -0.5737 -0.3172 -0.8048
20504SOL     OW62932   5.098   2.958   5.578  0.5110 -0.0420 -0.1417
20504SOL    HW162933   5.154   2.881   5.565  1.4593  0.7240 -0.6976
20504SOL    HW262934   5.154   3.022   5.620 -0.6194 -0.0416  1.4377
20505SOL     OW62935   7.243   1.520   0.525  0.0295 -0.1004 -0.1863
20505SOL    HW162936   7.215   1.504   0.435 -2.0751  1.6259  0.0909
20505SOL    HW262937   7.338   1.528   0.520 -0.0332 -0.2396 -2.2072
20506SOL     OW62938   2.959   6.096   6.643 -0.0435 -0.2864 -0.0105
20506SOL    HW162939   2.897   6.028   6.615  1.0107 -1.0432 -0.5841
20506SOL    HW262940   3.028   6.094   6.577  0.4193  0.7902  0.4201
20507SOL     OW62941   2.887   1.190   8.340 -0.3591 -0.3830  0.1727
20507SOL    HW162942   2.802   1.234   8.329  0.1844  0.5105 -0.6145
20507SOL    HW262943   2.929   1.237   8.412  0.2062  0.3856 -0.6426
20508SOL     OW62944   1.596   0.243   2.459 -0.5956 -0.1397 -0.3503
20508SOL    HW162945   1.585   0.162   2.409  1.1917 -0.9763  0.4930
20508SOL    HW262946   1.601   0.214   2.550  0.4526  0.8683 -0.0659
20509SOL     OW62947   7.013   0.885   2.011 -0.3626  0.6861  0.0351
20509SOL    HW162948   6.930   0.914   2.050 -1.0760 -0.0299 -0.9252
20509SOL    HW262949   7.037   0.956   1.951 -0.9294  0.3397 -0.6115
20510SOL     OW62950   1.086   4.734   1.533 -0.0988  0.3735 -0.0620
20510SOL    HW162951   1.133   4.817   1.539 -1.6814  1.2963  0.4484
20510SOL    HW262952   1.084   4.702   1.624  0.8491 -0.4399 -0.3190
20511SOL     OW62953   3.849   1.738   4.456  0.3444  0.4243 -0.6924
20511SOL    HW162954   3.851   1.678   4.381  1.0948  0.7358 -0.9321
20511SOL    HW262955   3.757   1.740   4.484 -0.2210  1.3971 -2.4894
20512SOL     OW62956   4.753   7.933   5.290  0.1041  0.5694 -0.1470
20512SOL    HW162957   4.829   7.977   5.328  0.9026 -1.0942  0.3166
20512SOL    HW262958   4.759   7.952   5.197  1.5457 -0.1030 -0.2318
20513SOL     OW62959   2.908   9.051   4.075 -0.5415  0.3613 -0.2377
20513SOL    HW162960   2.903   9.071   4.168 -0.0369 -1.1285  0.1261
20513SOL    HW262961   2.856   9.120   4.033 -2.3412  0.0221  1.2989
20514SOL     OW62962   1.098   5.327   5.206  0.1619  0.0514 -0.3839
20514SOL    HW162963   1.148   5.264   5.154  0.3321 -0.5663  0.5133
20514SOL    HW262964   1.160   5.360   5.271 -1.0867 -2.4422  2.2552
20515SOL     OW62965   3.521   8.963   4.073  0.5378 -0.1336 -0.1513
20515SOL    HW162966   3.531   8.924   3.986  0.3801 -1.0878  0.2394
20515SOL    HW262967   3.426   8.971   4.084  0.5473 -0.2745  0.0397
20516SOL     OW62968   4.977   4.572   1.142  0.4792 -0.2085 -0.1144
20516SOL    HW162969   5.057   4.617   1.116 -0.1733  0.5345 -0.9060
20516SOL    HW262970   4.948   4.619   1.220  0.6062 -0.2310 -0.0531
20517SOL     OW62971   6.787   5.102   1.924 -0.3781  0.5918 -0.5346
20517SOL    HW162972   6.809   5.023   1.973  0.8585 -0.1693 -2.2388
20517SOL    HW262973   6.860   5.161   1.940 -1.8649  1.9942  1.7515
20518SOL     OW62974   4.626   5.249   5.709 -0.9808  0.2951 -0.6160
20518SOL    HW162975   4.609   5.305   5.633  0.5711  0.2407 -1.0255
20518SOL    HW262976   4.696   5.294   5.756 -2.3354  0.6560  1.1523
20519SOL     OW62977   7.180   8.358   6.911  0.0261  0.3043 -0.0762
20519SOL    HW162978   7.205   8.279   6.864  0.5482  1.0855 -1.1398
20519SOL    HW262979   7.124   8.407   6.850 -0.5080  0.6438  0.6639
20520SOL     OW62980   8.165   7.402   2.688 -0.1166 -0.3692 -0.5568
20520SOL    HW162981   8.253   7.442   2.691  0.3688 -1.4438 -0.1960
20520SOL    HW262982   8.137   7.413   2.597  0.4406 -0.1234 -0.7039
20521SOL     OW62983   8.178   2.889   8.309 -0.3312 -0.2324 -0.1841
20521SOL    HW162984   8.175   2.873   8.404  1.6745 -1.1090 -0.2273
20521SOL    HW262985   8.271   2.887   8.287 -0.6544  1.3113 -1.9824
20522SOL     OW62986   6.945   2.547   7.970  0.6489 -0.8808  0.0542
20522SOL    HW162987   6.934   2.475   7.909 -0.2998 -0.0236 -0.8215
20522SOL    HW262988   6.857   2.568   8.000  0.9460 -0.3170  0.5749
20523SOL     OW62989   2.242   3.729   0.930  0.8580 -0.7564 -0.1699
20523SOL    HW162990   2.166   3.730   0.987 -0.5366  1.0995 -1.8888
20523SOL    HW262991   2.303   3.668   0.971 -0.5052 -0.3934  2.6121
20524SOL     OW62992   4.987   0.323   8.775 -0.4682 -0.4229  0.0331
20524SOL    HW162993   4.978   0.325   8.679 -0.3234 -1.1153 -0.0008
20524SOL    HW262994   5.014   0.412   8.798 -1.9888  0.1965 -0.4037
20525SOL     OW62995   4.968   3.612   5.184  0.0553  0.3763  0.2635
20525SOL    HW162996   4.915   3.622   5.105  1.7072  0.7352 -0.8493
20525SOL    HW262997   4.940   3.529   5.222 -1.8282  0.9159  0.1692
20526SOL     OW62998   3.584   1.197   2.134  0.0921  0.2357  0.0544
20526SOL    HW162999   3.558   1.118   2.086  1.2127  0.3687 -0.8203
20526SOL    HW263000   3.655   1.169   2.191  0.1073  0.4882  0.1602
20527SOL     OW63001   4.161   9.194   3.497  0.5429  0.1839  0.5371
20527SOL    HW163002   4.151   9.287   3.476  0.9930  0.0569 -0.2847
20527SOL    HW263003   4.171   9.152   3.412  1.4787 -0.4725  0.9599
20528SOL     OW63004   3.942   6.811   4.513 -0.3385 -0.4582 -0.3093
20528SOL    HW163005   3.847   6.801   4.507 -0.5331  0.2242  1.1478
20528SOL    HW263006   3.974   6.725   4.540 -0.4022 -0.9859 -1.8287
20529SOL     OW63007   3.278   0.709   7.669  0.0653  0.3156 -0.1773
20529SOL    HW163008   3.324   0.626   7.661  0.0671  0.1861  0.9935
20529SOL    HW263009   3.240   0.724   7.583  0.7903 -0.4647 -0.6476
20530SOL     OW63010   8.194   5.343   7.517  0.7465 -0.2632 -0.8467
20530SOL    HW163011   8.274   5.388   7.489  1.4645 -0.1236  1.2407
20530SOL    HW263012   8.128   5.412   7.519  0.3554 -0.4813 -3.1139
20531SOL     OW63013   8.834   6.252   5.759  0.0005 -0.2705  0.2554
20531SOL    HW163014   8.766   6.224   5.697 -0.9950  2.2636  0.0488
20531SOL    HW263015   8.792   6.246   5.845  0.1400 -0.3990  0.3146
20532SOL     OW63016   1.710   2.805   2.788 -0.3905 -0.5240 -0.8319
20532SOL    HW163017   1.720   2.753   2.708 -0.7466 -0.7305 -0.7473
20532SOL    HW263018   1.701   2.740   2.858  1.2552 -0.3487 -0.4253
20533SOL     OW63019   5.996   2.711   1.006 -0.4657  0.0817  0.1684
20533SOL    HW163020   5.906   2.719   0.976 -0.4970 -2.4989 -0.6359
20533SOL    HW263021   5.989   2.699   1.101 -0.8141  1.4090  0.3353
20534SOL     OW63022   8.895   1.782   0.650  0.1859 -0.0920  0.0144
20534SOL    HW163023   8.820   1.734   0.685  0.7729 -0.8638  0.2318
20534SOL    HW263024   8.964   1.717   0.643  1.4095  0.9855  1.5445
20535SOL     OW63025   2.163   1.941   0.769  0.5503  0.3298  1.1833
20535SOL    HW163026   2.087   1.996   0.750  1.3893  1.4467  0.9815
20535SOL    HW263027   2.129   1.851   0.764 -0.3121  0.7089 -0.8986
20536SOL     OW63028   0.811   2.783   5.912  0.0613 -0.1968 -0.0368
20536SOL    HW163029   0.752   2.724   5.959  0.2511 -0.9397 -0.7197
20536SOL    HW263030   0.813   2.862   5.966  1.4055 -1.5218  2.0213
20537SOL     OW63031   1.599   0.060   8.639 -0.2372  0.3523 -0.1595
20537SOL    HW163032   1.649   0.018   8.709 -0.8837  1.2590  0.8752
20537SOL    HW263033   1.645   0.143   8.622  0.6206 -0.3886 -1.6895
20538SOL     OW63034   8.109   8.556   6.942  0.4313  0.2322 -0.0903
20538SOL    HW163035   8.144   8.513   6.864  0.6938 -0.4620  0.3880
20538SOL    HW263036   8.060   8.487   6.987 -0.2907  0.8041  0.0123
20539SOL     OW63037   5.544   5.518   8.167  1.1772  0.7745 -0.1236
20539SOL    HW163038   5.533   5.593   8.108 -0.9194  0.3815 -0.2794
20539SOL    HW263039   5.542   5.442   8.109  0.6378  0.4660  0.2989
20540SOL     OW63040   0.133   8.407   6.398 -0.1995  0.4127 -0.0364
20540SOL    HW163041   0.192   8.388   6.325 -1.4136 -3.0681 -0.3173
20540SOL    HW263042   0.112   8.499   6.389  2.8862  1.0908 -1.5951
20541SOL     OW63043   1.610   3.618   3.367  0.4431 -0.0553 -0.4317
20541SOL    HW163044   1.598   3.654   3.455 -0.8046 -1.8605  0.1922
20541SOL    HW263045   1.521   3.615   3.330  0.9960  1.1293 -1.9788
20542SOL     OW63046   6.620   2.901   1.934  0.2642 -0.4727 -0.4005
20542SOL    HW163047   6.658   2.866   2.014  0.8670 -0.0947 -0.5157
20542SOL    HW263048   6.695   2.927   1.881 -0.1225 -0.8784 -1.1649
20543SOL     OW63049   7.089   1.418   7.522 -0.1160 -0.1705 -0.2084
20543SOL    HW163050   7.138   1.442   7.443  0.3988 -0.0179  0.1466
20543SOL    HW263051   7.070   1.325   7.511 -0.7311  0.0227 -0.8634
20544SOL     OW63052   7.801   4.314   3.101  0.2267 -0.1189 -0.8865
20544SOL    HW163053   7.843   4.393   3.066 -0.8362  0.1745 -1.5212
20544SOL    HW263054   7.832   4.244   3.043 -0.0819  0.0859 -1.3083
20545SOL     OW63055   1.036   0.766   1.743  0.1068 -0.6228 -0.2302
20545SOL    HW163056   1.118   0.779   1.695  1.0699 -1.6771  1.0715
20545SOL    HW263057   1.063   0.733   1.829 -1.6906 -1.0827  0.1999
20546SOL     OW63058   2.916   2.505   1.171 -0.3837  0.2196  0.4417
20546SOL    HW163059   2.831   2.506   1.215 -1.2325  0.5697 -1.1024
20546SOL    HW263060   2.929   2.413   1.146 -1.9619  0.5907 -2.1881
20547SOL     OW63061   1.836   6.822   4.543 -0.1763 -0.2058 -0.3797
20547SOL    HW163062   1.885   6.749   4.504  2.0731  0.0652  1.6894
20547SOL    HW263063   1.814   6.878   4.470  2.8255 -0.2846 -1.4762
20548SOL     OW63064   8.489   4.032   6.327 -0.6754 -0.2338 -0.1163
20548SOL    HW163065   8.400   4.044   6.361 -0.8946 -0.3401 -0.6442
20548SOL    HW263066   8.530   4.118   6.334 -0.3164 -0.5080  1.5334
20549SOL     OW63067   4.393   3.210   2.722  0.4764  0.3670  0.0941
20549SOL    HW163068   4.382   3.118   2.695 -0.5857  0.2832  0.7325
20549SOL    HW263069   4.341   3.217   2.803 -0.4740  1.8370 -0.6054
20550SOL     OW63070   4.782   2.337   3.176  0.4955 -0.4471  0.0197
20550SOL    HW163071   4.735   2.404   3.225  1.7346  0.9591 -0.6335
20550SOL    HW263072   4.821   2.281   3.243  1.7968  1.1827  0.6987
20551SOL     OW63073   7.354   4.626   3.401  0.3585 -0.7525  0.3046
20551SOL    HW163074   7.365   4.531   3.401 -1.0574 -0.9473  0.2371
20551SOL    HW263075   7.414   4.658   3.468 -1.5934 -2.0594  2.8597
20552SOL     OW63076   8.270   4.099   0.307 -0.9842  0.8486  0.1323
20552SOL    HW163077   8.311   4.031   0.360 -1.5935  0.3086 -0.0699
20552SOL    HW263078   8.292   4.077   0.217 -0.9372  1.0891  0.0829
20553SOL     OW63079   2.762   6.036   4.998 -0.2682  0.2371  0.1858
20553SOL    HW163080   2.832   5.998   5.052 -0.8916 -2.1155 -0.5392
20553SOL    HW263081   2.682   6.003   5.038 -0.7673 -0.9672 -1.6941
20554SOL     OW63082   5.840   1.236   3.069  0.3933  0.0127 -0.4241
20554SOL    HW163083   5.899   1.202   3.137  0.7092 -2.5505 -1.8643
20554SOL    HW263084   5.876   1.322   3.048  3.1480 -1.0615 -0.6018
20555SOL     OW63085   3.085   2.101   3.817  0.1068 -0.3324  0.3240
20555SOL    HW163086   3.056   2.024   3.864 -0.2459 -1.1284 -1.1452
20555SOL    HW263087   3.131   2.067   3.740  0.6887  0.9127  0.0842
20556SOL     OW63088   4.938   1.292   3.327 -0.0734 -0.0814  0.1869
20556SOL    HW163089   4.965   1.337   3.407 -0.3390 -1.8859  1.3648
20556SOL    HW263090   4.842   1.298   3.328 -0.0576  0.1942 -0.1696
20557SOL     OW63091   0.856   5.959   0.126 -0.1965 -0.0427  0.9415
20557SOL    HW163092   0.844   5.921   0.213 -0.5872  0.0669  0.9375
20557SOL    HW263093   0.938   6.008   0.132 -0.0798 -0.2653  1.1658
20558SOL     OW63094   3.596   8.202   8.543 -0.2304  0.3410 -0.0570
20558SOL    HW163095   3.542   8.137   8.587 -0.5997  0.9166  0.3463
20558SOL    HW263096   3.607   8.168   8.454 -1.8418  0.5504 -0.3700
20559SOL     OW63097   6.126   2.299   1.926  0.6819  0.4139 -0.7150
20559SOL    HW163098   6.154   2.290   1.835  2.5001  1.0073 -0.2642
20559SOL    HW263099   6.157   2.219   1.968 -0.0319  0.2061 -0.5690
20560SOL     OW63100   0.737   2.257   7.587 -0.0175  0.2069  0.0066
20560SOL    HW163101   0.789   2.213   7.654 -0.6028 -0.3513  0.1117
20560SOL    HW263102   0.655   2.279   7.631 -0.4032 -0.1545 -0.5155
20561SOL     OW63103   5.297   6.018   3.606  0.1354 -0.4465 -0.0953
20561SOL    HW163104   5.244   5.942   3.582 -0.9317 -0.1089  1.0832
20561SOL    HW263105   5.316   6.005   3.699  2.1064 -0.5230 -0.4714
20562SOL     OW63106   9.111   8.157   3.414 -0.1189  0.1395  0.5448
20562SOL    HW163107   9.166   8.080   3.426 -1.2075 -0.6853  0.4123
20562SOL    HW263108   9.146   8.199   3.335 -0.0076 -0.6644  0.1520
20563SOL     OW63109   7.288   6.636   9.193 -0.2043  0.0082  0.2219
20563SOL    HW163110   7.219   6.577   9.166  0.0772 -0.9864  1.5844
20563SOL    HW263111   7.342   6.648   9.115 -1.1363 -0.2921 -0.4735
20564SOL     OW63112   3.853   2.587   4.667 -0.2444  0.5563  0.7867
20564SOL    HW163113   3.825   2.524   4.733  0.1991 -0.8248 -0.2810
20564SOL    HW263114   3.938   2.554   4.637  0.3234  2.0469  0.6590
20565SOL     OW63115   5.490   8.306   6.402  0.0024  0.3854  0.4513
20565SOL    HW163116   5.431   8.361   6.452  0.1395  0.2111  0.8064
20565SOL    HW263117   5.450   8.300   6.315 -0.3761  0.4609  0.6205
20566SOL     OW63118   6.126   1.053   0.635  0.0534  0.2703 -0.3780
20566SOL    HW163119   6.055   0.989   0.644 -0.3099  0.6617 -0.3978
20566SOL    HW263120   6.192   1.009   0.582  0.2300 -0.4334  0.4086
20567SOL     OW63121   5.969   1.771   5.314  0.4149  0.6200 -0.2414
20567SOL    HW163122   6.006   1.715   5.383 -1.1511  0.9402  0.9226
20567SOL    HW263123   5.982   1.860   5.347 -1.7160  0.7329  0.4517
20568SOL     OW63124   9.042   1.740   3.839  0.3404 -0.3293  0.3304
20568SOL    HW163125   9.124   1.782   3.863 -0.8638  1.4319  1.6199
20568SOL    HW263126   8.980   1.766   3.907 -1.1805 -2.0681 -0.2687
20569SOL     OW63127   4.988   2.716   0.679 -0.1086  0.3978  0.3365
20569SOL    HW163128   5.000   2.678   0.592 -0.8327  0.8061  0.0468
20569SOL    HW263129   4.943   2.648   0.729  3.2595 -1.1911  1.4684
20570SOL     OW63130   3.445   4.169   1.525  0.2430  0.1262  0.2527
20570SOL    HW163131   3.367   4.198   1.477  0.5789  1.2423  0.3466
20570SOL    HW263132   3.438   4.074   1.526 -0.0249  0.0788 -1.5832
20571SOL     OW63133   3.254   3.803   2.379 -0.1634  0.7909 -0.9684
20571SOL    HW163134   3.221   3.716   2.356 -1.3913  1.0960 -0.4597
20571SOL    HW263135   3.345   3.803   2.350  0.6575 -1.5354  1.2471
20572SOL     OW63136   0.216   8.201   5.834 -0.2630 -0.2205 -0.1538
20572SOL    HW163137   0.301   8.161   5.813  0.7250  0.3849  2.3443
20572SOL    HW263138   0.236   8.294   5.845 -0.8699 -0.3192  2.1142
20573SOL     OW63139   5.772   9.030   5.423 -0.2728 -0.6760  0.5246
20573SOL    HW163140   5.729   9.115   5.438 -0.4115 -0.3839 -1.2909
20573SOL    HW263141   5.740   8.974   5.494 -0.2423  0.7514  1.7157
20574SOL     OW63142   4.871   8.637   2.621 -0.3060  0.1522 -0.3198
20574SOL    HW163143   4.812   8.637   2.546 -1.9176  1.7613  0.8688
20574SOL    HW263144   4.850   8.717   2.669  3.7092  1.5148 -0.4367
20575SOL     OW63145   7.335   0.552   1.794  0.1185 -0.6795  0.3900
20575SOL    HW163146   7.283   0.475   1.772  0.5512 -0.4756 -1.5755
20575SOL    HW263147   7.279   0.626   1.770  0.9431 -0.4543 -0.9732
20576SOL     OW63148   3.708   2.162   8.226  0.2686  0.6320 -0.1465
20576SOL    HW163149   3.758   2.120   8.296 -2.0399 -0.6433  0.8129
20576SOL    HW263150   3.705   2.096   8.156  0.9211  1.1768 -0.7070
20577SOL     OW63151   3.522   6.202   6.709  0.0077 -0.4238 -0.0776
20577SOL    HW163152   3.476   6.118   6.710 -0.7444 -0.0306 -0.6975
20577SOL    HW263153   3.561   6.209   6.797 -0.6591 -1.0176  0.2767
20578SOL     OW63154   9.044   4.502   0.819 -0.3736 -0.2301 -0.5927
20578SOL    HW163155   9.095   4.577   0.850 -2.1336  0.6403  0.3203
20578SOL    HW263156   9.085   4.478   0.736  2.1392 -0.2412  0.5598
20579SOL     OW63157   0.766   7.002   6.199 -0.2631  0.3695  0.0539
20579SOL    HW163158   0.823   6.929   6.223 -0.3033  0.9067  1.9497
20579SOL    HW263159   0.699   6.964   6.143  0.1180 -0.9015  0.4474
20580SOL     OW63160   3.725   3.633   2.816  0.1884 -0.4156  0.0755
20580SOL    HW163161   3.684   3.667   2.736 -0.9126  0.3826  0.9347
20580SOL    HW263162   3.819   3.632   2.797  0.0827  1.2335 -0.6974
20581SOL     OW63163   7.672   4.867   3.677  0.0888 -0.0073  0.5231
20581SOL    HW163164   7.640   4.957   3.674  1.5935  0.5907  1.3251
20581SOL    HW263165   7.767   4.875   3.674  0.2752 -1.5334  1.2617
20582SOL     OW63166   3.839   2.598   6.788 -0.4191 -0.4821  0.0163
20582SOL    HW163167   3.878   2.685   6.801  0.9407 -1.2124  0.9552
20582SOL    HW263168   3.786   2.584   6.867 -1.3341 -0.1843 -0.5192
20583SOL     OW63169   0.780   5.885   5.909 -0.3403  0.5131 -0.1324
20583SOL    HW163170   0.753   5.867   5.999  0.5951  2.8685  0.6777
20583SOL    HW263171   0.754   5.976   5.893 -2.4396 -0.4385 -3.0398
20584SOL     OW63172   1.750   7.373   7.961 -0.8653 -0.2704  0.0652
20584SOL    HW163173   1.673   7.392   7.909  0.0564  0.9960 -0.8865
20584SOL    HW263174   1.760   7.448   8.020 -1.6882 -1.5153  1.8847
20585SOL     OW63175   7.518   0.534   2.830  0.5431  0.3909 -0.3090
20585SOL    HW163176   7.471   0.617   2.826  0.1608  0.2675  1.0430
20585SOL    HW263177   7.508   0.505   2.921 -1.4121 -2.3467 -1.2628
20586SOL     OW63178   7.828   7.268   4.477  0.1043 -0.2226  0.1421
20586SOL    HW163179   7.736   7.293   4.468 -0.5378 -2.2778  0.4297
20586SOL    HW263180   7.852   7.295   4.566 -0.1701  0.4410  0.0179
20587SOL     OW63181   6.492   6.709   5.513  0.3497 -0.3172 -0.4097
20587SOL    HW163182   6.511   6.755   5.595  1.2981 -0.9787 -0.2370
20587SOL    HW263183   6.467   6.778   5.451 -0.4613  0.1791  0.4500
20588SOL     OW63184   3.409   6.542   3.412 -0.2520 -0.1090  0.0997
20588SOL    HW163185   3.339   6.525   3.349  0.6148 -0.4346 -0.8106
20588SOL    HW263186   3.484   6.493   3.378  0.9442  1.6545  0.0618
20589SOL     OW63187   6.477   0.723   0.757 -0.1281  0.4017  0.2281
20589SOL    HW163188   6.384   0.732   0.736 -0.1613 -0.9664 -0.3081
20589SOL    HW263189   6.513   0.674   0.683  0.6484 -0.6499  1.2734
20590SOL     OW63190   8.191   6.330   6.076  0.6832  0.0406 -0.2527
20590SOL    HW163191   8.250   6.307   6.003  1.6868  0.0852  0.5228
20590SOL    HW263192   8.216   6.420   6.099 -0.5437  0.5093 -0.7148
20591SOL     OW63193   6.503   1.813   9.162 -0.1586  0.5390  0.3334
20591SOL    HW163194   6.574   1.750   9.178 -0.1749  0.2944 -0.4995
20591SOL    HW263195   6.431   1.759   9.128 -0.1695  1.0023 -0.3904
20592SOL     OW63196   1.614   7.411   4.791 -0.5183  0.0066 -0.1874
20592SOL    HW163197   1.695   7.457   4.811 -0.0498 -0.2590 -1.4090
20592SOL    HW263198   1.545   7.475   4.811 -0.1147 -0.1942  2.0798
20593SOL     OW63199   8.970   5.906   3.213 -0.0447  0.2485  0.0472
20593SOL    HW163200   8.934   5.961   3.282  1.0570 -1.0574  1.7331
20593SOL    HW263201   8.995   5.968   3.144 -1.5297  1.5403  0.6137
20594SOL     OW63202   1.201   5.134   4.995 -0.0903 -0.3906 -0.5069
20594SOL    HW163203   1.287   5.105   4.963 -0.4363 -2.0660 -0.0256
20594SOL    HW263204   1.157   5.169   4.918  0.5907 -0.5896 -0.9966
20595SOL     OW63205   6.975   8.366   0.736  0.1755  0.4703  0.0162
20595SOL    HW163206   6.958   8.285   0.785 -0.1538  0.6843  0.2579
20595SOL    HW263207   6.979   8.338   0.644  2.3427 -0.1907  0.2532
20596SOL     OW63208   8.531   0.463   0.651  0.1289 -0.0178 -0.0425
20596SOL    HW163209   8.497   0.398   0.713 -0.4298 -0.6436 -0.9903
20596SOL    HW263210   8.605   0.503   0.697  1.6393 -2.5583 -0.0982
20597SOL     OW63211   2.165   4.673   2.735  0.7947  0.1954  0.4919
20597SOL    HW163212   2.146   4.754   2.783  1.3410  0.4218  0.3257
20597SOL    HW263213   2.091   4.664   2.674  1.0595  0.9169  0.0560
20598SOL     OW63214   6.622   3.149   0.054 -0.4743  0.4023  0.1558
20598SOL    HW163215   6.666   3.064   0.048 -1.1514  0.0126  0.6149
20598SOL    HW263216   6.629   3.174   0.146  1.3527  1.7542 -0.2807
20599SOL     OW63217   6.738   0.000   0.570 -0.3826 -0.3639  0.2017
20599SOL    HW163218   6.823  -0.038   0.547  0.7096  1.5486  0.8330
20599SOL    HW263219   6.728   0.074   0.510 -1.0857  0.0770  0.8515
20600SOL     OW63220   9.113   1.059   8.801 -0.5440  0.5779  0.0911
20600SOL    HW163221   9.076   1.005   8.732 -0.7675 -0.4662  0.9929
20600SOL    HW263222   9.102   1.149   8.770 -1.5298  0.1791 -0.7808
20601SOL     OW63223   3.019   3.050   6.410  0.4526 -0.4851  0.2212
20601SOL    HW163224   2.933   3.074   6.374  0.4592  0.2395  0.6512
20601SOL    HW263225   3.003   2.968   6.456 -0.0347 -0.3293  0.3465
20602SOL     OW63226   5.761   0.086   5.815  0.4829 -0.6379  0.4045
20602SOL    HW163227   5.707   0.030   5.871  0.6348  0.4881  1.7209
20602SOL    HW263228   5.698   0.130   5.757  0.3158 -1.7141 -0.2624
20603SOL     OW63229   6.208   4.957   8.385  0.5909  0.2412  0.7468
20603SOL    HW163230   6.210   5.010   8.306  0.9213  0.0027  0.5932
20603SOL    HW263231   6.129   4.904   8.378  1.1314 -0.5069  0.0947
20604SOL     OW63232   9.179   3.826   0.558  0.1631 -0.1469  0.0607
20604SOL    HW163233   9.218   3.827   0.471  0.0690  3.9170 -0.1571
20604SOL    HW263234   9.089   3.797   0.544  0.4448 -0.5630 -1.0009
20605SOL     OW63235   9.034   4.711   8.305 -0.3541  0.4263  0.4084
20605SOL    HW163236   9.099   4.643   8.323  0.0832  1.2823  2.3693
20605SOL    HW263237   9.014   4.701   8.212  1.2677 -1.0011  0.1560
20606SOL     OW63238   4.849   5.471   3.946 -0.3502 -0.0205 -0.8391
20606SOL    HW163239   4.933   5.430   3.924 -0.5234 -0.5571 -0.5172
20606SOL    HW263240   4.870   5.564   3.954  0.1862 -0.1290 -0.9140
20607SOL     OW63241   7.259   5.259   0.901 -0.3042  0.3183  0.7558
20607SOL    HW163242   7.190   5.283   0.839 -1.0262 -1.4634  0.8360
20607SOL    HW263243   7.228   5.179   0.943  2.3892 -1.3581 -0.2074
20608SOL     OW63244   2.790   1.546   3.008 -1.5566  0.0053  0.3602
20608SOL    HW163245   2.754   1.479   2.951  0.3230 -1.0454  0.3569
20608SOL    HW263246   2.883   1.527   3.013 -1.2755  1.5123  1.8597
20609SOL     OW63247   2.379   6.989   0.196 -0.1638 -0.1505 -0.3171
20609SOL    HW163248   2.450   6.928   0.177 -0.2814 -0.5700  0.5746
20609SOL    HW263249   2.393   7.015   0.287 -0.9557  0.0271 -0.2426
20610SOL     OW63250   1.190   2.358   5.462 -0.0515 -0.2563 -0.3379
20610SOL    HW163251   1.180   2.318   5.548  1.2645  1.2578  0.5839
20610SOL    HW263252   1.269   2.317   5.426 -1.9863 -2.8144 -2.0552
20611SOL     OW63253   2.165   8.798   5.000 -0.2858  0.4981 -0.1999
20611SOL    HW163254   2.137   8.861   5.066 -1.2129 -1.0504  0.9419
20611SOL    HW263255   2.091   8.792   4.939 -1.6041 -1.7808  1.4715
20612SOL     OW63256   7.086   7.235   1.008  0.0201  0.4346  0.1713
20612SOL    HW163257   7.052   7.193   0.929 -3.4837  0.6235  1.3895
20612SOL    HW263258   7.111   7.323   0.979 -2.1385  0.8499 -0.6820
20613SOL     OW63259   4.032   8.770   5.696  0.0306  0.1272 -0.2515
20613SOL    HW163260   3.988   8.780   5.612 -2.7014 -1.9881  0.7836
20613SOL    HW263261   4.108   8.714   5.676 -0.3487 -0.0243 -1.3622
20614SOL     OW63262   4.215   1.818   4.372 -0.1594  0.1808 -0.1239
20614SOL    HW163263   4.187   1.734   4.410 -3.0295  0.9033 -0.3827
20614SOL    HW263264   4.169   1.884   4.424  1.0805  1.5456 -0.7020
20615SOL     OW63265   5.314   4.254   8.317  0.3474 -0.0445  0.3407
20615SOL    HW163266   5.265   4.334   8.336  0.8999  0.6325 -0.9938
20615SOL    HW263267   5.340   4.262   8.225 -1.1399 -2.6022 -0.3939
20616SOL     OW63268   4.824   4.944   7.194 -1.0786 -0.4387  0.0052
20616SOL    HW163269   4.765   5.014   7.221 -0.5252  0.3975 -0.8766
20616SOL    HW263270   4.889   4.988   7.139  2.7134 -0.4767  3.9288
20617SOL     OW63271   6.573   0.975   1.638 -0.2282  0.3358  0.0038
20617SOL    HW163272   6.503   0.912   1.621 -2.0512  2.0124  0.8796
20617SOL    HW263273   6.635   0.962   1.566 -0.9015 -1.8935 -0.2571
20618SOL     OW63274   3.909   8.574   8.565  0.6847 -0.0947 -0.3997
20618SOL    HW163275   3.981   8.631   8.537  0.3514  0.0405 -1.0088
20618SOL    HW263276   3.883   8.529   8.485  0.8680 -1.0302  0.0567
20619SOL     OW63277   4.858   8.027   2.357  0.3077  0.1465  0.0964
20619SOL    HW163278   4.817   8.108   2.385  0.9701  0.0915  1.2681
20619SOL    HW263279   4.919   8.004   2.427  0.1352 -1.3690 -0.2000
20620SOL     OW63280   1.577   3.137   1.634 -0.2027  0.4882  0.1613
20620SOL    HW163281   1.549   3.228   1.626 -1.3609  0.0898 -0.7116
20620SOL    HW263282   1.597   3.125   1.727  1.4999  2.0326  0.0438
20621SOL     OW63283   7.301   1.301   8.345  0.0535 -0.3758  0.0014
20621SOL    HW163284   7.286   1.227   8.403 -0.5917 -1.0068 -0.9505
20621SOL    HW263285   7.348   1.365   8.399  1.2351 -1.7418  0.6382
20622SOL     OW63286   7.122   9.051   7.566 -0.1918 -0.6253 -0.6590
20622SOL    HW163287   7.089   9.002   7.641  0.8631 -0.6448 -0.1943
20622SOL    HW263288   7.133   9.140   7.598 -0.0868 -0.5479 -0.9045
20623SOL     OW63289   4.719   8.877   4.375 -0.3937  0.1385 -0.0383
20623SOL    HW163290   4.718   8.908   4.466 -0.4047  1.5615 -0.4906
20623SOL    HW263291   4.631   8.842   4.360 -0.0949 -1.0063  0.7720
20624SOL     OW63292   8.907   5.655   6.191 -0.4158 -0.0875  0.7320
20624SOL    HW163293   8.880   5.744   6.215 -1.3025  1.3560 -4.3917
20624SOL    HW263294   8.986   5.667   6.138 -0.9149 -2.2090 -0.6289
20625SOL     OW63295   4.232   7.388   4.365  0.4687 -0.7537  0.5444
20625SOL    HW163296   4.293   7.391   4.438  1.7383 -0.3481 -0.4910
20625SOL    HW263297   4.278   7.431   4.293 -1.5568  0.7805  0.0677
20626SOL     OW63298   7.899   7.333   1.918 -0.6078  0.2362  0.1636
20626SOL    HW163299   7.840   7.259   1.928  0.9875 -0.9620  1.1816
20626SOL    HW263300   7.907   7.345   1.824 -1.3750 -0.4643 -0.0064
20627SOL     OW63301   0.459   4.450   5.862  0.5879  0.0827 -0.4659
20627SOL    HW163302   0.520   4.379   5.880 -0.4825 -0.7263  0.1060
20627SOL    HW263303   0.504   4.506   5.799  1.3819 -1.1947 -1.0674
20628SOL     OW63304   6.400   1.879   4.909 -0.1286 -0.4508  0.3917
20628SOL    HW163305   6.456   1.856   4.983 -0.2297 -2.2965 -0.0651
20628SOL    HW263306   6.375   1.795   4.870 -0.2050  0.4582 -1.6539
20629SOL     OW63307   5.343   5.027   1.148 -0.1166  0.7977  0.1971
20629SOL    HW163308   5.432   5.053   1.170  0.7452 -0.4959 -1.4806
20629SOL    HW263309   5.323   4.956   1.210  0.5337  0.2343 -0.2148
20630SOL     OW63310   1.459   6.573   9.159 -0.5564 -0.0560  0.2591
20630SOL    HW163311   1.518   6.562   9.085 -0.9756 -0.6211  0.0012
20630SOL    HW263312   1.476   6.496   9.214 -1.1380 -0.2896  0.1182
20631SOL     OW63313   2.413   7.543   9.001  0.2710  0.2653 -0.3566
20631SOL    HW163314   2.437   7.454   9.027  1.9570  0.7991  0.0066
20631SOL    HW263315   2.412   7.592   9.083 -0.6143  0.6062 -0.5612
20632SOL     OW63316   1.815   2.025   3.484  0.2163 -0.0127  0.2875
20632SOL    HW163317   1.766   2.081   3.424 -1.0127 -0.9807  0.3395
20632SOL    HW263318   1.797   2.061   3.571 -1.4978 -1.1071  0.4239
20633SOL     OW63319   1.679   7.100   1.137 -0.4646 -0.5979  0.0165
20633SOL    HW163320   1.607   7.039   1.120  0.3627 -1.3967 -0.7208
20633SOL    HW263321   1.756   7.057   1.100  0.4268  0.1783  0.9128
20634SOL     OW63322   2.390   5.626   2.033 -0.4399 -0.1505  0.2038
20634SOL    HW163323   2.390   5.531   2.043 -1.8359 -0.0898  0.9802
20634SOL    HW263324   2.302   5.646   1.999 -1.0264  1.0601  2.2962
20635SOL     OW63325   5.315   3.294   3.294 -0.0447 -0.3012  0.0465
20635SOL    HW163326   5.267   3.235   3.237 -1.8854  0.8668  0.3177
20635SOL    HW263327   5.351   3.360   3.235 -0.1291 -0.2789  0.0204
20636SOL     OW63328   7.226   5.453   3.656  0.6280 -0.0895  0.2588
20636SOL    HW163329   7.231   5.378   3.597  0.6882  0.0426  0.0928
20636SOL    HW263330   7.132   5.470   3.665  0.6470  0.7281 -0.8870
20637SOL     OW63331   0.946   8.147   6.297  0.4754 -0.0174  0.1253
20637SOL    HW163332   0.922   8.214   6.232 -1.1221 -0.8740 -0.2373
20637SOL    HW263333   0.865   8.099   6.312  0.8050  0.1335  2.7962
20638SOL     OW63334   1.324   5.406   0.767 -0.2638 -0.4694 -0.6147
20638SOL    HW163335   1.258   5.473   0.782  1.1842  1.0268 -0.5808
20638SOL    HW263336   1.284   5.324   0.797 -1.4533  0.6578  1.0129
20639SOL     OW63337   4.843   6.206   6.759 -0.1887  0.5641 -0.2669
20639SOL    HW163338   4.793   6.286   6.752 -0.2441  0.5438 -0.1205
20639SOL    HW263339   4.932   6.230   6.735 -0.2273  0.6463 -0.3245
20640SOL     OW63340   2.858   4.694   3.028 -0.1800  0.1911 -0.5238
20640SOL    HW163341   2.848   4.616   3.082 -2.1014 -2.3773 -4.0949
20640SOL    HW263342   2.928   4.672   2.967 -0.0285  1.7324 -0.9445
20641SOL     OW63343   4.161   3.741   1.308  0.0352 -0.2158  0.2280
20641SOL    HW163344   4.154   3.719   1.401 -0.6051 -0.3851  0.1446
20641SOL    HW263345   4.189   3.659   1.266 -0.6841 -0.4203  0.1398
20642SOL     OW63346   1.967   2.541   7.246 -0.4383 -0.3206 -0.5440
20642SOL    HW163347   1.874   2.520   7.259 -0.0645 -1.6195  0.1502
20642SOL    HW263348   1.970   2.637   7.248 -2.0347 -0.1612 -2.6386
20643SOL     OW63349   4.608   8.514   1.463  0.1142 -0.1752 -0.3487
20643SOL    HW163350   4.546   8.443   1.481 -1.0990  0.4514 -1.7551
20643SOL    HW263351   4.668   8.478   1.398 -0.3813 -0.0038 -0.9146
20644SOL     OW63352   8.051   6.875   8.900  0.1269 -0.6124 -0.5917
20644SOL    HW163353   8.140   6.901   8.921 -0.1008  0.3003 -0.7201
20644SOL    HW263354   8.028   6.810   8.966  1.3509 -1.8750 -1.3595
20645SOL     OW63355   0.074   7.264   7.841 -0.2925  0.1743 -0.3769
20645SOL    HW163356   0.045   7.342   7.888 -0.5399 -0.2345  0.1558
20645SOL    HW263357   0.165   7.253   7.866  0.1661  1.0850 -1.5444
20646SOL     OW63358   4.478   6.119   5.609  0.3350 -0.0058 -0.4085
20646SOL    HW163359   4.456   6.110   5.702  2.0682  1.4520  0.2039
20646SOL    HW263360   4.538   6.194   5.606 -0.3595  0.5392 -2.8284
20647SOL     OW63361   9.123   7.197   0.272 -0.1029 -0.0167 -0.2766
20647SOL    HW163362   9.054   7.258   0.247 -0.8631 -0.3098  1.0014
20647SOL    HW263363   9.095   7.162   0.357  0.8676 -1.2945 -0.4413
20648SOL     OW63364   8.157   5.404   6.451 -0.3534 -0.3614 -0.4004
20648SOL    HW163365   8.251   5.400   6.466 -0.3781 -2.7262 -0.5729
20648SOL    HW263366   8.131   5.491   6.484  1.6905 -0.0878  0.6381
20649SOL     OW63367   3.080   7.670   6.998  0.3101 -0.4528  0.8084
20649SOL    HW163368   3.050   7.606   7.063  0.3362 -0.2118  1.0625
20649SOL    HW263369   3.175   7.671   7.008  0.1996  0.8780  2.0203
20650SOL     OW63370   4.529   8.551   6.324  0.1684 -0.1280  0.4323
20650SOL    HW163371   4.455   8.503   6.361  0.4217 -1.2227 -0.4203
20650SOL    HW263372   4.593   8.483   6.302  0.4408  0.5640 -1.0315
20651SOL     OW63373   1.197   1.457   6.495  0.1344  0.0458 -0.1276
20651SOL    HW163374   1.290   1.478   6.483  0.2487  0.1165  0.7732
20651SOL    HW263375   1.162   1.452   6.406  1.2727 -1.2849 -0.5431
20652SOL     OW63376   5.594   1.209   8.583  0.0857  0.4228  0.7918
20652SOL    HW163377   5.603   1.197   8.488  2.6463  0.6830  0.9250
20652SOL    HW263378   5.520   1.154   8.607 -1.7941  1.7384 -1.5842
20653SOL     OW63379   7.636   3.835   2.548 -0.5660  0.2351 -0.1191
20653SOL    HW163380   7.656   3.774   2.620 -2.0609  0.3018  0.3920
20653SOL    HW263381   7.541   3.840   2.547 -0.5284  1.0928 -1.4159
20654SOL     OW63382   3.771   3.480   1.053 -0.1746  0.0422 -0.1785
20654SOL    HW163383   3.755   3.386   1.040 -2.8945  0.2697  0.9982
20654SOL    HW263384   3.798   3.487   1.145 -1.5272  0.5230  0.2069
20655SOL     OW63385   6.879   6.452   3.980  0.1995  0.0447  0.4505
20655SOL    HW163386   6.947   6.388   4.000 -0.2343 -0.4680  0.3116
20655SOL    HW263387   6.804   6.400   3.952  0.1221  0.6507 -0.5308
20656SOL     OW63388   0.377   5.054   1.212 -0.6820  0.5712 -0.3075
20656SOL    HW163389   0.322   4.980   1.186 -2.5428  2.0547 -0.8457
20656SOL    HW263390   0.424   5.023   1.289 -0.5262 -1.5304 -1.1746
20657SOL     OW63391   2.799   0.833   8.670  0.5705 -0.4375 -0.5146
20657SOL    HW163392   2.867   0.891   8.704  3.3749 -2.6535 -1.9368
20657SOL    HW263393   2.754   0.885   8.604  0.3204  1.2921  0.9224
20658SOL     OW63394   7.639   0.551   0.059  0.2114 -0.0472 -1.1560
20658SOL    HW163395   7.626   0.470   0.109  0.7645 -0.1515 -1.1780
20658SOL    HW263396   7.732   0.569   0.066 -0.1509  1.5349  0.2810
20659SOL     OW63397   7.084   9.143   7.092  0.2142 -0.0746  0.2619
20659SOL    HW163398   7.058   9.228   7.056 -0.9522  0.2254  1.6906
20659SOL    HW263399   7.015   9.123   7.155  0.4323 -2.1322 -0.1009
20660SOL     OW63400   0.144   8.556   8.095  0.3217  0.0258  0.7475
20660SOL    HW163401   0.150   8.555   8.190  0.9679 -1.6514  0.7356
20660SOL    HW263402   0.217   8.502   8.066 -0.7745 -0.8089 -0.6109
20661SOL     OW63403   4.983   8.525   8.243  0.6551  0.3976  0.2957
20661SOL    HW163404   5.077   8.518   8.227  0.5754 -0.0739  0.0089
20661SOL    HW263405   4.959   8.610   8.206  0.8777  0.2876 -0.1119
20662SOL     OW63406   0.716   4.622   2.873 -0.0485  0.3562  0.4768
20662SOL    HW163407   0.736   4.629   2.966  0.9602  1.2261  0.2179
20662SOL    HW263408   0.742   4.533   2.849  1.8057  0.8271  0.5770
20663SOL     OW63409   7.158   7.248   3.144  0.4153 -0.1657 -0.8546
20663SOL    HW163410   7.081   7.290   3.181  0.6238  0.4403 -1.0932
20663SOL    HW263411   7.139   7.240   3.050 -0.1568 -1.7955 -0.6320
20664SOL     OW63412   6.603   3.562   5.886  0.4727 -0.0510 -0.0920
20664SOL    HW163413   6.551   3.642   5.887  0.0414 -0.3336  0.2603
20664SOL    HW263414   6.670   3.577   5.819  0.3745  0.5893 -0.0438
20665SOL     OW63415   1.668   8.762   5.113  0.8681  0.1702  0.1013
20665SOL    HW163416   1.647   8.835   5.054 -0.2232 -0.7775 -0.7298
20665SOL    HW263417   1.585   8.740   5.154  1.2098 -0.5334  0.4210
20666SOL     OW63418   7.711   3.824   0.321  0.1472 -0.2091 -0.0380
20666SOL    HW163419   7.745   3.763   0.256  0.7866  1.2404 -1.0958
20666SOL    HW263420   7.633   3.861   0.280  0.0241  0.0327  0.4129
20667SOL     OW63421   2.869   6.078   9.077 -0.1189  0.0830  0.3106
20667SOL    HW163422   2.828   6.059   9.162 -0.2652  0.5947  0.3565
20667SOL    HW263423   2.963   6.077   9.096 -0.1567  0.4259  0.5329
20668SOL     OW63424   7.449   0.783   6.039  0.6387  0.5187  0.2544
20668SOL    HW163425   7.368   0.830   6.056  0.1560  0.1453 -0.9091
20668SOL    HW263426   7.460   0.787   5.944  1.1912 -0.7131  0.2420
20669SOL     OW63427   0.933   1.930   7.469  0.2473  0.1835 -0.3317
20669SOL    HW163428   0.919   1.885   7.553 -0.7341 -0.6054 -0.8918
20669SOL    HW263429   0.845   1.956   7.442  0.6312  1.0268 -0.8085
20670SOL     OW63430   8.568   4.973   4.643  0.6978  0.4062  0.2245
20670SOL    HW163431   8.536   5.063   4.642  0.8510  0.4719  0.6786
20670SOL    HW263432   8.587   4.952   4.552  0.4796  0.7695  0.0968
20671SOL     OW63433   3.755   8.891   2.563 -0.3365 -0.8631 -0.2307
20671SOL    HW163434   3.802   8.975   2.560 -1.0871 -0.4529 -1.1063
20671SOL    HW263435   3.751   8.870   2.656 -1.9300  1.1486  0.2324
20672SOL     OW63436   1.095   6.081   8.767  0.0220 -0.2034  0.8465
20672SOL    HW163437   1.185   6.115   8.774 -0.2475  0.3710  1.8483
20672SOL    HW263438   1.072   6.091   8.675  0.8562 -0.0131  0.6483
20673SOL     OW63439   2.589   0.547   3.273 -0.4779  0.3166  0.1919
20673SOL    HW163440   2.550   0.628   3.307 -0.4803  0.2937  0.2449
20673SOL    HW263441   2.647   0.575   3.203  0.3501  0.4648  0.9166
20674SOL     OW63442   2.324   0.302   1.920 -0.3365 -0.7752 -0.2101
20674SOL    HW163443   2.345   0.368   1.854 -3.5274  3.2947  2.3234
20674SOL    HW263444   2.256   0.248   1.879 -0.3677 -0.0683 -1.1179
20675SOL     OW63445   7.202   2.737   1.573  0.9237 -0.1998 -0.4272
20675SOL    HW163446   7.226   2.741   1.481  1.8879 -0.9605 -0.2329
20675SOL    HW263447   7.193   2.643   1.592  0.2441 -0.0348  0.1369
20676SOL     OW63448   8.651   3.187   1.534  0.4417 -0.3633  0.3709
20676SOL    HW163449   8.606   3.271   1.531 -1.2937 -1.2681 -0.2009
20676SOL    HW263450   8.712   3.189   1.460  0.0272  0.1854  0.0393
20677SOL     OW63451   9.140   2.967   8.988 -0.1151  0.2473 -0.2126
20677SOL    HW163452   9.232   2.967   9.014 -0.8666  2.0154  3.0202
20677SOL    HW263453   9.115   3.060   8.987 -1.9662 -0.2053 -0.5313
20678SOL     OW63454   8.661   5.123   1.118  0.2135  0.3137 -0.5158
20678SOL    HW163455   8.649   5.113   1.023  0.5220  1.2607 -0.6631
20678SOL    HW263456   8.651   5.217   1.134  1.4494  0.3413  0.2023
20679SOL     OW63457   5.091   6.659   1.855 -0.8193  0.2185 -0.4929
20679SOL    HW163458   5.186   6.669   1.846 -0.8190  0.0859 -0.6203
20679SOL    HW263459   5.057   6.746   1.835 -0.7326  0.2408 -0.5447
20680SOL     OW63460   5.712   9.189   3.642 -0.2423  0.0718 -0.3425
20680SOL    HW163461   5.715   9.093   3.633 -1.0182  0.0826 -0.7885
20680SOL    HW263462   5.619   9.210   3.639 -0.0634  0.8620 -0.4435
20681SOL     OW63463   4.652   8.814   6.824  0.2843 -0.7915  0.3803
20681SOL    HW163464   4.639   8.745   6.759  1.2085 -0.2859 -0.3774
20681SOL    HW263465   4.735   8.854   6.800  1.6809 -1.8377  3.0613
20682SOL     OW63466   7.693   2.242   3.345 -0.8316 -0.1847  0.5112
20682SOL    HW163467   7.707   2.265   3.437 -2.2115  0.6536  0.5342
20682SOL    HW263468   7.598   2.229   3.337 -0.6050 -1.4620 -0.5306
20683SOL     OW63469   8.533   8.064   8.504  0.4067 -0.6002  0.4017
20683SOL    HW163470   8.529   7.979   8.459 -1.5582 -0.0783 -0.5336
20683SOL    HW263471   8.587   8.119   8.448  1.0879 -1.0076  0.6442
20684SOL     OW63472   7.538   3.014   5.107 -0.4431  0.7281 -0.0167
20684SOL    HW163473   7.500   3.096   5.138 -1.2932 -0.4305  2.2651
20684SOL    HW263474   7.569   2.970   5.187  0.7053 -0.8248 -1.2473
20685SOL     OW63475   2.620   5.775   0.408  0.6664  0.1180  0.5989
20685SOL    HW163476   2.581   5.763   0.494 -0.2973 -0.4547  0.1001
20685SOL    HW263477   2.546   5.786   0.349  1.1709 -1.9078 -0.5215
20686SOL     OW63478   6.344   0.285   6.739 -0.7808 -0.0640 -0.2021
20686SOL    HW163479   6.396   0.206   6.752  0.7168  0.6531 -1.5381
20686SOL    HW263480   6.266   0.271   6.792  0.2031 -1.7119  0.9008
20687SOL     OW63481   8.531   6.330   1.059 -0.2475 -0.2713 -0.0448
20687SOL    HW163482   8.478   6.267   1.106  1.6278 -3.7145 -2.1468
20687SOL    HW263483   8.563   6.390   1.128 -2.5837 -1.1536  1.9646
20688SOL     OW63484   0.175   8.512   3.173  0.0888  0.1430  0.5010
20688SOL    HW163485   0.219   8.429   3.192 -1.1250 -0.3612  1.2657
20688SOL    HW263486   0.088   8.485   3.142 -0.1668  1.1169  0.3626
20689SOL     OW63487   8.917   1.311   1.160 -0.4533 -0.0014  0.5895
20689SOL    HW163488   8.967   1.318   1.079  1.0204  0.0962  1.4724
20689SOL    HW263489   8.947   1.384   1.214 -2.3831  0.7293  0.7367
20690SOL     OW63490   2.500   8.687   5.218  0.6829  0.1528  0.0935
20690SOL    HW163491   2.587   8.676   5.256  1.0234  0.3400 -0.6040
20690SOL    HW263492   2.493   8.781   5.201 -0.4379  0.4602  1.9162
20691SOL     OW63493   2.896   3.874   9.140 -0.0588 -0.2834  0.2410
20691SOL    HW163494   2.901   3.789   9.097  0.5328 -0.2817  0.3009
20691SOL    HW263495   2.953   3.866   9.216 -1.3212 -0.3777  1.2028
20692SOL     OW63496   7.045   3.218   3.856  0.7092  0.2304 -0.1254
20692SOL    HW163497   7.020   3.161   3.783 -0.3155 -0.0636  0.4231
20692SOL    HW263498   7.034   3.307   3.822 -0.0555  0.0973 -0.2516
20693SOL     OW63499   7.464   2.381   8.018  0.1963 -0.3561 -0.5536
20693SOL    HW163500   7.538   2.435   8.047  0.5874 -1.2660  0.2040
20693SOL    HW263501   7.388   2.438   8.025  0.6209  0.1354  0.1144
20694SOL     OW63502   0.013   6.115   0.398  0.0762 -0.3724  0.1173
20694SOL    HW163503  -0.026   6.135   0.484  1.3621  0.7431  0.4845
20694SOL    HW263504  -0.048   6.054   0.358 -0.8429 -0.4978  1.6097
20695SOL     OW63505   8.168   6.543   4.756  0.1602  0.4855  0.3626
20695SOL    HW163506   8.210   6.482   4.697  0.1297 -0.2921  1.1236
20695SOL    HW263507   8.139   6.615   4.700 -0.2915 -0.4433 -0.6305
20696SOL     OW63508   8.353   8.239   6.328 -0.1806  0.0075 -0.2818
20696SOL    HW163509   8.322   8.280   6.247  0.9672 -0.7916 -1.1530
20696SOL    HW263510   8.406   8.165   6.299 -0.2289 -0.6512  1.2214
20697SOL     OW63511   5.871   5.264   7.694  0.0193  0.1156  0.8729
20697SOL    HW163512   5.813   5.284   7.767  0.4602  2.1447  0.7435
20697SOL    HW263513   5.959   5.270   7.730  0.2271  0.6957  0.2980
20698SOL     OW63514   7.549   0.825   5.397 -0.1280  0.5083  0.0078
20698SOL    HW163515   7.468   0.876   5.395 -0.8207 -0.5027  0.8811
20698SOL    HW263516   7.549   0.776   5.315 -0.5044  0.3516  0.1027
20699SOL     OW63517   5.040   5.261   7.980 -0.1320 -0.3043 -0.0719
20699SOL    HW163518   5.128   5.252   7.943 -0.8209 -0.6779 -1.7157
20699SOL    HW263519   4.986   5.204   7.926 -1.6134  0.9110  0.0751
20700SOL     OW63520   0.833   5.048   1.620 -0.2070 -0.5356  0.5306
20700SOL    HW163521   0.861   5.098   1.543  1.8739 -1.1951  0.7881
20700SOL    HW263522   0.747   5.084   1.642 -0.9284 -0.4143 -2.1379
20701SOL     OW63523   0.886   3.207   6.626 -0.2002  0.0553  0.3532
20701SOL    HW163524   0.981   3.223   6.626 -0.0500 -0.7921 -0.2345
20701SOL    HW263525   0.849   3.285   6.584  0.0918  1.0689  1.9083
20702SOL     OW63526   1.276   2.410   3.457 -0.0325 -0.0518 -0.0994
20702SOL    HW163527   1.249   2.356   3.531  0.8094 -0.6150 -0.1995
20702SOL    HW263528   1.280   2.499   3.493  0.1591 -0.2877  0.4761
20703SOL     OW63529   8.046   3.620   7.290 -0.3794 -0.0459  0.0375
20703SOL    HW163530   8.123   3.575   7.256 -1.8214 -1.7914 -1.1071
20703SOL    HW263531   8.072   3.650   7.377  1.4410 -0.9452 -0.1510
20704SOL     OW63532   0.634   5.311   1.328  0.3005 -0.3446  0.4277
20704SOL    HW163533   0.618   5.397   1.289 -0.5256 -0.4619  0.4809
20704SOL    HW263534   0.656   5.254   1.254 -0.2505 -0.3341  0.2515
20705SOL     OW63535   4.288   8.877   4.043  0.0814  0.7243 -0.1473
20705SOL    HW163536   4.280   8.781   4.046 -3.1801  0.9098  0.7400
20705SOL    HW263537   4.293   8.903   4.135 -2.9602  1.5081 -0.1021
20706SOL     OW63538   6.948   5.682   1.785  0.4667  0.3434 -0.2732
20706SOL    HW163539   7.032   5.711   1.820 -0.2620  1.3250  0.7468
20706SOL    HW263540   6.883   5.713   1.848 -0.5793 -1.6545 -0.2709
20707SOL     OW63541   5.905   8.509   0.233  0.4130 -0.9107 -0.2840
20707SOL    HW163542   5.950   8.519   0.150  2.5896  0.4113  0.9606
20707SOL    HW263543   5.974   8.516   0.299 -1.4962  0.3177  1.7264
20708SOL     OW63544   0.035   2.802   8.263 -0.6219  0.3436  0.6074
20708SOL    HW163545   0.105   2.862   8.286  2.0955 -1.8200 -1.3587
20708SOL    HW263546  -0.016   2.848   8.197 -0.1481  1.4109  0.9783
20709SOL     OW63547   7.220   2.226   7.845 -0.0258  0.3775  0.3652
20709SOL    HW163548   7.213   2.133   7.865 -0.1658  0.3042 -0.0115
20709SOL    HW263549   7.296   2.233   7.787  0.4354  0.5993  0.9923
20710SOL     OW63550   0.911   5.416   0.974 -0.0128  0.0024  0.1182
20710SOL    HW163551   0.868   5.420   0.889 -0.2063  0.7567  0.2445
20710SOL    HW263552   0.923   5.323   0.991 -3.2796 -0.4114  0.9197
20711SOL     OW63553   4.420   4.742   7.978  0.2909  0.3444 -0.4990
20711SOL    HW163554   4.402   4.750   7.884 -1.3627 -2.5353 -0.5496
20711SOL    HW263555   4.431   4.648   7.993  0.0227  0.6554  2.2692
20712SOL     OW63556   7.204   6.556   1.950  0.0769  0.0161 -0.2932
20712SOL    HW163557   7.168   6.605   2.024  1.9977  0.7278  0.2227
20712SOL    HW263558   7.255   6.486   1.990  1.3830  0.5896 -0.9137
20713SOL     OW63559   2.519   3.119   3.302 -0.1264  0.5449  0.6321
20713SOL    HW163560   2.437   3.127   3.351 -1.6471  1.5002 -1.8738
20713SOL    HW263561   2.506   3.042   3.246  0.6327  0.7712  0.1243
20714SOL     OW63562   2.618   4.038   5.397  0.3480  0.0265 -0.1886
20714SOL    HW163563   2.691   4.089   5.429 -1.8067  3.1542  0.1750
20714SOL    HW263564   2.543   4.097   5.401 -1.9868 -2.5473 -1.7691
20715SOL     OW63565   1.100   5.149   3.735 -0.0390  0.1180  0.4819
20715SOL    HW163566   1.017   5.192   3.754  1.6542  3.3729  1.3539
20715SOL    HW263567   1.136   5.198   3.661  0.4826 -2.2587 -0.9326
20716SOL     OW63568   0.795   9.049   6.084  0.1710  0.4170  0.4028
20716SOL    HW163569   0.700   9.061   6.089  0.2427  0.5551  2.7267
20716SOL    HW263570   0.806   8.959   6.055 -0.7787 -0.5177  2.7144
20717SOL     OW63571   3.384   7.179   5.524 -0.0480 -0.2608  0.2647
20717SOL    HW163572   3.347   7.150   5.607  0.2855 -0.2700  0.4130
20717SOL    HW263573   3.474   7.146   5.525 -0.3642 -1.2105 -0.5795
20718SOL     OW63574   5.810   4.962   0.245 -0.1120  0.1059 -0.2149
20718SOL    HW163575   5.774   4.898   0.306 -0.2371  0.7822  0.4393
20718SOL    HW263576   5.861   4.910   0.183  2.2357 -0.4582  1.9609
20719SOL     OW63577   2.333   6.865   8.336 -0.2639 -0.4258 -0.0126
20719SOL    HW163578   2.332   6.931   8.266 -0.0951 -1.4630 -1.0245
20719SOL    HW263579   2.407   6.890   8.391 -0.9598  0.9444  0.3526
20720SOL     OW63580   2.073   5.161   5.307 -0.4917  0.6431  0.0130
20720SOL    HW163581   2.079   5.149   5.402 -0.7361 -1.9605 -0.2456
20720SOL    HW263582   2.164   5.159   5.277 -0.4237  1.3307  0.1412
20721SOL     OW63583   7.936   7.873   7.599 -0.0749 -0.2352  0.0685
20721SOL    HW163584   7.897   7.957   7.622  0.6011 -0.2812  1.5595
20721SOL    HW263585   7.992   7.852   7.674 -0.0426 -1.8973 -0.3779
20722SOL     OW63586   5.897   2.817   9.263 -0.1252  0.1192  0.3793
20722SOL    HW163587   5.811   2.810   9.305 -1.4193 -0.6221 -2.2069
20722SOL    HW263588   5.923   2.908   9.278 -0.8326  0.0709  2.1308
20723SOL     OW63589   9.058   1.002   2.748 -0.4955  0.0122  0.0596
20723SOL    HW163590   8.977   0.960   2.721 -0.4965 -0.2846  0.5095
20723SOL    HW263591   9.103   1.023   2.666 -1.6685  1.4678 -0.2517
20724SOL     OW63592   2.336   8.095   6.414  0.1435 -0.1544 -0.0572
20724SOL    HW163593   2.299   8.065   6.331 -0.2451  1.7795 -0.6580
20724SOL    HW263594   2.369   8.183   6.394 -0.0609  0.4016  1.8572
20725SOL     OW63595   5.856   0.463   1.703 -0.1500  0.1144  0.0770
20725SOL    HW163596   5.849   0.371   1.729  0.3659  0.2505  0.7164
20725SOL    HW263597   5.933   0.466   1.647  0.0073  0.2072  0.2973
20726SOL     OW63598   4.346   5.462   5.425 -0.0798 -0.0585 -0.1348
20726SOL    HW163599   4.442   5.460   5.415 -0.1716  1.4274 -1.8965
20726SOL    HW263600   4.331   5.524   5.495  0.2337  1.1274 -1.0823
20727SOL     OW63601   5.916   1.257   2.596  0.0038 -0.3209  0.6477
20727SOL    HW163602   5.833   1.219   2.566  0.5207  0.4522 -2.0345
20727SOL    HW263603   5.971   1.181   2.618 -0.5533 -0.9421 -0.0724
20728SOL     OW63604   7.388   9.098   0.376  0.5981  0.9305 -0.2689
20728SOL    HW163605   7.348   9.108   0.290 -0.8043 -3.4205 -0.3650
20728SOL    HW263606   7.318   9.117   0.438  0.3185 -0.0610 -0.2605
20729SOL     OW63607   1.821   7.199   0.369 -0.2975 -0.3981 -0.2235
20729SOL    HW163608   1.882   7.201   0.442 -0.0315  2.1928 -0.4329
20729SOL    HW263609   1.861   7.139   0.306  1.5757  0.4966  0.0446
20730SOL     OW63610   0.554   5.652   2.258  0.7079  0.3830  0.1755
20730SOL    HW163611   0.585   5.595   2.328 -0.8611 -0.5793  0.1291
20730SOL    HW263612   0.469   5.616   2.234  0.1896  2.0670 -0.6550
20731SOL     OW63613   5.990   3.727   1.003 -0.1920  0.2610  0.0640
20731SOL    HW163614   5.937   3.745   0.925 -0.1556 -1.8657 -0.4942
20731SOL    HW263615   5.959   3.642   1.034 -0.0079  0.9219  2.2402
20732SOL     OW63616   3.207   1.174   0.230 -0.4380 -0.4313  0.0262
20732SOL    HW163617   3.257   1.109   0.279 -1.0819 -0.9351  0.0266
20732SOL    HW263618   3.138   1.203   0.290 -1.7481 -1.6589 -0.8197
20733SOL     OW63619   8.861   6.005   2.543  0.6042 -0.1241 -0.1250
20733SOL    HW163620   8.887   5.981   2.454  2.5644 -1.3693  0.7242
20733SOL    HW263621   8.930   6.063   2.574  1.3824 -1.7968  1.4665
20734SOL     OW63622   8.013   7.987   5.513 -0.4129 -0.2361  0.9030
20734SOL    HW163623   7.946   8.049   5.541 -0.6323 -0.6899  1.3877
20734SOL    HW263624   7.968   7.903   5.509 -0.0815 -0.3928  0.3826
20735SOL     OW63625   4.868   7.725   3.332 -0.0969 -0.3019  0.2596
20735SOL    HW163626   4.937   7.684   3.383  1.2776  0.4104 -0.9735
20735SOL    HW263627   4.871   7.682   3.247  0.0330  0.9388 -0.3915
20736SOL     OW63628   8.714   1.160   4.826  0.7622 -0.4047 -0.4894
20736SOL    HW163629   8.717   1.079   4.876  1.5170  0.0230  0.1837
20736SOL    HW263630   8.678   1.225   4.887  0.4583 -0.1646 -0.9185
20737SOL     OW63631   1.478   3.389   1.564  0.1020 -0.4360  0.1966
20737SOL    HW163632   1.448   3.462   1.619  0.2804 -0.3046  0.1200
20737SOL    HW263633   1.413   3.384   1.494  0.8328  0.5441 -0.5712
20738SOL     OW63634   7.605   6.898   1.726 -0.3290  0.4522 -0.7490
20738SOL    HW163635   7.535   6.915   1.790  0.2037  0.0006 -0.0265
20738SOL    HW263636   7.609   6.978   1.674 -0.8426  0.8009 -0.2682
20739SOL     OW63637   1.701   7.784   6.540  0.1315  0.6537  0.0059
20739SOL    HW163638   1.731   7.698   6.569 -0.7555  0.1915 -0.4080
20739SOL    HW263639   1.627   7.804   6.597  1.1799  1.8009  1.0484
20740SOL     OW63640   1.307   6.846   4.473  0.2129 -0.0285  0.2093
20740SOL    HW163641   1.276   6.756   4.458  0.0170  0.3015 -1.6183
20740SOL    HW263642   1.230   6.900   4.456  1.0223  0.6321 -1.6234
20741SOL     OW63643   1.496   3.136   3.306  0.2388 -0.0644  0.2725
20741SOL    HW163644   1.527   3.046   3.310 -0.5060 -0.3811 -0.6079
20741SOL    HW263645   1.576   3.189   3.303  0.7225 -0.5371  2.6928
20742SOL     OW63646   6.151   0.721   0.857  0.5626  0.7034  0.2363
20742SOL    HW163647   6.150   0.636   0.901 -0.0388  1.3246  1.4814
20742SOL    HW263648   6.180   0.702   0.768  1.3620 -0.6726  0.7614
20743SOL     OW63649   0.628   2.573   1.655  0.4884 -0.1472  0.2014
20743SOL    HW163650   0.667   2.579   1.742  2.6030 -1.2276 -0.6173
20743SOL    HW263651   0.642   2.659   1.616  2.6445 -0.6581 -0.2625
20744SOL     OW63652   4.542   3.264   8.853 -0.5400  0.5536  0.2169
20744SOL    HW163653   4.519   3.311   8.773  0.4020  0.8026  0.0738
20744SOL    HW263654   4.538   3.172   8.830  1.1147  0.6360 -0.5563
20745SOL     OW63655   7.142   3.873   8.863 -0.0156  0.0692  0.5460
20745SOL    HW163656   7.062   3.911   8.899  0.1232  0.2023  0.7188
20745SOL    HW263657   7.185   3.832   8.938 -0.4625 -0.9719  0.2486
20746SOL     OW63658   7.551   8.354   4.400  0.2916 -0.0053 -0.2211
20746SOL    HW163659   7.610   8.397   4.463 -0.1876 -2.5056  2.0876
20746SOL    HW263660   7.501   8.426   4.362  2.4037  1.8624  0.3030
20747SOL     OW63661   6.087   5.206   4.133  0.6452  0.2094 -0.0636
20747SOL    HW163662   6.074   5.297   4.161  1.2146 -0.0146  0.9957
20747SOL    HW263663   6.166   5.178   4.179  0.9154 -0.5912 -0.9797
20748SOL     OW63664   7.456   1.645   4.032 -0.4023 -0.1446 -0.2166
20748SOL    HW163665   7.443   1.705   3.958 -0.7133  1.2017  0.8803
20748SOL    HW263666   7.368   1.612   4.051 -0.4184 -0.0459 -0.1112
20749SOL     OW63667   0.998   4.637   8.532  0.0425 -0.2434 -0.0240
20749SOL    HW163668   0.960   4.714   8.489  0.5512 -0.6921 -1.3144
20749SOL    HW263669   1.077   4.619   8.483  0.2274 -1.2651  0.6288
20750SOL     OW63670   4.786   2.593   3.359 -0.1449 -0.1466 -0.1564
20750SOL    HW163671   4.766   2.655   3.430  0.5198  1.6786 -1.5076
20750SOL    HW263672   4.877   2.611   3.336 -0.1025 -1.2911 -0.9477
20751SOL     OW63673   0.782   0.030   5.428 -0.0343 -0.2445  0.6272
20751SOL    HW163674   0.784  -0.066   5.431  0.6745 -0.2815 -0.3262
20751SOL    HW263675   0.819   0.051   5.342  1.7576  0.9234  1.6346
20752SOL     OW63676   9.036   6.469   2.692 -0.2195 -0.1373 -0.0232
20752SOL    HW163677   9.044   6.376   2.669  0.6933 -0.3803  1.1086
20752SOL    HW263678   9.091   6.514   2.629  1.3092 -0.6550  0.8795
20753SOL     OW63679   4.216   6.040   0.278 -0.0197  0.2417 -0.8105
20753SOL    HW163680   4.192   5.966   0.334  0.3101  0.5413 -0.2673
20753SOL    HW263681   4.267   6.097   0.335 -0.3545  0.9382 -1.2062
20754SOL     OW63682   8.427   9.275   8.916  0.6877 -0.0501 -0.0148
20754SOL    HW163683   8.395   9.345   8.973 -0.5017  0.3615 -1.1162
20754SOL    HW263684   8.348   9.223   8.897  1.1969 -0.5858 -0.6997
20755SOL     OW63685   8.217   8.892   8.638  0.0371 -0.6782  0.4443
20755SOL    HW163686   8.205   8.971   8.584  3.5867  1.4869  2.4669
20755SOL    HW263687   8.243   8.825   8.575  0.0536  0.6017 -0.9927
20756SOL     OW63688   2.930   2.786   2.329  0.2209  0.5481  0.0612
20756SOL    HW163689   2.859   2.743   2.376  0.0619 -0.7465 -1.3097
20756SOL    HW263690   3.007   2.771   2.383 -0.3254  1.0355  1.0140
20757SOL     OW63691   5.679   0.873   4.280 -0.2078 -0.0289  0.2565
20757SOL    HW163692   5.685   0.950   4.337 -0.8515 -0.5279  1.0356
20757SOL    HW263693   5.763   0.867   4.236 -0.3932  1.5272 -0.3509
20758SOL     OW63694   5.546   8.582   5.100  0.4819  0.4084  0.4512
20758SOL    HW163695   5.532   8.489   5.084 -0.9315  0.2369  2.2529
20758SOL    HW263696   5.467   8.624   5.065  1.2481  0.9865 -0.6268
20759SOL     OW63697   3.903   0.038   5.961 -0.0110 -0.3045  0.1223
20759SOL    HW163698   3.915   0.073   5.873  0.8198 -1.2663 -0.1574
20759SOL    HW263699   3.809   0.046   5.977 -0.0948  0.3696 -0.6283
20760SOL     OW63700   5.070   1.842   7.998  0.3995 -0.4391 -0.2521
20760SOL    HW163701   5.019   1.762   7.984 -0.4857 -0.3269  2.0344
20760SOL    HW263702   5.050   1.896   7.921 -1.3346 -1.2160 -0.3967
20761SOL     OW63703   6.855   6.562   2.790 -0.0052  0.8476  0.1060
20761SOL    HW163704   6.843   6.565   2.695  0.7136  0.8636  0.0152
20761SOL    HW263705   6.885   6.649   2.814  1.4885  0.3496  0.1142
20762SOL     OW63706   6.343   5.777   5.001  0.3706  0.1306  0.3906
20762SOL    HW163707   6.350   5.866   5.037  0.5357 -0.2378  1.3002
20762SOL    HW263708   6.320   5.723   5.077 -0.5464 -0.4798 -0.3111
20763SOL     OW63709   3.979   0.412   3.274  0.7707  0.7981 -0.2593
20763SOL    HW163710   3.967   0.318   3.263 -0.4844  0.8940  0.1491
20763SOL    HW263711   4.069   0.421   3.306  0.9303 -0.2475 -0.3749
20764SOL     OW63712   1.933   9.103   2.711 -0.0949 -0.0033 -0.1404
20764SOL    HW163713   1.970   9.107   2.799  1.1231  1.6804 -0.6762
20764SOL    HW263714   1.908   9.011   2.700  0.4115 -0.4004  1.6808
20765SOL     OW63715   0.941   2.228   5.105 -0.3540 -0.2977  0.5087
20765SOL    HW163716   0.921   2.160   5.041  1.7506 -0.8446  0.3529
20765SOL    HW263717   1.016   2.194   5.154 -1.7028  0.2187  3.1347
20766SOL     OW63718   2.125   3.873   4.908  0.1830 -0.2309 -0.8272
20766SOL    HW163719   2.162   3.934   4.845 -1.1416 -0.8005 -2.2290
20766SOL    HW263720   2.115   3.924   4.989 -0.7027  1.3556 -1.8985
20767SOL     OW63721   5.688   2.725   8.923 -0.4710  0.4856  0.2537
20767SOL    HW163722   5.659   2.796   8.981  0.9918  1.3652 -0.0482
20767SOL    HW263723   5.682   2.762   8.835 -3.5814 -1.1462 -0.3835
20768SOL     OW63724   4.294   5.336   4.246 -0.6481  0.0258 -0.4147
20768SOL    HW163725   4.270   5.245   4.233 -1.4413  0.1080  0.3725
20768SOL    HW263726   4.349   5.335   4.325 -1.0996  0.2842 -0.0912
20769SOL     OW63727   5.914   3.857   0.237 -0.2798 -0.1226  0.3815
20769SOL    HW163728   6.008   3.870   0.230 -0.4734  0.5906 -1.5292
20769SOL    HW263729   5.892   3.882   0.327  1.0611  1.6436  0.2612
20770SOL     OW63730   0.436   1.285   2.566  0.1910  0.1354 -0.2349
20770SOL    HW163731   0.466   1.322   2.482  0.2997 -1.0237 -0.7298
20770SOL    HW263732   0.341   1.300   2.566  0.0944 -0.4364 -0.8740
20771SOL     OW63733   2.427   7.289   9.100  0.0298 -0.4411 -0.2947
20771SOL    HW163734   2.342   7.283   9.143 -0.2928  0.0369 -0.8590
20771SOL    HW263735   2.452   7.198   9.084 -0.9183 -0.5632 -1.1804
20772SOL     OW63736   8.427   7.016   7.538  0.0414 -0.1105  0.2152
20772SOL    HW163737   8.500   6.958   7.557 -0.4400 -0.3639  1.3577
20772SOL    HW263738   8.356   6.985   7.594 -1.4676 -0.8372 -1.9674
20773SOL     OW63739   2.006   6.801   5.302 -0.2064  0.1438  0.2645
20773SOL    HW163740   2.077   6.864   5.289 -2.2315  2.5801  0.1804
20773SOL    HW263741   2.023   6.762   5.387  0.0332  2.4391  1.3418
20774SOL     OW63742   7.911   4.055   6.045 -0.3578 -0.1473 -0.0167
20774SOL    HW163743   7.867   4.091   6.122 -1.6287  1.3059 -1.3294
20774SOL    HW263744   8.004   4.072   6.060 -0.7475  2.0055  0.3161
20775SOL     OW63745   2.547   8.362   2.178 -0.1408  0.1673 -0.2816
20775SOL    HW163746   2.528   8.446   2.220 -0.3931  0.2225 -0.4985
20775SOL    HW263747   2.560   8.385   2.085 -0.7296 -0.0993 -0.4362
20776SOL     OW63748   5.194   3.975   1.100 -0.4748  0.3290  0.3503
20776SOL    HW163749   5.230   3.888   1.117 -1.8441 -0.5086 -0.7610
20776SOL    HW263750   5.101   3.959   1.083 -0.5060  1.8204 -1.1677
20777SOL     OW63751   9.236   8.633   7.823 -0.1744  0.1520  0.3113
20777SOL    HW163752   9.205   8.687   7.896 -0.6334  1.9282 -1.1106
20777SOL    HW263753   9.332   8.635   7.830 -0.2288 -0.4902  1.3789
20778SOL     OW63754   6.406   6.176   2.985  0.2679 -0.6199  0.0527
20778SOL    HW163755   6.337   6.241   2.991 -0.7018 -1.6729  0.5828
20778SOL    HW263756   6.431   6.159   3.076 -0.2696 -1.7836  0.0009
20779SOL     OW63757   8.616   3.075   7.515 -0.3633 -0.5044  0.3576
20779SOL    HW163758   8.533   3.034   7.494  0.6268 -1.8791 -1.0638
20779SOL    HW263759   8.658   3.090   7.430  1.5007 -1.2924  1.0769
20780SOL     OW63760   1.554   8.084   0.992 -0.0244 -0.0469 -0.2576
20780SOL    HW163761   1.641   8.119   1.008 -0.7566  1.9974 -0.4495
20780SOL    HW263762   1.555   8.060   0.899 -0.2742  1.9499 -0.8100
20781SOL     OW63763   0.059   6.162   8.407  0.3828  0.2568 -0.3101
20781SOL    HW163764  -0.022   6.124   8.440  0.7006  0.6297  0.9616
20781SOL    HW263765   0.055   6.254   8.434  1.0852  0.3569 -0.5233
20782SOL     OW63766   2.781   8.003   8.554  0.2091 -0.1787  0.0254
20782SOL    HW163767   2.708   7.945   8.574  0.9690 -1.5455 -0.9893
20782SOL    HW263768   2.799   8.049   8.636 -0.2657 -1.5571  0.9262
20783SOL     OW63769   2.087   2.072   6.509  0.2524  0.9314  0.1681
20783SOL    HW163770   2.047   1.993   6.473 -3.2089  1.8589  1.5518
20783SOL    HW263771   2.115   2.122   6.432 -0.0663 -0.3922 -0.8398
20784SOL     OW63772   0.670   8.382   2.495  0.5205  0.7840  0.0344
20784SOL    HW163773   0.726   8.456   2.520  2.0848  0.4433 -2.1441
20784SOL    HW263774   0.709   8.306   2.537 -1.7194  1.2015  3.1791
20785SOL     OW63775   6.348   8.631   8.183  0.2963 -0.3135  0.0011
20785SOL    HW163776   6.379   8.642   8.093  1.5701 -0.7613  0.3588
20785SOL    HW263777   6.269   8.686   8.189 -0.6108 -1.3646 -1.7685
20786SOL     OW63778   3.222   2.712   7.577 -0.0383  0.0118 -0.2868
20786SOL    HW163779   3.230   2.778   7.646 -1.4182 -0.8049  0.6899
20786SOL    HW263780   3.180   2.759   7.504  0.0644  0.5023 -0.0334
20787SOL     OW63781   5.953   3.593   0.479 -0.2676 -0.6675  1.1372
20787SOL    HW163782   5.912   3.574   0.395 -1.4940  2.7743  0.7717
20787SOL    HW263783   5.912   3.533   0.541 -1.1834 -1.5782 -0.3162
20788SOL     OW63784   1.567   4.037   0.575 -0.1933  0.2092 -0.3817
20788SOL    HW163785   1.571   3.951   0.617 -0.0675  0.2396 -0.3277
20788SOL    HW263786   1.474   4.059   0.573 -0.2031  0.1933 -0.1442
20789SOL     OW63787   0.876   5.368   7.788 -0.0234 -0.4816  0.1961
20789SOL    HW163788   0.838   5.417   7.715  0.5602 -0.9375 -0.4230
20789SOL    HW263789   0.806   5.310   7.817 -0.1075 -0.6338 -0.3079
20790SOL     OW63790   7.856   5.104   0.766  0.4359 -0.1652 -0.0865
20790SOL    HW163791   7.890   5.106   0.855 -0.1276 -1.6433  0.1972
20790SOL    HW263792   7.872   5.192   0.731  3.5723 -0.4492  0.3715
20791SOL     OW63793   5.617   6.092   1.093 -0.0790 -0.7372 -0.3355
20791SOL    HW163794   5.525   6.113   1.075  0.4412  0.9925 -1.2729
20791SOL    HW263795   5.657   6.177   1.110  1.6850 -1.2654 -1.6116
20792SOL     OW63796   6.873   2.571   0.311  1.0465 -0.0603 -0.3608
20792SOL    HW163797   6.815   2.510   0.357 -0.2027  0.0169 -1.7484
20792SOL    HW263798   6.840   2.657   0.333  1.1794  0.0195 -0.4699
20793SOL     OW63799   0.280   8.497   7.378 -0.3889  0.4327  0.0736
20793SOL    HW163800   0.262   8.470   7.288  0.4693  0.2676 -0.0625
20793SOL    HW263801   0.369   8.464   7.395 -1.4876 -1.8332  1.8920
20794SOL     OW63802   3.020   1.979   0.079 -0.3551 -0.0255 -0.0407
20794SOL    HW163803   3.020   1.923   0.157  1.3573  0.1021  0.0767
20794SOL    HW263804   3.074   1.932   0.015 -1.1742  0.2028 -0.9251
20795SOL     OW63805   2.839   6.381   2.305 -0.5138 -0.0095 -0.3735
20795SOL    HW163806   2.779   6.384   2.379 -0.6174  0.7519 -0.4769
20795SOL    HW263807   2.922   6.352   2.342 -0.3237  1.2298  0.2250
20796SOL     OW63808   1.674   2.149   1.287  0.2570 -0.5416  0.2777
20796SOL    HW163809   1.761   2.179   1.261  0.3283  0.9509  2.0776
20796SOL    HW263810   1.631   2.226   1.323 -1.2218 -1.6203  0.9505
20797SOL     OW63811   1.417   2.191   5.469 -0.6571  0.4656  0.3891
20797SOL    HW163812   1.459   2.146   5.542  0.4346 -0.3018 -0.6843
20797SOL    HW263813   1.390   2.121   5.409  1.0308  1.1429 -1.2883
20798SOL     OW63814   0.838   5.774   8.734 -0.2832 -0.1248 -0.7861
20798SOL    HW163815   0.841   5.826   8.654 -1.9327 -0.1878 -0.9291
20798SOL    HW263816   0.840   5.683   8.705 -0.0449 -0.1457 -0.7053
20799SOL     OW63817   0.897   6.765   6.304 -0.1902  0.4207  0.0709
20799SOL    HW163818   0.965   6.701   6.322 -0.1974  0.3599 -0.1184
20799SOL    HW263819   0.815   6.715   6.306 -0.2907  0.6033  0.9090
20800SOL     OW63820   6.994   6.636   3.457 -0.2517 -0.5862 -0.6444
20800SOL    HW163821   7.008   6.543   3.438  1.3325 -0.5877  0.3037
20800SOL    HW263822   6.904   6.640   3.488 -0.0583 -2.0168  0.2572
20801SOL     OW63823   3.026   7.963   5.015 -0.0760 -0.5887 -0.0304
20801SOL    HW163824   2.989   7.887   5.061 -0.0772 -0.4070  0.2687
20801SOL    HW263825   3.007   7.946   4.922 -1.3606 -0.2610  0.1553
20802SOL     OW63826   4.002   2.009   3.592 -0.2125  0.1030  0.0091
20802SOL    HW163827   4.073   1.967   3.544 -2.0587 -1.1490 -1.8106
20802SOL    HW263828   3.978   1.945   3.659 -0.2783  0.0614 -0.0531
20803SOL     OW63829   6.763   7.767   6.271  0.2466  0.3777  0.0994
20803SOL    HW163830   6.745   7.861   6.272  0.1649  0.3605  0.7076
20803SOL    HW263831   6.849   7.759   6.230  0.8681  0.8315  1.2639
20804SOL     OW63832   4.819   0.547   8.666  0.0278 -0.3832  0.5084
20804SOL    HW163833   4.819   0.530   8.571 -0.3257  0.3617  0.3678
20804SOL    HW263834   4.766   0.626   8.676 -0.7668 -1.0000  1.4318
20805SOL     OW63835   0.023   6.814   4.821 -0.6433 -0.1208 -0.0441
20805SOL    HW163836  -0.003   6.817   4.913  1.3221 -0.2470  0.5667
20805SOL    HW263837  -0.038   6.873   4.776 -0.9788  0.7660  1.5090
20806SOL     OW63838   0.594   4.293   8.244  0.1861  0.9404  0.3197
20806SOL    HW163839   0.640   4.364   8.288  0.3539  0.1614  1.4564
20806SOL    HW263840   0.623   4.214   8.289  0.8740  0.0092 -1.6633
20807SOL     OW63841   7.684   6.931   7.901 -0.1701 -0.6229  0.1894
20807SOL    HW163842   7.669   6.897   7.989  2.0821 -0.6786  0.6139
20807SOL    HW263843   7.735   6.862   7.858  0.0427  0.0520 -0.6461
20808SOL     OW63844   8.103   0.842   8.975  0.3072  0.4878  0.4359
20808SOL    HW163845   8.079   0.874   9.062 -2.3575  1.9631 -0.7256
20808SOL    HW263846   8.059   0.758   8.967  1.8645 -0.4392  1.0152
20809SOL     OW63847   8.714   8.360   1.910 -0.2095  0.9879  0.5426
20809SOL    HW163848   8.756   8.284   1.869  0.2173  2.2212 -1.4273
20809SOL    HW263849   8.632   8.371   1.862 -0.7781  1.1853  1.5209
20810SOL     OW63850   3.117   1.109   4.785 -0.0661 -0.0521 -0.3318
20810SOL    HW163851   3.054   1.081   4.719  0.8448 -2.4684 -0.2880
20810SOL    HW263852   3.112   1.042   4.853  1.2888  0.6467  0.5060
20811SOL     OW63853   6.235   0.212   7.998  0.5369 -0.2992  0.7854
20811SOL    HW163854   6.149   0.169   8.007 -0.1785  0.9919  0.4440
20811SOL    HW263855   6.282   0.157   7.935 -0.5540 -0.2922 -0.0718
20812SOL     OW63856   6.410   8.904   2.929  0.1455 -0.3513 -0.0748
20812SOL    HW163857   6.403   8.997   2.905 -0.1934  0.2185  1.9519
20812SOL    HW263858   6.333   8.864   2.889  0.3943  0.1869 -1.1366
20813SOL     OW63859   5.206   6.223   5.080  0.1902  0.1366 -0.0937
20813SOL    HW163860   5.186   6.212   4.987  1.0881 -0.0553 -0.2745
20813SOL    HW263861   5.288   6.175   5.093  1.2605  1.9476  0.2935
20814SOL     OW63862   0.849   2.821   4.067 -0.3354  0.6503  0.1108
20814SOL    HW163863   0.894   2.887   4.014 -0.6037  1.0476  0.3736
20814SOL    HW263864   0.888   2.738   4.040 -1.8350  0.6012 -2.1550
20815SOL     OW63865   7.547   2.782   9.078  0.0107 -0.2772  0.2402
20815SOL    HW163866   7.592   2.807   8.997 -0.3977 -1.9041 -0.5426
20815SOL    HW263867   7.461   2.751   9.049  0.2231 -1.8675  1.1543
20816SOL     OW63868   8.617   1.965   8.877 -0.0569  0.5491  0.2887
20816SOL    HW163869   8.547   2.003   8.929 -1.3019  1.4218 -1.8879
20816SOL    HW263870   8.697   2.008   8.908 -0.1085 -1.4911  3.8092
20817SOL     OW63871   0.180   1.879   8.241 -0.4867  0.1441  0.1166
20817SOL    HW163872   0.249   1.815   8.257 -0.9799 -0.1567  1.1536
20817SOL    HW263873   0.151   1.905   8.329 -0.7751  1.2617 -0.2948
20818SOL     OW63874   0.113   4.603   9.104 -0.8998  0.1409 -0.6487
20818SOL    HW163875   0.162   4.524   9.081 -1.4790 -0.0823 -1.1355
20818SOL    HW263876   0.173   4.675   9.086 -0.5793 -0.1567 -0.7629
20819SOL     OW63877   6.818   3.644   1.480 -0.1853  0.1124  0.1003
20819SOL    HW163878   6.770   3.680   1.554 -0.0037 -0.9783  0.7648
20819SOL    HW263879   6.910   3.655   1.503 -0.1265 -0.1625  0.0011
20820SOL     OW63880   1.115   5.800   3.182 -0.1800 -0.4362  0.3561
20820SOL    HW163881   1.125   5.708   3.208  0.4126  0.1109  2.2043
20820SOL    HW263882   1.111   5.797   3.086 -0.2497 -2.3904  0.3774
20821SOL     OW63883   5.384   2.794   1.852  0.6759  0.6679 -0.0057
20821SOL    HW163884   5.462   2.749   1.886  0.2206  0.0608  0.2584
20821SOL    HW263885   5.418   2.874   1.812  1.5552 -0.0460 -0.7521
20822SOL     OW63886   7.976   7.131   3.329 -0.2561  0.1052 -0.2278
20822SOL    HW163887   7.897   7.098   3.285 -1.5754 -0.7701  2.5786
20822SOL    HW263888   7.956   7.224   3.346 -1.1222 -0.3002  1.1922
20823SOL     OW63889   4.506   2.814   5.429 -0.4076  0.1697 -0.6994
20823SOL    HW163890   4.484   2.751   5.360 -0.5771 -1.6060  0.8780
20823SOL    HW263891   4.424   2.861   5.445 -1.0082 -1.0020 -0.1838
20824SOL     OW63892   1.754   7.374   3.566 -0.5071  0.0018 -0.0655
20824SOL    HW163893   1.708   7.362   3.483  0.8056 -2.6688 -0.5073
20824SOL    HW263894   1.707   7.446   3.609 -3.8544 -1.2191 -1.3183
20825SOL     OW63895   7.024   4.461   5.162  0.3492 -0.1617 -0.7948
20825SOL    HW163896   7.072   4.471   5.244 -0.2055 -0.1502 -0.4647
20825SOL    HW263897   7.050   4.376   5.129  1.5847  0.3899 -1.2815
20826SOL     OW63898   2.770   3.163   4.763  0.0411  1.0044 -0.1600
20826SOL    HW163899   2.771   3.195   4.853  0.1995  3.2256 -0.9030
20826SOL    HW263900   2.844   3.102   4.759 -1.0206 -0.5136  1.6295
20827SOL     OW63901   7.727   8.956   0.697  0.0015  0.1126 -0.5204
20827SOL    HW163902   7.801   8.899   0.717 -1.2312 -2.0566 -1.6792
20827SOL    HW263903   7.682   8.968   0.781  0.2905 -0.6527 -0.2523
20828SOL     OW63904   3.336   0.366   6.040 -0.5183  0.1086 -0.4786
20828SOL    HW163905   3.426   0.363   6.073 -0.2565 -1.3751 -1.2512
20828SOL    HW263906   3.331   0.446   5.989  0.7173 -0.3623 -1.3687
20829SOL     OW63907   3.954   1.861   7.906 -0.2288  0.3538  0.0515
20829SOL    HW163908   3.955   1.786   7.847 -2.0033  1.5261 -1.5515
20829SOL    HW263909   3.968   1.937   7.850 -0.1452  1.3878  1.3996
20830SOL     OW63910   2.690   6.632   8.182 -0.2340 -0.5364 -0.1375
20830SOL    HW163911   2.678   6.709   8.126  0.8207  0.3540  0.8323
20830SOL    HW263912   2.781   6.636   8.210 -0.3828 -1.7142  0.5785
20831SOL     OW63913   3.691   5.626   0.636 -0.0620  0.2009  0.5715
20831SOL    HW163914   3.654   5.634   0.548  0.5049  0.4163  0.3419
20831SOL    HW263915   3.652   5.546   0.672 -0.2826  0.1007  0.1123
20832SOL     OW63916   9.142   2.072   8.544 -0.8449  0.4471 -0.2742
20832SOL    HW163917   9.054   2.041   8.523 -1.4960 -1.4935  4.1684
20832SOL    HW263918   9.129   2.160   8.580 -1.1814 -0.1389  1.1102
20833SOL     OW63919   8.180   3.591   2.939 -0.0086  1.0256  0.1588
20833SOL    HW163920   8.261   3.558   2.980 -1.0495  0.4154  1.8320
20833SOL    HW263921   8.122   3.610   3.013 -2.4234 -1.2212 -1.0043
20834SOL     OW63922   7.618   2.774   0.217 -0.6383 -0.5034  0.3619
20834SOL    HW163923   7.533   2.737   0.192 -1.5365  0.1289  2.2298
20834SOL    HW263924   7.635   2.842   0.152 -3.0388  1.3560  1.4819
20835SOL     OW63925   0.502   5.859   3.977  0.5053  0.1238 -0.4551
20835SOL    HW163926   0.464   5.852   4.064 -0.8838  0.9389 -0.9578
20835SOL    HW263927   0.547   5.944   3.977 -0.3703  0.6022 -0.8289
20836SOL     OW63928   7.881   6.341   7.935  0.2015  0.3751 -0.7337
20836SOL    HW163929   7.923   6.312   8.016 -1.2677 -1.0135 -0.4326
20836SOL    HW263930   7.798   6.378   7.964 -0.9529 -1.3766 -1.6780
20837SOL     OW63931   4.193   6.451   7.943  0.0966 -0.1572  0.8180
20837SOL    HW163932   4.209   6.419   7.854  1.9419 -0.7659  1.3150
20837SOL    HW263933   4.119   6.510   7.934  1.5779  1.5601 -1.5554
20838SOL     OW63934   3.784   9.178   4.755 -0.0180  0.3173 -0.4168
20838SOL    HW163935   3.739   9.095   4.738  2.8962 -1.3016 -0.9725
20838SOL    HW263936   3.811   9.209   4.668  1.7692  0.0328 -0.0111
20839SOL     OW63937   5.879   3.391   1.758  0.6088  0.4668  0.1044
20839SOL    HW163938   5.814   3.436   1.811 -1.6547 -1.1364 -1.1421
20839SOL    HW263939   5.926   3.335   1.819 -1.4578 -0.8107  0.5885
20840SOL     OW63940   8.826   5.945   6.001 -0.0450  0.3937 -0.1501
20840SOL    HW163941   8.845   6.020   6.057 -0.0704 -0.3340  0.8557
20840SOL    HW263942   8.905   5.892   6.004 -0.6239 -0.4438  0.4880
20841SOL     OW63943   8.361   5.185   5.914 -1.0362  0.2264 -0.4876
20841SOL    HW163944   8.337   5.277   5.920  0.6069  0.6792 -0.2779
20841SOL    HW263945   8.344   5.161   5.823 -2.6846  0.3540 -0.2327
20842SOL     OW63946   4.666   0.114   4.312 -0.2638  0.5865 -0.0134
20842SOL    HW163947   4.664   0.202   4.349  1.2478  1.3981 -1.6552
20842SOL    HW263948   4.606   0.118   4.238  1.2346  0.9062 -1.2829
20843SOL     OW63949   5.195   4.227   2.948  0.5436  0.2746 -0.0068
20843SOL    HW163950   5.255   4.159   2.977  2.1527  1.8181  0.4877
20843SOL    HW263951   5.243   4.275   2.881 -0.6279  0.7885 -0.5178
20844SOL     OW63952   5.045   7.854   2.923  0.0637 -0.3142  0.5931
20844SOL    HW163953   5.078   7.813   3.003  2.1395 -1.1381 -0.6287
20844SOL    HW263954   5.009   7.938   2.953  1.8925 -0.0393  2.2494
20845SOL     OW63955   1.377   4.587   8.605  0.5541  0.1179 -0.5929
20845SOL    HW163956   1.350   4.496   8.592  0.4608  0.1385 -0.5488
20845SOL    HW263957   1.457   4.596   8.555 -0.9826  0.8112 -3.0912
20846SOL     OW63958   8.845   8.612   8.696  0.1846 -0.2457  0.2999
20846SOL    HW163959   8.807   8.637   8.780  2.3388  3.3417  0.4115
20846SOL    HW263960   8.929   8.572   8.718  0.1066 -0.6483 -0.1196
20847SOL     OW63961   4.447   7.820   3.461 -0.5893 -0.0003  0.0994
20847SOL    HW163962   4.532   7.849   3.430 -0.9902  2.0303  0.7775
20847SOL    HW263963   4.396   7.805   3.381 -0.2772  0.9477 -0.2869
20848SOL     OW63964   1.113   1.978   8.893 -0.4399  0.7171  0.0449
20848SOL    HW163965   1.128   1.955   8.801 -2.9984  0.3416 -0.3401
20848SOL    HW263966   1.149   1.904   8.942  1.1659  1.0284 -0.6097
20849SOL     OW63967   6.234   8.524   2.314 -0.2273  0.4839 -0.1947
20849SOL    HW163968   6.244   8.523   2.409  0.1868  0.0799 -0.2374
20849SOL    HW263969   6.148   8.564   2.299 -1.0732 -1.0069  0.4197
20850SOL     OW63970   0.292   7.516   4.719  0.0942  0.1563  0.1012
20850SOL    HW163971   0.298   7.517   4.814 -2.4404  1.3172  0.3114
20850SOL    HW263972   0.382   7.500   4.690  1.0016  0.1812  2.6563
20851SOL     OW63973   0.285   1.967   3.897  0.2438  0.2742 -0.4389
20851SOL    HW163974   0.233   1.888   3.880 -0.9085  1.2487 -1.6536
20851SOL    HW263975   0.231   2.019   3.956  1.5023 -0.3080  1.3012
20852SOL     OW63976   7.947   8.006   4.861  0.9256  0.2626  0.1967
20852SOL    HW163977   7.949   8.072   4.792 -1.8601  1.1640  0.8602
20852SOL    HW263978   7.860   8.014   4.900  1.6189 -1.6961  2.3953
20853SOL     OW63979   0.685   2.406   4.813 -0.3171  0.4220  0.4638
20853SOL    HW163980   0.781   2.406   4.819 -0.2478 -0.3400 -0.3893
20853SOL    HW263981   0.656   2.355   4.888  0.0286 -0.5040 -0.0097
20854SOL     OW63982   2.293   2.115   7.887  0.8535 -0.6374 -0.1660
20854SOL    HW163983   2.227   2.077   7.946  0.2677  0.6240  0.0282
20854SOL    HW263984   2.372   2.121   7.941  0.7527 -0.9098  0.0157
20855SOL     OW63985   3.188   1.111   9.226 -0.1131  0.0705  0.6694
20855SOL    HW163986   3.097   1.140   9.234 -0.1438  0.5555 -0.9887
20855SOL    HW263987   3.225   1.123   9.314 -1.4659  0.4725  1.2171
20856SOL     OW63988   1.289   2.265   8.026 -0.3790  0.5122 -0.4547
20856SOL    HW163989   1.200   2.248   7.994  0.6027 -3.5871 -1.5367
20856SOL    HW263990   1.339   2.289   7.948  0.1027 -0.4456 -0.4573
20857SOL     OW63991   5.399   4.667   4.343  0.9158 -1.1449 -0.1401
20857SOL    HW163992   5.315   4.686   4.302  0.2156 -3.3141  0.1580
20857SOL    HW263993   5.445   4.751   4.345 -0.7648 -0.1493 -1.3675
20858SOL     OW63994   2.571   3.156   8.705 -0.4135  0.4867 -0.8319
20858SOL    HW163995   2.514   3.181   8.632 -1.0783  1.5701  0.0238
20858SOL    HW263996   2.540   3.069   8.730 -0.6539  0.4098 -1.3703
20859SOL     OW63997   3.109   2.187   8.283 -0.5271  0.5155  0.1829
20859SOL    HW163998   3.127   2.130   8.358  0.4146 -0.4514 -0.7490
20859SOL    HW263999   3.167   2.155   8.214 -1.1125  1.6202 -0.8537
20860SOL     OW64000   2.901   5.173   2.072  0.0358 -0.6076  0.1719
20860SOL    HW164001   2.948   5.233   2.130 -0.6727  0.8676 -0.6909
20860SOL    HW264002   2.809   5.187   2.095 -0.1127 -1.8630  0.3819
20861SOL     OW64003   0.077   1.724   2.949 -0.0110  0.3028  0.2668
20861SOL    HW164004   0.030   1.684   2.875 -0.8545 -0.1374  1.0170
20861SOL    HW264005   0.154   1.669   2.960 -0.1072  0.1052 -0.0053
20862SOL     OW64006   9.169   5.231   4.417  0.0638 -0.0349  0.1895
20862SOL    HW164007   9.153   5.269   4.330  1.2997 -0.9546 -0.4817
20862SOL    HW264008   9.210   5.146   4.398 -0.6936 -0.7575  1.6693
20863SOL     OW64009   4.668   6.867   7.019  0.1032 -0.3069 -0.6491
20863SOL    HW164010   4.607   6.938   6.998  1.1464  0.7383 -0.2342
20863SOL    HW264011   4.670   6.813   6.940  0.7325  1.1850 -1.6960
20864SOL     OW64012   2.907   6.846   8.039 -0.3623 -0.1590 -0.1490
20864SOL    HW164013   2.943   6.762   8.070  1.0194  0.7013  0.6852
20864SOL    HW264014   2.978   6.884   7.987 -1.3560  0.0471 -1.3746
20865SOL     OW64015   3.821   6.709   8.783 -0.4182 -0.0365 -0.5177
20865SOL    HW164016   3.873   6.628   8.781  0.0976  0.2297  0.7186
20865SOL    HW264017   3.754   6.693   8.850  0.2856  0.8772  0.4457
20866SOL     OW64018   0.978   3.255   1.332 -0.1549 -0.6304 -0.4933
20866SOL    HW164019   0.905   3.314   1.311  0.0133 -0.2227  0.0427
20866SOL    HW264020   0.951   3.210   1.412  0.6650  0.3897  0.3830
20867SOL     OW64021   7.882   2.991   9.089  0.7692 -0.2076 -0.4024
20867SOL    HW164022   7.963   2.939   9.087  1.7559  1.2496 -0.4430
20867SOL    HW264023   7.827   2.953   9.021  1.7895 -0.6854 -0.9901
20868SOL     OW64024   2.524   8.870   6.226  0.4007  0.0285 -0.3033
20868SOL    HW164025   2.562   8.953   6.256  2.7147 -1.6111  1.7036
20868SOL    HW264026   2.578   8.845   6.152  0.8410 -0.4835  0.1797
20869SOL     OW64027   5.072   7.279   1.115  0.7201 -0.4343 -0.3866
20869SOL    HW164028   5.050   7.338   1.043 -2.0362 -0.6054  0.2347
20869SOL    HW264029   5.014   7.305   1.187  3.1740 -0.4388  1.7458
20870SOL     OW64030   3.738   6.625   1.310  0.2463  0.0444  0.7544
20870SOL    HW164031   3.826   6.617   1.272 -0.6570  1.5324 -1.9484
20870SOL    HW264032   3.680   6.626   1.234 -2.5002 -3.8209  2.5202
20871SOL     OW64033   4.561   9.219   2.133 -0.5542  0.3267  0.2305
20871SOL    HW164034   4.570   9.250   2.043  3.3751 -0.4006  0.2169
20871SOL    HW264035   4.551   9.299   2.185 -1.6071  0.8265 -0.7041
20872SOL     OW64036   5.080   8.918   4.901 -0.1753  0.3859  0.4415
20872SOL    HW164037   5.083   8.880   4.988  1.5436 -0.2347  0.1684
20872SOL    HW264038   5.082   8.842   4.842 -0.4445  0.8157 -0.1285
20873SOL     OW64039   8.055   8.726   5.298  0.1732 -0.2732  0.4557
20873SOL    HW164040   8.054   8.639   5.259  0.1831 -1.1977  2.3767
20873SOL    HW264041   7.975   8.729   5.352  1.3832 -0.0689  2.3354
20874SOL     OW64042   7.067   6.983   2.281  0.2141 -0.0047 -0.5871
20874SOL    HW164043   6.993   6.922   2.292  0.5112 -0.2729 -0.0069
20874SOL    HW264044   7.027   7.069   2.290  0.0444 -0.1618  0.2626
20875SOL     OW64045   9.229   1.663   5.953  0.4095  0.3874  0.1966
20875SOL    HW164046   9.293   1.657   6.024  0.3854  1.4244  0.3167
20875SOL    HW264047   9.177   1.583   5.962  0.5786  0.3675  1.1821
20876SOL     OW64048   3.669   2.858   6.312 -0.0372 -0.0593  0.1405
20876SOL    HW164049   3.686   2.778   6.364  0.2157 -1.0829 -1.4579
20876SOL    HW264050   3.755   2.881   6.277  0.2346  1.9626  1.9474
20877SOL     OW64051   9.181   6.628   4.310  0.1864  0.9159  0.5379
20877SOL    HW164052   9.153   6.631   4.218  1.8668 -0.2218 -0.0509
20877SOL    HW264053   9.179   6.719   4.339 -1.8025  1.1398 -0.1429
20878SOL     OW64054   2.234   6.943   1.913 -0.3691 -0.3157 -1.0195
20878SOL    HW164055   2.178   7.017   1.891 -0.7831 -0.4704 -0.5142
20878SOL    HW264056   2.313   6.956   1.861 -0.6806  0.1605 -1.3832
20879SOL     OW64057   7.069   4.415   3.121  0.5366  0.9958 -0.0476
20879SOL    HW164058   6.975   4.397   3.116  0.5958  0.1420  1.4010
20879SOL    HW264059   7.075   4.501   3.163  0.4107  1.1125 -0.2658
20880SOL     OW64060   9.060   4.402   3.365  0.2377  0.2228 -0.4113
20880SOL    HW164061   8.976   4.400   3.319 -1.3253  1.2311  2.1910
20880SOL    HW264062   9.102   4.483   3.336  0.5426 -0.4298 -1.9449
20881SOL     OW64063   2.949   8.316   0.268  0.2443  0.1826  0.1099
20881SOL    HW164064   3.031   8.278   0.237  0.7825  1.4042 -0.0052
20881SOL    HW264065   2.964   8.411   0.268 -1.3237  0.4667 -0.3850
20882SOL     OW64066   3.951   3.289   5.591  0.1565  0.3052  0.7489
20882SOL    HW164067   3.918   3.285   5.502 -1.1270  0.3184  1.1987
20882SOL    HW264068   4.008   3.212   5.599 -1.0547 -0.6693  0.4080
20883SOL     OW64069   3.049   4.345   6.347  0.4825  0.1853  0.8204
20883SOL    HW164070   3.126   4.346   6.404 -0.2168 -2.8304  2.0555
20883SOL    HW264071   3.084   4.347   6.258  1.9939 -0.6339  1.3601
20884SOL     OW64072   0.703   3.341   5.950  0.5445 -0.2160 -0.2453
20884SOL    HW164073   0.649   3.262   5.942  1.7900 -1.1224  0.1064
20884SOL    HW264074   0.776   3.327   5.891  1.2121  0.3003  0.4344
20885SOL     OW64075   2.073   6.697   1.831 -0.3929 -0.1597  0.0932
20885SOL    HW164076   2.022   6.778   1.828  1.4914  1.0704 -0.8758
20885SOL    HW264077   2.143   6.715   1.893  0.9846 -0.4006 -1.3225
20886SOL     OW64078   3.546   1.090   9.014  0.1816 -0.4787  0.0473
20886SOL    HW164079   3.497   1.017   8.977 -1.7223  1.7017 -2.1183
20886SOL    HW264080   3.611   1.111   8.947  0.4979  0.0093  0.5026
20887SOL     OW64081   6.751   3.018   8.865 -0.1240  0.2439  0.1003
20887SOL    HW164082   6.699   2.949   8.823 -0.5162  0.5397  0.0852
20887SOL    HW264083   6.790   2.976   8.942  0.1116 -0.1438 -0.2319
20888SOL     OW64084   4.432   5.355   1.020 -0.3396 -0.8099 -0.3012
20888SOL    HW164085   4.375   5.287   1.055  0.0273 -0.4353  1.1025
20888SOL    HW264086   4.519   5.333   1.055 -0.4115  0.9896  1.2008
20889SOL     OW64087   3.804   5.251   0.092  0.0499 -0.1049 -0.4213
20889SOL    HW164088   3.764   5.331   0.126 -2.3451 -0.9104 -1.1025
20889SOL    HW264089   3.871   5.281   0.031 -0.3351  1.3689 -0.1605
20890SOL     OW64090   2.992   7.517   0.615  0.0244 -0.7397  0.6089
20890SOL    HW164091   3.073   7.486   0.572 -0.5192 -0.8994 -0.3331
20890SOL    HW264092   2.965   7.443   0.670  0.1153 -0.9687  0.3491
20891SOL     OW64093   6.509   5.593   0.144 -0.4374 -1.1572  0.6846
20891SOL    HW164094   6.559   5.532   0.198  0.0007 -0.6128  0.9046
20891SOL    HW264095   6.469   5.654   0.206  2.9201  1.6936  0.3632
20892SOL     OW64096   6.958   4.782   3.481  0.1447  0.2140  0.0113
20892SOL    HW164097   6.915   4.797   3.566  1.3363 -1.8965  1.0833
20892SOL    HW264098   6.908   4.834   3.419 -0.0105  2.8793  2.1844
20893SOL     OW64099   0.955   2.492   5.395 -0.3801 -0.2623  0.1005
20893SOL    HW164100   0.925   2.498   5.486  0.1708  0.5907  0.2303
20893SOL    HW264101   1.047   2.467   5.402  0.8135  3.5264 -0.0325
20894SOL     OW64102   0.517   6.677   8.591  0.2626  0.0325  0.4251
20894SOL    HW164103   0.451   6.639   8.648  0.8165 -1.2396  0.2538
20894SOL    HW264104   0.593   6.692   8.648  0.0705  0.8581  0.4798
20895SOL     OW64105   1.148   6.366   5.540 -0.4749 -0.2178 -0.0023
20895SOL    HW164106   1.083   6.346   5.473 -0.8865 -0.0060  0.3285
20895SOL    HW264107   1.142   6.293   5.602 -0.0756 -0.4283 -0.2061
20896SOL     OW64108   6.511   8.349   7.716 -0.6093  0.4876 -0.1588
20896SOL    HW164109   6.431   8.372   7.764 -0.3261 -0.2597  0.7022
20896SOL    HW264110   6.558   8.290   7.775 -0.4092 -0.7493 -1.4943
20897SOL     OW64111   6.816   8.659   1.472  0.4169 -0.2348  0.9072
20897SOL    HW164112   6.793   8.702   1.555  0.1680 -0.3079  0.8752
20897SOL    HW264113   6.845   8.731   1.416 -0.5905 -0.0238  0.6471
20898SOL     OW64114   6.450   1.266   7.744 -0.2525  0.0611  0.8590
20898SOL    HW164115   6.367   1.224   7.767  0.5432 -1.4077  1.2002
20898SOL    HW264116   6.510   1.241   7.814  0.7846  0.0845  0.0089
20899SOL     OW64117   1.701   5.250   2.665  0.1589  0.0647 -0.2442
20899SOL    HW164118   1.792   5.251   2.636  1.1046  1.5247  2.3646
20899SOL    HW264119   1.658   5.318   2.612  0.6469 -0.3773 -1.2348
20900SOL     OW64120   1.394   6.714   4.938  0.0962  0.0565 -0.6845
20900SOL    HW164121   1.324   6.697   5.001  0.5433 -0.4989 -0.3294
20900SOL    HW264122   1.369   6.665   4.860 -0.2228  0.3676 -0.7802
20901SOL     OW64123   0.250   7.799   7.792  0.6322  0.1585  0.6142
20901SOL    HW164124   0.290   7.756   7.868 -0.4296  1.2576  1.8487
20901SOL    HW264125   0.164   7.760   7.785  1.1330 -0.7471 -0.7689
20902SOL     OW64126   5.965   7.960   1.285  0.0429 -0.5909  0.3859
20902SOL    HW164127   5.946   7.924   1.198 -1.7864 -0.1990  0.5727
20902SOL    HW264128   6.015   8.039   1.269 -0.2061 -0.5718 -0.3044
20903SOL     OW64129   5.765   0.474   6.033  0.4390  0.6773 -0.8623
20903SOL    HW164130   5.727   0.462   6.120  1.6065  0.5848 -0.3415
20903SOL    HW264131   5.720   0.550   5.998  1.6088  2.2299  0.8110
20904SOL     OW64132   7.453   8.337   5.256 -0.4753  0.9094  0.1306
20904SOL    HW164133   7.380   8.342   5.195  1.1353 -0.6593 -2.0826
20904SOL    HW264134   7.491   8.425   5.254 -1.8452  1.5499  0.7933
20905SOL     OW64135   8.821   7.436   4.766 -0.4150  0.1667 -0.5211
20905SOL    HW164136   8.754   7.435   4.834  0.3333  0.9399  0.2445
20905SOL    HW264137   8.776   7.402   4.688 -0.9383 -2.0062  0.6342
20906SOL     OW64138   1.591   4.640   8.446  0.0674  0.2609 -0.6249
20906SOL    HW164139   1.621   4.557   8.482  0.5685  0.1280 -1.3333
20906SOL    HW264140   1.671   4.687   8.423 -0.2085  0.9406 -0.2471
20907SOL     OW64141   7.639   7.675   6.049  0.0756 -0.4017  0.1725
20907SOL    HW164142   7.600   7.745   6.102 -1.2112  0.1047 -1.3628
20907SOL    HW264143   7.725   7.708   6.025  0.0617  0.0114  0.6815
20908SOL     OW64144   1.694   6.482   5.598 -0.2852  0.0428 -0.3025
20908SOL    HW164145   1.781   6.468   5.559  1.0575  2.7201  1.4468
20908SOL    HW264146   1.642   6.520   5.527  0.7526  0.7330 -0.7194
20909SOL     OW64147   7.645   8.812   3.536 -0.1160  0.2046 -0.1741
20909SOL    HW164148   7.696   8.865   3.598 -1.3761  1.9496 -0.5401
20909SOL    HW264149   7.554   8.824   3.564 -0.5707 -0.3714 -1.3446
20910SOL     OW64150   0.590   8.508   0.571 -0.8432 -0.8752 -0.0323
20910SOL    HW164151   0.544   8.588   0.547  1.0260  0.4726  0.6868
20910SOL    HW264152   0.536   8.469   0.640 -1.0914  0.4852  0.5628
20911SOL     OW64153   6.867   4.049   3.320  0.7194  0.6972 -0.6245
20911SOL    HW164154   6.807   4.099   3.264 -0.7180  0.1035  0.3343
20911SOL    HW264155   6.834   4.062   3.409  0.6668 -1.4353 -0.2798
20912SOL     OW64156   2.495   3.465   8.699 -0.1473  0.5568 -0.4917
20912SOL    HW164157   2.444   3.421   8.767 -2.4417  2.2554 -1.0096
20912SOL    HW264158   2.474   3.417   8.619  0.1692  0.4065 -0.4847
20913SOL     OW64159   8.559   0.236   9.000  0.2334  0.5885 -0.1819
20913SOL    HW164160   8.581   0.153   8.959  2.0031  1.8270 -1.9449
20913SOL    HW264161   8.465   0.230   9.018  0.6594 -2.4981  1.6174
20914SOL     OW64162   0.952   4.246   4.102 -0.1767 -0.4731  0.2994
20914SOL    HW164163   0.960   4.151   4.105 -0.8204 -0.5888 -0.8571
20914SOL    HW264164   0.954   4.267   4.008  0.2906  0.6825  0.5533
20915SOL     OW64165   3.629   0.335   2.390  0.2412  0.7242  0.4932
20915SOL    HW164166   3.616   0.410   2.331 -0.7686 -0.4328 -0.8346
20915SOL    HW264167   3.703   0.287   2.352 -1.3735 -0.8655 -0.8323
20916SOL     OW64168   2.013   5.167   3.180 -0.4731  0.3027 -0.7975
20916SOL    HW164169   2.046   5.243   3.132 -0.3144  0.8171  0.1020
20916SOL    HW264170   1.933   5.142   3.132  0.0365  0.3804 -1.7089
20917SOL     OW64171   5.275   4.916   2.313  0.4351 -0.4514 -0.0325
20917SOL    HW164172   5.224   4.954   2.384  0.2349  0.2884 -0.5679
20917SOL    HW264173   5.211   4.873   2.257  0.2784  1.0630 -1.0775
20918SOL     OW64174   9.233   8.148   2.023 -0.1672  0.5596 -0.3876
20918SOL    HW164175   9.303   8.137   1.958 -0.9486  1.4153 -1.4090
20918SOL    HW264176   9.152   8.143   1.972 -0.8338  0.6160  0.6286
20919SOL     OW64177   8.692   8.343   7.522 -0.7162 -0.3115 -0.2029
20919SOL    HW164178   8.749   8.395   7.580 -0.8613  0.6737 -0.9158
20919SOL    HW264179   8.748   8.320   7.448 -0.8862 -0.4606 -0.2856
20920SOL     OW64180   8.163   7.349   0.058  0.5406 -0.4684 -0.4961
20920SOL    HW164181   8.194   7.353   0.148  0.7143 -0.2107 -0.5658
20920SOL    HW264182   8.092   7.413   0.053  0.6365 -0.3670 -0.5804
20921SOL     OW64183   4.277   9.048   9.266  0.8012 -0.6569 -0.0679
20921SOL    HW164184   4.205   9.086   9.215 -0.9117 -1.2104  1.8110
20921SOL    HW264185   4.332   9.123   9.290 -1.0266  0.3112  1.2879
20922SOL     OW64186   7.673   5.003   2.832 -0.6462 -0.3307  0.1786
20922SOL    HW164187   7.721   4.925   2.805 -1.2813 -0.5416 -0.3651
20922SOL    HW264188   7.628   5.032   2.753 -1.3223 -0.0747  0.6496
20923SOL     OW64189   3.780   2.938   3.678  0.1266  0.6346  0.4248
20923SOL    HW164190   3.863   2.982   3.697 -0.0812  1.3343 -0.2524
20923SOL    HW264191   3.802   2.871   3.614 -0.0925  1.9509 -1.0833
20924SOL     OW64192   6.773   2.810   4.420  0.0396  0.3618 -0.7884
20924SOL    HW164193   6.835   2.883   4.419  0.7691 -0.2460 -0.5185
20924SOL    HW264194   6.804   2.752   4.489 -0.6499 -0.1142 -0.8627
20925SOL     OW64195   6.596   3.516   1.902  0.2493 -0.0965  0.8731
20925SOL    HW164196   6.593   3.450   1.833 -2.7912  1.2468 -0.4335
20925SOL    HW264197   6.519   3.499   1.955  0.6301  1.0848  1.8512
20926SOL     OW64198   0.301   6.316   7.331 -0.3604 -0.4240  0.2558
20926SOL    HW164199   0.297   6.331   7.426  1.7506  1.2702  0.1306
20926SOL    HW264200   0.232   6.372   7.296 -0.0408  0.2256  0.6580
20927SOL     OW64201   3.949   3.945   0.019  0.4158  0.8164 -0.1343
20927SOL    HW164202   3.909   3.861   0.043  0.7071  0.9552  0.8592
20927SOL    HW264203   4.043   3.931   0.030  0.4847  1.2029 -0.2074
20928SOL     OW64204   8.395   8.428   6.986  0.2937 -0.8524  0.1550
20928SOL    HW164205   8.397   8.333   6.975  3.6233 -0.8061 -0.6553
20928SOL    HW264206   8.362   8.461   6.903  0.7814 -1.2650 -0.2074
20929SOL     OW64207   3.387   4.499   9.062 -0.5032 -0.1625 -0.0332
20929SOL    HW164208   3.465   4.546   9.032 -0.8639  0.4476 -0.0295
20929SOL    HW264209   3.392   4.414   9.019 -0.9498  0.6480 -1.7931
20930SOL     OW64210   8.702   0.512   5.020  0.3268  0.5036  0.1932
20930SOL    HW164211   8.669   0.567   4.949  0.1696  0.2043  0.0291
20930SOL    HW264212   8.785   0.552   5.045  0.2996  0.7130 -0.0437
20931SOL     OW64213   9.071   8.893   0.908 -0.2304 -0.3678 -0.7465
20931SOL    HW164214   9.066   8.839   0.829  3.1545  1.8229 -2.7118
20931SOL    HW264215   9.151   8.864   0.953  1.0085  2.0181 -1.2215
20932SOL     OW64216   8.867   2.019   4.829 -0.2124 -0.0161 -0.0298
20932SOL    HW164217   8.775   1.999   4.851 -0.3705  1.4293  0.7668
20932SOL    HW264218   8.917   1.984   4.903 -0.0891 -0.9552 -0.5453
20933SOL     OW64219   1.518   0.631   1.571  0.4307  0.3451 -0.2097
20933SOL    HW164220   1.569   0.706   1.540  0.1604  0.5602 -0.1343
20933SOL    HW264221   1.481   0.592   1.492 -0.0465  0.7397 -0.1834
20934SOL     OW64222   4.499   3.432   3.062 -0.2490  0.1202 -0.2421
20934SOL    HW164223   4.583   3.447   3.106 -0.3024  0.2382 -0.1820
20934SOL    HW264224   4.522   3.425   2.969 -0.1311 -0.1754 -0.1925
20935SOL     OW64225   4.552   2.540   4.316 -0.4386  0.0999 -0.3557
20935SOL    HW164226   4.599   2.619   4.344 -1.1156  0.4776 -0.2789
20935SOL    HW264227   4.591   2.469   4.367  0.1405  0.3874 -0.3910
20936SOL     OW64228   7.086   8.724   3.977  0.1451  0.0839  0.1791
20936SOL    HW164229   7.148   8.686   3.914  1.1292  1.1508  0.4755
20936SOL    HW264230   7.004   8.677   3.960  1.3940 -2.5181  0.8845
20937SOL     OW64231   4.991   5.959   5.475  0.0585 -0.3735 -0.2456
20937SOL    HW164232   5.009   5.886   5.535  1.7556 -1.0522 -1.4940
20937SOL    HW264233   5.040   6.033   5.512 -1.1780  0.0208  0.6902
20938SOL     OW64234   1.492   7.224   6.991 -0.1674  0.3977 -0.4923
20938SOL    HW164235   1.582   7.248   7.014 -0.4169  0.4439  0.4915
20938SOL    HW264236   1.444   7.232   7.073 -1.5174  2.3494 -1.4121
20939SOL     OW64237   5.968   8.514   3.935  0.1678  0.0597 -0.1722
20939SOL    HW164238   5.919   8.585   3.978  1.3836  0.0953  1.2299
20939SOL    HW264239   5.902   8.449   3.914 -0.8830  1.3002 -0.8814
20940SOL     OW64240   7.403   5.842   3.817 -0.1908 -0.8542 -0.4017
20940SOL    HW164241   7.397   5.911   3.884 -0.8476  0.1284 -1.4329
20940SOL    HW264242   7.494   5.814   3.820  0.1312  0.1595 -0.0351
20941SOL     OW64243   7.906   6.293   4.407  0.2983  0.8895  0.0615
20941SOL    HW164244   7.829   6.349   4.395 -2.9642 -3.4530 -2.2094
20941SOL    HW264245   7.934   6.310   4.497 -1.5627  4.6178  0.1269
20942SOL     OW64246   2.954   1.572   3.594 -0.0321  0.4319 -0.1700
20942SOL    HW164247   2.860   1.585   3.580 -0.3585 -0.3213  1.1567
20942SOL    HW264248   2.966   1.477   3.590  0.3574  0.3881  1.3459
20943SOL     OW64249   6.430   0.338   2.178  0.0583  0.0764  0.0064
20943SOL    HW164250   6.469   0.251   2.170  1.1767  0.3569  1.8478
20943SOL    HW264251   6.336   0.321   2.190 -0.1218 -0.7171 -2.1646
20944SOL     OW64252   5.722   4.877   2.952  0.0906  0.0026  0.9042
20944SOL    HW164253   5.746   4.865   2.861  0.0256  0.1000  0.8738
20944SOL    HW264254   5.779   4.817   3.000  0.0105 -0.1668  0.7869
20945SOL     OW64255   0.873   6.383   6.695 -0.3787 -0.0784  0.1345
20945SOL    HW164256   0.904   6.311   6.750  1.3754 -0.4774 -1.2947
20945SOL    HW264257   0.937   6.390   6.625 -2.1148  0.9178 -1.4600
20946SOL     OW64258   4.036   1.280   4.125 -0.5073  0.2429 -0.1089
20946SOL    HW164259   4.044   1.211   4.190  0.8874  0.2131 -0.2944
20946SOL    HW264260   3.996   1.353   4.173 -3.0907 -0.9861 -0.1828
20947SOL     OW64261   8.589   7.844   8.897 -0.0441  0.4501  0.8750
20947SOL    HW164262   8.684   7.843   8.903 -0.1084  0.7471  2.9707
20947SOL    HW264263   8.565   7.755   8.870  0.8309  0.4879 -0.0421
20948SOL     OW64264   6.293   1.649   4.748  0.4568  0.1744  0.1353
20948SOL    HW164265   6.267   1.557   4.758  0.3057  0.1627 -0.3365
20948SOL    HW264266   6.323   1.656   4.658  1.4289  0.3620  0.4579
20949SOL     OW64267   1.010   3.073   3.430 -0.0101 -0.3782 -0.2772
20949SOL    HW164268   0.921   3.069   3.393 -0.2152 -0.3155  0.1954
20949SOL    HW264269   1.002   3.029   3.515 -0.2506  1.9657  1.0063
20950SOL     OW64270   2.073   2.868   6.195  0.4085 -0.3456  0.2804
20950SOL    HW164271   2.144   2.811   6.163  0.8317  0.2131  0.2044
20950SOL    HW264272   1.996   2.840   6.146  0.6984 -0.6019 -0.0351
20951SOL     OW64273   0.218   9.268   2.388 -0.9657 -0.7134 -0.3081
20951SOL    HW164274   0.198   9.258   2.481  1.5590 -0.6633  0.2956
20951SOL    HW264275   0.203   9.181   2.350 -0.8440 -1.0334  0.3793
20952SOL     OW64276   4.170   1.054   7.975  0.0112  0.4918  0.1863
20952SOL    HW164277   4.217   1.028   7.895  0.7234  0.4373  0.6187
20952SOL    HW264278   4.132   0.973   8.009 -2.2900  0.8294 -1.3326
20953SOL     OW64279   4.407   8.135   4.477 -0.2350 -0.0034  0.0578
20953SOL    HW164280   4.487   8.164   4.521  2.0419 -2.0594 -2.3852
20953SOL    HW264281   4.352   8.099   4.547  0.9613  1.4067  1.7976
20954SOL     OW64282   3.670   0.742   7.515 -0.0897 -0.2057 -0.5003
20954SOL    HW164283   3.731   0.742   7.589  0.2844 -0.4340 -0.8040
20954SOL    HW264284   3.601   0.803   7.540  0.6492  0.6346 -0.4626
20955SOL     OW64285   5.717   7.593   2.338  0.0125 -0.6106 -0.4560
20955SOL    HW164286   5.685   7.633   2.258  0.1071  1.7539  0.6077
20955SOL    HW264287   5.660   7.627   2.407  0.1526 -2.2955  0.5501
20956SOL     OW64288   7.498   2.130   2.181  0.2083  0.2884  0.2102
20956SOL    HW164289   7.474   2.222   2.186  3.3188  1.1962  0.4466
20956SOL    HW264290   7.526   2.117   2.090 -1.5131 -0.8314 -0.1976
20957SOL     OW64291   7.669   4.518   2.233  0.2095 -0.1812 -0.0372
20957SOL    HW164292   7.577   4.512   2.206 -0.2786  0.1270  1.4811
20957SOL    HW264293   7.676   4.455   2.305  0.8329  0.7966  0.7708
20958SOL     OW64294   4.966   0.990   8.302 -0.8118  0.1526 -0.3792
20958SOL    HW164295   4.969   1.042   8.222 -0.1216 -0.7039 -0.9330
20958SOL    HW264296   5.042   1.018   8.352 -0.7803  0.1130 -0.4048
20959SOL     OW64297   8.533   3.569   2.419 -0.1404  0.2789 -0.0336
20959SOL    HW164298   8.544   3.556   2.513 -2.7582 -2.2135  0.0641
20959SOL    HW264299   8.470   3.640   2.412  0.3407  0.7241  0.0406
20960SOL     OW64300   8.853   3.926   6.190 -0.2998  0.5154  0.6068
20960SOL    HW164301   8.915   3.855   6.177 -1.2040  0.1098 -1.9054
20960SOL    HW264302   8.908   4.001   6.213  0.7714 -0.6116  1.9233
20961SOL     OW64303   2.255   0.583   2.606  0.0172 -0.1134 -0.2616
20961SOL    HW164304   2.162   0.598   2.626  0.0006  2.1249 -1.7571
20961SOL    HW264305   2.254   0.531   2.526  0.0231  0.7562 -0.8378
20962SOL     OW64306   4.515   0.707   3.235  0.3972 -0.3123 -0.4115
20962SOL    HW164307   4.531   0.802   3.237 -1.7746  0.1346 -1.2002
20962SOL    HW264308   4.530   0.681   3.144 -2.2457  0.0116 -1.0387
20963SOL     OW64309   5.755   1.573   1.757  0.2579 -0.0653  0.4017
20963SOL    HW164310   5.836   1.563   1.707  0.7046  2.3649  0.5069
20963SOL    HW264311   5.697   1.623   1.699 -0.4376 -0.0852  1.0636
20964SOL     OW64312   0.323   7.255   0.964  0.0088 -0.0758 -0.7304
20964SOL    HW164313   0.250   7.315   0.951  0.6780  0.6128 -1.4388
20964SOL    HW264314   0.377   7.296   1.031  0.0190 -0.3153 -0.5909
20965SOL     OW64315   2.299   2.919   4.747  0.0565  0.0050  0.3761
20965SOL    HW164316   2.311   2.937   4.654  0.7824  0.0937  0.4814
20965SOL    HW264317   2.340   2.834   4.760 -1.0268 -0.5262  0.4028
20966SOL     OW64318   6.894   0.432   8.283  0.0326 -0.0762  0.1484
20966SOL    HW164319   6.808   0.471   8.298 -0.1128 -0.8002  1.3650
20966SOL    HW264320   6.879   0.337   8.287  0.6789 -0.2463 -0.9253
20967SOL     OW64321   3.391   3.527   1.702  0.1996 -0.0783 -0.6143
20967SOL    HW164322   3.374   3.568   1.616 -0.8593  0.6032 -0.1015
20967SOL    HW264323   3.309   3.539   1.750  1.8377  2.8061  1.7886
20968SOL     OW64324   0.349   2.888   7.929 -0.2502  0.2169 -0.1343
20968SOL    HW164325   0.387   2.800   7.931 -2.0497 -0.6302 -0.6239
20968SOL    HW264326   0.396   2.933   7.859 -0.1067 -0.7578 -0.6927
20969SOL     OW64327   6.900   2.847   2.600 -0.1586  0.4526 -0.0067
20969SOL    HW164328   6.948   2.813   2.525  0.6044  0.0268  0.6558
20969SOL    HW264329   6.864   2.769   2.643  1.9614  0.3459  1.7661
20970SOL     OW64330   6.116   0.089   8.244  0.6947  1.0251 -0.1052
20970SOL    HW164331   6.127   0.184   8.251  0.9023  1.0300 -0.4651
20970SOL    HW264332   6.206   0.056   8.238  0.6013  0.8732 -0.7744
20971SOL     OW64333   0.803   4.910   7.664  0.1254 -0.0630 -0.3345
20971SOL    HW164334   0.780   4.823   7.630  3.4191 -1.2636  0.0971
20971SOL    HW264335   0.785   4.905   7.757  1.1671 -0.6591 -0.1512
20972SOL     OW64336   4.313   8.457   1.775 -0.8319 -0.4732  0.3192
20972SOL    HW164337   4.236   8.489   1.728  1.2254  2.7903 -1.2398
20972SOL    HW264338   4.319   8.514   1.852  0.1509 -0.5065  0.2766
20973SOL     OW64339   5.854   2.688   7.917 -0.2270  0.1200  0.4989
20973SOL    HW164340   5.908   2.673   7.995 -1.0386  0.1084  1.0834
20973SOL    HW264341   5.764   2.677   7.949 -0.5351 -1.2535 -0.7380
20974SOL     OW64342   1.220   5.926   1.651 -0.7529  0.2782  0.5116
20974SOL    HW164343   1.157   5.876   1.704  0.3616 -2.8210 -0.8605
20974SOL    HW264344   1.260   5.861   1.594  2.4911  2.4124  0.1108
20975SOL     OW64345   5.875   7.382   5.906  0.5956  0.6094  0.1519
20975SOL    HW164346   5.782   7.388   5.926  0.4229  0.5964 -0.6171
20975SOL    HW264347   5.889   7.289   5.884  0.7315  0.6689 -0.0161
20976SOL     OW64348   3.075   8.250   1.467  0.0996  0.1545 -0.1191
20976SOL    HW164349   3.129   8.224   1.542 -0.0131 -1.1834 -0.4746
20976SOL    HW264350   2.991   8.274   1.505 -0.0049 -0.6641  0.1813
20977SOL     OW64351   0.404   6.151   2.894 -0.1708  0.4193 -0.2119
20977SOL    HW164352   0.449   6.202   2.826 -0.7734  2.2666  0.7035
20977SOL    HW264353   0.337   6.102   2.847 -0.7195  1.8324 -0.9526
20978SOL     OW64354   8.596   2.695   3.427  0.1318 -0.3854 -0.1160
20978SOL    HW164355   8.628   2.784   3.443  0.0034 -0.4431  0.5121
20978SOL    HW264356   8.675   2.641   3.421  0.1932 -0.4668  1.0478
20979SOL     OW64357   5.411   5.214   0.237 -0.1497 -0.6125 -0.1429
20979SOL    HW164358   5.475   5.188   0.170 -1.0434 -1.1068 -0.8278
20979SOL    HW264359   5.372   5.132   0.267  1.1295 -0.5246  1.9596
20980SOL     OW64360   7.303   8.792   2.802 -0.5834 -0.3880  0.5024
20980SOL    HW164361   7.347   8.741   2.735 -0.5391 -1.2643  1.1807
20980SOL    HW264362   7.323   8.747   2.884 -0.3902  0.8240  1.1493
20981SOL     OW64363   1.594   7.353   3.360  0.1210  0.2496  0.2251
20981SOL    HW164364   1.604   7.434   3.309  1.6348 -0.4074 -0.5814
20981SOL    HW264365   1.523   7.306   3.315 -1.9725  1.8137  1.7087
20982SOL     OW64366   8.635   1.464   4.171  0.1637 -0.5326  0.1433
20982SOL    HW164367   8.725   1.470   4.204  0.3867  0.9596 -0.6525
20982SOL    HW264368   8.596   1.548   4.194 -0.2834 -0.2312 -1.6230
20983SOL     OW64369   2.068   0.701   7.951 -0.0383  0.3183  0.3361
20983SOL    HW164370   2.002   0.770   7.957 -1.3224 -0.8487  0.0063
20983SOL    HW264371   2.024   0.629   7.906  0.9395 -1.1024  1.5545
20984SOL     OW64372   1.164   4.761   8.048 -0.1209 -0.4717  0.7066
20984SOL    HW164373   1.243   4.812   8.032 -0.9702  0.3204 -1.2428
20984SOL    HW264374   1.092   4.824   8.036 -1.1193 -1.6083  0.5380
20985SOL     OW64375   2.833   4.634   3.379 -0.1603  0.3544  0.7526
20985SOL    HW164376   2.747   4.632   3.421  0.2714 -2.3787  1.6911
20985SOL    HW264377   2.841   4.549   3.336  2.4809  0.0670  1.6131
20986SOL     OW64378   6.128   3.281   2.401  0.3772 -0.1788 -0.2933
20986SOL    HW164379   6.058   3.282   2.467 -0.1561 -0.3662 -0.8413
20986SOL    HW264380   6.181   3.205   2.424 -0.6225 -1.0968 -0.8836
20987SOL     OW64381   8.686   6.703   8.576 -0.0700 -0.2268  0.8879
20987SOL    HW164382   8.728   6.785   8.602 -0.5918  1.2171 -2.3373
20987SOL    HW264383   8.751   6.636   8.595  1.1083  1.1543  1.9431
20988SOL     OW64384   3.201   3.160   4.817  0.2435  0.1123  0.1214
20988SOL    HW164385   3.132   3.225   4.802 -1.8389 -2.0163 -0.1449
20988SOL    HW264386   3.189   3.095   4.747  0.5219 -1.8865  1.8214
20989SOL     OW64387   8.585   3.880   6.574  0.6481 -0.9171  0.3271
20989SOL    HW164388   8.544   3.905   6.491  0.8873  0.3524  0.5738
20989SOL    HW264389   8.675   3.858   6.550  0.5133 -1.2881  0.1498
20990SOL     OW64390   2.383   4.837   5.657 -0.2899  0.2389 -0.3658
20990SOL    HW164391   2.294   4.805   5.669 -0.4172  0.5393 -0.4970
20990SOL    HW264392   2.385   4.921   5.703 -0.1623  0.3758 -0.6190
20991SOL     OW64393   4.938   2.127   1.892  0.1050 -0.1400 -0.2930
20991SOL    HW164394   4.853   2.106   1.930  0.4778 -2.6406 -0.6476
20991SOL    HW264395   4.986   2.173   1.961 -0.7353 -0.7471  0.7092
20992SOL     OW64396   0.571   8.427   8.157  0.3958 -0.0705 -0.1729
20992SOL    HW164397   0.558   8.439   8.252 -0.0116 -1.1614 -0.0791
20992SOL    HW264398   0.519   8.497   8.117 -0.9268 -0.6973  0.3802
20993SOL     OW64399   8.545   0.142   5.884 -0.1393 -0.4276 -0.1896
20993SOL    HW164400   8.541   0.212   5.949 -2.4056 -1.5835  1.0210
20993SOL    HW264401   8.580   0.066   5.932  0.9801 -0.5458 -1.1320
20994SOL     OW64402   7.482   3.436   2.602  0.6356 -0.2908  0.2991
20994SOL    HW164403   7.562   3.388   2.576  1.0400  0.1193  0.7688
20994SOL    HW264404   7.514   3.508   2.656 -0.2202 -1.4545  2.4596
20995SOL     OW64405   3.494   2.629   6.702  0.4003  0.5753 -0.3686
20995SOL    HW164406   3.424   2.563   6.711  1.0442  0.0027  0.7829
20995SOL    HW264407   3.559   2.602   6.767  0.9691  2.0078 -0.3201
20996SOL     OW64408   3.287   4.657   5.113  0.8426 -0.1386  0.2412
20996SOL    HW164409   3.213   4.627   5.060  2.2866  0.8011 -2.4511
20996SOL    HW264410   3.258   4.644   5.204 -2.8938  0.8692 -0.6602
20997SOL     OW64411   7.576   8.175   6.047  0.1388  0.3136  0.6425
20997SOL    HW164412   7.628   8.249   6.015 -0.8397  1.4785  1.6659
20997SOL    HW264413   7.490   8.211   6.064 -1.0658 -1.5828 -0.9923
20998SOL     OW64414   9.172   0.155   5.162 -0.9816 -0.1543 -0.2174
20998SOL    HW164415   9.106   0.220   5.186  1.2179  1.5189  1.8178
20998SOL    HW264416   9.191   0.109   5.244  4.2008  3.2703  1.0232
20999SOL     OW64417   7.253   7.409   2.655 -0.5012 -0.2002  0.2199
20999SOL    HW164418   7.335   7.422   2.607 -0.6215 -1.5617 -0.3896
20999SOL    HW264419   7.252   7.479   2.721  1.8794 -1.1008  1.2871
21000SOL     OW64420   7.039   3.805   0.585  0.0920  0.4259 -0.4591
21000SOL    HW164421   6.984   3.757   0.646  1.4583  0.5623  0.9325
21000SOL    HW264422   7.078   3.875   0.637 -1.2134  2.6084 -2.2503
21001SOL     OW64423   5.090   7.217   2.431 -0.3883  0.5342 -0.3078
21001SOL    HW164424   5.075   7.142   2.490  0.1848 -0.6704 -1.6343
21001SOL    HW264425   5.074   7.182   2.344  2.8031  1.0772 -1.2352
21002SOL     OW64426   4.163   2.005   0.833  0.1669  0.0037 -0.0111
21002SOL    HW164427   4.167   1.945   0.907 -0.0944  0.0632  0.0526
21002SOL    HW264428   4.160   1.947   0.756 -0.3547 -0.0719  0.0631
21003SOL     OW64429   3.778   5.017   1.296  0.2526 -0.0749  0.4853
21003SOL    HW164430   3.770   5.103   1.336  0.5741  0.6071 -0.8285
21003SOL    HW264431   3.862   4.983   1.329  1.7313  1.5064 -1.3557
21004SOL     OW64432   3.723   6.373   9.266  0.4485 -0.2704 -0.6677
21004SOL    HW164433   3.766   6.417   9.193  1.0502 -0.7944 -0.6333
21004SOL    HW264434   3.712   6.442   9.332  0.5027  0.0481 -0.9901
21005SOL     OW64435   6.416   1.111   3.652 -0.0953  0.1296  0.3928
21005SOL    HW164436   6.355   1.088   3.581 -0.5641  1.3501  0.3595
21005SOL    HW264437   6.365   1.098   3.732 -0.6328  1.6467  0.3447
21006SOL     OW64438   2.991   8.365   4.412  0.1363  0.2006  0.2386
21006SOL    HW164439   3.012   8.273   4.430  1.0326  0.1280 -1.0233
21006SOL    HW264440   2.984   8.405   4.498  2.0864 -0.5653  0.8144
21007SOL     OW64441   8.225   8.912   0.022 -0.2938  0.3345 -0.3872
21007SOL    HW164442   8.238   8.992   0.072  0.1770  0.3265 -0.4938
21007SOL    HW264443   8.130   8.901   0.018 -0.3596 -0.3236  1.5834
21008SOL     OW64444   3.988   5.715   4.936  0.0470 -0.5482  0.1269
21008SOL    HW164445   3.946   5.799   4.957 -1.4783 -0.8793 -1.3258
21008SOL    HW264446   4.082   5.733   4.940 -0.1880  0.4425  2.7129
21009SOL     OW64447   0.859   2.355   2.015  0.5513  0.1518 -0.4513
21009SOL    HW164448   0.894   2.348   1.926  2.9863  0.4493  0.3985
21009SOL    HW264449   0.847   2.264   2.043 -0.1468  0.0559 -1.0422
21010SOL     OW64450   0.394   7.298   6.097 -0.2339 -0.5560 -0.3582
21010SOL    HW164451   0.339   7.376   6.090 -1.1770 -1.2873 -1.4651
21010SOL    HW264452   0.394   7.276   6.190 -1.6185 -0.3926 -0.3062
21011SOL     OW64453   1.985   8.427   8.895 -0.0005  0.1766  0.1016
21011SOL    HW164454   2.014   8.454   8.807  0.1028  2.0366  0.6605
21011SOL    HW264455   2.050   8.362   8.923  0.6916  0.5017 -0.6925
21012SOL     OW64456   9.193   2.905   1.903  0.2376  0.1756  0.1016
21012SOL    HW164457   9.251   2.884   1.830  0.2386  1.6545 -0.3622
21012SOL    HW264458   9.106   2.882   1.871  0.1902  1.1809 -0.5406
21013SOL     OW64459   4.665   0.484   2.423 -0.3274  0.1652 -0.2082
21013SOL    HW164460   4.737   0.547   2.430 -0.7431  0.6386 -0.1109
21013SOL    HW264461   4.702   0.402   2.456  1.0154 -0.3336 -2.7502
21014SOL     OW64462   4.698   8.247   2.420 -0.3429  0.0420  0.1274
21014SOL    HW164463   4.724   8.305   2.492  2.9495  0.2755 -1.0739
21014SOL    HW264464   4.604   8.261   2.410 -0.5855  1.3262  3.1661
21015SOL     OW64465   1.031   8.389   1.149 -0.0314  0.4069 -0.2067
21015SOL    HW164466   1.046   8.318   1.212 -1.5672  0.0859 -0.1778
21015SOL    HW264467   1.111   8.390   1.096  0.4469 -0.6525  0.4457
21016SOL     OW64468   4.181   5.925   9.010 -0.0744 -0.1332 -0.0405
21016SOL    HW164469   4.272   5.916   9.039 -0.2211 -1.0477  0.1772
21016SOL    HW264470   4.132   5.864   9.066 -0.5997 -0.7752 -1.1660
21017SOL     OW64471   5.211   5.190   0.525  0.3295 -0.0084  0.3803
21017SOL    HW164472   5.247   5.129   0.461  0.8468 -0.0607  0.7167
21017SOL    HW264473   5.251   5.274   0.504 -2.1472  0.7890 -1.5793
21018SOL     OW64474   7.906   0.510   1.064  0.1236  0.1370 -0.2263
21018SOL    HW164475   7.867   0.589   1.029  1.8057  0.8160 -0.6890
21018SOL    HW264476   7.840   0.442   1.051 -0.8799  1.2101 -0.9295
21019SOL     OW64477   0.267   9.005   2.326  0.3809  0.2087 -0.7192
21019SOL    HW164478   0.312   8.968   2.250  1.6342 -0.3552  0.2514
21019SOL    HW264479   0.286   8.943   2.397 -0.6423  0.7873  0.0876
21020SOL     OW64480   1.762   7.078   9.016  0.3836 -0.1056 -0.0550
21020SOL    HW164481   1.807   7.076   8.932 -0.1080  0.9623 -0.3608
21020SOL    HW264482   1.798   7.004   9.065  0.0904 -1.2288 -1.4956
21021SOL     OW64483   6.567   0.203   6.324 -0.1618 -1.1274  0.2911
21021SOL    HW164484   6.597   0.235   6.238  1.5512 -2.1918  0.4533
21021SOL    HW264485   6.594   0.112   6.327 -0.3131 -1.1519  1.9295
21022SOL     OW64486   5.332   7.086   3.114 -0.8902  0.0307  0.5199
21022SOL    HW164487   5.272   7.155   3.143  2.2867  3.3490 -0.1185
21022SOL    HW264488   5.403   7.088   3.178 -0.1815 -2.0184 -0.1287
21023SOL     OW64489   5.165   6.594   8.271  0.4447 -0.4680 -0.0548
21023SOL    HW164490   5.218   6.664   8.233 -1.3873  1.1026  0.1300
21023SOL    HW264491   5.187   6.517   8.219  0.1308  0.9672 -2.4731
21024SOL     OW64492   4.059   9.000   1.372 -0.0626 -0.1495  0.5840
21024SOL    HW164493   4.127   9.032   1.431 -0.4561  0.7746  0.5606
21024SOL    HW264494   4.107   8.964   1.298  0.4164  1.7858 -0.1047
21025SOL     OW64495   5.941   8.860   6.839  0.2630  0.0668 -0.0349
21025SOL    HW164496   5.988   8.780   6.816 -1.3648 -1.6023  2.0490
21025SOL    HW264497   5.850   8.842   6.819 -0.8175 -0.3665  4.1662
21026SOL     OW64498   3.687   1.063   7.475 -0.2999  0.1528 -0.1368
21026SOL    HW164499   3.621   1.006   7.515  0.1408 -1.0723 -1.0911
21026SOL    HW264500   3.641   1.145   7.460 -0.5012  0.7062  2.8180
21027SOL     OW64501   7.157   8.658   4.241 -0.2793  0.2688 -0.4834
21027SOL    HW164502   7.077   8.635   4.289  0.2563 -0.0497  0.2767
21027SOL    HW264503   7.126   8.693   4.157 -1.2004 -0.2733 -0.3783
21028SOL     OW64504   6.187   7.093   3.664 -0.2575 -0.6579 -0.3907
21028SOL    HW164505   6.261   7.072   3.722  0.1050  1.0291 -0.1906
21028SOL    HW264506   6.111   7.093   3.722 -0.4845 -2.6502 -0.6436
21029SOL     OW64507   1.158   0.331   9.233  0.2085  0.0391 -0.2323
21029SOL    HW164508   1.102   0.408   9.245 -0.8500 -0.7736  0.2561
21029SOL    HW264509   1.110   0.276   9.171 -0.0540 -1.1435  0.9838
21030SOL     OW64510   8.192   1.716   2.363 -0.3607  0.4303 -0.2548
21030SOL    HW164511   8.150   1.637   2.330 -0.6774  0.6565 -0.4009
21030SOL    HW264512   8.285   1.700   2.353 -0.4554  0.5690 -1.4411
21031SOL     OW64513   3.833   6.204   1.779  0.2550 -0.0394 -0.5934
21031SOL    HW164514   3.830   6.140   1.708  0.8229  0.7761 -1.3706
21031SOL    HW264515   3.894   6.167   1.843 -0.3783 -0.8482 -0.4455
21032SOL     OW64516   4.552   5.758   6.867 -0.1855 -0.0058 -0.3553
21032SOL    HW164517   4.611   5.711   6.810  0.3374 -0.4196  0.5034
21032SOL    HW264518   4.560   5.714   6.952 -1.5766  0.0521 -0.1702
21033SOL     OW64519   0.927   1.978   1.720  0.0089 -0.4444  0.0633
21033SOL    HW164520   0.921   1.938   1.633 -0.5444 -1.7205  0.6570
21033SOL    HW264521   1.011   1.946   1.755 -0.0494 -0.4238  0.2241
21034SOL     OW64522   9.122   8.540   8.660  0.4189  0.1391 -0.0233
21034SOL    HW164523   9.098   8.470   8.599 -1.7587 -0.0878  0.9994
21034SOL    HW264524   9.214   8.557   8.641  0.9312 -2.7031 -0.6015
21035SOL     OW64525   1.347   1.541   1.452  0.0932 -0.0500 -0.7150
21035SOL    HW164526   1.275   1.604   1.450 -1.9358 -2.2250 -1.2166
21035SOL    HW264527   1.381   1.545   1.541  0.5837  2.2673 -0.9547
21036SOL     OW64528   4.655   0.916   8.433  0.4564 -0.2753 -0.1789
21036SOL    HW164529   4.722   0.944   8.371  0.1329 -2.6324 -1.7236
21036SOL    HW264530   4.704   0.894   8.513  1.2950 -0.1351 -0.6439
21037SOL     OW64531   0.832   4.920   5.445 -0.1144  0.5485  0.5121
21037SOL    HW164532   0.775   4.975   5.393 -0.6553 -0.3869  0.0941
21037SOL    HW264533   0.788   4.913   5.530  0.6807  1.9291  1.0684
21038SOL     OW64534   1.692   4.447   2.822  0.4976  0.4133  0.2149
21038SOL    HW164535   1.609   4.413   2.856  0.3111  0.0923 -0.5407
21038SOL    HW264536   1.732   4.372   2.778  0.1736  1.0854 -1.2995
21039SOL     OW64537   0.123   3.344   5.961  0.4943 -0.5684 -0.2216
21039SOL    HW164538   0.178   3.418   5.938 -0.2670 -0.6808 -2.7171
21039SOL    HW264539   0.172   3.267   5.933 -0.1807 -0.7666 -0.9144
21040SOL     OW64540   4.300   8.819   9.018  0.6367 -0.0127  0.2665
21040SOL    HW164541   4.249   8.765   9.079 -0.5100  1.4813  0.6945
21040SOL    HW264542   4.268   8.908   9.033  1.4573  0.5974 -1.4238
21041SOL     OW64543   7.898   3.249   1.883  0.0992  0.2502 -0.5199
21041SOL    HW164544   7.896   3.330   1.832  1.0345 -0.8861 -2.4940
21041SOL    HW264545   7.817   3.203   1.860 -0.4293  0.5869  0.5903
21042SOL     OW64546   5.420   7.739   7.150 -0.4211  0.2546  0.3529
21042SOL    HW164547   5.406   7.693   7.233  0.4720  0.3403  0.5580
21042SOL    HW264548   5.429   7.831   7.175 -0.5849  0.3356  0.1120
21043SOL     OW64549   0.068   7.142   2.383  0.3652  0.1200  0.2012
21043SOL    HW164550   0.002   7.211   2.390 -0.3657 -0.3564 -1.5361
21043SOL    HW264551   0.026   7.065   2.421  0.1769  0.0039 -0.2296
21044SOL     OW64552   4.914   6.390   8.771 -0.6182 -0.5645 -0.0619
21044SOL    HW164553   4.949   6.301   8.768 -1.8137 -1.1263  1.3846
21044SOL    HW264554   4.885   6.401   8.862  0.8503  1.8552  0.1987
21045SOL     OW64555   2.492   2.350   1.687 -0.2936  0.1874  0.5990
21045SOL    HW164556   2.473   2.429   1.637 -2.7368 -0.8621 -0.2834
21045SOL    HW264557   2.464   2.370   1.776  0.0315  0.6515  0.5949
21046SOL     OW64558   8.050   6.314   7.375  0.6593  0.1207 -0.5795
21046SOL    HW164559   8.007   6.233   7.349  0.4154  0.5134 -1.4797
21046SOL    HW264560   8.089   6.296   7.460 -0.6718 -0.4709 -0.0780
21047SOL     OW64561   7.198   7.579   4.489  0.4365  1.0139 -0.4921
21047SOL    HW164562   7.115   7.571   4.441  1.2106 -1.4673 -1.5768
21047SOL    HW264563   7.224   7.671   4.477 -2.6617  2.2193  0.8883
21048SOL     OW64564   4.856   9.100   4.953 -0.0365  0.1476  0.3021
21048SOL    HW164565   4.926   9.036   4.937 -1.0639 -1.0032  0.3019
21048SOL    HW264566   4.893   9.183   4.923  0.9059 -0.6347 -0.8114
21049SOL     OW64567   8.439   7.397   4.125 -0.6484 -0.2015  0.2268
21049SOL    HW164568   8.394   7.470   4.084  0.5656  0.9060  0.7634
21049SOL    HW264569   8.427   7.411   4.219  0.4042 -0.1200  0.3663
21050SOL     OW64570   8.900   0.396   4.042 -0.5753 -0.5056  0.0994
21050SOL    HW164571   8.829   0.355   3.992 -1.4235  0.1479  0.7509
21050SOL    HW264572   8.884   0.490   4.034  0.3902 -0.3335  0.0221
21051SOL     OW64573   2.567   3.980   8.151  0.0306 -0.1937  0.3891
21051SOL    HW164574   2.568   3.884   8.145  1.2991 -0.1163 -2.2803
21051SOL    HW264575   2.566   3.998   8.245 -0.1366 -2.8228  0.9739
21052SOL     OW64576   3.723   7.349   9.233  0.2977 -0.4194 -0.7233
21052SOL    HW164577   3.793   7.284   9.243  0.9260  0.3385 -0.1232
21052SOL    HW264578   3.724   7.371   9.140  0.8828 -0.3787 -0.7070
21053SOL     OW64579   6.351   6.682   2.059 -0.6003  0.1791  0.7754
21053SOL    HW164580   6.374   6.589   2.059 -1.0307  0.0689  0.6816
21053SOL    HW264581   6.315   6.698   2.147 -2.9873 -0.3860 -0.0160
21054SOL     OW64582   1.367   5.804   3.993 -0.1588  0.3532 -0.0810
21054SOL    HW164583   1.342   5.844   3.910  0.2052 -0.1968 -0.4591
21054SOL    HW264584   1.304   5.733   4.006  1.4900 -1.4364 -1.3411
21055SOL     OW64585   1.061   2.882   2.726 -0.0037 -0.4783  0.2747
21055SOL    HW164586   1.010   2.946   2.776  0.8297  0.2734  0.1885
21055SOL    HW264587   1.140   2.929   2.700 -0.5159 -0.7542 -2.0022
21056SOL     OW64588   7.438   2.375   1.797  0.1396  0.1959 -0.1119
21056SOL    HW164589   7.511   2.427   1.761  0.7079  1.5817  2.7767
21056SOL    HW264590   7.460   2.285   1.775  3.1903  0.4813  1.2705
21057SOL     OW64591   4.422   5.463   3.904  0.0671  0.1458 -0.6350
21057SOL    HW164592   4.379   5.378   3.904  0.9708 -0.3393  0.3173
21057SOL    HW264593   4.366   5.518   3.849 -0.4723 -1.0778 -1.3614
21058SOL     OW64594   5.625   4.176   5.264  0.3318  0.5630  0.1636
21058SOL    HW164595   5.578   4.166   5.347  1.6530 -0.9217  0.7806
21058SOL    HW264596   5.619   4.090   5.223  1.8739  0.5402 -0.0640
21059SOL     OW64597   0.108   6.918   7.254 -0.1632  0.1504 -1.0740
21059SOL    HW164598   0.050   6.855   7.212 -0.0167 -0.1552 -0.8270
21059SOL    HW264599   0.086   7.002   7.214 -0.4270 -0.0427 -1.3378
21060SOL     OW64600   5.347   8.764   2.107  0.2298 -0.6971  0.8254
21060SOL    HW164601   5.404   8.712   2.050  1.3032  1.8260 -0.5880
21060SOL    HW264602   5.262   8.763   2.063  0.0726 -1.7492  1.1462
21061SOL     OW64603   6.325   5.071   4.257 -0.6773 -0.4202  0.5318
21061SOL    HW164604   6.377   5.133   4.205  0.2111 -1.8264 -0.3445
21061SOL    HW264605   6.335   5.100   4.347  0.7491  0.0135  0.2667
21062SOL     OW64606   8.127   1.130   0.661 -0.1256  0.2297  0.2760
21062SOL    HW164607   8.172   1.091   0.586  0.1973 -2.0878  1.6128
21062SOL    HW264608   8.196   1.149   0.724 -0.6637 -0.4739  1.1044
21063SOL     OW64609   2.262   3.294   8.617 -0.3166  0.3850  0.0909
21063SOL    HW164610   2.216   3.376   8.598  0.8104  0.7116 -1.4240
21063SOL    HW264611   2.195   3.226   8.608 -1.0716  1.0590  0.5179
21064SOL     OW64612   6.681   8.055   3.276  0.0540  0.8393  0.0081
21064SOL    HW164613   6.657   7.964   3.259 -0.0782  0.8680  0.0470
21064SOL    HW264614   6.611   8.090   3.331  1.6373  0.0721  2.6973
21065SOL     OW64615   1.295   0.079   7.292  0.4049 -0.1978 -0.3422
21065SOL    HW164616   1.213   0.126   7.308  1.5926  2.6251 -1.8286
21065SOL    HW264617   1.270   0.008   7.232 -0.9666  0.5196 -0.6599
21066SOL     OW64618   3.260   1.160   3.425  0.0672 -0.5076 -0.3789
21066SOL    HW164619   3.207   1.106   3.367 -0.9950 -0.0044  0.0987
21066SOL    HW264620   3.327   1.198   3.368 -0.4981 -0.6165 -1.1242
21067SOL     OW64621   6.570   8.677   4.056 -0.8653  1.1200 -0.3370
21067SOL    HW164622   6.547   8.698   3.965 -0.3110 -0.4759 -0.8766
21067SOL    HW264623   6.486   8.659   4.099 -0.9955 -0.3772 -1.1561
21068SOL     OW64624   1.278   2.514   0.950 -1.1093 -0.0504  1.0056
21068SOL    HW164625   1.189   2.480   0.942 -0.3565 -1.8437 -0.5947
21068SOL    HW264626   1.323   2.451   1.006  0.2126 -1.6790 -1.7037
21069SOL     OW64627   8.467   1.091   7.915 -0.5474  0.3566 -0.1418
21069SOL    HW164628   8.376   1.122   7.921 -0.8104 -0.2401 -0.8619
21069SOL    HW264629   8.464   1.022   7.848  0.8620  2.0036 -2.0376
21070SOL     OW64630   9.188   6.538   2.299 -0.3674  0.0153  0.3629
21070SOL    HW164631   9.159   6.627   2.281 -0.4958  0.1878  1.3307
21070SOL    HW264632   9.192   6.496   2.214  0.5239  1.1915 -0.2068
21071SOL     OW64633   8.331   4.766   6.964  0.2068 -0.4540 -0.0617
21071SOL    HW164634   8.248   4.793   6.926  0.6157  1.0914  0.0763
21071SOL    HW264635   8.367   4.702   6.902 -0.1412  0.3889 -1.1525
21072SOL     OW64636   0.880   4.182   3.524  0.4435 -1.0259  0.3196
21072SOL    HW164637   0.842   4.262   3.488 -2.3911 -2.1370  0.5614
21072SOL    HW264638   0.836   4.171   3.609  0.5676 -2.9440  0.1829
21073SOL     OW64639   2.532   3.459   2.829  0.2397  0.7640  0.2333
21073SOL    HW164640   2.444   3.495   2.838 -0.0557  0.4796 -1.2501
21073SOL    HW264641   2.590   3.536   2.829 -0.1780  1.0897 -0.5562
21074SOL     OW64642   7.833   1.193   0.276 -0.4445  0.2137 -0.1492
21074SOL    HW164643   7.898   1.122   0.282 -0.6116  0.0352 -0.4386
21074SOL    HW264644   7.751   1.153   0.305 -0.4253  0.4434  0.2304
21075SOL     OW64645   6.213   2.853   0.124  0.0577 -0.0193 -0.3160
21075SOL    HW164646   6.257   2.915   0.182  1.0823  1.5070 -2.5526
21075SOL    HW264647   6.283   2.806   0.080 -0.5573  0.3101 -1.7463
21076SOL     OW64648   0.855   7.724   4.581 -0.2954  0.0391 -0.2098
21076SOL    HW164649   0.854   7.628   4.581 -0.1834  0.0248  0.6515
21076SOL    HW264650   0.846   7.748   4.674  1.3141  0.8382 -0.2153
21077SOL     OW64651   1.304   1.238   3.932 -0.6296  0.3541  0.9177
21077SOL    HW164652   1.271   1.324   3.906 -2.0030  0.2759  2.2711
21077SOL    HW264653   1.387   1.230   3.885  0.2028  2.9585  1.7397
21078SOL     OW64654   2.312   5.092   5.207  0.2648  0.0514  0.1322
21078SOL    HW164655   2.375   5.020   5.205  0.6822  0.4231 -0.6654
21078SOL    HW264656   2.307   5.122   5.116  0.5754  1.4289  0.5401
21079SOL     OW64657   5.904   2.218   7.061 -0.1695  0.1930  0.2288
21079SOL    HW164658   5.858   2.175   7.133  0.7996  0.9222  1.3343
21079SOL    HW264659   5.994   2.186   7.068  0.2708  1.3742  0.2677
21080SOL     OW64660   1.003   7.156   7.251  0.1174 -0.9285  0.2455
21080SOL    HW164661   1.054   7.226   7.209 -0.9740 -0.8672 -1.0380
21080SOL    HW264662   0.991   7.091   7.182 -0.1946 -1.6747  0.9951
21081SOL     OW64663   5.699   7.211   2.529 -0.3249 -0.3449 -0.3081
21081SOL    HW164664   5.753   7.277   2.486 -0.0340 -1.6316 -1.9932
21081SOL    HW264665   5.751   7.184   2.605 -0.9635  2.1387  1.1055
21082SOL     OW64666   2.093   6.174   6.801 -0.1123 -0.1864  0.6720
21082SOL    HW164667   2.007   6.175   6.760  0.9626  0.4442 -1.7197
21082SOL    HW264668   2.113   6.081   6.815 -0.8806 -0.3625  0.6006
21083SOL     OW64669   0.963   3.773   6.966  0.3264  0.2335  0.0436
21083SOL    HW164670   0.974   3.683   6.997  1.7622  0.0983 -0.7620
21083SOL    HW264671   0.885   3.770   6.912 -1.0170  0.0200  1.8953
21084SOL     OW64672   8.211   5.376   5.054  0.1505 -0.0622 -0.2446
21084SOL    HW164673   8.163   5.413   5.129  0.4503 -1.0369  0.4455
21084SOL    HW264674   8.271   5.446   5.027 -2.0726  1.4494 -1.5619
21085SOL     OW64675   3.598   8.614   9.012  0.2676  0.0872 -0.4125
21085SOL    HW164676   3.535   8.634   8.943  0.8665 -0.5715 -1.1692
21085SOL    HW264677   3.668   8.566   8.968 -0.0330 -1.6636  0.8701
21086SOL     OW64678   3.655   3.310   8.752  0.4453  0.6381  0.3268
21086SOL    HW164679   3.667   3.299   8.657  2.6831  1.5949  0.4415
21086SOL    HW264680   3.589   3.244   8.775  0.6414 -0.3683 -1.7141
21087SOL     OW64681   4.128   8.448   6.914 -0.3872 -0.3201 -0.0634
21087SOL    HW164682   4.214   8.483   6.893 -0.5928 -0.5202 -1.2889
21087SOL    HW264683   4.106   8.489   6.998  0.1656  1.0660 -0.5644
21088SOL     OW64684   0.216   6.650   5.826  0.5272 -0.0912 -0.8488
21088SOL    HW164685   0.157   6.723   5.843  0.1372 -0.3697 -1.0010
21088SOL    HW264686   0.159   6.573   5.821  0.9998 -0.5178  0.0149
21089SOL     OW64687   4.682   7.332   0.977  0.2150  0.1382 -0.0533
21089SOL    HW164688   4.754   7.390   1.000  0.3831 -0.3716  0.7483
21089SOL    HW264689   4.610   7.359   1.033  0.3636 -0.5659  0.4896
21090SOL     OW64690   1.212   1.023   2.446  0.5826 -0.3402  0.2906
21090SOL    HW164691   1.134   0.977   2.416  0.4650  0.1080 -0.1000
21090SOL    HW264692   1.199   1.032   2.541  0.3985 -0.7085  0.3027
21091SOL     OW64693   5.609   5.111   3.530 -0.4559  0.0851 -0.7003
21091SOL    HW164694   5.632   5.026   3.566  1.4814  0.9193  0.1658
21091SOL    HW264695   5.692   5.148   3.499 -0.6943  2.7620  1.4501
21092SOL     OW64696   0.037   2.102   2.103 -0.2253 -0.2349 -0.2361
21092SOL    HW164697   0.040   2.137   2.192  1.5350 -0.9432  0.0186
21092SOL    HW264698   0.097   2.157   2.053 -0.3821 -0.5099 -0.7362
21093SOL     OW64699   8.007   7.793   8.248 -0.9004 -0.4464  0.2424
21093SOL    HW164700   8.029   7.843   8.327 -1.4834 -0.6535  0.5400
21093SOL    HW264701   7.952   7.722   8.280 -1.4959 -0.2853 -0.4172
21094SOL     OW64702   9.207   5.101   5.423 -0.2572  0.3453  0.1603
21094SOL    HW164703   9.222   5.010   5.396 -0.2027  0.6731 -0.9489
21094SOL    HW264704   9.112   5.106   5.436 -0.0589 -0.4493  2.4865
21095SOL     OW64705   1.179   5.352   9.082  0.1675  0.6144 -0.1516
21095SOL    HW164706   1.200   5.265   9.116  0.1790 -0.0222 -1.6897
21095SOL    HW264707   1.259   5.402   9.093  0.0302  0.5746  1.1435
21096SOL     OW64708   5.101   7.715   1.215 -0.2770  0.0879 -0.0097
21096SOL    HW164709   5.178   7.767   1.239 -1.2996  1.0478  1.3462
21096SOL    HW264710   5.073   7.675   1.297 -1.6865  0.3894 -0.3253
21097SOL     OW64711   0.372   1.219   2.237 -0.3479  0.1655  0.1338
21097SOL    HW164712   0.374   1.237   2.143  2.2011  0.0829  0.0995
21097SOL    HW264713   0.325   1.293   2.274 -0.1818  0.9110 -1.0802
21098SOL     OW64714   3.327   1.292   3.712 -0.0089 -0.2674  0.2292
21098SOL    HW164715   3.250   1.269   3.763 -0.1344  0.2477  0.2760
21098SOL    HW264716   3.301   1.275   3.621 -1.0010  2.0077 -0.0003
21099SOL     OW64717   1.651   4.405   8.537  0.3651  0.4825  0.5796
21099SOL    HW164718   1.605   4.323   8.523  0.9578  0.5116 -2.1751
21099SOL    HW264719   1.734   4.380   8.578  0.4633 -0.3010 -0.0725
21100SOL     OW64720   1.350   4.001   0.353  0.2601  0.3518  0.4201
21100SOL    HW164721   1.288   3.968   0.418  0.8115  0.5464  1.0602
21100SOL    HW264722   1.413   3.930   0.341 -0.1696  0.0879 -0.3578
21101SOL     OW64723   6.890   8.552   2.406  0.3540  0.4226  0.7598
21101SOL    HW164724   6.929   8.640   2.407 -1.4266  1.2946 -0.5227
21101SOL    HW264725   6.922   8.513   2.326 -2.1220  1.5957 -0.9464
21102SOL     OW64726   4.984   8.089   5.383 -0.5015 -0.4146  0.1268
21102SOL    HW164727   5.041   8.103   5.308 -0.4424  0.4465  0.3283
21102SOL    HW264728   5.041   8.053   5.451 -0.8213 -2.6042 -0.6668
21103SOL     OW64729   8.810   8.984   8.882  0.5146 -0.2977  0.3575
21103SOL    HW164730   8.781   8.893   8.887 -0.8090  0.1536  1.5285
21103SOL    HW264731   8.829   8.999   8.790 -0.3814 -1.4183 -0.0184
21104SOL     OW64732   1.294   7.110   0.585  0.4247  0.0137 -0.1537
21104SOL    HW164733   1.385   7.082   0.586  0.8274  0.7066 -3.5328
21104SOL    HW264734   1.250   7.048   0.526 -0.9004  0.6867  0.0782
21105SOL     OW64735   5.179   0.981   0.809  0.5631  0.9800  0.0059
21105SOL    HW164736   5.142   0.974   0.897 -1.6335  2.5282 -0.7095
21105SOL    HW264737   5.194   1.074   0.797  1.9484  0.6687 -0.8646
21106SOL     OW64738   6.794   7.586   2.923 -0.2509  0.1286 -0.1573
21106SOL    HW164739   6.724   7.646   2.947  0.2733  0.4190  0.6957
21106SOL    HW264740   6.834   7.625   2.845 -0.3992  0.4832 -0.0556
21107SOL     OW64741   1.470   8.573   8.738 -0.4453  0.4424  0.7801
21107SOL    HW164742   1.501   8.572   8.828 -2.5945  1.7464  1.5990
21107SOL    HW264743   1.410   8.499   8.732 -0.0115  0.1210  0.2854
21108SOL     OW64744   1.943   0.684   0.021  0.2596  0.7066  0.2674
21108SOL    HW164745   1.883   0.610   0.009  1.9535 -0.6864 -0.0864
21108SOL    HW264746   1.993   0.687  -0.061  2.8687 -0.2936  1.7387
21109SOL     OW64747   6.468   5.831   3.833 -0.0350  0.1110 -0.3142
21109SOL    HW164748   6.470   5.903   3.769  0.1328  1.1787  0.8578
21109SOL    HW264749   6.560   5.811   3.849 -0.0307  0.8917  0.7140
21110SOL     OW64750   2.913   1.591   0.409  0.5603 -0.0578 -0.1644
21110SOL    HW164751   2.892   1.664   0.467  1.6422  0.0730  0.0818
21110SOL    HW264752   2.831   1.543   0.400  0.1269  0.5102  0.6294
21111SOL     OW64753   3.774   3.911   7.513 -0.7048  0.0263  0.3566
21111SOL    HW164754   3.771   3.815   7.519  2.1478 -0.2243 -0.5865
21111SOL    HW264755   3.782   3.929   7.419  1.0041  1.0098  0.6447
21112SOL     OW64756   8.229   0.685   3.724 -0.2031  0.1580  0.0708
21112SOL    HW164757   8.238   0.666   3.818 -1.6802  1.0780  0.4276
21112SOL    HW264758   8.234   0.599   3.682 -1.1778 -0.4600  1.1483
21113SOL     OW64759   7.283   8.174   7.508 -0.1095 -0.3930  0.0700
21113SOL    HW164760   7.357   8.115   7.513 -1.2587 -2.2147 -2.3774
21113SOL    HW264761   7.217   8.137   7.567 -0.0847 -0.3460  0.1281
21114SOL     OW64762   1.424   1.051   8.116 -0.5888  0.2009 -0.3869
21114SOL    HW164763   1.485   1.026   8.047  2.1014  1.9197  1.1940
21114SOL    HW264764   1.357   1.103   8.071  1.0318  1.2061 -1.7577
21115SOL     OW64765   6.686   2.156   0.125  0.0135  0.4084  0.5310
21115SOL    HW164766   6.698   2.072   0.168  1.2418  0.6731  0.7392
21115SOL    HW264767   6.644   2.135   0.042  0.9396 -0.4735  0.2749
21116SOL     OW64768   1.936   8.165   8.191  0.2395 -0.4395  0.1944
21116SOL    HW164769   1.975   8.109   8.258 -0.3412 -0.3920  0.5838
21116SOL    HW264770   1.855   8.198   8.231  0.9269  1.2722  0.2567
21117SOL     OW64771   8.420   1.864   6.716  0.1964  0.3128 -0.2462
21117SOL    HW164772   8.412   1.808   6.793 -0.6306  0.3131 -0.3226
21117SOL    HW264773   8.495   1.828   6.668  0.0286 -0.3797 -0.0092
21118SOL     OW64774   1.227   9.224   4.148  0.3696 -0.1954 -0.3698
21118SOL    HW164775   1.264   9.140   4.123 -0.9346 -0.6642 -0.8108
21118SOL    HW264776   1.141   9.203   4.185 -0.1802  0.9622 -0.9242
21119SOL     OW64777   2.069   0.695   5.524  0.4585  0.1059 -0.2330
21119SOL    HW164778   2.142   0.642   5.558  0.2846  0.0218  0.0137
21119SOL    HW264779   2.094   0.714   5.433 -1.1159 -3.5050 -1.6247
21120SOL     OW64780   1.816   0.678   1.128 -0.9056  0.2867  0.8441
21120SOL    HW164781   1.790   0.736   1.200 -0.7099  1.9161 -0.3409
21120SOL    HW264782   1.766   0.711   1.053  1.5084  0.9178 -0.5625
21121SOL     OW64783   4.017   6.101   2.841 -0.5321 -0.3115  0.1384
21121SOL    HW164784   3.949   6.134   2.783 -1.5116  1.2595  2.0580
21121SOL    HW264785   4.011   6.006   2.834 -0.3595 -0.2058 -2.5301
21122SOL     OW64786   4.027   4.990   1.894  0.0580  0.3212  0.0440
21122SOL    HW164787   4.016   4.931   1.820 -0.2488  0.9992 -0.4625
21122SOL    HW264788   3.982   4.947   1.967  2.8365 -1.7875  0.6859
21123SOL     OW64789   1.536   3.320   6.892  0.4244 -0.3857 -0.0655
21123SOL    HW164790   1.540   3.316   6.988  1.1665 -0.5337 -0.0928
21123SOL    HW264791   1.602   3.386   6.868  2.4076 -2.4415 -0.6004
21124SOL     OW64792   5.835   9.182   4.361 -0.4339  0.0377  0.1581
21124SOL    HW164793   5.918   9.200   4.317  0.1012  0.4114  1.2585
21124SOL    HW264794   5.859   9.122   4.432 -0.8130  1.3266  1.4251
21125SOL     OW64795   0.170   3.263   6.536  0.0596  0.0581  0.5357
21125SOL    HW164796   0.082   3.253   6.574  0.5570 -0.4128  1.6065
21125SOL    HW264797   0.194   3.174   6.510  0.4366  0.0964  0.7529
21126SOL     OW64798   4.994   6.878   3.777 -0.1242 -0.1577 -0.0763
21126SOL    HW164799   4.917   6.932   3.796 -0.3556 -0.5511  0.1080
21126SOL    HW264800   5.011   6.831   3.859  0.1335 -0.2938 -0.2084
21127SOL     OW64801   3.499   9.258   3.843 -0.0452 -0.0780 -0.7568
21127SOL    HW164802   3.502   9.200   3.767 -0.5369 -2.0012  0.6139
21127SOL    HW264803   3.452   9.335   3.812 -3.0278 -2.0552 -1.6627
21128SOL     OW64804   0.794   1.399   7.730  0.0846  0.2758  0.1589
21128SOL    HW164805   0.782   1.454   7.808 -0.7358  0.9027 -0.3892
21128SOL    HW264806   0.708   1.359   7.716  0.5579 -0.8218  0.2903
21129SOL     OW64807   4.826   8.629   5.452 -0.0199  0.1942 -0.0630
21129SOL    HW164808   4.857   8.641   5.363  0.5479  3.1667  0.4389
21129SOL    HW264809   4.893   8.575   5.494  0.3803 -0.0943 -1.0472
21130SOL     OW64810   8.451   5.913   7.699  0.1212 -0.0166 -0.1286
21130SOL    HW164811   8.451   5.983   7.635  0.1981 -0.6816 -0.8704
21130SOL    HW264812   8.525   5.858   7.676 -0.0503 -0.4542  0.3228
21131SOL     OW64813   6.891   4.872   1.725  0.1926 -0.6305 -0.4471
21131SOL    HW164814   6.955   4.810   1.759 -0.9638 -1.0672  1.0289
21131SOL    HW264815   6.942   4.952   1.709  1.2171 -1.1616  0.0387
21132SOL     OW64816   6.992   1.456   6.954  0.0627 -0.4012  0.0243
21132SOL    HW164817   7.040   1.427   6.877  1.0900  1.1111  0.0390
21132SOL    HW264818   7.055   1.448   7.026 -0.5073 -0.6815  0.5062
21133SOL     OW64819   9.003   9.194   0.157  0.3848 -0.0064  0.3252
21133SOL    HW164820   8.962   9.164   0.076 -1.1254 -1.5908  1.6050
21133SOL    HW264821   9.070   9.129   0.176 -0.5160 -0.6790  1.2825
21134SOL     OW64822   3.923   5.062   0.261 -0.1090  0.0327 -1.1436
21134SOL    HW164823   3.833   5.031   0.271 -0.8118  1.8757 -1.3936
21134SOL    HW264824   3.926   5.098   0.172 -0.3423  3.4903  0.0767
21135SOL     OW64825   1.648   0.754   6.362  0.5522 -0.6828 -0.1731
21135SOL    HW164826   1.711   0.722   6.297 -0.4458 -0.0784 -1.4915
21135SOL    HW264827   1.686   0.836   6.395  0.9896 -0.9092 -0.1097
21136SOL     OW64828   3.760   6.646   7.600 -0.3064  0.3119  0.6717
21136SOL    HW164829   3.821   6.680   7.666  0.2481  0.8442 -0.0994
21136SOL    HW264830   3.675   6.648   7.644 -0.2092  2.1640  0.8795
21137SOL     OW64831   6.238   7.723   5.053  0.5793  0.6791 -0.2001
21137SOL    HW164832   6.210   7.745   5.142  0.4496  0.0566 -0.0852
21137SOL    HW264833   6.211   7.799   5.001  2.2158  1.8354  0.5635
21138SOL     OW64834   5.179   5.481   6.108 -0.2450 -0.1463  0.1108
21138SOL    HW164835   5.131   5.398   6.105 -0.1118 -0.2260  0.1676
21138SOL    HW264836   5.209   5.488   6.199 -1.8014  0.8549  0.5893
21139SOL     OW64837   8.544   3.290   0.406  0.0292  0.7881 -0.2554
21139SOL    HW164838   8.498   3.207   0.397  1.5087 -0.5890  3.2689
21139SOL    HW264839   8.601   3.295   0.329  0.5495 -1.9510 -0.1263
21140SOL     OW64840   8.616   8.147   6.566 -0.0021 -0.1590  0.1212
21140SOL    HW164841   8.532   8.113   6.534 -0.4786  0.5078  0.6107
21140SOL    HW264842   8.679   8.123   6.498 -0.8058  0.3638 -0.8431
21141SOL     OW64843   3.128   6.077   6.398  0.5647  0.0021 -0.1254
21141SOL    HW164844   3.134   6.061   6.304 -0.7166 -0.0585 -0.2058
21141SOL    HW264845   3.062   6.145   6.408  1.5414  0.8797  0.6684
21142SOL     OW64846   5.164   8.744   0.913  0.0339  0.1205 -0.2525
21142SOL    HW164847   5.069   8.752   0.905 -0.3525 -1.3171  2.1597
21142SOL    HW264848   5.194   8.833   0.931 -0.6151  0.8502 -2.4458
21143SOL     OW64849   3.496   8.168   5.628 -0.1173  0.0356 -0.7396
21143SOL    HW164850   3.534   8.238   5.681 -0.5363 -0.6537  0.5073
21143SOL    HW264851   3.409   8.200   5.605 -0.5535 -0.3135  0.3653
21144SOL     OW64852   5.750   1.888   8.147  0.0387 -0.5616 -0.0820
21144SOL    HW164853   5.766   1.963   8.205  2.6484 -1.4676  0.5025
21144SOL    HW264854   5.730   1.927   8.062  1.0437  0.8172  0.2750
21145SOL     OW64855   4.747   1.707   0.668 -0.0935 -0.3955 -0.1931
21145SOL    HW164856   4.732   1.616   0.640 -2.0739 -0.0319 -0.4470
21145SOL    HW264857   4.706   1.713   0.754 -0.4448  0.3879 -0.4054
21146SOL     OW64858   4.254   8.616   4.972 -0.0271 -0.5918  0.3139
21146SOL    HW164859   4.195   8.673   4.922  1.4377  0.3789 -0.4077
21146SOL    HW264860   4.305   8.571   4.904 -0.1195 -1.6240  0.9150
21147SOL     OW64861   6.268   5.479   0.034  0.3008 -0.0577 -0.1200
21147SOL    HW164862   6.359   5.507   0.044 -0.0212  0.5434  1.5852
21147SOL    HW264863   6.273   5.384   0.022  1.1366 -0.1280  0.6524
21148SOL     OW64864   5.816   5.401   1.126 -0.2175  0.6457  0.0658
21148SOL    HW164865   5.840   5.494   1.134  0.6556  0.3553  1.0735
21148SOL    HW264866   5.859   5.359   1.200 -1.3449 -0.4331  0.1409
21149SOL     OW64867   8.690   5.109   8.121  0.3243 -0.0689  0.0728
21149SOL    HW164868   8.749   5.088   8.048  0.8414 -0.3187  0.5517
21149SOL    HW264869   8.734   5.181   8.167 -1.5247  2.3139 -1.6575
21150SOL     OW64870   3.010   5.116   0.047  0.4277  0.4099 -0.4105
21150SOL    HW164871   3.039   5.030   0.014  0.5783  1.1838 -2.4194
21150SOL    HW264872   2.915   5.113   0.043  0.3499 -0.2022  1.0786
21151SOL     OW64873   7.414   4.721   7.309 -0.0085 -0.7728  0.7574
21151SOL    HW164874   7.429   4.736   7.402 -0.1125  2.2599  0.4000
21151SOL    HW264875   7.496   4.748   7.268 -0.2136 -1.4042 -0.0845
21152SOL     OW64876   3.719   2.676   5.385  0.1568 -0.4494  0.2256
21152SOL    HW164877   3.718   2.741   5.455  0.9289 -0.9419  0.7065
21152SOL    HW264878   3.651   2.613   5.409  1.4444 -1.4547  1.3636
21153SOL     OW64879   9.259   8.999   1.238  0.3837 -0.0705 -0.2574
21153SOL    HW164880   9.349   8.989   1.207 -0.3625 -1.8659 -2.0945
21153SOL    HW264881   9.243   9.093   1.237  1.6985  0.1673 -1.5551
21154SOL     OW64882   3.309   3.926   0.528  0.8339 -0.2604 -0.4365
21154SOL    HW164883   3.309   3.952   0.620  1.5422 -0.4407 -0.3861
21154SOL    HW264884   3.231   3.968   0.491 -0.3221 -1.4299  0.5972
21155SOL     OW64885   6.460   0.456   5.999 -0.2838 -0.5703 -0.1749
21155SOL    HW164886   6.436   0.513   6.073 -1.6547 -1.0133 -0.2602
21155SOL    HW264887   6.380   0.449   5.948  0.6608 -0.2390 -1.7563
21156SOL     OW64888   0.189   1.093   0.112 -0.2360 -0.7976  0.1479
21156SOL    HW164889   0.201   1.082   0.207  0.1400 -2.3415 -0.0612
21156SOL    HW264890   0.254   1.036   0.073 -0.3161 -0.0850 -1.0647
21157SOL     OW64891   7.308   7.597   3.327 -0.1004  0.0608 -0.1817
21157SOL    HW164892   7.232   7.548   3.296  0.4584  0.0343 -1.5837
21157SOL    HW264893   7.367   7.531   3.363 -0.2591 -0.0446 -0.1147
21158SOL     OW64894   7.771   4.445   1.247 -0.1588 -0.3075  0.2363
21158SOL    HW164895   7.762   4.493   1.164  1.0733  0.0947  0.3100
21158SOL    HW264896   7.804   4.359   1.221  1.8690  0.3646  0.3734
21159SOL     OW64897   5.221   0.268   8.975  0.1450  0.0013 -0.2124
21159SOL    HW164898   5.192   0.184   9.011  0.7319 -1.1040 -2.1727
21159SOL    HW264899   5.234   0.251   8.881  2.4662  1.6589 -0.2874
21160SOL     OW64900   2.870   4.363   7.812 -0.6141  0.6888  0.7511
21160SOL    HW164901   2.884   4.440   7.867 -1.0736  0.9090  0.5746
21160SOL    HW264902   2.811   4.308   7.863  0.3633  0.0604  1.2283
21161SOL     OW64903   4.567   3.728   1.729  0.2402 -0.2534  0.1203
21161SOL    HW164904   4.513   3.765   1.658  1.2550  1.0417 -0.0088
21161SOL    HW264905   4.603   3.647   1.692 -1.6959 -1.2466  0.2665
21162SOL     OW64906   7.723   8.044   2.626 -0.4386 -0.1461 -0.2723
21162SOL    HW164907   7.797   8.024   2.569  0.2159  1.7130 -0.1437
21162SOL    HW264908   7.646   8.023   2.574  0.1600 -1.0498 -0.8201
21163SOL     OW64909   8.695   7.814   6.606 -0.4991 -0.1567 -0.3921
21163SOL    HW164910   8.616   7.762   6.622 -1.3699  1.1039 -0.4890
21163SOL    HW264911   8.738   7.771   6.533 -0.4400 -1.5712  0.4353
21164SOL     OW64912   7.440   4.696   0.422 -0.2907 -0.3919 -0.2114
21164SOL    HW164913   7.449   4.637   0.496 -0.2081  0.9996  0.9243
21164SOL    HW264914   7.355   4.673   0.384 -0.3121 -1.1467  0.2691
21165SOL     OW64915   8.355   3.772   3.590  1.1039  0.5928  0.5235
21165SOL    HW164916   8.268   3.796   3.623  0.2469 -0.6578 -0.7263
21165SOL    HW264917   8.342   3.688   3.547  3.4821 -1.0253  2.6575
21166SOL     OW64918   1.479   7.440   1.422 -0.1992 -0.3023  0.0668
21166SOL    HW164919   1.510   7.389   1.497 -0.3400 -0.6014 -0.0754
21166SOL    HW264920   1.525   7.401   1.347  0.7173  0.6530  0.1153
21167SOL     OW64921   6.954   8.787   9.102  0.3670 -0.5261  0.4640
21167SOL    HW164922   6.952   8.816   9.011  1.2917  0.2240  0.6707
21167SOL    HW264923   6.910   8.857   9.150 -0.7097 -1.2198  0.5475
21168SOL     OW64924   3.389   5.964   0.201 -0.3267  0.3954 -0.1530
21168SOL    HW164925   3.469   5.976   0.150 -0.4350 -0.7499 -0.6047
21168SOL    HW264926   3.319   5.954   0.136 -0.6837  0.3539  0.2320
21169SOL     OW64927   1.007   7.316   3.943 -0.4761 -0.1953  0.1698
21169SOL    HW164928   0.951   7.243   3.971  1.2880 -1.4152  0.6776
21169SOL    HW264929   0.957   7.358   3.872 -2.0322 -1.1800  0.6189
21170SOL     OW64930   1.203   4.608   5.804 -0.0728  0.4570  0.0305
21170SOL    HW164931   1.278   4.584   5.749  1.6836  0.6622  2.1508
21170SOL    HW264932   1.199   4.703   5.799 -1.2883  0.3567 -1.3622
21171SOL     OW64933   3.289   8.731   4.978  0.2378 -0.3552 -0.6783
21171SOL    HW164934   3.244   8.782   5.045  0.2570 -1.2376  0.0149
21171SOL    HW264935   3.219   8.685   4.931  0.3945 -2.1286  0.7296
21172SOL     OW64936   3.973   7.726   4.823  0.4461  0.1069 -0.5582
21172SOL    HW164937   3.896   7.782   4.832 -0.0989 -0.7906  0.6118
21172SOL    HW264938   3.978   7.706   4.729  0.6211  2.0268 -0.9915
21173SOL     OW64939   2.932   6.664   5.213 -0.1253  0.0830 -1.3171
21173SOL    HW164940   2.956   6.745   5.257 -0.1119 -0.8420  0.4622
21173SOL    HW264941   3.014   6.628   5.181  0.4931 -1.1548  1.3911
21174SOL     OW64942   1.023   4.641   6.432 -0.0034 -0.8282  0.3195
21174SOL    HW164943   0.998   4.705   6.498  0.8622  0.0349 -0.1739
21174SOL    HW264944   1.113   4.618   6.454  0.6834  0.2957 -1.1824
21175SOL     OW64945   3.599   8.374   6.441  0.5792  0.3870 -0.1065
21175SOL    HW164946   3.671   8.311   6.447 -0.0087 -0.1651  2.0419
21175SOL    HW264947   3.608   8.429   6.519  0.4619  2.3602 -1.4055
21176SOL     OW64948   4.236   6.821   4.954  0.0499 -0.4442 -0.3200
21176SOL    HW164949   4.230   6.765   5.031  1.4893  0.0178  0.1630
21176SOL    HW264950   4.295   6.774   4.895 -1.1238 -0.8421 -1.2100
21177SOL     OW64951   6.760   8.290   1.123 -0.3877 -0.2173  0.0211
21177SOL    HW164952   6.742   8.201   1.154 -0.0982 -0.4063 -0.3438
21177SOL    HW264953   6.782   8.279   1.030 -0.1637  0.2105  0.0203
21178SOL     OW64954   5.268   2.831   0.471 -0.4909 -0.1910 -0.7697
21178SOL    HW164955   5.215   2.905   0.502  1.0322  0.3784  0.6097
21178SOL    HW264956   5.311   2.863   0.392  1.0795  0.8863  0.4546
21179SOL     OW64957   0.064   1.293   4.866 -0.3395 -0.1252 -0.2982
21179SOL    HW164958   0.123   1.218   4.870 -1.3392 -0.8741  0.7639
21179SOL    HW264959   0.014   1.289   4.947 -0.4580  1.6630 -0.2499
21180SOL     OW64960   4.631   2.015   7.271 -0.4718  0.0118 -0.5705
21180SOL    HW164961   4.668   2.038   7.185 -0.4824  2.4772 -0.0081
21180SOL    HW264962   4.550   1.968   7.251  0.8571 -1.8851 -1.8484
21181SOL     OW64963   2.300   2.768   5.134 -0.4303  0.3793 -0.7429
21181SOL    HW164964   2.299   2.804   5.223 -1.6539 -1.3295 -0.0119
21181SOL    HW264965   2.392   2.746   5.118 -0.2530  0.3595  0.2537
21182SOL     OW64966   4.376   6.276   6.823  1.0443  0.0533  0.2569
21182SOL    HW164967   4.430   6.205   6.859  0.9082  0.3762  1.1296
21182SOL    HW264968   4.309   6.232   6.772  0.9569 -0.4564  0.8016
21183SOL     OW64969   5.832   5.773   5.630  0.5003  0.0255  0.6889
21183SOL    HW164970   5.842   5.678   5.618  1.0587 -0.0171  1.4046
21183SOL    HW264971   5.917   5.809   5.607  0.0641  0.4488 -0.3295
21184SOL     OW64972   2.718   2.176   4.159  0.6088 -0.0405  0.2656
21184SOL    HW164973   2.778   2.248   4.140  0.8367 -0.6478 -1.5849
21184SOL    HW264974   2.744   2.146   4.246 -0.0031  2.5418  1.4350
21185SOL     OW64975   6.455   7.644   9.247  0.9851 -0.0859 -0.3166
21185SOL    HW164976   6.521   7.647   9.317  0.7271 -1.2468 -0.0034
21185SOL    HW264977   6.506   7.634   9.167  1.3672  2.4958 -0.5036
21186SOL     OW64978   9.092   7.697   2.017 -0.2816 -0.0150 -0.5410
21186SOL    HW164979   9.126   7.765   2.075 -0.6460 -0.6981  0.5280
21186SOL    HW264980   9.004   7.679   2.051  0.1110 -1.5800 -0.2473
21187SOL     OW64981   4.663   2.168   7.484 -0.1199 -0.0794 -0.1252
21187SOL    HW164982   4.661   2.113   7.406 -2.4945 -1.3857  0.7358
21187SOL    HW264983   4.572   2.194   7.497  0.2336  0.2657  2.0797
21188SOL     OW64984   7.374   6.225   0.977 -0.0568  0.7951 -0.1494
21188SOL    HW164985   7.349   6.144   1.022 -0.2937  1.2094  0.4878
21188SOL    HW264986   7.466   6.212   0.953 -1.0025 -1.1715 -3.4302
21189SOL     OW64987   7.417   0.185   1.144 -0.1559  0.5431 -0.1249
21189SOL    HW164988   7.380   0.160   1.228 -0.0219  1.4750  0.2326
21189SOL    HW264989   7.395   0.278   1.135  0.6930  0.7115 -0.6420
21190SOL     OW64990   0.086   5.808   6.164  0.1300 -0.3491 -0.0811
21190SOL    HW164991   0.174   5.801   6.128  1.8840  2.9586  2.9392
21190SOL    HW264992   0.063   5.719   6.190  3.3426 -1.1202  0.5069
21191SOL     OW64993   8.532   4.510   6.322  0.0122 -0.3034  0.6911
21191SOL    HW164994   8.555   4.563   6.398 -0.1523  0.6385  0.0964
21191SOL    HW264995   8.557   4.421   6.347 -0.1762 -0.0373  1.8967
21192SOL     OW64996   5.409   0.317   1.093  0.0806 -0.0812  0.4987
21192SOL    HW164997   5.500   0.314   1.122 -0.0805 -0.3480  0.9968
21192SOL    HW264998   5.375   0.400   1.128  0.2624  0.2515 -0.1009
21193SOL     OW64999   6.842   3.324   9.267  0.1480  1.1683 -0.3065
21193SOL    HW165000   6.770   3.261   9.269  0.6273  0.5971 -0.6350
21193SOL    HW265001   6.907   3.288   9.328  0.5119  1.2398 -0.6511
21194SOL     OW65002   4.980   4.049   4.003 -0.0947 -0.0922 -0.3797
21194SOL    HW165003   4.927   4.017   3.930  0.0264  1.3426 -1.1408
21194SOL    HW265004   5.053   3.987   4.008  1.1753  0.9957 -3.0573
21195SOL     OW65005   0.181   6.980   8.424 -0.3498 -0.4739 -0.4001
21195SOL    HW165006   0.165   7.074   8.436 -1.9901 -0.5709 -1.5836
21195SOL    HW265007   0.145   6.939   8.504  1.2091 -0.0636  0.5555
21196SOL     OW65008   6.233   7.186   4.010  0.1795 -0.1934  0.2204
21196SOL    HW165009   6.151   7.140   3.992  0.6051 -0.8976  0.0349
21196SOL    HW265010   6.245   7.178   4.104 -1.2064  2.0623  0.6621
21197SOL     OW65011   8.896   5.666   8.996 -0.0420  0.1070 -0.3696
21197SOL    HW165012   8.906   5.578   8.960  0.5045  0.3617 -0.8698
21197SOL    HW265013   8.945   5.664   9.078 -0.4091 -0.1825 -0.1576
21198SOL     OW65014   4.010   1.478   3.463  0.2539  0.0366  0.1388
21198SOL    HW165015   3.937   1.417   3.475  0.7829 -0.7722 -0.6493
21198SOL    HW265016   4.000   1.512   3.374  0.1353  0.8882  0.4667
21199SOL     OW65017   7.126   6.852   3.362 -0.4625  0.0141  0.6631
21199SOL    HW165018   7.133   6.820   3.272 -0.7233  1.2273  0.1922
21199SOL    HW265019   7.067   6.790   3.405  0.6830 -1.3219  0.3748
21200SOL     OW65020   1.106   3.743   2.517 -0.0329  0.3032 -0.4375
21200SOL    HW165021   1.050   3.815   2.547 -1.1351 -1.3950  1.8361
21200SOL    HW265022   1.156   3.718   2.595  1.3475 -0.5349 -1.5477
21201SOL     OW65023   8.015   1.461   8.940  0.4597  0.2303 -0.1190
21201SOL    HW165024   8.090   1.452   9.000  0.0618  1.1084  0.5271
21201SOL    HW265025   7.976   1.544   8.964 -1.7744 -0.9844  0.7458
21202SOL     OW65026   1.352   6.049   3.065 -0.4102 -0.0280  0.4348
21202SOL    HW165027   1.277   6.040   3.006  1.3163 -1.6612 -1.6540
21202SOL    HW265028   1.389   5.961   3.071  1.5920  0.8041  1.0654
21203SOL     OW65029   3.983   8.434   6.401 -0.1599  0.0234  0.4335
21203SOL    HW165030   4.073   8.465   6.400 -0.2593  0.3249  0.8164
21203SOL    HW265031   3.949   8.458   6.487 -1.0574  1.1927 -0.2078
21204SOL     OW65032   3.269   5.211   0.529 -0.1247 -0.2729 -0.1653
21204SOL    HW165033   3.211   5.193   0.455 -1.4124 -1.3486  1.0622
21204SOL    HW265034   3.355   5.179   0.499 -0.7114 -1.1069 -1.0402
21205SOL     OW65035   5.184   0.651   0.021  0.3193 -0.5338  0.1257
21205SOL    HW165036   5.176   0.564  -0.018 -1.5685 -0.4062  0.1048
21205SOL    HW265037   5.257   0.643   0.083 -0.3775 -2.3986  0.7922
21206SOL     OW65038   6.304   3.094   7.899  0.2945 -0.2675  0.7243
21206SOL    HW165039   6.311   3.102   7.803  1.0945 -2.0755  0.5911
21206SOL    HW265040   6.267   3.178   7.927  0.3101  0.4184 -1.1355
21207SOL     OW65041   2.386   4.038   4.269 -0.2307  0.0768 -0.3526
21207SOL    HW165042   2.370   4.037   4.364 -0.4737 -0.6265 -0.3980
21207SOL    HW265043   2.457   4.101   4.258  0.1438 -0.2021  0.3625
21208SOL     OW65044   0.207   3.901   5.755  0.1668  0.3134  0.4604
21208SOL    HW165045   0.256   3.820   5.749  1.5872  1.2526 -2.9527
21208SOL    HW265046   0.123   3.876   5.793  0.9517 -2.5228  0.5357
21209SOL     OW65047   3.021   2.059   8.938  0.1017 -0.0842 -0.2826
21209SOL    HW165048   2.998   2.045   8.846 -1.7426 -0.8912  0.2676
21209SOL    HW265049   3.085   1.990   8.957  0.5272  0.1124 -0.9587
21210SOL     OW65050   2.174   8.315   7.651 -0.5478  0.4154  0.3137
21210SOL    HW165051   2.164   8.223   7.626  0.2895 -0.0838  1.6877
21210SOL    HW265052   2.248   8.346   7.600  0.3362 -0.2169  1.1911
21211SOL     OW65053   2.594   7.409   3.241 -0.6593 -0.4063 -0.2110
21211SOL    HW165054   2.553   7.327   3.213 -1.3610 -0.3208  0.5237
21211SOL    HW265055   2.575   7.414   3.335 -1.5602  1.1349 -0.4611
21212SOL     OW65056   4.615   0.051   1.560 -0.2807 -0.2132 -0.9043
21212SOL    HW165057   4.599  -0.036   1.597 -0.4870 -0.5044 -1.6676
21212SOL    HW265058   4.709   0.064   1.570 -0.4973  0.2503  0.8700
21213SOL     OW65059   4.085   9.256   1.618 -0.1901 -0.3280 -0.0174
21213SOL    HW165060   4.026   9.187   1.648 -0.1204  0.4383  2.0908
21213SOL    HW265061   4.173   9.222   1.636  0.0319 -1.0354 -2.1704
21214SOL     OW65062   7.385   5.610   3.092  0.1808  0.2761  0.3682
21214SOL    HW165063   7.358   5.558   3.017 -1.0224  0.5345  0.6043
21214SOL    HW265064   7.469   5.572   3.119  0.8332  0.4393 -1.3232
21215SOL     OW65065   7.981   7.801   2.480 -0.1090  0.6363  0.8403
21215SOL    HW165066   8.011   7.892   2.474  3.3353 -0.4900 -2.1948
21215SOL    HW265067   7.909   7.796   2.417  0.7013  0.9954 -0.1483
21216SOL     OW65068   8.339   3.528   0.479 -0.7430  0.3577 -0.3039
21216SOL    HW165069   8.386   3.451   0.512 -1.2700  1.0473  2.3333
21216SOL    HW265070   8.251   3.495   0.458 -0.9809  0.2119  0.8563
21217SOL     OW65071   4.970   7.710   4.739 -0.7023  0.3434  0.3833
21217SOL    HW165072   4.938   7.675   4.655  0.2876 -1.4827  0.7141
21217SOL    HW265073   4.999   7.799   4.719  0.4117 -0.3769 -1.4567
21218SOL     OW65074   7.357   3.719   7.858 -0.6213  0.4404  0.4265
21218SOL    HW165075   7.422   3.670   7.908  1.4802 -0.4132 -2.8043
21218SOL    HW265076   7.391   3.808   7.852 -0.9993  0.6081  0.7246
21219SOL     OW65077   8.646   4.147   0.936  0.0178  0.1130 -0.1675
21219SOL    HW165078   8.682   4.069   0.894 -0.9545  1.4100 -3.8084
21219SOL    HW265079   8.710   4.216   0.916 -1.4129  1.1711 -1.3369
21220SOL     OW65080   0.078   4.497   5.146 -0.2235  0.8714 -0.3372
21220SOL    HW165081   0.168   4.467   5.132 -0.0679  0.7736  0.7991
21220SOL    HW265082   0.024   4.426   5.112  0.1289  0.8154 -0.7932
21221SOL     OW65083   9.195   1.317   7.002 -0.1835  0.0506  0.1254
21221SOL    HW165084   9.149   1.398   6.983  0.4617  0.3394 -0.2504
21221SOL    HW265085   9.232   1.290   6.918  0.0281 -0.3609  0.3462
21222SOL     OW65086   7.738   1.796   3.317 -0.0079  0.6618  0.0292
21222SOL    HW165087   7.684   1.720   3.340 -0.0993  0.8171  0.3305
21222SOL    HW265088   7.694   1.835   3.242 -0.7127  1.1971  0.7054
21223SOL     OW65089   2.699   7.447   5.650 -0.2352  0.3683  0.1842
21223SOL    HW165090   2.791   7.450   5.677 -0.6378 -0.3231  1.6893
21223SOL    HW265091   2.697   7.499   5.569  2.1829 -2.5909 -2.0061
21224SOL     OW65092   6.748   4.402   0.958  0.6373 -0.2093 -0.9026
21224SOL    HW165093   6.842   4.383   0.960  0.5228 -0.7955 -0.8704
21224SOL    HW265094   6.731   4.430   0.867  1.0902  1.2724 -0.5603
21225SOL     OW65095   6.563   4.271   1.481  0.1518  0.6086  0.4179
21225SOL    HW165096   6.515   4.213   1.422  0.2268  0.7978  0.1697
21225SOL    HW265097   6.495   4.322   1.525  0.1583  1.6388 -0.7178
21226SOL     OW65098   7.197   5.471   1.358 -0.3830 -0.2506 -0.3681
21226SOL    HW165099   7.196   5.395   1.416 -0.1498 -0.7879 -1.0510
21226SOL    HW265100   7.236   5.439   1.277  1.4758  1.0716 -0.0604
21227SOL     OW65101   5.813   9.190   2.537  0.1501 -0.2140 -0.2695
21227SOL    HW165102   5.729   9.149   2.551  0.8083 -1.7458 -0.6470
21227SOL    HW265103   5.835   9.171   2.446  0.6334  0.6859 -0.3580
21228SOL     OW65104   4.745   0.107   5.342  0.2510  0.6644 -0.3959
21228SOL    HW165105   4.675   0.128   5.280  1.4070  0.5040 -1.8190
21228SOL    HW265106   4.757   0.012   5.333  1.9057  0.9317 -1.6458
21229SOL     OW65107   2.619   8.351   4.889  0.2094  0.2879 -0.0161
21229SOL    HW165108   2.545   8.411   4.886 -0.7679 -0.8430  0.3759
21229SOL    HW265109   2.670   8.378   4.966 -0.2816  0.5471  0.2207
21230SOL     OW65110   8.382   7.320   6.840  0.4024 -0.3518  0.3418
21230SOL    HW165111   8.324   7.394   6.821 -0.4314 -1.0530  0.0646
21230SOL    HW265112   8.407   7.332   6.931  1.0472  0.7776  0.0311
21231SOL     OW65113   6.442   7.120   6.283  1.1399  0.0771  0.3995
21231SOL    HW165114   6.533   7.129   6.254  0.4558 -0.3693 -2.0904
21231SOL    HW265115   6.390   7.154   6.210 -0.7465 -0.9522  1.1945
21232SOL     OW65116   1.221   0.630   3.201 -0.0051 -0.3239 -0.1089
21232SOL    HW165117   1.226   0.612   3.295  1.7841  0.5159  0.0027
21232SOL    HW265118   1.230   0.544   3.160 -0.3451 -0.6493  0.4755
21233SOL     OW65119   5.117   6.179   5.604  0.0927  0.1675 -0.0581
21233SOL    HW165120   5.181   6.226   5.550  1.1351  0.1310  1.1094
21233SOL    HW265121   5.069   6.249   5.649  0.3639  0.1607  0.2428
21234SOL     OW65122   9.255   5.892   8.491 -0.2067  0.1982 -0.4990
21234SOL    HW165123   9.191   5.828   8.461 -0.0482 -0.3199  0.2387
21234SOL    HW265124   9.276   5.865   8.581 -2.5751  3.1146  1.1195
21235SOL     OW65125   3.574   4.332   4.290 -0.0818  0.0663  0.4574
21235SOL    HW165126   3.544   4.243   4.310  0.8178 -0.2603  0.3768
21235SOL    HW265127   3.583   4.374   4.376 -0.3569  0.0301  0.5040
21236SOL     OW65128   5.966   1.609   6.683  0.1140 -0.9728  0.1639
21236SOL    HW165129   5.908   1.644   6.616  0.0141 -2.2323 -0.4449
21236SOL    HW265130   5.912   1.548   6.733  0.5947 -1.2495  0.3603
21237SOL     OW65131   8.856   6.821   2.431  0.1223 -0.0817 -0.1611
21237SOL    HW165132   8.787   6.887   2.428 -0.7910 -0.8185  2.3106
21237SOL    HW265133   8.858   6.792   2.522  1.9437 -1.9568 -0.7120
21238SOL     OW65134   3.374   6.527   9.258 -0.1828  0.4208 -0.0820
21238SOL    HW165135   3.297   6.585   9.259  1.5703  2.9407  2.4741
21238SOL    HW265136   3.404   6.530   9.167 -0.3821  3.3420 -0.1622
21239SOL     OW65137   5.387   0.161   6.767  0.1731  0.6849 -1.3519
21239SOL    HW165138   5.466   0.172   6.714  1.0279 -0.6526 -0.4087
21239SOL    HW265139   5.315   0.171   6.705  1.1244 -0.0522 -2.6310
21240SOL     OW65140   2.388   6.561   5.752  0.1999 -0.1325  0.8616
21240SOL    HW165141   2.391   6.655   5.770  0.3987 -0.2260  1.3395
21240SOL    HW265142   2.422   6.552   5.664  0.6424  0.2011  0.9972
21241SOL     OW65143   3.780   5.773   0.952 -0.5220  0.2169  0.3515
21241SOL    HW165144   3.829   5.691   0.945  0.7409  0.8991  0.7302
21241SOL    HW265145   3.690   5.747   0.971 -0.2144 -1.0793  0.1064
21242SOL     OW65146   3.266   4.526   0.977  0.1600  0.1123  0.3185
21242SOL    HW165147   3.244   4.540   0.885  0.4265 -4.5758 -0.6980
21242SOL    HW265148   3.193   4.564   1.025 -1.1297  0.7001 -1.9397
21243SOL     OW65149   2.725   8.278   6.455 -0.3616 -0.4202 -0.2766
21243SOL    HW165150   2.779   8.199   6.457 -0.6122 -0.5880  0.6214
21243SOL    HW265151   2.650   8.257   6.512 -0.9062  0.1316 -0.7774
21244SOL     OW65152   8.270   0.393   6.163 -0.2403 -0.0072 -0.0045
21244SOL    HW165153   8.259   0.391   6.068  1.2974  1.1935 -0.2354
21244SOL    HW265154   8.232   0.476   6.190 -0.1660 -0.0929  0.3723
21245SOL     OW65155   5.922   5.251   1.321  0.2661 -0.3258  0.2763
21245SOL    HW165156   5.939   5.163   1.288 -0.7116 -0.9694  1.4200
21245SOL    HW265157   6.009   5.290   1.331  0.7836 -1.6505  1.0548
21246SOL     OW65158   5.751   4.534   3.747  0.1141  0.0041 -0.2922
21246SOL    HW165159   5.746   4.570   3.835  1.5621 -1.6676  0.5508
21246SOL    HW265160   5.827   4.577   3.707 -0.0527  0.1676 -0.4363
21247SOL     OW65161   0.482   3.348   5.647 -0.1516  0.3629  0.4262
21247SOL    HW165162   0.450   3.260   5.668 -0.6810  0.4478  0.0045
21247SOL    HW265163   0.571   3.334   5.614  0.4035  0.1530  1.9229
21248SOL     OW65164   2.259   8.357   0.540  0.4351  0.3602 -0.1186
21248SOL    HW165165   2.165   8.356   0.521  0.5142 -1.7126 -0.6157
21248SOL    HW265166   2.265   8.333   0.632  0.4751  1.3110  0.1431
21249SOL     OW65167   8.227   6.797   2.103 -0.2258  0.0188  0.2990
21249SOL    HW165168   8.187   6.805   2.190 -2.8744 -1.2893 -0.6885
21249SOL    HW265169   8.318   6.774   2.121 -0.9546 -1.3652  2.7625
21250SOL     OW65170   4.007   3.795   3.570  0.3792  0.0250  0.9814
21250SOL    HW165171   4.035   3.743   3.495 -0.0797  0.8439  0.2178
21250SOL    HW265172   4.026   3.740   3.646  1.6806 -0.4685  0.3382
21251SOL     OW65173   2.700   8.896   2.682  0.0266  0.8419  0.1012
21251SOL    HW165174   2.750   8.825   2.722 -1.4022  0.3594  1.1077
21251SOL    HW265175   2.647   8.853   2.615  0.1956  1.1901 -0.2608
21252SOL     OW65176   7.748   8.663   2.708  0.2393 -0.5601 -0.2580
21252SOL    HW165177   7.775   8.709   2.788  0.0715  0.6495 -0.8792
21252SOL    HW265178   7.666   8.618   2.733 -0.2759  0.5093  0.0293
21253SOL     OW65179   9.217   5.922   4.667 -0.2507 -0.7918 -0.1561
21253SOL    HW165180   9.300   5.923   4.714 -0.4747 -2.4514  0.3237
21253SOL    HW265181   9.226   5.849   4.605  0.1190  1.4296 -2.9264
21254SOL     OW65182   1.366   2.402   9.137  0.0018 -0.0669  0.6543
21254SOL    HW165183   1.326   2.467   9.079 -0.1797 -1.2245 -0.5479
21254SOL    HW265184   1.460   2.408   9.118 -0.2357 -2.2213 -1.7713
21255SOL     OW65185   2.209   1.303   8.911  0.3287 -1.2411 -0.4893
21255SOL    HW165186   2.225   1.294   9.005  0.6913 -0.1547 -0.4381
21255SOL    HW265187   2.188   1.395   8.899 -0.3094 -1.4945 -1.3966
21256SOL     OW65188   3.210   8.122   3.437  0.4572  0.3019  0.4968
21256SOL    HW165189   3.136   8.116   3.497 -0.4223  2.0911 -0.3514
21256SOL    HW265190   3.283   8.153   3.492 -0.8097  3.8587  0.4326
21257SOL     OW65191   0.348   3.150   1.123  0.0748 -0.5278  0.1158
21257SOL    HW165192   0.425   3.184   1.168 -0.4025 -1.0064  1.3535
21257SOL    HW265193   0.374   3.062   1.095 -0.0219 -0.6945  0.5456
21258SOL     OW65194   4.310   2.230   3.993  0.3006 -0.2714  0.1658
21258SOL    HW165195   4.270   2.144   3.976  1.3227 -0.5316 -1.1432
21258SOL    HW265196   4.379   2.211   4.057 -0.0635 -0.2543  0.5691
21259SOL     OW65197   7.397   6.224   8.519 -0.5075 -0.4602  0.1777
21259SOL    HW165198   7.323   6.187   8.472 -1.3455 -0.2224  1.2718
21259SOL    HW265199   7.434   6.289   8.459  0.4691 -2.3918 -1.4398
21260SOL     OW65200   1.618   8.174   7.017  0.7437  0.4207 -0.3847
21260SOL    HW165201   1.631   8.163   7.111 -1.9468 -0.7189 -0.0437
21260SOL    HW265202   1.563   8.252   7.009 -1.1545 -0.8828 -0.7199
21261SOL     OW65203   0.136   6.529   4.751 -0.2293 -0.1286 -0.3892
21261SOL    HW165204   0.231   6.519   4.745 -0.1463 -1.1023  1.7346
21261SOL    HW265205   0.124   6.621   4.776  0.0905  0.1461 -1.1933
21262SOL     OW65206   1.959   3.948   5.409  0.5550  0.4603 -0.2122
21262SOL    HW165207   1.950   3.987   5.496  0.7701  1.0893 -0.4682
21262SOL    HW265208   2.052   3.927   5.402  0.3294 -0.7786  0.2022
21263SOL     OW65209   2.537   1.561   8.359 -0.7383 -0.0917 -0.4707
21263SOL    HW165210   2.533   1.637   8.418 -0.0520 -1.2607  1.1479
21263SOL    HW265211   2.494   1.591   8.279 -0.0302  2.1770 -0.0849
21264SOL     OW65212   8.760   3.793   8.707 -0.0511 -0.1835  0.7894
21264SOL    HW165213   8.671   3.822   8.687  0.8102  2.1837  0.0468
21264SOL    HW265214   8.790   3.751   8.626 -0.3063 -0.5893  0.8968
21265SOL     OW65215   7.424   7.337   3.156  0.1131  0.6828  0.3211
21265SOL    HW165216   7.443   7.316   3.064  2.5869 -1.2171  1.1609
21265SOL    HW265217   7.338   7.297   3.172  0.4535 -0.5113 -0.6938
21266SOL     OW65218   7.092   2.729   7.034  0.0110  0.8297 -0.6808
21266SOL    HW165219   7.077   2.698   7.123  0.8595 -0.5554 -0.9736
21266SOL    HW265220   7.007   2.761   7.004 -0.9165 -1.0838 -0.2333
21267SOL     OW65221   6.091   4.718   2.390  0.2615 -0.4128 -0.0204
21267SOL    HW165222   6.063   4.631   2.419 -0.4324 -0.4044 -0.6383
21267SOL    HW265223   6.017   4.752   2.341 -0.6071  1.6579  2.4820
21268SOL     OW65224   1.214   6.250   7.567  0.1010  0.0100  0.1405
21268SOL    HW165225   1.280   6.247   7.498  0.3945 -0.4357  0.4306
21268SOL    HW265226   1.189   6.342   7.574  1.9192  0.4829  1.1693
21269SOL     OW65227   1.688   3.160   6.721 -0.2259 -0.5010 -0.4778
21269SOL    HW165228   1.613   3.205   6.682 -0.3764  0.4324  0.8365
21269SOL    HW265229   1.704   3.206   6.803  2.0072 -0.4649 -0.8682
21270SOL     OW65230   2.135   8.878   3.611 -0.2573 -0.2656  0.4801
21270SOL    HW165231   2.118   8.916   3.525  1.1627 -1.5659 -0.4467
21270SOL    HW265232   2.113   8.947   3.673  1.6222  1.8864 -1.0613
21271SOL     OW65233   4.945   7.063   4.221 -0.2684  0.1891  0.3658
21271SOL    HW165234   4.890   6.985   4.214  0.4821 -0.7166  3.3886
21271SOL    HW265235   4.886   7.131   4.255 -0.0382 -0.1609  1.4743
21272SOL     OW65236   7.016   5.783   4.151  0.5146  0.7737 -0.4786
21272SOL    HW165237   6.993   5.716   4.086  0.5352  1.5191 -1.2789
21272SOL    HW265238   6.972   5.862   4.120  0.9608  1.2697  0.1300
21273SOL     OW65239   1.168   3.064   2.440 -0.0016 -0.3229 -0.3451
21273SOL    HW165240   1.215   3.048   2.522 -1.5886 -1.8788  0.3247
21273SOL    HW265241   1.204   3.001   2.379  0.9255  0.5928 -0.7723
21274SOL     OW65242   8.915   4.997   6.089  0.4001 -0.0062 -0.2862
21274SOL    HW165243   8.885   4.910   6.115 -0.0256  0.5912  1.3626
21274SOL    HW265244   8.916   4.994   5.993 -0.5740 -1.4964 -0.2906
21275SOL     OW65245   8.126   2.736   6.642  0.1421  0.1906 -0.5119
21275SOL    HW165246   8.187   2.673   6.605  1.0839  1.3510 -0.9836
21275SOL    HW265247   8.068   2.760   6.570  0.0316  0.1710 -0.4319
21276SOL     OW65248   7.676   8.813   0.454 -0.2448 -0.4079 -0.5463
21276SOL    HW165249   7.716   8.726   0.459 -2.3383 -1.4295 -0.1166
21276SOL    HW265250   7.677   8.845   0.544  0.6010  0.0796 -0.7175
21277SOL     OW65251   4.301   3.306   0.555  0.5148 -0.7553 -0.0113
21277SOL    HW165252   4.396   3.309   0.554  0.5440  1.5647  1.7106
21277SOL    HW265253   4.280   3.217   0.585  2.1695 -0.9824  0.5744
21278SOL     OW65254   4.921   8.571   4.288 -0.3774 -0.0773  0.6386
21278SOL    HW165255   4.904   8.538   4.376 -0.0752 -1.3033  0.2716
21278SOL    HW265256   5.008   8.536   4.266 -0.0904  0.9045  0.1700
21279SOL     OW65257   5.908   6.022   1.873  0.6975 -0.5124  0.4305
21279SOL    HW165258   5.867   5.978   1.799 -0.2084  0.0873  0.5499
21279SOL    HW265259   5.984   5.968   1.895  0.1236 -1.5185  0.0119
21280SOL     OW65260   0.219   5.874   8.205 -0.1140 -0.2209  0.0875
21280SOL    HW165261   0.168   5.792   8.197 -2.8510  1.3762 -0.1541
21280SOL    HW265262   0.153   5.940   8.226  2.3366  1.5731  2.6823
21281SOL     OW65263   1.754   0.165   4.050  0.0479  0.0477  0.0793
21281SOL    HW165264   1.687   0.212   4.001 -1.6379  0.0861  2.2684
21281SOL    HW265265   1.812   0.233   4.083  1.2766  0.0149 -1.8130
21282SOL     OW65266   6.246   4.119   5.837  0.0846 -0.5241 -0.9355
21282SOL    HW165267   6.205   4.047   5.790 -1.9571 -0.9620  1.3445
21282SOL    HW265268   6.173   4.167   5.877  1.6281  0.0268  1.4422
21283SOL     OW65269   1.775   2.570   8.079 -0.3346  0.5721 -0.4537
21283SOL    HW165270   1.851   2.548   8.133  0.8693  0.4500 -2.1361
21283SOL    HW265271   1.702   2.526   8.122  0.6208  0.2304  0.8942
21284SOL     OW65272   7.715   8.904   4.234 -0.2714  0.1461 -0.2064
21284SOL    HW165273   7.686   8.814   4.245  1.8285 -0.5911 -0.1598
21284SOL    HW265274   7.790   8.913   4.293 -0.9008  2.1889  0.3743
21285SOL     OW65275   5.193   8.983   7.470 -0.0984  0.0567 -0.1568
21285SOL    HW165276   5.136   9.010   7.541  0.0884 -3.3239  1.4611
21285SOL    HW265277   5.280   9.016   7.495 -0.2935  0.1719  0.3816
21286SOL     OW65278   2.719   8.112   2.128 -0.3932  0.4883 -0.2109
21286SOL    HW165279   2.669   8.190   2.102 -0.4493  1.1048  1.5556
21286SOL    HW265280   2.656   8.059   2.177  0.0890  0.1671  0.0723
21287SOL     OW65281   4.915   7.890   6.235 -0.0582 -0.4624  0.4732
21287SOL    HW165282   4.896   7.947   6.161  1.2399 -1.5734 -0.7839
21287SOL    HW265283   4.846   7.823   6.232  1.7128 -2.3753 -1.8265
21288SOL     OW65284   8.582   3.278   2.494 -0.4315  0.3996 -0.4789
21288SOL    HW165285   8.595   3.235   2.578  1.4861 -0.2159 -1.0479
21288SOL    HW265286   8.489   3.265   2.475 -0.3435 -1.8223  0.3015
21289SOL     OW65287   2.932   5.966   2.545 -0.3723 -0.1836  0.2651
21289SOL    HW165288   2.876   6.041   2.526  1.5868  2.2968  3.3633
21289SOL    HW265289   2.979   5.950   2.463 -1.3512  1.5251 -0.6827
21290SOL     OW65290   3.252   3.676   2.654 -0.6024 -0.0409  0.1353
21290SOL    HW165291   3.274   3.710   2.741  0.2127 -0.4053  0.0820
21290SOL    HW265292   3.254   3.753   2.597 -0.8654  0.1549  0.3881
21291SOL     OW65293   3.100   7.270   6.665  0.2999 -0.2801 -0.1460
21291SOL    HW165294   3.119   7.302   6.752  0.3595  0.0040 -0.2635
21291SOL    HW265295   3.178   7.292   6.613  0.6094 -1.1602 -0.0842
21292SOL     OW65296   6.012   8.258   7.793  0.2461  0.3251  0.2280
21292SOL    HW165297   6.009   8.178   7.741 -3.1408 -1.2938  2.4909
21292SOL    HW265298   5.947   8.316   7.752 -0.5645  0.0672  1.1150
21293SOL     OW65299   6.470   4.800   3.038  0.9488 -0.2791 -0.7274
21293SOL    HW165300   6.481   4.889   3.073  0.4179 -0.6880  0.5319
21293SOL    HW265301   6.424   4.753   3.107 -0.9241 -0.9094 -2.3289
21294SOL     OW65302   7.483   8.069   3.992 -0.3347 -0.2419 -0.1910
21294SOL    HW165303   7.449   8.152   3.958 -1.0098 -0.4258  0.0215
21294SOL    HW265304   7.566   8.093   4.033 -1.2317  0.6199  1.2360
21295SOL     OW65305   8.169   1.511   6.792  0.3408 -0.1793  0.1773
21295SOL    HW165306   8.130   1.569   6.858  0.4831  1.9895 -1.5329
21295SOL    HW265307   8.094   1.473   6.747  0.2443 -1.4803  1.3678
21296SOL     OW65308   6.623   5.625   4.142  0.5387 -0.1885  0.3982
21296SOL    HW165309   6.579   5.557   4.091  1.6050 -0.8424  0.3204
21296SOL    HW265310   6.656   5.687   4.077 -1.1981  0.9128  0.5129
21297SOL     OW65311   7.820   6.931   4.067  0.7007 -0.2516  0.2257
21297SOL    HW165312   7.909   6.927   4.033  0.3282 -0.7015 -0.7408
21297SOL    HW265313   7.777   6.854   4.031 -0.9075  1.4402 -1.7852
21298SOL     OW65314   8.024   2.819   3.005 -0.1639  0.2018 -0.0728
21298SOL    HW165315   7.976   2.812   3.088 -0.7284 -1.9894 -0.5273
21298SOL    HW265316   8.026   2.912   2.986  0.9995  0.9257  2.9820
21299SOL     OW65317   8.779   5.314   0.395 -0.4147  0.6236 -0.3621
21299SOL    HW165318   8.823   5.382   0.446  0.5526  1.1359 -1.8089
21299SOL    HW265319   8.757   5.357   0.312 -0.6900 -0.5542 -0.9206
21300SOL     OW65320   2.063   2.512   8.087 -0.1213 -0.0953  0.1036
21300SOL    HW165321   2.141   2.499   8.034  0.4712  0.1167  0.9021
21300SOL    HW265322   2.056   2.606   8.099 -0.2763 -0.1366  0.3597
21301SOL     OW65323   6.218   8.861   5.771 -0.2838  0.3901  0.1575
21301SOL    HW165324   6.219   8.881   5.678 -0.3988 -0.4878 -0.0387
21301SOL    HW265325   6.300   8.898   5.805 -0.3065  0.8237 -0.2647
21302SOL     OW65326   3.036   0.770   3.090 -0.3775 -0.0740 -0.2644
21302SOL    HW165327   3.129   0.763   3.108 -0.7476 -0.1872  1.9026
21302SOL    HW265328   3.027   0.740   2.999  1.7665  0.7960 -0.8246
21303SOL     OW65329   0.233   1.441   4.708 -0.0959  0.2792 -0.1292
21303SOL    HW165330   0.178   1.385   4.761  0.2855 -0.9941 -1.0238
21303SOL    HW265331   0.196   1.434   4.620  1.0256 -0.0060 -0.5958
21304SOL     OW65332   9.249   8.186   5.686 -0.2162  0.1756 -0.0706
21304SOL    HW165333   9.329   8.167   5.735  1.1257 -0.9152 -2.5085
21304SOL    HW265334   9.217   8.101   5.657 -1.3060  0.7272 -0.5797
21305SOL     OW65335   4.226   5.196   7.703 -0.1200 -0.0537 -0.2874
21305SOL    HW165336   4.208   5.185   7.609  0.7514 -1.2628 -0.3302
21305SOL    HW265337   4.200   5.113   7.743  1.4287 -0.3398  0.2238
21306SOL     OW65338   1.593   8.144   5.297 -0.3970 -0.2800  0.4487
21306SOL    HW165339   1.641   8.222   5.324  1.5533 -1.3601  0.2728
21306SOL    HW265340   1.516   8.143   5.354 -1.2273  2.4665 -0.4533
21307SOL     OW65341   0.386   3.475   1.071  0.5361  0.0875 -0.2947
21307SOL    HW165342   0.368   3.505   1.159  3.6251 -0.7570  0.7471
21307SOL    HW265343   0.384   3.379   1.077  0.7857  0.0156 -1.1401
21308SOL     OW65344   7.324   8.908   3.088  0.3446 -0.5753  0.5705
21308SOL    HW165345   7.358   8.947   3.008 -1.2110  1.6423  0.9066
21308SOL    HW265346   7.308   8.982   3.147  0.0757 -2.0039  2.4172
21309SOL     OW65347   7.963   7.595   4.752  0.0571 -1.0468 -0.3696
21309SOL    HW165348   7.928   7.662   4.694 -1.6708 -0.0529  1.6809
21309SOL    HW265349   8.040   7.635   4.792 -0.3313 -0.6609  0.0149
21310SOL     OW65350   2.349   1.549   3.218  0.1173 -0.1788  0.0151
21310SOL    HW165351   2.428   1.527   3.266  0.8467  0.3436 -0.8962
21310SOL    HW265352   2.355   1.644   3.204 -1.5294  0.1763  1.4107
21311SOL     OW65353   0.009   6.484   7.395 -0.3854 -0.0125 -0.5732
21311SOL    HW165354   0.097   6.519   7.379 -0.1152 -0.4874 -0.1562
21311SOL    HW265355  -0.012   6.512   7.484 -0.2767 -0.6715 -0.3342
21312SOL     OW65356   0.364   5.915   0.467 -0.3888 -0.2900  0.7359
21312SOL    HW165357   0.306   5.918   0.391 -0.0386  0.3778  0.4883
21312SOL    HW265358   0.372   5.822   0.487  2.1853 -0.8544 -2.1482
21313SOL     OW65359   4.091   0.609   0.710  0.4462 -0.1791 -0.0847
21313SOL    HW165360   4.016   0.550   0.712 -0.1517  0.5875  0.8984
21313SOL    HW265361   4.059   0.686   0.663  1.3269 -0.7235 -1.6761
21314SOL     OW65362   6.140   8.204   4.603 -0.6851 -0.1377  0.3016
21314SOL    HW165363   6.124   8.111   4.584  0.3702 -0.3872  0.5134
21314SOL    HW265364   6.057   8.247   4.585 -0.7931 -0.9054 -1.2326
21315SOL     OW65365   7.731   5.059   5.117  0.0838  0.1594  0.7573
21315SOL    HW165366   7.673   5.061   5.193 -0.6244  1.9264  0.2190
21315SOL    HW265367   7.736   5.150   5.088  1.9236 -0.1794 -0.1324
21316SOL     OW65368   0.348   2.487   0.967  0.7519 -0.4336 -0.2839
21316SOL    HW165369   0.420   2.517   1.022  0.0299 -0.1153  0.4906
21316SOL    HW265370   0.325   2.401   1.003 -0.1669  0.0682  0.3534
21317SOL     OW65371   8.880   6.850   0.658 -0.2745  0.5284 -0.3687
21317SOL    HW165372   8.808   6.796   0.690  0.2071 -0.2161 -0.5142
21317SOL    HW265373   8.912   6.804   0.581 -0.6975  1.7230 -1.2703
21318SOL     OW65374   3.972   8.682   5.944 -0.5744 -0.3231  0.3837
21318SOL    HW165375   4.001   8.716   5.859 -0.8222  0.7320  0.7014
21318SOL    HW265376   3.884   8.719   5.956  0.3962  1.6063  2.1855
21319SOL     OW65377   1.007   8.531   4.428 -0.1056 -0.7202 -0.1251
21319SOL    HW165378   1.067   8.581   4.373 -0.0448 -0.6887 -0.0294
21319SOL    HW265379   1.049   8.528   4.513 -0.2764 -0.6316 -0.0377
21320SOL     OW65380   8.546   5.367   5.715 -0.3731 -0.1325  0.3401
21320SOL    HW165381   8.466   5.414   5.691 -1.2132 -1.7657 -0.2378
21320SOL    HW265382   8.538   5.283   5.670 -0.6515 -2.2907  4.0598
21321SOL     OW65383   2.376   4.586   3.741  0.5320 -0.4490  0.2892
21321SOL    HW165384   2.301   4.637   3.771  1.1882  0.6741  0.1154
21321SOL    HW265385   2.360   4.572   3.647 -0.2277 -1.6342  0.5773
21322SOL     OW65386   3.810   4.033   3.985  0.4609 -0.6133  0.7154
21322SOL    HW165387   3.835   3.977   3.911  0.2256 -0.7944  0.7690
21322SOL    HW265388   3.731   3.991   4.021 -1.0193  0.9257 -0.5647
21323SOL     OW65389   2.321   3.594   0.230 -0.2489  0.1898 -0.6394
21323SOL    HW165390   2.384   3.531   0.194 -0.0481  0.5083 -0.8439
21323SOL    HW265391   2.303   3.653   0.158 -2.0818 -0.8803 -1.1185
21324SOL     OW65392   1.411   2.699   8.075  0.0512  0.0382  0.3645
21324SOL    HW165393   1.430   2.722   7.984 -0.9501 -1.4268 -0.2562
21324SOL    HW265394   1.466   2.758   8.126  1.1284  0.4564 -1.1871
21325SOL     OW65395   6.410   8.039   5.318 -0.6014  0.5083 -0.5830
21325SOL    HW165396   6.410   7.975   5.388 -2.2449  0.3824 -0.6574
21325SOL    HW265397   6.430   7.989   5.239 -2.6689 -0.1183 -0.7615
21326SOL     OW65398   6.256   3.466   7.722 -0.5325  0.3775  1.3570
21326SOL    HW165399   6.184   3.456   7.659  0.8183 -1.2542 -0.0105
21326SOL    HW265400   6.217   3.439   7.806 -1.6854  0.1234  0.7647
21327SOL     OW65401   4.050   5.860   0.790 -0.0283  0.3522 -0.0156
21327SOL    HW165402   3.996   5.817   0.724  0.5723  0.9214 -0.8853
21327SOL    HW265403   4.049   5.799   0.864 -2.9534  0.9265  0.5384
21328SOL     OW65404   2.372   8.554   8.194 -0.1110 -0.4985 -0.8315
21328SOL    HW165405   2.418   8.563   8.111  0.4097 -0.6618 -0.5633
21328SOL    HW265406   2.281   8.540   8.169 -0.2087  0.9188 -1.3531
21329SOL     OW65407   6.392   1.741   7.887  0.0974 -0.6544 -0.6371
21329SOL    HW165408   6.370   1.820   7.837 -0.0861  0.2356  0.7710
21329SOL    HW265409   6.307   1.699   7.904  0.1965 -1.1737 -1.3972
21330SOL     OW65410   6.074   4.342   5.621 -0.3287  0.9420 -0.2961
21330SOL    HW165411   6.095   4.378   5.536  0.4686 -0.8581 -0.9205
21330SOL    HW265412   6.074   4.247   5.607 -2.8098  0.6570  1.1029
21331SOL     OW65413   7.603   0.336   7.161 -0.2614  0.1318 -0.7223
21331SOL    HW165414   7.621   0.332   7.067 -1.3060 -0.0126 -0.9318
21331SOL    HW265415   7.534   0.403   7.169 -0.9266 -0.6042 -0.1911
21332SOL     OW65416   7.565   4.026   3.372 -0.6865  0.6570  0.2444
21332SOL    HW165417   7.469   4.024   3.370 -0.8072 -0.8643  2.9799
21332SOL    HW265418   7.587   4.027   3.465  2.0045  2.9097 -0.2610
21333SOL     OW65419   2.875   3.491   4.950  0.1672 -0.6018  0.0319
21333SOL    HW165420   2.945   3.523   5.007  0.1515 -1.1353  0.3597
21333SOL    HW265421   2.917   3.428   4.892  0.3590  0.5787 -1.1520
21334SOL     OW65422   0.354   6.491   2.853 -0.0887  0.3362  0.2231
21334SOL    HW165423   0.392   6.552   2.917 -1.1828  0.7304  0.5151
21334SOL    HW265424   0.428   6.435   2.827  0.8893  1.6015  0.1491
21335SOL     OW65425   2.161   8.274   4.733 -0.2344 -0.2465  0.5739
21335SOL    HW165426   2.121   8.211   4.673  3.8003 -2.0169 -0.6048
21335SOL    HW265427   2.162   8.356   4.684  1.6847 -1.3245 -1.4320
21336SOL     OW65428   3.197   1.362   8.620 -0.1438  0.2328  0.6754
21336SOL    HW165429   3.207   1.456   8.602 -0.4743  0.1821  0.2196
21336SOL    HW265430   3.233   1.319   8.542 -1.1353  0.0018  0.3374
21337SOL     OW65431   7.940   2.275   1.174 -0.1113 -0.3306 -0.5708
21337SOL    HW165432   8.010   2.341   1.175  0.3499 -0.8182  0.4550
21337SOL    HW265433   7.926   2.257   1.081 -0.7606  1.7280 -0.9185
21338SOL     OW65434   0.578   4.456   4.185 -0.3760 -0.3008 -0.1381
21338SOL    HW165435   0.533   4.372   4.194 -1.9216  0.5083  0.1450
21338SOL    HW265436   0.664   4.434   4.150 -0.2776 -2.0922  1.1328
21339SOL     OW65437   3.315   4.781   4.033 -0.4606  0.0351 -0.2628
21339SOL    HW165438   3.380   4.850   4.028  0.8156 -1.2060 -2.2827
21339SOL    HW265439   3.351   4.719   4.096 -0.3622  0.0027 -0.3510
21340SOL     OW65440   7.029   7.521   2.387 -0.0266 -0.3239 -0.1017
21340SOL    HW165441   7.113   7.560   2.363  0.9160 -1.5538  0.9960
21340SOL    HW265442   7.046   7.478   2.471 -1.8061 -0.4769  0.2192
21341SOL     OW65443   1.582   6.653   5.390  0.1666 -0.1912  0.4042
21341SOL    HW165444   1.516   6.584   5.387 -1.5119  1.3256  0.2200
21341SOL    HW265445   1.592   6.681   5.299 -1.1815  1.5380  0.7330
21342SOL     OW65446   7.668   8.498   4.585 -0.1008  0.7306  0.2093
21342SOL    HW165447   7.635   8.462   4.667  0.9579 -0.5794  0.1154
21342SOL    HW265448   7.757   8.528   4.606 -0.3295  1.7061 -0.1432
21343SOL     OW65449   3.669   7.305   7.411 -0.1552  0.4041 -0.4156
21343SOL    HW165450   3.753   7.261   7.396 -0.4702  0.0939 -1.3375
21343SOL    HW265451   3.605   7.252   7.364 -0.6982  1.2719 -0.6850
21344SOL     OW65452   0.449   0.938   0.930 -0.5376  0.0801  0.5356
21344SOL    HW165453   0.469   0.998   1.002 -1.4361  2.0395 -0.7615
21344SOL    HW265454   0.402   0.866   0.971  2.3616 -0.9233  2.4830
21345SOL     OW65455   8.609   3.977   2.088 -0.2337 -0.2476 -0.7383
21345SOL    HW165456   8.674   4.039   2.055 -0.2553 -0.3351 -0.9426
21345SOL    HW265457   8.652   3.891   2.082 -0.3720 -0.3071 -0.8802
21346SOL     OW65458   8.842   1.951   7.536 -0.7887  0.1069  0.0038
21346SOL    HW165459   8.852   1.866   7.578  2.1463  0.5943  0.5224
21346SOL    HW265460   8.833   2.012   7.610 -0.7157  0.4604 -0.2802
21347SOL     OW65461   7.318   0.217   6.409 -0.4735 -0.2540  0.0049
21347SOL    HW165462   7.393   0.274   6.422  0.4644 -1.4227 -0.0909
21347SOL    HW265463   7.341   0.135   6.454 -1.3939 -0.8612 -0.5831
21348SOL     OW65464   8.530   0.317   2.285  0.2087  0.2933  0.4729
21348SOL    HW165465   8.510   0.381   2.354  0.1759 -1.3187  2.0358
21348SOL    HW265466   8.611   0.276   2.314  1.6131  1.3371 -1.8047
21349SOL     OW65467   2.026   3.996   7.496  0.5260  0.4099 -0.3041
21349SOL    HW165468   1.958   4.051   7.533  1.9917  2.0963  0.0289
21349SOL    HW265469   2.054   4.043   7.417 -0.7794 -1.8216 -2.2345
21350SOL     OW65470   2.789   8.227   4.736  0.1694 -0.6742 -0.0273
21350SOL    HW165471   2.718   8.282   4.769 -0.0818 -0.6126 -0.6681
21350SOL    HW265472   2.747   8.143   4.716  0.3634 -0.7826  0.0191
21351SOL     OW65473   0.071   7.660   4.401 -0.0285 -0.0665  1.1346
21351SOL    HW165474   0.033   7.659   4.313 -0.9807 -0.1403  1.5358
21351SOL    HW265475   0.157   7.620   4.390  0.2238  0.7016  0.0863
21352SOL     OW65476   3.837   5.264   7.617  0.3364 -0.2236 -0.2930
21352SOL    HW165477   3.856   5.315   7.696 -0.2829 -1.4498  0.6805
21352SOL    HW265478   3.757   5.304   7.582  1.2956  1.1173 -1.0316
21353SOL     OW65479   5.309   2.227   9.045 -0.0247 -0.1978 -0.1163
21353SOL    HW165480   5.327   2.316   9.014  1.7040 -1.1620 -2.1757
21353SOL    HW265481   5.293   2.237   9.139 -1.8567  2.4826 -0.5838
21354SOL     OW65482   7.209   2.769   9.144 -0.1891  0.4287  0.7612
21354SOL    HW165483   7.217   2.715   9.065  1.5450  0.4942  0.8425
21354SOL    HW265484   7.226   2.708   9.216 -0.1333  0.6951  0.9761
21355SOL     OW65485   6.174   1.689   3.310 -0.0139  0.3755 -0.4075
21355SOL    HW165486   6.103   1.631   3.337  0.8833 -0.6761 -0.2639
21355SOL    HW265487   6.174   1.685   3.215  0.1901 -0.0277 -0.3893
21356SOL     OW65488   0.512   4.957   5.969 -0.4144 -0.3758 -0.1540
21356SOL    HW165489   0.540   4.891   5.905 -0.8766 -0.9447  0.2206
21356SOL    HW265490   0.441   5.004   5.926  0.3850  0.3655 -0.6980
21357SOL     OW65491   3.520   6.789   8.079 -0.1720 -0.2243  0.0249
21357SOL    HW165492   3.452   6.808   8.144 -0.4660 -1.6245  0.1646
21357SOL    HW265493   3.602   6.796   8.128 -0.3800 -1.0964  0.5236
21358SOL     OW65494   8.015   4.131   1.270  0.0722 -0.0309  0.0488
21358SOL    HW165495   8.002   4.072   1.196  0.2241 -0.8937  0.6924
21358SOL    HW265496   8.036   4.215   1.230  0.7935 -0.6329 -0.8791
21359SOL     OW65497   8.084   9.147   7.316  0.7101  0.4400  0.0164
21359SOL    HW165498   8.087   9.209   7.244  0.0455 -0.2135 -0.5877
21359SOL    HW265499   7.995   9.112   7.315 -0.0594  2.0210  2.5564
21360SOL     OW65500   3.077   1.246   0.868  0.3513 -0.0383 -0.1188
21360SOL    HW165501   3.072   1.192   0.947 -1.3324 -0.2533 -0.3289
21360SOL    HW265502   3.155   1.215   0.823  0.4595 -1.0084  0.6923
21361SOL     OW65503   1.173   2.120   3.587 -0.4092  0.1912  0.9426
21361SOL    HW165504   1.081   2.108   3.564 -0.0592 -0.0585 -0.4361
21361SOL    HW265505   1.220   2.061   3.528  0.5512 -0.9493  2.7655
21362SOL     OW65506   4.997   5.093   7.055 -0.1079  0.4905  0.6570
21362SOL    HW165507   5.083   5.105   7.015 -0.6925  0.8529 -0.5223
21362SOL    HW265508   5.001   5.145   7.136  1.1083 -0.3003  1.1423
21363SOL     OW65509   7.178   0.441   0.695  0.5298 -0.3443  0.2025
21363SOL    HW165510   7.246   0.377   0.676  0.1830 -0.3456 -1.1976
21363SOL    HW265511   7.202   0.478   0.780  1.0118 -1.9508  0.8065
21364SOL     OW65512   7.458   1.948   8.699  0.0115  0.1126  0.3054
21364SOL    HW165513   7.438   2.039   8.721 -0.7509 -0.2425  1.1454
21364SOL    HW265514   7.550   1.937   8.723 -0.2617  0.2958  1.4996
21365SOL     OW65515   0.962   6.574   5.610  0.1640  0.3812 -0.4572
21365SOL    HW165516   0.913   6.597   5.689  0.5712  0.3694 -0.2001
21365SOL    HW265517   1.017   6.501   5.637  0.9571  0.9492 -0.5057
21366SOL     OW65518   6.086   5.790   9.080  0.6198 -0.1013  0.2929
21366SOL    HW165519   6.024   5.732   9.035  1.3556  0.0132 -0.9305
21366SOL    HW265520   6.048   5.803   9.167 -0.9574 -0.2073 -0.3390
21367SOL     OW65521   6.014   2.939   8.752  0.0038 -0.0072  0.3243
21367SOL    HW165522   5.981   2.998   8.819 -0.6528  0.6005 -0.5219
21367SOL    HW265523   6.099   2.976   8.727 -0.4413  0.6405 -0.2619
21368SOL     OW65524   2.693   1.598   3.512 -0.7189  0.4080  0.0548
21368SOL    HW165525   2.636   1.662   3.555  1.3264  2.5793 -0.2764
21368SOL    HW265526   2.668   1.600   3.420 -1.2185  0.0943  0.1825
21369SOL     OW65527   3.261   8.942   8.555  0.6726 -0.2355 -0.0153
21369SOL    HW165528   3.272   8.865   8.499 -4.0717 -1.1849 -0.0775
21369SOL    HW265529   3.209   8.910   8.629  0.0544  2.5456  0.8653
21370SOL     OW65530   1.676   4.258   4.068  0.3143 -0.7111  0.5028
21370SOL    HW165531   1.621   4.330   4.098  1.7313  0.0640  1.3886
21370SOL    HW265532   1.752   4.260   4.126  1.2457 -1.7705 -0.6074
21371SOL     OW65533   8.626   5.227   9.252  0.6263  0.1197  0.3456
21371SOL    HW165534   8.641   5.137   9.222 -0.6904  0.0315 -0.1325
21371SOL    HW265535   8.567   5.218   9.326  1.3455  0.5397  0.9846
21372SOL     OW65536   7.661   3.772   3.709 -0.2097 -0.3518  0.0963
21372SOL    HW165537   7.722   3.738   3.774  0.7860 -1.2697 -1.2720
21372SOL    HW265538   7.681   3.724   3.629 -1.6126  0.5146 -0.8279
21373SOL     OW65539   2.667   7.625   3.068  0.3485  0.0248  0.2839
21373SOL    HW165540   2.597   7.677   3.028  1.3206  1.9066  0.9243
21373SOL    HW265541   2.621   7.554   3.112 -0.9842 -0.0804 -1.1749
21374SOL     OW65542   0.368   4.978   2.820 -0.0797  0.5828  0.5868
21374SOL    HW165543   0.384   4.959   2.728 -0.1422  0.5338  0.5864
21374SOL    HW265544   0.339   5.069   2.822  1.4043  1.0860  0.7020
21375SOL     OW65545   7.860   8.996   5.517 -0.0041 -0.4241  0.3578
21375SOL    HW165546   7.904   9.073   5.481  1.8552 -1.2502  0.7292
21375SOL    HW265547   7.800   8.969   5.449  0.1929  0.6503 -0.2709
21376SOL     OW65548   4.016   5.340   1.295 -0.7461  0.2053 -0.0423
21376SOL    HW165549   4.097   5.390   1.293 -1.1737  0.9440  0.5633
21376SOL    HW265550   4.007   5.304   1.207 -0.6049  1.4916 -0.5892
21377SOL     OW65551   0.264   6.192   0.571  0.1386 -0.0044  0.0690
21377SOL    HW165552   0.333   6.126   0.561  0.3576  0.1911  0.2686
21377SOL    HW265553   0.208   6.180   0.495  0.5460  0.0121 -0.2350
21378SOL     OW65554   2.390   1.901   4.731 -0.3290 -0.4389  0.6274
21378SOL    HW165555   2.362   1.973   4.675 -0.2293  0.7228  1.9940
21378SOL    HW265556   2.459   1.857   4.682 -0.1026  0.6645 -0.0756
21379SOL     OW65557   1.437   3.750   9.038  0.6262  0.5911  0.0984
21379SOL    HW165558   1.488   3.677   9.004  1.8738  1.8246 -0.7912
21379SOL    HW265559   1.395   3.787   8.960  2.4368  2.6280 -0.0117
21380SOL     OW65560   8.353   8.383   7.656 -0.1156  0.3052 -0.1137
21380SOL    HW165561   8.403   8.313   7.614  0.5757 -0.8094  2.4188
21380SOL    HW265562   8.265   8.347   7.665  0.4870 -0.7401  2.1346
21381SOL     OW65563   5.094   0.317   4.635  0.1819 -0.4441 -0.0752
21381SOL    HW165564   5.014   0.283   4.674 -0.3884  1.2124  0.2640
21381SOL    HW265565   5.064   0.371   4.561  0.6700  2.7426  1.8725
21382SOL     OW65566   3.162   2.545   0.408 -0.1627 -0.1419  0.2642
21382SOL    HW165567   3.129   2.586   0.488  0.0168  0.6162 -0.0451
21382SOL    HW265568   3.175   2.617   0.347  1.4068 -0.4873  0.1371
21383SOL     OW65569   4.753   4.097   0.061  0.0776 -0.2095 -0.3695
21383SOL    HW165570   4.737   4.042  -0.015  0.1802  0.7014 -1.0640
21383SOL    HW265571   4.685   4.071   0.124 -1.1565  0.2640 -1.4535
21384SOL     OW65572   8.760   1.156   2.480 -0.0388 -0.6295  0.5618
21384SOL    HW165573   8.840   1.149   2.532 -0.2874 -0.2758  0.9934
21384SOL    HW265574   8.756   1.248   2.453  0.1816 -0.8423 -0.2429
21385SOL     OW65575   0.253   8.651   2.563  0.1975  0.6817 -0.6994
21385SOL    HW165576   0.289   8.563   2.568 -0.1484  0.4972 -1.3544
21385SOL    HW265577   0.160   8.638   2.547 -0.0569  1.1608  0.3556
21386SOL     OW65578   2.142   2.483   8.868 -0.0330 -0.3114  0.0928
21386SOL    HW165579   2.075   2.416   8.864 -0.0183 -0.3595  0.5597
21386SOL    HW265580   2.135   2.519   8.957  0.4182 -0.1754  0.0767
21387SOL     OW65581   1.293   5.351   1.930  0.1852 -0.5864  0.4915
21387SOL    HW165582   1.206   5.386   1.906  0.1246 -0.5716  0.7328
21387SOL    HW265583   1.315   5.396   2.012  0.6964 -0.1299  0.1100
21388SOL     OW65584   8.312   0.634   1.330  0.3505 -0.1751  0.2325
21388SOL    HW165585   8.230   0.584   1.329  0.4251 -0.3063  0.7148
21388SOL    HW265586   8.357   0.606   1.249  0.9443 -1.8278  1.0743
21389SOL     OW65587   2.575   2.796   1.063  0.1849 -0.8905 -0.6430
21389SOL    HW165588   2.597   2.732   0.995 -1.4278 -1.1385 -0.9747
21389SOL    HW265589   2.490   2.831   1.036 -0.3029 -0.6955  1.0285
21390SOL     OW65590   3.003   4.913   7.484  0.0166  0.4984 -0.1019
21390SOL    HW165591   3.031   4.864   7.407  1.7351  1.7414 -0.2968
21390SOL    HW265592   2.984   5.001   7.452 -3.7278 -0.0554  0.1214
21391SOL     OW65593   7.388   8.877   6.597  0.3010 -0.0130  0.0610
21391SOL    HW165594   7.438   8.958   6.599  1.9983 -1.0132  0.7940
21391SOL    HW265595   7.436   8.820   6.537 -0.7676 -0.5322 -0.3255
21392SOL     OW65596   6.660   8.269   1.906 -0.2876 -0.3538 -0.9727
21392SOL    HW165597   6.750   8.295   1.887  0.6721 -1.2409  1.8078
21392SOL    HW265598   6.612   8.352   1.910  0.0706  0.0584 -3.6639
21393SOL     OW65599   3.097   0.093   3.726 -0.2575  0.0037 -0.4234
21393SOL    HW165600   3.107  -0.000   3.708  1.1208 -0.5245  2.4226
21393SOL    HW265601   3.119   0.102   3.819  0.1610  3.2406 -0.7100
21394SOL     OW65602   2.598   7.864   3.379 -0.0327 -0.3561 -0.6557
21394SOL    HW165603   2.542   7.844   3.304 -0.6352  1.3166 -0.6801
21394SOL    HW265604   2.550   7.830   3.455 -0.3614 -0.2705 -0.8256
21395SOL     OW65605   0.091   5.377   5.029 -0.0375 -0.2850  0.1675
21395SOL    HW165606   0.008   5.389   4.983  0.1327 -0.1956 -0.1228
21395SOL    HW265607   0.070   5.391   5.122 -0.2652  0.1573  0.0528
21396SOL     OW65608   4.787   2.443   7.460  0.1197 -0.1882  0.0795
21396SOL    HW165609   4.851   2.447   7.531 -1.6187  1.4861  1.6867
21396SOL    HW265610   4.745   2.357   7.470  1.7019 -1.0880 -0.6852
21397SOL     OW65611   9.242   8.691   2.265  0.0269 -0.7249  0.2654
21397SOL    HW165612   9.201   8.627   2.207 -0.3789  1.1091 -1.5766
21397SOL    HW265613   9.215   8.776   2.230  4.6378  0.6515 -0.5333
21398SOL     OW65614   7.642   6.511   3.684  0.0606 -0.4706 -0.0370
21398SOL    HW165615   7.674   6.546   3.768  1.3227  0.1209 -0.7388
21398SOL    HW265616   7.640   6.416   3.697 -0.1695 -0.3592  0.8034
21399SOL     OW65617   4.748   5.587   6.753  0.2212  0.3284 -0.1313
21399SOL    HW165618   4.713   5.510   6.707  0.1031 -0.5008  1.2923
21399SOL    HW265619   4.843   5.577   6.748  0.3246  1.6930 -2.5185
21400SOL     OW65620   4.182   0.100   3.778  0.6172 -0.4438  0.0314
21400SOL    HW165621   4.223   0.018   3.806 -1.0633 -0.9185  1.2676
21400SOL    HW265622   4.175   0.093   3.683  0.8653 -1.5689  0.0900
21401SOL     OW65623   6.170   5.849   4.319  0.0121 -0.3226 -0.8505
21401SOL    HW165624   6.080   5.879   4.302 -0.1247  0.9383  1.6754
21401SOL    HW265625   6.177   5.767   4.270 -2.5370 -0.4774 -1.0992
21402SOL     OW65626   7.045   7.675   0.412 -0.1698  0.3911 -0.1772
21402SOL    HW165627   7.102   7.627   0.352 -0.5449 -0.8843  0.4319
21402SOL    HW265628   7.097   7.750   0.441  0.8647 -0.2528 -0.3206
21403SOL     OW65629   5.253   6.761   5.520  0.1218  0.0472 -0.0996
21403SOL    HW165630   5.200   6.681   5.526 -0.3922  0.4778  1.3486
21403SOL    HW265631   5.258   6.793   5.610 -0.2998  2.0420 -0.7495
21404SOL     OW65632   7.287   1.522   7.678 -0.1603 -0.4224 -0.0427
21404SOL    HW165633   7.257   1.599   7.725 -0.4864  0.0774 -1.0469
21404SOL    HW265634   7.209   1.487   7.634  0.5071  0.4265 -2.0136
21405SOL     OW65635   5.080   5.730   3.271  0.1735 -0.3862  0.4808
21405SOL    HW165636   5.019   5.657   3.277  1.1114 -1.1841  0.5673
21405SOL    HW265637   5.082   5.752   3.177 -3.2624  2.3429  0.8302
21406SOL     OW65638   3.789   1.307   8.136 -0.2211 -0.1756  0.0067
21406SOL    HW165639   3.814   1.386   8.088 -1.7504 -0.7123 -1.7937
21406SOL    HW265640   3.872   1.272   8.168  0.6005  1.5637 -0.0609
21407SOL     OW65641   9.085   7.044   0.483  0.8415 -0.0864  0.3675
21407SOL    HW165642   9.094   7.088   0.568 -1.3618  0.9865  0.1170
21407SOL    HW265643   9.037   6.963   0.503  0.9163 -0.1674  0.2227
21408SOL     OW65644   8.270   0.665   3.146 -0.3153 -0.6848  0.5161
21408SOL    HW165645   8.343   0.612   3.114 -1.0446 -0.3453 -1.9221
21408SOL    HW265646   8.272   0.654   3.241  3.8587  0.5395  0.7768
21409SOL     OW65647   6.333   8.355   1.572 -0.0998 -0.3418 -0.0239
21409SOL    HW165648   6.340   8.307   1.654 -1.0774 -0.9699 -0.2918
21409SOL    HW265649   6.262   8.311   1.525 -0.6585  1.0281 -0.5018
21410SOL     OW65650   8.597   2.200   7.833 -0.4369 -0.1110 -0.1816
21410SOL    HW165651   8.576   2.108   7.814  0.4021 -0.1329 -1.0968
21410SOL    HW265652   8.591   2.207   7.928  0.9292 -1.5000  0.0423
21411SOL     OW65653   7.742   8.626   0.000 -0.6410  0.4167  0.0361
21411SOL    HW165654   7.811   8.692   0.000  0.1883 -0.3800 -1.8318
21411SOL    HW265655   7.685   8.651   0.073  2.3352  0.3011  2.6256
21412SOL     OW65656   9.180   2.543   4.402  0.4070  0.0297  0.0804
21412SOL    HW165657   9.272   2.550   4.428  0.5389  0.1153 -0.3884
21412SOL    HW265658   9.183   2.539   4.306 -0.1214  0.7746  0.0232
21413SOL     OW65659   1.312   8.721   4.485 -0.2089 -0.2770 -0.1433
21413SOL    HW165660   1.315   8.755   4.575 -0.6618 -0.0913 -0.1933
21413SOL    HW265661   1.362   8.639   4.488 -1.0346 -0.7710  0.5053
21414SOL     OW65662   4.825   7.250   6.849  0.0065 -0.0013 -0.4760
21414SOL    HW165663   4.824   7.175   6.908  1.0638  0.1474 -0.2368
21414SOL    HW265664   4.745   7.242   6.797  0.3834 -1.6122 -0.8659
21415SOL     OW65665   0.861   3.930   0.163  0.3269  0.2057  0.3288
21415SOL    HW165666   0.777   3.976   0.172 -0.4721 -1.0718 -0.3039
21415SOL    HW265667   0.837   3.839   0.147  1.8644 -0.3353  0.9455
21416SOL     OW65668   0.858   7.792   7.165 -0.3689 -0.4979  0.6182
21416SOL    HW165669   0.852   7.811   7.072 -0.4027  2.4256  1.1259
21416SOL    HW265670   0.942   7.747   7.175  0.0212 -0.1136 -0.7245
21417SOL     OW65671   8.987   3.177   5.356  0.7439  0.2036 -0.2899
21417SOL    HW165672   8.994   3.242   5.286 -1.4421  0.1520 -0.6232
21417SOL    HW265673   8.959   3.228   5.432 -0.4964 -0.2547 -0.4280
21418SOL     OW65674   7.158   0.655   7.711 -0.5021  0.1221  0.0525
21418SOL    HW165675   7.198   0.610   7.636  0.8410  1.2460  0.0583
21418SOL    HW265676   7.081   0.602   7.732  0.3898 -1.5498 -0.6365
21419SOL     OW65677   5.866   4.657   1.058  0.1111  0.6122  0.2219
21419SOL    HW165678   5.887   4.581   1.112  0.4194 -0.3251 -1.1522
21419SOL    HW265679   5.791   4.697   1.101  0.0896 -0.3275  1.1065
21420SOL     OW65680   2.711   0.145   5.116 -0.2540 -0.2613  0.9924
21420SOL    HW165681   2.804   0.165   5.103 -0.6772 -0.1021 -2.7903
21420SOL    HW265682   2.676   0.224   5.159  0.9268  0.7352  0.1987
21421SOL     OW65683   5.349   5.865   0.617 -0.4109  0.6640 -0.5184
21421SOL    HW165684   5.402   5.848   0.695 -0.0693  1.2498 -0.6212
21421SOL    HW265685   5.312   5.780   0.595  0.8819  0.1347 -0.7433
21422SOL     OW65686   6.343   4.837   2.405 -0.3183  0.5944 -0.2451
21422SOL    HW165687   6.253   4.805   2.409 -0.0020 -0.3985 -0.8269
21422SOL    HW265688   6.389   4.776   2.348  0.1839  2.4462 -1.9380
21423SOL     OW65689   2.665   7.882   7.617  0.3906  0.1032 -0.1657
21423SOL    HW165690   2.640   7.839   7.698 -0.4401  0.8610 -0.0015
21423SOL    HW265691   2.655   7.976   7.635 -0.2140  0.2677 -1.2547
21424SOL     OW65692   2.772   7.576   2.177  0.1964  0.1441  0.2659
21424SOL    HW165693   2.805   7.582   2.267  0.2147  1.5281  0.1859
21424SOL    HW265694   2.844   7.534   2.128  0.5025  0.1097  0.7383
21425SOL     OW65695   2.512   2.842   7.628  0.1208 -0.3800 -0.0241
21425SOL    HW165696   2.603   2.813   7.623 -0.3000 -1.6139 -1.2858
21425SOL    HW265697   2.503   2.880   7.715  2.3022  1.4108 -0.4841
21426SOL     OW65698   5.388   3.143   4.516  0.1934  0.4138 -0.3944
21426SOL    HW165699   5.466   3.092   4.537  0.4654  0.6817 -0.7361
21426SOL    HW265700   5.423   3.227   4.485 -0.2520  1.0465  0.7585
21427SOL     OW65701   5.752   7.426   8.566 -0.0541 -0.2933  0.3504
21427SOL    HW165702   5.788   7.503   8.610 -0.0289  0.1468 -0.4248
21427SOL    HW265703   5.825   7.388   8.518 -0.7713  1.2996 -2.2259
21428SOL     OW65704   3.902   0.747   3.993  0.1791 -0.2190 -0.1668
21428SOL    HW165705   3.947   0.799   3.927  0.4663 -0.3032 -0.0402
21428SOL    HW265706   3.809   0.763   3.977  0.2675  1.2369  0.5812
21429SOL     OW65707   2.733   0.154   1.528 -0.1068  0.0806 -0.1281
21429SOL    HW165708   2.771   0.078   1.570 -0.1876 -0.5470 -1.1644
21429SOL    HW265709   2.804   0.219   1.526  0.2843 -0.3487 -0.2176
21430SOL     OW65710   4.751   7.143   0.093 -0.0796  0.3744  0.2786
21430SOL    HW165711   4.701   7.071   0.131  1.3982 -1.1312 -0.4882
21430SOL    HW265712   4.725   7.144   0.000 -1.3588  2.0029  0.6031
21431SOL     OW65713   7.995   9.027   0.467  0.0310  0.5385 -0.0586
21431SOL    HW165714   8.090   9.035   0.479  0.6533 -0.2360 -3.4715
21431SOL    HW265715   7.967   9.113   0.437 -0.0849  0.3959 -0.3685
21432SOL     OW65716   7.499   4.543   8.997 -0.8958  0.0578  0.0851
21432SOL    HW165717   7.554   4.615   8.967 -1.6332  1.1304  1.2331
21432SOL    HW265718   7.561   4.481   9.037 -0.2869  0.1566 -0.6726
21433SOL     OW65719   8.175   0.586   0.840  0.0210  0.2429 -0.5872
21433SOL    HW165720   8.190   0.522   0.910 -0.5465 -0.1618 -0.8349
21433SOL    HW265721   8.263   0.613   0.813  0.2468  0.5387  0.4061
21434SOL     OW65722   8.374   5.614   5.612  0.1033 -0.2769 -0.1903
21434SOL    HW165723   8.444   5.666   5.652 -1.1994  1.4155 -0.0074
21434SOL    HW265724   8.368   5.646   5.522 -0.9457  0.1856  0.0259
21435SOL     OW65725   3.957   6.777   0.889  0.2939 -0.3403  0.1999
21435SOL    HW165726   3.925   6.696   0.850 -0.9609  0.0089  0.4685
21435SOL    HW265727   3.939   6.844   0.823  0.5965 -0.1614  0.2995
21436SOL     OW65728   7.285   2.422   8.780  0.0265 -0.2720 -0.2137
21436SOL    HW165729   7.273   2.394   8.871 -1.0417 -2.8419 -1.0529
21436SOL    HW265730   7.202   2.464   8.757  0.0365 -0.2535 -0.2152
21437SOL     OW65731   5.897   2.717   4.135  0.7279 -0.4932 -0.4794
21437SOL    HW165732   5.809   2.678   4.128  0.7774 -0.4484 -1.4239
21437SOL    HW265733   5.936   2.673   4.210  0.8903 -2.5271 -1.6803
21438SOL     OW65734   0.249   6.352   9.220  0.3629 -0.5939  0.0702
21438SOL    HW165735   0.283   6.263   9.235  0.4994 -0.6232 -0.3765
21438SOL    HW265736   0.167   6.339   9.172 -1.1110 -0.5839  2.4530
21439SOL     OW65737   5.812   8.974   8.518 -0.2112 -0.2596  0.1510
21439SOL    HW165738   5.739   8.958   8.458 -2.0008 -0.6063  2.3225
21439SOL    HW265739   5.784   9.049   8.570  2.0306  1.1003 -0.4725
21440SOL     OW65740   0.145   0.750   2.244  0.2811 -0.1002  0.4315
21440SOL    HW165741   0.115   0.767   2.155  2.2760  1.1316 -0.0743
21440SOL    HW265742   0.074   0.781   2.300 -0.3563  0.5629 -0.7065
21441SOL     OW65743   3.831   8.816   4.095  0.6153 -0.3229  0.0894
21441SOL    HW165744   3.795   8.787   4.012 -1.0738  1.5958  0.0724
21441SOL    HW265745   3.834   8.911   4.089 -1.7497  0.1002  2.9681
21442SOL     OW65746   6.586   5.961   8.668 -0.0589  0.6476 -0.4873
21442SOL    HW165747   6.560   6.051   8.688  1.8727  0.9179  1.0676
21442SOL    HW265748   6.681   5.963   8.661 -0.0365 -1.1031 -1.4740
21443SOL     OW65749   3.285   4.343   5.888  0.0992 -0.0068  0.1451
21443SOL    HW165750   3.372   4.322   5.922 -0.5685  1.0293  2.7889
21443SOL    HW265751   3.225   4.304   5.952 -1.3471  0.2541 -1.0055
21444SOL     OW65752   3.417   7.917   4.919  0.5688  0.7403  0.0295
21444SOL    HW165753   3.374   7.916   4.834 -0.9636 -1.1309  0.7585
21444SOL    HW265754   3.470   7.838   4.921 -2.9620 -1.9296  2.3493
21445SOL     OW65755   0.392   8.079   7.417  0.3543 -0.1651  0.6707
21445SOL    HW165756   0.404   8.082   7.511  1.5262  0.3616  0.5153
21445SOL    HW265757   0.297   8.072   7.405  0.2515 -1.1393  1.8913
21446SOL     OW65758   8.026   1.447   3.149  0.4656  0.2464 -0.2278
21446SOL    HW165759   7.975   1.366   3.157 -1.8191  1.5608 -0.3634
21446SOL    HW265760   8.110   1.427   3.190 -0.7895 -1.5743  1.6990
21447SOL     OW65761   2.025   0.024   2.542  0.2750 -0.5001  0.0269
21447SOL    HW165762   1.996  -0.047   2.599  1.0633 -1.4689 -0.7496
21447SOL    HW265763   2.083  -0.018   2.479  0.9895  0.8895 -0.2737
21448SOL     OW65764   5.354   7.082   3.763 -0.2564  0.3010  0.6952
21448SOL    HW165765   5.409   7.009   3.735 -1.1539 -0.3705  0.6769
21448SOL    HW265766   5.308   7.050   3.840 -0.6097  0.8717  0.7273
21449SOL     OW65767   7.885   8.931   5.108 -0.2561 -0.4500 -0.4165
21449SOL    HW165768   7.972   8.931   5.148 -1.4043  1.1360  2.3109
21449SOL    HW265769   7.874   9.019   5.072 -1.1768 -0.2049  0.4126
21450SOL     OW65770   5.943   3.905   2.644 -0.3220 -0.4709 -0.1744
21450SOL    HW165771   5.865   3.954   2.671 -0.2250 -0.9069  0.9108
21450SOL    HW265772   5.960   3.936   2.554 -1.8047 -0.4550 -0.4741
21451SOL     OW65773   8.160   8.676   5.554 -0.2388 -0.0822 -0.3016
21451SOL    HW165774   8.109   8.710   5.480 -1.1650 -0.9064 -0.0688
21451SOL    HW265775   8.204   8.598   5.520  0.5337  0.3811 -0.3816
21452SOL     OW65776   1.528   4.225   1.967  0.4604 -0.1906  0.3162
21452SOL    HW165777   1.561   4.238   2.056 -0.5869 -0.5227  0.7792
21452SOL    HW265778   1.433   4.213   1.979 -0.0445  1.9588 -1.0424
21453SOL     OW65779   8.709   7.491   6.809 -0.1393 -0.0756  0.0510
21453SOL    HW165780   8.785   7.453   6.764  0.1246  1.4004 -0.8068
21453SOL    HW265781   8.742   7.514   6.896  0.3433  0.4039 -0.2600
21454SOL     OW65782   1.570   0.561   4.399  0.5343  0.0786 -0.6522
21454SOL    HW165783   1.515   0.487   4.375  0.0132  0.1894  0.1667
21454SOL    HW265784   1.518   0.638   4.377  0.6765  0.1920 -0.5975
21455SOL     OW65785   3.062   4.688   3.926 -0.3540 -0.1534  0.7337
21455SOL    HW165786   3.144   4.730   3.952 -0.2776 -1.2670  2.4487
21455SOL    HW265787   3.080   4.594   3.933 -1.7367 -0.4118  1.0280
21456SOL     OW65788   2.275   1.025   5.357  0.7633  0.0138  0.3779
21456SOL    HW165789   2.249   0.933   5.345 -1.9049  0.6115  0.8465
21456SOL    HW265790   2.265   1.041   5.450  0.4142  0.9772  0.1875
21457SOL     OW65791   4.555   8.187   6.576  0.2772 -0.1544 -0.6205
21457SOL    HW165792   4.532   8.094   6.569 -1.6781  0.2307 -0.0971
21457SOL    HW265793   4.580   8.213   6.488  0.0649 -0.9999 -0.9359
21458SOL     OW65794   5.863   3.389   0.976 -0.2249 -0.0150  0.2451
21458SOL    HW165795   5.789   3.415   0.922 -2.8359 -2.8510  2.1033
21458SOL    HW265796   5.848   3.431   1.060  0.0651 -0.8896  0.7503
21459SOL     OW65797   5.174   7.422   7.398 -0.2365 -0.0134  0.2942
21459SOL    HW165798   5.088   7.380   7.405  1.3334 -4.2023 -2.0438
21459SOL    HW265799   5.171   7.470   7.316 -0.7156  1.1398  0.9529
21460SOL     OW65800   6.438   3.905   5.611  0.9802 -0.2490  0.2606
21460SOL    HW165801   6.436   4.000   5.623  0.8046 -0.1471 -0.5481
21460SOL    HW265802   6.401   3.891   5.524  1.9670 -0.9877 -0.0513
21461SOL     OW65803   3.859   9.104   5.676 -0.3306 -0.5139 -0.1841
21461SOL    HW165804   3.955   9.099   5.680 -0.3677 -1.6247 -0.2889
21461SOL    HW265805   3.835   9.046   5.603 -1.1252 -0.9029  0.3691
21462SOL     OW65806   1.365   7.075   1.992 -0.5137 -0.4085 -0.3395
21462SOL    HW165807   1.335   6.984   1.991 -0.2615 -0.4894 -0.6666
21462SOL    HW265808   1.370   7.097   2.085 -1.7669 -0.3266 -0.2829
21463SOL     OW65809   2.102   5.024   1.162  0.6457  0.1736 -0.5094
21463SOL    HW165810   2.036   5.092   1.149  0.6775  0.0239 -1.5281
21463SOL    HW265811   2.051   4.945   1.183  0.6518  0.7042  1.6659
21464SOL     OW65812   7.932   2.824   8.188 -0.2024  0.3148 -0.1321
21464SOL    HW165813   8.018   2.832   8.228  0.2188  0.9237 -1.1162
21464SOL    HW265814   7.884   2.764   8.245  1.2844 -1.0402 -0.2609
21465SOL     OW65815   6.045   2.649   6.638  0.2671  0.3474 -0.0800
21465SOL    HW165816   6.117   2.599   6.601 -1.3441 -2.2955  0.0861
21465SOL    HW265817   5.999   2.587   6.695 -2.1939  1.8346 -0.2695
21466SOL     OW65818   7.740   5.268   1.429 -0.3125  0.1998 -0.6691
21466SOL    HW165819   7.804   5.206   1.392  0.7998  1.1511 -0.3947
21466SOL    HW265820   7.670   5.212   1.463 -0.1796 -0.8171 -1.9768
21467SOL     OW65821   2.367   0.892   4.230 -0.4547 -0.2126 -0.5578
21467SOL    HW165822   2.388   0.958   4.296  1.5080 -1.0874 -0.2228
21467SOL    HW265823   2.307   0.832   4.274 -2.0097  1.1330 -0.7667
21468SOL     OW65824   8.109   9.027   6.222  0.1158  0.0042  0.2971
21468SOL    HW165825   8.143   9.095   6.164 -0.7568  2.5405  2.6034
21468SOL    HW265826   8.188   8.985   6.258  0.6596 -0.6241 -1.4767
21469SOL     OW65827   7.630   7.949   6.667  0.0660  0.4114  0.1341
21469SOL    HW165828   7.555   7.989   6.711 -0.1620  0.5947 -0.4134
21469SOL    HW265829   7.590   7.890   6.602  0.3964  0.4979 -0.1461
21470SOL     OW65830   1.795   6.767   1.443 -0.3017  0.5610  0.1494
21470SOL    HW165831   1.865   6.709   1.413 -0.1201  0.8790 -0.0542
21470SOL    HW265832   1.825   6.855   1.419  0.0679  0.8753  1.6622
21471SOL     OW65833   8.319   1.587   0.730 -0.4942 -0.0439 -0.3783
21471SOL    HW165834   8.282   1.577   0.642 -1.7667 -0.1457  0.1387
21471SOL    HW265835   8.253   1.548   0.788 -0.6250  1.8003  0.7983
21472SOL     OW65836   5.516   7.000   7.851  0.1652 -0.2797  0.1832
21472SOL    HW165837   5.527   6.909   7.824  0.1731  0.0721 -1.0521
21472SOL    HW265838   5.586   7.047   7.804  0.5959  0.2708  1.3329
21473SOL     OW65839   5.738   4.494   2.588  0.2232 -0.0280 -0.0038
21473SOL    HW165840   5.805   4.501   2.520 -1.7311  1.6417 -1.9139
21473SOL    HW265841   5.689   4.415   2.566 -0.7753  0.8227 -0.9932
21474SOL     OW65842   4.573   2.776   7.970  0.2490 -0.4517 -0.8146
21474SOL    HW165843   4.626   2.715   8.022  1.4247 -0.1406 -1.6387
21474SOL    HW265844   4.516   2.719   7.918 -2.3397 -0.8120  2.0494
21475SOL     OW65845   3.503   6.611   4.240  0.1208 -0.1872  0.3111
21475SOL    HW165846   3.554   6.565   4.307 -1.7741 -2.4625  0.2930
21475SOL    HW265847   3.439   6.663   4.289  0.7996  0.7117  0.2776
21476SOL     OW65848   0.244   0.377   2.119 -0.2622  0.3390 -0.5464
21476SOL    HW165849   0.165   0.329   2.144 -0.2350  0.7572  0.3914
21476SOL    HW265850   0.269   0.340   2.035 -2.9332  1.9617 -2.2016
21477SOL     OW65851   6.165   6.834   7.034  0.6949  0.3658 -0.2751
21477SOL    HW165852   6.223   6.771   7.076  0.6693  0.2476 -0.4148
21477SOL    HW265853   6.163   6.807   6.942 -1.2327 -0.9088  0.0938
21478SOL     OW65854   2.882   8.248   2.800  0.0215  0.1894  0.0347
21478SOL    HW165855   2.938   8.172   2.786 -0.9947 -0.3012 -1.6790
21478SOL    HW265856   2.796   8.221   2.767 -2.0701  0.0079  4.8471
21479SOL     OW65857   2.878   1.111   4.559 -0.1479 -0.5908  0.2752
21479SOL    HW165858   2.900   1.033   4.611  1.0881 -0.0548  0.6008
21479SOL    HW265859   2.855   1.077   4.473  0.5832 -1.3041  0.3506
21480SOL     OW65860   3.756   0.243   3.517 -0.3270 -0.4321  0.1216
21480SOL    HW165861   3.666   0.214   3.508 -0.8773  0.9813  0.7799
21480SOL    HW265862   3.797   0.178   3.574 -1.5637  0.0722  1.6702
21481SOL     OW65863   8.638   5.945   0.967 -0.8299 -0.2122 -0.3764
21481SOL    HW165864   8.555   5.977   0.932 -1.5849 -0.0797  1.4259
21481SOL    HW265865   8.612   5.891   1.043  0.6612 -1.2818 -0.5885
21482SOL     OW65866   0.265   1.889   8.996  0.0636  0.1031 -0.1961
21482SOL    HW165867   0.248   1.842   9.077 -0.2547 -2.3697 -1.5828
21482SOL    HW265868   0.360   1.895   8.990  0.1285 -0.7291 -0.1395
21483SOL     OW65869   0.106   3.510   0.000  0.2697 -0.2143  0.0724
21483SOL    HW165870   0.074   3.438   0.054  0.6368  1.8080  3.2406
21483SOL    HW265871   0.198   3.518   0.023  0.6266  0.3206 -1.4210
21484SOL     OW65872   3.221   5.173   7.357 -0.6562 -0.3813 -0.2772
21484SOL    HW165873   3.159   5.180   7.285 -0.1070 -1.1351 -0.8304
21484SOL    HW265874   3.299   5.219   7.327 -0.1493 -1.3413 -0.4956
21485SOL     OW65875   1.476   6.853   5.737  0.0482  0.0293 -0.2990
21485SOL    HW165876   1.414   6.796   5.783 -0.0459  0.5105  0.1800
21485SOL    HW265877   1.562   6.820   5.762 -0.0003  0.3573  0.3262
21486SOL     OW65878   1.380   7.238   3.180  0.0677 -0.1368  0.2978
21486SOL    HW165879   1.312   7.196   3.232 -2.4980  0.5273 -2.2379
21486SOL    HW265880   1.343   7.323   3.156  1.3066 -0.1593 -2.0210
21487SOL     OW65881   8.073   0.947   8.573 -0.3712 -0.6669  0.0356
21487SOL    HW165882   8.116   0.979   8.652 -0.7473 -0.7371  0.2710
21487SOL    HW265883   8.143   0.944   8.507 -0.4946  1.4261 -0.2473
21488SOL     OW65884   4.665   2.916   4.842  0.0072  0.8943 -0.1899
21488SOL    HW165885   4.725   2.914   4.916 -1.0086 -0.0499  0.6526
21488SOL    HW265886   4.596   2.977   4.869 -1.4226 -0.9258  0.5791
21489SOL     OW65887   8.398   5.187   4.663 -0.0226 -0.0160 -0.4502
21489SOL    HW165888   8.302   5.189   4.668 -0.1964  1.9123 -2.6143
21489SOL    HW265889   8.416   5.173   4.570  1.7824  0.1383 -0.1509
21490SOL     OW65890   1.186   8.057   7.417  0.3855 -0.8268 -0.2328
21490SOL    HW165891   1.091   8.059   7.430  0.4005  3.5418  0.7118
21490SOL    HW265892   1.196   8.053   7.321 -0.8594  0.0648 -0.4338
21491SOL     OW65893   1.891   1.840   0.859  0.4423 -0.3144 -0.2420
21491SOL    HW165894   1.873   1.862   0.950 -0.4376  0.1564 -0.5198
21491SOL    HW265895   1.820   1.780   0.834 -0.5696  1.2244 -1.2280
21492SOL     OW65896   2.280   2.388   7.927  0.1117  0.2606  0.1717
21492SOL    HW165897   2.329   2.457   7.883 -0.3498 -0.3246 -1.3342
21492SOL    HW265898   2.297   2.309   7.874 -3.2107  0.2209 -1.0904
21493SOL     OW65899   4.746   3.425   8.973 -0.0255 -0.4341  0.1556
21493SOL    HW165900   4.816   3.393   8.917 -0.2504  1.1285 -1.0738
21493SOL    HW265901   4.667   3.382   8.940 -0.9311  3.5116 -3.7383
21494SOL     OW65902   4.588   7.646   8.479 -0.7157  0.3323  0.3728
21494SOL    HW165903   4.626   7.730   8.451 -2.1463  1.1721  0.8323
21494SOL    HW265904   4.570   7.600   8.397  2.0992 -0.5546  0.1265
21495SOL     OW65905   3.087   4.224   6.764  0.2343 -0.4256  0.4627
21495SOL    HW165906   2.992   4.231   6.760  0.3533  1.3439 -1.0391
21495SOL    HW265907   3.104   4.160   6.832 -2.0371 -1.2904  0.2997
21496SOL     OW65908   6.015   2.272   0.397 -0.6767  0.6574 -0.0531
21496SOL    HW165909   5.964   2.297   0.320  1.2159 -0.1720 -1.6992
21496SOL    HW265910   5.956   2.219   0.450 -1.7588  0.3614 -1.4912
21497SOL     OW65911   8.652   2.372   0.289 -0.3383  0.0313  0.6724
21497SOL    HW165912   8.640   2.421   0.370 -0.7892  1.1875 -0.0624
21497SOL    HW265913   8.634   2.435   0.220 -0.2688 -1.0070 -0.3318
21498SOL     OW65914   9.228   2.899   4.475 -0.3114  0.6646 -0.6669
21498SOL    HW165915   9.145   2.946   4.465 -0.1840  0.6407 -1.9158
21498SOL    HW265916   9.256   2.880   4.386  0.6527 -0.0217 -0.2307
21499SOL     OW65917   0.837   3.419   7.762  0.2503  0.0111  0.2126
21499SOL    HW165918   0.896   3.484   7.800 -0.4304  0.6649  0.1772
21499SOL    HW265919   0.851   3.340   7.815  1.7592 -0.1121 -0.3286
21500SOL     OW65920   4.642   7.775   0.957 -0.1841 -0.1820  0.7248
21500SOL    HW165921   4.605   7.734   1.035 -0.6508 -0.7851  0.1919
21500SOL    HW265922   4.731   7.739   0.951 -0.3080 -0.4843  0.7182
21501SOL     OW65923   8.284   5.849   4.605 -0.7935 -0.3282  0.4978
21501SOL    HW165924   8.207   5.901   4.628 -1.0370 -0.8899  0.9818
21501SOL    HW265925   8.357   5.896   4.645 -0.6001  1.2674 -1.5540
21502SOL     OW65926   3.012   8.998   7.633  0.5296 -0.5720 -0.2246
21502SOL    HW165927   3.027   8.914   7.676 -0.0691 -1.0734 -0.9644
21502SOL    HW265928   2.917   9.010   7.635  0.7289  1.2515  1.9902
21503SOL     OW65929   2.305   4.286   8.178  0.6435 -0.7627  0.4142
21503SOL    HW165930   2.217   4.313   8.152  0.4079 -0.1849  1.7389
21503SOL    HW265931   2.337   4.234   8.104 -0.9425 -1.2809  0.0481
21504SOL     OW65932   7.760   2.919   3.118  0.1020 -0.2462  0.0805
21504SOL    HW165933   7.821   2.963   3.060 -0.9374  0.2343 -0.6671
21504SOL    HW265934   7.755   2.976   3.195 -0.4889  0.4690 -0.4700
21505SOL     OW65935   8.109   2.040   6.876 -0.2646  0.6336 -0.3888
21505SOL    HW165936   8.059   2.040   6.958  2.0365 -0.1757  1.1190
21505SOL    HW265937   8.194   2.077   6.900  0.4624  0.4351 -2.4533
21506SOL     OW65938   8.739   5.700   1.349 -0.0613  0.1789  0.4207
21506SOL    HW165939   8.724   5.659   1.434 -0.5493  1.3082  0.8895
21506SOL    HW265940   8.806   5.765   1.365  1.5205 -1.1389 -0.5570
21507SOL     OW65941   2.026   1.916   0.357  0.2362  0.2497  0.4030
21507SOL    HW165942   2.013   1.899   0.450 -0.8177  1.4428  0.5058
21507SOL    HW265943   1.949   1.968   0.332  0.9606  0.7186 -0.9190
21508SOL     OW65944   4.755   3.940   6.058 -0.5489 -0.5416  0.0458
21508SOL    HW165945   4.784   3.904   6.142 -0.6734 -1.4869 -0.3031
21508SOL    HW265946   4.767   3.868   5.996  0.1318  0.3512 -0.8736
21509SOL     OW65947   3.958   5.312   2.952 -0.2256  0.8122 -0.0387
21509SOL    HW165948   3.971   5.254   3.027 -0.5042  0.4400 -0.2730
21509SOL    HW265949   4.045   5.321   2.913 -0.2093  0.4024 -0.1040
21510SOL     OW65950   0.534   0.275   7.987 -0.5832  0.0092  0.1700
21510SOL    HW165951   0.577   0.256   8.070  1.1554  1.0521 -0.4482
21510SOL    HW265952   0.459   0.330   8.011 -0.2086  0.1397  1.0761
21511SOL     OW65953   1.729   7.528   8.347 -0.1655 -0.5234 -0.8271
21511SOL    HW165954   1.774   7.507   8.429 -1.7485 -2.6520 -0.4115
21511SOL    HW265955   1.792   7.504   8.278  1.6689  2.4388 -0.3674
21512SOL     OW65956   1.846   3.625   8.979 -0.0834 -0.1446  0.1451
21512SOL    HW165957   1.914   3.566   9.012 -0.0905 -0.0157  0.3902
21512SOL    HW265958   1.765   3.593   9.019 -0.2471 -0.5912 -0.5158
21513SOL     OW65959   6.383   4.787   1.375 -0.1911  0.0672 -0.0612
21513SOL    HW165960   6.471   4.802   1.340  1.4571 -2.6343  2.4927
21513SOL    HW265961   6.360   4.869   1.418  2.4121 -0.0068  1.6874
21514SOL     OW65962   3.962   5.113   5.842  0.8409  0.2634 -0.3009
21514SOL    HW165963   3.869   5.127   5.863  1.0940  1.2502  0.2065
21514SOL    HW265964   3.999   5.201   5.838  1.7594 -0.1255 -0.5146
21515SOL     OW65965   6.742   3.592   6.395 -0.2469 -0.2694  0.2567
21515SOL    HW165966   6.654   3.561   6.372  0.1450 -1.7981  0.6621
21515SOL    HW265967   6.740   3.686   6.380 -2.8019  0.2146  2.8554
21516SOL     OW65968   5.413   2.036   1.254 -0.1081 -0.3782  0.6141
21516SOL    HW165969   5.450   1.965   1.201  0.6473  0.6467 -0.2913
21516SOL    HW265970   5.377   2.097   1.190  0.0145  0.4658  1.3342
21517SOL     OW65971   0.270   3.093   5.646 -0.0822 -0.5330  0.1493
21517SOL    HW165972   0.212   3.126   5.578 -0.3326 -2.5459 -0.6968
21517SOL    HW265973   0.217   3.093   5.726 -0.1607  0.7133  0.1217
21518SOL     OW65974   2.774   8.577   0.978  0.3071  0.3809  0.1382
21518SOL    HW165975   2.768   8.672   0.981  0.2142  0.4045 -0.5347
21518SOL    HW265976   2.867   8.559   0.967  0.4655  0.3438  1.3918
21519SOL     OW65977   4.860   4.999   3.451  0.9546  0.1480 -0.4534
21519SOL    HW165978   4.923   4.928   3.458  0.8339  0.0444 -0.4324
21519SOL    HW265979   4.900   5.060   3.389  0.1145 -0.9194 -2.1077
21520SOL     OW65980   5.164   5.328   6.479 -0.0392  0.6374  0.1183
21520SOL    HW165981   5.136   5.318   6.570 -0.8354 -1.0549 -0.2821
21520SOL    HW265982   5.258   5.341   6.484 -0.0228  0.1811  1.1738
21521SOL     OW65983   3.605   1.358   4.403 -0.3991 -0.3610 -0.0788
21521SOL    HW165984   3.521   1.313   4.406  0.0504 -1.5397 -2.5985
21521SOL    HW265985   3.595   1.425   4.336  0.5635 -0.2908 -0.1787
21522SOL     OW65986   5.358   2.258   0.059 -0.0772  0.1490  0.1060
21522SOL    HW165987   5.364   2.179   0.113  0.5585  0.8714  1.1334
21522SOL    HW265988   5.435   2.309   0.083  2.3494 -1.0442 -4.1232
21523SOL     OW65989   3.771   2.875   4.358 -0.4020 -0.2980  0.0058
21523SOL    HW165990   3.693   2.834   4.321  0.2838 -1.8012  0.1032
21523SOL    HW265991   3.758   2.872   4.453 -0.2722 -0.4797  0.0195
21524SOL     OW65992   2.768   7.256   4.430 -0.1645  0.1208 -0.3420
21524SOL    HW165993   2.730   7.273   4.344 -0.5364  1.1130  0.0041
21524SOL    HW265994   2.827   7.330   4.445  2.3182 -1.6139 -1.0600
21525SOL     OW65995   0.449   2.108   2.356  0.1171  0.2010 -0.1472
21525SOL    HW165996   0.434   2.178   2.292  1.3629  0.1009 -0.5762
21525SOL    HW265997   0.432   2.149   2.441 -1.3258  0.4022 -0.5082
21526SOL     OW65998   0.416   7.058   0.135  1.1145 -0.3254 -0.1276
21526SOL    HW165999   0.340   7.000   0.136  0.7642  0.0721 -1.7503
21526SOL    HW266000   0.411   7.105   0.218 -0.2999 -0.4481 -0.1247
21527SOL     OW66001   8.172   2.663   2.808  0.5476 -0.3033 -0.3358
21527SOL    HW166002   8.229   2.649   2.884 -0.1610 -0.9523  0.0892
21527SOL    HW266003   8.094   2.705   2.844  1.4825  2.3647 -1.1881
21528SOL     OW66004   4.600   7.721   7.535  0.0864  0.0077 -0.5621
21528SOL    HW166005   4.587   7.796   7.478  0.0849  0.8836  0.5742
21528SOL    HW266006   4.561   7.647   7.486  0.6615  0.5995 -1.9631
21529SOL     OW66007   0.280   1.467   3.429  0.0929  0.0155  0.0873
21529SOL    HW166008   0.206   1.428   3.382 -0.1216  1.1421 -0.5326
21529SOL    HW266009   0.334   1.392   3.455  0.0505 -0.6608 -1.6506
21530SOL     OW66010   6.120   1.561   6.957 -0.0875  0.2453  0.0391
21530SOL    HW166011   6.119   1.628   6.889 -0.0167  0.5086  0.2959
21530SOL    HW266012   6.213   1.539   6.968 -0.2350 -1.4431 -1.5440
21531SOL     OW66013   0.015   1.030   4.541 -0.4481 -0.3738 -0.2948
21531SOL    HW166014  -0.056   1.094   4.553  0.2833  0.3142  0.4365
21531SOL    HW266015   0.075   1.072   4.480 -0.2212 -0.5878 -0.2200
21532SOL     OW66016   5.375   6.129   6.059  0.3288 -0.3023 -0.0568
21532SOL    HW166017   5.443   6.079   6.014  1.2480  0.6158  0.2462
21532SOL    HW266018   5.366   6.209   6.007 -2.2873 -1.4167 -1.4717
21533SOL     OW66019   5.604   7.111   1.861 -0.6099  0.0622 -0.1204
21533SOL    HW166020   5.612   7.120   1.956  0.5136  0.2609 -0.2225
21533SOL    HW266021   5.688   7.075   1.832 -0.1772  1.8135 -1.2375
21534SOL     OW66022   9.143   6.592   9.195  0.4368 -0.1960  0.0905
21534SOL    HW166023   9.219   6.569   9.247  0.6506 -0.0368 -0.1476
21534SOL    HW266024   9.163   6.679   9.160 -0.7694  0.8223  1.7721
21535SOL     OW66025   1.957   1.403   7.365  0.1074  0.8583 -0.0044
21535SOL    HW166026   2.033   1.389   7.309  0.4272  0.6347  0.4837
21535SOL    HW266027   1.942   1.498   7.363  0.4159  0.9048 -0.0714
21536SOL     OW66028   3.336   5.515   6.563  0.3298 -0.2362  0.1268
21536SOL    HW166029   3.419   5.469   6.573 -0.9658 -2.7262  0.2139
21536SOL    HW266030   3.274   5.448   6.533 -1.3131  1.8604 -1.5778
21537SOL     OW66031   2.849   6.377   3.715 -0.8204  0.1461 -0.4414
21537SOL    HW166032   2.894   6.299   3.683  0.3661  0.4334  0.4531
21537SOL    HW266033   2.898   6.450   3.677  0.6083  0.4984  1.8918
21538SOL     OW66034   3.957   7.810   7.357 -1.0519 -0.0172 -0.1280
21538SOL    HW166035   3.871   7.772   7.337 -0.9693 -0.3377  0.0994
21538SOL    HW266036   3.986   7.762   7.435 -0.4917 -0.1938 -0.4348
21539SOL     OW66037   4.446   5.266   7.827 -0.2318 -0.8061  0.1436
21539SOL    HW166038   4.454   5.171   7.836 -2.6004 -0.8648  3.6210
21539SOL    HW266039   4.369   5.279   7.773 -0.6246 -0.9239  0.6652
21540SOL     OW66040   1.967   0.569   3.903 -0.2584  0.9398  0.0422
21540SOL    HW166041   1.943   0.659   3.881  0.7940  1.5465  1.2821
21540SOL    HW266042   2.058   0.561   3.877 -0.4821  0.0375 -0.5419
21541SOL     OW66043   4.616   1.642   3.880 -0.6549 -0.7295  0.3689
21541SOL    HW166044   4.548   1.581   3.908 -1.3075 -0.7559 -1.1558
21541SOL    HW266045   4.594   1.661   3.789  0.9888 -0.1884  0.0593
21542SOL     OW66046   2.801   5.026   8.129  0.0274 -0.3629  0.3023
21542SOL    HW166047   2.862   5.050   8.199  2.9043 -2.4402 -1.2700
21542SOL    HW266048   2.828   5.081   8.055 -1.2347 -0.0827  0.0193
21543SOL     OW66049   7.371   5.192   6.858 -0.1383  0.4794  0.0148
21543SOL    HW166050   7.373   5.132   6.783 -1.3060  0.1175  0.2661
21543SOL    HW266051   7.369   5.134   6.934 -2.7041  0.7657  0.2394
21544SOL     OW66052   8.526   7.826   8.384 -0.1467  0.1122  0.5902
21544SOL    HW166053   8.477   7.824   8.302 -1.4446 -1.7399  1.3252
21544SOL    HW266054   8.488   7.755   8.436  0.1399  1.6555  3.0825
21545SOL     OW66055   6.684   5.582   4.914  0.0941  0.1338 -0.1107
21545SOL    HW166056   6.656   5.671   4.893  1.0861  0.1514 -1.4490
21545SOL    HW266057   6.769   5.593   4.957  0.6339 -0.1887 -1.0626
21546SOL     OW66058   5.061   4.095   9.214 -0.0264  0.5313 -0.4252
21546SOL    HW166059   5.047   4.139   9.130  3.2152 -0.0227 -1.3870
21546SOL    HW266060   5.081   4.165   9.275 -0.7297  0.8019 -0.4955
21547SOL     OW66061   7.529   1.821   6.394  0.2992 -0.4603  0.2497
21547SOL    HW166062   7.504   1.905   6.357  0.7830  0.5931  2.1668
21547SOL    HW266063   7.496   1.824   6.484  0.2664 -2.3612  0.3432
21548SOL     OW66064   1.832   3.043   7.014 -0.0064  0.0804  0.0978
21548SOL    HW166065   1.911   2.989   7.019  0.1107  0.2988  0.7083
21548SOL    HW266066   1.760   2.981   7.008  0.2117 -0.1198 -0.5033
21549SOL     OW66067   7.783   2.543   7.763  0.3990 -0.2550  0.0610
21549SOL    HW166068   7.740   2.601   7.700  1.2543  0.0867 -0.2120
21549SOL    HW266069   7.810   2.602   7.834 -1.1341 -0.7234  1.0854
21550SOL     OW66070   6.072   1.638   3.971  0.5218  0.7030  0.2107
21550SOL    HW166071   6.118   1.558   3.946 -0.0169  0.1857  0.8211
21550SOL    HW266072   6.054   1.626   4.064  0.8201  1.7381  0.4168
21551SOL     OW66073   3.855   6.919   1.384  0.4061  0.1683  0.6466
21551SOL    HW166074   3.781   6.878   1.339 -0.0591  0.0689  1.4890
21551SOL    HW266075   3.836   7.013   1.380  0.8546  0.2341 -0.2005
21552SOL     OW66076   4.542   3.079   0.794 -0.0816 -0.1406 -0.7796
21552SOL    HW166077   4.523   2.989   0.820  1.1705 -0.0196  0.7064
21552SOL    HW266078   4.516   3.132   0.870 -0.4310  0.7110 -1.4820
21553SOL     OW66079   8.314   0.754   8.293  0.0503  1.0031  0.7594
21553SOL    HW166080   8.269   0.734   8.211  1.7177  2.5568 -0.6118
21553SOL    HW266081   8.310   0.673   8.343 -0.9155 -0.0138 -0.8878
21554SOL     OW66082   8.160   1.120   4.225  0.0412  0.4264 -0.1375
21554SOL    HW166083   8.254   1.101   4.237  0.2443  1.4990  0.0614
21554SOL    HW266084   8.156   1.169   4.143 -0.4554 -0.3299 -0.5752
21555SOL     OW66085   1.175   4.932   8.901 -0.2544 -0.1758  0.2534
21555SOL    HW166086   1.243   4.893   8.845  0.8548  2.1575 -0.1536
21555SOL    HW266087   1.140   4.858   8.950  3.0380 -1.4541  0.9868
21556SOL     OW66088   8.245   1.254   7.939  0.1969  0.3026  0.1003
21556SOL    HW166089   8.277   1.344   7.942  0.1342  0.3127  1.2575
21556SOL    HW266090   8.155   1.263   7.907 -0.5203  0.9175  2.1184
21557SOL     OW66091   5.326   8.806   4.726  0.2008  0.1600 -0.1030
21557SOL    HW166092   5.239   8.778   4.698  1.3062 -2.7306 -0.9463
21557SOL    HW266093   5.353   8.869   4.659 -0.5381 -0.2997 -0.8565
21558SOL     OW66094   3.041   0.802   4.150 -0.9861 -0.2964  0.7743
21558SOL    HW166095   2.962   0.792   4.096 -0.3075  0.9889 -0.5184
21558SOL    HW266096   3.101   0.852   4.096 -0.8084  2.4813  3.2488
21559SOL     OW66097   8.356   6.009   6.106 -0.1947 -0.5505 -0.1918
21559SOL    HW166098   8.347   6.099   6.138  0.2199 -0.4766 -0.2761
21559SOL    HW266099   8.402   5.963   6.177 -0.2225 -0.6458 -0.2350
21560SOL     OW66100   2.063   3.629   0.369 -0.1793  0.5115  0.6626
21560SOL    HW166101   2.152   3.620   0.337 -0.3638 -0.3816  0.3608
21560SOL    HW266102   2.010   3.580   0.307 -0.8453  0.7670  1.0126
21561SOL     OW66103   0.550   7.322   0.715 -0.6196 -0.2284 -0.0162
21561SOL    HW166104   0.590   7.321   0.802 -0.2737 -1.5228 -0.1718
21561SOL    HW266105   0.514   7.411   0.706 -0.6196 -0.0577  1.4191
21562SOL     OW66106   0.779   4.028   7.693 -0.2734 -0.1462  0.5907
21562SOL    HW166107   0.704   3.986   7.736 -0.8502  1.1280  0.8785
21562SOL    HW266108   0.757   4.030   7.600 -0.2373 -0.4794  0.5744
21563SOL     OW66109   4.705   3.700   8.912 -0.8956 -0.4155 -0.2169
21563SOL    HW166110   4.696   3.605   8.921 -2.8090 -0.3892 -1.3703
21563SOL    HW266111   4.718   3.731   9.001 -0.2960 -1.7361  0.1901
21564SOL     OW66112   1.740   6.325   6.789 -0.0278 -0.3809  0.0349
21564SOL    HW166113   1.820   6.350   6.835 -0.7272 -2.0131  2.3327
21564SOL    HW266114   1.771   6.292   6.705  1.8041 -1.1998  0.9484
21565SOL     OW66115   1.938   5.848   4.058 -0.4770  0.6169  0.1888
21565SOL    HW166116   1.886   5.900   4.119  0.7849  1.4698  0.5757
21565SOL    HW266117   1.928   5.893   3.974 -0.3514  0.7864  0.2644
21566SOL     OW66118   1.067   2.504   3.714  0.4363 -0.2662  0.3972
21566SOL    HW166119   1.024   2.560   3.650 -0.7338 -1.5633 -0.0009
21566SOL    HW266120   1.032   2.533   3.799 -1.0165 -1.0779  0.1035
21567SOL     OW66121   0.201   6.599   4.405 -0.2498 -0.3850 -0.2729
21567SOL    HW166122   0.208   6.667   4.338  1.5859  1.1583  1.3260
21567SOL    HW266123   0.160   6.643   4.480  2.1363 -0.5396  1.2447
21568SOL     OW66124   7.649   8.379   0.373  0.0563  0.3156  0.1330
21568SOL    HW166125   7.638   8.422   0.288 -3.0365 -2.4311 -1.1066
21568SOL    HW266126   7.583   8.419   0.429 -0.4612 -0.3545  0.0261
21569SOL     OW66127   0.651   1.507   3.346  0.4240 -0.1986 -0.2828
21569SOL    HW166128   0.726   1.484   3.290  0.2809 -1.7725  0.1292
21569SOL    HW266129   0.583   1.534   3.285  0.8247 -0.2261 -0.7517
21570SOL     OW66130   0.055   1.071   7.473  0.1264 -0.4565  0.0658
21570SOL    HW166131   0.071   1.089   7.381  0.2079 -1.5017 -0.1348
21570SOL    HW266132  -0.032   1.030   7.475 -0.4809  0.7787  0.6146
21571SOL     OW66133   2.981   8.232   4.105  0.1471 -0.1334  0.0144
21571SOL    HW166134   2.915   8.272   4.048 -0.3560 -0.6077  0.2594
21571SOL    HW266135   2.981   8.286   4.184 -0.3724 -0.4757  0.2538
21572SOL     OW66136   8.853   7.057   0.859  0.8168  0.4278  0.0551
21572SOL    HW166137   8.854   7.141   0.813 -1.6043  0.5615  0.0951
21572SOL    HW266138   8.836   6.993   0.791 -0.5004  0.3682  0.4119
21573SOL     OW66139   4.686   2.334   1.460 -0.4571  0.1589 -0.5590
21573SOL    HW166140   4.704   2.298   1.547 -3.0217  0.3727  0.1542
21573SOL    HW266141   4.730   2.274   1.400  0.4793 -0.6167  0.8446
21574SOL     OW66142   7.232   0.150   4.821 -0.1279  0.1519  0.1314
21574SOL    HW166143   7.234   0.228   4.876  0.3141  0.4666 -0.3222
21574SOL    HW266144   7.153   0.103   4.848  1.3709 -1.0383  2.8860
21575SOL     OW66145   0.867   5.153   0.392  0.3396 -0.0203  0.1215
21575SOL    HW166146   0.892   5.244   0.407 -0.7897  0.2559  0.4070
21575SOL    HW266147   0.895   5.107   0.472 -1.1177  0.5130  0.9758
21576SOL     OW66148   6.485   5.518   9.025  0.1427 -0.1451  0.1196
21576SOL    HW166149   6.413   5.544   8.966  1.3453  1.7808 -0.5764
21576SOL    HW266150   6.502   5.596   9.077  0.7406 -1.0737  1.3431
21577SOL     OW66151   8.743   5.724   8.591 -0.2644  0.3213 -0.0878
21577SOL    HW166152   8.657   5.762   8.607 -0.2154 -0.1220  1.4225
21577SOL    HW266153   8.760   5.670   8.669  0.3227 -1.5562 -1.4488
21578SOL     OW66154   6.779   7.041   6.887  0.1532 -0.0127 -0.4170
21578SOL    HW166155   6.745   6.968   6.837  1.1027 -0.5842 -0.2591
21578SOL    HW266156   6.702   7.093   6.911 -0.4011 -0.2450 -1.6342
21579SOL     OW66157   7.490   2.454   6.507  0.0523  0.2856  0.1716
21579SOL    HW166158   7.531   2.514   6.571 -1.5577  0.1740  1.3518
21579SOL    HW266159   7.531   2.369   6.525  1.6107  0.7681 -0.8378
21580SOL     OW66160   4.053   1.734   2.917  0.2741 -0.0624  0.2806
21580SOL    HW166161   4.064   1.743   3.012  0.5828  0.1666  0.2263
21580SOL    HW266162   4.044   1.640   2.903  3.0866 -0.4166  0.2633
21581SOL     OW66163   2.377   1.294   8.580  0.8005 -0.7081 -0.5250
21581SOL    HW166164   2.401   1.205   8.553  2.3631 -0.8971  1.2512
21581SOL    HW266165   2.415   1.303   8.668 -2.6201  0.3692  1.0281
21582SOL     OW66166   7.926   1.594   5.131 -0.5063  0.6305 -0.0909
21582SOL    HW166167   7.860   1.525   5.138  0.1611 -0.0137 -0.0607
21582SOL    HW266168   7.927   1.617   5.038 -0.0060 -0.1290 -0.2784
21583SOL     OW66169   1.831   2.357   4.224  0.6722  0.1541 -0.3074
21583SOL    HW166170   1.896   2.318   4.282 -0.3253  0.5780  1.1768
21583SOL    HW266171   1.777   2.284   4.194  0.5052  0.0501  0.2338
21584SOL     OW66172   5.388   2.229   7.139 -0.1589  0.9154 -0.0993
21584SOL    HW166173   5.391   2.223   7.235 -0.3753 -1.6505 -0.1663
21584SOL    HW266174   5.467   2.275   7.115 -0.4641  2.2740  1.3382
21585SOL     OW66175   1.256   9.143   7.113  0.6444  0.4208 -0.1206
21585SOL    HW166176   1.232   9.176   7.026  0.5418  0.6353 -0.0119
21585SOL    HW266177   1.336   9.093   7.098  1.5623  1.8194 -0.0969
21586SOL     OW66178   4.258   8.828   3.616  0.5010  0.1178  0.2151
21586SOL    HW166179   4.190   8.882   3.656 -0.4941 -1.0109  0.0923
21586SOL    HW266180   4.240   8.739   3.648  0.1545 -0.6968 -2.0960
21587SOL     OW66181   8.017   0.018   1.809 -0.1319 -0.0531 -0.4369
21587SOL    HW166182   7.955   0.049   1.743 -0.5473 -0.3320 -0.1860
21587SOL    HW266183   7.971   0.031   1.892  0.6650  0.9576 -0.1405
21588SOL     OW66184   0.831   7.249   6.089  0.3398  0.1163 -0.5752
21588SOL    HW166185   0.806   7.158   6.103 -1.1762  0.7717  1.4526
21588SOL    HW266186   0.916   7.244   6.044 -0.2025 -2.2460 -1.4792
21589SOL     OW66187   1.442   0.083   1.494 -0.0065 -0.4831  0.2547
21589SOL    HW166188   1.425   0.177   1.494 -1.5917 -0.7382  0.3147
21589SOL    HW266189   1.362   0.044   1.529  0.5940 -1.8645  0.1678
21590SOL     OW66190   0.832   6.328   2.814  0.2515 -0.1544  0.0439
21590SOL    HW166191   0.841   6.397   2.880  1.8450  0.3450 -0.6512
21590SOL    HW266192   0.889   6.258   2.845 -0.7307 -0.8632  0.3194
21591SOL     OW66193   0.520   1.430   8.911 -0.2203  0.2990  0.1847
21591SOL    HW166194   0.491   1.398   8.997 -1.3043 -0.0334 -0.2931
21591SOL    HW266195   0.506   1.524   8.914 -0.9702  0.1938  0.1116
21592SOL     OW66196   0.536   8.776   8.566 -0.5777 -0.3324 -0.3666
21592SOL    HW166197   0.522   8.837   8.493 -0.8051  1.4760  1.0978
21592SOL    HW266198   0.623   8.797   8.598 -0.7016 -0.7229  0.2304
21593SOL     OW66199   6.960   8.297   0.461  0.2634 -0.0871  0.6246
21593SOL    HW166200   7.045   8.299   0.416  0.0507  0.0816  0.2258
21593SOL    HW266201   6.896   8.298   0.390 -0.1422  2.6587  0.9213
21594SOL     OW66202   6.125   2.123   7.589 -0.1295  0.0736  0.0239
21594SOL    HW166203   6.111   2.053   7.525  1.5673  0.1300 -0.4588
21594SOL    HW266204   6.058   2.188   7.568 -0.4835 -0.5336 -0.8048
21595SOL     OW66205   4.826   1.746   4.028 -0.3575  0.3216 -0.0121
21595SOL    HW166206   4.830   1.680   4.098 -0.0323 -0.3576 -0.6535
21595SOL    HW266207   4.746   1.725   3.980  0.0273  0.0572 -0.5402
21596SOL     OW66208   8.323   6.959   0.767  0.3952  0.1968 -0.6450
21596SOL    HW166209   8.416   6.946   0.785  0.5602 -0.8665 -2.0543
21596SOL    HW266210   8.319   7.047   0.729  1.0404 -0.2337 -1.7702
21597SOL     OW66211   5.160   9.020   2.499 -0.0697  0.1109  0.5298
21597SOL    HW166212   5.079   9.062   2.471 -0.5329 -1.0038  0.1369
21597SOL    HW266213   5.216   9.092   2.527 -1.2952  0.8776  1.0686
21598SOL     OW66214   4.699   3.625   1.989  0.1909  0.0286 -0.2964
21598SOL    HW166215   4.670   3.668   1.909  0.9735 -1.0559 -1.1976
21598SOL    HW266216   4.755   3.553   1.959 -0.1144 -0.8767  1.1883
21599SOL     OW66217   2.637   5.777   0.732 -0.0988 -0.2600 -0.2702
21599SOL    HW166218   2.615   5.692   0.770 -1.9048  0.1769 -0.2692
21599SOL    HW266219   2.727   5.794   0.762  0.2011 -2.0273 -0.0571
21600SOL     OW66220   5.174   1.543   1.358  0.0330  0.3596  0.5314
21600SOL    HW166221   5.100   1.523   1.300  0.9047 -1.0999 -0.1552
21600SOL    HW266222   5.143   1.613   1.415 -1.4596  0.5977 -0.5365
21601SOL     OW66223   2.986   7.326   2.960  0.6464  0.0897  0.2357
21601SOL    HW166224   3.075   7.291   2.957  0.0627 -1.5540  0.7308
21601SOL    HW266225   2.950   7.292   3.042 -1.5884 -2.3122 -1.5878
21602SOL     OW66226   5.529   2.952   6.945  0.5346 -0.3778 -0.0502
21602SOL    HW166227   5.490   2.888   7.005  0.2297  0.1119  0.2791
21602SOL    HW266228   5.623   2.939   6.954  0.6333  1.2867  2.3528
21603SOL     OW66229   1.396   8.198   3.350  0.3758  0.2826  0.7848
21603SOL    HW166230   1.446   8.117   3.353 -0.7559 -0.4244  1.1724
21603SOL    HW266231   1.359   8.207   3.438 -0.3609  0.6717  0.4421
21604SOL     OW66232   4.800   6.238   0.153  0.1875  0.2817 -0.6029
21604SOL    HW166233   4.869   6.261   0.215 -1.1561  1.0065  0.6815
21604SOL    HW266234   4.836   6.264   0.068  1.7505  0.0117 -0.0577
21605SOL     OW66235   7.965   6.650   8.485  0.1581 -0.4551 -0.3628
21605SOL    HW166236   7.964   6.714   8.414 -1.5406 -0.8433 -0.7329
21605SOL    HW266237   7.879   6.609   8.481  0.2711 -0.9468  1.5206
21606SOL     OW66238   8.035   5.281   5.839 -0.0053  0.1805 -0.1782
21606SOL    HW166239   8.092   5.308   5.912 -0.5868  1.6106 -0.2128
21606SOL    HW266240   7.969   5.350   5.834 -1.6928 -1.3661 -0.2333
21607SOL     OW66241   0.487   1.652   6.778  0.2933 -0.9179 -0.3170
21607SOL    HW166242   0.567   1.601   6.790  0.5384 -0.2257  1.0887
21607SOL    HW266243   0.516   1.735   6.741  0.2706 -0.5432  0.4939
21608SOL     OW66244   8.592   1.607   3.611  0.6311  0.0677  0.2688
21608SOL    HW166245   8.563   1.697   3.597 -1.9618 -0.7935 -0.4750
21608SOL    HW266246   8.686   1.614   3.627  0.4557  2.9125  0.5316
21609SOL     OW66247   6.538   0.947   6.631  0.2177 -0.1605  0.2209
21609SOL    HW166248   6.567   0.908   6.713 -1.0102 -1.2542  0.1732
21609SOL    HW266249   6.619   0.968   6.584  0.9214 -0.5729  1.2218
21610SOL     OW66250   3.649   4.356   7.595 -0.1164 -0.6344 -0.0987
21610SOL    HW166251   3.732   4.333   7.636 -0.1166 -0.4309  0.0210
21610SOL    HW266252   3.641   4.297   7.520  0.1380 -0.6523 -0.1124
21611SOL     OW66253   0.519   5.950   0.711 -0.5990 -0.9456 -0.2373
21611SOL    HW166254   0.522   5.972   0.618 -0.8147 -0.5252 -0.1486
21611SOL    HW266255   0.450   5.884   0.718  0.1216 -1.7459 -0.5223
21612SOL     OW66256   4.140   5.991   1.211 -0.2842  0.0414  0.4286
21612SOL    HW166257   4.147   5.896   1.222  1.1817  0.2022  1.0578
21612SOL    HW266258   4.073   6.018   1.275  0.0093 -0.4484  0.9482
21613SOL     OW66259   7.861   5.694   4.574  0.3610 -0.1056  0.0747
21613SOL    HW166260   7.901   5.651   4.649  0.9237  1.3042  0.6086
21613SOL    HW266261   7.911   5.662   4.499 -0.4138 -1.7740  0.2341
21614SOL     OW66262   4.912   2.731   4.565 -0.0731 -0.0117 -0.4393
21614SOL    HW166263   4.949   2.811   4.601 -0.1600  0.5079 -1.4778
21614SOL    HW266264   4.888   2.679   4.642  3.2893 -0.6342  0.3504
21615SOL     OW66265   7.397   5.942   2.840  0.0082 -0.1000  0.3628
21615SOL    HW166266   7.338   5.875   2.804 -1.5743  1.4168  0.0243
21615SOL    HW266267   7.374   5.946   2.933 -0.0918  0.1479  0.3280
21616SOL     OW66268   3.448   4.392   0.653 -0.1078 -0.5699 -0.1026
21616SOL    HW166269   3.433   4.485   0.668 -1.0861 -0.4678 -1.5470
21616SOL    HW266270   3.361   4.353   0.649  0.2139 -1.2478 -1.2037
21617SOL     OW66271   8.517   5.551   8.166 -0.0215  0.1168  0.1929
21617SOL    HW166272   8.555   5.615   8.226 -1.3196  0.2585  0.9010
21617SOL    HW266273   8.530   5.467   8.209  0.2675  0.0655  0.0107
21618SOL     OW66274   2.469   1.109   4.691 -0.1698 -0.4489 -0.3894
21618SOL    HW166275   2.427   1.110   4.604 -2.2278  0.0412  0.5376
21618SOL    HW266276   2.396   1.124   4.752  1.3906  0.3191  1.3615
21619SOL     OW66277   4.840   5.610   3.524 -0.3791  0.2120 -0.6174
21619SOL    HW166278   4.852   5.700   3.553  2.0877 -0.3188  0.1908
21619SOL    HW266279   4.782   5.571   3.590  2.4129 -0.0381  1.8660
21620SOL     OW66280   0.595   1.970   5.662  0.0377 -0.0399  0.2356
21620SOL    HW166281   0.629   1.939   5.578 -0.8295  1.9531 -0.9136
21620SOL    HW266282   0.507   1.932   5.669  0.1888 -0.3716  0.3564
21621SOL     OW66283   5.318   4.734   5.410 -0.5292 -0.3872 -0.6735
21621SOL    HW166284   5.288   4.825   5.399 -0.6651 -0.2638  0.5696
21621SOL    HW266285   5.353   4.731   5.499  2.4182 -0.7665 -1.7600
21622SOL     OW66286   1.781   0.206   2.036 -0.0433  0.2094 -0.4668
21622SOL    HW166287   1.821   0.176   1.954 -0.4709 -0.0253 -0.5897
21622SOL    HW266288   1.850   0.193   2.101  0.7762  1.6498 -1.0029
21623SOL     OW66289   1.947   9.003   3.379 -0.8252  0.2822  0.2015
21623SOL    HW166290   1.882   9.024   3.445 -3.1274 -0.2733 -1.7339
21623SOL    HW266291   1.929   9.064   3.307  1.4231  0.7157 -0.0739
21624SOL     OW66292   6.324   3.909   7.539 -0.3315 -0.2850  0.0897
21624SOL    HW166293   6.385   3.867   7.600  0.1318  0.3564  0.0689
21624SOL    HW266294   6.323   3.851   7.463 -0.2551 -0.6386  0.3525
21625SOL     OW66295   1.744   2.249   8.918 -0.6770  0.5092  0.5029
21625SOL    HW166296   1.708   2.166   8.950 -0.6163  1.1035  2.2698
21625SOL    HW266297   1.667   2.302   8.896 -0.7371  0.1892 -0.0453
21626SOL     OW66298   0.541   6.253   7.163  0.5807 -0.4696  0.2766
21626SOL    HW166299   0.496   6.222   7.241 -0.3259 -0.7359 -0.3344
21626SOL    HW266300   0.473   6.255   7.096  1.2155  0.3202 -0.3572
21627SOL     OW66301   8.791   0.274   6.378 -0.6180  0.1974 -0.2307
21627SOL    HW166302   8.853   0.334   6.420 -1.7207  0.4231  1.1590
21627SOL    HW266303   8.844   0.224   6.316  0.6911  1.2828 -0.0397
21628SOL     OW66304   3.540   1.250   8.729  1.1061 -0.8210  0.0865
21628SOL    HW166305   3.460   1.216   8.769  0.4930  0.0964 -0.3382
21628SOL    HW266306   3.605   1.181   8.745  0.2939 -1.4962  0.6065
21629SOL     OW66307   1.349   3.574   1.733  0.0172  0.4854 -0.4810
21629SOL    HW166308   1.430   3.619   1.711 -0.0380  0.7103 -0.2268
21629SOL    HW266309   1.285   3.644   1.747 -0.1577  0.3175 -0.4325
21630SOL     OW66310   0.447   4.091   1.946 -0.1265 -1.5047  0.0652
21630SOL    HW166311   0.435   4.177   1.906  2.5853  0.0464  2.1630
21630SOL    HW266312   0.373   4.081   2.006  0.3559  0.1729  0.9876
21631SOL     OW66313   4.849   6.270   0.768 -0.3301 -0.0451  0.1283
21631SOL    HW166314   4.791   6.334   0.728  0.1900 -0.2209 -0.9361
21631SOL    HW266315   4.932   6.279   0.722  0.5051  0.1679  1.5900
21632SOL     OW66316   0.928   3.138   2.362 -0.9770 -0.1500  0.3030
21632SOL    HW166317   1.020   3.118   2.381 -1.0951 -1.1494 -0.1302
21632SOL    HW266318   0.915   3.225   2.398 -0.5257 -0.9612  2.5548
21633SOL     OW66319   8.201   1.618   8.730 -0.3902  0.2375 -0.2851
21633SOL    HW166320   8.188   1.577   8.644  0.7490 -1.8842  0.4785
21633SOL    HW266321   8.117   1.607   8.775  0.2252 -2.6379  0.3772
21634SOL     OW66322   1.856   6.945   7.997  0.1274  0.1300  0.3282
21634SOL    HW166323   1.925   6.879   7.990 -1.6767 -1.7115 -1.3876
21634SOL    HW266324   1.804   6.918   8.073  0.3252  0.5537  0.6200
21635SOL     OW66325   5.799   3.460   7.120  0.4178 -0.0934 -0.1000
21635SOL    HW166326   5.736   3.515   7.074 -0.1845  0.7059  1.5916
21635SOL    HW266327   5.884   3.494   7.094  0.1362 -0.3049 -1.3617
21636SOL     OW66328   3.766   7.073   7.672 -0.9207 -0.6386 -0.7860
21636SOL    HW166329   3.764   7.023   7.753 -1.2096  0.1967 -0.2700
21636SOL    HW266330   3.734   7.159   7.696 -2.2677 -0.7548 -2.0624
21637SOL     OW66331   5.568   9.073   2.472 -0.0063  0.5786 -0.0296
21637SOL    HW166332   5.571   9.066   2.376  1.7394  1.5181 -0.0698
21637SOL    HW266333   5.520   8.994   2.499 -0.1625  0.0686 -1.6403
21638SOL     OW66334   1.816   1.266   8.256  0.5332  0.4847 -0.7843
21638SOL    HW166335   1.722   1.286   8.252  0.7658  1.9902  0.3066
21638SOL    HW266336   1.845   1.270   8.164 -0.5284 -0.4521 -1.1850
21639SOL     OW66337   7.057   8.126   7.664 -0.3952  0.6913 -0.1413
21639SOL    HW166338   7.022   8.214   7.672  0.3648  1.0427 -0.5514
21639SOL    HW266339   7.035   8.083   7.746 -0.3486  1.4239  0.2598
21640SOL     OW66340   1.807   5.936   1.261 -0.0821 -0.1112  0.0087
21640SOL    HW166341   1.771   5.850   1.237 -0.1975  0.0534 -0.4178
21640SOL    HW266342   1.830   5.976   1.177  1.2698 -0.2874  0.2739
21641SOL     OW66343   5.636   5.176   8.362  0.0757 -0.4936  0.3642
21641SOL    HW166344   5.662   5.171   8.270  2.4161  0.6315  0.8970
21641SOL    HW266345   5.585   5.096   8.376 -0.2987 -0.7299 -1.8556
21642SOL     OW66346   8.442   2.552   6.810 -0.6986  0.0781  0.2988
21642SOL    HW166347   8.496   2.598   6.745 -2.9670  1.0595 -0.9778
21642SOL    HW266348   8.503   2.533   6.881  1.4049  0.8502 -1.1907
21643SOL     OW66349   3.734   2.877   5.575  0.8209  0.6950 -0.8700
21643SOL    HW166350   3.807   2.848   5.630 -0.3102  0.3408  0.4868
21643SOL    HW266351   3.735   2.972   5.583  1.0624  0.6864 -0.7799
21644SOL     OW66352   6.773   5.553   6.082 -0.7880  0.2912 -0.1095
21644SOL    HW166353   6.740   5.466   6.062 -0.4271  0.0720  0.2283
21644SOL    HW266354   6.821   5.580   6.004 -0.3809 -0.0655  0.0214
21645SOL     OW66355   3.735   5.345   4.114  0.0176 -0.6972  0.2681
21645SOL    HW166356   3.818   5.298   4.112 -0.3886 -1.4279  0.1168
21645SOL    HW266357   3.759   5.437   4.117  0.8339 -0.8854 -0.3018
21646SOL     OW66358   5.889   1.648   1.286  0.5172  0.4480  0.5573
21646SOL    HW166359   5.796   1.649   1.308  0.5167 -0.8407  0.6881
21646SOL    HW266360   5.897   1.714   1.216 -0.1344  1.9052  1.7848
21647SOL     OW66361   6.274   6.104   1.908  0.4596  0.0023 -0.7504
21647SOL    HW166362   6.348   6.100   1.847 -0.7991  0.5483 -2.4212
21647SOL    HW266363   6.254   6.198   1.914  1.1050  0.0600  1.2799
21648SOL     OW66364   5.467   4.209   6.152  0.1575  0.5037 -0.0834
21648SOL    HW166365   5.473   4.162   6.235 -0.1737 -0.6709 -0.7143
21648SOL    HW266366   5.529   4.282   6.162  0.3853  0.1775  1.0501
21649SOL     OW66367   5.123   7.807   1.809 -0.4716  0.1432 -0.0991
21649SOL    HW166368   5.067   7.745   1.856  0.0474  1.1306  1.9517
21649SOL    HW266369   5.072   7.831   1.731 -2.1198 -0.3502  0.7712
21650SOL     OW66370   4.413   7.607   2.707  0.2131  0.5807 -0.9358
21650SOL    HW166371   4.426   7.568   2.793 -3.1068 -2.8079 -1.6905
21650SOL    HW266372   4.420   7.701   2.722  1.6788  0.0652  2.5871
21651SOL     OW66373   1.053   5.374   0.074  0.1638  0.4008 -0.3698
21651SOL    HW166374   1.137   5.330   0.074 -0.4957 -1.0614  1.8769
21651SOL    HW266375   1.019   5.363  -0.015  1.0814 -1.5702 -0.5132
21652SOL     OW66376   8.304   9.130   1.124 -0.1005  0.5864 -0.1411
21652SOL    HW166377   8.394   9.123   1.155  0.6925  1.0758 -2.1345
21652SOL    HW266378   8.281   9.222   1.136 -0.5118  0.3645  0.7992
21653SOL     OW66379   8.017   1.223   2.004 -0.1316 -0.2130  0.5833
21653SOL    HW166380   8.092   1.228   2.063 -0.2808 -0.2685  0.7797
21653SOL    HW266381   8.035   1.288   1.936 -0.4798  0.6417  1.2935
21654SOL     OW66382   3.024   6.967   3.736  0.0603 -0.0237 -0.2889
21654SOL    HW166383   3.089   6.901   3.760 -1.3450 -1.3957 -0.0412
21654SOL    HW266384   2.967   6.923   3.673 -1.1679  0.7887  0.2065
21655SOL     OW66385   7.933   4.270   2.397  0.1417  0.1602 -0.1454
21655SOL    HW166386   7.903   4.252   2.308 -0.1580  0.1563 -0.0433
21655SOL    HW266387   7.875   4.219   2.453 -2.0193  2.8594  0.3020
21656SOL     OW66388   8.100   5.394   1.855  0.4957  0.0642  0.4879
21656SOL    HW166389   8.140   5.473   1.892  0.2205 -0.5457  2.1834
21656SOL    HW266390   8.159   5.368   1.785 -0.1664  2.5757 -1.1456
21657SOL     OW66391   8.750   3.645   7.379 -0.1408  0.1562 -0.1191
21657SOL    HW166392   8.746   3.549   7.373 -0.9227  0.1266  0.6933
21657SOL    HW266393   8.844   3.664   7.381  0.0245 -0.6088 -0.0314
21658SOL     OW66394   7.966   3.162   4.647 -0.0519  0.0640 -0.0194
21658SOL    HW166395   8.000   3.215   4.719 -1.3877 -1.2139  1.6335
21658SOL    HW266396   8.028   3.089   4.641 -0.7608 -0.6381  0.9121
21659SOL     OW66397   5.108   8.898   6.889  0.2324  0.0527  0.1774
21659SOL    HW166398   5.186   8.881   6.836  2.0085  1.5036  2.1541
21659SOL    HW266399   5.138   8.887   6.979 -2.3635 -1.1442  0.9961
21660SOL     OW66400   8.917   2.820   5.861  0.5527  0.1213  0.0729
21660SOL    HW166401   8.861   2.825   5.784 -1.2391  0.2219  1.3352
21660SOL    HW266402   8.955   2.732   5.858 -1.8985 -1.0197  0.6447
21661SOL     OW66403   3.477   4.698   2.554  0.0274 -0.3489 -0.0968
21661SOL    HW166404   3.430   4.760   2.498 -0.3830 -0.1825  0.4287
21661SOL    HW266405   3.479   4.617   2.503  0.6934  0.1262 -0.8514
21662SOL     OW66406   7.093   1.407   1.724  0.3674  0.0449  0.2850
21662SOL    HW166407   7.004   1.442   1.730  0.3834  0.2565 -0.5829
21662SOL    HW266408   7.095   1.360   1.641  1.1388  0.2439  0.1843
21663SOL     OW66409   4.840   4.947   3.133  0.1833  0.2303 -0.0128
21663SOL    HW166410   4.806   5.037   3.126  0.5797  0.4046  0.2784
21663SOL    HW266411   4.913   4.954   3.194 -0.5351 -0.5053  0.9612
21664SOL     OW66412   2.837   5.841   4.786 -0.1585  0.3407 -0.6293
21664SOL    HW166413   2.803   5.925   4.816 -0.1887  1.0026 -2.4008
21664SOL    HW266414   2.907   5.863   4.725 -1.6612 -0.8038 -2.9260
21665SOL     OW66415   1.062   7.735   6.105 -0.0224 -0.1504 -0.2870
21665SOL    HW166416   1.089   7.663   6.162  0.2155  0.5107  0.4592
21665SOL    HW266417   1.125   7.805   6.124 -1.2015  0.8069  0.1795
21666SOL     OW66418   5.503   7.032   2.686  0.2317 -0.0269 -0.2171
21666SOL    HW166419   5.524   7.121   2.657  2.0468  0.0543  1.1807
21666SOL    HW266420   5.418   7.041   2.729  0.3492  1.0308 -0.1748
21667SOL     OW66421   4.360   7.465   5.959 -0.0434 -0.0911 -0.2868
21667SOL    HW166422   4.424   7.458   6.029 -0.0224 -1.5269 -0.4036
21667SOL    HW266423   4.276   7.477   6.003  0.1353  0.4206 -0.0819
21668SOL     OW66424   5.317   2.179   8.649  0.2774 -0.0234 -0.2112
21668SOL    HW166425   5.403   2.207   8.682  0.7019 -0.6741 -0.7459
21668SOL    HW266426   5.337   2.122   8.575 -0.5757 -1.3537  0.5424
21669SOL     OW66427   0.410   5.146   8.346  0.5510 -0.4725 -0.2698
21669SOL    HW166428   0.426   5.070   8.401  0.3396 -0.2624  0.0814
21669SOL    HW266429   0.352   5.114   8.277 -0.8299 -0.2659  0.7636
21670SOL     OW66430   6.816   6.174   7.488 -0.3966  1.2176  0.1276
21670SOL    HW166431   6.805   6.103   7.425 -1.0609  1.2286  0.2342
21670SOL    HW266432   6.731   6.217   7.491 -0.3837  1.1848  1.0832
21671SOL     OW66433   1.684   5.151   3.719  0.2853  0.1925  0.3608
21671SOL    HW166434   1.632   5.081   3.679 -2.0850  1.7157  0.5644
21671SOL    HW266435   1.727   5.194   3.645 -0.5501  0.2828 -0.0806
21672SOL     OW66436   4.172   0.193   3.479  0.2879  0.4508  0.1327
21672SOL    HW166437   4.106   0.184   3.410  0.4341  2.1623 -0.2776
21672SOL    HW266438   4.182   0.288   3.491  0.8342  0.2129  1.9724
21673SOL     OW66439   5.789   2.081   7.279  0.0378 -0.3146  0.0800
21673SOL    HW166440   5.837   2.027   7.342 -1.6452 -0.7416  1.0649
21673SOL    HW266441   5.732   2.136   7.333 -0.9145 -0.1534 -1.0507
21674SOL     OW66442   7.927   1.316   2.618  0.0369 -0.0633 -0.6382
21674SOL    HW166443   7.915   1.381   2.687  1.4977 -0.3420 -0.0873
21674SOL    HW266444   8.012   1.337   2.581 -0.4049 -0.3856 -1.8770
21675SOL     OW66445   7.271   5.321   4.825  0.4851 -0.7862  0.3090
21675SOL    HW166446   7.221   5.393   4.787  0.4912 -1.2375 -0.5813
21675SOL    HW266447   7.341   5.365   4.875 -0.2382 -0.1727  0.8063
21676SOL     OW66448   1.599   3.117   5.862 -0.1973  0.2516 -0.3030
21676SOL    HW166449   1.584   3.053   5.792  1.9438 -0.9859  0.2605
21676SOL    HW266450   1.516   3.163   5.871 -1.1959 -1.0577 -2.1441
21677SOL     OW66451   2.524   4.672   1.531 -0.2260  0.6489 -0.1090
21677SOL    HW166452   2.459   4.709   1.472  0.1046  2.2327  0.4850
21677SOL    HW266453   2.538   4.583   1.498 -3.2883 -0.0522  0.2778
21678SOL     OW66454   5.909   3.479   6.578  0.1098 -0.0437  0.1931
21678SOL    HW166455   5.905   3.410   6.511  0.2039  0.1798 -0.0469
21678SOL    HW266456   5.818   3.496   6.601 -0.2765  2.3563 -2.4607
21679SOL     OW66457   8.661   6.151   5.074  0.0934  0.1824  0.3316
21679SOL    HW166458   8.726   6.128   5.008 -0.2356 -1.0133  0.3907
21679SOL    HW266459   8.659   6.074   5.132  0.7740  1.4142  2.0584
21680SOL     OW66460   4.748   2.056   4.455  0.3111 -0.4868 -0.0424
21680SOL    HW166461   4.703   2.039   4.538  0.2419  1.0430  0.2647
21680SOL    HW266462   4.835   2.086   4.481  0.9212 -1.6913 -0.5952
21681SOL     OW66463   3.809   4.900   9.268 -0.0944 -0.1608  0.3251
21681SOL    HW166464   3.807   4.805   9.261 -0.3369 -0.0814 -1.1178
21681SOL    HW266465   3.836   4.929   9.181 -2.6378  1.1576 -0.1239
21682SOL     OW66466   8.000   7.566   7.210 -0.3067 -0.0153  0.0163
21682SOL    HW166467   7.993   7.530   7.298 -0.1167  1.0851  0.4871
21682SOL    HW266468   8.009   7.660   7.222  4.0820 -0.0927 -0.9035
21683SOL     OW66469   2.577   4.205   4.539 -0.1674  0.0282 -0.3536
21683SOL    HW166470   2.590   4.228   4.447  0.6166 -3.7563 -1.3473
21683SOL    HW266471   2.498   4.150   4.540  1.1784 -2.0149  0.7425
21684SOL     OW66472   3.121   0.822   8.402  0.4598  0.2039  0.1705
21684SOL    HW166473   3.204   0.784   8.372  0.3200  0.3732 -0.4536
21684SOL    HW266474   3.113   0.903   8.353 -1.2760 -0.9987 -1.7166
21685SOL     OW66475   1.952   1.837   1.349  0.1766  0.0059  0.0572
21685SOL    HW166476   1.903   1.823   1.268  0.9163 -0.0659 -0.3839
21685SOL    HW266477   1.892   1.809   1.418 -0.7860  0.8828 -0.3926
21686SOL     OW66478   3.276   7.622   1.741 -0.3217  0.3914  0.2672
21686SOL    HW166479   3.198   7.568   1.748  0.0489  0.0041  1.7090
21686SOL    HW266480   3.339   7.581   1.800  1.8265 -0.7013 -2.5496
21687SOL     OW66481   7.462   6.199   3.734  0.2865 -0.2705 -0.9083
21687SOL    HW166482   7.392   6.191   3.799 -0.4392  0.3111 -1.6072
21687SOL    HW266483   7.540   6.221   3.786 -0.3654  0.6004 -0.2607
21688SOL     OW66484   0.153   4.978   1.725 -0.5025 -0.5647 -0.1991
21688SOL    HW166485   0.125   5.054   1.674 -0.8489 -0.1166  0.6405
21688SOL    HW266486   0.126   4.998   1.814  0.3660 -1.1991  0.2205
21689SOL     OW66487   2.902   2.027   4.397 -0.0938 -0.2819 -0.1136
21689SOL    HW166488   2.955   1.968   4.343 -0.4436 -1.7013  1.0149
21689SOL    HW266489   2.951   2.035   4.479 -0.6127  0.0886  0.1697
21690SOL     OW66490   8.359   8.763   3.839  0.5473 -0.5577 -0.4022
21690SOL    HW166491   8.313   8.716   3.769  0.0749 -1.1459  0.2916
21690SOL    HW266492   8.421   8.699   3.874  0.0106 -0.6297  0.4415
21691SOL     OW66493   0.479   0.500   7.446 -0.2242  0.4986  0.0685
21691SOL    HW166494   0.477   0.545   7.530  0.8867 -0.2657  0.5274
21691SOL    HW266495   0.410   0.434   7.452  0.3213 -0.0307  0.6751
21692SOL     OW66496   4.652   1.339   0.259 -0.0703 -0.4875 -0.5940
21692SOL    HW166497   4.746   1.350   0.272 -0.0691 -2.4048  1.6876
21692SOL    HW266498   4.640   1.247   0.236 -1.5830 -1.5933  3.6637
21693SOL     OW66499   3.162   6.920   1.716 -0.4265 -1.1420  0.4192
21693SOL    HW166500   3.079   6.963   1.694 -1.2674 -2.3989  1.0007
21693SOL    HW266501   3.227   6.965   1.663 -1.8036 -1.5543 -1.7486
21694SOL     OW66502   8.057   3.946   2.151 -0.0471  0.3225 -0.1324
21694SOL    HW166503   8.077   3.855   2.133  0.5242  0.4024  0.0746
21694SOL    HW266504   7.992   3.944   2.221  1.9773  0.0998  1.8355
21695SOL     OW66505   4.074   4.972   1.159  0.2139  0.3632  0.3642
21695SOL    HW166506   4.069   4.935   1.247  0.0867  0.9901  0.6296
21695SOL    HW266507   3.991   4.950   1.118  0.3907 -0.1874  0.2911
21696SOL     OW66508   2.754   6.100   2.732  0.0016 -0.0645 -0.0249
21696SOL    HW166509   2.660   6.081   2.735  0.2615 -1.4465  0.0402
21696SOL    HW266510   2.777   6.093   2.639 -0.0081  0.5366 -0.0738
21697SOL     OW66511   4.123   2.677   6.114  0.3132  0.4168 -0.1623
21697SOL    HW166512   4.147   2.597   6.159 -1.0900  0.1488  0.1609
21697SOL    HW266513   4.193   2.692   6.050  1.5559 -0.0103  1.0720
21698SOL     OW66514   6.405   2.614   1.081 -0.3035  0.2111 -0.3152
21698SOL    HW166515   6.319   2.585   1.113 -0.6729 -0.0509 -1.5083
21698SOL    HW266516   6.453   2.638   1.161 -0.5103 -2.2321  0.6385
21699SOL     OW66517   7.301   6.397   4.679  0.3559  0.1026  0.4360
21699SOL    HW166518   7.363   6.470   4.667 -0.3710  0.5902 -0.4433
21699SOL    HW266519   7.216   6.433   4.654  0.1385 -1.3535 -1.0798
21700SOL     OW66520   8.371   8.076   2.457 -0.0602  0.2351 -0.0998
21700SOL    HW166521   8.332   8.025   2.386  0.5068  1.2540 -1.1688
21700SOL    HW266522   8.457   8.036   2.471 -0.3959 -0.3281  0.4341
21701SOL     OW66523   8.106   2.991   2.453 -0.3074 -0.5258  0.0938
21701SOL    HW166524   8.142   2.922   2.509 -2.6837 -1.5787  0.4653
21701SOL    HW266525   8.146   3.072   2.484  0.7132 -1.4630  1.2925
21702SOL     OW66526   8.500   8.858   6.473  0.7126  0.3366 -0.6388
21702SOL    HW166527   8.576   8.908   6.502  1.3529 -0.9001 -0.0872
21702SOL    HW266528   8.534   8.769   6.459 -0.5759 -0.1838 -0.6068
21703SOL     OW66529   0.159   1.497   1.909 -0.6122  0.2733  0.1408
21703SOL    HW166530   0.223   1.427   1.917  0.1186  0.9249  0.1494
21703SOL    HW266531   0.105   1.489   1.987 -0.4259 -0.1723  0.2299
21704SOL     OW66532   3.473   7.915   3.491 -0.0688  0.1938  0.7567
21704SOL    HW166533   3.451   7.822   3.480  1.4840 -0.2878  1.4717
21704SOL    HW266534   3.505   7.943   3.406  2.6062 -0.8702  1.3041
21705SOL     OW66535   6.608   5.072   6.688  0.1438 -0.1187 -0.0581
21705SOL    HW166536   6.684   5.066   6.630 -0.6752 -5.3084 -1.0545
21705SOL    HW266537   6.539   5.108   6.633  0.3206 -1.4495 -1.1820
21706SOL     OW66538   2.065   2.273   7.759 -0.7880  0.5598 -0.4992
21706SOL    HW166539   2.148   2.238   7.793 -0.2250  0.5592 -1.8007
21706SOL    HW266540   2.011   2.286   7.837  0.6574  1.1715  0.4701
21707SOL     OW66541   8.411   8.007   4.507  0.2461  0.0388 -0.8221
21707SOL    HW166542   8.354   7.982   4.581  1.3778 -0.8903 -0.2344
21707SOL    HW266543   8.356   7.994   4.430 -0.4718 -0.4976 -0.2428
21708SOL     OW66544   3.746   9.101   7.317  0.3356  0.5067 -0.0396
21708SOL    HW166545   3.673   9.121   7.375 -1.0630 -0.0681 -1.5306
21708SOL    HW266546   3.783   9.186   7.293 -0.3351  0.8407  0.1088
21709SOL     OW66547   4.541   6.084   4.964  0.2409  0.0951  0.0017
21709SOL    HW166548   4.623   6.064   5.008 -0.2255  0.7922  1.2311
21709SOL    HW266549   4.512   6.167   5.002 -1.0891 -0.1883 -0.3223
21710SOL     OW66550   4.042   7.513   6.523 -0.6549  0.9148  0.6228
21710SOL    HW166551   4.018   7.429   6.564  0.6953  0.3993  0.4046
21710SOL    HW266552   4.127   7.534   6.561 -0.3244  1.4641 -0.4033
21711SOL     OW66553   5.277   1.138   1.787 -0.3222 -0.2609 -0.2530
21711SOL    HW166554   5.235   1.176   1.710  1.6047 -0.5630 -1.5132
21711SOL    HW266555   5.347   1.200   1.810 -0.1903 -0.7061  0.5915
21712SOL     OW66556   0.935   5.030   8.770 -0.0874  0.0342 -0.1373
21712SOL    HW166557   1.018   4.986   8.785  0.3644  1.1967  0.9989
21712SOL    HW266558   0.951   5.120   8.799 -1.2601  0.7008 -1.4312
21713SOL     OW66559   6.142   4.256   7.090 -0.0273  0.1545 -0.3399
21713SOL    HW166560   6.126   4.222   7.178 -0.5518  0.3359 -0.3599
21713SOL    HW266561   6.057   4.250   7.047  0.7362 -2.4585 -1.7336
21714SOL     OW66562   0.137   3.584   5.260 -0.2357  0.7197  0.5444
21714SOL    HW166563   0.196   3.509   5.268  0.3977  0.9724 -1.2032
21714SOL    HW266564   0.064   3.564   5.319  0.4425 -0.7533  0.9314
21715SOL     OW66565   7.575   3.224   4.573  0.2008  0.0859 -0.3236
21715SOL    HW166566   7.497   3.169   4.564  0.3449 -0.2794  0.4981
21715SOL    HW266567   7.559   3.299   4.516  0.2806 -1.1091 -1.9930
21716SOL     OW66568   2.634   6.858   3.955  0.4514  0.4018  0.4470
21716SOL    HW166569   2.595   6.795   3.894  0.0045  2.5130 -1.5913
21716SOL    HW266570   2.728   6.850   3.942  0.3726  0.5226 -0.2024
21717SOL     OW66571   0.989   2.991   4.745 -0.0917  0.2965  0.4176
21717SOL    HW166572   0.949   3.038   4.672  1.5147  0.1012 -0.6416
21717SOL    HW266573   0.917   2.976   4.806 -1.2317  1.5323 -0.5631
21718SOL     OW66574   1.760   3.522   2.444  0.2908 -0.3407 -0.4472
21718SOL    HW166575   1.830   3.530   2.509 -0.7270  1.1100  0.5317
21718SOL    HW266576   1.773   3.598   2.387 -0.7111  0.2042  0.0175
21719SOL     OW66577   0.007   0.372   7.978  0.4232 -0.2763 -0.0282
21719SOL    HW166578  -0.045   0.298   8.009 -0.2367 -0.6527 -1.9028
21719SOL    HW266579   0.097   0.339   7.981  0.4697 -0.1246  1.8361
21720SOL     OW66580   4.909   3.637   6.745 -0.6144 -0.0746 -0.0070
21720SOL    HW166581   4.986   3.608   6.795 -0.6247 -1.5735 -0.7917
21720SOL    HW266582   4.897   3.569   6.679 -3.4391 -0.6230  0.9302
21721SOL     OW66583   2.360   6.465   1.092 -0.6570  0.2501  0.6019
21721SOL    HW166584   2.453   6.462   1.070 -0.8251 -0.4459 -0.0751
21721SOL    HW266585   2.356   6.510   1.176  0.4772 -1.3461  1.5676
21722SOL     OW66586   2.974   0.656   8.974 -0.4643  0.5280  0.1580
21722SOL    HW166587   3.012   0.667   9.061  0.3095  3.2438 -0.4069
21722SOL    HW266588   3.048   0.628   8.920 -1.0145 -1.4695  0.3860
21723SOL     OW66589   4.014   0.841   0.627  0.1459 -0.1373  0.2197
21723SOL    HW166590   4.060   0.833   0.543 -1.3035  0.5348 -0.6715
21723SOL    HW266591   3.968   0.924   0.621  0.8003  0.3957  2.1115
21724SOL     OW66592   1.418   7.268   7.285  0.1270 -0.1631 -0.1617
21724SOL    HW166593   1.410   7.362   7.304  0.6807  0.0160 -0.7724
21724SOL    HW266594   1.505   7.245   7.317  0.0421 -0.4425 -0.1306
21725SOL     OW66595   0.776   3.555   2.947  0.5928  0.2116  0.1009
21725SOL    HW166596   0.846   3.508   2.992  1.1095 -0.6292 -1.5308
21725SOL    HW266597   0.770   3.514   2.861 -2.5579 -0.3904  0.4774
21726SOL     OW66598   0.940   6.683   2.502  0.2329  0.2632 -0.2548
21726SOL    HW166599   0.853   6.721   2.508 -1.4350 -2.8538 -2.0894
21726SOL    HW266600   0.960   6.683   2.408  1.1142 -1.2121 -0.1102
21727SOL     OW66601   0.257   2.484   0.166 -0.9435  0.0832  0.2301
21727SOL    HW166602   0.321   2.436   0.114 -2.0773  0.2111 -1.3479
21727SOL    HW266603   0.300   2.498   0.251  1.2230  0.4308 -0.8655
21728SOL     OW66604   4.498   8.123   1.285 -0.1848  0.3114  0.1874
21728SOL    HW166605   4.485   8.108   1.378 -0.4702  0.6686  0.2071
21728SOL    HW266606   4.413   8.101   1.245 -0.0742  0.1930  0.0134
21729SOL     OW66607   8.475   2.374   4.966 -0.3705  0.0841 -0.1073
21729SOL    HW166608   8.453   2.395   5.057  0.0229 -0.4163  0.1098
21729SOL    HW266609   8.446   2.451   4.916 -1.5174 -0.0593  0.3037
21730SOL     OW66610   2.474   5.209   6.269  0.0176 -0.0638  0.2620
21730SOL    HW166611   2.504   5.178   6.354  0.1350  1.2249  0.7060
21730SOL    HW266612   2.543   5.184   6.208  1.0139  0.9806  0.9231
21731SOL     OW66613   8.601   2.598   8.960 -0.6103 -0.1502  0.4634
21731SOL    HW166614   8.692   2.568   8.949 -1.1742 -2.1167  0.8950
21731SOL    HW266615   8.583   2.589   9.053 -1.2276  0.3581  0.4029
21732SOL     OW66616   0.815   5.638   2.641  0.2687 -0.3991  0.7988
21732SOL    HW166617   0.761   5.614   2.716 -1.1912 -0.8688 -0.3433
21732SOL    HW266618   0.817   5.734   2.643 -0.9965 -0.3476  0.6474
21733SOL     OW66619   4.598   3.400   6.390 -0.1878 -0.7040 -0.3278
21733SOL    HW166620   4.689   3.421   6.371 -0.0405 -1.3436 -0.3229
21733SOL    HW266621   4.558   3.386   6.304 -0.5746  0.7198 -0.4141
21734SOL     OW66622   5.126   5.642   8.611 -0.1237  0.6300 -0.3762
21734SOL    HW166623   5.181   5.564   8.604 -0.7337 -0.0895  1.8153
21734SOL    HW266624   5.092   5.656   8.523  0.3745 -1.3148 -0.9348
21735SOL     OW66625   2.293   2.035   5.766 -0.4938  0.2540  0.1808
21735SOL    HW166626   2.350   2.103   5.730 -0.1715  0.0805  0.3622
21735SOL    HW266627   2.338   1.953   5.747  0.5832  0.2299  2.5274
21736SOL     OW66628   4.152   1.151   7.644 -0.1497  0.6262  0.3686
21736SOL    HW166629   4.213   1.092   7.689  0.9253  1.1778 -0.3142
21736SOL    HW266630   4.087   1.092   7.605  0.7432 -0.1090 -0.0619
21737SOL     OW66631   4.209   5.464   8.508 -0.0611 -0.0205 -0.4261
21737SOL    HW166632   4.226   5.537   8.568 -1.1578 -1.3251  1.6132
21737SOL    HW266633   4.142   5.498   8.448 -0.4391  0.7392  0.3934
21738SOL     OW66634   6.945   2.059   7.722 -0.6189  0.3699 -0.6080
21738SOL    HW166635   7.035   2.039   7.699 -0.6698  0.1937 -0.6606
21738SOL    HW266636   6.905   1.973   7.739  0.0469  0.5528  2.5284
21739SOL     OW66637   4.088   1.857   8.891 -0.5878  0.4087 -0.1597
21739SOL    HW166638   4.106   1.945   8.858  1.9537 -0.1872 -0.6176
21739SOL    HW266639   4.149   1.801   8.843  0.6691 -1.0368  2.8695
21740SOL     OW66640   6.871   2.327   8.709 -0.2243  0.0912  0.2631
21740SOL    HW166641   6.906   2.290   8.790 -0.8957  1.9133  1.4521
21740SOL    HW266642   6.777   2.311   8.714 -0.5169  1.7981  0.7679
21741SOL     OW66643   1.092   4.229   2.798  0.0944 -0.5795  0.9735
21741SOL    HW166644   1.127   4.159   2.854  2.1725 -0.3501  0.0597
21741SOL    HW266645   1.141   4.307   2.823  0.6908 -0.3524 -0.7268
21742SOL     OW66646   4.285   6.505   8.487  0.2372 -0.6701  0.3468
21742SOL    HW166647   4.362   6.560   8.473  0.4981 -0.7760  1.2930
21742SOL    HW266648   4.318   6.416   8.486 -0.2558 -0.8697 -1.6390
21743SOL     OW66649   0.856   4.446   7.526  0.2364 -0.3401  0.3672
21743SOL    HW166650   0.930   4.413   7.474 -0.9504 -0.2345 -1.5062
21743SOL    HW266651   0.861   4.397   7.608  2.7691  0.1775  0.6155
21744SOL     OW66652   5.992   6.988   0.452 -0.4517  0.0546  0.1509
21744SOL    HW166653   6.035   6.908   0.484 -0.2683 -0.7690 -2.0028
21744SOL    HW266654   5.904   6.984   0.489 -0.7716 -1.6900 -0.6843
21745SOL     OW66655   2.274   3.455   7.733 -0.0114 -0.2340 -0.8331
21745SOL    HW166656   2.216   3.512   7.783  1.2377  0.8653 -0.5660
21745SOL    HW266657   2.342   3.430   7.794  0.8884  0.1520 -1.6477
21746SOL     OW66658   7.970   3.627   8.669  0.4440 -0.5730 -0.4041
21746SOL    HW166659   7.896   3.645   8.612  0.3208  2.2174  0.5055
21746SOL    HW266660   7.932   3.580   8.744 -0.3988  0.6119 -0.0639
21747SOL     OW66661   2.287   0.416   0.028  0.2355  0.3733 -0.3734
21747SOL    HW166662   2.329   0.493  -0.010 -0.5437 -0.3703 -2.9004
21747SOL    HW266663   2.195   0.424   0.004  0.3357 -1.9407 -1.8793
21748SOL     OW66664   5.183   9.267   8.977 -0.4007 -0.2929 -0.4178
21748SOL    HW166665   5.181   9.250   8.883 -0.7457  0.5669 -0.5734
21748SOL    HW266666   5.109   9.218   9.013 -0.7737  0.0505 -0.7137
21749SOL     OW66667   4.365   1.378   2.980  0.2424  0.2932 -0.2888
21749SOL    HW166668   4.315   1.316   2.926  0.6791  0.4063 -0.8431
21749SOL    HW266669   4.449   1.386   2.934  1.2026 -0.7377  1.1874
21750SOL     OW66670   0.988   6.587   7.850 -0.2091  0.3556 -0.0522
21750SOL    HW166671   0.991   6.567   7.944  0.1477 -0.6839 -0.2752
21750SOL    HW266672   1.080   6.590   7.823 -0.3165 -0.9630 -0.6762
21751SOL     OW66673   5.177   8.055   6.034 -0.2371 -0.0332 -0.5797
21751SOL    HW166674   5.265   8.091   6.024  0.7557 -2.0383  0.3423
21751SOL    HW266675   5.124   8.129   6.064  1.5198  0.8311  0.5394
21752SOL     OW66676   8.306   6.083   7.412  0.3795  0.5441  0.4444
21752SOL    HW166677   8.251   6.135   7.353  0.6580  0.8831  0.4805
21752SOL    HW266678   8.321   6.140   7.487 -1.8540 -0.6757  1.9366
21753SOL     OW66679   1.741   2.663   1.789  0.8315 -0.4022 -0.6385
21753SOL    HW166680   1.776   2.740   1.744  0.0647  0.0624 -0.4476
21753SOL    HW266681   1.648   2.663   1.768  0.4669 -0.2145  0.8913
21754SOL     OW66682   1.557   3.215   4.878 -0.2098 -0.4659 -0.3396
21754SOL    HW166683   1.645   3.217   4.915 -0.3142  3.2326  0.0438
21754SOL    HW266684   1.568   3.243   4.787 -1.0395  1.6941  0.1541
21755SOL     OW66685   8.677   8.237   8.362  0.8885 -0.5398  0.6062
21755SOL    HW166686   8.679   8.313   8.303  0.4888 -0.7710  0.2899
21755SOL    HW266687   8.753   8.185   8.336  0.8203 -0.5479  0.4207
21756SOL     OW66688   7.817   3.683   8.341 -0.4681 -0.7776  0.0358
21756SOL    HW166689   7.776   3.674   8.427  1.6119 -2.8320  0.9199
21756SOL    HW266690   7.788   3.605   8.293  0.0711 -0.7401 -0.3522
21757SOL     OW66691   7.458   9.095   5.862 -0.0697 -0.2109 -0.2953
21757SOL    HW166692   7.528   9.158   5.847 -0.4875  0.1636 -0.6993
21757SOL    HW266693   7.383   9.130   5.814 -0.6622 -0.3832  0.4761
21758SOL     OW66694   2.848   5.153   3.136 -0.2685  0.1680  0.4088
21758SOL    HW166695   2.893   5.236   3.122 -1.6409  0.7579 -0.8000
21758SOL    HW266696   2.917   5.092   3.164  1.2172  1.1008 -1.0447
21759SOL     OW66697   0.814   1.033   0.339 -0.3252 -0.1746  0.2292
21759SOL    HW166698   0.745   1.060   0.277  0.7556  0.8221 -0.5849
21759SOL    HW266699   0.816   1.103   0.405 -0.5478 -0.5477  0.6367
21760SOL     OW66700   3.378   1.915   3.863 -0.0902 -0.0221 -0.3853
21760SOL    HW166701   3.366   1.858   3.938  1.2637 -0.2890 -0.3490
21760SOL    HW266702   3.416   1.859   3.796  0.2109  0.5864 -0.7310
21761SOL     OW66703   3.934   5.721   0.598 -0.0803  0.4612 -0.6394
21761SOL    HW166704   3.849   5.680   0.613  0.0702  0.3770  0.0464
21761SOL    HW266705   3.994   5.647   0.581  0.1085  0.4131  0.1857
21762SOL     OW66706   8.607   1.541   6.079  0.3625  0.5584  0.2779
21762SOL    HW166707   8.558   1.488   6.016 -0.5309 -0.9079  2.1247
21762SOL    HW266708   8.555   1.621   6.088  0.3217  0.6407 -0.5479
21763SOL     OW66709   5.566   8.044   6.337 -0.2818 -0.2787 -0.5825
21763SOL    HW166710   5.570   7.985   6.413 -2.1289 -1.0455 -1.0320
21763SOL    HW266711   5.538   8.128   6.374 -1.6079 -0.7642 -0.4535
21764SOL     OW66712   5.004   5.524   6.699  0.2136 -0.2707 -0.4001
21764SOL    HW166713   5.021   5.434   6.726 -2.6523 -1.3689 -1.8102
21764SOL    HW266714   5.072   5.543   6.635  1.3444 -1.0964  0.5054
21765SOL     OW66715   9.043   4.322   4.596 -0.0189 -0.5878  0.2022
21765SOL    HW166716   8.970   4.385   4.594 -0.2147 -0.8178  0.0133
21765SOL    HW266717   9.037   4.281   4.682 -0.9158 -1.5328 -0.2920
21766SOL     OW66718   5.091   5.297   0.828  0.3413 -0.4198 -0.1868
21766SOL    HW166719   5.022   5.243   0.791  1.0141 -1.8060  0.5160
21766SOL    HW266720   5.108   5.259   0.914  0.8023  0.9534  0.3640
21767SOL     OW66721   3.145   8.701   3.007  0.7292  0.5501  0.7596
21767SOL    HW166722   3.166   8.637   3.074 -0.1387  0.6965  1.1849
21767SOL    HW266723   3.062   8.672   2.971  1.2683  0.3759 -0.3921
21768SOL     OW66724   3.479   7.262   7.995 -0.0886 -1.0706  0.4472
21768SOL    HW166725   3.447   7.301   7.913  0.9514 -0.5118  0.2949
21768SOL    HW266726   3.456   7.169   7.987  0.9902 -1.2588 -1.0123
21769SOL     OW66727   2.126   0.072   6.100  0.5982  0.1398  0.2582
21769SOL    HW166728   2.126   0.111   6.012  1.5044  0.0936  0.2324
21769SOL    HW266729   2.159  -0.017   6.087 -1.2312 -0.6121  0.3502
21770SOL     OW66730   5.649   4.006   4.056  0.1817  0.1855  0.4476
21770SOL    HW166731   5.738   4.035   4.034 -0.1358  1.1224  0.3481
21770SOL    HW266732   5.593   4.078   4.028 -0.8509 -1.3052 -1.5289
21771SOL     OW66733   3.774   5.562   2.765  0.0525  0.1344  0.4266
21771SOL    HW166734   3.846   5.498   2.765  0.1888  0.2634 -0.8103
21771SOL    HW266735   3.790   5.616   2.842  0.7468 -0.4297  0.6915
21772SOL     OW66736   9.228   2.580   3.249  0.6574  0.0001  0.3867
21772SOL    HW166737   9.306   2.551   3.295  0.5799  0.5116  0.8462
21772SOL    HW266738   9.176   2.625   3.315 -0.0032 -0.2840  0.0742
21773SOL     OW66739   2.946   6.609   7.293  0.4950  0.3774 -0.5970
21773SOL    HW166740   2.888   6.570   7.228  0.0647 -0.0686  0.0439
21773SOL    HW266741   3.032   6.572   7.272  0.2678 -0.1631 -0.6040
21774SOL     OW66742   1.095   7.526   0.050  0.1028  0.1740 -0.0059
21774SOL    HW166743   1.157   7.599   0.049  2.1106 -1.4228 -1.7389
21774SOL    HW266744   1.100   7.491   0.139  1.0291  0.6283  0.1287
21775SOL     OW66745   2.349   6.210   3.731 -0.0453  0.7639 -0.7132
21775SOL    HW166746   2.337   6.183   3.822 -0.1718  1.3282 -0.5576
21775SOL    HW266747   2.312   6.139   3.680  3.0271 -1.2072 -0.4483
21776SOL     OW66748   8.591   3.326   1.223  0.0337 -0.9836  0.0255
21776SOL    HW166749   8.562   3.386   1.154 -0.5072  0.9736  1.8717
21776SOL    HW266750   8.520   3.324   1.286  1.3090 -1.1119  1.5325
21777SOL     OW66751   0.586   4.943   0.573 -0.3322  0.3251 -0.0336
21777SOL    HW166752   0.513   4.885   0.550 -1.3609  2.0196 -1.2695
21777SOL    HW266753   0.636   4.894   0.638 -1.0310 -2.0236 -1.1582
21778SOL     OW66754   2.131   5.707   0.837  0.3389 -0.2802  0.3427
21778SOL    HW166755   2.178   5.738   0.915  1.2943 -2.4583  0.6938
21778SOL    HW266756   2.039   5.722   0.857  0.6788  1.7390  0.6970
21779SOL     OW66757   5.359   8.562   2.810 -0.1728  0.1073 -0.1075
21779SOL    HW166758   5.419   8.532   2.878  2.2350  0.8726 -1.7693
21779SOL    HW266759   5.335   8.651   2.836 -0.8782 -0.3066  0.7162
21780SOL     OW66760   7.945   6.180   8.427  1.0108  0.2792 -0.7698
21780SOL    HW166761   7.856   6.146   8.433  0.3570  1.9139 -0.6174
21780SOL    HW266762   7.994   6.132   8.492  0.0215 -0.0361 -0.2369
21781SOL     OW66763   0.849   0.148   0.109  0.4869 -0.9878  0.2845
21781SOL    HW166764   0.866   0.238   0.139  0.1452 -0.6738 -0.4307
21781SOL    HW266765   0.920   0.096   0.147  0.0520 -0.6175  1.6444
21782SOL     OW66766   0.853   8.426   3.827 -0.2533  0.5626  0.5880
21782SOL    HW166767   0.815   8.342   3.799  0.3025  0.6232 -0.3797
21782SOL    HW266768   0.853   8.421   3.923  1.4222 -1.3246  0.5702
21783SOL     OW66769   2.715   6.146   1.757  0.2009 -0.6948  0.0280
21783SOL    HW166770   2.782   6.170   1.693 -0.4120  1.9945  0.2943
21783SOL    HW266771   2.729   6.205   1.831 -1.0686 -1.5954  1.0432
21784SOL     OW66772   0.873   7.436   8.180 -0.1783 -0.2063  0.2460
21784SOL    HW166773   0.886   7.420   8.086  0.7059  1.9369 -0.0534
21784SOL    HW266774   0.800   7.498   8.184  0.5892  0.6863  0.8571
21785SOL     OW66775   3.298   2.272   5.518  0.0978 -0.4650  0.2948
21785SOL    HW166776   3.296   2.297   5.611  1.0882 -1.0829  0.4997
21785SOL    HW266777   3.266   2.182   5.516  0.3397 -0.5496  0.0809
21786SOL     OW66778   7.550   9.160   6.932 -0.0824 -0.2091  0.5049
21786SOL    HW166779   7.478   9.157   6.996 -1.9560  1.3646 -1.3862
21786SOL    HW266780   7.539   9.079   6.881 -0.0211 -0.3578  0.7271
21787SOL     OW66781   4.074   4.335   5.210 -0.1039  0.0321 -0.3772
21787SOL    HW166782   3.989   4.379   5.208  0.2592  0.9073  1.3742
21787SOL    HW266783   4.136   4.403   5.183  0.3978  0.5195  1.8051
21788SOL     OW66784   2.384   7.490   8.099  0.1054  0.2682  0.3558
21788SOL    HW166785   2.405   7.582   8.111  2.4275 -0.0426 -0.8082
21788SOL    HW266786   2.300   7.490   8.053  0.0131  1.7767  0.4811
21789SOL     OW66787   2.691   7.631   8.910 -0.3284  0.3567  0.8616
21789SOL    HW166788   2.647   7.551   8.940 -1.4066  0.5498 -0.1286
21789SOL    HW266789   2.674   7.695   8.979  0.1905 -0.1299  1.4640
21790SOL     OW66790   8.262   0.394   1.020  0.0501  0.3302 -0.1634
21790SOL    HW166791   8.194   0.329   1.039 -0.4983  1.1495  0.7438
21790SOL    HW266792   8.331   0.344   0.977 -0.2850 -0.9002  0.6657
21791SOL     OW66793   8.464   3.110   6.748  0.0892  0.2649 -0.0842
21791SOL    HW166794   8.455   3.046   6.677  0.2298  1.9045 -1.6358
21791SOL    HW266795   8.375   3.138   6.767 -0.0310 -0.7764  1.0129
21792SOL     OW66796   2.315   5.965   1.835  0.6101 -0.5215 -0.0675
21792SOL    HW166797   2.335   6.058   1.829 -0.4349 -0.3086 -0.4274
21792SOL    HW266798   2.262   5.957   1.915 -2.0845 -0.2541 -1.7171
21793SOL     OW66799   8.150   5.637   6.635 -0.0976  0.2369  0.2383
21793SOL    HW166800   8.214   5.697   6.673  0.3740  1.4138 -2.2044
21793SOL    HW266801   8.165   5.554   6.681  0.5518  1.4504  2.3542
21794SOL     OW66802   4.068   7.500   4.623  0.1261  0.3496  0.3925
21794SOL    HW166803   4.031   7.429   4.674 -0.8197  1.1263  0.8169
21794SOL    HW266804   4.087   7.461   4.538 -3.2531  0.2542 -0.4559
21795SOL     OW66805   3.315   5.350   2.463 -0.2826 -0.0995 -0.2199
21795SOL    HW166806   3.236   5.404   2.457  0.4260  1.0577  0.5500
21795SOL    HW266807   3.312   5.294   2.385 -1.1285  0.9272 -0.9485
21796SOL     OW66808   8.431   2.337   5.870 -0.3010  0.6260  0.0879
21796SOL    HW166809   8.427   2.242   5.876 -1.2021  0.5936 -0.7439
21796SOL    HW266810   8.494   2.354   5.801  0.0407  0.6444  0.4009
21797SOL     OW66811   2.875   7.022   6.335  0.3445  0.0819  0.2670
21797SOL    HW166812   2.942   7.086   6.311 -0.5023  1.2443  0.8871
21797SOL    HW266813   2.880   6.955   6.266  0.9720  1.0242 -0.6416
21798SOL     OW66814   4.864   4.425   4.193 -0.4075 -0.1162  0.5369
21798SOL    HW166815   4.850   4.406   4.285 -0.2990 -0.0636  0.5641
21798SOL    HW266816   4.827   4.350   4.146  0.7178 -0.7695  0.6671
21799SOL     OW66817   1.951   4.407   2.605 -0.0866 -0.7484  0.2536
21799SOL    HW166818   1.957   4.503   2.607 -2.6987 -0.4665 -0.6990
21799SOL    HW266819   1.914   4.387   2.519  1.8351 -2.7837 -0.1858
21800SOL     OW66820   2.390   8.610   0.542  0.3367  0.8298  0.3605
21800SOL    HW166821   2.468   8.599   0.596 -0.9184  0.6039  2.2370
21800SOL    HW266822   2.361   8.521   0.522  1.6719  0.8676 -2.1719
21801SOL     OW66823   5.262   8.112   5.330 -0.3420  0.1863 -0.2997
21801SOL    HW166824   5.302   8.122   5.417 -0.0833  1.9345 -0.5753
21801SOL    HW266825   5.329   8.070   5.277 -0.6130 -1.1884  0.3936
21802SOL     OW66826   1.150   6.389   5.047  0.5005  0.1081  0.1612
21802SOL    HW166827   1.111   6.307   5.076  2.0800 -1.4830 -1.9356
21802SOL    HW266828   1.244   6.374   5.050  0.9105  2.3025  0.8312
21803SOL     OW66829   7.362   5.888   3.118  0.3851  0.5451  0.3180
21803SOL    HW166830   7.423   5.954   3.152 -0.9604  2.5690 -0.9639
21803SOL    HW266831   7.404   5.804   3.137  2.3708  1.7565  1.6736
21804SOL     OW66832   3.477   6.862   7.187 -0.5060  0.0436  0.1876
21804SOL    HW166833   3.503   6.771   7.179 -0.4758  0.0232  0.5204
21804SOL    HW266834   3.473   6.894   7.096 -1.6408 -0.5961 -0.0155
21805SOL     OW66835   9.076   8.064   1.228 -0.2170 -0.3550  0.6162
21805SOL    HW166836   9.094   7.972   1.249  0.0592 -0.6361 -0.7574
21805SOL    HW266837   9.122   8.079   1.146  1.3370  1.5693  1.7514
21806SOL     OW66838   6.204   4.432   2.317  0.0240 -0.0726  0.3740
21806SOL    HW166839   6.249   4.507   2.277  1.7023 -1.1951  0.0665
21806SOL    HW266840   6.184   4.375   2.244  1.2170 -1.1588  0.8450
21807SOL     OW66841   0.121   5.226   0.315  0.3283  0.5423  0.1364
21807SOL    HW166842   0.211   5.239   0.284  0.0682 -0.7065 -1.2555
21807SOL    HW266843   0.079   5.311   0.300  0.4277  0.2280 -2.3325
21808SOL     OW66844   3.368   1.466   4.764 -0.4449  0.3374 -0.2256
21808SOL    HW166845   3.379   1.557   4.738 -0.6244  0.2565 -0.5945
21808SOL    HW266846   3.273   1.451   4.763 -0.3748 -0.1531 -1.2539
21809SOL     OW66847   0.295   3.746   7.559 -0.2350 -0.3036  0.5512
21809SOL    HW166848   0.271   3.658   7.528 -0.1850  0.0669 -0.5898
21809SOL    HW266849   0.390   3.751   7.545  0.0294 -0.6382  2.1251
21810SOL     OW66850   2.151   3.454   6.453 -0.1049  0.1448 -0.4766
21810SOL    HW166851   2.158   3.498   6.369 -0.5821  0.9327 -0.1098
21810SOL    HW266852   2.073   3.491   6.494  0.8116  0.6911  0.8462
21811SOL     OW66853   3.283   2.096   8.058  0.4100  0.1788 -0.1463
21811SOL    HW166854   3.331   2.014   8.046 -0.8253 -0.3692 -1.6164
21811SOL    HW266855   3.321   2.156   7.994 -0.2019  0.0378 -0.6503
21812SOL     OW66856   0.529   2.127   3.009 -0.4959 -0.4658  0.2327
21812SOL    HW166857   0.552   2.091   2.923 -1.6030  1.2996 -0.8662
21812SOL    HW266858   0.433   2.136   3.006 -0.3755  1.4493  0.8604
21813SOL     OW66859   6.797   0.545   9.128  0.6099  0.0565  0.1803
21813SOL    HW166860   6.743   0.493   9.068  1.7992 -0.7805 -0.2072
21813SOL    HW266861   6.887   0.517   9.109  1.0998  0.6057  1.5782
21814SOL     OW66862   5.617   7.862   5.822 -0.0024  0.7135  0.6822
21814SOL    HW166863   5.673   7.786   5.809 -0.8952  0.2635 -0.8659
21814SOL    HW266864   5.675   7.937   5.807  0.8377  0.3600  2.0226
21815SOL     OW66865   5.312   5.422   7.799  0.0055 -0.7596  0.5567
21815SOL    HW166866   5.360   5.346   7.833 -0.8946 -0.4027  2.7877
21815SOL    HW266867   5.229   5.385   7.766 -0.4616 -0.7714  1.7019
21816SOL     OW66868   8.662   3.764   5.348  0.1921 -1.2919  0.1295
21816SOL    HW166869   8.724   3.706   5.394 -1.7249 -2.5816  1.2534
21816SOL    HW266870   8.702   3.850   5.352  1.1107 -1.7424  2.4309
21817SOL     OW66871   3.925   7.019   3.784 -0.8092 -0.1269  0.2927
21817SOL    HW166872   3.878   6.950   3.831  0.2316 -0.7412  0.4558
21817SOL    HW266873   4.013   7.018   3.821 -0.3159  0.1933 -0.8221
21818SOL     OW66874   7.190   2.121   6.142 -0.0584 -0.0086 -0.0015
21818SOL    HW166875   7.130   2.194   6.122  0.2582  0.2845  0.1147
21818SOL    HW266876   7.180   2.062   6.067 -0.4563  0.0636 -0.0091
21819SOL     OW66877   4.086   1.418   7.640 -0.3737  0.1320  0.6649
21819SOL    HW166878   4.030   1.423   7.563 -0.1509  0.4757  0.5227
21819SOL    HW266879   4.146   1.346   7.620 -0.6824 -0.1554  0.7653
21820SOL     OW66880   3.040   3.762   0.789 -0.0189  0.2497  0.4867
21820SOL    HW166881   2.980   3.787   0.719  0.1738  0.2540  0.3244
21820SOL    HW266882   2.983   3.724   0.856 -0.4613  1.9998  1.1789
21821SOL     OW66883   0.160   3.350   3.343  0.2577 -0.1926  0.5208
21821SOL    HW166884   0.098   3.413   3.379 -0.7889 -0.7379 -0.2902
21821SOL    HW266885   0.214   3.324   3.418  0.8712  1.8250  0.8150
21822SOL     OW66886   7.620   2.787   5.526  0.0440 -0.2405  0.1636
21822SOL    HW166887   7.672   2.816   5.450 -0.8557 -0.6701 -0.6360
21822SOL    HW266888   7.535   2.764   5.489 -0.9135  0.9530  1.5173
21823SOL     OW66889   0.712   1.979   1.898  0.1655 -0.2671 -0.0318
21823SOL    HW166890   0.771   2.043   1.938  0.4085 -0.9221  0.6658
21823SOL    HW266891   0.763   1.941   1.826  0.1191  0.1193 -0.2713
21824SOL     OW66892   4.752   3.501   7.831  0.1750 -0.3846 -0.0181
21824SOL    HW166893   4.747   3.409   7.807 -2.1702 -0.0465 -1.0562
21824SOL    HW266894   4.661   3.530   7.836  0.8173  1.6786  1.1662
21825SOL     OW66895   7.696   0.661   9.069 -0.5040 -0.4495  0.6382
21825SOL    HW166896   7.675   0.567   9.065 -0.2978 -0.4564 -0.4808
21825SOL    HW266897   7.650   0.699   8.995  1.5914 -0.1191 -0.5718
21826SOL     OW66898   5.044   6.920   1.840  0.2975 -0.9537  0.0141
21826SOL    HW166899   5.097   6.984   1.792  2.8588 -2.6754  0.3016
21826SOL    HW266900   4.963   6.966   1.861  1.9378  2.1453  0.1357
21827SOL     OW66901   2.862   0.276   1.856 -0.2821  0.3241  0.3732
21827SOL    HW166902   2.766   0.276   1.854 -0.3035 -1.5161 -0.2234
21827SOL    HW266903   2.888   0.267   1.765  0.4359 -0.3723  0.6332
21828SOL     OW66904   4.539   5.760   6.293  0.2659 -0.3351  0.3225
21828SOL    HW166905   4.454   5.799   6.313  0.3790 -0.1450  0.4458
21828SOL    HW266906   4.578   5.743   6.379  0.4271 -0.2485  0.2676
21829SOL     OW66907   9.194   3.475   4.743 -0.4203  0.2387 -0.3369
21829SOL    HW166908   9.191   3.506   4.834 -0.6967  1.2276 -0.6698
21829SOL    HW266909   9.224   3.550   4.693  0.4160 -0.5115 -0.9928
21830SOL     OW66910   7.083   5.299   7.327  0.1257  0.2223 -0.0327
21830SOL    HW166911   7.109   5.338   7.244  1.6607  0.5165  0.5390
21830SOL    HW266912   7.125   5.354   7.393 -0.6743 -0.2854  0.9143
21831SOL     OW66913   1.520   9.217   5.373 -0.0087  0.0574 -0.1165
21831SOL    HW166914   1.535   9.265   5.292  1.3350  0.0106  0.0818
21831SOL    HW266915   1.581   9.143   5.368  0.6724  0.4948  1.2797
21832SOL     OW66916   0.207   6.299   5.195 -0.3633  0.1454  0.3201
21832SOL    HW166917   0.302   6.292   5.182 -0.4097 -0.0823  0.0945
21832SOL    HW266918   0.179   6.210   5.216 -0.3937  0.3788  1.3149
21833SOL     OW66919   1.215   7.353   0.995  0.6775  0.9075  0.3445
21833SOL    HW166920   1.234   7.308   0.912 -2.2785 -0.6959  0.4200
21833SOL    HW266921   1.239   7.444   0.978  1.6327  0.3421 -1.7081
21834SOL     OW66922   1.783   2.954   7.763 -0.2317  0.3686  0.4895
21834SOL    HW166923   1.858   3.014   7.762  0.9916 -1.0233  1.6488
21834SOL    HW266924   1.781   2.922   7.853 -1.6333 -0.3718  0.2110
21835SOL     OW66925   7.615   8.641   2.113  0.0104  0.0946  0.3902
21835SOL    HW166926   7.680   8.662   2.046 -0.4638 -1.7326 -0.7057
21835SOL    HW266927   7.574   8.561   2.083 -1.5858  0.2668  1.9243
21836SOL     OW66928   6.825   7.650   2.260  0.2234  0.1038  0.0420
21836SOL    HW166929   6.831   7.745   2.252 -1.6286  0.4704  2.0913
21836SOL    HW266930   6.884   7.628   2.332 -1.0293  0.0534  1.0980
21837SOL     OW66931   5.512   2.532   3.822 -0.2808 -0.2906 -0.3339
21837SOL    HW166932   5.465   2.455   3.854 -1.0459  0.1673 -0.3366
21837SOL    HW266933   5.496   2.532   3.728 -2.2378  1.1272 -0.0664
21838SOL     OW66934   5.470   2.077   5.914 -0.3925  0.6901 -0.1939
21838SOL    HW166935   5.478   1.982   5.909 -0.0071  0.4584  2.9256
21838SOL    HW266936   5.555   2.110   5.882 -0.1790 -0.0464 -0.4015
21839SOL     OW66937   6.725   6.158   6.164  0.3860  0.2552  0.6231
21839SOL    HW166938   6.685   6.130   6.247  0.6778  0.1735  0.7383
21839SOL    HW266939   6.717   6.081   6.107  0.4744  0.2024  0.6811
21840SOL     OW66940   6.666   1.609   9.256 -0.5321 -0.3565 -0.3823
21840SOL    HW166941   6.691   1.620   9.348  1.3594  0.7468 -0.9880
21840SOL    HW266942   6.601   1.539   9.258 -0.2007 -0.6772  1.7485
21841SOL     OW66943   6.069   8.314   8.867  1.1395 -0.0690 -0.1514
21841SOL    HW166944   6.046   8.226   8.897 -0.0643  1.0041  2.3852
21841SOL    HW266945   6.109   8.355   8.943 -0.2754  2.2310 -0.5453
21842SOL     OW66946   5.513   3.914   7.225  0.1053  0.0067  0.0112
21842SOL    HW166947   5.477   3.899   7.312 -3.5787 -1.2299 -1.5421
21842SOL    HW266948   5.547   3.829   7.198 -1.2180 -0.3185 -0.7100
21843SOL     OW66949   6.540   7.691   2.377  0.2371 -0.5610  0.3429
21843SOL    HW166950   6.603   7.625   2.405 -0.2333 -1.7634 -1.2613
21843SOL    HW266951   6.455   7.658   2.407 -0.0193 -0.7667 -0.5878
21844SOL     OW66952   1.509   7.804   0.058 -0.3378 -0.1072  0.3495
21844SOL    HW166953   1.598   7.837   0.041  0.3478 -1.4305  1.1541
21844SOL    HW266954   1.487   7.753  -0.019  0.4704 -1.4567  0.9642
21845SOL     OW66955   7.372   8.647   8.046 -0.1827  0.0006  0.6587
21845SOL    HW166956   7.305   8.708   8.013 -0.7725 -0.6386  0.6539
21845SOL    HW266957   7.377   8.579   7.979 -0.3605 -0.5593  1.2043
21846SOL     OW66958   7.884   1.169   8.557  0.3478 -0.6752 -0.0928
21846SOL    HW166959   7.971   1.196   8.585  0.0669 -1.3353  1.4877
21846SOL    HW266960   7.890   1.073   8.550 -0.0941 -0.6727 -0.5458
21847SOL     OW66961   5.658   8.861   9.213 -0.2122  0.0632  0.3008
21847SOL    HW166962   5.694   8.945   9.184  1.5342 -1.4105 -2.2330
21847SOL    HW266963   5.684   8.854   9.304  0.6132  1.7703  0.2352
21848SOL     OW66964   9.238   7.180   5.329 -0.8725 -0.7378  0.0878
21848SOL    HW166965   9.178   7.108   5.309 -0.8014 -1.1751  1.3863
21848SOL    HW266966   9.325   7.146   5.307 -0.8598 -0.9741  0.5057
21849SOL     OW66967   6.939   4.803   3.091 -0.5782 -0.2406 -0.0281
21849SOL    HW166968   6.868   4.739   3.085 -0.3712 -0.4849  0.1027
21849SOL    HW266969   7.006   4.759   3.144  0.3033 -0.6246 -1.3955
21850SOL     OW66970   7.729   2.026   9.062 -0.2316  0.2317 -0.0793
21850SOL    HW166971   7.754   1.988   9.146 -1.7192  0.8554  0.6880
21850SOL    HW266972   7.666   1.965   9.025 -0.8580  0.7736  0.0663
21851SOL     OW66973   6.516   4.975   2.801  0.1604  0.8799 -0.6955
21851SOL    HW166974   6.590   5.029   2.828 -0.7042  0.8909  1.9675
21851SOL    HW266975   6.510   4.906   2.867 -0.2362 -1.1206 -2.6773
21852SOL     OW66976   4.823   5.904   7.446  0.2869 -0.1354 -0.3508
21852SOL    HW166977   4.874   5.838   7.398 -0.6796 -0.6584 -0.7027
21852SOL    HW266978   4.741   5.859   7.467  0.3342  0.3816  1.0229
21853SOL     OW66979   4.992   5.448   8.885 -0.3482  0.1478 -0.0737
21853SOL    HW166980   5.023   5.447   8.975  0.0686 -0.5018 -0.2145
21853SOL    HW266981   5.030   5.528   8.847  0.1595 -0.0076  0.0996
21854SOL     OW66982   0.434   1.125   8.708 -0.7994  0.9207  0.2606
21854SOL    HW166983   0.435   1.038   8.669 -1.7836  1.4081 -0.9497
21854SOL    HW266984   0.478   1.115   8.792  1.8103 -0.1105 -1.1383
21855SOL     OW66985   2.264   5.555   7.895  0.2936  0.2633 -0.1399
21855SOL    HW166986   2.171   5.572   7.911  0.2436  0.4123 -0.5894
21855SOL    HW266987   2.266   5.475   7.843  0.4877 -0.5483  1.0839
21856SOL     OW66988   7.465   4.072   5.267 -0.5039  0.0586  0.2127
21856SOL    HW166989   7.371   4.081   5.249 -0.4572 -2.5310 -1.8007
21856SOL    HW266990   7.504   4.050   5.183  1.3486 -2.5204  1.6090
21857SOL     OW66991   2.528   7.483   2.125  0.2576  0.1340 -0.1681
21857SOL    HW166992   2.613   7.514   2.155 -0.9314  2.3634  1.2259
21857SOL    HW266993   2.504   7.543   2.054 -0.9502  0.8205  0.7710
21858SOL     OW66994   7.698   6.191   6.954 -0.4617  0.3126 -0.3006
21858SOL    HW166995   7.642   6.185   6.876 -0.4224  1.4320 -0.4339
21858SOL    HW266996   7.767   6.126   6.939  0.0349  1.1088 -1.6214
21859SOL     OW66997   8.006   2.580   2.591  0.2192  0.2500 -0.1158
21859SOL    HW166998   8.055   2.652   2.631 -2.4930  1.8229  0.6391
21859SOL    HW266999   7.957   2.621   2.520 -0.4031 -1.1155 -0.5031
21860SOL     OW67000   3.186   1.643   1.215  0.0427  0.0139 -0.1428
21860SOL    HW167001   3.251   1.576   1.236 -0.7516 -0.4213  1.0341
21860SOL    HW267002   3.106   1.613   1.258 -0.9546  0.5498 -1.5480
21861SOL     OW67003   3.237   2.452   4.177  0.3878 -0.4621 -0.0151
21861SOL    HW167004   3.245   2.426   4.086  0.6315 -0.8512  0.1135
21861SOL    HW267005   3.295   2.392   4.224  0.1601 -0.3522  0.4102
21862SOL     OW67006   2.088   3.803   2.973 -0.1651 -0.4199 -0.0167
21862SOL    HW167007   2.009   3.792   3.026 -0.0214  1.0992  0.5496
21862SOL    HW267008   2.157   3.822   3.036  0.0678  1.1547 -0.7029
21863SOL     OW67009   8.277   7.667   3.096 -0.1980  0.2413  0.1700
21863SOL    HW167010   8.370   7.672   3.116 -0.3621  0.6321  0.8583
21863SOL    HW267011   8.273   7.662   3.000  0.5479 -0.4314  0.1678
21864SOL     OW67012   3.094   9.082   0.488  0.1248 -0.0600  0.1816
21864SOL    HW167013   3.054   9.160   0.526 -0.2970 -0.4846  0.6261
21864SOL    HW267014   3.144   9.044   0.561  0.1539 -0.3198  0.0249
21865SOL     OW67015   5.934   6.276   6.980 -0.0454  0.1947 -0.0033
21865SOL    HW167016   5.901   6.227   6.905  0.1400  1.8517 -1.2208
21865SOL    HW267017   5.974   6.209   7.037 -0.6856 -1.1593 -1.0900
21866SOL     OW67018   2.467   4.601   2.794  0.0341  0.5554  0.0283
21866SOL    HW167019   2.528   4.673   2.779 -0.1226  0.7058  0.1135
21866SOL    HW267020   2.380   4.639   2.781 -0.0006 -0.2790 -2.8742
21867SOL     OW67021   9.109   1.685   6.352  0.0506  0.4036  0.0610
21867SOL    HW167022   9.201   1.662   6.343  0.3192  1.3537  0.3414
21867SOL    HW267023   9.076   1.628   6.422  0.8988  1.3855  1.2930
21868SOL     OW67024   2.326   3.748   8.504  0.5166 -0.7538 -0.1818
21868SOL    HW167025   2.247   3.794   8.532 -0.2192 -2.2665  0.3611
21868SOL    HW267026   2.386   3.754   8.579  1.6730  1.8518 -1.1857
21869SOL     OW67027   2.810   3.719   7.422  0.3678  0.0375 -0.6651
21869SOL    HW167028   2.880   3.784   7.430 -0.2615  1.0340 -2.6468
21869SOL    HW267029   2.846   3.641   7.464  1.3985  1.4305  1.2238
21870SOL     OW67030   6.166   0.431   0.994 -0.1619 -0.7255  0.4811
21870SOL    HW167031   6.260   0.440   0.979 -0.0370  1.5985  2.1626
21870SOL    HW267032   6.137   0.367   0.929  2.4142 -0.8459 -0.6464
21871SOL     OW67033   6.544   5.975   6.314 -0.6749 -0.3232  0.7134
21871SOL    HW167034   6.585   5.896   6.278 -1.4017 -0.4957  0.2378
21871SOL    HW267035   6.524   5.953   6.405 -1.4323 -0.9135  0.4123
21872SOL     OW67036   2.322   5.246   0.251  0.3386  0.2313 -0.6197
21872SOL    HW167037   2.355   5.157   0.255 -0.8282 -0.1874 -0.1242
21872SOL    HW267038   2.228   5.238   0.260  0.2241  1.5313 -0.4190
21873SOL     OW67039   4.900   9.061   6.976  0.6472 -0.1858  0.0697
21873SOL    HW167040   4.951   9.011   6.913  3.3515  1.6266  0.6574
21873SOL    HW267041   4.933   9.151   6.969  1.3424  0.0781  4.1829
21874SOL     OW67042   3.107   5.798   3.646 -0.6096 -0.0645  0.7597
21874SOL    HW167043   3.130   5.751   3.565 -0.3754  3.7138 -1.6282
21874SOL    HW267044   3.190   5.834   3.678 -0.9701  0.0156  1.6309
21875SOL     OW67045   8.984   3.449   7.025  0.0059  0.0070  0.2965
21875SOL    HW167046   9.007   3.371   7.075 -0.2328  0.1435  0.6214
21875SOL    HW267047   8.898   3.429   6.988  0.6945 -0.5831 -1.0800
21876SOL     OW67048   8.132   2.178   8.140  0.7915 -0.1192 -0.5153
21876SOL    HW167049   8.151   2.204   8.230 -3.2239  2.0468 -0.0228
21876SOL    HW267050   8.113   2.260   8.095  1.2181 -1.2721 -2.9887
21877SOL     OW67051   7.750   8.607   5.800  0.5796 -0.1221  0.9747
21877SOL    HW167052   7.710   8.694   5.797 -1.0133 -0.8357 -0.1071
21877SOL    HW267053   7.843   8.623   5.812  0.5376  1.8045 -0.7801
21878SOL     OW67054   5.168   7.285   8.100 -0.5073  0.4321  0.2701
21878SOL    HW167055   5.155   7.310   8.009 -0.2308  3.0552  0.8745
21878SOL    HW267056   5.114   7.346   8.150 -0.5876 -0.8895  1.8965
21879SOL     OW67057   3.672   6.410   5.663 -0.2354 -0.1639  0.0817
21879SOL    HW167058   3.706   6.325   5.637  0.1286 -0.2895  0.9490
21879SOL    HW267059   3.602   6.391   5.725  0.8834  0.1764  1.5037
21880SOL     OW67060   1.322   4.547   3.627 -0.1762 -0.3674  0.1962
21880SOL    HW167061   1.292   4.627   3.584 -0.0554 -0.2447  0.3420
21880SOL    HW267062   1.289   4.477   3.571 -0.2931 -0.2172  0.0744
21881SOL     OW67063   6.619   8.324   8.611  0.2738  0.2781  0.2474
21881SOL    HW167064   6.528   8.334   8.638 -0.3166 -0.4175 -1.3978
21881SOL    HW267065   6.643   8.409   8.575  0.3872  0.5482  0.9372
21882SOL     OW67066   0.883   1.386   8.508 -0.6814 -0.3329 -0.3148
21882SOL    HW167067   0.934   1.466   8.520 -0.2914 -0.3562 -1.6423
21882SOL    HW267068   0.835   1.376   8.590 -2.0935  2.2011 -0.7304
21883SOL     OW67069   6.329   3.632   3.936  0.0220 -0.1235  0.2317
21883SOL    HW167070   6.258   3.569   3.921 -0.4819  0.4049  0.3465
21883SOL    HW267071   6.391   3.614   3.865 -0.9612  0.4168 -0.8127
21884SOL     OW67072   4.925   7.547   5.948  0.4429  0.2825 -0.3899
21884SOL    HW167073   4.986   7.599   6.001 -1.2038  0.7755  1.1165
21884SOL    HW267074   4.855   7.608   5.925  0.5599 -0.2195 -2.2584
21885SOL     OW67075   0.634   6.156   6.754  0.1085  0.6414  0.0575
21885SOL    HW167076   0.541   6.146   6.734  0.0021  1.2042  0.2596
21885SOL    HW267077   0.674   6.181   6.671  0.4241 -1.5664 -0.5305
21886SOL     OW67078   7.378   1.246   5.401  0.0857 -0.1794  0.5609
21886SOL    HW167079   7.377   1.253   5.496 -0.8457 -0.0235  0.5512
21886SOL    HW267080   7.371   1.152   5.384  0.6755 -0.2412  0.6432
21887SOL     OW67081   8.540   3.640   6.748  0.0043 -0.1030 -0.5395
21887SOL    HW167082   8.518   3.716   6.694 -3.8596 -0.8718 -0.2892
21887SOL    HW267083   8.583   3.579   6.688 -1.2502  0.3689 -1.9661
21888SOL     OW67084   5.148   8.463   4.200 -0.1212  0.1196 -0.7457
21888SOL    HW167085   5.186   8.375   4.196 -0.6648 -0.2663  1.3776
21888SOL    HW267086   5.222   8.520   4.223  0.2617  0.2867 -2.2649
21889SOL     OW67087   5.541   0.456   6.506  0.4612  0.0734 -0.2306
21889SOL    HW167088   5.565   0.364   6.518 -1.8002 -0.4597  0.7214
21889SOL    HW267089   5.571   0.500   6.586  0.6471 -0.0306 -0.2430
21890SOL     OW67090   8.034   4.187   4.764  0.2567  0.2634  0.0102
21890SOL    HW167091   8.017   4.105   4.718  1.5398  0.1515 -0.2898
21890SOL    HW267092   8.044   4.161   4.856 -0.6131  0.2628  0.1105
21891SOL     OW67093   0.275   7.591   3.060  0.6071  0.4323  1.4533
21891SOL    HW167094   0.278   7.637   3.144 -2.0417  0.1242  1.7989
21891SOL    HW267095   0.350   7.532   3.063  1.1503  1.1356  3.1749
21892SOL     OW67096   2.374   7.065   8.098 -0.5562  0.5146 -0.2276
21892SOL    HW167097   2.455   7.094   8.055 -0.4477 -0.2225 -0.5488
21892SOL    HW267098   2.310   7.059   8.027 -0.6576  0.2807 -0.1198
21893SOL     OW67099   3.886   7.265   5.824 -0.5875  0.5574  0.2241
21893SOL    HW167100   3.890   7.171   5.806  3.3933  0.6474 -0.1966
21893SOL    HW267101   3.892   7.272   5.919 -1.3210  0.4135  0.2869
21894SOL     OW67102   3.389   3.773   2.057 -0.3732 -0.2672 -0.2168
21894SOL    HW167103   3.460   3.780   2.121 -0.0108  0.4376 -0.6778
21894SOL    HW267104   3.380   3.862   2.022 -1.1669 -0.4542 -0.5076
21895SOL     OW67105   2.314   6.338   6.736  0.2627  0.4140 -0.3203
21895SOL    HW167106   2.237   6.286   6.758  0.5531 -0.6798 -1.7340
21895SOL    HW267107   2.379   6.273   6.708  1.4247  1.3848  0.0551
21896SOL     OW67108   3.652   4.349   1.480 -0.5034  0.0040 -0.0637
21896SOL    HW167109   3.601   4.280   1.522 -1.1818  0.8052  0.4698
21896SOL    HW267110   3.587   4.406   1.439  0.0911 -0.1257 -1.2328
21897SOL     OW67111   5.653   8.105   7.868 -0.7098  0.3646  0.0666
21897SOL    HW167112   5.596   8.029   7.857  1.1148 -1.0983  0.3026
21897SOL    HW267113   5.633   8.137   7.956 -0.4012 -0.8138  0.5838
21898SOL     OW67114   8.992   2.749   5.077  0.4500 -0.1583  0.2358
21898SOL    HW167115   9.078   2.729   5.040 -0.1679  0.3807 -1.6158
21898SOL    HW267116   8.934   2.752   5.001 -0.7592  1.8969  1.1707
21899SOL     OW67117   8.619   5.817   8.262  0.0906 -0.2399 -0.0760
21899SOL    HW167118   8.636   5.895   8.314 -0.9310 -0.6330  0.9076
21899SOL    HW267119   8.603   5.849   8.174  1.6208  0.4697 -0.1298
21900SOL     OW67120   8.542   0.669   0.158  0.1004  0.2776  0.3176
21900SOL    HW167121   8.600   0.745   0.168  0.3966  0.0563  0.3044
21900SOL    HW267122   8.602   0.595   0.154 -0.0641  0.2167 -1.6949
21901SOL     OW67123   7.051   8.432   6.418  0.2899 -0.4055  0.1308
21901SOL    HW167124   6.964   8.451   6.451 -0.6004  1.0795 -2.7115
21901SOL    HW267125   7.096   8.516   6.418  0.4677 -0.4610 -1.6097
21902SOL     OW67126   6.193   1.925   3.464 -0.6673  0.0058 -0.1444
21902SOL    HW167127   6.162   2.005   3.421  1.0804  0.3013 -0.9412
21902SOL    HW267128   6.181   1.856   3.399 -0.2310  0.0038 -0.2217
21903SOL     OW67129   0.772   6.196   1.174  0.1323 -0.7700 -0.1423
21903SOL    HW167130   0.740   6.268   1.120 -1.2965 -0.5766  0.9261
21903SOL    HW267131   0.741   6.117   1.129  0.5961 -0.6989 -0.6092
21904SOL     OW67132   0.549   7.483   2.685 -0.2635  0.5043 -0.3199
21904SOL    HW167133   0.629   7.506   2.731  0.6944  0.9520 -2.1104
21904SOL    HW267134   0.578   7.429   2.612 -1.9784 -2.4245  0.9870
21905SOL     OW67135   1.836   4.449   0.215 -0.0779  0.7801 -0.6844
21905SOL    HW167136   1.859   4.366   0.257 -0.3401  1.7386  1.4644
21905SOL    HW267137   1.918   4.482   0.179  0.0444 -0.3341 -1.4665
21906SOL     OW67138   6.465   2.730   6.231 -0.1743 -0.0894 -0.2031
21906SOL    HW167139   6.475   2.636   6.218  0.9420 -0.1625  0.9894
21906SOL    HW267140   6.370   2.743   6.240 -0.3081 -1.1646  0.0999
21907SOL     OW67141   5.646   3.476   3.538 -0.0685  0.5732 -0.3458
21907SOL    HW167142   5.697   3.503   3.615 -0.3906  1.7736 -0.5370
21907SOL    HW267143   5.625   3.384   3.555  0.5764  0.5845  0.6106
21908SOL     OW67144   4.546   0.495   2.162  0.1109  0.0937 -0.5007
21908SOL    HW167145   4.584   0.528   2.081 -0.1297  3.0436  0.4533
21908SOL    HW267146   4.616   0.506   2.227 -0.5467  0.3385  0.1811
21909SOL     OW67147   3.537   1.559   7.594  0.1868 -0.2816  0.6644
21909SOL    HW167148   3.501   1.604   7.670  1.6383  1.4184  0.4365
21909SOL    HW267149   3.461   1.522   7.549 -1.1790  2.0715  0.8409
21910SOL     OW67150   9.163   0.220   8.226 -0.3877  0.1742 -0.2075
21910SOL    HW167151   9.211   0.184   8.300  0.8251  0.4826 -0.8216
21910SOL    HW267152   9.113   0.146   8.192  0.5456 -0.4541 -0.2531
21911SOL     OW67153   8.580   6.078   8.359  0.3812 -0.0788  0.8104
21911SOL    HW167154   8.484   6.076   8.363  0.4062 -0.5331  1.2860
21911SOL    HW267155   8.606   6.128   8.437  0.4741  1.9267 -0.4356
21912SOL     OW67156   3.280   5.594   7.501  0.1884  0.0903 -0.5924
21912SOL    HW167157   3.345   5.598   7.430 -0.2063  1.6187 -0.9058
21912SOL    HW267158   3.197   5.614   7.458  0.2243  3.3449  0.5830
21913SOL     OW67159   1.283   1.927   0.103 -0.5346  0.8286  0.1678
21913SOL    HW167160   1.326   2.010   0.081  0.2917  0.4356  0.2618
21913SOL    HW267161   1.279   1.927   0.199 -0.4536  0.7176  0.1710
21914SOL     OW67162   6.478   7.866   5.096 -0.7253  0.4231  0.0405
21914SOL    HW167163   6.409   7.825   5.043 -0.6805  0.5841 -0.1447
21914SOL    HW267164   6.551   7.876   5.035 -0.6490  0.5451  0.1541
21915SOL     OW67165   7.059   8.241   8.247  0.0998  0.3027 -0.3181
21915SOL    HW167166   7.077   8.149   8.228  0.0363  0.3451 -0.5999
21915SOL    HW267167   7.142   8.285   8.229  0.0140  0.3562 -0.5876
21916SOL     OW67168   0.404   2.707   5.254 -0.1871  0.4395  0.1014
21916SOL    HW167169   0.406   2.785   5.310 -1.0829  1.6738 -1.5053
21916SOL    HW267170   0.495   2.697   5.225  0.0318  0.5771  0.7166
21917SOL     OW67171   1.715   6.642   0.341 -0.3551  0.9039  0.1823
21917SOL    HW167172   1.623   6.667   0.328  0.2271  2.3489 -1.6448
21917SOL    HW267173   1.738   6.593   0.262  0.3734  0.3025  0.7569
21918SOL     OW67174   5.321   6.305   0.528 -0.2321  0.5673 -0.6739
21918SOL    HW167175   5.402   6.356   0.524  0.7054 -0.9045 -2.6361
21918SOL    HW267176   5.309   6.275   0.438 -0.8735 -2.3734  0.2955
21919SOL     OW67177   3.170   9.101   2.732 -0.5756 -0.5622  0.3979
21919SOL    HW167178   3.157   9.147   2.814 -1.9293 -0.1607 -0.0199
21919SOL    HW267179   3.266   9.097   2.721 -0.4059  0.9576  1.0983
21920SOL     OW67180   5.685   8.278   3.510  0.0400  0.1223  0.0033
21920SOL    HW167181   5.664   8.368   3.535  0.5941 -0.2998  2.1836
21920SOL    HW267182   5.620   8.225   3.555 -0.2772 -0.6143 -1.2566
21921SOL     OW67183   2.096   3.671   1.890 -0.0369 -0.3605  0.5336
21921SOL    HW167184   2.117   3.734   1.959  1.9068 -1.7412  1.2937
21921SOL    HW267185   2.172   3.672   1.832 -1.5001  0.5444 -1.5051
21922SOL     OW67186   5.942   9.027   4.554 -0.6287 -0.0571  0.3938
21922SOL    HW167187   5.891   9.013   4.633 -0.9881  2.2812  0.6231
21922SOL    HW267188   6.030   8.995   4.575 -0.8138  0.2158  1.6017
21923SOL     OW67189   6.989   6.432   6.732 -0.1062 -0.0270 -0.4924
21923SOL    HW167190   7.039   6.501   6.688  1.4200  0.0422  1.2425
21923SOL    HW267191   7.007   6.353   6.680  0.3065  0.3680 -0.9623
21924SOL     OW67192   7.134   1.858   5.690 -0.7579 -0.1688  0.0385
21924SOL    HW167193   7.136   1.906   5.772  1.1784 -0.9208  0.4912
21924SOL    HW267194   7.055   1.804   5.695 -0.1065 -1.0275  1.9131
21925SOL     OW67195   6.326   6.542   5.308 -0.0084 -0.5328  0.4391
21925SOL    HW167196   6.402   6.539   5.251  0.0212  0.0241  0.4402
21925SOL    HW267197   6.333   6.627   5.352 -0.7623 -0.3777  0.2590
21926SOL     OW67198   0.354   4.109   0.934 -0.7698 -0.0977 -0.5420
21926SOL    HW167199   0.325   4.075   0.849 -0.6571 -0.6221 -0.3762
21926SOL    HW267200   0.364   4.031   0.989  0.7197  0.0707 -0.5226
21927SOL     OW67201   3.342   5.067   9.202  0.1620 -0.8081 -0.0041
21927SOL    HW167202   3.419   5.096   9.252 -0.2845  0.5036 -0.0388
21927SOL    HW267203   3.331   5.134   9.135 -1.8044 -0.2103  0.8414
21928SOL     OW67204   3.951   5.377   8.845  0.5730  0.2030 -0.1401
21928SOL    HW167205   3.880   5.440   8.838  1.5043  1.2739 -0.1766
21928SOL    HW267206   3.928   5.323   8.921  1.5998  3.0491  2.4030
21929SOL     OW67207   0.092   5.855   0.094  0.3309 -0.2246 -0.5864
21929SOL    HW167208   0.097   5.760   0.107  2.3722 -0.0264  0.3598
21929SOL    HW267209   0.166   5.875   0.037 -0.2382  0.7876 -0.9955
21930SOL     OW67210   4.275   8.761   2.982  0.3073  0.3432 -0.1931
21930SOL    HW167211   4.253   8.822   3.052 -1.8853  0.7621 -1.1537
21930SOL    HW267212   4.269   8.814   2.902  2.2114 -0.2546 -0.7938
21931SOL     OW67213   3.948   2.219   6.467  0.4805 -0.0771 -0.2382
21931SOL    HW167214   3.954   2.128   6.495  1.4564  0.2182  0.5459
21931SOL    HW267215   3.898   2.263   6.537 -0.3723 -0.0829 -0.8250
21932SOL     OW67216   2.420   2.509   4.809  0.1611 -0.5795 -0.2740
21932SOL    HW167217   2.457   2.596   4.824 -0.4442 -0.5675  1.3406
21932SOL    HW267218   2.342   2.506   4.865 -0.6660 -1.6364 -1.4331
21933SOL     OW67219   0.842   9.176   1.321  0.2303 -0.6013  0.5932
21933SOL    HW167220   0.930   9.139   1.316 -0.0050 -1.1170  0.2021
21933SOL    HW267221   0.806   9.164   1.233 -0.2664 -0.4741  0.7764
21934SOL     OW67222   0.031   0.563   8.163 -0.1361  0.0621  0.4445
21934SOL    HW167223   0.094   0.510   8.213  0.3323  0.6662  0.5071
21934SOL    HW267224   0.021   0.517   8.080  0.6266  0.1271  0.3150
21935SOL     OW67225   4.186   3.855   1.060 -0.3311 -0.1488  0.9982
21935SOL    HW167226   4.206   3.774   1.012  2.1296  0.0204  1.5850
21935SOL    HW267227   4.185   3.828   1.152  2.2732  0.6560  1.3680
21936SOL     OW67228   7.988   7.967   0.435  0.6856 -0.0860 -0.3903
21936SOL    HW167229   8.060   8.021   0.405  0.4651 -0.3556 -1.4479
21936SOL    HW267230   7.919   7.979   0.369 -0.1070 -0.1064  0.4116
21937SOL     OW67231   0.174   8.921   7.506 -0.4047  0.6960  0.4483
21937SOL    HW167232   0.207   8.907   7.595  0.1161 -2.2025 -0.0719
21937SOL    HW267233   0.093   8.870   7.502  0.7174 -1.1311 -1.2848
21938SOL     OW67234   1.805   0.538   8.206  0.1958 -0.4852  0.3049
21938SOL    HW167235   1.734   0.602   8.203 -0.3913 -0.9305  2.6274
21938SOL    HW267236   1.875   0.577   8.154 -1.0047  0.9233 -0.3040
21939SOL     OW67237   1.824   8.729   7.114  0.0524 -0.4157 -0.1899
21939SOL    HW167238   1.733   8.704   7.131 -0.2207 -0.3119 -1.4166
21939SOL    HW267239   1.839   8.704   7.023  0.5359  1.6414 -0.7234
21940SOL     OW67240   1.115   1.913   6.086 -0.4104  0.1129  0.3916
21940SOL    HW167241   1.168   1.882   6.159 -0.5138 -0.3354  0.2800
21940SOL    HW267242   1.120   1.842   6.021  1.2267  1.2813 -0.8327
21941SOL     OW67243   5.626   2.191   0.493 -0.0236 -0.4776  0.3696
21941SOL    HW167244   5.680   2.171   0.417 -1.2945 -1.4574 -0.3395
21941SOL    HW267245   5.595   2.280   0.479 -2.9449 -1.6711 -2.1267
21942SOL     OW67246   7.240   6.065   2.393 -0.7130  0.2934  0.0872
21942SOL    HW167247   7.328   6.044   2.362  0.0934  1.9041  1.1235
21942SOL    HW267248   7.198   5.980   2.404  0.5851 -0.5046 -0.7850
21943SOL     OW67249   4.279   0.566   0.915 -0.1483 -0.2135 -0.1397
21943SOL    HW167250   4.305   0.476   0.895 -1.2562 -0.8362  1.0906
21943SOL    HW267251   4.210   0.586   0.852  0.8823  0.2262 -1.1746
21944SOL     OW67252   1.429   1.263   7.050 -0.0259 -0.2372  0.1758
21944SOL    HW167253   1.498   1.197   7.061  1.4443  0.6970 -2.5495
21944SOL    HW267254   1.462   1.340   7.095  0.6546  0.1494 -0.9602
21945SOL     OW67255   6.987   1.564   2.536  0.1551  0.3556 -0.1216
21945SOL    HW167256   6.935   1.636   2.571  0.0457  0.8877 -1.3351
21945SOL    HW267257   7.066   1.606   2.502 -0.2272  0.0214 -1.4827
21946SOL     OW67258   3.269   5.494   1.132  0.1888 -0.5007 -0.1259
21946SOL    HW167259   3.247   5.439   1.208 -0.5576 -1.5621 -1.0943
21946SOL    HW267260   3.352   5.457   1.100  0.8780  0.3956  0.5727
21947SOL     OW67261   7.587   7.374   4.400 -0.4840 -0.0640  0.3007
21947SOL    HW167262   7.580   7.360   4.305 -0.0815 -1.5778  0.4605
21947SOL    HW267263   7.497   7.379   4.430 -0.6216  0.0711 -0.1302
21948SOL     OW67264   1.478   6.704   7.804  0.1511  0.0237 -0.4969
21948SOL    HW167265   1.495   6.695   7.898  0.2227  0.4949 -0.4637
21948SOL    HW267266   1.553   6.751   7.770 -0.5157  1.0684 -0.5501
21949SOL     OW67267   2.755   0.878   3.311 -0.2306 -0.1144  0.1311
21949SOL    HW167268   2.836   0.828   3.310 -0.0611  0.0876 -2.4169
21949SOL    HW267269   2.697   0.830   3.371  1.8865  0.0894  2.5197
21950SOL     OW67270   5.312   4.300   3.285  0.4904 -0.3676 -0.0158
21950SOL    HW167271   5.289   4.211   3.315 -0.0066 -0.1467  0.2696
21950SOL    HW267272   5.305   4.354   3.364 -1.9152  0.4431 -0.6845
21951SOL     OW67273   6.497   5.945   8.399 -0.0430  0.2221 -0.1079
21951SOL    HW167274   6.485   6.040   8.398  1.1049  0.3796 -0.6849
21951SOL    HW267275   6.532   5.926   8.486  0.1993  0.3941 -0.1682
21952SOL     OW67276   8.637   5.386   4.311  0.2256 -0.4601 -0.7110
21952SOL    HW167277   8.683   5.458   4.268 -0.4083  1.0431  0.9508
21952SOL    HW267278   8.545   5.399   4.286 -0.2740  0.9086  1.5398
21953SOL     OW67279   7.090   4.037   0.736  0.1152  0.0045  0.7626
21953SOL    HW167280   7.027   4.085   0.681 -0.3526 -1.1689  0.2539
21953SOL    HW267281   7.172   4.086   0.726  0.4562 -0.9902 -2.2047
21954SOL     OW67282   5.476   0.010   7.294  0.3196 -0.2129 -0.3969
21954SOL    HW167283   5.414   0.022   7.222 -0.1537 -1.4101 -0.2153
21954SOL    HW267284   5.526  -0.068   7.271  0.4206 -0.3876  0.3751
21955SOL     OW67285   6.025   3.805   2.936  0.2606 -0.3510 -0.5003
21955SOL    HW167286   6.042   3.711   2.930 -2.5067 -0.9337 -0.4809
21955SOL    HW267287   6.054   3.840   2.852 -0.2285 -1.5356 -1.1892
21956SOL     OW67288   7.725   3.391   4.714 -0.1471  0.2755 -0.3807
21956SOL    HW167289   7.686   3.317   4.667 -1.3308  0.9833 -0.5504
21956SOL    HW267290   7.742   3.357   4.802 -0.4475 -0.2684 -0.5267
21957SOL     OW67291   2.368   8.006   8.493 -0.0849 -0.0336 -0.3729
21957SOL    HW167292   2.380   8.004   8.399 -1.0594  0.0443 -0.5119
21957SOL    HW267293   2.308   8.079   8.509 -1.5827 -1.2969  0.0765
21958SOL     OW67294   6.631   7.889   1.470 -0.1308  0.4976 -0.5897
21958SOL    HW167295   6.653   7.838   1.392  1.2542  1.0463 -0.5846
21958SOL    HW267296   6.591   7.969   1.435 -1.8807 -0.3419 -0.6126
21959SOL     OW67297   5.499   4.060   8.450  0.3214  0.0125 -0.3757
21959SOL    HW167298   5.439   4.118   8.403  0.2403  0.4911  0.3062
21959SOL    HW267299   5.448   3.981   8.468 -0.0108  0.2953 -0.0681
21960SOL     OW67300   1.213   7.806   2.883  0.5109  0.2849 -0.0164
21960SOL    HW167301   1.139   7.795   2.824  0.2254  2.6450 -0.2206
21960SOL    HW267302   1.176   7.796   2.971  0.1369  0.4929 -0.1471
21961SOL     OW67303   6.203   1.166   6.797  0.0487  0.2504  0.1790
21961SOL    HW167304   6.202   1.184   6.703 -0.2764 -0.9418 -0.0608
21961SOL    HW267305   6.292   1.189   6.825  0.3964 -0.1435 -0.5807
21962SOL     OW67306   6.849   5.598   0.698 -0.6361 -0.2690  0.4773
21962SOL    HW167307   6.921   5.661   0.687 -0.9842  0.5625  2.4355
21962SOL    HW267308   6.853   5.543   0.620  2.1385 -0.2684  0.4921
21963SOL     OW67309   2.449   6.090   7.563  0.6083 -0.2150  0.1700
21963SOL    HW167310   2.498   6.143   7.500 -0.3267  0.5419  0.0494
21963SOL    HW267311   2.398   6.154   7.614  0.0606 -0.9410  0.5598
21964SOL     OW67312   2.148   3.062   9.273  0.7496  0.1836 -0.0217
21964SOL    HW167313   2.165   3.027   9.361 -0.0766 -3.2395 -1.0446
21964SOL    HW267314   2.053   3.054   9.263  0.3812  3.5006 -0.2071
21965SOL     OW67315   5.316   3.359   2.835  0.0387  0.2621 -0.3530
21965SOL    HW167316   5.356   3.372   2.749 -1.3879 -0.1829 -1.0991
21965SOL    HW267317   5.230   3.399   2.828 -0.6290 -0.9869  0.4260
21966SOL     OW67318   4.906   9.060   2.793 -0.2635 -0.1541 -0.2273
21966SOL    HW167319   4.991   9.098   2.816 -0.8058  0.4942  0.8195
21966SOL    HW267320   4.916   8.967   2.812  0.2008 -0.0720 -0.0458
21967SOL     OW67321   5.101   3.449   8.167  0.4740 -0.1421  0.0995
21967SOL    HW167322   5.070   3.532   8.130  1.9085  1.4196  2.1371
21967SOL    HW267323   5.112   3.468   8.261  0.9923 -2.6215  0.6026
21968SOL     OW67324   7.322   0.947   6.835  0.1358  0.3887 -0.1238
21968SOL    HW167325   7.354   1.012   6.771  3.2285 -1.2295 -0.4138
21968SOL    HW267326   7.231   0.931   6.809  0.6026  1.4210 -2.7470
21969SOL     OW67327   3.277   2.685   3.524 -0.2582 -0.0823 -0.1038
21969SOL    HW167328   3.282   2.624   3.451  0.9032 -0.7042  0.4654
21969SOL    HW267329   3.294   2.632   3.602 -0.3286  0.7640  0.5116
21970SOL     OW67330   6.758   3.108   6.477  0.1874 -0.2153 -0.4176
21970SOL    HW167331   6.708   3.048   6.422 -0.7697  1.8915 -2.0201
21970SOL    HW267332   6.835   3.130   6.425  0.0203  0.6875 -0.3000
21971SOL     OW67333   7.151   6.319   2.451 -0.0964  0.8604  0.5878
21971SOL    HW167334   7.231   6.366   2.474 -0.1934  0.9390  0.7640
21971SOL    HW267335   7.180   6.229   2.436  0.1603  1.0589 -0.1654
21972SOL     OW67336   5.972   7.489   0.003 -0.2598  0.0531 -0.0805
21972SOL    HW167337   5.981   7.550  -0.071  0.5873  1.9438  1.4700
21972SOL    HW267338   5.927   7.540   0.070  1.9659 -0.4067  1.8949
21973SOL     OW67339   1.755   8.328   4.385  0.0558 -0.5736 -0.0878
21973SOL    HW167340   1.756   8.413   4.431  0.6078  0.0793 -1.2667
21973SOL    HW267341   1.666   8.295   4.399 -0.1298  0.1311  0.5049
21974SOL     OW67342   6.693   6.642   4.083 -0.8156  0.1417  0.0976
21974SOL    HW167343   6.640   6.644   4.004  0.7898  1.4369 -1.0271
21974SOL    HW267344   6.780   6.615   4.053 -0.6664 -1.5896  1.8121
21975SOL     OW67345   3.603   3.494   3.295  0.3814  0.0180 -0.3882
21975SOL    HW167346   3.615   3.409   3.336 -0.6565 -0.7818 -1.6555
21975SOL    HW267347   3.552   3.545   3.358  3.2274  0.7301  1.5760
21976SOL     OW67348   8.617   1.365   5.422  0.1928  0.3474  0.1637
21976SOL    HW167349   8.540   1.419   5.404  1.3102  2.1133  0.4238
21976SOL    HW267350   8.669   1.369   5.341  0.2810 -0.3800  0.1780
21977SOL     OW67351   1.083   0.352   6.985 -0.1368 -0.6956  0.2810
21977SOL    HW167352   1.006   0.386   6.941  0.9038 -0.3441 -1.3287
21977SOL    HW267353   1.051   0.326   7.072 -1.9858 -0.3042 -0.2384
21978SOL     OW67354   0.899   3.846   8.194  0.3380 -0.2083 -0.1801
21978SOL    HW167355   0.915   3.751   8.188 -0.8059 -0.5491  1.4840
21978SOL    HW267356   0.812   3.858   8.156 -0.6740 -0.2596  2.0125
21979SOL     OW67357   3.902   9.122   8.258  0.6345 -0.6972 -0.1330
21979SOL    HW167358   3.837   9.076   8.205 -0.1317 -0.8513  0.9112
21979SOL    HW267359   3.985   9.081   8.235  0.3189 -0.7717 -1.1924
21980SOL     OW67360   3.677   9.102   5.195  0.3571 -0.3801 -0.0645
21980SOL    HW167361   3.653   9.132   5.283  1.7229  0.7408 -0.0467
21980SOL    HW267362   3.614   9.145   5.137 -0.9708 -1.6398  0.3719
21981SOL     OW67363   1.206   6.765   3.601 -0.0753 -0.2715 -0.1901
21981SOL    HW167364   1.190   6.854   3.632  0.8096  0.1629 -0.9346
21981SOL    HW267365   1.142   6.752   3.531  1.4033  0.7438 -1.8215
21982SOL     OW67366   6.632   2.369   4.134 -0.3450  0.4182  0.2197
21982SOL    HW167367   6.681   2.451   4.148 -0.2008  0.2651  0.6260
21982SOL    HW267368   6.579   2.360   4.213  0.2808 -0.3245  0.5649
21983SOL     OW67369   3.456   6.099   7.942  0.2405 -0.3170 -0.1556
21983SOL    HW167370   3.379   6.138   7.984  0.1892 -1.5415  0.9442
21983SOL    HW267371   3.421   6.027   7.890  0.6661 -1.1928  0.7405
21984SOL     OW67372   5.507   7.992   1.854 -0.3703  0.9006 -0.3099
21984SOL    HW167373   5.578   7.976   1.793 -1.1070  1.8157 -1.4648
21984SOL    HW267374   5.535   8.068   1.905 -0.6647  1.5210 -1.0479
21985SOL     OW67375   3.631   1.931   7.529 -0.4062  0.1253 -0.2582
21985SOL    HW167376   3.552   1.880   7.546  0.2830 -1.0785 -0.5415
21985SOL    HW267377   3.604   1.995   7.463 -0.9286 -0.8885 -1.0542
21986SOL     OW67378   1.930   5.730   6.955  0.8062 -0.1196  0.5774
21986SOL    HW167379   1.998   5.673   6.989  0.6302 -0.8310 -0.2236
21986SOL    HW267380   1.861   5.670   6.926  0.7905  0.4700 -0.6520
21987SOL     OW67381   3.470   4.063   0.107 -0.0807  0.5041  0.1472
21987SOL    HW167382   3.495   4.000   0.175  0.6997  1.6572  0.9590
21987SOL    HW267383   3.375   4.059   0.104 -0.0986  0.0985  0.9742
21988SOL     OW67384   1.665   4.099   7.156  0.1581 -0.7765 -0.4008
21988SOL    HW167385   1.607   4.095   7.232  0.5162  0.2755 -0.0644
21988SOL    HW267386   1.710   4.183   7.163 -0.9705  0.1016 -2.6356
21989SOL     OW67387   6.300   8.466   5.403  0.0674  0.3449  0.0606
21989SOL    HW167388   6.382   8.499   5.440  0.1421  1.7119 -1.2218
21989SOL    HW267389   6.310   8.371   5.405  0.3738  0.3692  2.7544
21990SOL     OW67390   0.370   2.400   9.032 -0.3484 -0.1603  0.0172
21990SOL    HW167391   0.328   2.485   9.021 -0.2351 -0.0101  0.7057
21990SOL    HW267392   0.429   2.411   9.107  0.6190 -0.4828 -0.6733
21991SOL     OW67393   6.733   9.148   4.170  0.3247  0.2898 -0.0623
21991SOL    HW167394   6.681   9.227   4.185 -0.1135  0.1200 -0.6224
21991SOL    HW267395   6.694   9.082   4.227  1.6148  0.8320  1.5198
21992SOL     OW67396   8.221   5.215   3.728 -0.0152  0.3984 -0.1456
21992SOL    HW167397   8.220   5.265   3.810 -0.9507 -1.6598  1.1657
21992SOL    HW267398   8.266   5.134   3.750 -0.5704 -0.3325 -1.6041
21993SOL     OW67399   5.964   4.500   3.465 -0.2518  0.1310 -0.0429
21993SOL    HW167400   5.973   4.499   3.370 -1.0417 -0.8077 -0.1267
21993SOL    HW267401   5.889   4.557   3.481  0.9033  1.6763  0.1572
21994SOL     OW67402   3.412   0.882   8.911  0.1915 -0.1026 -0.4588
21994SOL    HW167403   3.395   0.854   8.821  1.0149  2.0045 -1.3500
21994SOL    HW267404   3.325   0.895   8.949 -0.1829 -2.2186 -0.4888
21995SOL     OW67405   6.528   0.957   5.668  0.9552  0.3407  0.5912
21995SOL    HW167406   6.580   1.012   5.728  1.2119 -0.7580  1.3970
21995SOL    HW267407   6.473   1.020   5.621  2.6147  1.4944  0.0860
21996SOL     OW67408   4.125   3.851   4.735 -0.7391  0.1255 -0.1069
21996SOL    HW167409   4.089   3.792   4.801  2.6236  0.5856  2.4320
21996SOL    HW267410   4.157   3.793   4.665 -0.9047 -0.7381  0.5213
21997SOL     OW67411   4.284   8.626   3.317 -0.0786 -0.2017  0.4012
21997SOL    HW167412   4.376   8.643   3.297 -0.0770 -0.3624  0.2680
21997SOL    HW267413   4.240   8.709   3.302 -0.2650 -0.5865 -1.4137
21998SOL     OW67414   3.195   7.870   1.215  0.4069 -0.4313  0.9454
21998SOL    HW167415   3.150   7.867   1.300  0.4989 -1.4183  0.9621
21998SOL    HW267416   3.220   7.780   1.197 -1.7857 -0.6980 -1.3121
21999SOL     OW67417   2.289   5.717   8.336  0.1946 -0.6440 -0.9710
21999SOL    HW167418   2.210   5.664   8.341 -0.6337  0.6590  0.9454
21999SOL    HW267419   2.274   5.775   8.261 -2.4618  2.1271  1.4526
22000SOL     OW67420   5.175   8.637   3.088 -0.3491  0.3627 -0.0317
22000SOL    HW167421   5.115   8.694   3.137 -1.9697  0.6689 -2.2505
22000SOL    HW267422   5.120   8.567   3.054  1.0403 -0.7449 -0.0847
22001SOL     OW67423   0.524   2.237   8.888 -0.2759  0.4056 -0.3040
22001SOL    HW167424   0.459   2.289   8.934  1.4221  0.0476  2.7433
22001SOL    HW267425   0.604   2.290   8.891  0.9132 -1.3491  0.8767
22002SOL     OW67426   5.736   7.526   7.380 -0.0217 -0.0114  0.3482
22002SOL    HW167427   5.780   7.610   7.389 -0.6190  0.1900  1.7427
22002SOL    HW267428   5.674   7.524   7.453 -0.1066 -1.6056  0.2649
22003SOL     OW67429   2.067   6.733   5.996 -0.0879  0.2420 -0.5450
22003SOL    HW167430   2.023   6.652   6.022 -3.2353  1.4436 -1.7047
22003SOL    HW267431   2.046   6.796   6.066 -2.0981  1.3713 -2.0528
22004SOL     OW67432   0.106   6.764   5.460  0.1763 -0.1235  0.4884
22004SOL    HW167433   0.143   6.792   5.376  2.3973 -0.4627  1.2760
22004SOL    HW267434   0.035   6.703   5.436 -0.7875  1.5456 -1.1176
22005SOL     OW67435   6.642   7.452   2.637  0.2704 -0.4885 -0.1923
22005SOL    HW167436   6.736   7.436   2.634  0.0421 -3.0609  2.0389
22005SOL    HW267437   6.612   7.435   2.547  1.6367 -2.3102 -0.3599
22006SOL     OW67438   5.321   4.806   4.616  0.2672  0.1023  0.4401
22006SOL    HW167439   5.323   4.740   4.546  0.7103 -0.1590  0.6874
22006SOL    HW267440   5.250   4.778   4.673 -1.1490  1.1938 -0.7148
22007SOL     OW67441   7.953   1.350   1.304 -0.6234 -0.0674 -0.2479
22007SOL    HW167442   7.873   1.298   1.312  0.6321 -1.9855  0.4278
22007SOL    HW267443   8.006   1.302   1.241  0.5950  0.3459  0.4306
22008SOL     OW67444   7.233   1.929   6.893  0.2680  0.1163 -0.2391
22008SOL    HW167445   7.249   1.835   6.883  1.6592  0.3781 -0.6297
22008SOL    HW267446   7.148   1.943   6.852  1.1628 -0.5713 -2.4918
22009SOL     OW67447   7.016   9.166   2.231 -0.0286  0.6765 -0.1375
22009SOL    HW167448   6.956   9.177   2.157  2.3583 -1.8749 -2.7413
22009SOL    HW267449   7.103   9.161   2.190  1.7772  1.8307  3.1702
22010SOL     OW67450   0.662   1.150   7.434  0.0069  0.0132 -0.0853
22010SOL    HW167451   0.585   1.126   7.381 -0.3832 -0.1320  0.5362
22010SOL    HW267452   0.736   1.135   7.376 -0.4435  0.3293 -0.7582
22011SOL     OW67453   8.506   5.423   2.379  0.1464  0.8995 -0.3306
22011SOL    HW167454   8.459   5.480   2.319 -0.2144 -0.3422 -1.2550
22011SOL    HW267455   8.451   5.419   2.457 -0.5334  0.6779 -0.8185
22012SOL     OW67456   0.369   3.919   2.920 -0.0166  0.5030  0.1393
22012SOL    HW167457   0.353   3.969   2.841 -1.6835  0.9165  0.6946
22012SOL    HW267458   0.414   3.980   2.979 -1.2283  1.1076  0.4804
22013SOL     OW67459   2.660   1.319   3.607 -0.1010 -0.0349  0.0842
22013SOL    HW167460   2.755   1.307   3.607  0.1533  1.6357 -0.9434
22013SOL    HW267461   2.647   1.412   3.587 -1.9065  0.6124  3.4513
22014SOL     OW67462   8.011   2.548   5.111 -0.2957  0.1606 -0.3872
22014SOL    HW167463   8.084   2.507   5.158  0.0889 -0.0006 -1.1046
22014SOL    HW267464   8.014   2.640   5.138 -2.3061 -0.5501  2.6807
22015SOL     OW67465   6.180   4.043   3.489 -0.7947 -0.2781 -0.4885
22015SOL    HW167466   6.117   4.087   3.432  0.0062  3.5782  1.2662
22015SOL    HW267467   6.126   3.993   3.550 -1.8376 -1.1347 -2.0621
22016SOL     OW67468   2.348   1.395   6.078  0.4372 -0.0309  1.0707
22016SOL    HW167469   2.416   1.367   6.016  0.7671  1.3719  0.7624
22016SOL    HW267470   2.310   1.314   6.110  0.2931 -0.8072 -0.9497
22017SOL     OW67471   5.522   3.545   4.788  0.0373  0.2930  0.0463
22017SOL    HW167472   5.532   3.515   4.697  0.2512 -0.0450  0.1792
22017SOL    HW267473   5.612   3.552   4.820 -0.0049  1.2673 -0.0408
22018SOL     OW67474   8.045   8.070   4.570 -0.4824 -0.1281  0.0410
22018SOL    HW167475   7.952   8.088   4.587 -0.0286  1.0160  1.5691
22018SOL    HW267476   8.081   8.154   4.543 -0.2062 -0.9504 -2.3646
22019SOL     OW67477   2.923   1.324   2.263 -0.2330 -0.3841 -0.3095
22019SOL    HW167478   3.012   1.290   2.253  0.3530  1.0489 -0.1992
22019SOL    HW267479   2.930   1.389   2.333 -1.5244 -0.7624  0.2000
22020SOL     OW67480   8.453   9.264   3.841 -0.1789 -0.6303  0.5390
22020SOL    HW167481   8.455   9.289   3.748 -1.3005 -3.1274 -0.2387
22020SOL    HW267482   8.534   9.301   3.877  0.2165  0.5219 -1.3938
22021SOL     OW67483   0.869   1.542   6.499  0.3790  0.5974 -0.8964
22021SOL    HW167484   0.910   1.624   6.524 -2.3252  1.7416  0.1341
22021SOL    HW267485   0.836   1.505   6.582  1.2076 -1.3545 -1.3854
22022SOL     OW67486   7.355   4.176   6.702  0.4214 -0.1493 -0.3143
22022SOL    HW167487   7.444   4.163   6.671  0.2187 -2.5048 -0.1395
22022SOL    HW267488   7.349   4.270   6.721  2.4021  0.3046 -1.6223
22023SOL     OW67489   7.441   4.517   4.280 -1.0014  0.2826  0.2359
22023SOL    HW167490   7.394   4.561   4.209 -0.4576  1.3954  0.5255
22023SOL    HW267491   7.396   4.545   4.360 -1.1455 -0.3563  0.3844
22024SOL     OW67492   0.646   6.322   1.444  0.1598  0.3056 -0.1031
22024SOL    HW167493   0.639   6.299   1.351 -0.5185 -1.1912  0.2941
22024SOL    HW267494   0.737   6.305   1.467 -0.1339 -1.2706 -0.0248
22025SOL     OW67495   0.362   6.915   7.116  0.2842 -0.3658 -0.0181
22025SOL    HW167496   0.301   6.940   7.186  0.2790  0.1535 -0.2042
22025SOL    HW267497   0.347   6.821   7.104  0.0049 -0.3796  0.4063
22026SOL     OW67498   5.393   1.519   1.126 -0.5754  0.0576 -0.4049
22026SOL    HW167499   5.354   1.436   1.099  0.3358 -0.9396  1.1594
22026SOL    HW267500   5.374   1.525   1.220 -1.3535  2.0638 -0.6387
22027SOL     OW67501   1.854   1.315   5.840  0.0837  0.1923  0.3838
22027SOL    HW167502   1.767   1.289   5.869 -0.2855 -0.3468 -1.1012
22027SOL    HW267503   1.894   1.234   5.807  1.4671  0.2703  1.7294
22028SOL     OW67504   1.138   3.626   6.118  0.3195  0.0783  0.3821
22028SOL    HW167505   1.159   3.699   6.059  1.2232 -0.2539  0.2694
22028SOL    HW267506   1.104   3.558   6.060  0.7230 -0.0628  0.3085
22029SOL     OW67507   2.907   0.120   4.086  0.3982 -0.6284  0.2291
22029SOL    HW167508   2.979   0.114   4.148 -1.2173  0.0925  2.2962
22029SOL    HW267509   2.830   0.096   4.136 -1.3118  2.1569 -0.8334
22030SOL     OW67510   4.718   7.682   5.421  0.4140 -0.2015  1.1580
22030SOL    HW167511   4.754   7.769   5.401  0.9533 -0.7252 -0.3205
22030SOL    HW267512   4.632   7.681   5.379  0.4675 -0.4236  1.0493
22031SOL     OW67513   2.865   2.638   8.572  0.1375 -0.3569 -0.0455
22031SOL    HW167514   2.827   2.690   8.643  0.4730  1.4171 -1.1084
22031SOL    HW267515   2.791   2.614   8.517  0.2411  1.8239 -1.2937
22032SOL     OW67516   1.329   1.600   4.414 -0.5546  0.2466 -0.2327
22032SOL    HW167517   1.257   1.626   4.472  0.0521 -0.9548  1.1361
22032SOL    HW267518   1.401   1.579   4.474 -0.4339 -2.7188 -1.2601
22033SOL     OW67519   7.004   3.839   3.198  0.2451 -0.1529  0.2183
22033SOL    HW167520   7.010   3.893   3.120  1.7378 -0.6842 -0.0713
22033SOL    HW267521   6.966   3.897   3.265 -0.2572  0.5549 -0.6595
22034SOL     OW67522   4.951   0.112   6.210  0.5377 -0.4233  0.3397
22034SOL    HW167523   4.888   0.087   6.277 -0.4030 -1.8520 -1.0111
22034SOL    HW267524   5.016   0.041   6.212  2.6320  1.3932  2.2355
22035SOL     OW67525   2.791   7.802   7.108  0.1417  0.2490 -0.2173
22035SOL    HW167526   2.876   7.765   7.084  0.0623  0.1627 -0.3705
22035SOL    HW267527   2.802   7.832   7.198 -0.0358 -0.8857  0.1998
22036SOL     OW67528   0.610   5.239   2.446 -0.1367  0.2060  0.0816
22036SOL    HW167529   0.525   5.212   2.411 -0.6827  1.7039  0.1645
22036SOL    HW267530   0.673   5.210   2.381 -0.8178 -0.0095 -0.4959
22037SOL     OW67531   5.642   4.598   0.185  0.1133  0.6002  0.5580
22037SOL    HW167532   5.557   4.563   0.213  1.0779 -0.9926  1.6426
22037SOL    HW267533   5.638   4.596   0.090 -0.7385 -0.3150  0.5915
22038SOL     OW67534   7.641   7.031   2.158  0.1030 -0.1510  0.3306
22038SOL    HW167535   7.709   7.064   2.217 -0.9493  0.1444  1.4103
22038SOL    HW267536   7.559   7.047   2.204 -0.7317 -0.3002 -1.0433
22039SOL     OW67537   8.859   7.355   0.799  0.2523 -0.9607  0.4986
22039SOL    HW167538   8.795   7.355   0.870 -0.4441  0.0594 -0.1097
22039SOL    HW267539   8.850   7.441   0.758  2.3618 -0.5710  0.6973
22040SOL     OW67540   6.439   1.280   6.907 -0.1306  0.2966  0.0265
22040SOL    HW167541   6.447   1.209   6.971 -1.5442 -0.4399 -0.5683
22040SOL    HW267542   6.517   1.273   6.853 -0.6635 -1.4243 -0.5868
22041SOL     OW67543   4.413   1.208   4.153  0.1350 -0.3420  0.0624
22041SOL    HW167544   4.460   1.126   4.137  0.6757  0.0529 -0.4656
22041SOL    HW267545   4.428   1.227   4.245 -1.2013 -1.5649  0.5560
22042SOL     OW67546   4.787   5.620   5.010 -0.0933  0.0446  0.2354
22042SOL    HW167547   4.705   5.669   5.016 -0.0735  0.2055 -0.6723
22042SOL    HW267548   4.770   5.553   4.943  1.2644  1.6442 -1.8318
22043SOL     OW67549   7.428   5.047   6.634 -0.2213  0.3207  0.1080
22043SOL    HW167550   7.346   4.998   6.641  0.2507 -0.5458 -0.3376
22043SOL    HW267551   7.427   5.085   6.546  0.7365 -1.3435 -0.6675
22044SOL     OW67552   8.437   2.079   9.049  0.3598  0.2915  0.5091
22044SOL    HW167553   8.367   2.054   9.109  0.7580 -1.9170  0.1516
22044SOL    HW267554   8.510   2.105   9.106 -0.2370  1.1615  0.8969
22045SOL     OW67555   6.790   3.906   5.454 -0.6161 -0.7434 -0.3888
22045SOL    HW167556   6.773   3.969   5.383  1.3656  0.2726 -0.0241
22045SOL    HW267557   6.878   3.873   5.437 -0.6226 -1.5022  0.8807
22046SOL     OW67558   5.653   4.875   3.646  0.6507 -0.3395 -0.1971
22046SOL    HW167559   5.586   4.814   3.677  0.4745 -0.0420  0.0111
22046SOL    HW267560   5.728   4.859   3.703  0.1956  0.4825  0.6612
22047SOL     OW67561   3.731   1.999   8.018 -0.0932  0.1264 -0.3903
22047SOL    HW167562   3.735   2.038   7.931  0.5617  1.2824  0.1356
22047SOL    HW267563   3.810   1.945   8.024 -0.0752  0.1453 -0.4627
22048SOL     OW67564   7.384   8.179   6.271  0.1992 -0.9861 -0.0079
22048SOL    HW167565   7.473   8.155   6.298  0.5405  1.6262  1.5619
22048SOL    HW267566   7.335   8.183   6.353 -0.7036  0.0176 -0.5761
22049SOL     OW67567   5.138   1.837   1.483 -0.1837  0.1936 -0.1881
22049SOL    HW167568   5.107   1.843   1.573 -1.5341 -1.3976 -0.4989
22049SOL    HW267569   5.204   1.906   1.476  0.1317  0.1985  2.0734
22050SOL     OW67570   6.629   6.651   1.350  0.6020  0.4696 -0.1124
22050SOL    HW167571   6.584   6.627   1.431  0.3508  0.4365 -0.2603
22050SOL    HW267572   6.711   6.691   1.379 -0.1712  1.9047  0.2201
22051SOL     OW67573   6.935   2.033   8.098 -0.1560  0.1525 -0.0703
22051SOL    HW167574   7.029   2.018   8.107  0.2467 -0.0491 -3.3230
22051SOL    HW267575   6.928   2.127   8.082  0.0320 -0.3121 -3.6119
22052SOL     OW67576   6.916   9.180   5.483 -0.1862 -0.6349  0.7897
22052SOL    HW167577   6.986   9.121   5.507 -0.5408 -1.9775 -1.2504
22052SOL    HW267578   6.959   9.264   5.468  0.5274 -0.7025  2.2687
22053SOL     OW67579   3.015   7.936   8.987  0.9135  0.6926 -0.3875
22053SOL    HW167580   3.056   7.962   8.905  1.8303 -2.4554 -1.0561
22053SOL    HW267581   2.927   7.908   8.962  1.0264  0.1735 -0.1973
22054SOL     OW67582   1.571   2.983   5.419  0.3460  0.2826 -0.0152
22054SOL    HW167583   1.498   2.922   5.412 -0.5018  1.3762 -1.1742
22054SOL    HW267584   1.549   3.054   5.359  3.1182 -0.0740 -1.5993
22055SOL     OW67585   0.268   1.559   0.202 -0.6434  0.1288  0.2861
22055SOL    HW167586   0.255   1.516   0.117  2.0880  2.7139 -1.6570
22055SOL    HW267587   0.207   1.633   0.200  0.3393  0.9445 -0.0493
22056SOL     OW67588   7.229   5.512   0.754 -0.1741 -0.5064 -0.1423
22056SOL    HW167589   7.206   5.431   0.709  1.1533 -0.2380 -1.3923
22056SOL    HW267590   7.197   5.501   0.844  1.6623 -3.2598  0.2943
22057SOL     OW67591   4.767   3.907   7.264 -0.0843 -0.6897  0.0381
22057SOL    HW167592   4.852   3.872   7.236 -0.2825 -1.7203  0.6695
22057SOL    HW267593   4.788   3.991   7.304  0.9156 -1.7434  1.8668
22058SOL     OW67594   0.825   8.656   1.545 -0.1086 -0.1753  0.8971
22058SOL    HW167595   0.914   8.679   1.573 -0.0992  1.6440 -0.4428
22058SOL    HW267596   0.770   8.691   1.615  0.1801 -0.5281  1.3072
22059SOL     OW67597   9.234   7.769   7.225 -0.1419  0.3450 -0.0182
22059SOL    HW167598   9.264   7.679   7.212  1.8226  0.5467  2.3644
22059SOL    HW267599   9.177   7.764   7.302  0.4808  1.1618  0.5253
22060SOL     OW67600   6.583   8.757   8.560  0.5217  0.2760  0.5103
22060SOL    HW167601   6.522   8.720   8.624 -1.3708  0.3776 -1.1078
22060SOL    HW267602   6.630   8.681   8.525 -0.3465 -0.1252  0.1768
22061SOL     OW67603   3.922   3.164   6.277 -0.2111  0.2943  0.4873
22061SOL    HW167604   3.951   3.184   6.366 -0.3950  0.6666  0.4664
22061SOL    HW267605   3.978   3.091   6.249 -0.7303 -0.3989  1.2184
22062SOL     OW67606   0.618   8.384   4.785  0.3770  0.4672 -0.1491
22062SOL    HW167607   0.554   8.316   4.764  0.5951 -0.2072  1.2428
22062SOL    HW267608   0.686   8.373   4.719  0.2762 -0.4991 -0.1118
22063SOL     OW67609   2.291   0.812   2.288  0.5983 -0.3513  0.0320
22063SOL    HW167610   2.364   0.871   2.309 -0.1857  1.2174 -1.4158
22063SOL    HW267611   2.304   0.791   2.196 -0.9454  0.2452 -0.3488
22064SOL     OW67612   6.675   4.948   4.490  0.2551 -0.0554  0.1363
22064SOL    HW167613   6.684   5.033   4.533  1.7499 -1.0464  1.9265
22064SOL    HW267614   6.725   4.957   4.409  2.4057  0.1319  1.4045
22065SOL     OW67615   6.347   1.998   1.925 -0.3951  0.0822 -0.0438
22065SOL    HW167616   6.272   2.035   1.972  0.3715 -0.2355  1.5009
22065SOL    HW267617   6.351   1.907   1.954 -0.2012 -0.2735 -1.1507
22066SOL     OW67618   6.072   1.080   5.466 -0.2634  0.4767  0.1223
22066SOL    HW167619   6.147   1.129   5.433 -1.3349  3.4177  1.7239
22066SOL    HW267620   6.081   1.082   5.561 -0.6768 -2.0682  0.2855
22067SOL     OW67621   0.820   2.323   8.907  0.5089 -0.8453 -0.4375
22067SOL    HW167622   0.854   2.234   8.915 -0.6713 -1.2838 -0.0862
22067SOL    HW267623   0.828   2.360   8.995 -0.0310 -1.0059 -0.3134
22068SOL     OW67624   9.097   5.137   7.106  0.2837  0.1549 -0.1391
22068SOL    HW167625   9.107   5.117   7.013  1.2387  1.6880 -0.4045
22068SOL    HW267626   9.063   5.227   7.107  0.1278  0.0958  0.9994
22069SOL     OW67627   7.513   6.590   0.064 -0.5076 -0.2720 -0.3607
22069SOL    HW167628   7.508   6.496   0.084 -1.6609 -0.7605 -2.5935
22069SOL    HW267629   7.429   6.610   0.022  0.1347  1.5384 -0.8645
22070SOL     OW67630   5.116   1.248   0.764  0.0899 -0.4128 -0.7546
22070SOL    HW167631   5.028   1.273   0.791  0.5925 -0.3076  0.8965
22070SOL    HW267632   5.118   1.266   0.669 -1.6825 -0.5530 -0.8555
22071SOL     OW67633   8.436   8.132   1.014  0.0547 -0.2300  0.3781
22071SOL    HW167634   8.478   8.216   0.993  1.5802 -0.9745  0.3723
22071SOL    HW267635   8.380   8.153   1.089  1.3575  0.5670  1.1751
22072SOL     OW67636   4.537   0.004   3.503 -0.3768  0.3288  0.0250
22072SOL    HW167637   4.500  -0.003   3.591 -1.1317  2.7530 -0.0097
22072SOL    HW267638   4.628  -0.024   3.512 -0.5226  0.2819  1.5205
22073SOL     OW67639   0.005   4.415   6.805  0.8522  0.3996 -0.3550
22073SOL    HW167640  -0.058   4.481   6.835  2.0775  0.9788  1.0895
22073SOL    HW267641  -0.048   4.353   6.754 -0.5814  1.7185 -0.5427
22074SOL     OW67642   3.821   8.283   7.040 -0.2361 -0.0284  0.2352
22074SOL    HW167643   3.749   8.235   6.998  0.3395 -0.3962 -0.3509
22074SOL    HW267644   3.899   8.254   6.993  0.1375  1.4465 -0.0751
22075SOL     OW67645   3.520   6.609   0.603  0.0096 -0.2690  0.5026
22075SOL    HW167646   3.568   6.530   0.578  0.3889 -0.4952  1.8560
22075SOL    HW267647   3.474   6.584   0.683 -2.0362  0.0783 -0.4955
22076SOL     OW67648   8.736   6.615   0.777  0.3106 -0.2656 -0.0221
22076SOL    HW167649   8.662   6.554   0.773 -0.4778  0.5723  0.9357
22076SOL    HW267650   8.803   6.567   0.826  0.0979 -0.7375 -0.1807
22077SOL     OW67651   7.265   4.753   3.713 -0.0979 -0.0138  0.0148
22077SOL    HW167652   7.223   4.675   3.750  1.0984 -1.2429 -1.1302
22077SOL    HW267653   7.327   4.719   3.649  0.7273  1.8772 -0.2519
22078SOL     OW67654   2.170   1.621   1.074 -0.3659 -0.4661  0.3812
22078SOL    HW167655   2.215   1.601   1.156  0.9260  0.1024 -0.1594
22078SOL    HW267656   2.229   1.589   1.006 -1.3887 -0.8690 -0.3436
22079SOL     OW67657   6.342   0.699   5.761 -0.5860 -0.3661  0.0753
22079SOL    HW167658   6.316   0.697   5.853 -2.1498 -0.3267 -0.3489
22079SOL    HW267659   6.418   0.758   5.759 -0.6943 -0.1690  1.2975
22080SOL     OW67660   1.795   2.765   8.308  0.1630 -0.4728  0.1217
22080SOL    HW167661   1.790   2.682   8.356  0.4688 -0.2351  0.5772
22080SOL    HW267662   1.811   2.830   8.376 -1.0818  0.0998 -0.1141
22081SOL     OW67663   6.270   8.455   8.641 -0.1560  0.7907  0.4023
22081SOL    HW167664   6.289   8.371   8.600  0.3606  0.3783  1.4508
22081SOL    HW267665   6.200   8.436   8.703  1.6994  0.5282  2.5416
22082SOL     OW67666   0.397   9.219   6.214  0.6436  0.0142 -0.2274
22082SOL    HW167667   0.452   9.214   6.292 -0.3916 -2.3023  0.4305
22082SOL    HW267668   0.311   9.188   6.242 -0.2372  0.7264 -1.9249
22083SOL     OW67669   7.714   1.989   0.928  0.4093 -0.0336 -0.3681
22083SOL    HW167670   7.789   2.047   0.938  1.7524 -1.7171 -0.0929
22083SOL    HW267671   7.711   1.940   1.010 -1.7527  0.7862  0.1132
22084SOL     OW67672   5.245   7.439   2.431  0.4078 -0.0540  0.0655
22084SOL    HW167673   5.326   7.413   2.474 -0.1438 -1.2927  0.4070
22084SOL    HW267674   5.191   7.359   2.430 -1.7160  1.2358  1.9117
22085SOL     OW67675   4.742   2.822   2.938  0.3098 -0.6816  0.4329
22085SOL    HW167676   4.706   2.739   2.906 -0.3477 -0.0922 -0.4047
22085SOL    HW267677   4.708   2.830   3.028  0.4519 -1.3563  0.5480
22086SOL     OW67678   6.794   0.698   2.443  0.2057 -0.8334 -0.3460
22086SOL    HW167679   6.875   0.748   2.433  0.1487 -0.6775 -0.0370
22086SOL    HW267680   6.743   0.717   2.365  0.4301 -0.8637 -0.5005
22087SOL     OW67681   5.454   6.970   5.164  0.6791 -0.2233 -0.5185
22087SOL    HW167682   5.452   7.057   5.203 -1.4574 -1.0291  1.4608
22087SOL    HW267683   5.379   6.969   5.104  0.2935 -0.8759 -0.0373
22088SOL     OW67684   2.105   0.107   2.964  0.1071  0.5216  0.5012
22088SOL    HW167685   2.072   0.043   2.901  0.7202  0.7534 -0.0693
22088SOL    HW267686   2.080   0.192   2.928  1.1660  0.6973  0.1155
22089SOL     OW67687   7.966   6.081   0.629 -0.1680 -0.7705 -0.0715
22089SOL    HW167688   7.896   6.052   0.570 -0.6385 -0.0555  0.1216
22089SOL    HW267689   7.929   6.157   0.674  0.8569 -0.1850 -0.2037
22090SOL     OW67690   3.855   7.190   1.940  0.1383  0.2361 -0.1552
22090SOL    HW167691   3.804   7.191   1.859 -0.3820  1.8245  0.1605
22090SOL    HW267692   3.813   7.255   1.997  0.1528 -1.2361  1.6296
22091SOL     OW67693   5.064   7.267   4.058 -0.2767 -0.4770  0.3308
22091SOL    HW167694   5.103   7.325   4.123  2.5573 -1.5362 -0.3047
22091SOL    HW267695   5.024   7.197   4.109 -2.8431  1.3481  1.0543
22092SOL     OW67696   0.104   5.917   3.866  0.0088  0.5294  0.6710
22092SOL    HW167697   0.049   5.995   3.874  1.0636  1.1700  2.4065
22092SOL    HW267698   0.188   5.944   3.904  2.0863  0.0329 -3.0831
22093SOL     OW67699   1.883   3.473   8.726  0.1744 -0.2352 -0.3448
22093SOL    HW167700   1.892   3.529   8.803  2.3800 -1.2699  0.2297
22093SOL    HW267701   1.789   3.459   8.717 -0.4048  2.6868  0.0840
22094SOL     OW67702   6.340   8.553   3.372 -0.2134 -0.1550  0.3546
22094SOL    HW167703   6.342   8.469   3.327  2.5711  0.0700 -0.1047
22094SOL    HW267704   6.356   8.618   3.303  1.8296  0.3761  1.2712
22095SOL     OW67705   9.034   4.922   3.674  0.3242 -0.1715  0.5154
22095SOL    HW167706   8.984   4.992   3.715  2.7921 -0.1097  3.7894
22095SOL    HW267707   8.973   4.848   3.669 -1.4956  1.3148 -0.4213
22096SOL     OW67708   0.515   3.129   5.956  0.3355 -0.4421 -0.1514
22096SOL    HW167709   0.457   3.111   6.030 -1.1004 -0.7930 -1.2921
22096SOL    HW267710   0.504   3.052   5.899  2.6091 -0.9274 -0.0383
22097SOL     OW67711   8.355   6.320   8.039 -0.3209  0.0739  0.3322
22097SOL    HW167712   8.424   6.253   8.043 -1.7118 -1.3917  0.5899
22097SOL    HW267713   8.310   6.303   7.957  0.8056  2.3145 -0.8347
22098SOL     OW67714   6.956   6.874   0.726 -0.1960 -0.0741 -0.3741
22098SOL    HW167715   7.046   6.865   0.696  0.4095 -2.4625  1.7956
22098SOL    HW267716   6.904   6.825   0.662  0.4326 -1.0100 -0.1848
22099SOL     OW67717   4.132   7.536   0.963 -0.4399 -0.1848 -0.1849
22099SOL    HW167718   4.087   7.480   0.899  0.4439 -0.1235 -0.8794
22099SOL    HW267719   4.225   7.517   0.950 -0.2433 -0.2219  1.1528
22100SOL     OW67720   0.331   0.753   0.465  0.4385 -0.3696  0.4229
22100SOL    HW167721   0.360   0.673   0.508  0.6567  0.5629  2.1009
22100SOL    HW267722   0.394   0.820   0.494  0.3203  0.4048 -1.0133
22101SOL     OW67723   5.451   8.722   7.427 -0.1388 -0.1271  0.5046
22101SOL    HW167724   5.458   8.797   7.368 -1.6984 -0.3727 -0.0483
22101SOL    HW267725   5.379   8.744   7.486  0.2619 -0.6314  1.1970
22102SOL     OW67726   6.001   7.750   2.481  0.5646 -0.3033  0.0912
22102SOL    HW167727   5.960   7.701   2.409  0.9832 -0.4950 -0.0182
22102SOL    HW267728   5.972   7.841   2.467 -1.8965 -0.7973  1.4686
22103SOL     OW67729   1.746   9.115   4.420  0.4655 -0.0559 -0.2351
22103SOL    HW167730   1.721   9.207   4.420  0.5917 -0.0123 -1.1776
22103SOL    HW267731   1.803   9.105   4.344  1.0856 -0.7493  0.2918
22104SOL     OW67732   7.095   9.064   8.437 -0.0166  0.2040 -0.1049
22104SOL    HW167733   7.053   9.111   8.510 -2.0742 -0.2583 -0.9227
22104SOL    HW267734   7.088   8.972   8.461  1.7592  0.1489  0.3300
22105SOL     OW67735   6.790   1.756   9.063 -0.2514  0.1654  0.8519
22105SOL    HW167736   6.723   1.725   9.002  0.5672 -1.4701  0.7318
22105SOL    HW267737   6.798   1.686   9.128  2.7533 -0.6938 -0.2908
22106SOL     OW67738   5.753   0.270   3.521  0.1792 -0.2025 -0.0897
22106SOL    HW167739   5.771   0.337   3.456  0.8816  0.6503  0.9347
22106SOL    HW267740   5.661   0.284   3.545  0.4942  0.8482  0.5842
22107SOL     OW67741   6.322   7.224   5.507  0.0683 -0.1377  0.2730
22107SOL    HW167742   6.323   7.295   5.443 -0.5055  0.6912  1.1468
22107SOL    HW267743   6.373   7.258   5.581 -0.5621 -0.4534  0.8737
22108SOL     OW67744   0.684   4.994   0.053  0.3822  0.3515  0.2045
22108SOL    HW167745   0.614   5.028  -0.003  0.4061 -0.8814 -0.6057
22108SOL    HW267746   0.655   5.012   0.142 -1.8436 -1.6846 -0.0121
22109SOL     OW67747   6.616   0.302   5.377  0.3771  0.2014 -0.1220
22109SOL    HW167748   6.601   0.209   5.394  1.2501 -0.3139 -1.8492
22109SOL    HW267749   6.580   0.347   5.453 -0.8110 -1.4905  0.3760
22110SOL     OW67750   8.705   1.458   3.374 -0.0958  0.1310  0.3057
22110SOL    HW167751   8.646   1.530   3.396 -0.2928  0.0830 -0.0661
22110SOL    HW267752   8.700   1.450   3.279 -1.4107 -1.4835  0.4541
22111SOL     OW67753   1.800   3.377   7.627  0.3674  0.0762  0.1886
22111SOL    HW167754   1.831   3.312   7.564 -1.9962  0.0319 -1.0382
22111SOL    HW267755   1.801   3.460   7.579 -0.6475  0.1891  0.3402
22112SOL     OW67756   2.276   0.390   5.338  0.0075 -0.0587  0.0550
22112SOL    HW167757   2.345   0.329   5.312 -0.1561 -0.7679  1.2289
22112SOL    HW267758   2.196   0.337   5.341 -0.4456  0.5745 -0.4629
22113SOL     OW67759   3.060   3.812   6.169 -0.5346 -0.1585 -0.4427
22113SOL    HW167760   3.015   3.732   6.146 -1.5121 -0.0541  1.0005
22113SOL    HW267761   3.143   3.783   6.207 -0.4612 -0.4424 -0.8173
22114SOL     OW67762   8.449   8.629   8.642  0.5543 -0.1795  0.9801
22114SOL    HW167763   8.393   8.650   8.567 -0.9569  1.5941  2.4897
22114SOL    HW267764   8.536   8.618   8.604  0.1105  2.0054 -0.9136
22115SOL     OW67765   6.680   6.947   2.803 -0.0896 -0.2316 -0.0203
22115SOL    HW167766   6.631   6.867   2.785  1.7251 -1.0551 -1.7360
22115SOL    HW267767   6.640   7.014   2.747  0.9483 -1.0136 -1.7726
22116SOL     OW67768   8.962   4.020   7.190 -0.2088  0.5540 -0.5537
22116SOL    HW167769   9.043   3.980   7.221  0.3116  0.9709 -1.3222
22116SOL    HW267770   8.958   4.104   7.235  0.0208  0.7216 -0.8404
22117SOL     OW67771   6.725   7.612   7.933 -0.3291 -0.2130  0.3054
22117SOL    HW167772   6.744   7.562   8.013  0.1849 -1.7909 -0.7564
22117SOL    HW267773   6.660   7.559   7.887  0.5313 -0.1441 -1.0469
22118SOL     OW67774   7.884   0.144   3.531 -0.1217 -0.1276  0.5740
22118SOL    HW167775   7.941   0.118   3.603  1.6188  0.4610 -0.5336
22118SOL    HW267776   7.800   0.161   3.572  1.0248  1.0287  2.6019
22119SOL     OW67777   1.750   2.894   6.641 -0.1550  0.4460 -0.2412
22119SOL    HW167778   1.728   2.926   6.554  0.2735 -0.2532 -0.6152
22119SOL    HW267779   1.748   2.971   6.697 -1.1507  0.7922 -0.7267
22120SOL     OW67780   8.076   4.515   7.334 -0.7786  0.3186  0.0159
22120SOL    HW167781   7.989   4.477   7.343 -0.0754 -1.5738 -0.6725
22120SOL    HW267782   8.080   4.545   7.243 -0.9009  0.9269  0.2076
22121SOL     OW67783   1.265   7.197   4.663  0.0044 -0.0315 -0.0311
22121SOL    HW167784   1.337   7.137   4.642  0.7616 -0.5576  3.4512
22121SOL    HW267785   1.265   7.261   4.591  1.5644 -2.0726 -1.9692
22122SOL     OW67786   2.005   2.863   6.909 -0.4002  0.3942  0.0536
22122SOL    HW167787   2.027   2.896   6.822  1.1031 -0.9274 -0.1206
22122SOL    HW267788   1.960   2.780   6.893  0.4461 -0.1765  0.5003
22123SOL     OW67789   7.713   7.223   8.669  0.2970  0.2153  0.4810
22123SOL    HW167790   7.657   7.188   8.600  0.8605  0.6212 -0.1950
22123SOL    HW267791   7.757   7.146   8.706  1.0279  0.1177 -0.5505
22124SOL     OW67792   0.649   1.306   3.522  0.1434 -0.1123 -0.1253
22124SOL    HW167793   0.676   1.227   3.474  0.9962 -0.5081  0.9462
22124SOL    HW267794   0.635   1.372   3.454  1.1880 -0.6846 -0.9394
22125SOL     OW67795   1.961   5.791   1.480  0.2837  0.4196  0.4394
22125SOL    HW167796   1.922   5.859   1.426  0.4336 -0.3044 -0.6113
22125SOL    HW267797   1.934   5.709   1.439  1.8836 -0.1297  0.3857
22126SOL     OW67798   8.641   5.191   4.834  0.1227  0.0319  0.1080
22126SOL    HW167799   8.549   5.180   4.809 -0.6191  0.6290  2.3647
22126SOL    HW267800   8.643   5.274   4.881  1.7676 -0.1521  0.4155
22127SOL     OW67801   2.464   8.377   2.562 -0.6082  0.2526 -0.2448
22127SOL    HW167802   2.544   8.380   2.509 -0.4200  0.9808  0.0646
22127SOL    HW267803   2.419   8.298   2.533  0.2894 -0.2414 -0.3378
22128SOL     OW67804   4.488   6.529   9.160  0.2650 -0.1882 -0.1511
22128SOL    HW167805   4.480   6.543   9.065 -0.5946  0.2189 -0.0346
22128SOL    HW267806   4.405   6.488   9.184  0.3965 -0.0952  0.4619
22129SOL     OW67807   1.063   8.785   1.182  0.3799 -0.7219  0.5764
22129SOL    HW167808   1.141   8.754   1.135  0.8045  0.3715  0.5344
22129SOL    HW267809   1.026   8.706   1.221  0.4280 -1.5607 -0.9758
22130SOL     OW67810   3.147   5.511   0.192  0.0690  0.3341  0.1573
22130SOL    HW167811   3.143   5.604   0.213  1.2053  0.3875  0.1676
22130SOL    HW267812   3.105   5.467   0.266 -0.9317  0.8524 -0.0814
22131SOL     OW67813   3.752   2.497   0.599 -0.3555  0.0753 -0.4476
22131SOL    HW167814   3.719   2.432   0.661  0.7596 -0.2753 -0.1985
22131SOL    HW267815   3.687   2.497   0.528  0.3244 -2.4343 -1.1896
22132SOL     OW67816   6.281   7.898   3.308 -0.0147 -0.7800 -0.4163
22132SOL    HW167817   6.215   7.967   3.309  0.6077 -0.1720  0.5414
22132SOL    HW267818   6.291   7.877   3.215  0.1048  0.7524 -0.7913
22133SOL     OW67819   6.423   3.133   4.009  0.2570 -0.5159  0.1349
22133SOL    HW167820   6.512   3.168   4.017 -0.2577  0.8577  0.1137
22133SOL    HW267821   6.368   3.211   3.997 -1.0207 -1.2930  0.7724
22134SOL     OW67822   3.035   7.368   8.406 -0.2626 -0.1195 -0.3980
22134SOL    HW167823   3.080   7.387   8.324  1.6535 -0.2424  0.5812
22134SOL    HW267824   2.986   7.287   8.388 -0.1149  0.0214 -1.4893
22135SOL     OW67825   4.322   6.988   5.977 -0.4310  0.1263 -0.2179
22135SOL    HW167826   4.364   7.058   5.926 -0.5277  0.4786  0.1691
22135SOL    HW267827   4.267   7.035   6.039 -0.6361 -0.3079 -0.0711
22136SOL     OW67828   4.878   6.853   9.213  0.1853  0.6398  0.0787
22136SOL    HW167829   4.931   6.907   9.271  1.7389 -2.5884  1.9840
22136SOL    HW267830   4.817   6.808   9.272 -0.6735 -0.0708 -1.2967
22137SOL     OW67831   4.847   7.254   1.585 -0.2701  0.2707 -0.2589
22137SOL    HW167832   4.789   7.283   1.656  0.2388  0.4602  0.0801
22137SOL    HW267833   4.927   7.304   1.598  0.0355 -0.1271 -0.6197
22138SOL     OW67834   1.242   2.119   9.086  0.2800 -0.5295 -0.0603
22138SOL    HW167835   1.319   2.062   9.078  0.9204  0.4941 -1.5843
22138SOL    HW267836   1.168   2.062   9.068  0.8793 -0.9980 -1.1182
22139SOL     OW67837   3.662   3.569   2.526 -0.3232 -0.4588 -0.2057
22139SOL    HW167838   3.741   3.516   2.532 -1.2809 -2.1260 -1.4035
22139SOL    HW267839   3.689   3.647   2.477  0.9691 -0.0858  1.0380
22140SOL     OW67840   3.897   1.486   1.881  0.4449 -0.0329 -0.1616
22140SOL    HW167841   3.833   1.450   1.942 -0.0738  1.4874  0.2342
22140SOL    HW267842   3.857   1.474   1.795 -0.7329  1.4983  0.1244
22141SOL     OW67843   6.297   8.599   4.652 -0.1612  0.2790 -0.0501
22141SOL    HW167844   6.325   8.618   4.741  0.5302 -0.4250 -0.1115
22141SOL    HW267845   6.348   8.522   4.626  0.8425  1.4223 -1.6360
22142SOL     OW67846   2.401   4.695   2.006  0.6343  0.0546  0.1306
22142SOL    HW167847   2.353   4.710   2.087  1.0002 -3.3036  1.1157
22142SOL    HW267848   2.493   4.689   2.033  0.7412 -1.2640 -0.4368
22143SOL     OW67849   5.747   2.024   8.900 -0.0790  0.4450  0.5684
22143SOL    HW167850   5.702   2.015   8.816  0.0212  0.2461  0.5347
22143SOL    HW267851   5.838   2.004   8.881  0.3265  2.2941  0.3323
22144SOL     OW67852   5.122   8.449   1.978 -0.2344  0.2824  0.6079
22144SOL    HW167853   5.085   8.428   1.892  0.9519  0.5941  0.0036
22144SOL    HW267854   5.180   8.375   1.998  2.0807  1.6906 -0.4229
22145SOL     OW67855   1.053   1.457   0.533  0.1233  0.6095  1.2148
22145SOL    HW167856   1.147   1.460   0.550 -0.1191  0.5079  2.7598
22145SOL    HW267857   1.046   1.427   0.443  1.6149  2.9740  0.2274
22146SOL     OW67858   0.337   6.142   3.636 -0.8809 -0.3205 -0.9512
22146SOL    HW167859   0.286   6.221   3.617 -2.6320 -1.2098 -0.1478
22146SOL    HW267860   0.416   6.151   3.582 -0.8193  2.1747 -0.5653
22147SOL     OW67861   3.338   7.888   7.772  0.5785  0.5011 -0.0202
22147SOL    HW167862   3.286   7.876   7.692 -1.0943 -1.4163  1.2440
22147SOL    HW267863   3.370   7.978   7.766 -0.8971  0.9776 -2.0430
22148SOL     OW67864   9.157   6.174   1.010 -0.5391 -0.2398 -0.0414
22148SOL    HW167865   9.128   6.254   0.966  1.0792 -0.2921 -1.2980
22148SOL    HW267866   9.253   6.178   1.006 -0.2591 -0.2513  3.5418
22149SOL     OW67867   5.531   1.805   3.176  0.2010  0.8357 -0.5972
22149SOL    HW167868   5.605   1.858   3.204 -0.6383  0.6572  2.2576
22149SOL    HW267869   5.547   1.719   3.215 -0.8193  0.3861 -1.1250
22150SOL     OW67870   8.923   3.938   2.128  0.2869  0.3172  0.1015
22150SOL    HW167871   8.967   3.922   2.045  1.2940  1.8688  0.2974
22150SOL    HW267872   8.909   4.033   2.130  1.0886  0.4536  2.0556
22151SOL     OW67873   7.036   1.563   5.811 -0.1419 -0.4880  0.4313
22151SOL    HW167874   7.106   1.599   5.865  1.2050 -0.4525 -1.2536
22151SOL    HW267875   7.078   1.543   5.727 -2.6759  2.0958 -1.6603
22152SOL     OW67876   0.650   5.290   2.727  0.6213  0.0433  0.1598
22152SOL    HW167877   0.656   5.276   2.633  1.0477  1.3974 -0.0485
22152SOL    HW267878   0.559   5.314   2.742  0.2049 -1.5891  0.3264
22153SOL     OW67879   2.048   9.113   2.980 -0.7438  0.2469 -0.6234
22153SOL    HW167880   1.980   9.149   3.036 -1.5793 -0.0463 -1.4232
22153SOL    HW267881   2.063   9.024   3.014  0.9301  1.0762  1.0040
22154SOL     OW67882   8.922   2.257   5.499  0.2879 -0.0980 -0.3391
22154SOL    HW167883   8.916   2.235   5.406  0.2388 -2.1778  0.1017
22154SOL    HW267884   8.885   2.345   5.505 -1.4381 -0.6176 -2.0408
22155SOL     OW67885   1.450   3.387   6.268 -0.0516  0.1508 -0.4308
22155SOL    HW167886   1.426   3.434   6.188 -1.3562 -1.2994 -0.9559
22155SOL    HW267887   1.400   3.306   6.263  2.3613 -1.4744  0.2572
22156SOL     OW67888   8.763   0.952   7.803 -0.6735  0.9261 -0.0899
22156SOL    HW167889   8.698   1.023   7.797  0.2008  1.6415 -1.4835
22156SOL    HW267890   8.840   0.985   7.757 -0.2768 -0.9816 -0.9024
22157SOL     OW67891   2.650   5.593   0.983  0.3401 -0.2138  0.3288
22157SOL    HW167892   2.595   5.658   1.027 -0.2376 -0.1864 -0.4034
22157SOL    HW267893   2.602   5.511   0.995 -0.0016 -0.1492 -0.5303
22158SOL     OW67894   1.010   3.077   6.045 -0.4331  0.3185  0.0604
22158SOL    HW167895   0.948   3.062   6.117  0.4846  0.4527  0.9039
22158SOL    HW267896   1.052   2.993   6.032 -0.7467  0.2415 -0.4739
22159SOL     OW67897   3.280   4.122   4.831 -0.0802 -0.0597  0.2223
22159SOL    HW167898   3.329   4.096   4.753 -0.3907 -0.1748  0.0639
22159SOL    HW267899   3.335   4.188   4.872  0.9977 -1.3352  0.9307
22160SOL     OW67900   5.629   5.105   0.107  0.6112  0.1816 -0.3792
22160SOL    HW167901   5.627   5.072   0.017 -1.4255 -0.4251 -0.1598
22160SOL    HW267902   5.682   5.041   0.154 -2.3437 -2.3742 -0.2004
22161SOL     OW67903   7.461   3.812   1.372  0.5517  0.3663 -0.3715
22161SOL    HW167904   7.497   3.854   1.451  2.9706  0.0597 -1.2521
22161SOL    HW267905   7.366   3.822   1.382  0.5393 -1.5967  3.6731
22162SOL     OW67906   8.091   7.007   8.627 -0.4443  0.3662 -0.1028
22162SOL    HW167907   8.055   7.010   8.715  0.1400  1.0214  0.1263
22162SOL    HW267908   8.160   6.940   8.632 -2.9044 -2.4234 -1.0705
22163SOL     OW67909   2.895   4.204   3.812 -0.8775  0.8363 -0.2512
22163SOL    HW167910   2.863   4.192   3.901 -0.1591 -1.1052 -0.1966
22163SOL    HW267911   2.990   4.197   3.820 -0.8819 -1.0977 -1.3567
22164SOL     OW67912   5.796   1.926   6.053  0.2426 -0.1393 -0.4545
22164SOL    HW167913   5.851   1.851   6.080  1.1997  0.6522 -0.1370
22164SOL    HW267914   5.721   1.886   6.010  1.4302 -1.2615 -1.5894
22165SOL     OW67915   8.887   1.121   2.999  0.2977 -0.3527 -0.3911
22165SOL    HW167916   8.875   1.202   3.048 -0.8561  1.4127 -3.3250
22165SOL    HW267917   8.799   1.088   2.984  0.2179  0.9454 -3.7978
22166SOL     OW67918   6.591   1.573   7.407 -0.4798  0.1593  0.2103
22166SOL    HW167919   6.594   1.613   7.494 -0.1030 -0.6291  0.5650
22166SOL    HW267920   6.629   1.486   7.418  1.2882  0.6935 -1.0883
22167SOL     OW67921   3.022   0.796   5.301 -0.4616  0.2523 -0.1491
22167SOL    HW167922   3.049   0.707   5.280  0.0264  0.1281  0.9271
22167SOL    HW267923   2.997   0.792   5.393  0.3722  1.3982  0.1441
22168SOL     OW67924   8.836   5.658   5.706  0.2583  0.6241 -0.0117
22168SOL    HW167925   8.811   5.566   5.695 -1.0484  0.8268  0.9942
22168SOL    HW267926   8.916   5.655   5.758  0.1157  0.0707  0.1835
22169SOL     OW67927   7.092   1.260   6.281  0.4246  0.4693 -0.1521
22169SOL    HW167928   7.173   1.223   6.246  1.2307  0.4910  1.6309
22169SOL    HW267929   7.107   1.354   6.281  0.6018  0.4449  0.6368
22170SOL     OW67930   6.131   5.676   1.604  0.3202  0.3808 -0.0593
22170SOL    HW167931   6.087   5.692   1.520  1.4438  2.2327 -0.3708
22170SOL    HW267932   6.213   5.634   1.580  0.4154  0.4489  0.1460
22171SOL     OW67933   6.974   9.155   3.698 -0.2397  0.0077  0.1809
22171SOL    HW167934   7.055   9.134   3.744  0.0055  0.2388 -0.1422
22171SOL    HW267935   6.920   9.199   3.764 -0.0365  0.0060  0.3487
22172SOL     OW67936   4.847   0.437   1.293 -0.6265 -0.3095 -0.5846
22172SOL    HW167937   4.887   0.405   1.213  1.1176 -0.2274  0.2043
22172SOL    HW267938   4.821   0.357   1.340 -0.1115 -0.4348 -0.4988
22173SOL     OW67939   2.334   5.175   2.395 -0.5452  0.8489  0.4513
22173SOL    HW167940   2.421   5.212   2.378 -1.3065  1.9633 -1.3872
22173SOL    HW267941   2.336   5.148   2.487  1.8184  0.5711  0.3681
22174SOL     OW67942   5.548   6.827   1.931 -0.5190  0.4236  0.4877
22174SOL    HW167943   5.525   6.918   1.911 -0.3596  0.0524 -1.5309
22174SOL    HW267944   5.484   6.800   1.997 -0.6408  1.9473  1.0309
22175SOL     OW67945   4.850   4.810   5.430  0.2788 -0.0798 -0.4573
22175SOL    HW167946   4.896   4.813   5.514  1.0968 -0.9916 -0.8532
22175SOL    HW267947   4.791   4.735   5.437 -0.9345  0.8688 -0.0874
22176SOL     OW67948   1.258   8.481   6.880  0.1105 -0.5441 -0.1029
22176SOL    HW167949   1.223   8.473   6.791  1.4413  0.4100 -0.7313
22176SOL    HW267950   1.211   8.555   6.918 -0.2561 -0.7778 -0.0880
22177SOL     OW67951   1.701   3.898   4.555 -0.0201 -0.5948 -0.3683
22177SOL    HW167952   1.788   3.864   4.577  0.1294 -0.8811 -1.3716
22177SOL    HW267953   1.716   3.990   4.534  0.0923 -0.7259 -0.8633
22178SOL     OW67954   2.221   1.777   7.393  0.4065  0.0358 -0.0121
22178SOL    HW167955   2.212   1.800   7.485  0.1857  0.1562 -0.0620
22178SOL    HW267956   2.314   1.756   7.382  0.3524 -0.3702  0.3223
22179SOL     OW67957   3.363   0.106   5.971  0.1424  0.0984 -0.0907
22179SOL    HW167958   3.292   0.047   5.996  0.9305 -0.6898  0.3658
22179SOL    HW267959   3.330   0.194   5.987 -0.1813 -0.3125  1.6007
22180SOL     OW67960   3.968   5.187   4.097 -0.7503 -0.6469 -0.5135
22180SOL    HW167961   3.973   5.131   4.019  0.5430  0.8275 -1.5410
22180SOL    HW267962   4.041   5.159   4.152  0.3970  0.4889 -1.3949
22181SOL     OW67963   4.228   8.678   4.608 -0.2531  0.5029 -0.1016
22181SOL    HW167964   4.171   8.739   4.655 -0.9110  0.4451 -0.8244
22181SOL    HW267965   4.272   8.732   4.542 -1.6007  0.0334 -1.4290
22182SOL     OW67966   7.075   2.128   9.155 -0.3943 -0.4621 -0.0837
22182SOL    HW167967   7.156   2.090   9.189  0.4895 -0.0610 -1.6946
22182SOL    HW267968   7.007   2.093   9.213  0.7588 -1.9375  0.4413
22183SOL     OW67969   1.938   5.121   5.976 -0.4780  0.4907 -0.0990
22183SOL    HW167970   1.946   5.149   6.067  1.4147  4.5236 -1.2779
22183SOL    HW267971   2.023   5.082   5.956 -1.3513 -1.6741  0.0988
22184SOL     OW67972   5.561   5.541   5.755  0.0827 -0.2845  0.2265
22184SOL    HW167973   5.532   5.589   5.678  1.3488 -2.0126 -1.4418
22184SOL    HW267974   5.481   5.506   5.793 -0.5749  0.5706 -0.3373
22185SOL     OW67975   3.501   7.099   9.150  0.3206 -0.9695 -0.2383
22185SOL    HW167976   3.539   7.017   9.118 -0.9403 -1.2219 -1.1672
22185SOL    HW267977   3.556   7.167   9.111 -0.2427 -1.3186 -1.7091
22186SOL     OW67978   7.866   6.466   8.873  0.6806 -0.1552 -0.1366
22186SOL    HW167979   7.856   6.501   8.785  0.2555 -1.0174 -0.4426
22186SOL    HW267980   7.859   6.543   8.930  0.7168  0.3767 -0.8274
22187SOL     OW67981   1.615   2.489   4.038 -0.2014 -0.3097  0.2085
22187SOL    HW167982   1.653   2.409   4.074  1.4864  0.2749 -0.1952
22187SOL    HW267983   1.667   2.559   4.076 -1.3879  0.5933  0.2168
22188SOL     OW67984   0.707   3.607   0.684  0.3303 -0.6691 -0.1868
22188SOL    HW167985   0.675   3.588   0.772  0.1966 -0.9568 -0.2972
22188SOL    HW267986   0.692   3.527   0.634  2.0322 -1.1122 -0.0243
22189SOL     OW67987   1.848   9.083   8.652 -0.0982  0.1000 -0.4589
22189SOL    HW167988   1.776   9.029   8.684  0.0869  0.5370  0.7523
22189SOL    HW267989   1.849   9.159   8.711 -0.6952  1.7328 -2.4297
22190SOL     OW67990   2.332   5.837   0.403  0.3890  0.5707  0.4516
22190SOL    HW167991   2.264   5.880   0.351 -0.3081  0.4453  1.2342
22190SOL    HW267992   2.301   5.746   0.412  0.5893  0.5459  0.9156
22191SOL     OW67993   3.829   7.085   9.199 -0.1956  0.8239  0.5494
22191SOL    HW167994   3.861   7.094   9.110  0.2729  0.3679  0.6652
22191SOL    HW267995   3.760   7.019   9.194  0.1165  0.4862  0.5817
22192SOL     OW67996   7.198   6.178   7.672  0.6444  0.4014 -0.1823
22192SOL    HW167997   7.148   6.227   7.607  1.5311 -0.3073 -1.4434
22192SOL    HW267998   7.152   6.094   7.680  0.6014  0.4439  0.0174
22193SOL     OW67999   5.868   3.805   7.030  0.5757 -0.0354  0.0167
22193SOL    HW168000   5.875   3.816   7.125 -0.6255 -2.1925  0.4292
22193SOL    HW268001   5.916   3.723   7.013 -0.2343 -0.3036 -1.0520
22194SOL     OW68002   9.049   6.228   6.401  0.3304 -0.2641 -0.0836
22194SOL    HW168003   9.038   6.192   6.313 -2.4646  1.2005 -0.4435
22194SOL    HW268004   9.122   6.289   6.393  0.8761 -1.0130 -1.0576
22195SOL     OW68005   3.463   6.115   0.699 -0.2672 -0.2097  0.6558
22195SOL    HW168006   3.469   6.165   0.618 -0.1507  3.8226  2.8850
22195SOL    HW268007   3.513   6.036   0.682  1.5837  1.4382 -2.5325
22196SOL     OW68008   6.418   0.227   8.457  0.2007 -0.5495 -0.1002
22196SOL    HW168009   6.514   0.230   8.461  0.2679 -1.7384 -0.3978
22196SOL    HW268010   6.399   0.141   8.419 -0.9865 -0.3161 -0.0500
22197SOL     OW68011   3.754   1.121   8.825  0.0236 -0.3659 -0.7702
22197SOL    HW168012   3.848   1.137   8.818  0.0935 -0.8153 -0.8758
22197SOL    HW268013   3.745   1.026   8.820 -0.2639 -0.4847  1.1647
22198SOL     OW68014   3.879   4.038   5.554  0.3663  0.6822 -0.6192
22198SOL    HW168015   3.849   4.122   5.521 -1.3796 -0.5345 -2.3098
22198SOL    HW268016   3.809   3.976   5.532  0.6920 -0.9205  2.2783
22199SOL     OW68017   1.111   6.173   2.278  0.3264  0.2787  0.0456
22199SOL    HW168018   1.106   6.222   2.359  1.2176  0.3814  0.0463
22199SOL    HW268019   1.023   6.181   2.239 -0.2188 -0.0971  1.1711
22200SOL     OW68020   3.958   0.322   6.694 -0.8743  0.0076 -0.2538
22200SOL    HW168021   3.905   0.315   6.614  0.7870  0.4722 -1.4518
22200SOL    HW268022   3.961   0.233   6.729 -2.2401 -0.0657 -0.2777
22201SOL     OW68023   2.971   1.686   7.612 -0.1472  0.7860  0.5642
22201SOL    HW168024   2.960   1.748   7.540  0.3271  0.3741  0.1340
22201SOL    HW268025   2.966   1.740   7.691 -0.5813  1.2498  0.2201
22202SOL     OW68026   5.849   4.410   7.227  0.3703  0.4255 -0.0616
22202SOL    HW168027   5.833   4.398   7.320 -1.5901 -2.0488 -0.6128
22202SOL    HW268028   5.853   4.321   7.192  3.0970  1.2090 -2.0970
22203SOL     OW68029   3.106   6.158   3.302  0.0030 -0.1074  0.2876
22203SOL    HW168030   3.018   6.156   3.339 -0.1119 -1.1434 -0.0303
22203SOL    HW268031   3.097   6.206   3.220 -0.5476 -1.4539 -0.4548
22204SOL     OW68032   8.768   9.018   6.134  0.0752  0.0838  0.4943
22204SOL    HW168033   8.824   9.066   6.195  0.0769 -2.2070  2.3976
22204SOL    HW268034   8.788   8.926   6.149 -0.6312 -0.6443 -2.3402
22205SOL     OW68035   5.828   1.305   6.156  0.4375 -0.2675  0.1326
22205SOL    HW168036   5.851   1.216   6.130 -0.1328 -0.8337  1.4681
22205SOL    HW268037   5.912   1.351   6.163  0.7438 -0.7376 -0.4079
22206SOL     OW68038   8.274   8.439   0.803  0.4375 -0.0848 -0.2542
22206SOL    HW168039   8.192   8.484   0.821  1.1247  1.0782  0.1262
22206SOL    HW268040   8.284   8.378   0.876  0.4371  0.5535  0.2887
22207SOL     OW68041   4.477   6.376   4.186  0.5420  0.0375  0.0475
22207SOL    HW168042   4.413   6.348   4.120 -0.3986 -0.2839  1.0747
22207SOL    HW268043   4.499   6.297   4.234  1.2723  0.2608  0.0940
22208SOL     OW68044   5.145   2.243   4.092 -0.4133  0.3350  0.0746
22208SOL    HW168045   5.114   2.318   4.043  0.8742  0.9998  0.2335
22208SOL    HW268046   5.124   2.167   4.037 -3.3251  0.5941  0.7001
22209SOL     OW68047   2.953   1.064   3.043 -0.0866 -0.1721 -0.3393
22209SOL    HW168048   2.974   1.098   2.956  0.6947 -0.6339 -0.3356
22209SOL    HW268049   2.926   0.974   3.028 -2.1664  0.3840 -0.3496
22210SOL     OW68050   0.324   3.211   1.740  0.1057  0.3827 -0.2136
22210SOL    HW168051   0.277   3.285   1.701 -1.6776  0.3198  1.6490
22210SOL    HW268052   0.330   3.233   1.833  2.3768 -0.4111 -0.1103
22211SOL     OW68053   1.408   6.952   4.212  0.4422 -0.1687 -0.2336
22211SOL    HW168054   1.363   6.875   4.179  0.1616 -0.9347  1.8101
22211SOL    HW268055   1.404   6.943   4.307 -0.0070  2.5908  0.0929
22212SOL     OW68056   3.222   7.637   3.890  0.1786  0.4713 -0.4286
22212SOL    HW168057   3.314   7.634   3.917 -0.2063 -1.0198  0.8507
22212SOL    HW268058   3.211   7.724   3.851  1.9424  0.9485  0.0593
22213SOL     OW68059   5.804   5.903   1.631  0.0484 -0.2147 -0.0669
22213SOL    HW168060   5.784   5.819   1.589 -2.1851  1.1648 -2.0561
22213SOL    HW268061   5.865   5.946   1.571  2.7124 -1.0810  1.8899
22214SOL     OW68062   2.051   4.792   0.658  0.2995  0.0474 -0.2564
22214SOL    HW168063   2.106   4.801   0.580  0.2544  2.8083 -0.0580
22214SOL    HW268064   2.106   4.824   0.730 -0.2802 -0.7778  0.5839
22215SOL     OW68065   3.137   1.828   4.272  0.5163 -0.1647  0.0885
22215SOL    HW168066   3.196   1.904   4.266  0.0395  0.3386  1.3549
22215SOL    HW268067   3.186   1.765   4.325  0.3517 -0.1793  0.2227
22216SOL     OW68068   4.243   4.761   5.292  0.2092 -0.3892 -0.2285
22216SOL    HW168069   4.158   4.801   5.310 -0.4897 -1.5238 -0.8930
22216SOL    HW268070   4.263   4.787   5.202  0.9504  0.4915  0.1667
22217SOL     OW68071   2.002   4.333   5.312 -0.3350 -0.7562 -0.2652
22217SOL    HW168072   2.057   4.268   5.356 -0.4100 -0.7551 -0.1706
22217SOL    HW268073   2.064   4.396   5.275 -0.3055 -0.1553  0.7593
22218SOL     OW68074   1.475   1.760   6.484  0.2820 -0.3356 -0.1533
22218SOL    HW168075   1.463   1.773   6.578 -0.7107 -0.1431 -0.2984
22218SOL    HW268076   1.564   1.791   6.467  0.4101 -0.2130  0.6909
22219SOL     OW68077   7.223   1.991   8.147  0.1528 -0.3210  0.0867
22219SOL    HW168078   7.237   1.897   8.142  0.0907 -0.2922 -0.8929
22219SOL    HW268079   7.307   2.030   8.125  0.1004 -0.1438  0.1911
22220SOL     OW68080   7.889   5.046   1.724 -0.0459  0.5701  0.3432
22220SOL    HW168081   7.928   4.977   1.778 -0.9762 -1.2553 -1.1805
22220SOL    HW268082   7.942   5.046   1.644 -1.3795  0.0295 -0.5720
22221SOL     OW68083   0.177   1.973   4.446  0.4964 -0.2735  0.3273
22221SOL    HW168084   0.128   2.054   4.452 -1.3532 -1.3294  0.3820
22221SOL    HW268085   0.269   2.000   4.436  0.0929  1.7634  1.6481
22222SOL     OW68086   8.286   4.386   5.903  0.7621  0.4750 -0.2164
22222SOL    HW168087   8.304   4.458   5.964 -0.0849  0.4315  0.1109
22222SOL    HW268088   8.371   4.360   5.871  1.3151  0.0598  1.4740
22223SOL     OW68089   8.599   0.735   1.570  0.0195 -0.0958  0.4633
22223SOL    HW168090   8.603   0.678   1.494 -1.1169  0.0078  0.3099
22223SOL    HW268091   8.672   0.796   1.558 -0.7742  0.5991 -1.0965
22224SOL     OW68092   5.314   6.184   0.270 -0.0281 -0.5608 -0.9189
22224SOL    HW168093   5.349   6.103   0.306  1.3637  0.3560 -0.1212
22224SOL    HW268094   5.390   6.228   0.232  0.0505  2.0938  1.9676
22225SOL     OW68095   5.903   5.594   4.565  0.0900  0.0151 -0.7650
22225SOL    HW168096   5.842   5.551   4.506 -0.8845  0.1886  0.0990
22225SOL    HW268097   5.989   5.580   4.524 -0.2477 -2.1520 -0.8645
22226SOL     OW68098   3.808   6.998   2.134  0.3461 -0.1773 -0.0517
22226SOL    HW168099   3.857   7.045   2.066  0.9602 -1.7940 -0.7662
22226SOL    HW268100   3.716   7.012   2.111  0.5126  0.7041 -0.2191
22227SOL     OW68101   5.151   2.431   1.791  0.0182 -0.0518 -0.2170
22227SOL    HW168102   5.137   2.345   1.830 -1.2748  0.7489  1.1870
22227SOL    HW268103   5.190   2.483   1.862 -0.6200  0.9317 -0.5688
22228SOL     OW68104   0.323   7.413   5.502  0.2831 -0.3786 -0.8908
22228SOL    HW168105   0.412   7.417   5.468  1.0798 -0.7892  1.0050
22228SOL    HW268106   0.334   7.393   5.595 -1.7857 -0.0831 -0.5383
22229SOL     OW68107   9.012   1.459   4.816  0.2402  0.0968 -0.1112
22229SOL    HW168108   8.923   1.496   4.820 -0.1340 -0.6567 -1.0569
22229SOL    HW268109   9.069   1.535   4.804 -0.2160  0.6428  1.0923
22230SOL     OW68110   5.843   2.256   4.005  0.1410 -0.0382  0.0890
22230SOL    HW168111   5.818   2.347   3.989 -0.8207 -0.1898  0.6474
22230SOL    HW268112   5.906   2.236   3.936  0.1910  0.9779 -0.1795
22231SOL     OW68113   6.463   0.067   1.817  0.2307 -0.0590 -0.2236
22231SOL    HW168114   6.376   0.027   1.823  0.2579  0.0396  1.0856
22231SOL    HW268115   6.476   0.110   1.901  0.5360  2.0866 -1.2850
22232SOL     OW68116   1.002   4.264   1.743  0.1295  0.3438  0.1394
22232SOL    HW168117   0.923   4.210   1.747 -0.1303  0.7007 -0.0252
22232SOL    HW268118   0.970   4.353   1.761  0.5765  0.4165  0.6063
22233SOL     OW68119   1.760   6.323   7.726  0.1038 -0.0517  0.4768
22233SOL    HW168120   1.673   6.333   7.686  0.2018 -0.4710  0.1457
22233SOL    HW268121   1.816   6.383   7.678 -0.1700  0.8455  1.2464
22234SOL     OW68122   8.662   3.551   9.122 -0.5239 -0.0833 -0.0515
22234SOL    HW168123   8.733   3.560   9.184  0.7912 -1.8780 -1.1777
22234SOL    HW268124   8.624   3.465   9.141  0.2092 -0.8909 -1.9262
22235SOL     OW68125   1.302   4.654   5.104 -0.0419 -0.0901 -0.2763
22235SOL    HW168126   1.248   4.730   5.082 -1.6309 -1.3137 -0.7572
22235SOL    HW268127   1.261   4.617   5.183  1.6234  0.3894  0.8709
22236SOL     OW68128   7.379   5.293   3.222  0.3386  0.0766 -0.0421
22236SOL    HW168129   7.321   5.309   3.148  1.5800  0.4844 -0.9706
22236SOL    HW268130   7.379   5.198   3.233  1.0485 -0.0952 -1.3551
22237SOL     OW68131   2.881   4.597   8.203  0.3936  0.0191 -0.0015
22237SOL    HW168132   2.966   4.557   8.223  0.2022 -0.5280 -0.2741
22237SOL    HW268133   2.901   4.670   8.145  0.7743  0.5097  0.7215
22238SOL     OW68134   2.483   7.422   1.014  0.3460 -0.5880 -0.1417
22238SOL    HW168135   2.541   7.393   1.084  1.1137 -1.6511 -1.1737
22238SOL    HW268136   2.522   7.504   0.984  1.2798 -1.2309 -0.7441
22239SOL     OW68137   4.969   3.764   1.365  0.5389 -1.0703 -0.5045
22239SOL    HW168138   4.956   3.858   1.368 -0.7409 -1.2101 -1.0472
22239SOL    HW268139   4.981   3.739   1.457 -0.6460 -0.5588 -0.1887
22240SOL     OW68140   6.015   7.798   0.670  0.6257  0.3869  0.2127
22240SOL    HW168141   6.005   7.804   0.575 -0.5306  1.4042  0.3875
22240SOL    HW268142   6.058   7.880   0.695  2.0495 -0.3941  0.4556
22241SOL     OW68143   9.239   6.375   7.745 -0.0477 -0.5108 -0.3692
22241SOL    HW168144   9.304   6.306   7.734  1.2746  0.8919 -1.9915
22241SOL    HW268145   9.290   6.456   7.744 -1.8394  0.6953 -2.3904
22242SOL     OW68146   8.271   0.520   3.376 -0.7327  0.1248 -0.0575
22242SOL    HW168147   8.295   0.452   3.313  2.8270  2.2096 -1.2465
22242SOL    HW268148   8.311   0.491   3.459  1.5240  0.9899 -0.7566
22243SOL     OW68149   2.868   7.376   0.277  0.4478 -0.1357  0.0940
22243SOL    HW168150   2.854   7.463   0.316  1.8529 -0.0364  0.4186
22243SOL    HW268151   2.780   7.340   0.268 -0.3884  2.1033 -1.8772
22244SOL     OW68152   7.292   0.394   0.359  0.0751 -0.6772  0.2930
22244SOL    HW168153   7.339   0.317   0.327  2.0134 -0.0060  1.4040
22244SOL    HW268154   7.350   0.467   0.340 -1.8617  0.6141 -1.0304
22245SOL     OW68155   0.637   5.642   7.692  0.1282  0.0372  0.1976
22245SOL    HW168156   0.642   5.731   7.658 -1.5942  0.2456  0.4061
22245SOL    HW268157   0.721   5.627   7.735  0.7170  1.2848 -0.4815
22246SOL     OW68158   2.185   3.451   5.488  0.0819  0.5570 -0.3351
22246SOL    HW168159   2.197   3.380   5.552  1.6502  1.7247  0.7449
22246SOL    HW268160   2.091   3.470   5.491 -0.2345 -0.9081 -0.0602
22247SOL     OW68161   3.161   3.664   3.124  0.3056  0.1181 -0.3702
22247SOL    HW168162   3.218   3.587   3.126 -0.8210 -0.7629 -0.7944
22247SOL    HW268163   3.076   3.630   3.095  0.1756  1.7843 -2.1285
22248SOL     OW68164   4.496   2.277   7.229 -0.3146  0.1632 -0.6080
22248SOL    HW168165   4.513   2.276   7.135 -0.6798  0.0217 -0.6724
22248SOL    HW268166   4.406   2.248   7.238  0.3835 -2.0625 -0.0873
22249SOL     OW68167   4.391   8.586   6.094  0.1887  0.2648  0.3649
22249SOL    HW168168   4.478   8.616   6.069  0.9176 -0.6493  1.6485
22249SOL    HW268169   4.399   8.564   6.187 -1.4206  0.1766  0.5155
22250SOL     OW68170   6.060   6.290   0.300  0.4878 -0.0645 -0.0473
22250SOL    HW168171   6.071   6.304   0.394  2.9656  0.7049 -0.3826
22250SOL    HW268172   6.038   6.377   0.265 -1.3523 -0.5166 -0.1209
22251SOL     OW68173   4.701   5.383   7.787  0.1080 -0.0526  0.3715
22251SOL    HW168174   4.741   5.321   7.848 -0.2317  1.4069  2.1454
22251SOL    HW268175   4.613   5.347   7.771  0.6490 -1.1208 -0.3265
22252SOL     OW68176   3.332   3.936   7.089 -0.3184  0.1401 -0.3096
22252SOL    HW168177   3.259   3.989   7.057 -0.3771 -0.5316 -1.3114
22252SOL    HW268178   3.331   3.949   7.184 -0.9469  1.1335 -0.4441
22253SOL     OW68179   1.510   0.296   1.980 -0.2794  0.7151 -0.2562
22253SOL    HW168180   1.589   0.264   2.023 -1.6384 -1.7824  0.5487
22253SOL    HW268181   1.530   0.289   1.886  0.1805 -0.6918 -0.0760
22254SOL     OW68182   5.149   0.754   2.761  0.5901  0.0645 -0.6054
22254SOL    HW168183   5.102   0.747   2.678  0.0500  1.1569 -0.4027
22254SOL    HW268184   5.227   0.805   2.741  0.2351  0.7127 -0.3566
22255SOL     OW68185   8.404   8.179   4.083 -0.4426  0.4065  0.2770
22255SOL    HW168186   8.477   8.152   4.027  0.5276 -1.4559  2.3276
22255SOL    HW268187   8.344   8.225   4.023  1.5189  0.3947 -1.8264
22256SOL     OW68188   6.447   6.524   0.772  0.3600 -0.1749 -0.0852
22256SOL    HW168189   6.513   6.587   0.802 -0.0221  0.5018 -0.6121
22256SOL    HW268190   6.453   6.527   0.677  1.7664 -2.5224 -0.1450
22257SOL     OW68191   0.408   0.362   4.508  0.0537  0.4238  0.1814
22257SOL    HW168192   0.406   0.299   4.436  1.4376 -1.5055  1.7296
22257SOL    HW268193   0.464   0.433   4.476  0.6699 -0.4122 -0.6561
22258SOL     OW68194   8.441   4.479   0.727  0.1282 -0.0229 -0.1407
22258SOL    HW168195   8.455   4.541   0.655  0.9458 -1.1425 -0.9771
22258SOL    HW268196   8.523   4.429   0.732  0.2660  0.3292  1.8866
22259SOL     OW68197   3.178   5.148   1.545  0.5566 -0.4597  0.4797
22259SOL    HW168198   3.203   5.173   1.456  1.5665  1.0200  1.1470
22259SOL    HW268199   3.255   5.166   1.598 -0.5977  0.4172  1.9590
22260SOL     OW68200   1.528   4.943   9.160  0.1095  0.1272  0.4583
22260SOL    HW168201   1.522   4.930   9.254 -0.2486  2.1261  0.7651
22260SOL    HW268202   1.496   5.032   9.146  1.4098  0.3707 -1.3942
22261SOL     OW68203   6.224   7.690   5.364 -0.0485  0.5209  0.0510
22261SOL    HW168204   6.275   7.610   5.349 -0.2555  0.6515 -1.5806
22261SOL    HW268205   6.241   7.713   5.455  0.9063 -0.7587  0.2257
22262SOL     OW68206   6.596   7.401   2.370  0.5714 -0.3477  0.8483
22262SOL    HW168207   6.627   7.418   2.282  1.3648 -1.3518  0.9125
22262SOL    HW268208   6.622   7.310   2.388 -2.1117 -1.1704  1.0418
22263SOL     OW68209   5.930   7.511   6.163  0.0543  0.1015  0.6271
22263SOL    HW168210   5.961   7.592   6.124 -1.2193  1.0659  1.5173
22263SOL    HW268211   5.910   7.454   6.088  0.7257  0.6939 -0.0099
22264SOL     OW68212   2.050   0.214   5.364 -0.5866  0.0146  0.1685
22264SOL    HW168213   2.007   0.130   5.348 -0.2358 -0.4519  1.5312
22264SOL    HW268214   1.994   0.259   5.427 -2.8492  2.5494 -3.2844
22265SOL     OW68215   5.194   8.069   3.430  0.2896 -0.2196  0.1518
22265SOL    HW168216   5.220   8.140   3.489  1.4212 -1.5878  1.3922
22265SOL    HW268217   5.248   8.081   3.352 -0.0955  0.7173  0.0211
22266SOL     OW68218   5.188   5.661   7.431 -0.3546  0.1507  0.5761
22266SOL    HW168219   5.240   5.728   7.386 -2.1241  0.9670 -0.3897
22266SOL    HW268220   5.172   5.696   7.518 -0.6992  0.6898  0.3003
22267SOL     OW68221   5.795   9.066   8.892  0.1629 -0.1749 -0.6120
22267SOL    HW168222   5.775   9.138   8.832  1.2107  1.5460  0.9991
22267SOL    HW268223   5.888   9.075   8.911 -0.1365 -0.6256  1.2930
22268SOL     OW68224   2.139   0.525   0.423 -0.0864  0.2036  0.2729
22268SOL    HW168225   2.206   0.592   0.436  2.2134 -1.6751 -1.1688
22268SOL    HW268226   2.181   0.443   0.449 -0.3272 -1.6097 -4.2179
22269SOL     OW68227   1.364   5.559   3.001  0.4421 -0.7600  0.7818
22269SOL    HW168228   1.406   5.515   2.928 -0.4700 -0.3450 -0.0108
22269SOL    HW268229   1.283   5.510   3.016  0.1565 -0.2686  0.8832
22270SOL     OW68230   1.116   3.106   0.340 -0.5178  0.0358  0.3417
22270SOL    HW168231   1.061   3.057   0.279  1.5288  0.3598 -1.9172
22270SOL    HW268232   1.086   3.196   0.334 -0.2974  0.0717 -0.2413
22271SOL     OW68233   6.883   2.120   5.813  0.9343 -0.0005 -0.3078
22271SOL    HW168234   6.833   2.114   5.895 -0.1523 -0.2121 -0.9646
22271SOL    HW268235   6.840   2.056   5.755  2.2958 -0.5496 -0.7377
22272SOL     OW68236   4.150   5.708   2.609 -0.0312  0.2539 -0.3222
22272SOL    HW168237   4.178   5.751   2.529 -0.1675  0.3769 -0.3067
22272SOL    HW268238   4.178   5.617   2.600  0.7384  0.4641 -0.1231
22273SOL     OW68239   0.495   5.450   7.452  0.2529  0.2130  0.1200
22273SOL    HW168240   0.437   5.447   7.528  0.8498  0.0291  0.5797
22273SOL    HW268241   0.578   5.413   7.484  1.2406  2.2178  0.0617
22274SOL     OW68242   2.207   3.376   1.832 -0.0383 -0.5107  0.0029
22274SOL    HW168243   2.259   3.428   1.893 -0.6187 -0.9014  0.8540
22274SOL    HW268244   2.146   3.328   1.887 -0.4253 -1.0613 -0.8738
22275SOL     OW68245   1.793   1.065   9.265  0.4710 -0.0062  0.2281
22275SOL    HW168246   1.817   1.032   9.178 -1.0789 -0.2714 -0.1360
22275SOL    HW268247   1.843   1.011   9.326  1.0438 -0.2844 -0.4724
22276SOL     OW68248   7.157   7.175   3.969  0.4396  0.3012 -0.1364
22276SOL    HW168249   7.217   7.204   3.899 -1.9840  0.6810 -2.2200
22276SOL    HW268250   7.153   7.080   3.959  1.3526  0.1717  0.6162
22277SOL     OW68251   7.039   1.843   8.957 -0.6090  0.1863  0.2650
22277SOL    HW168252   6.948   1.823   8.976  0.0098  0.0629  3.6708
22277SOL    HW268253   7.047   1.937   8.971  0.0566 -0.0431  1.6184
22278SOL     OW68254   5.014   6.269   7.309 -0.6194  0.1345  0.1394
22278SOL    HW168255   4.991   6.351   7.265  0.3560 -0.4932 -1.6280
22278SOL    HW268256   5.105   6.252   7.284 -1.1697 -2.1179 -0.6127
22279SOL     OW68257   3.356   3.821   4.021  0.3335  0.4876 -0.2894
22279SOL    HW168258   3.295   3.892   4.000 -0.5441 -0.0537  0.3379
22279SOL    HW268259   3.352   3.762   3.946  0.3745  0.6560 -0.4210
22280SOL     OW68260   8.619   2.110   4.566  0.1410  0.4107 -0.2026
22280SOL    HW168261   8.594   2.024   4.534  1.6005 -0.0062 -0.2919
22280SOL    HW268262   8.539   2.146   4.604 -0.9515 -0.2119 -1.7993
22281SOL     OW68263   5.119   2.587   0.926  0.5816  0.1992  0.0624
22281SOL    HW168264   5.058   2.602   0.999 -0.5058  0.9177 -0.9696
22281SOL    HW268265   5.066   2.546   0.858  1.4897 -0.0900 -0.4895
22282SOL     OW68266   2.645   3.314   6.711  0.2024 -0.2158  0.2928
22282SOL    HW168267   2.664   3.364   6.790 -1.5003 -1.5026  1.5672
22282SOL    HW268268   2.572   3.257   6.734 -3.0805  2.0660 -3.2830
22283SOL     OW68269   4.219   8.294   4.689 -0.0714 -0.2605  0.2053
22283SOL    HW168270   4.191   8.211   4.652 -0.8133  0.3334 -0.6010
22283SOL    HW268271   4.175   8.360   4.636 -0.8640  0.6310  1.8652
22284SOL     OW68272   4.160   4.746   3.404 -0.0421  0.2971 -0.9607
22284SOL    HW168273   4.206   4.813   3.455 -0.9402  0.0485  0.2311
22284SOL    HW268274   4.213   4.736   3.325  0.9046  1.3595 -0.5039
22285SOL     OW68275   7.404   5.897   0.704 -0.3524 -0.4970  0.0474
22285SOL    HW168276   7.354   5.853   0.635 -0.1677 -2.1947  0.9307
22285SOL    HW268277   7.431   5.826   0.762 -1.3575  0.9485  2.4311
22286SOL     OW68278   8.404   4.033   6.713 -0.0113 -0.5267 -0.5621
22286SOL    HW168279   8.354   4.001   6.788 -1.1952  0.1855 -1.0158
22286SOL    HW268280   8.481   3.976   6.709 -0.1396 -0.8354  0.9279
22287SOL     OW68281   8.152   5.544   1.448 -0.1267 -0.0418  0.0638
22287SOL    HW168282   8.152   5.586   1.362  0.4320  0.2307  0.1907
22287SOL    HW268283   8.161   5.616   1.510 -1.9919 -0.0744  0.4567
22288SOL     OW68284   3.494   0.198   0.284  0.6560  0.0310  0.1567
22288SOL    HW168285   3.462   0.286   0.303  0.2726 -0.1581  0.3974
22288SOL    HW268286   3.489   0.190   0.189  1.0821  0.4147  0.1004
22289SOL     OW68287   6.433   0.168   4.077  0.0217 -0.2146  0.2808
22289SOL    HW168288   6.496   0.165   4.005  1.1127  1.3160  1.1066
22289SOL    HW268289   6.359   0.219   4.042  0.0406 -0.4546 -0.1127
22290SOL     OW68290   4.670   4.263   8.945  0.2654  0.1167  0.3381
22290SOL    HW168291   4.644   4.301   8.861  0.1996  0.0568  0.3309
22290SOL    HW268292   4.662   4.334   9.008 -0.9271 -0.1609  0.5308
22291SOL     OW68293   5.535   4.316   2.533 -0.0712  0.0648 -0.0120
22291SOL    HW168294   5.494   4.236   2.500  0.1004 -1.0839  2.3389
22291SOL    HW268295   5.509   4.383   2.470  0.7837 -1.9945 -2.7798
22292SOL     OW68296   6.396   7.023   8.340  0.4930  0.3858 -0.0993
22292SOL    HW168297   6.362   7.075   8.413  1.2846  1.1186 -0.2465
22292SOL    HW268298   6.438   6.947   8.383 -1.0515 -0.3984  0.0940
22293SOL     OW68299   2.835   2.939   1.591 -0.4695  0.5657  0.3491
22293SOL    HW168300   2.811   2.928   1.683 -0.5425 -1.9619  0.1017
22293SOL    HW268301   2.782   3.013   1.561 -0.4498  1.4226  2.3186
22294SOL     OW68302   9.212   1.128   6.527  0.1093  0.8955  0.3343
22294SOL    HW168303   9.239   1.050   6.478  1.1412  1.7787 -0.5673
22294SOL    HW268304   9.132   1.156   6.483 -0.4861  0.1351  0.9115
22295SOL     OW68305   4.180   2.340   8.228  0.2094 -0.0034 -0.1341
22295SOL    HW168306   4.214   2.416   8.274 -1.4594  0.8083 -0.1511
22295SOL    HW268307   4.249   2.316   8.166  1.7862 -0.0726  1.5654
22296SOL     OW68308   1.795   4.153   5.670 -0.0529  0.2378 -0.1211
22296SOL    HW168309   1.722   4.128   5.727 -0.3074 -0.5021 -0.7606
22296SOL    HW268310   1.755   4.168   5.585  0.5081  0.1047 -0.4083
22297SOL     OW68311   3.886   4.541   0.600 -0.3873 -0.3233  0.2705
22297SOL    HW168312   3.955   4.488   0.561  0.1077  0.0614  0.6132
22297SOL    HW268313   3.805   4.505   0.564 -0.0916 -1.5434  0.7475
22298SOL     OW68314   8.887   3.486   7.662  0.1502  0.1151 -0.0486
22298SOL    HW168315   8.829   3.546   7.708 -0.0224  1.0563 -1.4479
22298SOL    HW268316   8.837   3.405   7.654 -1.4554  1.2016 -2.0931
22299SOL     OW68317   3.250   3.722   4.426 -0.1410  0.1280 -0.6379
22299SOL    HW168318   3.259   3.669   4.347 -0.3595 -1.6917  0.5027
22299SOL    HW268319   3.340   3.739   4.454 -0.0622 -0.8448 -0.2647
22300SOL     OW68320   8.255   9.088   0.494  0.4038 -0.2661  0.0088
22300SOL    HW168321   8.267   9.178   0.464 -1.5823 -0.2680 -0.9441
22300SOL    HW268322   8.333   9.042   0.463  1.0817  0.9563 -0.1641
22301SOL     OW68323   5.748   7.800   0.343 -0.0383 -0.2923 -0.6751
22301SOL    HW168324   5.829   7.828   0.385 -1.1789  0.9234  0.8479
22301SOL    HW268325   5.689   7.875   0.353 -1.2256 -0.9871 -2.1215
22302SOL     OW68326   1.901   7.648   3.261 -0.0942 -0.0452  0.6568
22302SOL    HW168327   1.807   7.630   3.268 -0.4339  1.4493  0.4265
22302SOL    HW268328   1.937   7.625   3.347 -0.4674 -1.6431  0.4060
22303SOL     OW68329   9.176   1.934   6.211  0.5176 -0.5126 -0.7382
22303SOL    HW168330   9.218   2.010   6.252 -4.2398  1.4751  1.2644
22303SOL    HW268331   9.198   1.861   6.269 -1.0063  1.0514  2.0533
22304SOL     OW68332   0.364   3.930   0.336 -0.4656  0.1004  0.0912
22304SOL    HW168333   0.319   4.003   0.294  1.0906  0.7288 -0.5656
22304SOL    HW268334   0.348   3.855   0.279 -0.3445  0.4149 -0.3613
22305SOL     OW68335   9.059   3.598   1.404 -0.3005  0.0233 -0.2647
22305SOL    HW168336   9.121   3.526   1.409 -0.6576 -0.1925  1.5602
22305SOL    HW268337   8.984   3.562   1.356 -0.0579 -0.4940 -0.2592
22306SOL     OW68338   5.868   8.352   8.262  0.0171 -0.2384 -0.2037
22306SOL    HW168339   5.948   8.307   8.290  0.9129  1.2141 -0.3679
22306SOL    HW268340   5.834   8.391   8.342 -0.1034 -0.2037 -0.2727
22307SOL     OW68341   6.113   2.151   6.825  0.0590 -0.5544 -0.4091
22307SOL    HW168342   6.092   2.079   6.885  1.0104 -0.1510  0.4395
22307SOL    HW268343   6.207   2.163   6.835  0.1500 -0.1323 -1.6274
22308SOL     OW68344   1.261   0.788   6.070 -0.5553  0.2749 -0.1725
22308SOL    HW168345   1.180   0.777   6.119  0.1052 -0.2396  0.8399
22308SOL    HW268346   1.251   0.731   5.994 -2.1147  2.0542 -1.3652
22309SOL     OW68347   3.527   5.246   6.671 -0.1154 -0.3058 -0.2826
22309SOL    HW168348   3.478   5.252   6.753 -0.5159 -1.7603 -0.3910
22309SOL    HW268349   3.607   5.295   6.688 -0.2246 -0.5233  0.9641
22310SOL     OW68350   0.567   5.306   8.736  0.1369  0.0855 -0.0222
22310SOL    HW168351   0.486   5.315   8.785  0.0729  0.7658 -0.2386
22310SOL    HW268352   0.550   5.235   8.673 -0.3785  0.4080 -0.2453
22311SOL     OW68353   4.861   4.128   0.441 -0.1394  0.7876 -0.1080
22311SOL    HW168354   4.923   4.087   0.381 -0.7191  1.0594 -0.9037
22311SOL    HW268355   4.853   4.065   0.513  1.5613  1.0387  0.3590
22312SOL     OW68356   7.306   2.585   7.230  0.2437  0.4891  0.7372
22312SOL    HW168357   7.213   2.598   7.249 -0.8003 -2.4754 -1.5710
22312SOL    HW268358   7.338   2.534   7.305 -0.9362 -1.4779 -0.0449
22313SOL     OW68359   8.244   6.443   2.105  0.2416  0.1266 -0.3193
22313SOL    HW168360   8.268   6.427   2.196  1.3014  0.7169 -0.4848
22313SOL    HW268361   8.148   6.438   2.105  0.1380  1.3614  1.0718
22314SOL     OW68362   2.102   6.356   5.236 -0.2306 -0.1270  0.9433
22314SOL    HW168363   2.025   6.394   5.193 -0.1202 -0.2416  0.6489
22314SOL    HW268364   2.134   6.289   5.176  1.2521  1.2149  0.1719
22315SOL     OW68365   0.590   3.784   5.916  0.2611 -0.1298 -0.2983
22315SOL    HW168366   0.568   3.720   5.848 -1.9278  0.4833 -0.2705
22315SOL    HW268367   0.534   3.859   5.896  1.7514  1.2270  0.4891
22316SOL     OW68368   7.214   6.593   2.859  0.4888 -0.6836 -0.4326
22316SOL    HW168369   7.293   6.541   2.875  0.6068  0.0408  1.5858
22316SOL    HW268370   7.144   6.546   2.904  0.5546  0.6948  1.2208
22317SOL     OW68371   2.577   0.242   7.745  0.0766  0.7589  0.1528
22317SOL    HW168372   2.518   0.280   7.681 -0.2765 -0.5997 -0.3673
22317SOL    HW268373   2.520   0.211   7.815  0.2229  0.0518 -0.0335
22318SOL     OW68374   8.584   9.183   1.793 -0.7204  0.0120 -0.1705
22318SOL    HW168375   8.648   9.214   1.728 -0.6775 -0.8081 -0.5311
22318SOL    HW268376   8.509   9.153   1.742  0.0137 -2.3318 -0.0187
22319SOL     OW68377   8.282   0.081   8.045 -0.2012  0.2251  0.2511
22319SOL    HW168378   8.277   0.016   8.115  1.8059 -1.0914 -0.7097
22319SOL    HW268379   8.339   0.149   8.080  2.3353 -1.2951 -0.5595
22320SOL     OW68380   9.115   6.304   2.933 -0.8310 -0.5029 -0.0714
22320SOL    HW168381   9.077   6.367   2.872 -1.7987 -1.2257 -0.2261
22320SOL    HW268382   9.209   6.326   2.933 -1.1093  0.7968 -0.2688
22321SOL     OW68383   0.065   0.963   8.598  0.4304 -0.8568  0.4632
22321SOL    HW168384   0.104   0.886   8.639 -1.0913 -3.4335 -2.4049
22321SOL    HW268385   0.125   0.985   8.527  0.3513 -0.0274  0.6481
22322SOL     OW68386   5.312   0.084   5.858  0.3411 -0.3883  0.1316
22322SOL    HW168387   5.260   0.074   5.779  0.2127 -0.0947  0.1768
22322SOL    HW268388   5.311  -0.002   5.900  0.9222 -0.7075 -0.5012
22323SOL     OW68389   3.682   3.548   5.850  0.4358 -0.6901 -0.1200
22323SOL    HW168390   3.745   3.618   5.865  0.9601 -1.5953  2.5667
22323SOL    HW268391   3.626   3.549   5.929 -0.6790 -2.1343 -0.8349
22324SOL     OW68392   2.062   2.119   1.394  0.2125  0.2144 -0.4893
22324SOL    HW168393   2.130   2.052   1.392 -0.0487 -0.0256 -2.2622
22324SOL    HW268394   2.110   2.202   1.403  0.6455 -0.0399 -0.4135
22325SOL     OW68395   3.874   0.481   4.004 -0.4909  0.7282  0.4342
22325SOL    HW168396   3.933   0.414   4.038  0.1362 -0.4217 -2.5859
22325SOL    HW268397   3.927   0.560   4.000  0.2167  0.2358 -0.2198
22326SOL     OW68398   2.104   5.138   5.571 -0.3112  0.3098 -0.2183
22326SOL    HW168399   2.050   5.101   5.640 -1.7527 -0.0597 -1.4824
22326SOL    HW268400   2.169   5.190   5.617 -0.8111 -0.4471  1.4299
22327SOL     OW68401   9.135   0.287   6.642  0.7458  0.1232  0.3232
22327SOL    HW168402   9.172   0.205   6.607  1.7340  1.0329 -0.8601
22327SOL    HW268403   9.180   0.299   6.725  1.5676  0.1134 -0.1073
22328SOL     OW68404   0.338   7.878   7.179  0.0370 -0.3219 -0.6812
22328SOL    HW168405   0.420   7.847   7.218 -0.7250 -0.1476  1.1492
22328SOL    HW268406   0.312   7.953   7.233 -0.6294  0.5139 -2.0905
22329SOL     OW68407   3.881   7.515   2.599 -0.0111 -0.1804 -0.2484
22329SOL    HW168408   3.852   7.574   2.669  0.9945 -0.6063  0.5498
22329SOL    HW268409   3.969   7.489   2.625 -0.2229 -1.5886 -0.8755
22330SOL     OW68410   2.990   3.621   5.289 -0.0781 -0.7314 -0.0630
22330SOL    HW168411   2.947   3.622   5.374  0.6638  1.1561  0.3293
22330SOL    HW268412   3.049   3.546   5.293 -0.0838 -0.6874  1.0565
22331SOL     OW68413   2.344   8.792   9.204 -0.2370  0.2109 -0.2304
22331SOL    HW168414   2.275   8.738   9.166 -0.7572  0.7717 -0.0930
22331SOL    HW268415   2.385   8.735   9.270 -0.8019 -0.0028 -0.0586
22332SOL     OW68416   0.319   7.483   6.848  0.4197  0.0404  0.0214
22332SOL    HW168417   0.377   7.558   6.834  1.3358 -0.6117  0.2189
22332SOL    HW268418   0.279   7.467   6.762  1.6268 -0.3830 -0.4757
22333SOL     OW68419   1.022   8.025   1.488 -0.0866 -0.4641 -1.2636
22333SOL    HW168420   1.092   7.961   1.495 -0.7355 -1.2554 -1.7235
22333SOL    HW268421   0.988   8.034   1.577  0.7060  0.0549 -1.0117
22334SOL     OW68422   5.086   1.027   5.151 -0.2121 -0.1516 -0.0708
22334SOL    HW168423   5.010   1.020   5.209  0.0862  0.4991  0.4125
22334SOL    HW268424   5.131   0.944   5.159 -0.9589 -0.6105 -0.4909
22335SOL     OW68425   2.673   1.822   2.449 -0.1470  0.3486 -0.4375
22335SOL    HW168426   2.699   1.732   2.429  0.9380 -0.1533  2.5989
22335SOL    HW268427   2.581   1.827   2.423 -0.0559 -1.4347 -1.2434
22336SOL     OW68428   0.092   6.403   2.948  0.4822  0.2157 -0.0759
22336SOL    HW168429   0.077   6.472   2.883  0.2727  0.8162  0.5926
22336SOL    HW268430   0.178   6.423   2.985 -0.5778  1.5885  1.8267
22337SOL     OW68431   1.131   6.647   4.443 -0.3256  0.2580  0.3820
22337SOL    HW168432   1.201   6.589   4.413 -1.3571 -1.7068  1.5374
22337SOL    HW268433   1.074   6.590   4.494 -1.2858  2.3789  1.8064
22338SOL     OW68434   2.805   1.708   5.151  0.7580  0.1750 -0.6591
22338SOL    HW168435   2.739   1.642   5.169  0.5483  0.4592 -0.3624
22338SOL    HW268436   2.810   1.713   5.056  1.1456 -0.6318 -0.6901
22339SOL     OW68437   4.950   3.665   3.033  0.0645 -0.0917  0.4925
22339SOL    HW168438   4.882   3.623   3.086 -1.2973 -2.9851 -3.0553
22339SOL    HW268439   4.925   3.757   3.031 -2.0123 -0.5525  1.7833
22340SOL     OW68440   3.640   8.649   3.596  0.0527  0.0912  0.6914
22340SOL    HW168441   3.553   8.638   3.636 -0.0969 -0.7939  0.1555
22340SOL    HW268442   3.628   8.620   3.506  1.1919 -1.2592  0.9474
22341SOL     OW68443   3.322   8.377   2.853  0.2610 -0.3451 -0.4575
22341SOL    HW168444   3.248   8.426   2.818 -0.5365 -1.1701  0.0414
22341SOL    HW268445   3.294   8.286   2.852  0.8301 -0.5582  0.8010
22342SOL     OW68446   6.807   8.236   4.442 -0.3400 -0.5263 -0.0368
22342SOL    HW168447   6.779   8.265   4.529 -1.2499 -0.3716 -0.3683
22342SOL    HW268448   6.885   8.288   4.423 -0.8707  0.3622  0.1537
22343SOL     OW68449   8.833   1.114   5.435  0.0838  0.3959  0.1050
22343SOL    HW168450   8.928   1.123   5.427  0.2263 -0.7572  0.3179
22343SOL    HW268451   8.798   1.174   5.370  0.9658  0.6863 -0.1176
22344SOL     OW68452   5.898   3.860   0.507 -0.2801  0.0194  0.1217
22344SOL    HW168453   5.909   3.768   0.482 -0.0168  0.0362  0.1662
22344SOL    HW268454   5.908   3.860   0.602 -0.6112  0.0481  0.1575
22345SOL     OW68455   2.876   8.661   9.234  0.6374 -0.4264  0.0181
22345SOL    HW168456   2.952   8.714   9.210 -0.1199  0.4322 -0.5267
22345SOL    HW268457   2.824   8.655   9.154  0.1334 -1.0261  0.3775
22346SOL     OW68458   5.943   3.876   6.041  0.1644 -0.3513 -0.4423
22346SOL    HW168459   5.904   3.801   6.088  1.2731 -0.2710  0.6534
22346SOL    HW268460   5.881   3.948   6.057  0.3150 -0.4307  0.5770
22347SOL     OW68461   0.027   1.449   2.163  0.6070 -0.0010 -0.0139
22347SOL    HW168462   0.013   1.543   2.171 -0.5540 -0.3096  2.4776
22347SOL    HW268463   0.067   1.424   2.247  0.4885 -1.7914 -0.4597
22348SOL     OW68464   0.769   2.723   6.841  0.1831  0.0939  0.8627
22348SOL    HW168465   0.861   2.725   6.870  0.9977 -1.5420 -1.3640
22348SOL    HW268466   0.741   2.633   6.858 -0.2750 -0.0393 -0.5406
22349SOL     OW68467   9.191   2.022   5.426  0.4061 -0.0520 -0.1261
22349SOL    HW168468   9.223   1.996   5.513  2.3752  0.0920 -0.7644
22349SOL    HW268469   9.103   1.985   5.422  0.8206 -1.3432  1.3698
22350SOL     OW68470   0.481   1.183   6.703  0.7227  0.5951  0.1652
22350SOL    HW168471   0.516   1.249   6.763 -0.3183  0.2843  1.1550
22350SOL    HW268472   0.548   1.175   6.635  0.9647  2.5101  0.1265
22351SOL     OW68473   5.268   0.768   3.625  0.4290 -0.1339  0.1074
22351SOL    HW168474   5.197   0.729   3.675 -1.6169  0.5143 -2.1325
22351SOL    HW268475   5.296   0.699   3.565 -0.3972  0.5173 -1.0588
22352SOL     OW68476   8.583   8.739   5.050 -0.4597 -0.1340 -0.1250
22352SOL    HW168477   8.627   8.683   5.114 -0.8065  0.8517  1.0287
22352SOL    HW268478   8.648   8.807   5.030 -0.7229  0.1555 -0.0022
22353SOL     OW68479   8.508   5.371   1.200  0.3455 -0.1841  0.3834
22353SOL    HW168480   8.488   5.443   1.260  0.5941  0.1409  0.0782
22353SOL    HW268481   8.496   5.408   1.112 -1.9663 -1.1799  0.1944
22354SOL     OW68482   4.628   3.751   0.050 -0.4450  0.1219  0.1391
22354SOL    HW168483   4.571   3.751   0.127 -2.0038  0.1672 -0.9693
22354SOL    HW268484   4.569   3.765  -0.024  0.5642 -2.7805 -1.3940
22355SOL     OW68485   6.381   4.337   9.165 -0.3224  0.3098  0.4031
22355SOL    HW168486   6.320   4.307   9.098  0.8810 -0.3836 -0.4346
22355SOL    HW268487   6.361   4.284   9.242  0.1731 -0.9716 -0.3187
22356SOL     OW68488   2.685   7.823   9.135  0.7202  0.0652  0.2098
22356SOL    HW168489   2.601   7.806   9.177  0.1133  0.4240 -0.8294
22356SOL    HW268490   2.749   7.776   9.189  0.0669  1.0180  1.8894
22357SOL     OW68491   7.415   8.503   0.543  0.2819  0.3003  0.1917
22357SOL    HW168492   7.435   8.596   0.540 -0.3279  0.4137 -0.4733
22357SOL    HW268493   7.336   8.497   0.597  0.4759  0.1404  0.4594
22358SOL     OW68494   6.998   1.258   6.582  0.0216  0.5917 -0.2153
22358SOL    HW168495   7.051   1.249   6.502  0.4740 -0.1705  0.1578
22358SOL    HW268496   6.988   1.169   6.614 -1.0026  0.7878  0.0540
22359SOL     OW68497   1.647   4.712   2.780  0.7825 -0.3069  0.0787
22359SOL    HW168498   1.667   4.618   2.785  1.3854 -0.1323  2.5569
22359SOL    HW268499   1.552   4.716   2.784  0.7183 -0.8217 -0.6882
22360SOL     OW68500   8.307   8.712   5.113  0.2125 -0.3307  0.4939
22360SOL    HW168501   8.270   8.795   5.084  2.2174  0.2543 -0.6081
22360SOL    HW268502   8.398   8.714   5.083  0.2022 -3.1619 -0.0836
22361SOL     OW68503   7.859   1.371   6.714  0.2406 -0.1890 -0.2260
22361SOL    HW168504   7.783   1.332   6.757  0.4982  0.0575  0.4690
22361SOL    HW268505   7.823   1.442   6.662 -0.3722 -1.9496 -2.3531
22362SOL     OW68506   2.156   8.180   1.547 -0.1437  0.8102  0.4370
22362SOL    HW168507   2.191   8.093   1.525 -2.1963  0.3320 -1.3063
22362SOL    HW268508   2.170   8.188   1.641  1.9085 -0.5349  0.3141
22363SOL     OW68509   1.255   0.124   5.958  0.2954 -0.3018 -0.1082
22363SOL    HW168510   1.281   0.200   5.906 -0.2362  0.8298  1.2179
22363SOL    HW268511   1.240   0.055   5.894  0.2507  0.8649 -1.3925
22364SOL     OW68512   3.753   8.225   6.056 -0.1258 -0.1688 -0.7496
22364SOL    HW168513   3.760   8.276   5.975 -3.0073  0.7436 -0.5542
22364SOL    HW268514   3.833   8.246   6.105  0.7695  0.7708 -2.5255
22365SOL     OW68515   7.304   4.194   2.809 -0.0264 -0.0062 -0.6596
22365SOL    HW168516   7.315   4.193   2.714  1.0812  1.8821 -0.5840
22365SOL    HW268517   7.314   4.102   2.835 -0.1162 -0.5202 -2.3243
22366SOL     OW68518   9.265   3.183   1.602 -0.0173 -0.0769  0.8727
22366SOL    HW168519   9.284   3.131   1.680  2.6091  0.5441  0.7511
22366SOL    HW268520   9.326   3.151   1.536 -2.4268 -0.8537 -1.1403
22367SOL     OW68521   3.509   5.944   6.234 -0.2629  0.0853  0.1895
22367SOL    HW168522   3.473   6.030   6.255  1.8734  0.6010  2.0604
22367SOL    HW268523   3.484   5.888   6.307  1.2055  0.0230  0.6699
22368SOL     OW68524   8.805   2.509   1.497 -0.5917 -0.1500  0.0820
22368SOL    HW168525   8.732   2.509   1.558 -0.9680 -1.1588 -0.3409
22368SOL    HW268526   8.875   2.461   1.542  0.0432  1.3188  0.7214
22369SOL     OW68527   4.097   8.927   7.142 -0.4927 -0.0078  0.0436
22369SOL    HW168528   4.172   8.894   7.092 -1.3123 -1.9779  0.0345
22369SOL    HW268529   4.027   8.935   7.077 -1.4614 -2.2351  0.7262
22370SOL     OW68530   1.792   6.828   7.072 -0.3541 -0.3266  0.6270
22370SOL    HW168531   1.719   6.888   7.085 -0.2456  0.3164 -1.3957
22370SOL    HW268532   1.839   6.829   7.156  0.9115  4.1909  0.1486
22371SOL     OW68533   9.234   7.586   3.332  0.7372 -0.0876  0.4613
22371SOL    HW168534   9.150   7.560   3.294  0.7825  2.3669 -1.6067
22371SOL    HW268535   9.298   7.566   3.264  1.3235  1.1864  0.6041
22372SOL     OW68536   0.266   0.714   0.956 -0.3410  0.0244  0.1095
22372SOL    HW168537   0.254   0.619   0.954 -1.0380  0.1038  0.2151
22372SOL    HW268538   0.242   0.742   0.868  3.1013 -0.2305 -1.0520
22373SOL     OW68539   3.571   7.680   4.956  0.2621  0.2513  0.9708
22373SOL    HW168540   3.609   7.627   4.887  1.2678  0.9203  0.9995
22373SOL    HW268541   3.617   7.653   5.035  0.1702  0.5550  1.1275
22374SOL     OW68542   7.934   8.211   4.226  0.0642 -0.3098  0.3208
22374SOL    HW168543   7.847   8.204   4.265  1.6071 -2.2409  3.9130
22374SOL    HW268544   7.961   8.301   4.244 -1.2313  0.4257 -1.1611
22375SOL     OW68545   9.133   0.506   2.560  0.2699 -0.3364  0.2047
22375SOL    HW168546   9.163   0.547   2.479  0.4444  0.8782  0.8580
22375SOL    HW268547   9.163   0.415   2.554  2.1009  0.2545 -0.1634
22376SOL     OW68548   8.140   6.840   8.152 -0.6696 -0.3961 -1.1477
22376SOL    HW168549   8.190   6.835   8.233 -3.0857  1.2460  0.5868
22376SOL    HW268550   8.206   6.841   8.083  1.5421 -0.6271  0.8486
22377SOL     OW68551   7.641   6.613   4.894 -0.1341  0.5946  0.2724
22377SOL    HW168552   7.722   6.625   4.844  0.6774 -1.2995  1.0609
22377SOL    HW268553   7.607   6.528   4.866 -1.6659  1.1841  0.2503
22378SOL     OW68554   7.558   3.536   1.772 -0.1303 -0.2533 -0.1469
22378SOL    HW168555   7.534   3.454   1.816 -2.2365  0.0600 -0.5666
22378SOL    HW268556   7.473   3.577   1.752  0.8357  2.7258  1.3062
22379SOL     OW68557   8.817   5.394   5.700 -0.4069 -0.0990  0.1610
22379SOL    HW168558   8.722   5.404   5.703 -0.4558 -0.7151  1.0891
22379SOL    HW268559   8.831   5.300   5.684  0.0514  0.0142 -0.1329
22380SOL     OW68560   1.405   8.748   5.229 -0.1704 -0.0106 -0.4650
22380SOL    HW168561   1.389   8.829   5.180  3.1748  1.1343  0.0925
22380SOL    HW268562   1.408   8.776   5.320  1.2328 -0.6893 -0.2813
22381SOL     OW68563   5.785   2.898   1.279  0.0732 -0.2339  0.6500
22381SOL    HW168564   5.781   2.813   1.323 -1.1190 -0.3638  0.3220
22381SOL    HW268565   5.875   2.927   1.293  1.0609 -2.3470 -0.7287
22382SOL     OW68566   0.196   6.088   0.201 -0.7294  0.0203 -0.9896
22382SOL    HW168567   0.145   6.016   0.165  0.0993 -0.8333 -0.5298
22382SOL    HW268568   0.137   6.132   0.261 -0.7815 -1.3079 -0.0173
22383SOL     OW68569   1.126   2.719   7.411 -0.1255  0.3625 -0.3405
22383SOL    HW168570   1.053   2.667   7.378  0.2239  1.5200 -3.2709
22383SOL    HW268571   1.193   2.713   7.342  1.0514  2.2750  0.5385
22384SOL     OW68572   4.332   1.104   2.328  0.3191 -0.1171  0.1281
22384SOL    HW168573   4.283   1.125   2.249  0.7891 -1.1901 -0.4684
22384SOL    HW268574   4.392   1.177   2.339  0.6225 -0.2117 -0.8206
22385SOL     OW68575   7.763   4.621   0.754 -0.0317  0.1079 -0.0204
22385SOL    HW168576   7.849   4.657   0.730  0.4557 -0.4973  0.7601
22385SOL    HW268577   7.700   4.678   0.710  0.7646  0.7571 -0.3489
22386SOL     OW68578   0.664   3.017   6.865  0.1843  0.1501  0.1350
22386SOL    HW168579   0.731   3.080   6.889  0.0923  0.8752 -1.3668
22386SOL    HW268580   0.625   3.053   6.785 -0.5968 -1.2803 -0.1629
22387SOL     OW68581   6.999   3.832   6.682 -0.1852  0.4147 -0.5921
22387SOL    HW168582   6.920   3.798   6.723  0.2311 -1.1083 -0.9808
22387SOL    HW268583   7.039   3.756   6.639  0.9427  1.3544 -1.2903
22388SOL     OW68584   3.751   6.080   8.627  0.5955  0.3883 -0.3382
22388SOL    HW168585   3.695   6.006   8.651 -1.4178  1.2129 -2.1354
22388SOL    HW268586   3.778   6.117   8.710 -2.0906  0.2876  0.6806
22389SOL     OW68587   5.057   5.897   5.060  0.1900  0.3687 -0.0360
22389SOL    HW168588   5.142   5.927   5.091  0.0002  1.2481 -0.3214
22389SOL    HW268589   5.053   5.804   5.084  2.3297 -0.4417 -2.4112
22390SOL     OW68590   3.332   3.131   7.079  0.0220  0.0819  0.2858
22390SOL    HW168591   3.357   3.217   7.044  0.3571 -0.9445 -2.1892
22390SOL    HW268592   3.268   3.098   7.017  1.6769 -2.4637 -0.2037
22391SOL     OW68593   3.408   7.283   7.709  0.7582  0.2704 -0.3926
22391SOL    HW168594   3.370   7.314   7.627  0.2120 -0.0186 -0.2573
22391SOL    HW268595   3.421   7.189   7.696 -1.2035 -0.1912  0.5147
22392SOL     OW68596   8.224   3.980   3.996 -0.4472  0.1763 -0.5599
22392SOL    HW168597   8.168   3.903   3.983 -2.7924  1.8574 -1.1126
22392SOL    HW268598   8.253   4.003   3.908 -1.4527  1.0809 -0.6723
22393SOL     OW68599   4.784   6.541   6.956  0.3116  0.1166  0.1616
22393SOL    HW168600   4.703   6.535   7.006  0.4013 -1.2765  0.1650
22393SOL    HW268601   4.758   6.526   6.865  0.2958  1.6696 -0.1216
22394SOL     OW68602   2.422   7.785   7.880 -0.3035 -0.1314 -0.1036
22394SOL    HW168603   2.344   7.733   7.860 -1.0584  1.3708 -1.3095
22394SOL    HW268604   2.449   7.755   7.966 -0.8202 -2.3255 -0.6338
22395SOL     OW68605   1.686   7.954   0.755  0.0971  0.6809  0.1907
22395SOL    HW168606   1.764   7.992   0.794  0.0471 -0.3737  1.3959
22395SOL    HW268607   1.672   8.004   0.675  1.9282  0.9668  0.0040
22396SOL     OW68608   2.640   3.529   6.917  0.7785 -0.3514  0.3792
22396SOL    HW168609   2.667   3.590   6.985  0.0044 -0.6232  0.9409
22396SOL    HW268610   2.595   3.584   6.852  1.1906 -0.1469  0.2652
22397SOL     OW68611   7.400   6.621   8.262  0.8616 -0.7546 -0.3885
22397SOL    HW168612   7.361   6.535   8.279  0.1650 -0.0137  2.0571
22397SOL    HW268613   7.326   6.677   8.238  0.2951  0.4479  3.4700
22398SOL     OW68614   3.272   5.282   3.368 -0.2735  0.1058  0.1765
22398SOL    HW168615   3.220   5.205   3.345  2.5824 -2.5043  1.6980
22398SOL    HW268616   3.291   5.271   3.461  1.9881  1.4820 -0.0497
22399SOL     OW68617   6.558   4.460   6.250 -0.0618  0.1585 -0.7083
22399SOL    HW168618   6.535   4.408   6.326  0.6425  0.5845 -0.2008
22399SOL    HW268619   6.474   4.474   6.205 -0.6421  0.7095  0.4971
22400SOL     OW68620   2.350   7.748   6.464 -0.1331  0.0468 -0.4088
22400SOL    HW168621   2.381   7.670   6.419 -2.5714 -1.4196  0.2625
22400SOL    HW268622   2.256   7.735   6.473 -0.4133  2.4098  1.0341
22401SOL     OW68623   1.830   4.129   6.738 -0.6978 -0.5191 -0.6121
22401SOL    HW168624   1.921   4.118   6.765 -0.6486  1.4300  0.2005
22401SOL    HW268625   1.779   4.082   6.805 -0.3940  0.9938  0.7279
22402SOL     OW68626   9.202   4.745   8.587 -0.2703 -0.4406  0.5937
22402SOL    HW168627   9.193   4.831   8.628 -1.7088 -0.4921  0.4329
22402SOL    HW268628   9.265   4.759   8.516 -0.7419  0.5636  0.3502
22403SOL     OW68629   3.823   8.836   3.672  0.2483 -0.0063  0.1925
22403SOL    HW168630   3.763   8.776   3.628  0.5359  0.2374 -0.5504
22403SOL    HW268631   3.832   8.910   3.612  2.1309 -0.5280 -0.2517
22404SOL     OW68632   2.681   1.320   0.709  0.3272  0.0622 -0.0185
22404SOL    HW168633   2.624   1.256   0.751 -1.0081  0.5929 -0.9742
22404SOL    HW268634   2.768   1.279   0.711  0.2824 -0.1094  2.8343
22405SOL     OW68635   3.640   2.301   7.095 -0.1044 -0.0335  0.0887
22405SOL    HW168636   3.550   2.270   7.092  0.0373 -0.3871 -1.1928
22405SOL    HW268637   3.689   2.237   7.043  0.8908  0.1614  0.7497
22406SOL     OW68638   8.646   4.277   4.245  0.1838  0.3021  0.1552
22406SOL    HW168639   8.565   4.260   4.197 -0.1716  1.2721  0.3857
22406SOL    HW268640   8.678   4.190   4.269 -0.3799 -0.1349 -0.5959
22407SOL     OW68641   9.084   7.862   4.385  0.6347 -0.7120  0.0148
22407SOL    HW168642   8.995   7.897   4.388  0.5280 -1.0300  0.5692
22407SOL    HW268643   9.072   7.768   4.371  0.9350 -0.4393 -2.6673
22408SOL     OW68644   6.311   5.510   4.454  0.3843 -0.4761 -0.0729
22408SOL    HW168645   6.357   5.572   4.397  0.2402  0.1480  0.4838
22408SOL    HW268646   6.327   5.542   4.543 -0.2969 -0.8135  0.1798
22409SOL     OW68647   4.305   7.211   7.148 -0.0249  0.0150 -0.1473
22409SOL    HW168648   4.328   7.304   7.155 -2.7997  0.8010 -0.2109
22409SOL    HW268649   4.209   7.211   7.146 -0.1341 -2.9321  0.9064
22410SOL     OW68650   5.755   0.897   8.584 -0.5345  0.0695 -0.1258
22410SOL    HW168651   5.723   0.952   8.656  0.2424 -0.8351  0.9501
22410SOL    HW268652   5.837   0.860   8.617  0.7026  0.9023 -2.1214
22411SOL     OW68653   1.689   3.939   6.901 -0.1755  0.4729  0.4163
22411SOL    HW168654   1.782   3.916   6.899 -0.8967 -3.1686  1.8517
22411SOL    HW268655   1.676   3.978   6.987 -0.0610  0.7361  0.3173
22412SOL     OW68656   3.142   0.998   3.616  0.2015 -0.4506 -0.0884
22412SOL    HW168657   3.151   0.903   3.604  0.2682 -0.5245  0.5146
22412SOL    HW268658   3.205   1.036   3.555  0.5915 -0.8096  0.0896
22413SOL     OW68659   6.448   7.358   1.750 -0.0881 -0.3720  0.3293
22413SOL    HW168660   6.374   7.347   1.809  0.3744 -0.3479  0.9197
22413SOL    HW268661   6.409   7.360   1.662 -0.8199  0.0756  0.6610
22414SOL     OW68662   5.601   2.889   7.523  0.0886  0.1974 -0.0147
22414SOL    HW168663   5.549   2.809   7.527  0.4873 -0.1478 -1.1609
22414SOL    HW268664   5.539   2.956   7.495 -0.3264  0.3845  1.2979
22415SOL     OW68665   7.480   8.885   1.838 -0.0417 -0.1216  0.0238
22415SOL    HW168666   7.549   8.828   1.803 -1.5002 -0.8669 -1.8538
22415SOL    HW268667   7.402   8.861   1.787 -2.0660 -0.3062  2.9998
22416SOL     OW68668   8.769   4.460   1.810 -0.4512 -0.3671  0.1611
22416SOL    HW168669   8.720   4.540   1.790  1.2341  0.5841 -0.3499
22416SOL    HW268670   8.771   4.412   1.727 -0.0090 -0.0943  0.0062
22417SOL     OW68671   1.811   0.772   4.960  0.1693  0.1636 -0.2944
22417SOL    HW168672   1.819   0.685   4.922  0.7700 -0.7577  1.8075
22417SOL    HW268673   1.902   0.798   4.977  0.1537  2.0387 -2.5382
22418SOL     OW68674   5.848   3.282   1.518  0.0970 -0.0520  0.3580
22418SOL    HW168675   5.753   3.275   1.519  0.1148 -1.0143 -1.1320
22418SOL    HW268676   5.870   3.329   1.598 -1.6630  0.6421  0.4716
22419SOL     OW68677   1.114   3.888   1.182 -0.9150  0.1978  0.1226
22419SOL    HW168678   1.168   3.963   1.207 -2.7765  1.0782  1.7944
22419SOL    HW268679   1.120   3.828   1.257  0.0410 -1.0791 -0.9242
22420SOL     OW68680   3.347   8.117   6.590 -0.2670  0.6821 -0.2137
22420SOL    HW168681   3.367   8.208   6.614  1.6661  0.6603 -1.4474
22420SOL    HW268682   3.370   8.066   6.667  0.7399  1.0657 -0.2434
22421SOL     OW68683   2.891   2.722   2.067  0.0871 -0.5071  0.5124
22421SOL    HW168684   2.961   2.660   2.047 -0.4111 -1.0670  0.5048
22421SOL    HW268685   2.909   2.750   2.157  0.9440  0.1941  0.1490
22422SOL     OW68686   5.713   7.933   2.510  0.3326 -0.2529  0.4666
22422SOL    HW168687   5.692   7.964   2.422  0.5032  0.0754  0.5428
22422SOL    HW268688   5.654   7.859   2.523 -1.3959  1.1570  1.0036
22423SOL     OW68689   0.717   0.895   8.247  0.2610  0.6725 -0.0632
22423SOL    HW168690   0.672   0.850   8.176 -0.9535  0.4378  0.8305
22423SOL    HW268691   0.692   0.986   8.238 -1.3474  0.3790  1.0895
22424SOL     OW68692   5.604   8.548   1.472 -0.1844 -0.1278  0.0601
22424SOL    HW168693   5.556   8.486   1.417 -0.9133  0.9019 -0.5001
22424SOL    HW268694   5.587   8.633   1.432 -0.1896  0.5795  1.5082
22425SOL     OW68695   8.577   7.467   7.707  0.1360 -0.0624  0.4296
22425SOL    HW168696   8.597   7.551   7.746  0.9918 -0.0225 -0.0749
22425SOL    HW268697   8.486   7.450   7.733  0.7909 -0.2804  2.8313
22426SOL     OW68698   7.226   8.872   8.748 -0.0735  0.5357  0.5777
22426SOL    HW168699   7.297   8.935   8.737  1.5398 -1.3444 -0.2292
22426SOL    HW268700   7.256   8.813   8.817 -0.1482 -1.1351 -0.7492
22427SOL     OW68701   7.329   0.895   3.388  0.2946 -0.5655  0.4459
22427SOL    HW168702   7.376   0.851   3.458  2.3747 -1.7198 -1.5484
22427SOL    HW268703   7.269   0.828   3.354  0.6008 -0.6044 -0.0269
22428SOL     OW68704   4.832   6.311   3.563 -0.6263  0.2478 -0.0122
22428SOL    HW168705   4.754   6.308   3.508 -1.2013 -0.5134  0.8049
22428SOL    HW268706   4.803   6.357   3.642 -0.4920 -0.7025  0.6169
22429SOL     OW68707   8.060   3.368   1.513 -0.0385  0.5095 -0.3020
22429SOL    HW168708   8.061   3.273   1.527  0.1802  0.7630  1.7219
22429SOL    HW268709   7.998   3.381   1.442  0.3347 -1.1895 -0.9808
22430SOL     OW68710   8.270   5.015   6.660  0.7798  0.2691  0.2701
22430SOL    HW168711   8.180   5.038   6.635  0.7799  0.1055  0.1161
22430SOL    HW268712   8.288   4.934   6.612  1.6193  1.2212 -1.1003
22431SOL     OW68713   7.288   5.841   8.229  0.2914  0.2118  0.6183
22431SOL    HW168714   7.279   5.749   8.253 -0.7556  0.7176  2.3045
22431SOL    HW268715   7.304   5.839   8.134 -2.0466 -1.6207  0.1602
22432SOL     OW68716   4.563   4.563   2.234  0.4449  0.3645  0.4878
22432SOL    HW168717   4.600   4.627   2.174  0.4942 -1.9405 -2.1194
22432SOL    HW268718   4.606   4.480   2.211 -1.6779 -1.1836  1.6929
22433SOL     OW68719   8.504   5.949   1.944  0.1885  0.6689  0.0498
22433SOL    HW168720   8.415   5.950   1.910  0.2813 -0.7663 -0.3001
22433SOL    HW268721   8.530   6.041   1.947 -1.5279  1.1743  0.7834
22434SOL     OW68722   6.572   2.290   5.969 -0.5718  0.0265 -0.0363
22434SOL    HW168723   6.622   2.361   5.927  0.2311  0.2279  1.2232
22434SOL    HW268724   6.527   2.247   5.896  0.7625  0.3830 -1.1094
22435SOL     OW68725   2.686   8.040   6.236  0.4882  0.5448  0.1955
22435SOL    HW168726   2.631   7.962   6.238  0.5014  0.5034 -0.8270
22435SOL    HW268727   2.738   8.033   6.316 -0.0429 -0.0997  0.5010
22436SOL     OW68728   2.008   1.795   4.878 -0.0323 -0.5464  0.2449
22436SOL    HW168729   1.960   1.740   4.940 -1.4643  1.1203  0.6868
22436SOL    HW268730   2.084   1.742   4.853 -0.3660 -1.9736  2.0332
22437SOL     OW68731   6.749   2.439   5.487 -0.2447 -0.5167 -0.4288
22437SOL    HW168732   6.723   2.437   5.395  0.1234 -0.5168 -0.5314
22437SOL    HW268733   6.840   2.411   5.487  0.1150  0.5848 -0.1907
22438SOL     OW68734   3.546   5.791   5.290  0.1715 -0.7359 -0.2246
22438SOL    HW168735   3.536   5.852   5.217  2.1290 -0.9746 -0.7235
22438SOL    HW268736   3.611   5.727   5.261 -0.3897 -1.9480  1.0247
22439SOL     OW68737   8.720   9.115   5.761 -0.5502 -0.2089  0.2740
22439SOL    HW168738   8.770   9.042   5.724  0.1197  0.3029  0.1413
22439SOL    HW268739   8.639   9.117   5.709  0.0226 -0.0055 -0.6340
22440SOL     OW68740   9.095   6.507   3.636  0.1530  0.4306 -0.5990
22440SOL    HW168741   9.048   6.521   3.554 -1.6211  1.1536  0.4796
22440SOL    HW268742   9.029   6.522   3.704  0.0832 -5.1530  1.0236
22441SOL     OW68743   1.619   5.874   5.885  0.4465  0.2685 -0.3295
22441SOL    HW168744   1.654   5.904   5.969  1.1534  0.6325 -0.7457
22441SOL    HW268745   1.687   5.817   5.849  0.2404  0.2835 -0.7502
22442SOL     OW68746   2.670   5.788   9.199  0.2360  0.2964 -0.0624
22442SOL    HW168747   2.716   5.786   9.115 -0.1227  1.2360 -0.2916
22442SOL    HW268748   2.738   5.769   9.263  0.5364 -0.3265 -0.5470
22443SOL     OW68749   5.905   1.673   6.091 -0.2426  0.2958 -0.2900
22443SOL    HW168750   5.991   1.689   6.131 -1.2834  0.5155  2.0502
22443SOL    HW268751   5.882   1.585   6.118 -0.7785  0.2501 -0.8735
22444SOL     OW68752   5.290   2.929   3.317  0.1326  0.2841 -0.0288
22444SOL    HW168753   5.254   2.930   3.405 -2.2545 -1.6033 -0.8739
22444SOL    HW268754   5.253   3.005   3.274 -1.0816 -0.3983 -0.2219
22445SOL     OW68755   1.607   4.130   0.844  0.0879  0.5263 -0.1091
22445SOL    HW168756   1.630   4.059   0.784 -0.3269 -0.6804  1.1023
22445SOL    HW268757   1.563   4.195   0.789 -1.7392 -1.2627 -0.8563
22446SOL     OW68758   7.971   7.333   4.204 -0.2204  0.0810  0.2746
22446SOL    HW168759   7.939   7.298   4.287 -2.1445  0.5229 -0.2272
22446SOL    HW268760   8.063   7.308   4.201 -0.5759 -1.5782  1.6700
22447SOL     OW68761   5.701   6.180   4.804  0.2352  0.3705  0.1153
22447SOL    HW168762   5.769   6.247   4.814  0.3378  0.3238 -0.2647
22447SOL    HW268763   5.742   6.112   4.751  0.3936 -0.3645  1.1523
22448SOL     OW68764   1.843   0.080   6.228  0.4013  0.4745  0.2197
22448SOL    HW168765   1.932   0.081   6.192  0.1907 -0.6398 -0.3745
22448SOL    HW268766   1.857   0.071   6.323  0.9680 -2.2563 -0.0284
22449SOL     OW68767   7.984   3.534   5.080 -0.1750  0.7997 -0.1379
22449SOL    HW168768   7.926   3.539   5.156  0.2110 -0.6438  0.3005
22449SOL    HW268769   8.068   3.505   5.117  0.3317  1.1920 -0.9770
22450SOL     OW68770   5.136   8.015   6.622 -0.1643 -0.0951 -0.2219
22450SOL    HW168771   5.217   7.989   6.666  1.2725  1.9148 -1.5328
22450SOL    HW268772   5.110   7.937   6.573 -0.0794 -1.3509  1.6202
22451SOL     OW68773   2.364   0.685   7.400 -0.7553  0.0097  0.2547
22451SOL    HW168774   2.402   0.771   7.419  0.3315  0.2446 -2.4847
22451SOL    HW268775   2.429   0.642   7.344 -2.3737 -1.6324 -0.4719
22452SOL     OW68776   1.931   6.802   4.866 -0.0055  0.0803  0.5248
22452SOL    HW168777   1.898   6.803   4.956  0.9268  2.4082  0.8826
22452SOL    HW268778   1.901   6.884   4.828  2.3759  0.6513 -0.2426
22453SOL     OW68779   2.207   0.648   0.793  0.7151  0.0252 -0.1900
22453SOL    HW168780   2.254   0.650   0.876 -2.9876  3.3316  2.2098
22453SOL    HW268781   2.216   0.736   0.758 -2.6304  0.6139  0.0223
22454SOL     OW68782   3.846   4.164   0.104 -0.0061  0.0420  0.2798
22454SOL    HW168783   3.795   4.123   0.174 -0.5117 -0.1766 -0.2093
22454SOL    HW268784   3.902   4.094   0.070  1.2471  0.4726  1.3547
22455SOL     OW68785   5.669   2.541   4.517 -0.0859  0.2588  0.5382
22455SOL    HW168786   5.644   2.546   4.609  0.0426  0.9433  0.5340
22455SOL    HW268787   5.714   2.456   4.510 -0.4881 -0.0008  1.0041
22456SOL     OW68788   7.832   0.455   7.347 -0.1367  0.3920  0.1135
22456SOL    HW168789   7.858   0.423   7.434 -1.3279  0.4480  0.5049
22456SOL    HW268790   7.738   0.438   7.342 -0.2769  1.3348 -0.7713
22457SOL     OW68791   5.748   8.456   2.125 -0.2798  0.0306 -0.4076
22457SOL    HW168792   5.723   8.454   2.217 -0.2966 -1.7916 -0.4250
22457SOL    HW268793   5.844   8.460   2.126 -0.3027  1.0096 -0.3469
22458SOL     OW68794   3.667   1.403   3.159  0.5465 -0.2112 -0.1274
22458SOL    HW168795   3.654   1.328   3.102 -0.8312 -1.0943  1.2738
22458SOL    HW268796   3.595   1.399   3.222  1.4470  1.2639  1.0854
22459SOL     OW68797   3.305   2.501   7.427  0.3726 -0.2573  0.2328
22459SOL    HW168798   3.380   2.462   7.471  0.2154 -0.7541  0.0583
22459SOL    HW268799   3.262   2.554   7.495  1.0821  0.3297  0.2443
22460SOL     OW68800   9.108   2.337   5.092 -0.3907 -0.1866  0.0425
22460SOL    HW168801   9.085   2.275   5.161  0.0659  0.2518  0.5974
22460SOL    HW268802   9.035   2.399   5.089 -0.8678 -0.7648 -0.5435
22461SOL     OW68803   2.992   4.922   5.763 -0.6088  0.0816 -0.3660
22461SOL    HW168804   3.063   4.953   5.819 -0.5815 -1.4517  0.5123
22461SOL    HW268805   2.922   4.987   5.775  0.4361  1.3194 -0.8315
22462SOL     OW68806   8.859   5.188   2.240 -0.3993  0.3799 -0.2090
22462SOL    HW168807   8.903   5.117   2.194 -2.2186 -0.7941 -0.2200
22462SOL    HW268808   8.779   5.149   2.274 -1.4969  2.4433 -0.2568
22463SOL     OW68809   2.833   1.646   2.704  0.0943  0.1047 -0.6386
22463SOL    HW168810   2.839   1.735   2.738  1.6113  0.9712 -2.9542
22463SOL    HW268811   2.914   1.603   2.730  0.0521 -0.1122 -0.8534
22464SOL     OW68812   0.743   5.370   7.524  0.1102  0.7353  0.0178
22464SOL    HW168813   0.821   5.419   7.498  0.5298  0.8087  1.3355
22464SOL    HW268814   0.764   5.279   7.506 -0.1051  0.8842 -1.0584
22465SOL     OW68815   4.667   4.719   7.136 -0.0210 -0.2996  0.1360
22465SOL    HW168816   4.697   4.697   7.048  0.6754  1.2004 -0.0376
22465SOL    HW268817   4.728   4.786   7.166 -1.5223  0.7809  0.9117
22466SOL     OW68818   3.812   1.277   1.186 -0.2822  0.0638  0.0338
22466SOL    HW168819   3.783   1.185   1.189  0.3095 -0.1713 -0.9592
22466SOL    HW268820   3.905   1.272   1.166 -0.4553  0.8976 -1.0398
22467SOL     OW68821   1.163   3.716   8.399 -0.6185  0.1977 -0.1817
22467SOL    HW168822   1.115   3.633   8.397 -0.4367 -0.0139  1.8937
22467SOL    HW268823   1.209   3.719   8.315 -1.6482 -1.1738 -0.8353
22468SOL     OW68824   4.066   2.226   8.440  0.2519 -0.0015  0.0280
22468SOL    HW168825   4.105   2.275   8.513  1.1880  1.6235 -1.4717
22468SOL    HW268826   4.135   2.225   8.373 -0.6895 -1.1696 -0.9624
22469SOL     OW68827   7.222   5.144   5.939  0.3049 -0.5693 -0.4149
22469SOL    HW168828   7.171   5.064   5.945  0.7386 -0.7359  2.9591
22469SOL    HW268829   7.170   5.209   5.987  2.0694 -0.1410  1.0454
22470SOL     OW68830   1.596   7.924   7.347 -0.6111  0.5380  1.1413
22470SOL    HW168831   1.568   8.014   7.328  1.1629  1.0119  0.5501
22470SOL    HW268832   1.606   7.883   7.261 -0.8611 -0.0470  1.3893
22471SOL     OW68833   3.282   7.888   4.219 -0.0338  0.5522 -0.7159
22471SOL    HW168834   3.372   7.888   4.187 -0.8715  0.7214 -3.3505
22471SOL    HW268835   3.252   7.978   4.209 -1.4061 -0.0524 -3.0622
22472SOL     OW68836   0.447   8.290   7.719 -0.2319 -0.6170  0.5146
22472SOL    HW168837   0.515   8.238   7.762 -0.2219 -1.0875 -0.0494
22472SOL    HW268838   0.371   8.231   7.715  0.3700 -1.3189 -1.8844
22473SOL     OW68839   8.756   2.892   9.244  0.1045 -0.4360 -0.1835
22473SOL    HW168840   8.702   2.813   9.246  1.1726 -1.1759  0.0052
22473SOL    HW268841   8.701   2.960   9.282 -1.0109 -0.9648 -0.8105
22474SOL     OW68842   3.933   4.823   7.175 -0.4227  0.1554  0.1197
22474SOL    HW168843   3.959   4.845   7.264 -1.5160 -0.7859  0.7032
22474SOL    HW268844   3.897   4.904   7.139 -0.5835  0.3714  0.7682
22475SOL     OW68845   8.574   7.942   2.995 -0.1961  0.6822  0.4225
22475SOL    HW168846   8.661   7.910   2.974 -0.4337  1.8590 -3.0336
22475SOL    HW268847   8.530   7.868   3.037  1.7529 -0.6472  0.2516
22476SOL     OW68848   6.796   4.148   7.352 -0.5186  0.2194 -0.3511
22476SOL    HW168849   6.781   4.184   7.264 -1.2884  3.1816  0.8642
22476SOL    HW268850   6.842   4.218   7.399  0.5507 -1.5731  1.4376
22477SOL     OW68851   1.102   0.356   8.878  0.6265  0.5539  0.4493
22477SOL    HW168852   1.189   0.386   8.903  0.3163  1.4017  0.5218
22477SOL    HW268853   1.049   0.435   8.872  0.1218  0.1555 -0.6626
22478SOL     OW68854   1.733   5.763   2.928 -0.1085 -0.0968 -0.2051
22478SOL    HW168855   1.736   5.668   2.917  2.6057  0.2077 -3.6404
22478SOL    HW268856   1.704   5.797   2.843 -0.3446  2.2236  0.7083
22479SOL     OW68857   0.290   8.353   1.577 -0.4254 -0.5625  0.9032
22479SOL    HW168858   0.353   8.290   1.614 -0.4318 -0.4496  1.1045
22479SOL    HW268859   0.336   8.436   1.578 -0.2971 -0.6237  0.3264
22480SOL     OW68860   4.032   5.141   8.525 -0.2085  0.3334  0.5365
22480SOL    HW168861   4.086   5.070   8.490 -1.2364 -0.2232  0.0410
22480SOL    HW268862   4.063   5.219   8.479  0.2694  0.0526  0.3689
22481SOL     OW68863   8.195   4.873   4.919 -0.1333  0.1109 -0.3826
22481SOL    HW168864   8.140   4.949   4.935  1.6552  1.4223 -0.1846
22481SOL    HW268865   8.143   4.799   4.949 -1.4562  1.3756  0.5783
22482SOL     OW68866   7.342   1.330   1.789  0.0284 -0.0471  0.1974
22482SOL    HW168867   7.287   1.398   1.751  1.0668  1.9431  2.0315
22482SOL    HW268868   7.430   1.368   1.790  0.3431 -0.6572  2.8679
22483SOL     OW68869   5.753   5.513   7.957  0.0215  0.5679  0.4507
22483SOL    HW168870   5.707   5.462   7.891 -1.6075  0.2248  1.7660
22483SOL    HW268871   5.807   5.449   8.003  0.5629  0.6673 -0.0366
22484SOL     OW68872   5.825   8.031   3.502 -0.3958 -0.3635  0.1900
22484SOL    HW168873   5.840   8.009   3.594  2.3905  0.5770  0.0603
22484SOL    HW268874   5.791   8.120   3.503 -0.2430 -0.3070  0.3111
22485SOL     OW68875   4.516   1.793   1.134  0.2516 -0.2040  0.1087
22485SOL    HW168876   4.587   1.840   1.177  0.6204  0.3494 -1.0749
22485SOL    HW268877   4.438   1.815   1.186  1.0762 -1.8185  2.1679
22486SOL     OW68878   1.873   8.836   5.279 -0.2456  0.1471 -0.7600
22486SOL    HW168879   1.941   8.901   5.259 -0.4999  0.4267 -0.7192
22486SOL    HW268880   1.824   8.829   5.197 -0.7389  0.6347 -0.5124
22487SOL     OW68881   2.488   7.895   8.867 -0.1018  0.0898  0.1764
22487SOL    HW168882   2.537   7.930   8.941 -0.4693 -0.6871  0.7915
22487SOL    HW268883   2.440   7.971   8.832  0.4631  0.5621  0.4165
22488SOL     OW68884   2.255   8.318   5.018 -0.1433  0.3386  0.4947
22488SOL    HW168885   2.247   8.314   4.923 -1.7647 -0.4280  0.6282
22488SOL    HW268886   2.274   8.409   5.037  3.8177 -0.0325 -0.7349
22489SOL     OW68887   9.050   0.680   3.200 -0.0691  0.3096  0.0782
22489SOL    HW168888   9.097   0.666   3.282  0.1961  2.9780  0.4817
22489SOL    HW268889   8.989   0.607   3.195 -0.5292  0.3623  3.0128
22490SOL     OW68890   5.807   2.421   1.746  0.3025  0.0172  0.7747
22490SOL    HW168891   5.786   2.359   1.816  1.4644  0.4389  1.5182
22490SOL    HW268892   5.799   2.369   1.665  0.0252 -0.7666  1.2878
22491SOL     OW68893   5.345   5.844   5.037  0.7245  0.1102 -0.3729
22491SOL    HW168894   5.376   5.868   4.950 -1.0824  0.3216 -0.9991
22491SOL    HW268895   5.342   5.927   5.085 -1.4453  0.6003 -1.2083
22492SOL     OW68896   8.485   1.373   0.823  0.2097  0.2263  0.6217
22492SOL    HW168897   8.559   1.389   0.882 -0.2963  0.3925  1.2208
22492SOL    HW268898   8.432   1.453   0.829 -1.0401 -0.6374  1.7084
22493SOL     OW68899   2.767   4.090   3.625 -0.4385 -0.6411  0.4293
22493SOL    HW168900   2.829   4.035   3.578 -0.8515  0.6188 -1.7666
22493SOL    HW268901   2.818   4.132   3.694  0.7803 -0.8586 -0.3108
22494SOL     OW68902   5.688   8.097   1.423  0.0194 -0.0127 -0.2919
22494SOL    HW168903   5.783   8.105   1.410  0.4158  1.0290  2.6217
22494SOL    HW268904   5.666   8.165   1.486 -2.7818  0.0179 -1.1806
22495SOL     OW68905   7.254   4.834   8.899 -0.0044  0.2214  0.2078
22495SOL    HW168906   7.277   4.864   8.987 -2.0802 -0.3500  1.0069
22495SOL    HW268907   7.211   4.750   8.913 -1.3018  0.6008 -1.2391
22496SOL     OW68908   6.753   4.401   6.859  0.5495 -0.0529 -0.1196
22496SOL    HW168909   6.802   4.450   6.793  0.2244 -1.2899 -1.3261
22496SOL    HW268910   6.662   4.429   6.848  0.5932  0.2871  0.3297
22497SOL     OW68911   8.413   4.448   0.228  0.1148  0.5021  1.0871
22497SOL    HW168912   8.340   4.469   0.287  0.8502 -1.1355  2.6770
22497SOL    HW268913   8.372   4.402   0.155 -0.7252  1.8851  0.6585
22498SOL     OW68914   0.224   3.421   1.530 -0.3511  0.1973  0.5972
22498SOL    HW168915   0.187   3.463   1.453 -0.1455  1.7778  1.3204
22498SOL    HW268916   0.262   3.492   1.581  0.0828 -0.8806  1.8564
22499SOL     OW68917   5.311   9.034   1.211 -0.0573  0.0804 -0.0359
22499SOL    HW168918   5.241   8.979   1.245  0.2723  1.0562  2.4207
22499SOL    HW268919   5.328   9.098   1.280  2.3906  0.6882 -1.0597
22500SOL     OW68920   0.208   6.004   5.474  0.3166 -0.2497  0.1735
22500SOL    HW168921   0.159   6.013   5.392  0.7194 -1.0122 -0.1593
22500SOL    HW268922   0.293   5.970   5.447 -0.0793 -2.0836  1.0288
22501SOL     OW68923   2.174   6.714   6.982  0.5959  0.4446  0.0604
22501SOL    HW168924   2.236   6.771   6.938  0.6706 -0.8840 -1.6757
22501SOL    HW268925   2.094   6.721   6.930  0.1619  0.0394  0.6531
22502SOL     OW68926   7.338   2.851   6.641  0.8869 -0.1849  0.4338
22502SOL    HW168927   7.254   2.874   6.601  1.6782  1.8254 -0.1853
22502SOL    HW268928   7.317   2.780   6.701 -0.7979 -1.4808 -1.5678
22503SOL     OW68929   1.127   5.300   7.859  0.1742  0.2237 -0.0433
22503SOL    HW168930   1.043   5.344   7.841  1.3483  1.9155 -1.9196
22503SOL    HW268931   1.110   5.208   7.842 -1.2487  0.5680 -0.6592
22504SOL     OW68932   6.232   8.621   1.122 -0.3120  0.1569 -0.0045
22504SOL    HW168933   6.267   8.532   1.132 -0.8969 -0.0906 -0.1264
22504SOL    HW268934   6.306   8.678   1.142  1.2528 -0.3104 -3.6185
22505SOL     OW68935   6.413   2.329   6.618 -0.2929 -0.5086  0.0572
22505SOL    HW168936   6.436   2.342   6.710 -4.3844  1.4537  1.0639
22505SOL    HW268937   6.396   2.235   6.610 -0.8857 -0.5607  1.6298
22506SOL     OW68938   2.549   2.674   5.123 -0.1170  0.9279  0.2543
22506SOL    HW168939   2.584   2.703   5.207  3.0322  2.3317 -1.3593
22506SOL    HW268940   2.616   2.700   5.059 -1.7839 -1.1521 -2.5663
22507SOL     OW68941   2.930   0.950   8.952 -0.2692 -0.5595 -0.5004
22507SOL    HW168942   3.020   0.949   8.920 -0.4684 -0.6014 -1.0790
22507SOL    HW268943   2.913   0.859   8.979  0.5837 -0.1193  1.7505
22508SOL     OW68944   7.410   2.502   2.474 -0.4456 -0.0657 -0.1339
22508SOL    HW168945   7.436   2.571   2.413  0.2567  0.4838  0.7587
22508SOL    HW268946   7.314   2.506   2.475 -0.4054  1.3812  0.4241
22509SOL     OW68947   2.984   8.342   1.717  0.0924  0.5078 -0.1900
22509SOL    HW168948   2.949   8.428   1.738  0.2251  0.4179  0.4316
22509SOL    HW268949   3.073   8.343   1.752  0.1152  0.1411 -0.2349
22510SOL     OW68950   2.096   6.697   1.070  0.3128 -0.7737 -0.2469
22510SOL    HW168951   2.177   6.746   1.069  0.3005 -0.5984 -3.1208
22510SOL    HW268952   2.110   6.626   1.007 -1.0415 -2.0423  0.7937
22511SOL     OW68953   2.039   7.120   8.368  0.3886  0.1224 -0.2766
22511SOL    HW168954   1.983   7.147   8.295 -1.1383  0.7038  1.0533
22511SOL    HW268955   2.126   7.154   8.346 -0.5612  2.4687 -0.6874
22512SOL     OW68956   7.495   0.730   7.584  0.1084 -0.7822 -0.0580
22512SOL    HW168957   7.570   0.686   7.543  1.2498 -0.5833  1.7090
22512SOL    HW268958   7.493   0.695   7.674  0.2962  1.8198  1.0439
22513SOL     OW68959   8.612   7.847   6.155  0.0687  0.0815  0.3590
22513SOL    HW168960   8.634   7.787   6.083  1.1215  0.4392  0.3784
22513SOL    HW268961   8.520   7.868   6.140  0.1403 -0.2279 -0.6145
22514SOL     OW68962   5.446   2.799   7.822  0.2931 -0.1084  0.3757
22514SOL    HW168963   5.352   2.785   7.828  0.2526  0.3313  0.8801
22514SOL    HW268964   5.479   2.720   7.779 -0.4618  0.3574 -1.1198
22515SOL     OW68965   2.882   0.862   0.274 -0.6345 -0.1778 -0.4221
22515SOL    HW168966   2.802   0.844   0.224 -0.8260  0.4513 -0.3498
22515SOL    HW268967   2.902   0.953   0.255  0.6686 -0.6172 -1.2636
22516SOL     OW68968   7.212   0.138   9.119  0.1997 -0.0823 -0.3977
22516SOL    HW168969   7.163   0.064   9.081  1.1808 -0.1980 -1.5117
22516SOL    HW268970   7.217   0.118   9.212 -0.5424 -0.8440 -0.5084
22517SOL     OW68971   1.107   6.437   7.031  0.1169  0.4183 -0.1141
22517SOL    HW168972   1.124   6.501   6.962  1.4897  0.2263  0.0137
22517SOL    HW268973   1.168   6.460   7.101  0.2760 -0.7111  0.1466
22518SOL     OW68974   3.097   1.637   8.584  0.3726  0.6009 -0.0726
22518SOL    HW168975   3.077   1.629   8.491 -0.1821  3.4569 -0.2784
22518SOL    HW268976   3.016   1.668   8.624  1.1520  1.3103  1.0256
22519SOL     OW68977   3.749   7.628   0.978  0.8691  0.0777 -0.5283
22519SOL    HW168978   3.820   7.623   1.041  1.8233  1.9475 -1.3743
22519SOL    HW268979   3.689   7.693   1.014  0.0564 -0.7785 -0.2974
22520SOL     OW68980   3.486   6.632   6.821 -0.5505  0.1185 -0.1292
22520SOL    HW168981   3.573   6.672   6.824  1.4819 -3.4143 -3.3592
22520SOL    HW268982   3.469   6.606   6.912 -0.0814  4.0927  1.2698
22521SOL     OW68983   6.138   4.002   5.128 -0.4068 -0.5561 -0.2900
22521SOL    HW168984   6.048   3.984   5.099 -0.1886  0.5184 -1.7268
22521SOL    HW268985   6.193   3.972   5.056  0.2632  0.5690 -0.2594
22522SOL     OW68986   6.668   6.310   9.194  0.4289  0.1025  0.1789
22522SOL    HW168987   6.600   6.300   9.260  1.4556  1.1452  1.4423
22522SOL    HW268988   6.720   6.229   9.200 -0.0069 -0.1919  0.0141
22523SOL     OW68989   0.137   7.841   6.775 -0.4053 -0.0007  0.0835
22523SOL    HW168990   0.072   7.883   6.719  0.1438 -0.5050 -0.9466
22523SOL    HW268991   0.096   7.758   6.802 -0.6413  0.2103  0.3787
22524SOL     OW68992   7.199   6.613   6.254  0.1092 -0.6896  0.4781
22524SOL    HW168993   7.292   6.632   6.270 -0.3419  0.8458  1.5655
22524SOL    HW268994   7.186   6.525   6.288  0.6622  0.0151  2.7126
22525SOL     OW68995   6.868   3.467   4.390 -0.3674  0.1805  0.0392
22525SOL    HW168996   6.895   3.537   4.331 -0.0687  0.7068  0.7814
22525SOL    HW268997   6.819   3.406   4.335 -0.9364  1.1486 -0.5445
22526SOL     OW68998   0.892   4.535   3.566 -0.7068 -0.1147 -0.1764
22526SOL    HW168999   0.948   4.513   3.641  0.0566 -1.7429 -1.1483
22526SOL    HW269000   0.947   4.518   3.489 -0.4674  4.2199 -1.1945
22527SOL     OW69001   2.624   5.087   2.378  0.3161 -0.5690 -0.0201
22527SOL    HW169002   2.609   5.120   2.290 -0.5512 -0.8125  0.0283
22527SOL    HW269003   2.631   5.166   2.432  1.4464 -0.4010 -0.3806
22528SOL     OW69004   4.270   4.160   5.372 -0.0988 -0.4447  0.2927
22528SOL    HW169005   4.303   4.094   5.310 -1.8786 -0.4515 -0.6955
22528SOL    HW269006   4.220   4.221   5.318  3.4942  3.3455  0.7071
22529SOL     OW69007   7.157   4.461   2.573 -0.0617  0.3544 -0.0136
22529SOL    HW169008   7.123   4.418   2.651  1.6718  1.9357  1.7495
22529SOL    HW269009   7.154   4.394   2.505 -1.7278 -1.0674  1.3698
22530SOL     OW69010   2.662   2.666   0.426 -0.1779 -0.3690 -0.1287
22530SOL    HW169011   2.741   2.697   0.381  0.8083 -0.3577  1.5184
22530SOL    HW269012   2.639   2.584   0.381 -0.3139  0.5323 -1.7771
22531SOL     OW69013   8.363   0.613   4.299 -0.8181 -0.4273  0.4101
22531SOL    HW169014   8.399   0.545   4.242 -1.3987 -0.0347 -0.4515
22531SOL    HW269015   8.384   0.584   4.387 -0.1453 -1.1976  0.0111
22532SOL     OW69016   8.587   0.763   5.749 -0.2125  0.1315 -0.1570
22532SOL    HW169017   8.513   0.770   5.688 -0.9356 -0.6692  0.6016
22532SOL    HW269018   8.586   0.845   5.798 -0.5268  0.1724 -0.2293
22533SOL     OW69019   2.926   3.442   3.925 -0.4774  0.0052  0.3445
22533SOL    HW169020   2.903   3.388   4.000  0.0702  0.2997  0.7241
22533SOL    HW269021   2.846   3.445   3.872 -1.3125  0.9593  1.6100
22534SOL     OW69022   1.762   6.937   4.316 -0.2038  0.0981 -0.4949
22534SOL    HW169023   1.726   6.872   4.256 -0.5163 -0.2774  0.0823
22534SOL    HW269024   1.766   7.018   4.265  0.1677 -0.3637 -1.2116
22535SOL     OW69025   3.291   3.522   4.658  0.4821  0.9378 -0.2029
22535SOL    HW169026   3.358   3.583   4.688 -0.6223  2.0843  0.0146
22535SOL    HW269027   3.268   3.551   4.570 -1.3366  2.0080  0.5754
22536SOL     OW69028   8.911   5.155   5.500  0.2869 -0.4351 -0.1444
22536SOL    HW169029   8.876   5.072   5.468  0.6727 -0.0609 -1.6264
22536SOL    HW269030   8.879   5.220   5.438  1.5335  0.2551 -0.0970
22537SOL     OW69031   3.153   4.417   9.172 -0.7817 -0.3497  0.6212
22537SOL    HW169032   3.097   4.493   9.191 -2.0045 -0.2958 -2.5071
22537SOL    HW269033   3.227   4.453   9.123 -0.1731 -0.9276  1.0990
22538SOL     OW69034   6.996   0.204   3.954 -0.1061  0.3475  0.0003
22538SOL    HW169035   6.948   0.125   3.977  0.7815 -0.4530 -0.7744
22538SOL    HW269036   6.946   0.243   3.883  0.0554 -0.1665 -0.4057
22539SOL     OW69037   5.993   4.037   3.950  0.5780 -0.0304 -0.0769
22539SOL    HW169038   5.988   4.102   4.020  2.9762 -0.1757  0.3256
22539SOL    HW269039   6.024   3.958   3.994  2.5081 -0.0223 -1.2955
22540SOL     OW69040   4.816   6.520   0.310  0.4227 -0.9855 -0.3552
22540SOL    HW169041   4.885   6.535   0.245  1.7994 -1.3458  0.9485
22540SOL    HW269042   4.838   6.435   0.349  0.1386 -0.4089  1.1426
22541SOL     OW69043   2.212   1.439   8.032 -0.3475  0.1628 -0.1158
22541SOL    HW169044   2.147   1.495   7.990 -0.3926  1.1222  1.1875
22541SOL    HW269045   2.175   1.418   8.117  1.1889  1.0727  0.8339
22542SOL     OW69046   6.549   2.899   8.312  1.1304 -0.3005 -0.0838
22542SOL    HW169047   6.464   2.864   8.285  0.6289  1.1624 -0.4965
22542SOL    HW269048   6.606   2.823   8.315  0.0164 -1.1894 -0.6500
22543SOL     OW69049   6.622   4.852   3.872  0.0659 -0.0593  0.2720
22543SOL    HW169050   6.600   4.769   3.913 -0.9546  0.8514  1.6230
22543SOL    HW269051   6.655   4.907   3.943  0.2318  0.8775 -0.5015
22544SOL     OW69052   7.797   8.972   6.753  0.6034 -0.1433 -0.0168
22544SOL    HW169053   7.848   8.918   6.813  0.3334  0.4910  0.7987
22544SOL    HW269054   7.818   8.938   6.666  0.2673 -1.6997  0.4844
22545SOL     OW69055   4.208   6.955   6.645 -0.6610 -0.0200  0.3798
22545SOL    HW169056   4.231   6.981   6.734 -1.0223  0.5231  0.3221
22545SOL    HW269057   4.146   7.022   6.616 -1.3428 -0.7605  0.0876
22546SOL     OW69058   6.414   5.169   8.375 -0.4444  0.2896  0.1393
22546SOL    HW169059   6.347   5.150   8.309  0.4427 -0.8444 -0.4737
22546SOL    HW269060   6.366   5.203   8.450 -2.1206 -3.2036  0.8480
22547SOL     OW69061   5.205   1.189   9.082 -0.3521  0.7084  0.9831
22547SOL    HW169062   5.151   1.268   9.075 -0.8867  0.3307  0.7573
22547SOL    HW269063   5.177   1.149   9.164 -0.5174  0.4423  0.7985
22548SOL     OW69064   6.670   0.784   5.529  0.2350  0.2814  0.4057
22548SOL    HW169065   6.688   0.722   5.600 -1.4416 -1.0204 -0.2565
22548SOL    HW269066   6.639   0.863   5.574  0.6322  0.0125  1.1838
22549SOL     OW69067   5.979   5.129   6.631  1.1475  0.1411  0.1441
22549SOL    HW169068   5.997   5.093   6.545  0.0019  0.1050 -0.1002
22549SOL    HW269069   5.920   5.065   6.672 -0.2643  1.2820  0.0132
22550SOL     OW69070   0.157   1.223   1.093  0.4710  0.3183  0.4607
22550SOL    HW169071   0.089   1.286   1.119  3.3274  2.5555  3.2850
22550SOL    HW269072   0.141   1.148   1.150 -0.2914  0.3320  0.2835
22551SOL     OW69073   1.773   8.891   3.110 -0.1822  0.3055 -0.2560
22551SOL    HW169074   1.688   8.860   3.079 -0.8741  1.6187  0.2657
22551SOL    HW269075   1.757   8.917   3.201  0.9745 -0.1662  0.0947
22552SOL     OW69076   2.172   2.827   2.936 -0.3931  0.4085  0.2535
22552SOL    HW169077   2.128   2.758   2.986  0.0739 -0.0550  0.0340
22552SOL    HW269078   2.100   2.876   2.895 -0.8508  1.3525  2.0511
22553SOL     OW69079   7.907   4.172   8.660  0.8163 -0.4055 -0.1612
22553SOL    HW169080   7.874   4.116   8.590 -0.9330 -1.4831  1.4204
22553SOL    HW269081   7.845   4.244   8.664 -0.3075 -1.3789  1.4929
22554SOL     OW69082   0.696   1.017   1.541  0.0595  0.3059  0.0325
22554SOL    HW169083   0.602   1.007   1.558  0.1576  0.0197  0.4163
22554SOL    HW269084   0.733   0.931   1.561  0.4069  0.4244 -0.0960
22555SOL     OW69085   1.977   6.349   1.184 -0.1577  0.2052  0.5506
22555SOL    HW169086   1.984   6.379   1.093  0.6621  0.0845  0.5729
22555SOL    HW269087   2.056   6.297   1.199  0.6230  1.6948  1.8724
22556SOL     OW69088   5.636   5.480   6.612 -0.0347 -0.0460  0.9479
22556SOL    HW169089   5.672   5.391   6.606  0.0320 -0.1179  2.1487
22556SOL    HW269090   5.572   5.475   6.683 -0.0269  0.8685  1.0299
22557SOL     OW69091   5.199   2.730   5.302  0.1919 -0.6314  0.1716
22557SOL    HW169092   5.273   2.691   5.254 -0.3437 -0.2997 -0.9513
22557SOL    HW269093   5.123   2.678   5.275 -0.4359  0.7545 -0.8773
22558SOL     OW69094   6.092   8.058   2.632  0.9766  0.5601 -0.1420
22558SOL    HW169095   6.144   7.990   2.675  1.0845 -0.8610 -2.3117
22558SOL    HW269096   6.155   8.104   2.576  0.2185 -0.4152 -1.9057
22559SOL     OW69097   5.860   7.870   9.181 -0.3695  0.0285 -0.0934
22559SOL    HW169098   5.779   7.860   9.231  0.4620 -2.1021  0.9237
22559SOL    HW269099   5.837   7.845   9.092 -1.0846  0.5864 -0.0720
22560SOL     OW69100   3.501   7.170   0.422 -0.3846 -0.2139  0.4213
22560SOL    HW169101   3.516   7.159   0.328 -0.6376  0.7196  0.2612
22560SOL    HW269102   3.407   7.164   0.432 -0.4355  0.5615  0.4812
22561SOL     OW69103   3.271   1.314   8.204 -0.5404 -0.4343  0.6830
22561SOL    HW169104   3.275   1.409   8.206  0.1470 -0.4347 -0.1480
22561SOL    HW269105   3.294   1.291   8.114 -0.9282 -1.3796  0.8108
22562SOL     OW69106   7.828   6.625   5.107  0.3932  0.5042 -0.2098
22562SOL    HW169107   7.800   6.565   5.176  0.4260 -0.3391 -0.9140
22562SOL    HW269108   7.765   6.613   5.036  0.7813  0.8189 -0.6200
22563SOL     OW69109   6.521   1.153   1.354 -0.0019 -0.2231 -0.1789
22563SOL    HW169110   6.460   1.190   1.418  0.3675 -0.1073  0.1119
22563SOL    HW269111   6.607   1.166   1.394  0.4607  1.9477 -1.7016
22564SOL     OW69112   9.058   3.840   3.872 -0.0481 -0.1805  0.5093
22564SOL    HW169113   9.044   3.924   3.828 -0.8387 -0.2787  0.5652
22564SOL    HW269114   9.043   3.858   3.964 -3.2158 -0.9809  0.2521
22565SOL     OW69115   8.049   8.677   2.124  0.6962 -0.5569  0.4948
22565SOL    HW169116   8.110   8.619   2.170  0.2026  0.1977  2.1700
22565SOL    HW269117   8.099   8.757   2.108  0.6517 -0.5544  0.3658
22566SOL     OW69118   4.315   2.385   3.208 -0.0961 -0.1317 -0.3722
22566SOL    HW169119   4.292   2.350   3.295  0.6123  0.3213  0.0134
22566SOL    HW269120   4.347   2.309   3.160  1.4084 -0.0786  0.4528
22567SOL     OW69121   5.742   9.075   0.494 -0.0602  0.8481  0.4284
22567SOL    HW169122   5.773   9.134   0.426 -0.0072 -0.4528 -0.7118
22567SOL    HW269123   5.819   9.061   0.550  0.3570  0.6709 -0.1752
22568SOL     OW69124   0.729   7.196   2.808  0.8434  0.2723  0.2401
22568SOL    HW169125   0.771   7.110   2.820  0.5792  0.0069 -0.6673
22568SOL    HW269126   0.647   7.177   2.764  1.5340  1.1142 -1.5251
22569SOL     OW69127   7.114   0.925   0.193  0.4043 -0.4366  0.1778
22569SOL    HW169128   7.148   0.839   0.217  0.2540 -0.7952 -0.8344
22569SOL    HW269129   7.056   0.908   0.119  0.3634  0.5401 -0.0303
22570SOL     OW69130   7.098   3.427   1.396 -0.2061  0.4094  0.1878
22570SOL    HW169131   7.168   3.491   1.408  1.8462 -1.6574 -0.0781
22570SOL    HW269132   7.081   3.393   1.483  1.3909 -1.2610 -0.0864
22571SOL     OW69133   8.676   2.042   8.560  0.2762 -0.9176  0.1960
22571SOL    HW169134   8.616   2.010   8.626  1.6477 -1.5496  1.1722
22571SOL    HW269135   8.719   2.118   8.600 -0.0413 -0.2987 -0.5903
22572SOL     OW69136   2.979   0.354   1.091  0.5766 -0.1539  0.1239
22572SOL    HW169137   3.003   0.403   1.013  2.3002 -1.6681 -0.3792
22572SOL    HW269138   2.918   0.287   1.059  1.1134 -0.6382  0.1000
22573SOL     OW69139   1.643   1.143   1.501  0.0239  0.5047  0.3728
22573SOL    HW169140   1.715   1.113   1.555 -0.3934 -1.1895  0.0521
22573SOL    HW269141   1.653   1.238   1.497  2.9790  0.2386 -0.7252
22574SOL     OW69142   6.092   7.932   7.955  0.3078 -0.7299 -0.1239
22574SOL    HW169143   6.030   7.918   8.027  0.5733 -0.6386  0.1230
22574SOL    HW269144   6.174   7.957   7.998  1.1286 -2.9159 -0.3130
22575SOL     OW69145   1.662   9.140   2.732 -0.3446 -0.2926  0.0638
22575SOL    HW169146   1.744   9.134   2.683 -0.0809  0.1453  0.4402
22575SOL    HW269147   1.593   9.141   2.665 -0.1161 -1.8119 -0.2247
22576SOL     OW69148   1.585   5.476   0.875  0.0261 -0.2077  0.3254
22576SOL    HW169149   1.505   5.451   0.830  0.0300 -0.9752  0.7308
22576SOL    HW269150   1.653   5.422   0.837  0.2740  0.1100  0.3088
22577SOL     OW69151   2.816   1.214   2.051 -0.2081 -0.6720 -0.0896
22577SOL    HW169152   2.876   1.258   2.112 -0.4610 -2.6264  1.6622
22577SOL    HW269153   2.794   1.132   2.094 -4.8816  0.2538 -0.1937
22578SOL     OW69154   8.175   7.215   4.874 -0.1078  0.3451  0.4550
22578SOL    HW169155   8.270   7.224   4.878  0.0310 -1.1047  1.4741
22578SOL    HW269156   8.159   7.123   4.897 -1.6265 -0.1042 -2.0272
22579SOL     OW69157   0.964   3.968   3.831 -0.0513 -0.1827 -0.3345
22579SOL    HW169158   0.956   3.926   3.917 -2.7818 -2.4148 -1.5416
22579SOL    HW269159   0.888   4.027   3.827  2.4078  3.3291  0.3571
22580SOL     OW69160   6.974   5.647   3.907  0.2270 -0.0206 -0.7301
22580SOL    HW169161   6.931   5.626   3.824 -0.3097 -0.3174 -0.3809
22580SOL    HW269162   7.068   5.638   3.888  0.0742 -1.0358 -1.0532
22581SOL     OW69163   0.918   8.502   8.631 -0.5271  0.6352  0.5545
22581SOL    HW169164   0.888   8.544   8.712 -1.5300 -0.7367  0.9291
22581SOL    HW269165   0.911   8.571   8.565 -1.4325  1.2717  1.2859
22582SOL     OW69166   6.005   5.168   5.463  0.1619 -0.1752  0.0032
22582SOL    HW169167   5.971   5.215   5.540  0.1846  0.3561 -0.3017
22582SOL    HW269168   6.086   5.214   5.441 -0.0036 -0.1317 -0.5223
22583SOL     OW69169   5.738   2.136   6.221  0.2018 -0.4782  0.1072
22583SOL    HW169170   5.813   2.182   6.183 -0.7335  0.2924 -0.8755
22583SOL    HW269171   5.735   2.052   6.174 -0.1445 -0.0840 -0.5943
22584SOL     OW69172   0.013   1.897   2.531  0.0226 -0.5826  0.1503
22584SOL    HW169173   0.086   1.897   2.469 -0.4154 -1.0145 -0.3773
22584SOL    HW269174  -0.002   1.989   2.549 -0.8637 -0.3322 -1.6343
22585SOL     OW69175   0.007   5.853   1.821 -0.1527 -0.1971  0.5052
22585SOL    HW169176   0.090   5.811   1.797  0.5289  1.0170  0.6598
22585SOL    HW269177  -0.029   5.884   1.738 -0.6324 -1.0253  0.3969
22586SOL     OW69178   6.873   2.572   2.178  0.1781 -0.0877 -0.4460
22586SOL    HW169179   6.961   2.552   2.148  0.6122  1.3609 -0.2128
22586SOL    HW269180   6.828   2.487   2.181  1.8062 -0.9507  0.2679
22587SOL     OW69181   5.380   1.938   2.217 -0.0335  0.2647  0.2904
22587SOL    HW169182   5.414   2.027   2.224  0.5833  0.3200 -2.3753
22587SOL    HW269183   5.459   1.883   2.211 -0.4130 -0.4058  1.1968
22588SOL     OW69184   2.189   4.479   1.228 -0.2087 -0.3241 -0.4091
22588SOL    HW169185   2.173   4.453   1.319 -1.9381  0.4622 -0.4623
22588SOL    HW269186   2.102   4.494   1.191  0.5387  1.2583 -1.6387
22589SOL     OW69187   1.154   8.285   5.420 -0.0793  1.0110  0.6133
22589SOL    HW169188   1.189   8.367   5.385  1.1387  0.8224  1.3460
22589SOL    HW269189   1.205   8.217   5.377 -0.6541  0.6562  0.4870
22590SOL     OW69190   6.517   6.225   8.728 -0.5538 -0.2337  0.1624
22590SOL    HW169191   6.571   6.295   8.765 -0.3905 -0.9903  1.4135
22590SOL    HW269192   6.429   6.241   8.762 -0.4724 -0.7539  0.6213
22591SOL     OW69193   7.842   4.194   7.202 -0.3553 -0.3028 -0.3600
22591SOL    HW169194   7.818   4.240   7.121  1.1929  0.3972 -0.4598
22591SOL    HW269195   7.807   4.106   7.191  0.5841 -0.4861 -2.1869
22592SOL     OW69196   6.562   3.268   3.134 -0.0082 -0.3709  0.1315
22592SOL    HW169197   6.470   3.245   3.139 -0.3759  0.6252 -1.5759
22592SOL    HW269198   6.599   3.207   3.070 -0.2931  1.4761 -1.9043
22593SOL     OW69199   3.962   0.528   5.202 -0.1225  0.2376  0.4865
22593SOL    HW169200   3.956   0.623   5.192 -0.9241  0.2962  1.3567
22593SOL    HW269201   4.055   0.513   5.219 -0.1951  1.0474  1.7840
22594SOL     OW69202   2.198   7.491   2.588  0.1208  0.0511  0.3610
22594SOL    HW169203   2.111   7.525   2.565  0.5249  0.2722 -0.9168
22594SOL    HW269204   2.237   7.465   2.505  0.9500 -0.8858  1.0091
22595SOL     OW69205   9.239   0.323   0.357 -0.5012  0.0333 -0.1859
22595SOL    HW169206   9.150   0.289   0.345 -1.1987  1.7129 -0.0138
22595SOL    HW269207   9.242   0.350   0.449  0.4533 -0.6890  0.0140
22596SOL     OW69208   7.424   6.379   2.434 -0.5505  0.0764  0.0112
22596SOL    HW169209   7.477   6.456   2.414  0.2063 -0.4239  0.0485
22596SOL    HW269210   7.484   6.305   2.426 -0.8076 -0.3653  1.7215
22597SOL     OW69211   9.173   6.717   7.155  0.8145 -0.7668 -0.3922
22597SOL    HW169212   9.152   6.695   7.246  1.8991  0.7377  0.2607
22597SOL    HW269213   9.102   6.774   7.126 -0.5031 -2.7009 -1.1458
22598SOL     OW69214   6.828   7.527   4.153 -0.1608  0.2203 -0.4083
22598SOL    HW169215   6.883   7.602   4.176 -0.4405  0.3091 -0.0107
22598SOL    HW269216   6.873   7.485   4.080  0.6046  0.1070  0.1159
22599SOL     OW69217   3.975   7.634   7.905 -0.8663 -0.0926 -0.1365
22599SOL    HW169218   4.020   7.693   7.845 -0.5968  0.4393  0.5757
22599SOL    HW269219   3.889   7.674   7.919 -1.4569 -0.9257 -1.2209
22600SOL     OW69220   1.009   4.872   3.827  0.2794  0.2449 -0.0139
22600SOL    HW169221   0.955   4.892   3.903 -0.4521  0.9214 -0.6967
22600SOL    HW269222   1.023   4.957   3.784  1.1487 -0.0446 -0.3400
22601SOL     OW69223   0.994   9.089   7.605 -0.6976  0.1711 -0.4949
22601SOL    HW169224   0.919   9.148   7.607 -0.6704  0.3729 -2.9742
22601SOL    HW269225   1.068   9.145   7.583 -0.2826 -0.4362 -0.6641
22602SOL     OW69226   1.435   2.668   1.419  0.2231 -0.8721 -0.3672
22602SOL    HW169227   1.471   2.636   1.336  2.5913  1.2788 -0.2856
22602SOL    HW269228   1.506   2.653   1.483  0.7256  2.4955  0.0455
22603SOL     OW69229   2.638   2.213   3.886 -0.2346  0.0054  0.0150
22603SOL    HW169230   2.673   2.189   3.972  0.0125  1.1213  0.2382
22603SOL    HW269231   2.712   2.201   3.826 -0.0265  0.4661  0.1733
22604SOL     OW69232   3.927   5.239   6.554  0.4229 -0.2411  0.3215
22604SOL    HW169233   3.839   5.244   6.516 -0.1157 -1.5207  1.3057
22604SOL    HW269234   3.965   5.159   6.517  0.4274 -0.7291  1.3431
22605SOL     OW69235   2.963   3.108   6.852 -1.2739 -0.2190  0.3080
22605SOL    HW169236   2.900   3.171   6.889  0.0599  0.6397  1.2110
22605SOL    HW269237   3.023   3.162   6.801 -0.0370 -0.7274  1.1799
22606SOL     OW69238   4.384   7.519   1.996  0.1958  0.2306  0.5312
22606SOL    HW169239   4.379   7.433   1.955  1.4087  0.1205  0.5767
22606SOL    HW269240   4.352   7.504   2.085  0.0777 -0.0999  0.4356
22607SOL     OW69241   5.146   2.477   3.001 -0.0562 -0.0371 -0.6337
22607SOL    HW169242   5.096   2.541   3.051 -1.6092  0.3255 -2.5091
22607SOL    HW269243   5.226   2.524   2.976  0.0120  0.2915  0.1862
22608SOL     OW69244   3.258   5.623   4.084  0.2444  0.0472 -0.0537
22608SOL    HW169245   3.330   5.681   4.110  0.7954 -0.4890 -0.3526
22608SOL    HW269246   3.180   5.661   4.124  0.5752  1.0664 -0.3496
22609SOL     OW69247   0.572   8.694   1.715 -0.2710 -0.1477  0.3600
22609SOL    HW169248   0.571   8.692   1.810 -2.6603 -1.5964  0.3699
22609SOL    HW269249   0.529   8.777   1.692  0.9245  0.5394  0.4745
22610SOL     OW69250   1.788   4.440   5.075  0.4381  0.2411 -0.3264
22610SOL    HW169251   1.832   4.417   5.158  1.3678  0.7831 -0.6468
22610SOL    HW269252   1.830   4.384   5.010 -1.1714 -1.0940 -0.2639
22611SOL     OW69253   6.331   0.538   8.896  0.0762  0.7501  0.3439
22611SOL    HW169254   6.358   0.545   8.805  1.3424  1.9854  0.7793
22611SOL    HW269255   6.313   0.628   8.923  0.0763  0.4430  1.4089
22612SOL     OW69256   4.240   8.834   1.715 -0.1758  0.1662 -0.9004
22612SOL    HW169257   4.279   8.765   1.662  0.8699  0.9310 -1.1592
22612SOL    HW269258   4.196   8.891   1.653 -1.3775 -0.4608 -0.6489
22613SOL     OW69259   3.292   7.775   0.788 -0.1370  0.2560 -0.2543
22613SOL    HW169260   3.266   7.690   0.823 -3.0407  0.7400 -0.9488
22613SOL    HW269261   3.305   7.830   0.866 -0.2477 -0.2925  0.1596
22614SOL     OW69262   2.801   0.379   2.714 -0.6491 -0.1641  0.1159
22614SOL    HW169263   2.755   0.460   2.691  0.4706  0.4194 -0.1904
22614SOL    HW269264   2.800   0.327   2.633  0.8971  0.6994 -0.4987
22615SOL     OW69265   4.470   4.988   3.239 -0.1477  0.1794 -0.5312
22615SOL    HW169266   4.411   5.057   3.209  0.0532 -0.2415 -1.9689
22615SOL    HW269267   4.432   4.958   3.322 -0.0009  2.2704  0.3335
22616SOL     OW69268   2.895   3.378   8.052  0.4372  0.3207  0.1604
22616SOL    HW169269   2.822   3.346   8.000 -0.2791 -1.4328  2.1084
22616SOL    HW269270   2.869   3.466   8.079 -0.5093  0.0984  0.0052
22617SOL     OW69271   0.454   2.796   2.815  0.1439  0.1186  0.2136
22617SOL    HW169272   0.500   2.753   2.743 -1.0556 -1.0568  0.1089
22617SOL    HW269273   0.452   2.889   2.790 -0.9346 -0.3595 -1.6845
22618SOL     OW69274   9.129   3.173   2.917  0.1254 -0.0433 -0.1876
22618SOL    HW169275   9.065   3.111   2.951 -0.0641  0.4161  0.3119
22618SOL    HW269276   9.109   3.255   2.963 -1.0801  1.0127 -2.4350
22619SOL     OW69277   8.060   5.790   4.332  0.5112 -0.2180  0.2296
22619SOL    HW169278   8.013   5.711   4.305  0.1960 -0.3794  1.2079
22619SOL    HW269279   8.151   5.763   4.339  0.5086 -0.3170 -0.1193
22620SOL     OW69280   0.515   2.380   1.389 -1.2125 -0.5369  0.3074
22620SOL    HW169281   0.551   2.462   1.424 -0.4133  0.3023 -2.2282
22620SOL    HW269282   0.574   2.312   1.421 -1.7397 -0.1306  2.2438
22621SOL     OW69283   8.329   0.555   4.865  0.1295 -0.1919 -0.2960
22621SOL    HW169284   8.338   0.461   4.880  0.3495 -0.3028 -1.1148
22621SOL    HW269285   8.378   0.572   4.785 -2.7848  0.0326 -2.1543
22622SOL     OW69286   3.848   8.084   2.038 -0.1064 -0.2969  0.7766
22622SOL    HW169287   3.798   8.158   2.071 -1.0186  0.1037 -1.3562
22622SOL    HW269288   3.858   8.102   1.945  3.0231 -0.9593  0.8804
22623SOL     OW69289   5.026   6.753   0.244  0.8704 -0.6287  0.2137
22623SOL    HW169290   4.994   6.746   0.334  1.3403  0.4654  0.4807
22623SOL    HW269291   4.997   6.840   0.215  2.5927 -0.0560  0.0946
22624SOL     OW69292   2.622   5.653   6.468 -0.0441  0.3487  0.4646
22624SOL    HW169293   2.690   5.600   6.426  0.1242  0.2456  0.8711
22624SOL    HW269294   2.574   5.691   6.394 -0.1154 -0.3032  0.1574
22625SOL     OW69295   8.977   0.354   3.737 -0.0810  0.0211 -0.0732
22625SOL    HW169296   8.994   0.443   3.706 -0.2154  0.2536  0.5164
22625SOL    HW269297   9.063   0.321   3.762 -0.1373  0.2632  0.4413
22626SOL     OW69298   0.503   1.482   1.356 -0.0975  0.1790 -0.0356
22626SOL    HW169299   0.443   1.447   1.290 -0.0447 -0.5083  0.2789
22626SOL    HW269300   0.460   1.466   1.439  0.8274 -0.9615  0.2440
22627SOL     OW69301   3.480   2.170   2.548 -0.5897  0.5286  0.1935
22627SOL    HW169302   3.563   2.147   2.590 -0.7867  0.4604  0.5548
22627SOL    HW269303   3.498   2.167   2.454 -0.6345 -1.2767  0.2072
22628SOL     OW69304   1.380   1.700   8.223  0.2373  0.0293  0.0587
22628SOL    HW169305   1.423   1.776   8.261 -0.7384 -0.6079  2.6422
22628SOL    HW269306   1.294   1.698   8.264 -0.1070 -1.9498 -0.6602
22629SOL     OW69307   5.673   6.874   0.366  0.1569  0.1745 -0.5502
22629SOL    HW169308   5.726   6.852   0.443  0.5580  0.5141 -0.7281
22629SOL    HW269309   5.736   6.910   0.303 -0.2190  0.1819 -0.9226
22630SOL     OW69310   2.487   9.202   1.500  0.3854  0.6851 -0.4596
22630SOL    HW169311   2.564   9.234   1.453  1.2614  1.9644  1.7090
22630SOL    HW269312   2.517   9.186   1.589 -1.3794 -0.9469 -0.0801
22631SOL     OW69313   6.245   2.022   5.110 -0.0977 -1.1710  0.1339
22631SOL    HW169314   6.269   1.991   5.023  1.0456  0.3710 -0.1432
22631SOL    HW269315   6.173   2.084   5.094  1.4622  0.6956 -0.0018
22632SOL     OW69316   5.923   6.103   2.901 -0.6618  0.1885 -0.0409
22632SOL    HW169317   5.884   6.021   2.874 -0.6788 -0.0470  0.6681
22632SOL    HW269318   5.855   6.169   2.885 -1.2100 -0.1581  0.8116
22633SOL     OW69319   7.666   6.079   8.788 -0.5817 -0.5297  0.2574
22633SOL    HW169320   7.758   6.094   8.808 -0.3089 -0.7653 -0.7456
22633SOL    HW269321   7.619   6.140   8.844  0.2682  0.8812 -0.4905
22634SOL     OW69322   8.994   5.100   3.293  0.2483 -0.1383 -0.4436
22634SOL    HW169323   9.064   5.040   3.320 -0.8787 -1.7511 -0.9933
22634SOL    HW269324   8.966   5.142   3.375  0.4217 -1.0727  0.1168
22635SOL     OW69325   3.783   1.716   7.683 -0.3341  0.1560  0.3168
22635SOL    HW169326   3.787   1.631   7.640 -1.9565  0.2400 -0.0458
22635SOL    HW269327   3.739   1.773   7.620 -1.5493  0.6107  1.5272
22636SOL     OW69328   3.378   3.126   8.186  0.3955  0.6732 -0.7004
22636SOL    HW169329   3.444   3.127   8.117  1.7687  0.8603  0.5856
22636SOL    HW269330   3.322   3.201   8.167 -0.1258 -0.0727 -2.3805
22637SOL     OW69331   6.491   4.073   0.695  0.3303  0.1889  0.1798
22637SOL    HW169332   6.570   4.079   0.749 -0.6871 -0.8778  1.9244
22637SOL    HW269333   6.523   4.065   0.606  2.1815  0.0888  0.8008
22638SOL     OW69334   8.675   3.555   0.349 -0.0713  0.1433 -0.3966
22638SOL    HW169335   8.614   3.489   0.383 -0.6022 -0.7140 -2.8432
22638SOL    HW269336   8.620   3.617   0.301  0.5929  1.6292  0.6785
22639SOL     OW69337   5.665   0.568   1.857  0.7008  0.3696  0.3008
22639SOL    HW169338   5.614   0.487   1.852  0.1065  0.7930 -1.1456
22639SOL    HW269339   5.740   0.553   1.800  0.6996  0.7506  0.1949
22640SOL     OW69340   4.118   8.775   8.525  0.3326  0.0477  0.1836
22640SOL    HW169341   4.174   8.770   8.602 -2.9530  0.5358  2.7965
22640SOL    HW269342   4.055   8.845   8.544 -2.0266 -1.3138 -1.9024
22641SOL     OW69343   6.186   7.327   0.091  0.0645 -0.1111  0.6429
22641SOL    HW169344   6.126   7.398   0.069 -0.2291  0.5086  3.1924
22641SOL    HW269345   6.130   7.257   0.124  0.4812 -0.9410 -0.3617
22642SOL     OW69346   6.795   8.339   6.992  0.4003  0.6260 -0.4629
22642SOL    HW169347   6.746   8.364   7.071  1.0177  1.1292 -0.2322
22642SOL    HW269348   6.885   8.367   7.009  0.8552 -0.6034 -0.7438
22643SOL     OW69349   8.965   4.628   0.475  0.3785  0.3848 -0.1363
22643SOL    HW169350   8.891   4.624   0.536  1.0675 -1.6505  0.6381
22643SOL    HW269351   8.983   4.722   0.467 -1.7161  0.8954  0.3070
22644SOL     OW69352   0.039   7.130   6.839  0.4972  0.2836  0.0536
22644SOL    HW169353  -0.036   7.071   6.850  1.3586 -1.1446 -1.2876
22644SOL    HW269354   0.006   7.203   6.788 -0.4394  0.6968  1.2020
22645SOL     OW69355   3.831   6.612   5.265 -0.2667 -0.6060  0.6682
22645SOL    HW169356   3.870   6.652   5.342 -0.3897  1.1025 -0.0976
22645SOL    HW269357   3.755   6.564   5.298 -0.0518 -0.2804  1.6555
22646SOL     OW69358   5.223   9.174   3.390  0.2560 -0.1120  0.1614
22646SOL    HW169359   5.182   9.259   3.374 -0.0350 -0.1189  0.8511
22646SOL    HW269360   5.243   9.140   3.303  1.7965  1.3543 -0.1179
22647SOL     OW69361   6.893   4.006   6.108 -0.1341  0.1324 -0.2271
22647SOL    HW169362   6.799   3.993   6.118  0.2321 -1.8400  1.2710
22647SOL    HW269363   6.915   4.073   6.172 -0.3798 -0.0928  0.0948
22648SOL     OW69364   2.388   6.404   0.666 -0.0278  0.2398 -0.0555
22648SOL    HW169365   2.352   6.447   0.743 -0.2668  1.0766 -0.6159
22648SOL    HW269366   2.446   6.469   0.627  2.3118 -1.1143  0.9126
22649SOL     OW69367   0.431   4.562   0.672 -0.1570  0.6820  0.5325
22649SOL    HW169368   0.363   4.495   0.678 -0.4504  0.9105 -0.0922
22649SOL    HW269369   0.436   4.583   0.579 -1.6267  3.0703  0.8902
22650SOL     OW69370   9.245   6.954   2.931 -0.1740  0.0858 -0.4940
22650SOL    HW169371   9.189   6.885   2.896 -0.7090 -0.3015  1.0605
22650SOL    HW269372   9.209   6.974   3.017  2.5063 -0.7503  0.9514
22651SOL     OW69373   8.259   2.014   9.235  0.3700 -0.1320 -0.1551
22651SOL    HW169374   8.266   2.023   9.330  4.2803  0.2809 -0.3084
22651SOL    HW269375   8.227   1.925   9.221 -1.8482  0.3137  1.4434
22652SOL     OW69376   7.544   1.479   5.684 -0.4892 -0.6933  0.2660
22652SOL    HW169377   7.567   1.455   5.595  0.8975 -2.2837  1.0040
22652SOL    HW269378   7.505   1.400   5.721  0.3173 -0.5473  1.4971
22653SOL     OW69379   2.483   2.587   1.520 -0.1178  0.4793  0.9471
22653SOL    HW169380   2.528   2.632   1.592  2.5166  0.0564 -0.3072
22653SOL    HW269381   2.483   2.651   1.449  1.5648 -0.6235 -0.1142
22654SOL     OW69382   8.486   7.195   6.618  0.2100  0.3149 -0.6248
22654SOL    HW169383   8.461   7.243   6.696  2.2231 -1.4837  1.2413
22654SOL    HW269384   8.579   7.175   6.630 -0.0286 -2.2375 -2.2346
22655SOL     OW69385   6.336   7.543   7.047 -0.5675 -0.4644 -0.1955
22655SOL    HW169386   6.377   7.498   6.973  0.1317 -0.4791  0.1905
22655SOL    HW269387   6.260   7.489   7.069 -0.0530 -1.1555 -0.0889
22656SOL     OW69388   2.448   4.021   6.117  0.2532  0.1095 -0.0193
22656SOL    HW169389   2.482   3.943   6.161 -2.3666 -0.7401  0.6976
22656SOL    HW269390   2.480   4.094   6.169  0.2996 -0.6799  1.1026
22657SOL     OW69391   8.823   6.888   9.212 -0.7325 -0.1145  0.1535
22657SOL    HW169392   8.804   6.970   9.167  2.1513  0.7816  0.3271
22657SOL    HW269393   8.848   6.915   9.300  1.4477 -0.9589 -0.1352
22658SOL     OW69394   0.552   6.688   4.646 -0.1247  0.0568  0.1332
22658SOL    HW169395   0.548   6.764   4.588 -1.1225 -0.1188 -0.0472
22658SOL    HW269396   0.585   6.723   4.729  1.4472  0.2854 -0.5524
22659SOL     OW69397   6.130   4.184   4.462 -0.0370  0.0942 -0.2071
22659SOL    HW169398   6.118   4.271   4.423  2.0483  0.2585 -0.5960
22659SOL    HW269399   6.213   4.153   4.426  0.8113 -0.7546  2.2591
22660SOL     OW69400   4.786   9.219   3.562  0.3248  0.2242 -0.7172
22660SOL    HW169401   4.833   9.136   3.553  1.6335  0.7584  0.8861
22660SOL    HW269402   4.787   9.238   3.655 -1.8672  1.0061 -0.7823
22661SOL     OW69403   3.316   7.293   5.193 -0.2812 -0.6553 -0.0674
22661SOL    HW169404   3.323   7.198   5.193  3.0681 -0.6135 -2.7079
22661SOL    HW269405   3.392   7.324   5.242  0.2891  0.5477 -1.5884
22662SOL     OW69406   6.875   0.675   7.543  0.3068 -0.2453 -0.0559
22662SOL    HW169407   6.916   0.612   7.602  0.9204  1.7220  1.7500
22662SOL    HW269408   6.823   0.731   7.601 -0.6372  0.5974 -1.6558
22663SOL     OW69409   0.151   0.109   0.315  0.1622  0.7066 -0.0876
22663SOL    HW169410   0.198   0.115   0.398  1.8255 -0.2446 -0.8995
22663SOL    HW269411   0.094   0.186   0.314  0.1866  0.7999  1.8615
22664SOL     OW69412   1.141   7.975   3.241  0.5526 -0.2127  0.4282
22664SOL    HW169413   1.134   7.885   3.274 -0.8084  0.3483  1.8268
22664SOL    HW269414   1.070   8.022   3.285  1.3116  1.5908 -0.1697
22665SOL     OW69415   6.989   7.414   3.341 -0.3826 -0.0819 -0.3974
22665SOL    HW169416   6.945   7.403   3.257 -0.6521 -2.4430  0.0068
22665SOL    HW269417   6.920   7.402   3.406  0.3086 -1.0411  0.1905
22666SOL     OW69418   0.432   6.895   6.543  0.3417  0.3686  0.3363
22666SOL    HW169419   0.442   6.942   6.461  0.0824  2.2771  1.3543
22666SOL    HW269420   0.409   6.806   6.517  0.2602  0.9313 -1.6446
22667SOL     OW69421   5.569   4.167   3.570  0.2925  0.2397  0.2990
22667SOL    HW169422   5.507   4.121   3.627  0.2904  1.3434  1.2378
22667SOL    HW269423   5.596   4.243   3.622 -0.0667  1.5556 -1.3657
22668SOL     OW69424   0.255   9.024   0.728 -0.8700  0.1786  0.1118
22668SOL    HW169425   0.184   9.063   0.779 -0.1801  1.5345  0.0584
22668SOL    HW269426   0.323   9.091   0.725  0.2345 -0.9144 -0.2433
22669SOL     OW69427   3.219   8.456   6.019 -0.0451 -0.1272  0.1496
22669SOL    HW169428   3.219   8.390   6.088  0.3741 -1.2838 -0.9339
22669SOL    HW269429   3.253   8.535   6.062 -1.0447 -0.4386  1.5846
22670SOL     OW69430   3.201   6.495   7.238  0.1769 -0.0036 -0.1868
22670SOL    HW169431   3.289   6.512   7.205  0.5759 -1.3691  0.1287
22670SOL    HW269432   3.209   6.414   7.289 -1.3327 -0.3735 -0.4844
22671SOL     OW69433   8.755   3.559   4.323 -0.1297  0.2679 -0.7590
22671SOL    HW169434   8.761   3.620   4.397 -1.0307  0.3732 -0.7656
22671SOL    HW269435   8.756   3.615   4.246 -2.3845  0.4302 -0.7392
22672SOL     OW69436   1.039   1.272   6.210 -0.2428  0.2556  0.1105
22672SOL    HW169437   1.085   1.202   6.256 -1.3138 -0.2690  0.4150
22672SOL    HW269438   0.993   1.228   6.139 -0.5660  0.7066  0.0356
22673SOL     OW69439   7.167   7.421   7.961 -0.0678  0.1711  0.3371
22673SOL    HW169440   7.257   7.394   7.944 -0.1980  0.8045 -1.5985
22673SOL    HW269441   7.131   7.352   8.016  1.2623 -0.6703  0.1947
22674SOL     OW69442   7.223   8.157   2.585  1.0032 -0.7930 -0.3756
22674SOL    HW169443   7.162   8.135   2.656 -0.1481  0.7379 -0.8302
22674SOL    HW269444   7.292   8.207   2.628  0.8284 -0.7181 -0.1774
22675SOL     OW69445   8.848   8.721   5.829  0.3141 -0.1992 -0.4204
22675SOL    HW169446   8.884   8.744   5.914  1.6708  0.9800 -1.2681
22675SOL    HW269447   8.899   8.646   5.800  1.5903  0.9416 -1.2458
22676SOL     OW69448   2.616   0.917   0.164  0.2773  0.3159 -0.3046
22676SOL    HW169449   2.530   0.943   0.132  0.0564 -2.8185 -2.8180
22676SOL    HW269450   2.598   0.849   0.229  0.6415 -2.4188 -2.8370
22677SOL     OW69451   5.448   3.172   0.415  0.7277 -0.4180  0.3743
22677SOL    HW169452   5.537   3.197   0.390  0.9232  0.2825  1.6903
22677SOL    HW269453   5.457   3.138   0.505 -0.2351 -0.9724  0.2775
22678SOL     OW69454   4.849   4.352   0.048  0.1541 -0.0947 -0.0346
22678SOL    HW169455   4.819   4.378  -0.039 -0.6145 -1.2622 -0.1376
22678SOL    HW269456   4.823   4.260   0.055  0.0321  0.0472  1.5076
22679SOL     OW69457   0.600   6.006   0.005 -0.2305  0.0952  0.0925
22679SOL    HW169458   0.690   6.021   0.033 -0.1902  1.5401 -0.7106
22679SOL    HW269459   0.593   5.911  -0.003  1.3195 -0.0307 -0.1070
22680SOL     OW69460   6.883   4.869   2.635  0.0316  0.0458 -0.3431
22680SOL    HW169461   6.950   4.932   2.659 -0.4537 -0.0909  1.5441
22680SOL    HW269462   6.887   4.802   2.704 -2.5675  0.4621  0.3142
22681SOL     OW69463   2.186   3.023   0.261 -0.0517  0.0402  0.2655
22681SOL    HW169464   2.125   3.095   0.275  0.0777 -0.0245  1.1779
22681SOL    HW269465   2.175   2.966   0.337  0.4200 -0.4938 -0.0562
22682SOL     OW69466   8.597   2.612   7.791 -0.4970 -0.2467 -0.4195
22682SOL    HW169467   8.518   2.606   7.737 -0.5696  1.3367 -0.5264
22682SOL    HW269468   8.619   2.705   7.791  0.2996 -0.4036  1.1440
22683SOL     OW69469   7.153   5.045   0.133  0.4450 -0.9444  0.1161
22683SOL    HW169470   7.205   4.983   0.081  1.5541 -1.0477  1.2646
22683SOL    HW269471   7.160   5.128   0.086  0.7599 -1.2090 -0.3173
22684SOL     OW69472   6.863   5.983   4.866 -0.1031 -0.0843  0.2240
22684SOL    HW169473   6.794   5.917   4.868 -0.8445  0.6817  0.8799
22684SOL    HW269474   6.916   5.965   4.944 -0.1809 -0.0250  0.2898
22685SOL     OW69475   5.013   5.138   3.263  0.5353 -0.6447  0.0315
22685SOL    HW169476   5.025   5.191   3.184  1.3053 -1.0804 -0.1473
22685SOL    HW269477   5.077   5.172   3.325  0.7759 -1.1190  0.0441
22686SOL     OW69478   5.941   8.173   6.997 -0.2143  0.0293  0.2560
22686SOL    HW169479   6.027   8.131   6.998 -0.0498  0.3310 -0.4428
22686SOL    HW269480   5.926   8.193   6.905 -1.4497 -0.8593  0.2437
22687SOL     OW69481   8.329   3.105   1.881 -0.0269 -0.2119  0.4858
22687SOL    HW169482   8.408   3.086   1.932 -0.1120  0.3463  0.8349
22687SOL    HW269483   8.360   3.166   1.813  0.5190 -2.5021 -1.4312
22688SOL     OW69484   1.315   6.167   1.787 -0.1909 -0.2613 -0.5212
22688SOL    HW169485   1.357   6.220   1.719 -0.5527  0.0323 -0.5187
22688SOL    HW269486   1.287   6.087   1.741  0.2476 -0.3991 -0.5503
22689SOL     OW69487   5.673   0.474   6.275  0.4374 -0.3172 -0.1873
22689SOL    HW169488   5.761   0.471   6.313  1.1931  0.5345 -1.7637
22689SOL    HW269489   5.615   0.491   6.349  1.9038  1.9037  0.5550
22690SOL     OW69490   7.097   8.240   3.487  0.1032 -0.4154 -0.0847
22690SOL    HW169491   7.030   8.173   3.474  1.5433 -2.0220  0.3746
22690SOL    HW269492   7.148   8.238   3.406  1.2551 -1.2171  0.6333
22691SOL     OW69493   8.876   7.347   6.648  0.7918 -0.1469 -0.6089
22691SOL    HW169494   8.831   7.352   6.563 -1.9975 -0.4808  0.7329
22691SOL    HW269495   8.845   7.266   6.687 -1.4386  1.9299  2.4137
22692SOL     OW69496   7.463   4.479   8.312  0.0021  0.8566  0.2204
22692SOL    HW169497   7.381   4.498   8.356  0.4236  2.0400  0.5454
22692SOL    HW269498   7.452   4.514   8.224 -0.3982 -0.4009 -0.2407
22693SOL     OW69499   4.230   7.963   6.606 -0.0793  0.1494  0.0939
22693SOL    HW169500   4.317   7.931   6.580 -0.6227 -0.9788 -0.4060
22693SOL    HW269501   4.236   7.973   6.701  0.5047 -0.2284  0.1046
22694SOL     OW69502   8.341   7.788   6.614  0.0404 -0.1506  0.2143
22694SOL    HW169503   8.376   7.736   6.686 -0.0477 -0.1103  0.2866
22694SOL    HW269504   8.331   7.726   6.542  0.2655 -0.1612  0.1913
22695SOL     OW69505   4.335   4.589   7.737 -0.2595  0.1631  0.0861
22695SOL    HW169506   4.289   4.518   7.692  0.6330  1.2354 -2.7974
22695SOL    HW269507   4.421   4.553   7.758  0.1435  0.2767 -1.2541
22696SOL     OW69508   3.987   7.522   5.759  0.3123 -0.6268  0.2038
22696SOL    HW169509   3.949   7.441   5.793 -0.1773 -0.7431 -0.5959
22696SOL    HW269510   4.022   7.498   5.673 -0.8673  0.2529 -0.5574
22697SOL     OW69511   3.365   6.588   1.958 -0.0253 -0.1031  0.4943
22697SOL    HW169512   3.270   6.590   1.960 -0.0729  0.3421 -1.0597
22697SOL    HW269513   3.387   6.578   1.865  1.4532  1.5064  0.6238
22698SOL     OW69514   7.120   9.082   8.850 -0.3240  0.2337 -0.2153
22698SOL    HW169515   7.076   9.131   8.781 -1.8407 -1.8939 -0.8344
22698SOL    HW269516   7.144   8.999   8.810  2.1982  0.3641  0.7951
22699SOL     OW69517   1.339   3.292   4.148  0.1387 -0.1465 -0.9827
22699SOL    HW169518   1.406   3.337   4.199  1.5397 -2.2662 -0.8374
22699SOL    HW269519   1.274   3.264   4.212  2.1461 -3.2467 -0.1529
22700SOL     OW69520   2.592   4.240   5.766  0.1710  0.3761 -0.1801
22700SOL    HW169521   2.612   4.189   5.688  0.2134  0.5491 -0.2817
22700SOL    HW269522   2.565   4.326   5.733  1.1414  0.7813  0.0177
22701SOL     OW69523   4.669   3.008   6.076  0.4860  0.2319 -0.1194
22701SOL    HW169524   4.583   3.021   6.117  0.2668 -1.3384 -0.0075
22701SOL    HW269525   4.720   3.085   6.101 -0.9109  1.2356 -0.2542
22702SOL     OW69526   4.176   1.595   4.753 -0.2708 -0.3117  0.0343
22702SOL    HW169527   4.097   1.644   4.732  0.8224  1.2091 -0.6646
22702SOL    HW269528   4.167   1.573   4.846 -1.0571  0.6893  0.2053
22703SOL     OW69529   6.839   2.981   4.059 -0.0284  0.3213  0.9017
22703SOL    HW169530   6.755   2.992   4.015  0.7816  1.0542 -0.5144
22703SOL    HW269531   6.859   2.888   4.050 -0.2178  0.3303  0.3541
22704SOL     OW69532   6.037   1.155   0.212  0.4434  0.4538 -0.0662
22704SOL    HW169533   5.975   1.170   0.283 -0.4683  0.9922 -0.9460
22704SOL    HW269534   6.007   1.074   0.171  2.1287 -0.9468  1.3237
22705SOL     OW69535   5.250   4.448   4.740 -0.2957  0.4586 -0.0291
22705SOL    HW169536   5.249   4.400   4.657 -1.9348  1.0348 -0.3838
22705SOL    HW269537   5.240   4.381   4.807  0.8654  0.0045 -0.2737
22706SOL     OW69538   9.198   4.179   3.307 -0.0288 -0.2831  0.1550
22706SOL    HW169539   9.168   4.269   3.313  1.2720  0.4960 -3.0511
22706SOL    HW269540   9.282   4.178   3.351  0.1480  0.2054 -0.1655
22707SOL     OW69541   1.036   3.746   4.598 -0.2540 -0.2280 -0.0900
22707SOL    HW169542   0.987   3.665   4.605 -0.8275  0.1153 -0.0687
22707SOL    HW269543   1.029   3.785   4.685  0.0650 -0.1804 -0.0847
22708SOL     OW69544   4.054   4.063   1.419  0.2530 -0.2106 -0.4480
22708SOL    HW169545   4.043   4.144   1.469 -2.2447 -0.8338  0.1275
22708SOL    HW269546   3.994   4.001   1.460  3.0910 -2.8831  0.0400
22709SOL     OW69547   4.472   4.295   6.872  0.3100  0.1163  0.3308
22709SOL    HW169548   4.503   4.206   6.860  1.4994  0.5023  0.4174
22709SOL    HW269549   4.471   4.309   6.966 -0.2682  0.0684  0.3362
22710SOL     OW69550   8.281   7.718   4.831 -0.3835 -0.6346  0.6029
22710SOL    HW169551   8.288   7.807   4.796  1.1875 -1.8532 -2.6250
22710SOL    HW269552   8.334   7.719   4.910 -0.0493  1.1893  0.3997
22711SOL     OW69553   6.073   8.217   8.078 -0.3303  0.3669 -0.4560
22711SOL    HW169554   6.040   8.203   7.989  0.1962 -1.1895 -0.4492
22711SOL    HW269555   6.041   8.141   8.127 -1.4053  1.6771  0.9442
22712SOL     OW69556   0.281   4.948   7.443  0.3619 -0.2585  0.3594
22712SOL    HW169557   0.243   4.934   7.356  1.8883  0.4093 -0.4526
22712SOL    HW269558   0.263   5.040   7.463 -1.2478 -0.7664  1.4269
22713SOL     OW69559   5.371   4.590   3.245  0.1648  0.0948 -0.4671
22713SOL    HW169560   5.357   4.607   3.339  1.1194 -0.3286 -0.2384
22713SOL    HW269561   5.345   4.498   3.233 -0.0250  0.1694 -0.6379
22714SOL     OW69562   5.062   3.199   6.782  0.4088  0.0759  0.0675
22714SOL    HW169563   5.009   3.154   6.848 -1.1121 -1.1496 -1.8839
22714SOL    HW269564   5.104   3.128   6.733  3.4678  0.9913  1.1345
22715SOL     OW69565   5.559   1.394   7.488 -0.1346 -0.1889 -0.5149
22715SOL    HW169566   5.570   1.456   7.415 -2.5620  0.6206 -0.2756
22715SOL    HW269567   5.480   1.345   7.466  0.1900 -1.3001  0.6653
22716SOL     OW69568   6.273   1.994   1.478  0.2090 -0.3937 -0.2356
22716SOL    HW169569   6.299   1.981   1.387  1.5371 -5.1628  0.5629
22716SOL    HW269570   6.185   1.958   1.484 -0.4468  1.2022  0.1579
22717SOL     OW69571   9.145   6.310   5.341  0.2454  0.6663  0.7113
22717SOL    HW169572   9.067   6.288   5.393  1.3980  0.7101  2.5249
22717SOL    HW269573   9.142   6.249   5.267 -1.2121  0.3095  1.0258
22718SOL     OW69574   1.116   6.970   3.800 -0.3719  0.2481 -0.4437
22718SOL    HW169575   1.191   7.000   3.851 -0.0307 -1.2181 -0.0122
22718SOL    HW269576   1.051   6.946   3.867 -0.2786 -0.7930 -0.7074
22719SOL     OW69577   2.695   3.589   6.555 -0.3317 -0.1176  0.0001
22719SOL    HW169578   2.676   3.669   6.505  1.1920  0.5900  0.4610
22719SOL    HW269579   2.617   3.574   6.608 -0.1418  1.9314  0.9663
22720SOL     OW69580   6.022   3.590   6.936  0.0659  0.2987 -0.3777
22720SOL    HW169581   5.990   3.619   6.850 -0.2600  1.3878  0.0965
22720SOL    HW269582   6.076   3.513   6.917 -1.3145 -0.4667 -1.4050
22721SOL     OW69583   5.318   9.068   5.638 -0.4607 -0.3962 -0.5146
22721SOL    HW169584   5.323   8.994   5.578  1.1881 -1.4165  0.7888
22721SOL    HW269585   5.341   9.144   5.584  1.1175 -1.2950 -1.1694
22722SOL     OW69586   2.373   3.487   0.991 -0.5515  0.0488  0.4089
22722SOL    HW169587   2.461   3.524   0.982 -0.6823  0.1013 -0.9514
22722SOL    HW269588   2.370   3.418   0.924 -1.4743 -0.0700  0.5655
22723SOL     OW69589   7.135   6.800   5.850 -0.2350  0.2514  0.1073
22723SOL    HW169590   7.137   6.709   5.821  1.4406 -0.3640  1.9386
22723SOL    HW269591   7.058   6.805   5.908 -0.3470  0.0111 -0.0178
22724SOL     OW69592   5.592   1.032   1.420  0.1899  0.5771 -0.1736
22724SOL    HW169593   5.511   1.083   1.408  0.1741  0.9016  1.2216
22724SOL    HW269594   5.575   0.978   1.497 -0.1502 -2.3177 -2.0814
22725SOL     OW69595   7.886   8.583   0.513 -0.8758  0.1901  0.8100
22725SOL    HW169596   7.941   8.643   0.462  2.0031 -1.1153  2.1596
22725SOL    HW269597   7.881   8.504   0.461 -1.3731  0.2429  0.7702
22726SOL     OW69598   2.703   6.933   5.828  0.2900 -0.1384 -0.1827
22726SOL    HW169599   2.673   6.979   5.907  0.3849 -0.3815 -0.0034
22726SOL    HW269600   2.626   6.884   5.799  0.3797 -0.4015  0.0165
22727SOL     OW69601   2.150   9.238   4.866  0.0204 -0.0640  0.6120
22727SOL    HW169602   2.069   9.187   4.865  0.5134 -0.9318 -1.4704
22727SOL    HW269603   2.219   9.172   4.857  0.7191  0.8625 -1.4605
22728SOL     OW69604   8.485   2.687   8.070 -0.6897  0.4188  0.3019
22728SOL    HW169605   8.509   2.715   7.982  1.0973  0.2212  0.6857
22728SOL    HW269606   8.486   2.767   8.122 -1.5664  0.5077  0.1994
22729SOL     OW69607   7.571   1.840   7.843 -0.0451  0.2477  0.5407
22729SOL    HW169608   7.599   1.861   7.932  2.3874  0.9036 -0.2895
22729SOL    HW269609   7.635   1.776   7.812 -0.3497  0.6308 -0.9906
22730SOL     OW69610   0.586   6.134   3.507 -0.0977 -0.5118  0.1462
22730SOL    HW169611   0.635   6.053   3.522 -0.1837 -0.6117 -0.1082
22730SOL    HW269612   0.615   6.165   3.421 -0.8108 -0.8151 -0.2142
22731SOL     OW69613   1.848   8.242   4.155  0.0530 -0.1221 -0.2723
22731SOL    HW169614   1.805   8.253   4.240  0.3369  0.4999 -0.2022
22731SOL    HW269615   1.828   8.323   4.109 -1.0887 -0.9292 -1.2515
22732SOL     OW69616   8.273   7.042   2.931 -0.3591  0.4620 -0.1537
22732SOL    HW169617   8.254   6.977   2.998 -0.8227 -0.8115 -1.4814
22732SOL    HW269618   8.209   7.112   2.946 -0.3426  0.2870  0.8134
22733SOL     OW69619   8.665   8.667   4.243 -0.4524  0.4720  0.6100
22733SOL    HW169620   8.603   8.689   4.312 -2.9981 -0.9898 -1.0710
22733SOL    HW269621   8.648   8.730   4.174 -0.7431 -0.4977 -0.2239
22734SOL     OW69622   8.780   6.255   4.635 -0.2981 -0.0428  0.2294
22734SOL    HW169623   8.790   6.164   4.608  1.2571  0.4499 -1.0178
22734SOL    HW269624   8.816   6.258   4.724 -0.3483 -0.6312  0.2704
22735SOL     OW69625   2.537   3.120   2.715 -0.3137  0.1650 -0.2344
22735SOL    HW169626   2.589   3.043   2.692  1.2287  0.8481  0.7510
22735SOL    HW269627   2.499   3.149   2.632  1.0745 -0.2657 -1.0504
22736SOL     OW69628   7.834   1.093   3.697  0.0234  0.1106  0.6323
22736SOL    HW169629   7.817   1.061   3.608  0.7733  0.0049  0.5179
22736SOL    HW269630   7.925   1.068   3.714 -0.6004 -1.3572  2.0551
22737SOL     OW69631   7.837   2.945   1.415 -0.2249 -0.0533  0.1895
22737SOL    HW169632   7.795   2.887   1.478  0.2439 -0.5761  0.0219
22737SOL    HW269633   7.815   3.033   1.446 -0.5647 -0.3102  0.6949
22738SOL     OW69634   1.067   2.981   3.942 -0.8187  0.3244  0.1460
22738SOL    HW169635   1.055   3.071   3.910 -2.7748 -0.2237 -0.8628
22738SOL    HW269636   1.121   2.939   3.876  0.1601  0.7630  0.6553
22739SOL     OW69637   3.579   6.732   2.104  0.3056 -0.5631  0.6492
22739SOL    HW169638   3.537   6.817   2.118  0.6573 -0.1322 -0.7400
22739SOL    HW269639   3.519   6.685   2.046 -0.0149 -1.3933  1.6167
22740SOL     OW69640   2.032   6.448   0.868  0.0884  0.5292 -0.6830
22740SOL    HW169641   2.111   6.498   0.847  0.4223  0.7984  1.0255
22740SOL    HW269642   2.063   6.358   0.879  0.4201  0.8350  1.1810
22741SOL     OW69643   0.989   1.089   6.016  0.7294 -0.0107  0.5213
22741SOL    HW169644   1.076   1.091   5.977  0.3377 -0.2241 -0.4126
22741SOL    HW269645   0.965   0.996   6.017  0.0153  0.1453 -0.4306
22742SOL     OW69646   8.871   7.307   8.666  0.5930 -0.2817 -0.1009
22742SOL    HW169647   8.837   7.375   8.608 -1.1137 -0.8114  0.2279
22742SOL    HW269648   8.932   7.353   8.723 -0.6511  1.0326  0.2232
22743SOL     OW69649   4.390   8.300   0.025 -0.2050  0.2276  0.2666
22743SOL    HW169650   4.476   8.260   0.009  0.3461  1.8544 -1.1170
22743SOL    HW269651   4.399   8.340   0.112  1.4733  2.7324 -0.9340
22744SOL     OW69652   3.196   0.633   6.080 -0.2026 -0.4360 -0.0158
22744SOL    HW169653   3.112   0.615   6.122  0.2941 -0.1412  1.1466
22744SOL    HW269654   3.257   0.572   6.122  0.1769 -0.6071 -0.8104
22745SOL     OW69655   7.938   1.568   1.494 -0.3959 -0.2932  0.2019
22745SOL    HW169656   7.914   1.490   1.444 -1.1769 -0.3549  0.6536
22745SOL    HW269657   7.861   1.624   1.490  0.8076  1.3479 -1.7528
22746SOL     OW69658   8.071   3.278   5.365  0.2519 -0.4030  0.1433
22746SOL    HW169659   8.100   3.360   5.324 -0.4116 -0.8302 -1.2509
22746SOL    HW269660   8.062   3.299   5.457 -2.2993  1.8212 -0.4869
22747SOL     OW69661   1.170   3.873   8.141  0.1374  0.0128 -0.3166
22747SOL    HW169662   1.077   3.873   8.165 -0.2069  2.0206 -1.3714
22747SOL    HW269663   1.188   3.784   8.113 -1.8299 -0.1295 -1.2982
22748SOL     OW69664   7.016   8.041   7.915 -0.1237 -0.1825 -0.3987
22748SOL    HW169665   6.952   7.981   7.953  0.2934 -1.1067 -1.1069
22748SOL    HW269666   7.076   8.061   7.986 -1.1315  0.6264  0.2540
22749SOL     OW69667   3.513   7.125   4.991 -0.5804 -0.3329  0.4528
22749SOL    HW169668   3.452   7.091   4.925 -0.3657  0.0256  0.0666
22749SOL    HW269669   3.490   7.078   5.071 -1.5112 -0.0450  0.3676
22750SOL     OW69670   8.920   1.716   2.788  0.2324 -0.5878  0.3359
22750SOL    HW169671   8.940   1.786   2.850 -1.1683  1.3277 -1.2403
22750SOL    HW269672   8.997   1.711   2.732 -0.4002  1.1202 -0.7493
22751SOL     OW69673   1.371   1.274   4.332  0.3842 -0.1573 -0.4808
22751SOL    HW169674   1.460   1.250   4.358 -0.2288 -0.2195  1.7445
22751SOL    HW269675   1.378   1.368   4.311  0.5987  0.4625  1.9807
22752SOL     OW69676   7.879   2.018   8.266 -0.0095 -0.4577 -0.0832
22752SOL    HW169677   7.931   2.071   8.205  1.0397  0.2785  1.4000
22752SOL    HW269678   7.943   1.985   8.329 -1.2571 -0.0310  1.4339
22753SOL     OW69679   9.143   4.967   2.064 -0.0194 -0.2240  0.3428
22753SOL    HW169680   9.225   4.920   2.049  1.4621  2.4887 -0.7081
22753SOL    HW269681   9.103   4.921   2.138  2.1195 -2.0574  0.4694
22754SOL     OW69682   4.438   3.925   2.929  0.9956 -0.2282  0.2808
22754SOL    HW169683   4.464   3.966   3.011  1.9976 -0.8412  0.2920
22754SOL    HW269684   4.354   3.965   2.907 -0.5026 -1.7784  2.8320
22755SOL     OW69685   1.451   4.340   0.121 -0.1704  1.0134  0.2209
22755SOL    HW169686   1.500   4.346   0.039 -0.4035 -0.6757 -0.0866
22755SOL    HW269687   1.370   4.388   0.105 -0.1265  0.8643 -0.4911
22756SOL     OW69688   5.184   4.408   0.368  0.5168 -0.2940 -0.3013
22756SOL    HW169689   5.176   4.355   0.289  0.4979  0.3615 -0.7465
22756SOL    HW269690   5.094   4.420   0.398  0.3378  1.1910 -1.3571
22757SOL     OW69691   1.298   3.405   5.310 -0.2406 -0.1363 -0.2341
22757SOL    HW169692   1.239   3.337   5.342 -2.4057  0.7236 -2.0536
22757SOL    HW269693   1.321   3.377   5.221  1.3164  0.0688  0.0753
22758SOL     OW69694   2.714   5.157   2.795  0.2555  0.3977  0.2201
22758SOL    HW169695   2.764   5.173   2.715  1.5808 -2.0690  0.4520
22758SOL    HW269696   2.775   5.113   2.854 -0.8664  1.5769  2.4004
22759SOL     OW69697   4.080   8.812   4.872  0.2080  0.0796  0.5238
22759SOL    HW169698   4.149   8.874   4.848 -0.3964  0.6736  0.2850
22759SOL    HW269699   4.004   8.867   4.892  0.1182 -0.5029  1.8986
22760SOL     OW69700   8.249   9.156   2.474 -0.3511  0.1412  0.0198
22760SOL    HW169701   8.309   9.187   2.406  0.5482 -2.2523 -0.3774
22760SOL    HW269702   8.229   9.234   2.526  1.2174  1.4746 -1.2696
22761SOL     OW69703   1.178   0.019   0.891  0.1479  0.1170  0.4285
22761SOL    HW169704   1.270  -0.001   0.871 -0.0075 -2.4517  1.9268
22761SOL    HW269705   1.130  -0.058   0.862 -1.8295  1.9787 -1.6607
22762SOL     OW69706   8.372   8.939   2.313  0.0214 -0.0493 -0.6216
22762SOL    HW169707   8.387   8.845   2.299  1.3348  0.1494 -0.6671
22762SOL    HW269708   8.291   8.943   2.363  0.8780 -1.3040  0.9483
22763SOL     OW69709   2.728   9.151   3.416 -0.1446  0.2459  0.2192
22763SOL    HW169710   2.758   9.241   3.427  2.4979 -0.0870 -2.6708
22763SOL    HW269711   2.744   9.110   3.500  0.1565  2.0622  1.1026
22764SOL     OW69712   4.964   4.326   8.741 -0.1859 -0.3698 -0.3497
22764SOL    HW169713   5.053   4.325   8.707 -0.4552  0.1761 -1.0879
22764SOL    HW269714   4.910   4.295   8.669 -0.7158  0.3537 -0.2759
22765SOL     OW69715   1.944   7.279   0.077 -0.1043  0.3904  0.2638
22765SOL    HW169716   1.926   7.187   0.098  1.0360 -0.0152 -0.4049
22765SOL    HW269717   1.996   7.310   0.152  1.2742 -0.1359 -0.4408
22766SOL     OW69718   2.495   3.413   7.866  0.2798 -0.3987  0.7520
22766SOL    HW169719   2.550   3.342   7.900  0.2400 -0.2945  1.0328
22766SOL    HW269720   2.553   3.489   7.863 -0.2213  0.0949  2.4598
22767SOL     OW69721   5.920   7.644   2.726 -0.0518 -0.6339  0.5425
22767SOL    HW169722   5.967   7.705   2.784 -3.9880  2.7082  0.7032
22767SOL    HW269723   5.949   7.668   2.638 -0.7911  0.8972  0.6720
22768SOL     OW69724   5.379   8.684   6.085 -0.0239  0.7986 -0.4413
22768SOL    HW169725   5.308   8.707   6.144  0.6993  0.5425  0.5596
22768SOL    HW269726   5.456   8.677   6.142  0.2391 -1.8324 -1.0058
22769SOL     OW69727   7.571   5.114   8.709 -0.4304  0.6042  0.2069
22769SOL    HW169728   7.501   5.175   8.690 -0.6571  0.4110  0.4075
22769SOL    HW269729   7.547   5.034   8.662 -0.0623  0.7167 -0.1720
22770SOL     OW69730   4.455   0.007   9.062  0.0484 -0.2495 -0.4497
22770SOL    HW169731   4.521  -0.054   9.028  0.1374 -0.5308  0.2202
22770SOL    HW269732   4.500   0.092   9.063  0.6706 -0.5774  0.7507
22771SOL     OW69733   2.967   4.855   3.246  0.3667  0.2634 -0.7763
22771SOL    HW169734   2.912   4.779   3.267  0.4054 -0.0651 -1.8417
22771SOL    HW269735   2.981   4.850   3.152  1.0947  1.1168 -0.7269
22772SOL     OW69736   0.814   6.890   6.845  0.2001  0.2063  0.0984
22772SOL    HW169737   0.877   6.917   6.911 -0.7768  0.5342  0.9256
22772SOL    HW269738   0.866   6.877   6.765  1.3584  0.0264  0.8616
22773SOL     OW69739   4.655   3.097   1.445 -0.5766  0.0175 -0.1256
22773SOL    HW169740   4.624   3.112   1.535  0.9500  1.5924  0.2045
22773SOL    HW269741   4.579   3.118   1.390 -0.9772  0.9584  0.7423
22774SOL     OW69742   4.907   4.396   0.454  0.5777 -0.3237  0.4246
22774SOL    HW169743   4.891   4.302   0.453  2.2342 -0.6701  1.8759
22774SOL    HW269744   4.853   4.430   0.383  0.8746 -2.5180 -0.9571
22775SOL     OW69745   7.049   3.240   6.579  0.1076  0.2093 -0.1322
22775SOL    HW169746   6.979   3.304   6.566 -0.1630  1.0122  3.9079
22775SOL    HW269747   7.129   3.291   6.581  0.4540 -0.2559 -1.4533
22776SOL     OW69748   7.031   0.803   7.360  0.3900  0.3909 -0.5584
22776SOL    HW169749   6.999   0.893   7.369 -2.3748 -0.3891 -1.6206
22776SOL    HW269750   6.979   0.753   7.421 -0.3110 -0.9370 -2.1737
22777SOL     OW69751   7.389   9.237   1.587  0.4953  0.5178  0.1791
22777SOL    HW169752   7.316   9.192   1.544 -0.3470  0.6877  1.3665
22777SOL    HW269753   7.348   9.312   1.631  1.7463  1.9764 -1.0530
22778SOL     OW69754   9.037   2.475   3.970 -0.0768 -0.1319  0.4000
22778SOL    HW169755   8.988   2.418   3.910 -1.6443  0.4784  1.0295
22778SOL    HW269756   8.987   2.472   4.051 -0.1659  2.0361  0.4847
22779SOL     OW69757   3.884   1.817   2.694  0.2877 -0.2974 -0.4026
22779SOL    HW169758   3.935   1.814   2.775 -0.4730  0.1455  0.1152
22779SOL    HW269759   3.930   1.759   2.634  1.2080 -0.1562  0.1486
22780SOL     OW69760   2.564   0.328   0.057 -0.3535 -0.5449  0.0243
22780SOL    HW169761   2.565   0.322  -0.039  0.3736  0.7575 -0.0690
22780SOL    HW269762   2.477   0.360   0.079 -1.3713 -3.0342  0.0016
22781SOL     OW69763   0.275   1.977   5.960 -0.0625  0.3042 -0.0243
22781SOL    HW169764   0.299   2.050   6.016  2.5041 -0.8749  0.5783
22781SOL    HW269765   0.258   1.905   6.020 -0.7166 -0.1057 -0.6753
22782SOL     OW69766   4.390   6.661   3.275 -0.6440 -0.2316 -0.1217
22782SOL    HW169767   4.303   6.691   3.249 -0.3881 -0.3070 -1.0824
22782SOL    HW269768   4.417   6.721   3.344 -0.5371  1.1818 -1.3496
22783SOL     OW69769   7.831   6.849   1.844 -0.3187  0.4922 -0.1442
22783SOL    HW169770   7.804   6.772   1.895 -0.2157 -0.0136 -0.8338
22783SOL    HW269771   7.750   6.881   1.805 -0.1034 -0.4285 -1.4064
22784SOL     OW69772   0.184   2.735   6.508 -0.0646 -0.0211 -0.2507
22784SOL    HW169773   0.134   2.709   6.430 -0.3940  0.6887 -0.2868
22784SOL    HW269774   0.235   2.658   6.531 -0.2941 -0.3794 -0.9173
22785SOL     OW69775   5.986   5.331   0.890  0.2325  0.1202 -0.3467
22785SOL    HW169776   6.030   5.249   0.867  1.8994 -0.1179  3.0220
22785SOL    HW269777   5.943   5.312   0.973 -0.1465  2.4035  0.0374
22786SOL     OW69778   2.754   3.133   3.709  0.0336  0.2886  0.0102
22786SOL    HW169779   2.788   3.222   3.709 -0.0409  0.3321  1.1831
22786SOL    HW269780   2.659   3.143   3.716 -0.0047  0.1273 -0.2705
22787SOL     OW69781   8.463   3.918   3.333  0.2135  0.1504 -0.3303
22787SOL    HW169782   8.433   3.845   3.278 -1.8838  0.5898  0.1576
22787SOL    HW269783   8.453   3.886   3.423  1.7414  0.1576 -0.1184
22788SOL     OW69784   8.198   3.390   0.080 -0.7948  0.0256  0.0108
22788SOL    HW169785   8.137   3.443   0.132 -1.4884 -1.4003  0.7071
22788SOL    HW269786   8.284   3.409   0.118 -1.0313  0.5813  0.2874
22789SOL     OW69787   8.953   4.880   5.370  0.1629 -0.5372  0.1649
22789SOL    HW169788   9.033   4.883   5.422 -0.0870  0.8758  0.5237
22789SOL    HW269789   8.978   4.917   5.286 -0.3010  0.8289  0.5984
22790SOL     OW69790   0.208   7.959   9.026  0.7066 -0.1648  0.2967
22790SOL    HW169791   0.156   8.037   9.047 -0.4217 -0.7777 -0.1054
22790SOL    HW269792   0.239   7.976   8.937  0.5247 -0.1327  0.2374
22791SOL     OW69793   1.798   0.257   2.880  0.0383  0.2415 -0.1893
22791SOL    HW169794   1.804   0.288   2.970  0.2722 -1.3823  0.3801
22791SOL    HW269795   1.885   0.272   2.844  0.6868 -1.3448  0.6409
22792SOL     OW69796   8.193   1.319   2.571  0.9447  0.0020  0.0367
22792SOL    HW169797   8.251   1.329   2.495  1.3995 -0.3709  0.3295
22792SOL    HW269798   8.251   1.299   2.644  0.5704  1.0040  0.6314
22793SOL     OW69799   7.512   6.801   3.269  0.4854 -0.2224  0.7498
22793SOL    HW169800   7.446   6.849   3.318  0.1324 -1.0571  1.1087
22793SOL    HW269801   7.500   6.709   3.295  1.1618 -0.5075  0.1069
22794SOL     OW69802   5.265   1.170   1.386 -0.3480 -0.1088 -0.2385
22794SOL    HW169803   5.307   1.173   1.300 -0.1268  0.6621 -0.1159
22794SOL    HW269804   5.274   1.260   1.419  0.4292 -0.6288  1.0065
22795SOL     OW69805   0.312   1.220   1.690 -0.0635 -0.2220 -0.0700
22795SOL    HW169806   0.217   1.208   1.687 -0.2371  0.9280  0.0949
22795SOL    HW269807   0.347   1.146   1.640 -1.0243 -0.8340  0.1282
22796SOL     OW69808   5.723   4.165   8.982 -0.0644  0.7280 -0.4436
22796SOL    HW169809   5.665   4.090   8.966 -1.4495  1.5353  0.5855
22796SOL    HW269810   5.668   4.242   8.969  0.1907  1.5134  2.4046
22797SOL     OW69811   7.713   3.124   0.184 -0.0845 -0.0128 -0.2294
22797SOL    HW169812   7.729   3.047   0.130 -1.6924  0.0261 -0.7922
22797SOL    HW269813   7.622   3.147   0.168 -1.0428 -0.6827  3.3255
22798SOL     OW69814   2.921   7.290   5.717  0.5651 -0.1246  0.1229
22798SOL    HW169815   2.950   7.269   5.806 -0.3270 -1.7057  0.0859
22798SOL    HW269816   2.904   7.204   5.677  0.8459  0.5751 -1.5350
22799SOL     OW69817   1.795   7.572   4.502  0.1079 -0.5713 -0.0474
22799SOL    HW169818   1.795   7.526   4.418  0.9170 -1.0603  0.2026
22799SOL    HW269819   1.823   7.505   4.565  1.6701  0.3450  0.2705
22800SOL     OW69820   7.710   3.159   6.419  0.3750 -0.3151 -0.4647
22800SOL    HW169821   7.633   3.185   6.469  1.3375  0.7834  0.5166
22800SOL    HW269822   7.746   3.241   6.385  1.6540 -0.6808 -0.0822
22801SOL     OW69823   8.107   3.667   2.229  0.3970  0.3699  0.0461
22801SOL    HW169824   8.145   3.706   2.150  0.3747  0.5585  0.1270
22801SOL    HW269825   8.151   3.583   2.239 -0.3622 -0.1510 -0.7799
22802SOL     OW69826   7.411   3.645   7.147 -0.4815  0.8930 -0.3882
22802SOL    HW169827   7.435   3.732   7.179  2.2192  0.0657  0.0836
22802SOL    HW269828   7.476   3.626   7.079  0.7288 -1.7837  1.3670
22803SOL     OW69829   6.572   5.186   6.269 -0.0085 -0.2358 -0.3218
22803SOL    HW169830   6.535   5.244   6.336 -0.3302 -0.6100 -0.1728
22803SOL    HW269831   6.499   5.130   6.242 -0.0584  0.3583 -1.4861
22804SOL     OW69832   6.526   0.190   8.746  0.1047  0.1629 -0.2620
22804SOL    HW169833   6.619   0.174   8.727 -0.0419 -0.2635 -0.6255
22804SOL    HW269834   6.492   0.229   8.665 -0.1167 -0.0204 -0.2576
22805SOL     OW69835   1.901   9.152   7.460 -0.1467 -0.0728 -0.5956
22805SOL    HW169836   1.961   9.080   7.476 -0.3371 -0.2824 -0.8164
22805SOL    HW269837   1.892   9.196   7.545  0.8048  0.3402 -0.6941
22806SOL     OW69838   0.525   8.660   3.399  0.1717 -0.2079  0.2007
22806SOL    HW169839   0.553   8.569   3.408  0.9263 -0.0698 -0.5877
22806SOL    HW269840   0.607   8.710   3.397 -0.2327  0.4912  0.6285
22807SOL     OW69841   3.571   9.214   3.376  0.2272 -0.1724  0.2684
22807SOL    HW169842   3.498   9.202   3.316  1.7053 -0.7286 -1.4737
22807SOL    HW269843   3.553   9.298   3.419 -0.5921  0.5229 -1.3737
22808SOL     OW69844   2.649   0.042   4.869  0.6272 -0.0833 -0.1338
22808SOL    HW169845   2.654   0.027   4.963 -1.7930 -2.2007 -0.2333
22808SOL    HW269846   2.615  -0.041   4.833  0.4543  1.0109 -2.7398
22809SOL     OW69847   4.524   0.373   8.164 -0.2023 -0.2130  0.1254
22809SOL    HW169848   4.553   0.444   8.222  0.4375 -0.4580  0.1118
22809SOL    HW269849   4.541   0.293   8.214 -1.5311 -0.3483  0.4074
22810SOL     OW69850   4.653   7.181   5.986 -0.5189 -0.1212  0.4813
22810SOL    HW169851   4.699   7.101   6.011 -0.5986 -0.8990 -1.7080
22810SOL    HW269852   4.720   7.249   5.988  0.4855 -0.9846 -1.3322
22811SOL     OW69853   6.192   0.140   2.915 -0.2058 -0.5748 -0.2090
22811SOL    HW169854   6.186   0.060   2.968  1.0367 -0.9640 -0.6322
22811SOL    HW269855   6.148   0.117   2.833 -2.0817  0.0103  0.5664
22812SOL     OW69856   5.078   5.695   1.041  0.1953  0.3993 -0.6906
22812SOL    HW169857   5.121   5.764   0.991  1.6647  0.2075  0.2467
22812SOL    HW269858   5.081   5.726   1.132 -0.8171 -0.0616 -0.4900
22813SOL     OW69859   7.795   5.091   5.997 -0.8462 -0.3653  0.0141
22813SOL    HW169860   7.727   5.026   6.013 -0.4494 -0.0359  3.8519
22813SOL    HW269861   7.867   5.041   5.959 -2.1348 -1.2418 -1.4011
22814SOL     OW69862   0.115   6.227   6.499  0.3178 -0.0477 -0.0245
22814SOL    HW169863   0.061   6.296   6.461  0.2292 -0.2985 -0.3622
22814SOL    HW269864   0.076   6.145   6.467 -0.0407 -0.2823  0.9812
22815SOL     OW69865   9.244   4.524   8.223 -0.2347 -0.6936  0.3265
22815SOL    HW169866   9.337   4.539   8.238 -1.0190  2.6741  3.0036
22815SOL    HW269867   9.214   4.482   8.304 -1.4182  0.5455  0.5634
22816SOL     OW69868   6.013   1.483   3.156 -0.2949  0.0143 -0.0216
22816SOL    HW169869   5.957   1.481   3.234  0.8920 -0.7131  0.8459
22816SOL    HW269870   5.961   1.530   3.090 -1.5092  0.2346  1.0551
22817SOL     OW69871   7.581   9.211   0.634  0.3713  0.2542 -0.2287
22817SOL    HW169872   7.518   9.155   0.678 -0.2033  1.8248  1.0581
22817SOL    HW269873   7.639   9.150   0.587 -0.6831 -1.3375  0.4500
22818SOL     OW69874   4.681   7.458   1.816  0.0839 -0.2574 -0.1989
22818SOL    HW169875   4.607   7.397   1.823 -1.4280  1.6801  1.8975
22818SOL    HW269876   4.649   7.528   1.760  0.5303  0.3250  0.2610
22819SOL     OW69877   5.105   2.687   6.688 -1.0001 -0.2207  0.2236
22819SOL    HW169878   5.186   2.646   6.656  0.0322  1.3637  0.6489
22819SOL    HW269879   5.040   2.670   6.620  0.2468  0.1891 -1.1268
22820SOL     OW69880   9.238   2.305   4.659 -0.2333  0.4382  0.1463
22820SOL    HW169881   9.170   2.370   4.639 -1.2833 -0.3215  1.1264
22820SOL    HW269882   9.240   2.301   4.754  1.4416  0.6762  0.1414
22821SOL     OW69883   5.824   2.905   4.457 -0.0507 -0.0966 -0.0257
22821SOL    HW169884   5.866   2.938   4.536 -0.6949 -2.3542  1.3556
22821SOL    HW269885   5.860   2.816   4.446 -0.4761 -0.0886 -1.8955
22822SOL     OW69886   3.875   6.642   0.440  0.3810  0.1490 -0.5018
22822SOL    HW169887   3.905   6.554   0.414  1.2203  0.6604 -1.3183
22822SOL    HW269888   3.841   6.630   0.528 -0.5129 -1.2114 -0.9888
22823SOL     OW69889   9.231   7.467   3.597 -0.5793  0.1913 -0.4469
22823SOL    HW169890   9.160   7.404   3.582  0.8157 -1.0776 -2.1963
22823SOL    HW269891   9.258   7.495   3.509  2.7917 -1.4575 -0.1244
22824SOL     OW69892   4.320   5.286   1.574  0.0217  0.2034 -0.2217
22824SOL    HW169893   4.335   5.192   1.580  1.2984  0.4446  1.0647
22824SOL    HW269894   4.313   5.304   1.481 -0.1055 -1.1535 -0.4830
22825SOL     OW69895   7.993   8.765   7.371  0.4028  0.7292 -0.5369
22825SOL    HW169896   7.974   8.785   7.280 -1.5143 -1.7823 -0.7948
22825SOL    HW269897   7.938   8.824   7.422 -0.7212  0.1971 -1.1072
22826SOL     OW69898   5.765   0.930   2.050  0.1658 -0.1378  0.0421
22826SOL    HW169899   5.670   0.935   2.059  0.0849  1.8522 -1.4471
22826SOL    HW269900   5.799   0.981   2.124  0.0004  0.9856 -0.6453
22827SOL     OW69901   5.613   2.412   7.693  0.2231 -0.0138  0.2674
22827SOL    HW169902   5.538   2.371   7.737 -0.5365  1.4154  0.3625
22827SOL    HW269903   5.576   2.490   7.651  1.8451  1.2812  1.1535
22828SOL     OW69904   7.352   8.690   5.935 -0.4658  0.0055 -0.3514
22828SOL    HW169905   7.286   8.754   5.909  0.0108  0.7280  0.1798
22828SOL    HW269906   7.332   8.612   5.883 -1.4971  0.3413 -0.4664
22829SOL     OW69907   2.429   2.405   0.898  0.9997 -0.1134  0.4503
22829SOL    HW169908   2.361   2.472   0.885 -0.1283 -0.8467  2.2284
22829SOL    HW269909   2.507   2.455   0.921  0.7545  0.6739 -0.3233
22830SOL     OW69910   7.003   1.308   3.178  0.2123 -0.1570 -0.0081
22830SOL    HW169911   7.061   1.319   3.103  0.0203 -1.0830 -0.3165
22830SOL    HW269912   6.988   1.213   3.183 -1.2605  0.0429  0.0484
22831SOL     OW69913   2.645   5.856   1.115 -0.3035 -0.3218 -0.4750
22831SOL    HW169914   2.686   5.926   1.066  3.4626 -1.7884  0.2506
22831SOL    HW269915   2.687   5.859   1.201 -1.6952 -2.0707  0.3354
22832SOL     OW69916   0.345   7.647   4.333  0.3332  0.1737  0.0850
22832SOL    HW169917   0.402   7.647   4.410 -0.3424  1.3218  0.6180
22832SOL    HW269918   0.394   7.697   4.268 -0.8303  2.9614  1.2082
22833SOL     OW69919   5.886   0.115   1.182 -0.8064  0.0758  0.0451
22833SOL    HW169920   5.921   0.096   1.269  0.1788 -1.4480 -0.6507
22833SOL    HW269921   5.908   0.208   1.167  0.2532 -0.0232  0.8722
22834SOL     OW69922   5.363   7.148   5.409  0.5892  0.0383 -0.0262
22834SOL    HW169923   5.354   7.203   5.331 -0.7715 -0.6868 -0.4082
22834SOL    HW269924   5.316   7.196   5.477  0.0697 -0.2633 -0.1652
22835SOL     OW69925   8.029   8.735   3.206  0.3262 -0.1570  1.1326
22835SOL    HW169926   8.049   8.828   3.203  0.0006 -0.0797 -1.7684
22835SOL    HW269927   7.939   8.730   3.236 -0.0523  0.5682  0.1385
22836SOL     OW69928   3.467   7.141   7.262  0.1536  0.3802  0.0491
22836SOL    HW169929   3.443   7.051   7.282  1.8303 -0.1542 -0.2128
22836SOL    HW269930   3.527   7.134   7.187  0.2856  1.7055  0.0129
22837SOL     OW69931   3.689   6.056   8.057 -0.0284  0.0198 -0.4568
22837SOL    HW169932   3.703   6.146   8.086  2.0452 -0.3469 -0.2186
22837SOL    HW269933   3.597   6.055   8.030 -0.3231  1.9933  0.2522
22838SOL     OW69934   8.283   3.962   0.069  0.5299  0.4495  0.4884
22838SOL    HW169935   8.278   3.898   0.140 -0.4589 -1.0385 -0.8629
22838SOL    HW269936   8.236   3.921  -0.004  1.0935  2.1269 -0.8824
22839SOL     OW69937   0.280   2.033   1.376 -0.2271  0.1697 -0.4773
22839SOL    HW169938   0.248   2.090   1.446  0.8250  0.6755 -0.3944
22839SOL    HW269939   0.374   2.024   1.392 -0.5868 -3.0561  0.5497
22840SOL     OW69940   7.960   8.635   6.291  0.0594  0.5524  0.8893
22840SOL    HW169941   7.958   8.656   6.198  4.1715 -1.2453  0.1539
22840SOL    HW269942   7.909   8.554   6.299  1.2755 -0.3800 -0.2938
22841SOL     OW69943   7.070   4.602   8.865  0.0807 -0.7276  0.4278
22841SOL    HW169944   7.009   4.637   8.800  0.2736 -0.5135  0.3576
22841SOL    HW269945   7.127   4.543   8.815  0.6343 -0.0784  0.2673
22842SOL     OW69946   3.551   4.253   0.302  0.5577 -0.2311  0.0875
22842SOL    HW169947   3.527   4.183   0.242  2.2838 -0.4684 -0.3984
22842SOL    HW269948   3.560   4.331   0.246  2.6199 -0.5491 -0.1217
22843SOL     OW69949   6.491   2.221   0.313  0.0614  0.1393  0.3160
22843SOL    HW169950   6.406   2.184   0.288 -0.6942  0.7181  1.9440
22843SOL    HW269951   6.541   2.221   0.231 -1.7348  0.4403 -0.8389
22844SOL     OW69952   1.801   3.376   0.299  0.3046 -0.3692  0.1762
22844SOL    HW169953   1.783   3.446   0.361  0.5740 -0.5676  0.4774
22844SOL    HW269954   1.723   3.320   0.303  0.0542 -0.0517 -0.1228
22845SOL     OW69955   0.506   1.529   4.709  0.3437 -0.2962  0.2506
22845SOL    HW169956   0.476   1.616   4.734  2.1363  0.6589 -0.7325
22845SOL    HW269957   0.426   1.483   4.684 -0.4107  2.1823 -2.4280
22846SOL     OW69958   1.735   7.827   6.166  0.0777  0.8578  0.5471
22846SOL    HW169959   1.797   7.785   6.106  0.2675  0.9377  0.6846
22846SOL    HW269960   1.687   7.755   6.206 -1.9191  0.8419 -1.6251
22847SOL     OW69961   4.778   5.123   8.526 -0.0758  0.2272 -0.2575
22847SOL    HW169962   4.811   5.158   8.609  1.9545 -1.6619 -0.1705
22847SOL    HW269963   4.718   5.053   8.553  1.5730 -1.2685 -0.2812
22848SOL     OW69964   4.554   2.674   3.813 -0.0152  0.8740  0.0545
22848SOL    HW169965   4.530   2.765   3.831  0.4446  0.6731  1.9302
22848SOL    HW269966   4.471   2.630   3.798 -0.2356  1.5918 -0.9640
22849SOL     OW69967   8.978   0.329   2.766 -0.2527  0.2299  0.5574
22849SOL    HW169968   8.976   0.234   2.756 -0.9132  0.2265  0.6607
22849SOL    HW269969   9.070   0.350   2.782 -0.0098 -0.3273 -0.0690
22850SOL     OW69970   6.855   8.986   2.700  0.1362 -0.2141  0.0432
22850SOL    HW169971   6.949   8.995   2.713  0.1025  0.1282  0.0467
22850SOL    HW269972   6.839   9.021   2.613 -0.2512  1.5011  0.7554
22851SOL     OW69973   1.432   6.642   6.233  0.0800 -0.3555  0.3002
22851SOL    HW169974   1.488   6.564   6.238  0.7018  0.0864  0.3250
22851SOL    HW269975   1.489   6.714   6.259 -0.0122  0.3321 -1.2917
22852SOL     OW69976   0.379   4.865   7.083  0.0719  0.1542 -0.1681
22852SOL    HW169977   0.313   4.796   7.084 -0.8141  0.9599 -0.9288
22852SOL    HW269978   0.462   4.819   7.092 -0.6411 -0.7692  2.7121
22853SOL     OW69979   5.709   2.952   2.359  0.0607 -0.4136 -0.0367
22853SOL    HW169980   5.724   2.857   2.364  1.0803 -0.2518  0.2100
22853SOL    HW269981   5.616   2.960   2.337 -0.0758 -1.4688  0.0776
22854SOL     OW69982   5.154   1.594   4.805  0.3692 -0.5746 -0.1675
22854SOL    HW169983   5.093   1.571   4.875  0.7143 -0.6738  0.1044
22854SOL    HW269984   5.204   1.514   4.789  0.3677 -0.5201 -0.4507
22855SOL     OW69985   0.234   6.682   7.056 -0.8023  0.1275 -0.4146
22855SOL    HW169986   0.268   6.715   6.973 -0.1424 -0.2003 -0.2879
22855SOL    HW269987   0.170   6.615   7.032  0.8693 -1.4572 -0.6979
22856SOL     OW69988   4.428   1.160   1.349  0.8670  0.1401 -0.5668
22856SOL    HW169989   4.397   1.075   1.381  1.2973 -0.1242 -0.8499
22856SOL    HW269990   4.363   1.222   1.381  1.3676 -0.0851  1.0130
22857SOL     OW69991   2.542   7.121   3.683 -0.3181 -0.2226  0.2673
22857SOL    HW169992   2.570   7.042   3.637  0.2256 -0.8191  1.5790
22857SOL    HW269993   2.529   7.093   3.774  0.0430  1.2270  0.7955
22858SOL     OW69994   3.417   1.623   1.517 -0.2416 -0.0191  0.9807
22858SOL    HW169995   3.358   1.694   1.491 -0.1326 -0.6616 -1.2452
22858SOL    HW269996   3.368   1.574   1.583 -2.9280 -1.3238 -1.6930
22859SOL     OW69997   0.432   3.523   4.569  0.2924  0.4335 -0.6481
22859SOL    HW169998   0.366   3.500   4.634  0.5700  1.5221  0.0487
22859SOL    HW269999   0.411   3.469   4.493 -0.6668 -0.1002 -0.0229
22860SOL     OW70000   7.616   4.744   8.815  0.2635  0.2339  0.0073
22860SOL    HW170001   7.667   4.669   8.786  0.4553  0.6994 -0.9185
22860SOL    HW270002   7.628   4.809   8.745 -2.2435  0.0602 -0.6727
22861SOL     OW70003   8.803   8.599   3.407 -0.1684 -0.1787  0.1701
22861SOL    HW170004   8.838   8.516   3.376  2.0176  0.8762 -0.3236
22861SOL    HW270005   8.821   8.600   3.501  1.5201  0.4969 -0.1344
22862SOL     OW70006   4.160   3.515   4.002 -0.0866  0.3648 -0.1822
22862SOL    HW170007   4.182   3.423   3.989  1.0582  0.5592  0.2579
22862SOL    HW270008   4.199   3.538   4.086 -1.8276  0.8185  0.5446
22863SOL     OW70009   2.285   3.928   0.319 -0.4488  0.0976 -0.1229
22863SOL    HW170010   2.262   4.019   0.306 -0.2024  0.1258 -0.3726
22863SOL    HW270011   2.310   3.923   0.412 -1.0876  0.1409  0.0547
22864SOL     OW70012   4.135   8.208   2.030 -0.1945  0.8303  0.8692
22864SOL    HW170013   4.166   8.151   2.101  0.0078 -2.0801 -1.3475
22864SOL    HW270014   4.210   8.216   1.972 -1.2599  0.3301 -0.6365
22865SOL     OW70015   7.824   2.299   5.613  0.2609 -0.1234  0.8335
22865SOL    HW170016   7.733   2.281   5.588  0.7663 -1.1525 -0.3897
22865SOL    HW270017   7.867   2.322   5.531  0.7748  2.0154  1.6374
22866SOL     OW70018   2.587   8.844   3.091 -0.6525 -0.2426  0.2162
22866SOL    HW170019   2.575   8.799   3.175 -1.1107  0.1176  0.3461
22866SOL    HW270020   2.607   8.935   3.116  0.4427 -0.3976 -0.0364
22867SOL     OW70021   0.908   1.891   2.409  0.4160 -0.5321  0.0748
22867SOL    HW170022   0.855   1.968   2.387  1.0041 -0.4011 -0.9436
22867SOL    HW270023   0.950   1.867   2.326  1.4389 -1.0209  0.7255
22868SOL     OW70024   8.479   2.370   3.486  0.2714 -0.2671  0.1355
22868SOL    HW170025   8.425   2.376   3.565  1.9434  1.3941  1.2270
22868SOL    HW270026   8.542   2.441   3.495  1.3419 -0.8668 -2.0849
22869SOL     OW70027   5.924   5.976   8.967  0.4796  0.3472  0.2557
22869SOL    HW170028   5.945   6.050   9.024  0.0422 -0.8716  2.0565
22869SOL    HW270029   5.982   5.905   8.996  0.7106 -0.1423 -1.2662
22870SOL     OW70030   9.230   8.806   8.451 -0.1524  0.6937 -0.4020
22870SOL    HW170031   9.149   8.834   8.407 -0.8681  0.1622  0.5301
22870SOL    HW270032   9.220   8.838   8.541  0.5328  0.3411 -0.1961
22871SOL     OW70033   9.136   3.855   4.220 -0.2883 -0.1169 -0.2454
22871SOL    HW170034   9.099   3.932   4.177 -1.4469  0.0494  0.9888
22871SOL    HW270035   9.207   3.890   4.274  0.4514 -0.1892 -1.1386
22872SOL     OW70036   7.786   0.424   2.258 -0.5808  0.1164  0.1394
22872SOL    HW170037   7.743   0.490   2.313  0.3214  0.8976 -0.0592
22872SOL    HW270038   7.811   0.472   2.180  2.4318  0.2396  1.0598
22873SOL     OW70039   0.755   2.170   6.732 -0.3383 -0.0397 -0.3403
22873SOL    HW170040   0.834   2.148   6.683  0.8828  2.7522  0.1728
22873SOL    HW270041   0.773   2.140   6.821  0.1521  0.5959 -0.2239
22874SOL     OW70042   1.043   4.860   6.939  0.2188 -0.1592  0.0748
22874SOL    HW170043   1.122   4.889   6.985  2.2672 -4.1038 -0.5180
22874SOL    HW270044   0.994   4.810   7.004 -1.6631  1.7864  0.2797
22875SOL     OW70045   0.692   1.071   5.386 -0.0527  0.2350  0.5868
22875SOL    HW170046   0.700   0.998   5.448  0.2362 -0.0160  0.2650
22875SOL    HW270047   0.744   1.141   5.425  0.6524 -0.1307  0.3367
22876SOL     OW70048   2.216   2.129   8.965  0.4559  0.3021 -0.4452
22876SOL    HW170049   2.147   2.065   8.983  0.2826  0.9850  1.6138
22876SOL    HW270050   2.169   2.211   8.953  0.8211  0.4785 -0.6619
22877SOL     OW70051   9.120   8.162   3.111  0.0664 -0.4136  0.1350
22877SOL    HW170052   9.032   8.195   3.091  0.2546 -0.2035 -0.3616
22877SOL    HW270053   9.116   8.069   3.087  0.0358 -0.3585 -0.0780
22878SOL     OW70054   6.903   8.813   1.282 -0.4233 -0.3473  0.3620
22878SOL    HW170055   6.897   8.908   1.273  0.8725 -0.1278  1.4511
22878SOL    HW270056   6.995   8.793   1.265 -0.7638 -1.4737 -0.2717
22879SOL     OW70057   3.527   2.834   3.079  0.2243  0.5037 -0.2179
22879SOL    HW170058   3.562   2.790   3.002 -0.7520 -1.3162  0.3282
22879SOL    HW270059   3.454   2.885   3.046 -2.6108 -3.1300 -0.1679
22880SOL     OW70060   4.812   6.801   2.480  0.1423  0.2038 -0.0388
22880SOL    HW170061   4.874   6.736   2.511 -3.1999 -3.1833  0.2997
22880SOL    HW270062   4.797   6.780   2.388 -0.9829  0.4729  0.0591
22881SOL     OW70063   6.086   5.926   0.971  0.2198  0.6150 -0.2176
22881SOL    HW170064   6.007   5.881   0.941  0.0612  0.9099 -0.2507
22881SOL    HW270065   6.155   5.895   0.913  0.0370  0.6976 -0.4832
22882SOL     OW70066   6.044   0.388   8.332 -0.2898  0.2238 -0.4464
22882SOL    HW170067   6.007   0.476   8.339 -0.9262 -0.1780  3.3150
22882SOL    HW270068   5.976   0.337   8.289 -1.1749  0.9719  0.0289
22883SOL     OW70069   3.505   8.167   0.685  0.0319  0.0921 -0.3335
22883SOL    HW170070   3.512   8.197   0.595  1.5253  1.0317  0.0461
22883SOL    HW270071   3.594   8.176   0.720 -0.1178 -1.9669  0.7152
22884SOL     OW70072   2.792   0.232   7.366  0.3501  0.6305  0.3066
22884SOL    HW170073   2.885   0.245   7.347  0.6919 -2.4317 -0.7876
22884SOL    HW270074   2.750   0.239   7.280  0.1001 -1.1488  0.2432
22885SOL     OW70075   1.559   3.868   8.187  0.5765 -0.2137  0.6370
22885SOL    HW170076   1.506   3.875   8.267 -0.8646  3.6510 -0.4527
22885SOL    HW270077   1.545   3.777   8.158 -0.9900 -0.9609  3.3039
22886SOL     OW70078   8.071   3.545   0.302 -0.1304 -0.8076 -0.2876
22886SOL    HW170079   8.056   3.573   0.392 -1.8306 -0.6943 -0.5602
22886SOL    HW270080   7.984   3.521   0.270  0.7223 -2.7170 -1.2993
22887SOL     OW70081   7.642   4.117   2.031  0.3456 -0.2617  0.0560
22887SOL    HW170082   7.711   4.160   2.081  0.0617 -1.0854  1.2028
22887SOL    HW270083   7.680   4.033   2.005 -0.6818 -1.4059  2.0323
22888SOL     OW70084   1.412   9.215   4.500 -0.3654 -0.3988 -0.0361
22888SOL    HW170085   1.493   9.255   4.470 -1.0130 -0.8380 -2.6110
22888SOL    HW270086   1.391   9.149   4.434 -2.3989 -0.8777  0.9781
22889SOL     OW70087   6.291   9.102   4.394  0.2279  0.4561  0.0616
22889SOL    HW170088   6.249   9.035   4.448  0.7830  0.0229 -0.0330
22889SOL    HW270089   6.353   9.144   4.452  0.0438  0.7371  0.0567
22890SOL     OW70090   1.242   1.023   5.551  0.4030  0.0629  0.5529
22890SOL    HW170091   1.160   1.056   5.588  0.7802  0.3814  1.1263
22890SOL    HW270092   1.224   1.009   5.458 -1.1639 -2.5980  1.1426
22891SOL     OW70093   4.869   8.135   2.713 -0.1407  0.2890 -0.5748
22891SOL    HW170094   4.790   8.081   2.719 -1.6046  2.1710 -1.7971
22891SOL    HW270095   4.844   8.219   2.751  2.0826  0.1917  1.2911
22892SOL     OW70096   6.376   1.253   8.278  0.1113  0.5999  0.0899
22892SOL    HW170097   6.363   1.251   8.373  0.3704 -0.1476  0.1106
22892SOL    HW270098   6.418   1.170   8.257  0.7402  1.0767 -0.5876
22893SOL     OW70099   6.868   6.663   3.834  0.1653  0.0983 -0.2343
22893SOL    HW170100   6.878   6.581   3.883  1.0449  1.1702  1.4746
22893SOL    HW270101   6.943   6.716   3.861 -1.2759  2.1105  0.0358
22894SOL     OW70102   7.162   4.019   7.899 -0.3029  0.4772 -0.3437
22894SOL    HW170103   7.084   4.067   7.929 -0.0543 -0.0639  1.2940
22894SOL    HW270104   7.129   3.931   7.879 -0.1340  0.2460  0.3573
22895SOL     OW70105   8.652   6.784   4.943 -0.2300  0.1102 -0.0775
22895SOL    HW170106   8.729   6.750   4.989 -0.9651  1.7744  2.6027
22895SOL    HW270107   8.612   6.707   4.903  1.3113 -1.2125  0.8074
22896SOL     OW70108   6.809   0.987   5.126 -0.5116  0.2915  0.1293
22896SOL    HW170109   6.877   0.927   5.096 -0.8335 -0.3667  0.7039
22896SOL    HW270110   6.784   1.036   5.047 -0.5808 -0.6488 -0.4428
22897SOL     OW70111   6.775   2.302   4.709 -0.0528  0.5838  0.0449
22897SOL    HW170112   6.796   2.258   4.627 -0.9732  0.5351 -0.1731
22897SOL    HW270113   6.746   2.232   4.767  0.1278  0.6833  0.2548
22898SOL     OW70114   4.010   3.834   2.265  0.7097  0.2076  0.7079
22898SOL    HW170115   4.027   3.923   2.297 -0.0396  0.3810  0.6466
22898SOL    HW270116   4.066   3.826   2.187 -1.1736  1.6256 -0.8954
22899SOL     OW70117   5.563   0.208   5.695  0.3433 -0.7295 -0.0564
22899SOL    HW170118   5.479   0.178   5.730  0.5573 -0.8773  0.3482
22899SOL    HW270119   5.541   0.279   5.636  0.0224  0.1801  1.1190
22900SOL     OW70120   6.203   6.958   2.624  0.6506 -0.3020  0.0924
22900SOL    HW170121   6.177   7.015   2.552  2.1498  1.0921  0.5806
22900SOL    HW270122   6.140   6.885   2.622 -1.4243  1.4062 -0.4982
22901SOL     OW70123   3.826   0.626   7.740  0.0396 -0.2624 -0.0901
22901SOL    HW170124   3.776   0.552   7.704  0.1144  0.1961 -1.1953
22901SOL    HW270125   3.884   0.587   7.805 -1.8213 -0.8118  1.3575
22902SOL     OW70126   5.331   5.129   9.196 -0.2790  0.4052 -0.2410
22902SOL    HW170127   5.312   5.152   9.105  0.7211 -1.5259 -0.9878
22902SOL    HW270128   5.398   5.192   9.223  1.2038 -0.4792 -1.6746
22903SOL     OW70129   5.366   3.402   7.290  0.4595 -0.2383  0.2497
22903SOL    HW170130   5.338   3.344   7.219  0.3475 -0.5812  0.5712
22903SOL    HW270131   5.339   3.489   7.261 -0.6668 -0.5215  0.3972
22904SOL     OW70132   7.316   5.398   1.130 -0.3459 -0.4268  0.0850
22904SOL    HW170133   7.264   5.384   1.051 -0.4384  0.4591 -0.0182
22904SOL    HW270134   7.407   5.398   1.099 -0.3817 -0.0847 -0.0206
22905SOL     OW70135   5.450   0.087   1.928 -0.1018  0.6680  0.0383
22905SOL    HW170136   5.402   0.165   1.900 -0.4585 -0.1037 -1.6556
22905SOL    HW270137   5.489   0.053   1.847 -0.7041 -1.4008  0.5663
22906SOL     OW70138   2.785   1.679   4.483  0.1855  0.1166 -0.8472
22906SOL    HW170139   2.859   1.728   4.519 -0.5627  0.5109  0.2189
22906SOL    HW270140   2.801   1.589   4.510 -0.6764  0.4970  1.1111
22907SOL     OW70141   1.717   6.675   1.683  0.3372  0.5625 -0.3252
22907SOL    HW170142   1.751   6.732   1.614 -0.5394 -0.0282 -1.2704
22907SOL    HW270143   1.788   6.614   1.701 -0.1672 -0.7209 -2.3394
22908SOL     OW70144   6.942   6.018   8.252  0.0141  0.5786 -0.4021
22908SOL    HW170145   6.959   5.996   8.161 -1.3101  0.4844 -0.6383
22908SOL    HW270146   6.870   6.081   8.249 -1.6969 -1.2011  0.6502
22909SOL     OW70147   4.808   6.737   6.617 -0.3092  0.6945  0.0895
22909SOL    HW170148   4.848   6.824   6.614  0.6047  0.2890  0.2711
22909SOL    HW270149   4.828   6.699   6.531  0.6230  0.0927  0.5610
22910SOL     OW70150   0.650   3.556   1.536 -0.3148 -0.4708 -0.1918
22910SOL    HW170151   0.677   3.625   1.596  0.6310  0.1115 -1.2586
22910SOL    HW270152   0.648   3.477   1.589  0.4794  0.0358  0.6124
22911SOL     OW70153   0.934   3.201   8.471 -0.1803  0.4882 -0.1896
22911SOL    HW170154   0.966   3.155   8.393  0.6390  1.3525 -0.3776
22911SOL    HW270155   0.846   3.230   8.448  0.4776  1.7425 -1.2497
22912SOL     OW70156   5.437   4.997   7.060  0.5403  0.7933 -1.0030
22912SOL    HW170157   5.512   5.054   7.078  1.0332 -0.0346 -0.3679
22912SOL    HW270158   5.457   4.958   6.974  1.0985  0.1937 -0.6135
22913SOL     OW70159   0.798   5.375   3.468  0.1199  0.0787  0.6751
22913SOL    HW170160   0.807   5.285   3.500 -2.2593  0.1617  1.8415
22913SOL    HW270161   0.777   5.366   3.375  0.6571 -0.5262  0.6081
22914SOL     OW70162   4.995   0.001   7.954 -0.2087  0.4542 -0.6026
22914SOL    HW170163   4.947  -0.074   7.990  0.5225  0.5217  0.5485
22914SOL    HW270164   4.929   0.070   7.947 -0.3476  0.4702  0.7271
22915SOL     OW70165   1.327   1.645   3.785 -0.2060 -0.4910 -0.0016
22915SOL    HW170166   1.368   1.686   3.861 -0.5807 -0.0722 -0.0237
22915SOL    HW270167   1.390   1.659   3.714 -0.2360 -0.1362  0.0386
22916SOL     OW70168   0.334   1.883   5.688  0.1804  0.2029  0.0438
22916SOL    HW170169   0.329   1.902   5.782  0.6229  0.8948 -0.0662
22916SOL    HW270170   0.282   1.951   5.647  1.3944  0.9443 -0.3221
22917SOL     OW70171   0.708   4.604   3.156 -0.6605 -0.5415  0.4495
22917SOL    HW170172   0.743   4.545   3.223  2.9769  0.1540 -0.6639
22917SOL    HW270173   0.713   4.691   3.195  1.8931 -0.0754 -0.7276
22918SOL     OW70174   4.033   8.206   6.896  0.3704  0.5200 -0.7708
22918SOL    HW170175   4.004   8.213   6.805  0.6645  0.7971 -0.8505
22918SOL    HW270176   4.093   8.280   6.906  0.1701  0.6159 -0.2874
22919SOL     OW70177   4.519   4.442   1.291  0.2424  0.4976  0.3133
22919SOL    HW170178   4.576   4.399   1.226  0.5834 -0.0577  0.9701
22919SOL    HW270179   4.480   4.515   1.243 -0.2560 -0.4636 -0.7927
22920SOL     OW70180   8.814   0.211   8.761 -0.5194  0.4029  0.5853
22920SOL    HW170181   8.731   0.250   8.737 -1.1200 -0.1539  1.6678
22920SOL    HW270182   8.792   0.125   8.796  0.6971 -0.5976 -0.9370
22921SOL     OW70183   5.368   4.744   8.904 -0.0983 -0.5432 -0.7033
22921SOL    HW170184   5.306   4.816   8.920  0.0583  0.1381 -2.8614
22921SOL    HW270185   5.425   4.744   8.981 -0.4227  1.3458 -0.4155
22922SOL     OW70186   0.777   6.970   4.410  0.0491  0.5448 -0.1565
22922SOL    HW170187   0.851   6.941   4.357 -0.3906  0.0590 -0.5221
22922SOL    HW270188   0.792   6.929   4.496  0.0722  0.2288 -0.3079
22923SOL     OW70189   1.703   0.335   7.722 -0.0497  0.3703 -0.1862
22923SOL    HW170190   1.704   0.242   7.698  1.2473  0.2326  0.2870
22923SOL    HW270191   1.656   0.337   7.806  1.7307 -0.1938  0.8759
22924SOL     OW70192   1.797   8.625   3.644 -0.0192  1.0889 -0.0892
22924SOL    HW170193   1.704   8.610   3.627  0.8908 -2.3714 -3.3631
22924SOL    HW270194   1.832   8.655   3.560  2.1480  0.3937  0.5174
22925SOL     OW70195   4.364   3.121   5.872 -0.2295  0.0891  0.1580
22925SOL    HW170196   4.376   3.216   5.880 -1.0983  0.1805  0.5225
22925SOL    HW270197   4.436   3.093   5.815  1.6166  0.5728  2.0997
22926SOL     OW70198   6.118   5.807   2.338  0.3196 -0.1001  0.2119
22926SOL    HW170199   6.145   5.876   2.277  0.1698 -0.2937 -0.0742
22926SOL    HW270200   6.073   5.743   2.284 -0.1370 -0.0996  0.5888
22927SOL     OW70201   5.813   0.042   3.408  0.9768  0.1390  0.0372
22927SOL    HW170202   5.819  -0.021   3.480 -0.7986 -0.6514 -0.4589
22927SOL    HW270203   5.805   0.127   3.451  1.2804 -0.1799  0.7391
22928SOL     OW70204   8.971   7.959   5.708 -0.4431  0.1992 -0.5839
22928SOL    HW170205   8.918   8.029   5.745 -0.5115 -1.5421  3.1021
22928SOL    HW270206   8.909   7.904   5.661 -1.2777  0.0930  0.6092
22929SOL     OW70207   7.765   2.582   8.274  0.6801  0.4124 -0.3777
22929SOL    HW170208   7.733   2.493   8.267  0.1966  0.5955 -0.5037
22929SOL    HW270209   7.690   2.634   8.302  1.3389  0.5350  1.3091
22930SOL     OW70210   8.293   1.656   7.236 -0.6049 -0.0002  0.5754
22930SOL    HW170211   8.374   1.683   7.280  1.0115 -0.2885 -2.0289
22930SOL    HW270212   8.272   1.571   7.275 -0.2648  0.5473  2.0061
22931SOL     OW70213   2.790   1.893   8.598 -0.1724 -0.8112 -0.0431
22931SOL    HW170214   2.815   1.820   8.656  0.8325 -1.9357 -1.8135
22931SOL    HW270215   2.849   1.964   8.623 -1.4317 -0.3790  1.9894
22932SOL     OW70216   2.174   9.162   3.452  0.7884  0.2486  0.1787
22932SOL    HW170217   2.219   9.191   3.373 -0.6915 -1.5167 -1.3957
22932SOL    HW270218   2.089   9.130   3.422  0.2089 -0.5756  2.4715
22933SOL     OW70219   5.906   0.070   4.704  0.8260  1.0778 -0.0474
22933SOL    HW170220   5.839   0.004   4.725  0.2980  1.7246  0.3576
22933SOL    HW270221   5.874   0.112   4.625  0.4904  1.7181  0.4172
22934SOL     OW70222   3.709   5.447   6.762  0.3051  0.2425  0.5897
22934SOL    HW170223   3.744   5.519   6.710  1.4402 -1.0336 -0.4792
22934SOL    HW270224   3.769   5.441   6.837  0.4700  0.1272  0.4489
22935SOL     OW70225   2.306   4.340   5.635 -0.0400  0.4035 -0.4560
22935SOL    HW170226   2.228   4.287   5.618 -0.5131  0.4421  1.3454
22935SOL    HW270227   2.368   4.313   5.568 -1.1131 -0.6692 -1.0670
22936SOL     OW70228   3.995   6.638   2.727  0.0631  0.0745 -0.0829
22936SOL    HW170229   3.920   6.622   2.784  1.5780  1.2526  2.4152
22936SOL    HW270230   3.990   6.731   2.707  0.5131  0.0319 -0.3974
22937SOL     OW70231   4.476   3.646   2.287  0.3667  0.0823 -0.3945
22937SOL    HW170232   4.540   3.584   2.252  0.1084 -0.1008 -0.5534
22937SOL    HW270233   4.392   3.613   2.255  0.1948  0.3203 -0.1899
22938SOL     OW70234   7.080   8.504   1.451  0.1588  0.3440  0.4828
22938SOL    HW170235   7.094   8.496   1.357  2.1088  0.2539  0.7386
22938SOL    HW270236   6.997   8.550   1.459  1.0592  2.4572 -1.3107
22939SOL     OW70237   7.129   6.323   3.881  0.6285 -0.0272 -0.2528
22939SOL    HW170238   7.136   6.371   3.799  1.1265  0.3355 -0.0019
22939SOL    HW270239   7.074   6.248   3.860  1.4037 -0.3738 -1.1078
22940SOL     OW70240   8.682   7.163   3.276 -0.3702 -0.1645 -0.0806
22940SOL    HW170241   8.598   7.130   3.309 -0.2583  1.0321  1.5876
22940SOL    HW270242   8.659   7.239   3.223 -0.3441  1.7609  2.4397
22941SOL     OW70243   2.582   0.303   4.811 -0.3606  0.1296 -0.1926
22941SOL    HW170244   2.594   0.211   4.834 -0.6707  0.4640  1.4408
22941SOL    HW270245   2.577   0.303   4.715  2.9138 -1.1551 -0.5121
22942SOL     OW70246   0.519   0.652   1.044  0.1164 -0.2153 -0.4284
22942SOL    HW170247   0.425   0.667   1.055 -0.0794 -0.6157 -1.4991
22942SOL    HW270248   0.541   0.695   0.962  1.4979  2.4205  1.1654
22943SOL     OW70249   6.524   2.319   2.714 -0.0815  0.3558 -0.2196
22943SOL    HW170250   6.492   2.301   2.625 -1.2055  2.0977 -0.2145
22943SOL    HW270251   6.611   2.280   2.716 -1.3320 -2.8804 -0.8984
22944SOL     OW70252   7.391   6.620   3.640  0.2637  0.4464 -0.7743
22944SOL    HW170253   7.349   6.608   3.725 -0.6660 -1.7898 -1.4881
22944SOL    HW270254   7.480   6.587   3.652 -0.0182 -0.3391 -0.7663
22945SOL     OW70255   2.364   3.067   8.223  0.7846 -0.4474 -0.5104
22945SOL    HW170256   2.372   3.162   8.213 -0.5719  0.0301  2.0305
22945SOL    HW270257   2.446   3.041   8.266  0.0771  0.0945  1.2827
22946SOL     OW70258   3.705   4.907   8.113  0.3398 -0.1243 -0.2833
22946SOL    HW170259   3.628   4.884   8.164 -0.9012  1.3516 -1.3972
22946SOL    HW270260   3.758   4.960   8.172  0.1072 -0.4378  0.2171
22947SOL     OW70261   4.106   7.622   1.652 -0.2716  0.1409 -0.7031
22947SOL    HW170262   4.027   7.567   1.654  0.0153 -0.2545  0.4628
22947SOL    HW270263   4.082   7.695   1.595 -1.5759  0.1619 -0.1735
22948SOL     OW70264   9.115   2.291   7.543 -0.4282  0.1049  0.6693
22948SOL    HW170265   9.129   2.243   7.625  2.4313 -0.1170  0.1683
22948SOL    HW270266   9.112   2.383   7.570  2.3552  0.1926  0.9569
22949SOL     OW70267   8.915   2.458   8.001  0.0565 -0.3644 -0.3888
22949SOL    HW170268   8.824   2.445   8.028 -0.0441 -0.6546 -0.8626
22949SOL    HW270269   8.956   2.372   8.013  0.8417  0.2542  1.9316
22950SOL     OW70270   6.423   0.587   5.031  0.1684  0.8005  0.0149
22950SOL    HW170271   6.420   0.502   4.988 -2.6525  1.6017 -1.6774
22950SOL    HW270272   6.414   0.568   5.124 -1.3352 -0.7866 -0.3985
22951SOL     OW70273   1.074   4.958   6.509 -0.3499  0.0917  0.3725
22951SOL    HW170274   1.029   5.031   6.551 -0.1191 -0.3309  1.3691
22951SOL    HW270275   1.060   4.972   6.415 -1.3383  0.7467  0.6053
22952SOL     OW70276   5.004   0.986   0.547  0.1395 -0.1653  0.4628
22952SOL    HW170277   5.072   0.976   0.614  0.1500 -0.4095  0.4158
22952SOL    HW270278   5.052   0.990   0.464  0.0768 -0.6566  0.4027
22953SOL     OW70279   4.030   7.983   9.241  0.4011 -0.4840  0.7121
22953SOL    HW170280   3.997   7.940   9.320 -2.2520  0.2201  0.0781
22953SOL    HW270281   4.092   7.921   9.204  0.6778 -1.4215  2.5959
22954SOL     OW70282   1.022   5.993   0.839 -0.5898 -0.0346 -0.4533
22954SOL    HW170283   0.957   5.948   0.894  0.1089 -2.4684 -1.4637
22954SOL    HW270284   0.970   6.050   0.783 -1.6557 -0.3645  0.1612
22955SOL     OW70285   1.050   1.585   8.540  0.2058  0.1213  0.0487
22955SOL    HW170286   1.128   1.602   8.594  0.0496  3.5871 -0.5370
22955SOL    HW270287   0.983   1.644   8.576 -0.9951 -0.1090 -1.7027
22956SOL     OW70288   0.579   2.289   5.044 -0.0054 -0.4595 -0.5869
22956SOL    HW170289   0.606   2.311   5.133  0.8755 -1.3328 -0.6179
22956SOL    HW270290   0.485   2.303   5.043 -0.1592 -1.2379  0.7277
22957SOL     OW70291   2.619   3.522   4.830  0.1052 -0.3972 -0.3257
22957SOL    HW170292   2.591   3.466   4.902  0.2328  1.2252  1.0637
22957SOL    HW270293   2.711   3.539   4.847 -0.5836  2.6003  1.0791
22958SOL     OW70294   7.613   5.312   5.901  0.0646 -0.3454 -0.1222
22958SOL    HW170295   7.676   5.251   5.939  0.3342 -1.6224 -2.4460
22958SOL    HW270296   7.530   5.263   5.900 -0.6255  0.7254  1.3932
22959SOL     OW70297   6.048   5.584   2.783 -0.2466 -0.0935  0.8832
22959SOL    HW170298   5.984   5.546   2.724 -0.7817 -0.3027  1.5855
22959SOL    HW270299   6.103   5.639   2.727 -2.5886  2.1437  0.5959
22960SOL     OW70300   5.877   0.908   6.888  0.4108  0.2592  0.2809
22960SOL    HW170301   5.963   0.872   6.864  0.2603 -0.7425  1.1536
22960SOL    HW270302   5.886   1.002   6.874  1.4804  0.1144 -0.1399
22961SOL     OW70303   2.914   3.589   3.057 -0.1650  0.2113 -0.1150
22961SOL    HW170304   2.845   3.640   3.015 -1.3172  1.4888  2.9980
22961SOL    HW270305   2.873   3.555   3.137  1.8917 -1.8466  0.1737
22962SOL     OW70306   3.260   7.001   5.863  0.0802 -0.0343 -0.1058
22962SOL    HW170307   3.340   6.973   5.819 -0.4215  0.0483 -1.1109
22962SOL    HW270308   3.254   7.095   5.845 -0.1824 -0.0151  0.0668
22963SOL     OW70309   0.795   8.908   2.637  0.1741 -0.0849 -0.4362
22963SOL    HW170310   0.753   8.987   2.669 -0.7172 -0.8886  0.4497
22963SOL    HW270311   0.805   8.922   2.543 -1.4698  0.4244 -0.5616
22964SOL     OW70312   4.547   6.312   6.619 -0.3061  0.2978 -0.1354
22964SOL    HW170313   4.480   6.292   6.684 -1.5745  1.9139 -0.8948
22964SOL    HW270314   4.573   6.226   6.585 -1.0812 -0.4363  1.0227
22965SOL     OW70315   0.082   0.449   1.252  0.4622 -0.3456 -0.3546
22965SOL    HW170316   0.160   0.394   1.249 -0.2504 -1.4960  1.0688
22965SOL    HW270317   0.088   0.493   1.337 -1.7219 -2.5003  1.0385
22966SOL     OW70318   7.600   3.864   8.200 -0.1990 -0.3116  0.2940
22966SOL    HW170319   7.658   3.903   8.135 -2.2846  1.1994 -0.7479
22966SOL    HW270320   7.651   3.791   8.236  2.4631  1.1448 -0.2654
22967SOL     OW70321   7.358   7.311   6.556 -0.2775  0.3197  0.5429
22967SOL    HW170322   7.381   7.220   6.538 -1.2437 -0.3114  2.2771
22967SOL    HW270323   7.300   7.337   6.484  1.2542  0.1121 -0.8080
22968SOL     OW70324   4.218   3.048   4.897  0.3468 -0.1290 -0.2648
22968SOL    HW170325   4.212   3.064   4.991  0.2756  2.0909 -0.5834
22968SOL    HW270326   4.194   2.956   4.886 -2.2590  0.2252  1.6127
22969SOL     OW70327   4.545   4.664   1.538 -0.2907 -0.2671  0.0172
22969SOL    HW170328   4.486   4.631   1.605  1.1986 -2.5959  0.2773
22969SOL    HW270329   4.536   4.603   1.465 -0.5923  1.2408 -1.2765
22970SOL     OW70330   3.626   4.027   7.715  0.3012  0.2911  0.0170
22970SOL    HW170331   3.619   4.026   7.620 -0.3286  0.1133  0.0625
22970SOL    HW270332   3.715   3.998   7.733 -0.0036 -1.0112 -0.4762
22971SOL     OW70333   6.593   2.396   0.494 -0.6105 -0.1771  0.2065
22971SOL    HW170334   6.557   2.348   0.419 -1.2648 -0.9488  0.9883
22971SOL    HW270335   6.555   2.352   0.570 -1.3812  1.6920  0.9646
22972SOL     OW70336   7.657   5.683   3.879  0.7370  0.3362  0.4516
22972SOL    HW170337   7.737   5.734   3.869  0.2676  0.8234 -0.9985
22972SOL    HW270338   7.637   5.688   3.973  2.4157  0.1515  0.8477
22973SOL     OW70339   4.815   3.649   0.699 -0.2613  0.2422 -0.2958
22973SOL    HW170340   4.802   3.625   0.791 -0.5125 -0.5987 -0.5420
22973SOL    HW270341   4.747   3.600   0.652  0.8927 -0.6367 -1.1053
22974SOL     OW70342   6.991   3.000   4.423  0.0732  0.3247 -0.4059
22974SOL    HW170343   6.973   3.079   4.474 -1.4253  0.4501 -1.0960
22974SOL    HW270344   6.986   3.028   4.332  0.1310 -0.4396 -0.6514
22975SOL     OW70345   2.810   7.457   5.285  0.1925  0.2513  0.0436
22975SOL    HW170346   2.878   7.407   5.331  0.0488 -0.5742 -0.6031
22975SOL    HW270347   2.840   7.457   5.194 -0.4155  0.3352 -0.1560
22976SOL     OW70348   7.285   6.239   0.400  0.0629 -0.1601  0.6013
22976SOL    HW170349   7.214   6.292   0.364 -1.3268 -2.3641 -0.0933
22976SOL    HW270350   7.242   6.183   0.466  0.9477 -2.0217 -0.3213
22977SOL     OW70351   5.090   3.291   5.755 -0.4524  0.4053 -0.5178
22977SOL    HW170352   5.145   3.345   5.812 -1.0779 -0.4010  0.8925
22977SOL    HW270353   5.143   3.276   5.677  0.3449  1.7037 -0.2478
22978SOL     OW70354   6.113   7.014   6.347 -0.7762  0.2242  0.2146
22978SOL    HW170355   6.115   6.968   6.262 -1.5479  0.5011  0.0392
22978SOL    HW270356   6.035   6.980   6.390 -1.1932  1.1517  0.2075
22979SOL     OW70357   7.935   2.766   1.768 -0.0456 -0.3736  0.3719
22979SOL    HW170358   7.840   2.778   1.775 -0.2100 -1.4601  0.1496
22979SOL    HW270359   7.971   2.854   1.779 -1.1245  0.1907 -0.4886
22980SOL     OW70360   2.786   0.489   4.952 -0.4802  0.0903 -0.9095
22980SOL    HW170361   2.785   0.398   4.923 -0.2546  1.0780 -4.5058
22980SOL    HW270362   2.709   0.528   4.911  0.4395  1.9060 -1.0381
22981SOL     OW70363   6.455   3.816   0.643  0.2147  0.0740 -0.1859
22981SOL    HW170364   6.447   3.907   0.671  0.0449 -0.5168  1.8461
22981SOL    HW270365   6.366   3.792   0.616 -0.5195 -0.3320  2.2782
22982SOL     OW70366   2.040   3.531   3.437  0.0073  0.6063 -0.2531
22982SOL    HW170367   2.064   3.605   3.493  1.0607 -0.9232  1.4400
22982SOL    HW270368   1.944   3.531   3.436 -0.0861  0.0319  2.5501
22983SOL     OW70369   6.555   4.449   8.129  0.4468  0.2430  0.8206
22983SOL    HW170370   6.550   4.455   8.033  3.4498  1.8102  0.6680
22983SOL    HW270371   6.535   4.537   8.160 -3.5191 -0.8467  2.0035
22984SOL     OW70372   7.937   0.390   8.851  0.0181  0.4773 -0.1623
22984SOL    HW170373   7.960   0.336   8.926 -1.3084  1.1655  0.7912
22984SOL    HW270374   7.935   0.480   8.885  0.0381  0.8751 -1.1731
22985SOL     OW70375   9.075   0.263   8.783 -1.0075  0.1724  0.3964
22985SOL    HW170376   9.117   0.268   8.697 -1.6352 -3.9122 -0.3826
22985SOL    HW270377   8.982   0.250   8.764 -0.9139 -2.8848  1.4216
22986SOL     OW70378   1.248   2.605   1.950  0.2474 -0.2897 -0.3593
22986SOL    HW170379   1.233   2.668   2.020 -0.7604 -0.9886  0.0850
22986SOL    HW270380   1.320   2.550   1.981 -0.6941 -1.0789  0.4960
22987SOL     OW70381   4.419   8.390   4.844 -0.3448 -0.1512 -0.0634
22987SOL    HW170382   4.356   8.326   4.812 -0.8717 -1.0719  2.5558
22987SOL    HW270383   4.483   8.398   4.773 -3.3533  0.9093 -2.8920
22988SOL     OW70384   8.684   0.911   1.250 -0.2524  0.6297  0.5648
22988SOL    HW170385   8.638   0.878   1.327  0.1976  1.1458  1.0656
22988SOL    HW270386   8.750   0.971   1.286  2.3348 -1.7576  0.0601
22989SOL     OW70387   0.784   4.550   4.798 -0.2340  0.1623 -0.4655
22989SOL    HW170388   0.784   4.593   4.712 -1.0197 -0.3530 -0.7330
22989SOL    HW270389   0.738   4.611   4.856  0.7387  0.7361 -0.2872
22990SOL     OW70390   1.901   8.121   2.078  0.1314 -0.3178  0.6909
22990SOL    HW170391   1.860   8.035   2.070  0.2128 -0.2520 -0.7687
22990SOL    HW270392   1.866   8.157   2.159 -0.9242 -1.1892  0.6477
22991SOL     OW70393   4.943   3.850   5.473 -0.1022  0.1464  0.3039
22991SOL    HW170394   4.932   3.796   5.394  2.7431  0.6803 -0.5503
22991SOL    HW270395   4.943   3.940   5.441  3.3749  0.3122  0.4564
22992SOL     OW70396   3.005   7.560   8.885 -0.7676  0.3314  0.1135
22992SOL    HW170397   2.940   7.595   8.824 -1.9543 -1.5825  0.1898
22992SOL    HW270398   2.955   7.533   8.962  0.1522 -0.7331  0.3771
22993SOL     OW70399   2.913   2.182   3.433  0.0551 -0.6772  0.1971
22993SOL    HW170400   2.950   2.094   3.424  0.6657 -0.5714  1.5645
22993SOL    HW270401   2.864   2.195   3.351  0.8584 -1.8438 -0.5011
22994SOL     OW70402   5.367   5.805   2.417  0.4030 -0.5436 -0.3744
22994SOL    HW170403   5.409   5.835   2.337  0.2752  0.4538 -0.0802
22994SOL    HW270404   5.274   5.825   2.405  0.3774 -0.4118  0.0111
22995SOL     OW70405   3.412   1.470   8.867 -0.1276  0.5685 -0.7017
22995SOL    HW170406   3.382   1.423   8.945 -1.8963  1.3416 -0.8743
22995SOL    HW270407   3.459   1.405   8.816  1.1971  0.0790  1.0624
22996SOL     OW70408   6.176   8.818   1.785  0.3293 -0.4227 -0.4898
22996SOL    HW170409   6.158   8.877   1.711  1.2005 -0.7722 -0.9846
22996SOL    HW270410   6.186   8.732   1.745  1.0185 -0.5795  0.0177
22997SOL     OW70411   7.641   2.126   2.428 -0.5721  0.3129 -0.1805
22997SOL    HW170412   7.583   2.113   2.353 -2.1871 -3.6137  1.4808
22997SOL    HW270413   7.585   2.165   2.495 -0.0543  0.6121  0.0875
22998SOL     OW70414   2.515   0.319   5.474 -0.0533  0.3767 -0.6649
22998SOL    HW170415   2.515   0.386   5.543 -1.6586 -0.3659  0.1159
22998SOL    HW270416   2.565   0.246   5.511  1.3489  0.9411 -1.3598
22999SOL     OW70417   4.105   1.350   7.900 -0.3766 -0.2707  0.1057
22999SOL    HW170418   4.114   1.254   7.898  1.6307 -0.1202 -0.0623
22999SOL    HW270419   4.088   1.374   7.809  1.3686 -0.3337 -0.2708
23000SOL     OW70420   8.369   2.906   0.107  0.6318  0.0654 -0.0803
23000SOL    HW170421   8.288   2.944   0.072  0.5973 -0.7174 -0.8590
23000SOL    HW270422   8.366   2.926   0.201 -0.5450 -0.1150 -0.0749
23001SOL     OW70423   5.077   2.361   7.883  0.5326  0.0595  0.2442
23001SOL    HW170424   5.059   2.284   7.936 -0.8821  0.9926  1.1966
23001SOL    HW270425   5.068   2.331   7.793 -3.1815 -0.2800  0.5853
23002SOL     OW70426   0.748   0.727   6.130  0.8722  0.9274 -0.0832
23002SOL    HW170427   0.695   0.787   6.078  2.1871  2.1576 -0.0490
23002SOL    HW270428   0.735   0.642   6.089 -0.5534  1.3202 -0.4953
23003SOL     OW70429   5.662   2.516   5.582  0.7056 -0.1311 -0.2422
23003SOL    HW170430   5.708   2.517   5.498  0.4532  0.3696 -0.3851
23003SOL    HW270431   5.600   2.589   5.575  2.0418  1.2010  1.1293
23004SOL     OW70432   4.938   1.369   0.229 -0.5662  0.2496  0.1592
23004SOL    HW170433   4.929   1.361   0.134 -0.2915  0.2401  0.1323
23004SOL    HW270434   4.993   1.447   0.242  2.8270 -1.9286  0.1295
23005SOL     OW70435   5.626   1.770   4.773 -0.1844  0.2800  0.4632
23005SOL    HW170436   5.600   1.689   4.730 -0.9034  0.9454 -0.3940
23005SOL    HW270437   5.687   1.812   4.713  0.8981 -0.0394  1.3120
23006SOL     OW70438   2.373   1.482   3.476 -0.7227 -0.2670 -0.6174
23006SOL    HW170439   2.331   1.537   3.410 -1.5244 -1.6018 -1.2779
23006SOL    HW270440   2.371   1.394   3.439  1.5136 -0.6145 -0.0880
23007SOL     OW70441   4.820   3.987   3.507  0.0381 -0.7373 -0.2576
23007SOL    HW170442   4.763   3.979   3.430 -0.4540  1.5512 -0.2079
23007SOL    HW270443   4.759   3.991   3.581  0.4873 -2.4363  0.2427
23008SOL     OW70444   0.310   3.772   0.126  0.2708  0.2123  0.9965
23008SOL    HW170445   0.330   3.681   0.102 -0.2265  0.3013  0.1985
23008SOL    HW270446   0.342   3.824   0.052 -1.5108  0.4831  0.3692
23009SOL     OW70447   6.430   8.657   6.921 -0.6483 -0.0953 -0.0718
23009SOL    HW170448   6.477   8.602   6.858  0.8451  1.0912 -0.0648
23009SOL    HW270449   6.414   8.739   6.873 -1.1436  0.1511  0.5018
23010SOL     OW70450   6.014   4.678   1.995 -0.2663 -0.2093  0.0916
23010SOL    HW170451   6.108   4.660   1.994 -0.3572 -0.7171  0.5817
23010SOL    HW270452   5.972   4.593   1.989 -0.6919 -0.1704  1.8864
23011SOL     OW70453   4.693   0.741   3.530  0.4301  0.3619  0.4150
23011SOL    HW170454   4.613   0.742   3.479  0.6547 -0.9944  0.0052
23011SOL    HW270455   4.762   0.765   3.468  0.3249  1.9287  0.8578
23012SOL     OW70456   6.984   3.396   1.157 -0.2933 -0.2577  0.6952
23012SOL    HW170457   6.934   3.317   1.179  0.7310 -1.1272  0.0131
23012SOL    HW270458   7.019   3.426   1.241 -1.3148 -0.0720  1.0687
23013SOL     OW70459   6.845   3.114   4.797  0.1093  0.1214 -0.0328
23013SOL    HW170460   6.774   3.178   4.803 -0.8259 -0.8007 -0.9455
23013SOL    HW270461   6.924   3.167   4.793 -0.4021  1.1542  2.0784
23014SOL     OW70462   0.134   0.091   5.755 -0.2571  0.1996 -0.4799
23014SOL    HW170463   0.043   0.122   5.755 -0.2345  0.2684 -0.6127
23014SOL    HW270464   0.156   0.081   5.663 -0.0747  0.3468 -0.4533
23015SOL     OW70465   4.933   9.009   6.696 -0.6179 -0.2664 -0.7349
23015SOL    HW170466   4.995   9.076   6.665 -1.0886  0.5926  0.1352
23015SOL    HW270467   4.988   8.940   6.732 -0.1578  0.5661  0.1863
23016SOL     OW70468   0.626   0.261   2.692 -0.5371  0.3116 -0.2237
23016SOL    HW170469   0.543   0.282   2.733 -0.0729 -1.0027  1.4795
23016SOL    HW270470   0.662   0.190   2.745  2.1109  1.4711 -0.3226
23017SOL     OW70471   4.273   8.986   4.787  0.0256 -0.3057 -0.2597
23017SOL    HW170472   4.318   8.958   4.707 -0.8987  0.1273 -0.9415
23017SOL    HW270473   4.208   9.049   4.757 -1.8457 -1.7668  0.5586
23018SOL     OW70474   5.507   4.051   6.973 -0.3517  0.7608  0.2015
23018SOL    HW170475   5.512   4.019   7.063  2.5908  3.2633  1.1122
23018SOL    HW270476   5.415   4.041   6.949 -0.5975 -3.5680  1.9849
23019SOL     OW70477   0.108   4.100   4.101 -0.2238 -0.0914 -0.4139
23019SOL    HW170478   0.167   4.153   4.155 -1.4175  1.8614 -0.9210
23019SOL    HW270479   0.052   4.055   4.163  0.0841  0.1028  0.0094
23020SOL     OW70480   5.089   3.059   7.605 -0.4888 -0.3030 -0.4056
23020SOL    HW170481   5.141   2.980   7.589  0.6562 -0.2649  2.4404
23020SOL    HW270482   5.131   3.100   7.681 -2.7007  1.5735 -0.0815
23021SOL     OW70483   1.078   2.227   3.271 -0.1252  1.2022  0.0007
23021SOL    HW170484   1.097   2.262   3.358 -0.1106 -0.3002  0.6155
23021SOL    HW270485   1.133   2.149   3.264 -0.4327  1.0825 -1.2016
23022SOL     OW70486   3.388   1.375   2.262 -0.2900 -0.1470 -0.1288
23022SOL    HW170487   3.297   1.372   2.232  0.0928 -2.4584 -1.3354
23022SOL    HW270488   3.436   1.325   2.196  1.7424  0.3172  0.9127
23023SOL     OW70489   4.444   0.658   2.434  0.2043 -0.3769  0.2817
23023SOL    HW170490   4.407   0.678   2.348 -0.4341 -0.3001  0.5712
23023SOL    HW270491   4.515   0.596   2.415 -0.6280 -1.2044 -0.2049
23024SOL     OW70492   8.117   0.040   5.148  0.9687 -0.8037  0.6067
23024SOL    HW170493   8.118   0.121   5.200  1.3543 -0.8978  0.7495
23024SOL    HW270494   8.208   0.010   5.149  1.0397 -0.6462 -0.3785
23025SOL     OW70495   8.696   1.606   0.821  0.5244  0.2323  0.1673
23025SOL    HW170496   8.718   1.582   0.912  0.5711  0.7837  0.3036
23025SOL    HW270497   8.638   1.681   0.830  0.3614  0.1597 -0.2607
23026SOL     OW70498   7.795   4.403   8.989  0.1208  0.0490 -0.8199
23026SOL    HW170499   7.794   4.431   8.898  0.1848  1.6762 -0.3663
23026SOL    HW270500   7.814   4.483   9.038  0.6456 -0.8968  0.5871
23027SOL     OW70501   3.383   5.018   3.745  0.1869 -0.1285  0.2448
23027SOL    HW170502   3.304   5.006   3.692 -0.0286 -1.7612  0.8842
23027SOL    HW270503   3.350   5.039   3.832  0.5395  2.0279 -0.0818
23028SOL     OW70504   6.291   8.159   0.644  0.5601 -0.1717  0.4872
23028SOL    HW170505   6.246   8.135   0.563  1.4028 -0.2017  0.0100
23028SOL    HW270506   6.334   8.242   0.624  0.2842  0.1235  1.1014
23029SOL     OW70507   4.661   8.295   8.777 -0.2341 -1.0090 -0.6838
23029SOL    HW170508   4.626   8.338   8.699  0.3908  0.3383 -0.2492
23029SOL    HW270509   4.746   8.336   8.791 -0.5599 -0.8263  1.0023
23030SOL     OW70510   1.472   2.205   7.743  0.1353  0.3244 -0.2590
23030SOL    HW170511   1.500   2.276   7.801  0.0096 -0.4196  0.7398
23030SOL    HW270512   1.539   2.203   7.674  0.2663  1.2496 -0.1762
23031SOL     OW70513   2.060   3.885   2.147  0.3940 -0.5381 -0.5352
23031SOL    HW170514   2.106   3.969   2.147  0.1437 -0.3793  0.6129
23031SOL    HW270515   2.096   3.837   2.221 -0.5270 -0.8314 -0.2531
23032SOL     OW70516   1.309   5.108   5.924  0.2389 -0.0379 -0.2117
23032SOL    HW170517   1.366   5.133   5.996 -0.1476 -0.9881  0.4412
23032SOL    HW270518   1.244   5.179   5.920 -1.5026 -1.3414  2.3353
23033SOL     OW70519   0.185   1.195   8.738  0.2773 -0.4171 -0.1314
23033SOL    HW170520   0.145   1.108   8.726  0.5878 -0.5143 -0.4665
23033SOL    HW270521   0.279   1.179   8.740  0.3378 -0.0874 -0.2031
23034SOL     OW70522   3.499   3.489   0.102  0.0947 -0.1041 -0.6132
23034SOL    HW170523   3.574   3.444   0.063  0.8068 -0.6444  1.3055
23034SOL    HW270524   3.456   3.422   0.155 -0.1894  0.8741  0.4232
23035SOL     OW70525   2.265   3.932   3.381  0.0424  0.1668  0.3749
23035SOL    HW170526   2.237   3.890   3.462 -1.5643  1.3898  0.5044
23035SOL    HW270527   2.311   4.011   3.409  2.1113 -0.8636  0.1069
23036SOL     OW70528   8.092   8.160   7.379 -0.1330 -0.3457 -0.1713
23036SOL    HW170529   8.180   8.124   7.387 -0.6048 -1.5907 -0.3884
23036SOL    HW270530   8.100   8.250   7.411  0.8313 -0.9984  1.5969
23037SOL     OW70531   2.300   5.144   1.674  0.2434 -0.0289  0.0421
23037SOL    HW170532   2.341   5.073   1.725 -0.7707 -0.9190 -0.3578
23037SOL    HW270533   2.306   5.115   1.583  1.6117  1.3386 -0.3425
23038SOL     OW70534   2.903   8.769   5.775  0.0322 -0.2259 -0.1719
23038SOL    HW170535   2.923   8.779   5.682 -1.5153  0.3355 -0.4799
23038SOL    HW270536   2.812   8.738   5.776  0.2347 -0.8368  1.1489
23039SOL     OW70537   2.463   2.708   6.241  0.3364 -0.2891  0.0946
23039SOL    HW170538   2.371   2.681   6.238 -0.0090  0.8257 -0.1822
23039SOL    HW270539   2.485   2.709   6.334  0.4549 -1.7431  0.0965
23040SOL     OW70540   0.128   1.972   4.944  0.0331  0.7258  0.2000
23040SOL    HW170541   0.211   1.931   4.968 -1.5415 -2.7376  0.2821
23040SOL    HW270542   0.079   1.978   5.026 -1.0588 -0.5608 -0.3134
23041SOL     OW70543   9.131   3.432   7.436  0.2361 -0.4887 -0.4450
23041SOL    HW170544   9.110   3.361   7.497 -0.3123 -1.1729 -1.3979
23041SOL    HW270545   9.222   3.415   7.410  0.1395 -0.7984 -0.5928
23042SOL     OW70546   1.880   6.196   0.172  0.3807 -0.0549 -0.1635
23042SOL    HW170547   1.859   6.198   0.078 -0.2196 -1.2007 -0.0772
23042SOL    HW270548   1.883   6.288   0.198  0.4810  0.2769 -1.2895
23043SOL     OW70549   1.559   0.900   4.873  0.3271 -0.1559  0.2215
23043SOL    HW170550   1.538   0.920   4.782  1.1575 -0.0735  0.0402
23043SOL    HW270551   1.652   0.923   4.882 -0.0803  1.1411  1.4560
23044SOL     OW70552   8.852   1.673   6.107  0.3709 -0.4607 -0.0590
23044SOL    HW170553   8.771   1.629   6.080  0.1782 -1.0941  1.4636
23044SOL    HW270554   8.909   1.603   6.136  2.0232 -0.1621 -2.2996
23045SOL     OW70555   5.417   7.120   8.909 -0.0717  0.6685  0.6727
23045SOL    HW170556   5.331   7.110   8.952 -1.0125  1.2240 -0.9928
23045SOL    HW270557   5.415   7.057   8.837  1.2044  0.2270  0.9982
23046SOL     OW70558   2.749   4.760   7.312  0.2606  0.0997  0.0801
23046SOL    HW170559   2.766   4.743   7.405  0.7915  1.7981  0.3251
23046SOL    HW270560   2.694   4.839   7.312 -0.5811 -0.4678 -1.0253
23047SOL     OW70561   7.106   6.212   6.085 -0.3721  0.3632  0.0388
23047SOL    HW170562   7.061   6.139   6.127 -0.3295  1.0965  1.4470
23047SOL    HW270563   7.104   6.282   6.151  1.3407  0.9766 -0.4942
23048SOL     OW70564   5.788   1.674   9.139 -0.3526  0.3802 -0.0115
23048SOL    HW170565   5.775   1.586   9.103  0.9962 -0.3709  1.2537
23048SOL    HW270566   5.699   1.710   9.146 -1.1085 -1.5293  1.0184
23049SOL     OW70567   7.438   0.544   3.407 -0.4101  0.0378 -0.2115
23049SOL    HW170568   7.391   0.469   3.443 -1.3027 -0.6477 -2.5791
23049SOL    HW270569   7.413   0.618   3.463 -0.6604 -1.1621  1.3016
23050SOL     OW70570   0.469   6.384   0.108 -0.3888  0.1154  0.1832
23050SOL    HW170571   0.448   6.316   0.172 -1.7415  0.9905  0.7155
23050SOL    HW270572   0.398   6.379   0.043  0.0527  0.3546 -0.3242
23051SOL     OW70573   6.380   8.930   7.492 -1.1566  0.1650 -0.3380
23051SOL    HW170574   6.455   8.927   7.432  0.9092  0.1962  2.0760
23051SOL    HW270575   6.346   8.840   7.492 -0.3042 -0.1735 -0.5210
23052SOL     OW70576   3.529   2.905   5.217  0.1310  0.4310 -0.4829
23052SOL    HW170577   3.508   2.944   5.302 -0.7918  0.7696 -0.8552
23052SOL    HW270578   3.504   2.972   5.153 -1.6124 -0.7841 -1.1426
23053SOL     OW70579   0.229   6.839   4.653 -0.1175 -0.5714 -0.1836
23053SOL    HW170580   0.172   6.837   4.729 -0.8906 -0.0120 -0.7248
23053SOL    HW270581   0.314   6.810   4.685 -0.5592 -0.8349  0.7720
23054SOL     OW70582   3.634   4.701   1.029  0.1616  0.5885 -0.0691
23054SOL    HW170583   3.542   4.692   1.006  0.2449 -1.2260  0.1825
23054SOL    HW270584   3.681   4.657   0.958  0.8309  1.1668  0.0010
23055SOL     OW70585   6.706   6.392   1.048  0.2512  0.0382  0.2135
23055SOL    HW170586   6.754   6.430   0.974  2.8899 -0.9002  1.3229
23055SOL    HW270587   6.647   6.328   1.007 -0.1072  1.2237 -1.2135
23056SOL     OW70588   2.663   0.876   2.580  0.3507 -0.4967  0.2205
23056SOL    HW170589   2.658   0.890   2.486 -1.6109  2.0890  0.6112
23056SOL    HW270590   2.574   0.892   2.612  0.9139 -1.5292  2.4911
23057SOL     OW70591   1.546   8.379   3.457 -0.3470 -0.9266 -0.0154
23057SOL    HW170592   1.495   8.325   3.397 -1.6741  1.9538 -1.7021
23057SOL    HW270593   1.502   8.464   3.456  2.4411  0.6811  1.2968
23058SOL     OW70594   4.474   9.062   8.175  0.1328 -0.3933  0.2604
23058SOL    HW170595   4.501   9.145   8.133 -0.1315 -0.4813 -0.0913
23058SOL    HW270596   4.511   9.067   8.263  0.6497 -0.1730  0.0391
23059SOL     OW70597   0.231   1.957   3.262 -0.2498  0.3071 -0.4152
23059SOL    HW170598   0.267   2.043   3.281  1.0411 -0.0023 -1.3411
23059SOL    HW270599   0.306   1.898   3.265 -0.9931 -0.6713 -0.5522
23060SOL     OW70600   6.052   1.626   1.943 -0.6624 -0.1329  0.1826
23060SOL    HW170601   6.084   1.668   2.024  0.5187 -0.3927 -0.1269
23060SOL    HW270602   6.084   1.536   1.950  1.4750  0.3996 -1.5903
23061SOL     OW70603   8.823   4.091   2.399  0.6583 -0.0390 -0.1453
23061SOL    HW170604   8.826   4.061   2.308  0.6022  1.7258 -0.7596
23061SOL    HW270605   8.729   4.089   2.421  0.6628 -0.3740 -0.1489
23062SOL     OW70606   1.851   0.145   8.441  0.3282  0.2119 -0.3045
23062SOL    HW170607   1.803   0.218   8.479  2.5040  1.9387 -0.7110
23062SOL    HW270608   1.918   0.124   8.505  0.1496 -1.0264 -0.4960
23063SOL     OW70609   8.170   8.347   5.313 -0.2125 -0.3646  0.4652
23063SOL    HW170610   8.210   8.405   5.248  0.4732 -1.4038 -0.0622
23063SOL    HW270611   8.211   8.262   5.299 -0.2916 -0.7080  2.0362
23064SOL     OW70612   4.313   2.422   2.852 -0.2952  0.2691  0.0331
23064SOL    HW170613   4.351   2.507   2.831 -0.1565 -0.0671 -1.1132
23064SOL    HW270614   4.381   2.377   2.903 -0.4310  0.8878  0.7800
23065SOL     OW70615   2.768   2.798   8.774  0.0586 -0.3418 -0.3869
23065SOL    HW170616   2.743   2.751   8.854 -0.4313  0.0729 -0.2892
23065SOL    HW270617   2.728   2.885   8.784  1.2734  0.2425 -0.3738
23066SOL     OW70618   2.187   3.445   1.169 -0.7002 -0.1118 -0.1294
23066SOL    HW170619   2.122   3.429   1.100 -0.5607 -0.6050 -0.1469
23066SOL    HW270620   2.268   3.464   1.121 -0.1351 -2.3054 -0.1280
23067SOL     OW70621   3.958   2.150   9.218 -0.2357 -0.5464 -0.7244
23067SOL    HW170622   4.014   2.173   9.292 -0.1823 -0.2096 -0.8674
23067SOL    HW270623   3.911   2.071   9.247  0.1473 -0.7030 -0.5217
23068SOL     OW70624   4.801   0.185   3.349 -0.1914  0.0609 -0.1959
23068SOL    HW170625   4.785   0.105   3.399 -2.6265  0.1190 -0.7419
23068SOL    HW270626   4.779   0.162   3.259  0.7075  0.9047 -0.6511
23069SOL     OW70627   6.869   5.108   0.486  0.1386  0.3645 -0.0334
23069SOL    HW170628   6.846   5.017   0.469  2.1548  0.2012 -2.3455
23069SOL    HW270629   6.872   5.149   0.400  1.7008  1.9938  0.7289
23070SOL     OW70630   2.920   5.459   2.907  0.1117 -0.3283  0.2589
23070SOL    HW170631   2.978   5.459   2.830  2.3241 -0.1663  1.8226
23070SOL    HW270632   2.899   5.551   2.921 -1.7211 -0.4992 -1.1049
23071SOL     OW70633   4.142   3.585   0.906 -0.2027  0.2600 -0.4894
23071SOL    HW170634   4.074   3.648   0.881 -0.3266 -0.1683 -1.2635
23071SOL    HW270635   4.102   3.500   0.889  0.0473 -0.0300  0.3308
23072SOL     OW70636   6.938   8.678   5.101 -0.3005  0.0589  0.5091
23072SOL    HW170637   6.872   8.653   5.165 -1.0338 -2.8486 -1.2470
23072SOL    HW270638   6.899   8.752   5.054 -1.6444 -0.6197  0.5215
23073SOL     OW70639   5.502   2.418   5.998 -0.4313 -0.1777  0.6815
23073SOL    HW170640   5.504   2.343   6.058  0.2626  0.1392  1.0662
23073SOL    HW270641   5.586   2.462   6.011  0.8850 -1.4741 -2.2936
23074SOL     OW70642   7.108   6.787   8.638 -0.1970  0.0528 -0.3882
23074SOL    HW170643   7.047   6.804   8.709 -0.5905 -2.1857 -0.1274
23074SOL    HW270644   7.056   6.797   8.558 -0.3544  0.2372 -0.2615
23075SOL     OW70645   7.159   8.725   7.897 -0.2583 -0.0332 -0.2073
23075SOL    HW170646   7.177   8.740   7.804 -0.4849 -0.0887 -0.2599
23075SOL    HW270647   7.077   8.677   7.899 -0.5567  0.4727  0.0407
23076SOL     OW70648   6.082   7.924   7.201  0.2068  0.1073 -0.6109
23076SOL    HW170649   6.104   7.837   7.169  0.6859 -0.3171  0.8132
23076SOL    HW270650   5.987   7.931   7.188  0.3931  0.0158 -2.1931
23077SOL     OW70651   7.956   6.143   5.829  0.3952  0.1240  0.0702
23077SOL    HW170652   7.989   6.172   5.744  0.8799 -0.6590 -0.0161
23077SOL    HW270653   7.917   6.222   5.868 -2.0372  0.0251 -1.8725
23078SOL     OW70654   4.502   8.485   2.021  0.1084 -0.2884 -0.1252
23078SOL    HW170655   4.514   8.525   2.107  1.4462  0.4925 -0.6392
23078SOL    HW270656   4.576   8.425   2.011  0.0827 -0.2258 -0.7953
23079SOL     OW70657   4.308   8.376   7.191  0.5177  0.0445  0.5454
23079SOL    HW170658   4.335   8.468   7.184  0.2115  0.0842 -0.1479
23079SOL    HW270659   4.213   8.379   7.187  0.5547 -0.4305 -1.1018
23080SOL     OW70660   2.211   1.435   9.193  0.8248 -0.6513 -0.0623
23080SOL    HW170661   2.149   1.373   9.231  0.0408 -0.2678 -0.6715
23080SOL    HW270662   2.156   1.507   9.162  1.4568 -0.7954 -1.5873
23081SOL     OW70663   5.670   8.476   6.884 -0.3185  0.1882 -0.0771
23081SOL    HW170664   5.677   8.541   6.813 -0.6831  1.3034  0.8735
23081SOL    HW270665   5.577   8.477   6.908 -0.7347 -2.1337 -1.3231
23082SOL     OW70666   5.847   5.971   8.250  0.3987  0.3878 -0.4780
23082SOL    HW170667   5.766   5.974   8.300 -0.4841 -1.4521 -1.7128
23082SOL    HW270668   5.874   5.879   8.253  2.1133  0.8464 -0.6157
23083SOL     OW70669   1.433   1.447   7.421 -0.3533  0.1734  0.1309
23083SOL    HW170670   1.507   1.385   7.421 -0.1829  0.3069 -1.8206
23083SOL    HW270671   1.356   1.391   7.431 -0.1316 -0.2686 -0.5064
23084SOL     OW70672   1.633   5.088   8.781  0.3687  0.6540  0.3791
23084SOL    HW170673   1.710   5.121   8.735 -0.6650 -0.0010 -1.9977
23084SOL    HW270674   1.596   5.165   8.825  1.1981  1.4204 -0.2236
23085SOL     OW70675   7.103   1.656   8.765  0.7190  0.0635 -0.0995
23085SOL    HW170676   7.063   1.726   8.815  1.1566  0.2973 -0.0763
23085SOL    HW270677   7.197   1.675   8.766  0.8775 -0.7030  0.1920
23086SOL     OW70678   8.220   3.462   5.202 -0.4713 -0.0339 -0.2259
23086SOL    HW170679   8.294   3.424   5.155 -0.8637 -0.8491 -0.2198
23086SOL    HW270680   8.259   3.511   5.275  0.0338 -2.1179  0.9904
23087SOL     OW70681   5.625   9.251   5.470  0.1691 -0.0325 -0.0729
23087SOL    HW170682   5.613   9.329   5.524 -0.6345 -1.9506  2.7203
23087SOL    HW270683   5.537   9.219   5.453  0.5021 -1.8861  1.3617
23088SOL     OW70684   2.354   7.094   6.189  0.2814 -0.5885 -0.1809
23088SOL    HW170685   2.418   7.082   6.118 -0.3906 -1.7742 -0.6165
23088SOL    HW270686   2.269   7.092   6.145 -0.1121 -0.4624  0.5622
23089SOL     OW70687   3.726   6.424   3.520 -0.1707 -0.4011 -0.6955
23089SOL    HW170688   3.705   6.422   3.613  0.7457  0.7843 -0.4446
23089SOL    HW270689   3.654   6.376   3.478 -1.9171  1.1344  0.3926
23090SOL     OW70690   1.694   2.735   0.279 -0.5585  0.1293  0.4455
23090SOL    HW170691   1.786   2.758   0.291 -0.6959  2.1947 -1.7935
23090SOL    HW270692   1.649   2.819   0.267 -2.5029 -0.9031  0.1065
23091SOL     OW70693   4.883   3.737   8.542 -0.0597  0.3216  0.0574
23091SOL    HW170694   4.959   3.726   8.484  0.3049 -3.0770  0.9845
23091SOL    HW270695   4.907   3.691   8.622 -2.3777  0.8416  1.1309
23092SOL     OW70696   8.200   7.205   4.171  0.1475 -0.0158  0.7382
23092SOL    HW170697   8.287   7.212   4.209  0.4566 -0.0688  0.0538
23092SOL    HW270698   8.201   7.122   4.124  0.1240  0.5369 -0.2520
23093SOL     OW70699   1.014   2.664   3.249 -0.2253  0.5173  0.0465
23093SOL    HW170700   0.966   2.697   3.173 -2.1387 -1.1732  0.4118
23093SOL    HW270701   0.978   2.576   3.263  1.4659  0.0301  1.7406
23094SOL     OW70702   5.290   1.336   2.022  0.6268 -0.9303 -0.1048
23094SOL    HW170703   5.330   1.409   2.070 -0.2924  0.1337 -0.9131
23094SOL    HW270704   5.298   1.262   2.082  0.8118  0.0227  1.1066
23095SOL     OW70705   8.977   1.217   4.085  0.4254  0.1545  0.0380
23095SOL    HW170706   8.925   1.260   4.017  0.5530 -0.0476 -0.1878
23095SOL    HW270707   8.967   1.123   4.068 -0.8639  0.0313  1.2728
23096SOL     OW70708   2.921   8.242   7.587  0.0692  0.2393  0.1259
23096SOL    HW170709   2.930   8.242   7.492  0.7099  0.8297  0.1822
23096SOL    HW270710   2.829   8.222   7.602  0.3674 -1.9365 -0.5687
23097SOL     OW70711   5.608   3.572   6.908  0.3030  0.0025  0.0230
23097SOL    HW170712   5.638   3.645   6.854 -0.2364  1.1836  1.2644
23097SOL    HW270713   5.534   3.535   6.860 -1.6851  2.4898  0.9210
23098SOL     OW70714   1.815   5.494   5.434  0.3731 -0.3047 -0.1578
23098SOL    HW170715   1.799   5.579   5.475 -1.8286 -1.0753  0.7895
23098SOL    HW270716   1.779   5.502   5.346 -0.7165 -0.4837  0.2474
23099SOL     OW70717   6.719   9.113   3.218 -0.2234  0.4050  0.1246
23099SOL    HW170718   6.672   9.190   3.251  2.6161  2.5138 -0.3714
23099SOL    HW270719   6.720   9.125   3.123 -3.9752 -3.0083 -0.6186
23100SOL     OW70720   1.499   2.446   4.407 -0.6666  0.5894 -0.1860
23100SOL    HW170721   1.557   2.376   4.438  1.4287  1.2740 -2.2665
23100SOL    HW270722   1.443   2.404   4.342 -0.7103  0.4669 -0.0706
23101SOL     OW70723   6.206   0.267   4.641  0.0117 -0.3819  0.4608
23101SOL    HW170724   6.156   0.234   4.567 -1.6221  3.9353 -0.7060
23101SOL    HW270725   6.172   0.218   4.716 -0.6524 -2.6113 -1.1890
23102SOL     OW70726   8.507   1.424   2.058 -0.5993  0.5838  0.2259
23102SOL    HW170727   8.570   1.494   2.072  0.9780 -0.6551 -0.3139
23102SOL    HW270728   8.541   1.350   2.109 -1.1099 -0.3859 -0.7783
23103SOL     OW70729   6.653   7.856   0.696 -0.1899 -0.2304  0.2117
23103SOL    HW170730   6.695   7.773   0.673  1.4165  0.8643 -1.0483
23103SOL    HW270731   6.720   7.922   0.679 -0.7361  1.2073  2.9814
23104SOL     OW70732   5.178   4.559   2.090 -0.0087  0.8932  0.5897
23104SOL    HW170733   5.085   4.543   2.077 -0.1167  0.6986  1.5492
23104SOL    HW270734   5.182   4.643   2.135  0.2525  0.7276  0.8825
23105SOL     OW70735   4.638   7.693   4.982  0.0401 -0.2773  0.2535
23105SOL    HW170736   4.637   7.620   5.045  1.5751 -0.6645 -0.1149
23105SOL    HW270737   4.726   7.729   4.990 -0.0855  0.3290 -0.9292
23106SOL     OW70738   5.069   6.634   2.320  0.3674  0.4844 -0.4466
23106SOL    HW170739   5.137   6.623   2.254  0.8023  3.0071 -0.5285
23106SOL    HW270740   4.987   6.617   2.274  0.8252 -1.8480 -0.5326
23107SOL     OW70741   0.593   7.884   3.323  0.0906  0.6196 -0.8013
23107SOL    HW170742   0.498   7.889   3.318 -0.1843 -2.2290 -0.4921
23107SOL    HW270743   0.619   7.847   3.239  0.4729 -1.8278  0.2877
23108SOL     OW70744   0.014   3.450   0.951  0.2769 -0.0061 -0.5938
23108SOL    HW170745  -0.024   3.369   0.984  0.9329 -0.0861 -0.0195
23108SOL    HW270746  -0.061   3.511   0.945 -0.2225 -0.6539 -1.0835
23109SOL     OW70747   8.763   6.063   9.104  0.4193 -0.0306  0.9931
23109SOL    HW170748   8.796   6.024   9.023  0.2357  0.5259  0.6419
23109SOL    HW270749   8.787   6.156   9.097  0.2608  0.0495  1.5008
23110SOL     OW70750   6.207   8.822   3.859 -0.2944 -0.0813  0.0640
23110SOL    HW170751   6.227   8.732   3.887 -0.4519  0.1069  0.7749
23110SOL    HW270752   6.260   8.833   3.780 -0.5884 -0.9467 -0.2721
23111SOL     OW70753   8.483   2.461   1.061 -0.2214 -0.4148  0.0783
23111SOL    HW170754   8.505   2.499   1.146  1.3051 -0.0010 -0.4708
23111SOL    HW270755   8.511   2.527   0.997 -0.0401 -1.3049 -0.7819
23112SOL     OW70756   6.713   4.360   3.647 -0.2769  0.0590  0.0562
23112SOL    HW170757   6.730   4.268   3.625 -0.6914  0.0347 -0.1806
23112SOL    HW270758   6.799   4.402   3.642 -0.1703 -0.1996 -0.4199
23113SOL     OW70759   0.087   6.601   0.088 -0.0655  0.3703  0.3989
23113SOL    HW170760   0.069   6.645   0.171  0.8277  1.1701  0.1826
23113SOL    HW270761   0.169   6.640   0.057  0.1388 -0.6280 -0.3721
23114SOL     OW70762   0.902   4.204   2.580  0.0532  0.1179  0.2507
23114SOL    HW170763   0.914   4.114   2.549  0.5271  0.3486 -0.2438
23114SOL    HW270764   0.962   4.212   2.655  3.5009  1.3542 -2.3773
23115SOL     OW70765   9.123   1.903   8.178 -0.2506 -0.0625  0.5263
23115SOL    HW170766   9.153   1.826   8.228  1.5356  0.6163  0.5781
23115SOL    HW270767   9.139   1.977   8.237  0.4506  0.5914 -0.4463
23116SOL     OW70768   8.549   3.409   8.396  0.3597 -0.0509 -0.7389
23116SOL    HW170769   8.634   3.370   8.374  1.0104 -0.2546  1.7508
23116SOL    HW270770   8.557   3.431   8.489 -1.7437  1.5142 -0.8551
23117SOL     OW70771   8.374   5.481   8.912 -0.6062 -0.2570 -0.7037
23117SOL    HW170772   8.417   5.531   8.982 -2.6520  2.6180 -1.3248
23117SOL    HW270773   8.282   5.476   8.939 -0.9566 -1.3234 -2.0078
23118SOL     OW70774   2.233   4.146   5.204 -0.3216  0.2097 -0.0334
23118SOL    HW170775   2.218   4.213   5.138  1.9659  0.8100 -0.0212
23118SOL    HW270776   2.159   4.086   5.194 -1.9863  2.2384 -0.6146
23119SOL     OW70777   3.900   2.014   4.435  0.4301  0.5296 -0.4555
23119SOL    HW170778   3.812   2.052   4.435 -0.6952 -1.8472 -1.3933
23119SOL    HW270779   3.885   1.920   4.440  2.9087  0.0048 -1.4390
23120SOL     OW70780   6.078   7.488   7.642 -0.4316  0.1225 -0.0754
23120SOL    HW170781   6.025   7.431   7.586  1.2779  0.3675 -2.0546
23120SOL    HW270782   6.132   7.538   7.581  2.0177 -0.0505  1.8062
23121SOL     OW70783   5.047   6.578   7.242 -0.0810 -0.3067 -0.0649
23121SOL    HW170784   4.972   6.593   7.300  0.3047  0.4188  0.2626
23121SOL    HW270785   5.025   6.625   7.161  0.8365  1.5778  0.7229
23122SOL     OW70786   6.063   6.742   2.211 -0.1377 -0.0714  0.3105
23122SOL    HW170787   6.127   6.811   2.194  1.1590 -1.7156 -2.1191
23122SOL    HW270788   6.010   6.775   2.284  3.0364  1.6410  2.0415
23123SOL     OW70789   7.576   5.888   7.027 -0.9258 -0.1772  0.3280
23123SOL    HW170790   7.648   5.827   7.042 -1.6112 -0.8310  1.1224
23123SOL    HW270791   7.590   5.959   7.090 -0.7519 -0.1003  0.2009
23124SOL     OW70792   4.136   0.192   0.982  0.0993  0.0970  0.3066
23124SOL    HW170793   4.160   0.129   1.050  0.3701  0.9231  1.0103
23124SOL    HW270794   4.219   0.223   0.947 -0.0429 -1.1220 -1.2079
23125SOL     OW70795   5.010   1.475   7.595 -0.1530 -0.1182  0.5196
23125SOL    HW170796   4.935   1.451   7.649 -1.4616  2.2345 -0.1035
23125SOL    HW270797   4.972   1.506   7.513  1.5254  0.4753 -0.0948
23126SOL     OW70798   0.742   7.873   2.474  0.4154  0.1823  0.4699
23126SOL    HW170799   0.746   7.855   2.568 -2.5417  0.6131  0.7524
23126SOL    HW270800   0.657   7.840   2.447  1.9031 -1.6190 -2.5120
23127SOL     OW70801   5.542   8.293   5.377 -0.4299 -0.8886  0.2299
23127SOL    HW170802   5.531   8.283   5.471  1.6541 -0.1348  0.5924
23127SOL    HW270803   5.578   8.209   5.348 -3.5194 -2.1439 -0.4289
23128SOL     OW70804   3.603   8.591   6.252  0.6871 -0.1757 -0.3094
23128SOL    HW170805   3.636   8.677   6.281  0.0852  0.0393 -0.2534
23128SOL    HW270806   3.619   8.533   6.326  1.4336 -0.2066 -0.4801
23129SOL     OW70807   4.038   3.070   7.564 -0.0092 -0.7086 -0.5575
23129SOL    HW170808   4.050   3.098   7.655 -0.6676 -0.2187 -0.6138
23129SOL    HW270809   4.127   3.067   7.529  0.1710  0.3463 -0.2541
23130SOL     OW70810   2.435   1.361   9.108 -0.2497 -0.1919 -0.3930
23130SOL    HW170811   2.351   1.402   9.127 -0.1156  0.3843 -0.9969
23130SOL    HW270812   2.430   1.276   9.151 -0.7316  0.2510  0.4587
23131SOL     OW70813   3.463   0.148   3.485 -0.0665  0.1593  0.1014
23131SOL    HW170814   3.382   0.097   3.480  0.7302 -1.0520 -0.8235
23131SOL    HW270815   3.437   0.236   3.457 -1.0418 -0.2185 -0.2226
23132SOL     OW70816   4.511   3.989   0.204 -0.1678 -0.2352  0.7990
23132SOL    HW170817   4.431   4.012   0.250 -0.4401  0.3860  0.0356
23132SOL    HW270818   4.560   3.935   0.266  0.0471  1.5858  2.2794
23133SOL     OW70819   8.503   2.891   6.369  0.8077 -0.0055  0.5694
23133SOL    HW170820   8.514   2.986   6.371 -0.9846  0.4177 -2.8004
23133SOL    HW270821   8.534   2.864   6.283 -2.6418 -1.7707 -0.3386
23134SOL     OW70822   8.627   5.608   1.571 -0.4567  0.6094 -0.4778
23134SOL    HW170823   8.545   5.590   1.616  0.3748 -1.4427  0.3430
23134SOL    HW270824   8.689   5.627   1.642  0.0522  0.9472 -1.0057
23135SOL     OW70825   2.815   6.306   8.728 -0.4028 -0.3087  0.0628
23135SOL    HW170826   2.905   6.327   8.706 -0.5074  1.9361  1.5108
23135SOL    HW270827   2.766   6.323   8.647  0.4009 -1.3858 -0.6821
23136SOL     OW70828   0.946   2.403   6.179  0.1580 -0.0998 -0.1817
23136SOL    HW170829   1.014   2.342   6.149  1.7340  1.4652  0.0876
23136SOL    HW270830   0.867   2.348   6.186  1.0821 -1.7277 -1.6158
23137SOL     OW70831   7.368   1.897   4.763 -0.2901  0.3860  0.2815
23137SOL    HW170832   7.350   1.944   4.682 -0.1236 -1.7832 -1.1170
23137SOL    HW270833   7.463   1.891   4.768 -0.2981  0.5537  0.6570
23138SOL     OW70834   4.019   6.551   6.953  0.1625  0.5062 -0.3562
23138SOL    HW170835   4.044   6.626   6.899 -0.6313  1.2706  0.2972
23138SOL    HW270836   3.980   6.590   7.032  0.8536 -0.5812  0.5573
23139SOL     OW70837   5.452   2.087   2.899 -0.1820 -0.5402  0.0944
23139SOL    HW170838   5.376   2.034   2.921 -0.2268 -0.5060  0.0215
23139SOL    HW270839   5.475   2.131   2.981 -2.2139  2.0039 -0.5792
23140SOL     OW70840   6.403   0.585   6.226  0.1190  0.0570  0.0309
23140SOL    HW170841   6.387   0.670   6.268  2.5487  0.3275  0.5257
23140SOL    HW270842   6.492   0.561   6.253  0.9724 -0.8116 -3.1892
23141SOL     OW70843   7.106   7.138   5.329  0.0538  0.1266  0.2171
23141SOL    HW170844   7.109   7.050   5.292  0.1245 -0.2898  1.2021
23141SOL    HW270845   7.177   7.185   5.284  1.5232 -0.9681  1.2923
23142SOL     OW70846   2.844   8.105   8.132  0.5780  0.4140  0.4185
23142SOL    HW170847   2.797   8.131   8.212  0.5175  0.9708  0.2115
23142SOL    HW270848   2.869   8.014   8.147  0.1669  0.3715  0.8831
23143SOL     OW70849   4.484   2.606   6.091 -0.5603  0.0139  0.3760
23143SOL    HW170850   4.561   2.651   6.125 -0.6283  0.5806 -0.2005
23143SOL    HW270851   4.420   2.610   6.162  0.3193 -1.4695  1.2912
23144SOL     OW70852   8.977   1.993   1.640  0.7966  0.3578  0.3398
23144SOL    HW170853   9.047   2.016   1.700  2.7036 -0.1934 -1.5611
23144SOL    HW270854   8.997   1.904   1.611 -0.9795 -0.0198  0.1004
23145SOL     OW70855   7.520   5.527   5.237 -0.1291  0.4469  0.7133
23145SOL    HW170856   7.461   5.601   5.224  0.8724  1.7471  2.9907
23145SOL    HW270857   7.464   5.450   5.225 -1.3206  1.5287 -1.1661
23146SOL     OW70858   6.218   2.161   1.180 -0.2905 -0.2350 -0.3142
23146SOL    HW170859   6.285   2.093   1.186  0.5415  0.4573 -1.4462
23146SOL    HW270860   6.135   2.114   1.188  0.2411 -0.8656  3.7223
23147SOL     OW70861   0.427   7.365   5.754 -0.7278  0.6472  0.0943
23147SOL    HW170862   0.499   7.348   5.814 -0.5914  1.5185  0.1874
23147SOL    HW270863   0.350   7.373   5.810 -0.6744  1.0052  0.1237
23148SOL     OW70864   4.082   2.089   7.638  0.6855 -0.0530  0.4205
23148SOL    HW170865   4.088   2.158   7.572 -2.6381 -0.4058 -0.4592
23148SOL    HW270866   4.037   2.017   7.593 -1.5030 -0.4148  2.9239
23149SOL     OW70867   0.325   3.745   3.725 -0.2619 -0.2325 -0.2230
23149SOL    HW170868   0.267   3.821   3.717 -0.6545 -0.5080  0.0621
23149SOL    HW270869   0.412   3.784   3.740 -0.4837  0.1570  0.0673
23150SOL     OW70870   3.508   4.649   4.630  0.4299 -0.3248  0.2558
23150SOL    HW170871   3.501   4.707   4.706 -3.2057 -0.4944  0.2104
23150SOL    HW270872   3.534   4.707   4.558 -0.4911  0.7555  0.7606
23151SOL     OW70873   2.131   5.080   8.282  0.6253 -0.2304  0.4158
23151SOL    HW170874   2.107   5.065   8.191 -0.2038 -2.3286  0.9270
23151SOL    HW270875   2.062   5.036   8.333  1.7339 -0.1990  2.0204
23152SOL     OW70876   6.137   7.632   4.553  0.7358 -0.1196 -0.2587
23152SOL    HW170877   6.155   7.643   4.460 -0.3510 -0.8405 -0.5646
23152SOL    HW270878   6.205   7.572   4.584  0.6363 -0.4893 -0.7543
23153SOL     OW70879   2.515   7.029   9.064  0.0153 -0.3769 -0.0530
23153SOL    HW170880   2.551   6.981   8.990  0.8305 -0.4084  0.3526
23153SOL    HW270881   2.557   6.990   9.141 -0.4578 -0.0276  0.3906
23154SOL     OW70882   8.964   2.342   1.650  0.8755 -0.2120  0.3825
23154SOL    HW170883   8.889   2.286   1.667  0.3818  0.3390  0.0621
23154SOL    HW270884   9.001   2.360   1.736  1.2578 -1.3065  0.4631
23155SOL     OW70885   7.896   8.386   8.083  0.5206  0.1989 -0.3099
23155SOL    HW170886   7.849   8.447   8.026  1.0696 -0.0530 -1.0591
23155SOL    HW270887   7.989   8.402   8.064  0.6678 -1.2858 -0.9981
23156SOL     OW70888   3.327   8.225   8.850 -0.3678  0.4317  0.2720
23156SOL    HW170889   3.278   8.304   8.871  0.8276  1.6693 -1.3934
23156SOL    HW270890   3.382   8.209   8.927 -1.7823  0.2407  1.2821
23157SOL     OW70891   7.872   2.380   1.504 -0.0256  0.5174 -0.4494
23157SOL    HW170892   7.877   2.355   1.411 -0.2239  1.1227 -0.6273
23157SOL    HW270893   7.898   2.472   1.505 -0.0301  0.5150  0.0987
23158SOL     OW70894   9.177   8.481   4.927 -0.4042 -0.5204  0.2958
23158SOL    HW170895   9.180   8.438   5.012  0.4678 -0.3396  0.3671
23158SOL    HW270896   9.235   8.557   4.936 -0.7858 -0.1504 -0.2698
23159SOL     OW70897   8.728   8.244   7.048 -0.5397  0.2255  0.2578
23159SOL    HW170898   8.639   8.216   7.067 -0.0284 -2.5525 -0.9416
23159SOL    HW270899   8.726   8.266   6.954 -0.0344  0.5018  0.3082
23160SOL     OW70900   1.538   0.547   4.748  0.0179 -0.4181  0.4003
23160SOL    HW170901   1.618   0.570   4.701  0.8060 -2.5842  0.5963
23160SOL    HW270902   1.549   0.586   4.835 -0.3215  1.4541 -0.3491
23161SOL     OW70903   1.241   8.297   4.515 -0.5180 -0.1303  0.0998
23161SOL    HW170904   1.182   8.244   4.462  0.5873 -0.7716 -0.5198
23161SOL    HW270905   1.183   8.347   4.573 -1.5755 -2.3952  1.1013
23162SOL     OW70906   1.162   6.131   1.463 -0.1497 -0.0097 -0.3493
23162SOL    HW170907   1.252   6.157   1.441 -0.2187  0.6029  0.0479
23162SOL    HW270908   1.173   6.059   1.524  0.0839  0.2740 -0.0491
23163SOL     OW70909   3.002   2.491   5.090 -0.3951 -0.0447  0.4011
23163SOL    HW170910   2.971   2.580   5.106  0.7692  0.4315  0.1517
23163SOL    HW270911   3.061   2.473   5.163  1.1797  0.2982 -0.7399
23164SOL     OW70912   2.031   5.974   7.353  0.6511  0.2575  0.3781
23164SOL    HW170913   1.974   5.898   7.341 -1.0360  1.3450  1.1077
23164SOL    HW270914   2.055   6.000   7.265 -0.7709  0.3158 -0.0227
23165SOL     OW70915   7.895   3.014   7.418  0.5707  0.0939 -0.4916
23165SOL    HW170916   7.813   3.057   7.395  0.5515 -0.0726 -0.7317
23165SOL    HW270917   7.922   2.968   7.339  1.2207  0.6664 -0.6156
23166SOL     OW70918   1.503   0.599   6.540 -0.3394 -0.1362  0.0937
23166SOL    HW170919   1.442   0.536   6.503  2.8176 -2.3346 -1.8927
23166SOL    HW270920   1.531   0.652   6.465  0.4389  0.5928  0.8651
23167SOL     OW70921   0.202   4.756   5.777  0.1275 -0.0563 -0.2052
23167SOL    HW170922   0.158   4.813   5.841 -2.1668 -0.5397 -1.2298
23167SOL    HW270923   0.187   4.800   5.693  1.0551 -0.6105 -0.6646
23168SOL     OW70924   7.021   2.321   0.423  0.4377  0.0402  0.7379
23168SOL    HW170925   6.962   2.380   0.469 -0.1580 -1.1622  1.5740
23168SOL    HW270926   7.071   2.278   0.492 -0.0049 -1.3174  0.2559
23169SOL     OW70927   0.609   9.155   4.275 -0.1502  0.2255 -0.6770
23169SOL    HW170928   0.590   9.211   4.350 -0.7930 -2.6628  1.5342
23169SOL    HW270929   0.524   9.118   4.251  0.5277 -1.8334 -0.1736
23170SOL     OW70930   7.702   8.878   9.045  0.0365  0.0938 -0.0346
23170SOL    HW170931   7.719   8.942   9.115  1.2451  0.0633 -0.2777
23170SOL    HW270932   7.736   8.796   9.080 -0.2564 -0.1292 -0.2753
23171SOL     OW70933   8.047   5.681   4.959  0.3139 -0.3101  0.3386
23171SOL    HW170934   8.024   5.753   5.017 -2.4887 -0.9865  0.1818
23171SOL    HW270935   8.139   5.663   4.979  1.1843  3.2940  0.3136
23172SOL     OW70936   0.909   7.668   7.865  0.0646  0.0556 -0.8287
23172SOL    HW170937   0.933   7.760   7.851 -0.0140  0.2055 -0.0317
23172SOL    HW270938   0.983   7.619   7.832  0.2100  0.4161 -1.0490
23173SOL     OW70939   4.713   6.115   3.815  0.4388 -0.5744 -0.7214
23173SOL    HW170940   4.752   6.145   3.898  0.6031  2.1432 -1.6601
23173SOL    HW270941   4.788   6.085   3.763  0.2010 -3.6373  0.4863
23174SOL     OW70942   4.306   0.254   4.422 -0.4561 -0.1701 -0.3995
23174SOL    HW170943   4.336   0.289   4.339  0.6560 -0.3990 -0.1090
23174SOL    HW270944   4.246   0.183   4.399  2.1669 -2.3068 -1.0933
23175SOL     OW70945   2.674   5.075   7.753 -0.3738 -0.1033  0.5717
23175SOL    HW170946   2.587   5.058   7.787  0.0110 -1.2642  1.0044
23175SOL    HW270947   2.714   5.134   7.818 -1.0694  1.0484 -0.0065
23176SOL     OW70948   1.666   4.638   3.966  0.0772 -0.7993  0.1650
23176SOL    HW170949   1.623   4.607   3.887  0.1279  0.1468 -0.2463
23176SOL    HW270950   1.640   4.575   4.034 -1.3838 -0.6668 -0.2217
23177SOL     OW70951   3.317   4.960   5.510  0.0959 -0.3261 -0.5654
23177SOL    HW170952   3.249   4.901   5.543  1.0869 -0.9799  0.3743
23177SOL    HW270953   3.306   4.959   5.415 -0.6092 -1.1702 -0.4852
23178SOL     OW70954   5.495   7.918   6.569  0.4280  0.5257  0.3007
23178SOL    HW170955   5.456   7.906   6.656  0.2769  0.9784  0.2971
23178SOL    HW270956   5.547   7.839   6.555 -1.1562 -0.5232 -0.0513
23179SOL     OW70957   4.114   3.965   3.797 -0.1948  0.4392  0.7919
23179SOL    HW170958   4.117   3.870   3.807  2.6470  0.2214 -0.7843
23179SOL    HW270959   4.144   3.999   3.881  0.1114 -0.1493  0.9256
23180SOL     OW70960   5.684   6.925   4.026  0.0573  0.2355 -0.2265
23180SOL    HW170961   5.660   6.874   3.949  1.4953 -0.1657 -0.4213
23180SOL    HW270962   5.708   6.860   4.092  0.3700  0.6196  0.0433
23181SOL     OW70963   4.584   4.031   4.222 -0.6113  0.4538  0.2948
23181SOL    HW170964   4.563   3.960   4.283  0.4122 -1.2024 -1.1903
23181SOL    HW270965   4.529   4.016   4.146 -0.4938  1.3705  0.0089
23182SOL     OW70966   1.485   6.901   5.477  0.3154  0.2432  0.2409
23182SOL    HW170967   1.484   6.901   5.572 -1.1970 -0.3934  0.2522
23182SOL    HW270968   1.514   6.813   5.453  0.0332  0.1859  0.1116
23183SOL     OW70969   4.948   3.149   4.603  0.0641  0.3779  0.0717
23183SOL    HW170970   4.907   3.089   4.665  0.9843 -0.3708 -0.0377
23183SOL    HW270971   4.923   3.116   4.517  2.3135 -1.1868 -0.0672
23184SOL     OW70972   2.152   4.585   8.320 -0.2964 -0.3530 -0.1242
23184SOL    HW170973   2.086   4.614   8.383 -1.6752 -1.6865 -0.8875
23184SOL    HW270974   2.221   4.546   8.373 -1.2910 -1.1812  0.5923
23185SOL     OW70975   3.676   8.168   4.505 -0.7871 -0.3545 -0.2977
23185SOL    HW170976   3.725   8.233   4.454  0.8380 -1.7581 -0.5930
23185SOL    HW270977   3.595   8.156   4.455 -0.6490  0.6519 -0.8025
23186SOL     OW70978   8.460   5.461   6.140  0.1896 -0.3153  0.1744
23186SOL    HW170979   8.518   5.425   6.072 -0.9681 -0.3830 -0.8210
23186SOL    HW270980   8.518   5.479   6.214  1.2496 -1.6862 -0.2741
23187SOL     OW70981   6.140   5.193   6.380  0.5239  0.1647 -0.2560
23187SOL    HW170982   6.148   5.202   6.286  2.3859  0.1420 -0.1274
23187SOL    HW270983   6.141   5.099   6.396  0.2917  0.1706 -0.1993
23188SOL     OW70984   4.806   5.043   2.577 -0.0183 -0.1331  0.0562
23188SOL    HW170985   4.727   5.008   2.618  1.0238 -3.0532 -0.1980
23188SOL    HW270986   4.807   5.006   2.489  0.7612  1.3130 -0.5910
23189SOL     OW70987   5.082   1.861   8.306 -0.1714  0.2182  0.3071
23189SOL    HW170988   5.141   1.864   8.230  1.9361 -0.4995  1.8016
23189SOL    HW270989   4.998   1.893   8.273  0.7919  0.4138 -2.1809
23190SOL     OW70990   0.505   6.697   8.331 -0.4114 -0.3073  0.6973
23190SOL    HW170991   0.507   6.682   8.425 -1.2663  3.1035  1.4070
23190SOL    HW270992   0.413   6.717   8.312 -0.2805 -1.0831 -0.9179
23191SOL     OW70993   2.903   6.626   3.163  0.6573  0.1220 -0.2618
23191SOL    HW170994   2.915   6.531   3.152  2.1022  0.3005 -0.4236
23191SOL    HW270995   2.917   6.662   3.075 -0.3665  0.4586 -0.3011
23192SOL     OW70996   0.302   5.699   2.144  0.3709  0.1958 -0.1484
23192SOL    HW170997   0.348   5.777   2.176  0.9249 -0.3133  0.2968
23192SOL    HW270998   0.220   5.698   2.192  0.5152  0.3088  0.1013
23193SOL     OW70999   0.840   8.145   1.732 -0.4437  0.0080 -0.1116
23193SOL    HW171000   0.808   8.225   1.775 -0.9540 -0.3498  0.1872
23193SOL    HW271001   0.829   8.076   1.798  1.8207  0.0074  0.3462
23194SOL     OW71002   5.547   4.619   5.275  0.1437 -0.9589 -0.6030
23194SOL    HW171003   5.470   4.644   5.326 -0.4969 -0.6162 -1.7103
23194SOL    HW271004   5.608   4.692   5.284  1.4928 -2.2364  2.3507
23195SOL     OW71005   8.962   3.832   1.127 -0.3838  0.3230  0.5169
23195SOL    HW171006   8.978   3.851   1.219 -0.2003 -0.2140  0.6015
23195SOL    HW271007   8.885   3.775   1.127  0.7546 -1.3110  0.5146
23196SOL     OW71008   8.252   0.611   8.922 -0.6961 -0.2679 -0.2676
23196SOL    HW171009   8.235   0.562   9.003  1.7011  0.2047  0.6122
23196SOL    HW271010   8.226   0.701   8.943 -0.5379 -0.2447 -0.1606
23197SOL     OW71011   7.409   4.710   1.787  0.1446 -0.3099 -0.0323
23197SOL    HW171012   7.455   4.792   1.768 -0.2936 -0.0029  0.2249
23197SOL    HW271013   7.476   4.655   1.829 -0.0705  0.6715  1.7006
23198SOL     OW71014   2.980   0.218   5.068 -0.0969  0.0159 -0.2662
23198SOL    HW171015   3.052   0.243   5.126 -0.0104 -0.1616 -0.2976
23198SOL    HW271016   2.992   0.124   5.054 -0.4499 -0.0523 -0.1128
23199SOL     OW71017   1.888   1.419   9.260  0.0629 -0.5193 -0.3696
23199SOL    HW171018   1.902   1.331   9.295  1.7790 -0.6813 -1.3556
23199SOL    HW271019   1.823   1.407   9.192 -0.4640 -0.8423  0.1792
23200SOL     OW71020   0.429   7.099   5.857 -0.0113  0.0405  0.4523
23200SOL    HW171021   0.396   7.137   5.938 -1.3635  0.4703 -0.2783
23200SOL    HW271022   0.409   7.163   5.789 -0.8710 -1.2333 -0.5559
23201SOL     OW71023   5.594   5.785   0.303  0.0581 -0.6171  0.4400
23201SOL    HW171024   5.598   5.775   0.208  1.7767 -0.3521  0.4578
23201SOL    HW271025   5.594   5.695   0.337 -1.4892 -0.7408  0.2053
23202SOL     OW71026   4.612   1.853   7.533 -0.3454 -0.0969  0.2506
23202SOL    HW171027   4.608   1.903   7.452  0.2370 -0.0614  0.2407
23202SOL    HW271028   4.571   1.909   7.599  2.3199  1.4338  0.7494
23203SOL     OW71029   0.618   7.378   6.418 -0.1859  0.0189 -0.2348
23203SOL    HW171030   0.683   7.425   6.365 -0.2310 -0.8760 -1.0996
23203SOL    HW271031   0.665   7.303   6.452 -0.8918 -0.9756 -1.3683
23204SOL     OW71032   6.660   0.572   6.278  0.0532 -0.3002  0.2701
23204SOL    HW171033   6.688   0.559   6.188 -0.5383 -3.2405  0.4132
23204SOL    HW271034   6.738   0.554   6.331  0.0073 -0.1015  0.4094
23205SOL     OW71035   6.767   5.473   4.489  0.4956 -0.1238  0.4139
23205SOL    HW171036   6.741   5.398   4.436 -0.8741  1.2751 -1.0174
23205SOL    HW271037   6.688   5.495   4.539 -0.4018  2.4813 -1.8881
23206SOL     OW71038   1.808   4.842   0.476  0.0936 -0.4071  0.5464
23206SOL    HW171039   1.880   4.831   0.538 -0.1461  0.3837  0.9820
23206SOL    HW271040   1.849   4.875   0.397  0.2961 -0.6180  0.5621
23207SOL     OW71041   3.565   6.892   3.716 -0.3913 -0.2372  0.7919
23207SOL    HW171042   3.540   6.946   3.791 -0.1018  0.1935  0.5818
23207SOL    HW271043   3.645   6.848   3.744 -0.9865 -1.0932  1.2129
23208SOL     OW71044   2.537   2.534   5.811  0.6099 -0.1337  0.4224
23208SOL    HW171045   2.603   2.587   5.856  0.5563  2.5873 -2.3226
23208SOL    HW271046   2.581   2.508   5.730 -1.0233  0.0537 -0.5561
23209SOL     OW71047   8.654   7.745   0.821 -0.0778 -0.2134  0.0067
23209SOL    HW171048   8.632   7.655   0.844 -2.4208 -0.3574 -2.2708
23209SOL    HW271049   8.598   7.799   0.877  1.1020 -0.1353  1.1529
23210SOL     OW71050   0.645   7.403   3.507  0.5159  0.3798  0.9865
23210SOL    HW171051   0.711   7.370   3.568  2.7593  2.1393 -0.2935
23210SOL    HW271052   0.619   7.487   3.544  0.4848  0.5892  0.4925
23211SOL     OW71053   1.605   7.513   2.379  0.4518 -0.1366  0.1571
23211SOL    HW171054   1.559   7.450   2.435  0.1020 -0.3057 -0.3130
23211SOL    HW271055   1.556   7.594   2.390 -0.5242 -0.5344 -1.0226
23212SOL     OW71056   3.502   5.911   3.971  0.4081 -0.3421 -0.8685
23212SOL    HW171057   3.467   5.836   4.018  0.3190 -0.4699 -1.1365
23212SOL    HW271058   3.515   5.978   4.038  1.4022 -0.9157 -0.4776
23213SOL     OW71059   9.040   7.753   4.101 -0.2041  0.4111  0.1299
23213SOL    HW171060   8.976   7.821   4.081 -0.8346 -0.3781 -0.6230
23213SOL    HW271061   8.995   7.671   4.081  0.2841 -0.2889  1.7021
23214SOL     OW71062   3.306   5.124   1.217 -0.3137  0.4385 -0.1221
23214SOL    HW171063   3.361   5.128   1.138 -0.1189 -0.5776 -0.0504
23214SOL    HW271064   3.366   5.097   1.286 -0.8753 -0.5621 -0.0140
23215SOL     OW71065   9.051   5.735   8.763 -0.1073 -0.6374 -0.3666
23215SOL    HW171066   9.016   5.688   8.839 -1.5328  0.0534 -0.5720
23215SOL    HW271067   9.037   5.827   8.783 -1.2524 -0.4702 -1.7933
23216SOL     OW71068   3.190   2.598   6.429 -0.1731  0.0226  0.1219
23216SOL    HW171069   3.124   2.647   6.379 -0.7841  0.3010  1.1720
23216SOL    HW271070   3.267   2.598   6.372 -0.3210  1.7637 -0.1370
23217SOL     OW71071   4.535   6.862   2.960  0.2876 -0.2036 -0.0097
23217SOL    HW171072   4.576   6.867   3.047 -0.7859 -0.9441  0.5693
23217SOL    HW271073   4.441   6.857   2.979 -0.0349  0.7650 -1.2681
23218SOL     OW71074   5.487   1.140   2.174  0.2354 -0.4901  0.7721
23218SOL    HW171075   5.572   1.159   2.212 -0.3963  1.3746  1.3505
23218SOL    HW271076   5.430   1.123   2.250 -0.1228 -0.8175  0.4383
23219SOL     OW71077   0.829   4.101   2.947 -0.7465 -0.6175 -0.1152
23219SOL    HW171078   0.856   4.104   3.039  0.8724  2.1331 -0.5530
23219SOL    HW271079   0.855   4.015   2.916 -0.0927 -1.0985  1.6701
23220SOL     OW71080   4.198   3.823   4.328  0.4443 -0.2587 -0.6403
23220SOL    HW171081   4.194   3.788   4.417 -0.3290 -0.3427 -0.6970
23220SOL    HW271082   4.113   3.799   4.290  0.6113  0.1316 -1.2623
23221SOL     OW71083   1.623   2.202   4.096  0.1308  0.2389 -0.3695
23221SOL    HW171084   1.551   2.175   4.040  2.1400  0.5096 -3.3018
23221SOL    HW271085   1.650   2.122   4.142 -0.8747 -0.2315 -0.5752
23222SOL     OW71086   0.968   6.355   0.942  0.1026 -0.0719 -0.2096
23222SOL    HW171087   0.923   6.317   0.866  1.5796  1.5515 -2.0186
23222SOL    HW271088   0.996   6.441   0.912  0.3502  0.8389  2.3877
23223SOL     OW71089   7.019   8.253   2.810  0.6442  0.4339  0.5910
23223SOL    HW171090   6.957   8.280   2.877 -0.0410 -0.1412  0.2052
23223SOL    HW271091   6.971   8.263   2.728  1.1994  0.3615  0.2522
23224SOL     OW71092   1.383   0.159   8.455 -0.3465  0.1760 -0.2145
23224SOL    HW171093   1.464   0.177   8.504 -0.7302  0.2593  0.4069
23224SOL    HW271094   1.336   0.242   8.458 -0.7502 -0.0624 -0.0064
23225SOL     OW71095   6.503   6.307   6.061  0.2044 -0.1327  0.0201
23225SOL    HW171096   6.497   6.394   6.022  0.6031 -0.9452 -1.9777
23225SOL    HW271097   6.591   6.303   6.099  0.0933  0.4100  0.3425
23226SOL     OW71098   4.929   3.432   6.579 -0.4967  0.2358 -0.1523
23226SOL    HW171099   5.009   3.407   6.625 -0.5387 -1.0554 -0.7411
23226SOL    HW271100   4.875   3.353   6.580 -1.5040  0.9090 -0.3066
23227SOL     OW71101   7.234   1.504   4.051  0.2029  0.3526 -0.5610
23227SOL    HW171102   7.227   1.416   4.089  2.2748 -0.1060 -1.1201
23227SOL    HW271103   7.202   1.494   3.962  1.6108 -0.1627 -1.0296
23228SOL     OW71104   5.001   2.638   0.129 -0.0813  0.0432 -0.2750
23228SOL    HW171105   5.072   2.580   0.101  0.0329 -0.3028  0.7061
23228SOL    HW271106   5.044   2.719   0.154  0.0561 -0.3809  0.9259
23229SOL     OW71107   0.937   5.059   5.926  0.0634 -0.0579 -0.5315
23229SOL    HW171108   0.970   5.073   5.837  0.0834  1.5220 -0.3105
23229SOL    HW271109   0.860   5.115   5.932 -0.5966 -1.0136  0.0982
23230SOL     OW71110   4.682   2.569   4.059  0.4317  0.2625 -0.3339
23230SOL    HW171111   4.612   2.560   3.994  0.2649  0.2721 -0.1555
23230SOL    HW271112   4.645   2.532   4.139  0.0186  1.7704  0.2064
23231SOL     OW71113   9.164   8.896   0.222 -0.3173 -0.0883  0.4663
23231SOL    HW171114   9.203   8.810   0.239  0.0061 -0.0999 -0.2639
23231SOL    HW271115   9.228   8.959   0.256 -0.5205 -0.1300  0.9337
23232SOL     OW71116   7.440   3.909   4.450  0.4627 -0.4777 -0.0028
23232SOL    HW171117   7.483   3.951   4.375  0.7479 -0.7710 -0.0055
23232SOL    HW271118   7.436   3.977   4.517  0.7182 -0.3779 -0.0878
23233SOL     OW71119   8.943   6.125   2.157  0.3517 -0.7114  0.0566
23233SOL    HW171120   8.853   6.111   2.127  0.8343 -0.9652 -1.3514
23233SOL    HW271121   8.995   6.122   2.077  1.2432  2.9684  0.3229
23234SOL     OW71122   4.884   5.688   0.235  0.2086  0.2160 -0.0994
23234SOL    HW171123   4.937   5.675   0.156 -0.9830 -0.7314 -0.7637
23234SOL    HW271124   4.875   5.783   0.242  0.2365  0.3077 -1.1645
23235SOL     OW71125   1.334   3.259   7.288 -0.4261  0.0055  0.0845
23235SOL    HW171126   1.296   3.174   7.313 -0.4832 -0.4403 -1.4390
23235SOL    HW271127   1.420   3.260   7.331 -1.2911  0.1702  1.9315
23236SOL     OW71128   2.190   6.866   4.353 -0.2522  0.3093  0.2155
23236SOL    HW171129   2.174   6.939   4.413  0.6865  0.6051  0.1284
23236SOL    HW271130   2.270   6.825   4.387 -1.8040 -1.9117  1.4320
23237SOL     OW71131   7.057   7.777   5.828 -0.3134 -0.3204 -0.0130
23237SOL    HW171132   7.041   7.774   5.733  1.1381  0.2607 -0.3081
23237SOL    HW271133   7.151   7.793   5.836 -0.6873  1.5026  1.5007
23238SOL     OW71134   4.260   7.112   5.599  0.0360  0.1630  0.4913
23238SOL    HW171135   4.291   7.023   5.617  1.7218  0.9120  1.5769
23238SOL    HW271136   4.285   7.161   5.677 -1.0493  1.5576 -0.0130
23239SOL     OW71137   1.856   2.858   5.140 -0.0341  0.0590  0.1202
23239SOL    HW171138   1.771   2.831   5.105  0.5735  0.0531 -1.3894
23239SOL    HW271139   1.865   2.950   5.114 -0.6929  0.8927  2.5346
23240SOL     OW71140   4.885   4.044   6.319  0.4788 -0.4931  0.4709
23240SOL    HW171141   4.819   3.975   6.322 -0.2602 -0.0281 -2.2129
23240SOL    HW271142   4.839   4.119   6.280  2.4648 -0.0804 -1.2488
23241SOL     OW71143   1.452   5.516   3.265  0.5834 -0.1165 -0.5231
23241SOL    HW171144   1.431   5.591   3.320  0.5907 -0.4452 -0.0635
23241SOL    HW271145   1.413   5.537   3.180  1.2091  0.7233 -0.6179
23242SOL     OW71146   1.929   3.187   7.476 -0.1529  0.0914 -0.4742
23242SOL    HW171147   1.890   3.196   7.389  0.8289  1.5868 -0.7966
23242SOL    HW271148   2.021   3.209   7.463  0.8446 -3.0513  0.2996
23243SOL     OW71149   6.894   1.838   1.664 -0.3601  0.1946 -0.4374
23243SOL    HW171150   6.923   1.923   1.633  0.7186  1.6668  3.9613
23243SOL    HW271151   6.800   1.849   1.680 -0.1713  0.6756  0.3724
23244SOL     OW71152   7.448   2.370   0.365  0.0138  0.6459  0.0382
23244SOL    HW171153   7.387   2.441   0.383 -1.2412 -0.4123  0.1444
23244SOL    HW271154   7.412   2.295   0.414 -0.1311 -0.7074 -2.0001
23245SOL     OW71155   5.699   2.043   3.675 -0.6152  1.0038 -0.3257
23245SOL    HW171156   5.794   2.052   3.682 -0.6710  0.5475  1.4566
23245SOL    HW271157   5.664   2.121   3.717 -1.0483  1.0232 -0.7088
23246SOL     OW71158   9.053   2.060   7.386  0.5473  0.0058 -0.8826
23246SOL    HW171159   9.066   2.143   7.433 -0.6400  0.2551 -0.9576
23246SOL    HW271160   8.990   2.012   7.439  0.7607 -0.5880 -1.1617
23247SOL     OW71161   3.282   4.245   3.283 -0.0610  0.4588 -0.0770
23247SOL    HW171162   3.266   4.184   3.355  1.0146  0.9249  0.5731
23247SOL    HW271163   3.259   4.331   3.319 -3.4728  0.3392 -1.5741
23248SOL     OW71164   9.212   4.535   7.248  0.1925 -0.5849 -0.1991
23248SOL    HW171165   9.302   4.567   7.237  0.0050 -0.1680 -0.5534
23248SOL    HW271166   9.176   4.592   7.316  0.0598 -0.4577 -0.3745
23249SOL     OW71167   0.918   0.842   5.882 -0.1188  0.0744 -0.4706
23249SOL    HW171168   0.982   0.831   5.812 -0.4381 -0.3273 -0.7003
23249SOL    HW271169   0.896   0.753   5.909 -0.2077  0.2210 -0.0518
23250SOL     OW71170   8.975   1.093   6.326 -0.2994  0.1575  0.0407
23250SOL    HW171171   9.048   1.121   6.272 -0.8442  0.9270 -0.3116
23250SOL    HW271172   8.905   1.072   6.264 -0.5318 -0.1289  0.3915
23251SOL     OW71173   2.792   6.197   6.074  0.5369 -0.1614 -0.0888
23251SOL    HW171174   2.825   6.262   6.012 -0.1682  1.1790  0.8880
23251SOL    HW271175   2.776   6.246   6.154 -3.7739 -0.6395 -0.4273
23252SOL     OW71176   6.902   4.001   6.930 -0.0462 -1.0268  0.1478
23252SOL    HW171177   6.848   3.929   6.899 -0.7449  0.2925 -1.9136
23252SOL    HW271178   6.983   3.995   6.881 -0.8686  0.6471 -1.5631
23253SOL     OW71179   7.877   6.091   9.242 -0.3554  0.1896 -0.4198
23253SOL    HW171180   7.891   6.100   9.337  2.3416 -1.5576 -0.5395
23253SOL    HW271181   7.835   6.005   9.232  0.9428 -0.4296 -0.8400
23254SOL     OW71182   8.390   8.882   0.966 -0.3407  0.1167  0.4607
23254SOL    HW171183   8.354   8.965   0.996 -0.9558  0.1098 -0.2355
23254SOL    HW271184   8.343   8.863   0.885  0.3705 -0.5095  0.1841
23255SOL     OW71185   8.646   5.250   8.685  0.3773 -0.5031 -0.2903
23255SOL    HW171186   8.739   5.247   8.661  0.1382 -0.4008 -1.2739
23255SOL    HW271187   8.625   5.344   8.684 -0.0695 -0.6039 -1.4429
23256SOL     OW71188   3.111   3.766   5.600  0.2864 -0.4018 -0.1354
23256SOL    HW171189   3.145   3.703   5.664  1.0309 -1.2710 -1.3463
23256SOL    HW271190   3.022   3.736   5.581  0.8079 -1.3755 -1.0610
23257SOL     OW71191   7.798   4.351   6.985 -0.2001  0.5656  0.4296
23257SOL    HW171192   7.720   4.377   6.937 -0.2244 -0.3327 -0.0434
23257SOL    HW271193   7.871   4.377   6.929 -0.2430 -2.6122 -1.3741
23258SOL     OW71194   5.159   4.731   4.187 -0.0095 -0.0969 -0.3552
23258SOL    HW171195   5.096   4.709   4.118  0.1201 -1.2175 -0.1404
23258SOL    HW271196   5.159   4.826   4.190 -1.8328 -0.0607 -0.2445
23259SOL     OW71197   8.586   9.190   6.511  0.1905 -0.1824 -0.0250
23259SOL    HW171198   8.590   9.206   6.417  1.9991  2.0386  0.3230
23259SOL    HW271199   8.672   9.155   6.533  0.5532  1.2548  1.0291
23260SOL     OW71200   4.897   8.430   4.827 -0.3528 -0.4655  0.4964
23260SOL    HW171201   4.954   8.405   4.899 -0.5749 -0.7945  0.5577
23260SOL    HW271202   4.905   8.358   4.764 -1.0109 -0.7120  0.6839
23261SOL     OW71203   7.228   5.317   1.623  0.2151  0.4672  0.2533
23261SOL    HW171204   7.231   5.233   1.668 -0.2477  0.8397  0.9927
23261SOL    HW271205   7.311   5.360   1.644  1.2956 -0.5538 -1.6533
23262SOL     OW71206   9.120   6.613   6.016  0.3187 -0.0854 -0.2280
23262SOL    HW171207   9.080   6.699   6.002  1.4377  0.5485  0.3096
23262SOL    HW271208   9.162   6.593   5.932  1.8036  0.8724  0.2467
23263SOL     OW71209   3.160   5.882   0.032 -0.3362 -0.0458  0.2235
23263SOL    HW171210   3.125   5.967   0.006  0.8553 -0.0289 -1.4755
23263SOL    HW271211   3.219   5.858  -0.039  1.8372 -0.8120  2.1923
23264SOL     OW71212   5.194   6.608   6.360 -0.7258 -0.0390 -0.7122
23264SOL    HW171213   5.247   6.579   6.434 -0.6339  2.9311  0.5484
23264SOL    HW271214   5.133   6.537   6.344 -0.0650 -1.2064  1.5498
23265SOL     OW71215   5.882   1.911   2.513  0.5043  0.1796 -0.3682
23265SOL    HW171216   5.924   1.997   2.505  0.1899  0.2452 -1.4148
23265SOL    HW271217   5.800   1.920   2.465  0.1683 -0.5224  0.0605
23266SOL     OW71218   8.254   5.709   6.053 -0.0131 -0.3735 -0.3708
23266SOL    HW171219   8.211   5.690   5.969 -0.6737 -0.5353 -0.0044
23266SOL    HW271220   8.339   5.666   6.047 -0.0160 -0.2943 -1.0004
23267SOL     OW71221   8.342   8.269   2.289  0.0587 -0.4779  0.5165
23267SOL    HW171222   8.360   8.209   2.361 -1.8213 -0.3578  1.1436
23267SOL    HW271223   8.424   8.272   2.239  0.7186 -2.2555  1.4001
23268SOL     OW71224   6.281   4.294   0.357 -0.6700 -0.1548  0.2866
23268SOL    HW171225   6.267   4.298   0.451 -1.6296 -1.1662  0.2060
23268SOL    HW271226   6.267   4.383   0.326  1.3893  0.5956  1.2963
23269SOL     OW71227   5.034   1.469   8.523 -0.0644  0.0517 -0.0671
23269SOL    HW171228   5.006   1.385   8.560  1.4656 -0.5887 -0.2918
23269SOL    HW271229   5.031   1.530   8.597  0.2848 -0.5679  0.4638
23270SOL     OW71230   7.082   6.541   0.093 -0.1402  0.1108 -0.4074
23270SOL    HW171231   6.993   6.558   0.064 -0.6017  0.3932  1.0558
23270SOL    HW271232   7.130   6.621   0.073 -0.2724  0.0425 -0.9907
23271SOL     OW71233   6.954   6.796   4.977 -0.6295 -0.3926 -0.1245
23271SOL    HW171234   6.912   6.856   4.915 -0.7287  0.9395  1.1815
23271SOL    HW271235   6.881   6.756   5.024 -0.5455  1.1659  1.4429
23272SOL     OW71236   4.414   8.633   7.202  0.3309 -0.4946  0.1691
23272SOL    HW171237   4.389   8.704   7.260  0.7100  0.1868 -0.4709
23272SOL    HW271238   4.484   8.670   7.148  1.4246 -1.7444  0.6580
23273SOL     OW71239   2.102   6.585   4.866  0.2492 -0.0419 -0.1986
23273SOL    HW171240   2.197   6.599   4.861  0.1090  0.5326 -2.2199
23273SOL    HW271241   2.067   6.668   4.898  0.2765  0.5870 -1.7236
23274SOL     OW71242   5.975   5.719   0.339  0.8179  0.2018 -0.2563
23274SOL    HW171243   6.032   5.675   0.276  0.5351  3.7492 -3.3667
23274SOL    HW271244   5.887   5.708   0.304  0.6891  2.5726 -0.8205
23275SOL     OW71245   3.876   5.107   7.120  0.2916 -0.3975 -0.1814
23275SOL    HW171246   3.802   5.118   7.061  0.0676 -0.2470  0.1261
23275SOL    HW271247   3.880   5.189   7.169  1.8011  0.3535 -1.4655
23276SOL     OW71248   9.033   8.188   7.026  0.2093 -0.2026 -0.2042
23276SOL    HW171249   9.008   8.209   6.936  2.0547 -1.0786 -0.9867
23276SOL    HW271250   9.022   8.093   7.033 -0.1885 -0.1093  0.6056
23277SOL     OW71251   8.858   3.540   5.120  0.0638  0.4771  0.0268
23277SOL    HW171252   8.897   3.582   5.197  0.4100 -0.2360  0.2523
23277SOL    HW271253   8.905   3.579   5.045 -0.1395  1.0293  0.1835
23278SOL     OW71254   0.652   5.877   3.447 -0.1768  0.6198 -0.1835
23278SOL    HW171255   0.708   5.833   3.383  0.0859 -1.2148  1.2149
23278SOL    HW271256   0.603   5.806   3.488 -1.8455  1.9511  0.2528
23279SOL     OW71257   4.327   2.741   7.568 -0.0769 -0.0426 -0.2504
23279SOL    HW171258   4.290   2.659   7.536  1.1279 -0.6852 -0.0447
23279SOL    HW271259   4.279   2.758   7.649 -0.7441 -0.2154 -0.5917
23280SOL     OW71260   3.295   6.622   5.850 -0.2746  0.3089 -0.3274
23280SOL    HW171261   3.365   6.677   5.885 -0.2850  0.8368 -1.1011
23280SOL    HW271262   3.340   6.549   5.808 -0.2222  0.2240 -0.1247
23281SOL     OW71263   1.644   8.016   8.496  0.3046  0.1789 -0.2598
23281SOL    HW171264   1.730   8.007   8.538 -0.6653 -0.3576  1.7404
23281SOL    HW271265   1.637   7.940   8.439  1.1445  0.2234 -0.4349
23282SOL     OW71266   2.303   2.561   3.921 -0.3801  0.0522 -0.8807
23282SOL    HW171267   2.252   2.509   3.983 -0.0401  2.1008  1.2716
23282SOL    HW271268   2.238   2.592   3.858 -1.2343 -0.0382 -0.0806
23283SOL     OW71269   6.491   3.061   3.379 -0.1608 -0.1887  0.3594
23283SOL    HW171270   6.517   3.003   3.307 -1.3236  1.0038 -1.0899
23283SOL    HW271271   6.472   3.145   3.337  1.4297  1.2988  2.3716
23284SOL     OW71272   6.593   0.531   2.283 -0.0345 -0.2134  0.2809
23284SOL    HW171273   6.613   0.526   2.376 -1.8069 -0.5211  0.6698
23284SOL    HW271274   6.552   0.447   2.262 -1.6858  0.6681 -0.2369
23285SOL     OW71275   5.569   2.450   6.852 -0.0928  0.1642  0.7525
23285SOL    HW171276   5.537   2.540   6.857  1.9196  0.8556  2.4957
23285SOL    HW271277   5.544   2.421   6.764  2.6530  3.8450 -1.5587
23286SOL     OW71278   4.158   4.265   0.863  0.8807  0.5985  0.3277
23286SOL    HW171279   4.129   4.354   0.884 -0.7383  0.7173 -2.0695
23286SOL    HW271280   4.080   4.211   0.873  2.2347 -1.0402  3.6165
23287SOL     OW71281   7.324   7.587   4.968 -0.0019 -0.6794 -0.6135
23287SOL    HW171282   7.252   7.624   4.917  0.9906 -0.8296 -2.1899
23287SOL    HW271283   7.312   7.492   4.962 -0.0648 -0.6975 -0.2633
23288SOL     OW71284   2.914   5.772   6.509  0.4095 -0.5370 -0.0326
23288SOL    HW171285   2.925   5.776   6.414  1.3529 -0.1474  0.0848
23288SOL    HW271286   2.849   5.839   6.529  1.7011  0.8163 -0.2014
23289SOL     OW71287   9.088   2.458   6.181 -0.0702 -0.1896 -0.1023
23289SOL    HW171288   9.031   2.432   6.253 -0.1829  0.0598 -0.1002
23289SOL    HW271289   9.095   2.380   6.126  0.0230 -0.3816  0.1832
23290SOL     OW71290   3.274   9.258   3.361 -0.5467  0.5719  0.2141
23290SOL    HW171291   3.258   9.183   3.417  3.5681 -0.3917  0.4195
23290SOL    HW271292   3.267   9.223   3.272 -1.7359  0.8037  0.1913
23291SOL     OW71293   1.106   5.911   6.815 -0.5348  0.4939  0.4912
23291SOL    HW171294   1.146   5.824   6.812  1.3907  1.3560 -0.3739
23291SOL    HW271295   1.170   5.965   6.862 -0.3842  2.0350 -1.3883
23292SOL     OW71296   7.377   5.355   4.277  0.4866  0.8791  0.4994
23292SOL    HW171297   7.354   5.447   4.289  1.8084  1.0346  2.4028
23292SOL    HW271298   7.389   5.345   4.183 -2.5435  1.8682 -0.1094
23293SOL     OW71299   7.010   6.417   5.446  1.2914 -0.1646  0.4191
23293SOL    HW171300   7.102   6.433   5.465  1.1514  0.1233  0.8655
23293SOL    HW271301   7.011   6.343   5.384  1.7648 -1.1428  1.5447
23294SOL     OW71302   7.723   8.038   0.785  0.0055 -0.4642 -0.3505
23294SOL    HW171303   7.648   8.079   0.742 -0.9254  0.3419  1.8917
23294SOL    HW271304   7.685   7.968   0.838  0.7200  0.2838  1.2213
23295SOL     OW71305   2.226   0.394   4.527  0.0937 -0.3773 -0.2159
23295SOL    HW171306   2.296   0.415   4.589 -0.2150  0.1831 -0.0507
23295SOL    HW271307   2.204   0.302   4.545  0.3522 -0.3653  0.1574
23296SOL     OW71308   4.134   3.882   6.561  0.4027  0.2984 -0.2417
23296SOL    HW171309   4.186   3.937   6.620 -0.1105 -0.0619  0.5551
23296SOL    HW271310   4.177   3.893   6.475 -0.1432  2.5590 -0.2938
23297SOL     OW71311   7.991   4.988   6.251 -0.8796  0.4360  0.2002
23297SOL    HW171312   8.049   4.982   6.175 -1.2179 -0.6370  0.0089
23297SOL    HW271313   8.014   5.071   6.292 -0.5426  0.9293 -0.9513
23298SOL     OW71314   0.919   5.616   0.669 -0.0403 -0.3512 -0.0108
23298SOL    HW171315   0.929   5.674   0.593 -0.9434 -0.9340 -0.5980
23298SOL    HW271316   0.972   5.539   0.648  1.1170  0.2128  0.7465
23299SOL     OW71317   9.196   7.826   3.421  0.0665  0.1678 -0.6037
23299SOL    HW171318   9.259   7.826   3.493 -0.1070 -0.2201 -0.4522
23299SOL    HW271319   9.191   7.735   3.393 -0.7561  0.1268 -0.3351
23300SOL     OW71320   3.903   0.720   4.250 -0.7272  0.3083  0.6128
23300SOL    HW171321   3.813   0.689   4.263 -0.4811 -0.5128  0.4652
23300SOL    HW271322   3.905   0.748   4.158 -0.8649  0.4531  0.6526
23301SOL     OW71323   8.392   5.387   7.812  0.2738  0.0625 -0.5322
23301SOL    HW171324   8.314   5.416   7.764 -1.3148 -2.5148  0.2849
23301SOL    HW271325   8.397   5.293   7.795  0.9628 -0.5507  2.4905
23302SOL     OW71326   1.897   8.710   3.405 -0.2690 -0.6134 -0.2278
23302SOL    HW171327   1.836   8.702   3.332  0.4688 -0.7365 -0.8473
23302SOL    HW271328   1.927   8.801   3.401 -0.3483 -0.5751  0.0211
23303SOL     OW71329   6.135   0.002   1.295  0.4458 -0.7676  0.0477
23303SOL    HW171330   6.114  -0.066   1.231  1.8283  0.0909 -1.3856
23303SOL    HW271331   6.204   0.054   1.253  0.1302  0.9161  1.5168
23304SOL     OW71332   2.436   6.949   1.723  0.0400  0.2013 -0.5450
23304SOL    HW171333   2.527   6.933   1.750  0.4494  1.7385 -0.9074
23304SOL    HW271334   2.410   6.869   1.679  0.2830 -1.3265  1.9078
23305SOL     OW71335   3.286   2.404   7.159 -0.3431  0.1668  0.1740
23305SOL    HW171336   3.359   2.411   7.222 -0.9706 -2.1562  1.2592
23305SOL    HW271337   3.222   2.349   7.204 -1.5878 -0.1111 -1.8622
23306SOL     OW71338   5.673   8.127   0.253  0.5835  0.2623  0.4379
23306SOL    HW171339   5.675   8.127   0.157  0.0945 -2.6369  0.3539
23306SOL    HW271340   5.659   8.219   0.276  2.5614  1.3546 -2.1777
23307SOL     OW71341   8.521   1.832   0.466  0.2250 -0.1240  0.4698
23307SOL    HW171342   8.451   1.887   0.502 -0.0780 -1.0012  1.2440
23307SOL    HW271343   8.481   1.787   0.392 -0.5826 -1.9321  1.9367
23308SOL     OW71344   8.408   1.361   1.200  0.6161  0.3194  0.5853
23308SOL    HW171345   8.401   1.409   1.283  1.4493 -1.5263  1.8097
23308SOL    HW271346   8.488   1.308   1.210  0.8062  0.1275 -1.4678
23309SOL     OW71347   1.656   0.354   6.630  0.3390  0.1978  0.3844
23309SOL    HW171348   1.563   0.345   6.611  0.3421  0.5762  0.1641
23309SOL    HW271349   1.681   0.436   6.587  1.1784 -0.7955 -1.0828
23310SOL     OW71350   7.470   5.821   9.101  0.3324 -0.2090  0.4953
23310SOL    HW171351   7.432   5.753   9.045  0.9383  0.3689 -0.6630
23310SOL    HW271352   7.443   5.797   9.190 -0.8556 -1.0212 -0.0611
23311SOL     OW71353   2.483   3.990   3.038  0.1343 -0.0600  0.5108
23311SOL    HW171354   2.505   3.994   2.945  0.1156 -0.6078  0.4778
23311SOL    HW271355   2.433   4.070   3.055  1.7277  0.9755  0.4908
23312SOL     OW71356   5.587   8.308   1.618  0.2644  0.3581  0.4849
23312SOL    HW171357   5.592   8.399   1.588  1.8086  0.2647  0.4082
23312SOL    HW271358   5.497   8.298   1.649 -0.3245  1.5229 -0.7439
23313SOL     OW71359   5.914   7.811   6.298  0.1923  0.2236 -0.8265
23313SOL    HW171360   5.899   7.775   6.210 -1.2814  0.2262 -0.5981
23313SOL    HW271361   5.940   7.736   6.351 -1.9612 -0.4034 -0.5662
23314SOL     OW71362   3.607   2.751   7.106 -0.3276  0.0988 -0.3443
23314SOL    HW171363   3.517   2.744   7.137 -0.8178  2.7176 -0.8822
23314SOL    HW271364   3.652   2.802   7.174  0.9937 -1.7660  0.2630
23315SOL     OW71365   5.287   8.148   2.665 -0.0929  0.4341 -0.5526
23315SOL    HW171366   5.233   8.223   2.690  2.0678  1.7849  0.3298
23315SOL    HW271367   5.346   8.182   2.599  0.4056 -0.7193 -0.7179
23316SOL     OW71368   8.156   4.300   0.434 -0.3867 -0.4795  0.2981
23316SOL    HW171369   8.061   4.294   0.419 -0.7561  1.7394  1.2959
23316SOL    HW271370   8.191   4.219   0.398 -2.7825 -1.8985  0.9136
23317SOL     OW71371   3.659   1.438   4.830  0.1339  0.1081 -0.1968
23317SOL    HW171372   3.687   1.517   4.875  1.3814 -0.9754  1.0182
23317SOL    HW271373   3.568   1.455   4.805 -0.3450  1.0819  1.9940
23318SOL     OW71374   6.121   5.101   0.852  0.4647  0.4823 -0.2513
23318SOL    HW171375   6.206   5.142   0.840  0.3661  0.6258 -0.4530
23318SOL    HW271376   6.140   5.023   0.905  0.8920 -0.1281 -1.2574
23319SOL     OW71377   1.795   5.900   9.072 -0.2668  0.0753 -0.2424
23319SOL    HW171378   1.769   5.991   9.077 -0.4501  0.0026  0.1883
23319SOL    HW271379   1.841   5.892   8.988 -0.9521  0.3794 -0.6485
23320SOL     OW71380   5.702   7.890   7.371 -0.0544 -0.0658 -0.1750
23320SOL    HW171381   5.783   7.857   7.408 -0.5580 -0.5848  0.4866
23320SOL    HW271382   5.717   7.891   7.276  0.2183 -1.5682 -0.1686
23321SOL     OW71383   8.631   2.472   4.090  0.2303 -0.1951  0.1623
23321SOL    HW171384   8.716   2.499   4.125 -0.0877  0.8916  0.1245
23321SOL    HW271385   8.590   2.553   4.062 -0.8206 -0.7124  0.1727
23322SOL     OW71386   5.407   7.544   7.797 -0.2985 -0.0293  0.1705
23322SOL    HW171387   5.347   7.617   7.815  0.3711  1.0625 -1.7692
23322SOL    HW271388   5.353   7.466   7.809 -2.0660  0.9102 -1.2184
23323SOL     OW71389   0.574   7.480   6.707 -0.3026 -0.2330  0.7297
23323SOL    HW171390   0.543   7.467   6.617 -1.3490 -0.7954  1.1609
23323SOL    HW271391   0.632   7.406   6.724 -0.6085 -0.4697  0.7364
23324SOL     OW71392   7.096   1.580   6.438 -0.6422  0.3714 -0.3160
23324SOL    HW171393   7.064   1.629   6.363 -0.5410 -1.2693 -1.4631
23324SOL    HW271394   7.169   1.529   6.404 -0.2219  0.0326  1.0410
23325SOL     OW71395   1.048   5.720   2.829  0.3835  0.3151 -0.0261
23325SOL    HW171396   1.097   5.718   2.747 -0.3045 -2.3563 -0.4936
23325SOL    HW271397   1.028   5.628   2.846 -1.8006  1.0313  1.7367
23326SOL     OW71398   5.921   6.968   2.064  0.2587 -0.2328 -0.4367
23326SOL    HW171399   5.906   7.030   2.136 -1.0552 -0.8296 -0.1572
23326SOL    HW271400   6.016   6.964   2.055  0.3876  1.6174 -0.2841
23327SOL     OW71401   5.729   7.579   0.784 -0.0771 -0.2618  0.4900
23327SOL    HW171402   5.772   7.605   0.702  0.5730 -0.8523  0.6289
23327SOL    HW271403   5.651   7.634   0.789 -1.1020 -1.4189 -1.4283
23328SOL     OW71404   4.969   5.347   2.709 -0.2584  0.5856 -0.2697
23328SOL    HW171405   4.916   5.285   2.659 -1.3287  1.9122 -0.8298
23328SOL    HW271406   4.945   5.331   2.800  0.2086 -0.4717 -0.3176
23329SOL     OW71407   5.987   8.813   8.638  0.7468  0.2208  0.3164
23329SOL    HW171408   5.929   8.874   8.594  0.7133 -0.2095 -0.2549
23329SOL    HW271409   5.967   8.728   8.598  1.5486  0.0194  0.3309
23330SOL     OW71410   1.949   8.700   8.617  0.3947 -0.0978 -0.1109
23330SOL    HW171411   1.959   8.744   8.532 -0.2353 -0.8574 -0.5948
23330SOL    HW271412   1.877   8.639   8.603  0.5579 -0.5185  0.8630
23331SOL     OW71413   1.419   7.967   3.551  0.0810 -0.6863  0.5269
23331SOL    HW171414   1.341   8.011   3.586 -0.6145 -1.6846  0.2592
23331SOL    HW271415   1.491   8.026   3.574 -1.0399  1.8788 -1.9932
23332SOL     OW71416   1.911   6.327   4.836 -0.1751 -0.0371  0.5441
23332SOL    HW171417   2.006   6.316   4.829 -0.3496 -1.2400 -0.4048
23332SOL    HW271418   1.886   6.370   4.755 -0.5053 -0.2305  0.5440
23333SOL     OW71419   1.628   3.192   3.858 -0.3355 -0.0805 -0.1145
23333SOL    HW171420   1.687   3.122   3.887 -0.5086 -1.0863 -2.0240
23333SOL    HW271421   1.550   3.180   3.911 -0.7298 -2.0018 -1.0259
23334SOL     OW71422   1.462   7.792   4.641  0.0283  0.6300 -0.4099
23334SOL    HW171423   1.489   7.709   4.680 -0.1889  1.1686  0.9649
23334SOL    HW271424   1.473   7.780   4.547  1.7580 -0.3205 -0.1131
23335SOL     OW71425   8.943   2.814   1.892 -0.0581  0.1698 -0.1383
23335SOL    HW171426   8.858   2.805   1.849 -0.8236  2.9189  0.5928
23335SOL    HW271427   8.922   2.852   1.978  1.9080  1.6302 -0.2333
23336SOL     OW71428   8.839   6.738   4.010  0.1833 -0.1695 -0.6610
23336SOL    HW171429   8.744   6.729   4.007 -0.1694  2.6314 -0.9058
23336SOL    HW271430   8.858   6.761   4.101  0.5515 -0.0714 -0.7600
23337SOL     OW71431   7.273   5.599   4.182 -0.5844 -0.0440 -0.0525
23337SOL    HW171432   7.263   5.634   4.094  0.5930  1.8765  0.4984
23337SOL    HW271433   7.209   5.647   4.235  0.1287  0.3585  0.4756
23338SOL     OW71434   2.779   8.661   4.024  0.2859  0.6939 -0.0638
23338SOL    HW171435   2.711   8.629   3.964 -1.0326  2.4847  0.3944
23338SOL    HW271436   2.749   8.633   4.111  1.3104 -0.4075 -0.0384
23339SOL     OW71437   7.173   7.864   3.216  0.0660 -0.2884  0.2579
23339SOL    HW171438   7.230   7.882   3.141  1.0235  1.2940  1.3179
23339SOL    HW271439   7.149   7.772   3.206  1.7213 -0.6258 -0.9516
23340SOL     OW71440   3.958   1.497   4.284 -0.5386 -0.4988 -0.1578
23340SOL    HW171441   3.919   1.452   4.359  0.2952 -1.0751 -0.0549
23340SOL    HW271442   4.042   1.529   4.317  0.1228 -1.3019 -1.0110
23341SOL     OW71443   6.892   5.887   8.652  0.1826  0.3921  0.3582
23341SOL    HW171444   6.851   5.900   8.737  0.4836 -0.8575  0.7091
23341SOL    HW271445   6.980   5.923   8.661  0.7523 -1.1137  1.0836
23342SOL     OW71446   1.957   8.009   4.844 -0.7453 -0.1899  0.2711
23342SOL    HW171447   2.035   8.023   4.898  0.0528 -0.0081 -0.9056
23342SOL    HW271448   1.911   7.938   4.888 -0.3357  0.2370  1.4272
23343SOL     OW71449   4.165   0.086   9.111 -0.3350 -0.3573  0.1525
23343SOL    HW171450   4.259   0.074   9.124 -0.3272 -2.9300 -1.4138
23343SOL    HW271451   4.158   0.164   9.056  0.9684 -0.6352 -0.4450
23344SOL     OW71452   1.972   1.438   6.283 -0.1761  0.0337 -0.3754
23344SOL    HW171453   2.026   1.484   6.219 -0.2874 -0.8990 -1.1516
23344SOL    HW271454   1.882   1.460   6.258 -0.2979 -1.8770 -1.7631
23345SOL     OW71455   3.596   6.716   6.245  0.4334 -0.4397 -0.1275
23345SOL    HW171456   3.689   6.726   6.227  0.2071 -1.0413 -1.7561
23345SOL    HW271457   3.587   6.625   6.272  0.1040 -0.8622 -1.5873
23346SOL     OW71458   2.236   5.987   3.624 -0.0031  0.4563 -0.0631
23346SOL    HW171459   2.180   5.994   3.547  0.7183  1.1881 -0.5324
23346SOL    HW271460   2.298   5.917   3.604 -1.5814 -1.3838  1.0320
23347SOL     OW71461   3.540   2.431   3.328 -0.0582  0.0404 -0.4317
23347SOL    HW171462   3.528   2.491   3.402 -0.0333  0.3271 -0.6568
23347SOL    HW271463   3.626   2.453   3.292  0.4889 -0.9574  0.2229
23348SOL     OW71464   0.593   4.021   0.171  0.1542  0.5900  0.3498
23348SOL    HW171465   0.517   4.078   0.162 -0.3347 -0.1448 -0.3745
23348SOL    HW271466   0.560   3.945   0.219  0.5519  0.4892  0.4642
23349SOL     OW71467   6.810   7.353   5.265  0.2611 -0.2309 -0.6373
23349SOL    HW171468   6.717   7.355   5.285  0.5360  1.8501  0.7013
23349SOL    HW271469   6.850   7.307   5.339  0.4385  0.1905 -0.4674
23350SOL     OW71470   6.531   6.956   8.680 -0.1198  0.3640  0.6106
23350SOL    HW171471   6.600   7.020   8.661 -0.8646  0.6023 -1.5363
23350SOL    HW271472   6.578   6.879   8.711  1.0411  0.8830  0.2018
23351SOL     OW71473   1.295   4.323   8.826 -0.2439 -0.2048  0.2312
23351SOL    HW171474   1.207   4.361   8.834 -0.0034  0.1530  1.2925
23351SOL    HW271475   1.354   4.393   8.856  0.3577 -0.6906  0.2050
23352SOL     OW71476   7.460   8.342   1.263 -0.1058 -0.3939  0.4888
23352SOL    HW171477   7.390   8.401   1.234 -0.8312 -1.2936  0.3535
23352SOL    HW271478   7.540   8.392   1.249 -0.7535  0.9594  1.3774
23353SOL     OW71479   5.507   4.201   2.183  0.5797 -0.4567  0.6715
23353SOL    HW171480   5.456   4.277   2.157 -1.3920 -2.0570 -0.4110
23353SOL    HW271481   5.596   4.221   2.154 -0.2217  0.7348 -1.1243
23354SOL     OW71482   4.457   4.474   7.976  0.0924 -0.0764  0.0989
23354SOL    HW171483   4.389   4.456   8.040 -0.5868  0.8887 -0.3185
23354SOL    HW271484   4.458   4.396   7.920  0.2356 -0.6405  0.8687
23355SOL     OW71485   7.783   2.512   4.367  0.5348  0.3536  0.2266
23355SOL    HW171486   7.779   2.597   4.411 -0.5301  1.3912 -1.7740
23355SOL    HW271487   7.721   2.519   4.295 -0.2078 -2.4409  0.4909
23356SOL     OW71488   1.395   3.063   6.873  0.1902 -0.3359  0.0930
23356SOL    HW171489   1.444   2.993   6.830 -1.1877 -1.2639 -0.0489
23356SOL    HW271490   1.430   3.144   6.837 -0.4393 -1.0617 -2.3125
23357SOL     OW71491   8.255   7.154   6.446  0.3404 -0.3816 -0.7291
23357SOL    HW171492   8.204   7.084   6.486 -0.4179 -0.6109 -2.0410
23357SOL    HW271493   8.334   7.159   6.499 -1.1335  0.1826  1.5388
23358SOL     OW71494   0.647   5.658   5.791 -0.3946 -0.1394 -0.4129
23358SOL    HW171495   0.693   5.721   5.846 -0.8162  0.2118 -0.4516
23358SOL    HW271496   0.569   5.705   5.761 -0.6960 -0.6653 -0.4765
23359SOL     OW71497   1.018   6.039   6.307 -0.8740  0.0850 -0.4120
23359SOL    HW171498   1.013   6.133   6.288  0.0331  0.1240 -0.5248
23359SOL    HW271499   1.062   6.034   6.392 -3.8762 -0.1339  1.2612
23360SOL     OW71500   3.251   8.965   0.696  0.3003 -0.7677 -0.0471
23360SOL    HW171501   3.174   8.929   0.742  0.3453  0.1507  0.7945
23360SOL    HW271502   3.304   9.003   0.766  1.2319 -0.8538 -0.6973
23361SOL     OW71503   8.678   8.321   8.883 -0.0548  0.0161  0.6108
23361SOL    HW171504   8.727   8.347   8.805 -2.8448  1.5968 -0.7660
23361SOL    HW271505   8.635   8.240   8.858  1.0197 -0.8646  1.4915
23362SOL     OW71506   7.032   4.973   5.300  0.3133  0.0422  0.0841
23362SOL    HW171507   7.035   5.049   5.358  0.7839  1.5242 -1.7915
23362SOL    HW271508   7.114   4.976   5.251  0.0661 -1.3303 -0.4806
23363SOL     OW71509   0.014   5.567   4.658  0.4858 -0.1961  0.2019
23363SOL    HW171510   0.074   5.532   4.724 -0.1376 -3.5251 -0.8156
23363SOL    HW271511   0.071   5.595   4.586  0.9401 -1.2520  0.1403
23364SOL     OW71512   4.017   3.986   8.373  0.1708  0.1846  0.3490
23364SOL    HW171513   3.973   4.033   8.444  2.5000  1.4985  1.0316
23364SOL    HW271514   4.021   3.895   8.404 -0.5573  0.3722  1.0176
23365SOL     OW71515   0.400   1.022   5.375  0.1594 -0.4244  0.1484
23365SOL    HW171516   0.346   1.097   5.350  0.0906 -1.0497 -1.7124
23365SOL    HW271517   0.480   1.032   5.325 -0.6381 -2.6008 -1.7380
23366SOL     OW71518   4.512   2.020   4.994 -0.0863 -0.2920 -0.2491
23366SOL    HW171519   4.515   2.087   5.062  3.2934 -1.0142  0.5073
23366SOL    HW271520   4.538   2.066   4.914 -0.6850 -0.1419 -0.3643
23367SOL     OW71521   1.053   8.806   3.718  0.3038 -0.3922  0.1951
23367SOL    HW171522   0.968   8.845   3.696 -0.5684 -2.4791 -0.3396
23367SOL    HW271523   1.116   8.860   3.671 -0.6191  1.6324  1.1624
23368SOL     OW71524   6.585   5.074   1.736 -0.4768 -0.3760  0.2461
23368SOL    HW171525   6.653   5.093   1.800 -1.2306  1.1313  0.6494
23368SOL    HW271526   6.602   4.984   1.709  1.2886 -0.2490  0.7914
23369SOL     OW71527   0.674   0.169   3.819  0.1316  0.0614  0.3225
23369SOL    HW171528   0.758   0.193   3.859 -0.5378  2.8452  0.2320
23369SOL    HW271529   0.695   0.149   3.728  0.6764  1.1905  0.1820
23370SOL     OW71530   5.003   2.867   6.890  0.5352  0.3120  0.4008
23370SOL    HW171531   4.932   2.911   6.845  0.6538  0.1089  0.0142
23370SOL    HW271532   5.059   2.833   6.820  1.1946  0.7663  0.6927
23371SOL     OW71533   5.645   8.201   4.097 -0.3588  0.3270 -0.2513
23371SOL    HW171534   5.592   8.213   4.018  0.6362  1.2904 -0.7969
23371SOL    HW271535   5.652   8.289   4.135  0.3925  0.1150  0.1152
23372SOL     OW71536   5.884   7.129   2.753 -0.1420  0.1216 -0.0667
23372SOL    HW171537   5.838   7.056   2.795 -2.8397  1.8840  0.2839
23372SOL    HW271538   5.954   7.150   2.814 -0.2895 -1.1727  0.5977
23373SOL     OW71539   1.042   3.640   0.729  0.3201 -0.7476  0.3165
23373SOL    HW171540   0.989   3.702   0.778  1.6279 -0.1914  1.0849
23373SOL    HW271541   0.992   3.624   0.648 -0.5278  0.5039  0.5630
23374SOL     OW71542   4.680   5.175   6.792 -0.1383  0.3576  0.2745
23374SOL    HW171543   4.625   5.229   6.849  1.2458  1.5954  0.5093
23374SOL    HW271544   4.681   5.222   6.709 -0.8224 -0.5833 -0.2847
23375SOL     OW71545   4.639   1.966   6.572  0.5391 -0.6678  0.0571
23375SOL    HW171546   4.671   2.055   6.554  0.7412 -1.1660 -2.4070
23375SOL    HW271547   4.545   1.977   6.586  0.8765  0.1556  2.1304
23376SOL     OW71548   6.142   0.285   5.042  0.2727 -0.0876  0.1494
23376SOL    HW171549   6.237   0.294   5.033  0.0718  2.0602 -0.4278
23376SOL    HW271550   6.117   0.226   4.971  1.1361 -0.5086  0.1800
23377SOL     OW71551   7.281   7.903   5.423  0.2802  0.0782  0.3061
23377SOL    HW171552   7.313   7.991   5.442 -2.2124  1.0301  0.4941
23377SOL    HW271553   7.323   7.848   5.489  1.2656  1.2559  0.6995
23378SOL     OW71554   3.451   0.548   2.828 -0.5832 -0.5005  0.1647
23378SOL    HW171555   3.446   0.643   2.813  0.0320 -0.1466  1.8984
23378SOL    HW271556   3.422   0.537   2.918 -0.9429 -2.0243 -0.1119
23379SOL     OW71557   5.388   4.639   3.972  0.0786 -0.0984 -0.6131
23379SOL    HW171558   5.310   4.623   3.919 -0.6257  1.5847 -0.1388
23379SOL    HW271559   5.371   4.592   4.054 -0.0273 -0.4879 -0.8551
23380SOL     OW71560   1.540   0.061   5.110  0.4990  0.7359  0.0307
23380SOL    HW171561   1.566   0.150   5.136  0.0925  0.6956  0.6103
23380SOL    HW271562   1.597   0.040   5.036  0.3958  1.5943 -0.3090
23381SOL     OW71563   8.110   4.551   7.924  0.0703 -0.0429  0.3792
23381SOL    HW171564   8.078   4.638   7.946  2.1228  0.6412  0.8623
23381SOL    HW271565   8.088   4.540   7.831 -1.1487  0.5347  0.5826
23382SOL     OW71566   3.342   1.609   1.972  0.6502  0.0806  0.3040
23382SOL    HW171567   3.309   1.688   1.929  1.5991 -0.3474 -1.3059
23382SOL    HW271568   3.406   1.573   1.910  0.0939 -2.0762  0.8954
23383SOL     OW71569   6.613   8.219   5.605 -0.2567 -0.0247  0.3185
23383SOL    HW171570   6.525   8.238   5.572 -0.6469 -1.0494  0.7340
23383SOL    HW271571   6.668   8.216   5.527 -0.6855  0.0959  0.0084
23384SOL     OW71572   6.166   1.389   2.076 -0.3066 -0.0278  0.1960
23384SOL    HW171573   6.117   1.317   2.118  0.3688 -0.8675 -0.4306
23384SOL    HW271574   6.238   1.407   2.136  0.7842 -1.3759 -0.6554
23385SOL     OW71575   1.647   8.263   6.010 -0.1771 -0.3933 -0.1553
23385SOL    HW171576   1.640   8.356   5.988 -0.0886 -0.5131 -0.7098
23385SOL    HW271577   1.704   8.261   6.087 -1.2341  0.1096  0.6708
23386SOL     OW71578   5.271   3.636   2.958  0.4341  0.2846 -0.0877
23386SOL    HW171579   5.221   3.608   2.881  0.2208  1.7037 -0.5101
23386SOL    HW271580   5.314   3.557   2.990 -2.0160 -0.9946  0.2518
23387SOL     OW71581   2.924   3.391   2.875 -0.3247  0.3074 -0.0239
23387SOL    HW171582   2.848   3.334   2.885  0.8103 -1.1073  0.8559
23387SOL    HW271583   2.927   3.442   2.956 -0.0992  0.0656  0.1203
23388SOL     OW71584   0.504   8.373   7.031 -0.1085 -0.2305  0.4179
23388SOL    HW171585   0.508   8.460   6.992  0.6953 -0.2802  0.3817
23388SOL    HW271586   0.433   8.378   7.094 -0.2181  0.3803  0.2494
23389SOL     OW71587   7.954   4.413   7.663 -0.0317 -0.0533  1.0599
23389SOL    HW171588   7.969   4.373   7.577 -1.5135  2.9892 -0.7538
23389SOL    HW271589   7.990   4.501   7.656 -0.7456  0.5079  3.3796
23390SOL     OW71590   0.229   1.838   6.634  0.1157  0.3837  0.1671
23390SOL    HW171591   0.210   1.820   6.726 -0.1955 -1.6670 -0.2500
23390SOL    HW271592   0.325   1.837   6.630  0.1295  0.3435  0.4427
23391SOL     OW71593   3.664   1.176   7.933  0.2995  0.3284 -0.5070
23391SOL    HW171594   3.692   1.230   8.007  0.4821  1.0827 -1.1091
23391SOL    HW271595   3.730   1.190   7.866  0.2377 -0.4991 -0.7552
23392SOL     OW71596   8.660   5.884   3.514  0.2277  0.2506 -0.2489
23392SOL    HW171597   8.691   5.818   3.452  1.3110  1.0587 -0.5889
23392SOL    HW271598   8.588   5.927   3.470 -1.3596 -1.5116  0.4691
23393SOL     OW71599   2.194   2.415   2.157  0.2152  0.3825  0.0100
23393SOL    HW171600   2.167   2.427   2.066 -1.0319  2.3616  0.5696
23393SOL    HW271601   2.115   2.383   2.201 -0.1501  2.4666  0.9493
23394SOL     OW71602   1.891   9.044   2.236  0.2972  0.1299  0.5567
23394SOL    HW171603   1.972   8.994   2.233  0.1551 -0.0940 -1.8730
23394SOL    HW271604   1.823   8.979   2.255  0.5866  0.2198  1.9986
23395SOL     OW71605   7.146   6.638   3.912  0.2782  0.1161 -0.6458
23395SOL    HW171606   7.108   6.559   3.874 -0.7287 -0.9477  2.2316
23395SOL    HW271607   7.224   6.607   3.958  1.9603  1.4803 -2.4139
23396SOL     OW71608   5.060   6.261   4.416 -0.2696  0.2219 -0.2495
23396SOL    HW171609   5.021   6.257   4.503 -0.7130 -1.9135 -0.5008
23396SOL    HW271610   4.995   6.306   4.362  0.0784  1.7086  0.5165
23397SOL     OW71611   1.646   6.487   8.400  0.0753  0.1235 -0.1120
23397SOL    HW171612   1.718   6.542   8.433 -0.8128  0.5285  1.2319
23397SOL    HW271613   1.568   6.542   8.408 -0.5103 -0.5757 -0.8439
23398SOL     OW71614   5.666   3.488   5.977  0.1064 -0.1707  0.0781
23398SOL    HW171615   5.645   3.556   5.913  2.5760  1.0677  0.4360
23398SOL    HW271616   5.704   3.536   6.051  1.1940 -1.8645  0.6822
23399SOL     OW71617   6.314   0.036   8.865  0.2955 -0.3850  0.6385
23399SOL    HW171618   6.310   0.046   8.960 -1.5855 -0.0294  0.5609
23399SOL    HW271619   6.312   0.126   8.831 -2.6396 -0.5020  0.2392
23400SOL     OW71620   7.527   2.655   4.688 -0.3080 -0.4448 -0.2074
23400SOL    HW171621   7.559   2.725   4.745  1.8157 -1.6846  0.2554
23400SOL    HW271622   7.432   2.667   4.686 -0.3620  0.4163  2.5941
23401SOL     OW71623   0.204   1.623   4.948  0.5351  0.8380 -0.7697
23401SOL    HW171624   0.201   1.660   4.860  0.0055  1.7629 -0.3859
23401SOL    HW271625   0.294   1.637   4.976  0.9232 -0.1920 -1.4471
23402SOL     OW71626   3.443   5.864   5.049 -0.0086 -0.0725 -0.6236
23402SOL    HW171627   3.373   5.830   4.995  0.7150  0.3987 -1.8913
23402SOL    HW271628   3.523   5.846   5.000  0.7907 -0.5854  0.7758
23403SOL     OW71629   5.282   2.505   8.621 -0.3109 -0.1094 -0.6243
23403SOL    HW171630   5.307   2.501   8.529 -0.2361  1.5483 -0.7034
23403SOL    HW271631   5.273   2.413   8.647 -1.1381 -0.6066 -2.4782
23404SOL     OW71632   8.920   6.353   4.182 -0.3048 -0.0043 -0.6396
23404SOL    HW171633   9.008   6.350   4.220 -0.9089 -0.4520  0.7844
23404SOL    HW271634   8.863   6.380   4.255 -1.5970 -1.5092 -1.0442
23405SOL     OW71635   4.771   0.570   9.220  0.1274 -0.1957 -0.4115
23405SOL    HW171636   4.842   0.615   9.173 -0.2091 -2.4583 -3.3307
23405SOL    HW271637   4.713   0.539   9.152 -2.1755 -0.9762  1.7616
23406SOL     OW71638   8.828   7.785   7.936  0.2746  0.1882  0.0410
23406SOL    HW171639   8.792   7.747   7.856  1.3376 -0.7710 -0.0038
23406SOL    HW271640   8.765   7.762   8.004  0.2492 -0.5440 -0.2169
23407SOL     OW71641   1.160   0.853   8.841  0.4091 -0.5767 -0.3591
23407SOL    HW171642   1.222   0.867   8.913  0.4662 -2.7838  0.0688
23407SOL    HW271643   1.136   0.942   8.813  1.4344  0.3318  1.4611
23408SOL     OW71644   8.579   4.433   8.782  0.7551  0.2699  0.0839
23408SOL    HW171645   8.597   4.344   8.812  2.3253  0.6346  0.3126
23408SOL    HW271646   8.597   4.489   8.858 -2.5525  0.6816  0.7411
23409SOL     OW71647   4.755   7.323   3.770  0.2611 -0.1749 -0.0096
23409SOL    HW171648   4.673   7.372   3.776  1.1931  1.5849 -1.1221
23409SOL    HW271649   4.770   7.310   3.677  1.5026 -0.0522  0.1562
23410SOL     OW71650   6.878   1.031   7.946 -0.0611 -0.3121  0.4339
23410SOL    HW171651   6.901   1.103   7.887 -2.3534 -1.3308 -1.8946
23410SOL    HW271652   6.953   0.972   7.944 -0.0819 -0.3348 -1.5771
23411SOL     OW71653   7.461   4.590   4.794 -0.2594 -0.0798 -0.3260
23411SOL    HW171654   7.434   4.674   4.831  0.4012  1.1862 -2.5084
23411SOL    HW271655   7.526   4.556   4.855 -0.9728  0.6787  0.9074
23412SOL     OW71656   2.407   0.791   3.287  0.9869 -0.0007  0.5618
23412SOL    HW171657   2.409   0.791   3.383  0.7160  3.2813  0.6841
23412SOL    HW271658   2.317   0.813   3.264  1.1898 -0.1340 -0.4275
23413SOL     OW71659   6.866   0.613   5.170  0.1981  1.1915  0.2288
23413SOL    HW171660   6.780   0.631   5.210 -1.1399  0.0228 -1.9214
23413SOL    HW271661   6.910   0.556   5.233 -2.2095 -1.3796 -0.1871
23414SOL     OW71662   9.210   5.160   2.506 -0.5953  0.3309  0.3728
23414SOL    HW171663   9.228   5.185   2.597  1.3998  0.3702  0.0036
23414SOL    HW271664   9.235   5.237   2.455  3.1134 -1.2576 -0.5614
23415SOL     OW71665   2.625   1.643   3.222  0.4680 -0.4470  0.2301
23415SOL    HW171666   2.655   1.598   3.143  1.2218 -0.1234  0.3303
23415SOL    HW271667   2.555   1.701   3.191 -0.6485 -1.7789  0.1205
23416SOL     OW71668   4.320   2.478   8.434 -0.4525  0.3320  0.0662
23416SOL    HW171669   4.402   2.428   8.431 -1.4380 -1.3528 -2.9129
23416SOL    HW271670   4.272   2.441   8.508  0.4363 -0.4660  0.2614
23417SOL     OW71671   8.609   3.436   1.930  0.0695  0.2762  0.3364
23417SOL    HW171672   8.588   3.409   1.840  0.7543  0.1351  0.2120
23417SOL    HW271673   8.692   3.483   1.922  1.3281 -1.6889  1.1864
23418SOL     OW71674   8.545   1.996   4.227  0.1484  0.3734 -0.3901
23418SOL    HW171675   8.542   1.953   4.313  3.0209  0.3755 -0.2110
23418SOL    HW271676   8.511   2.084   4.244  0.9088  0.4615  0.8302
23419SOL     OW71677   6.518   3.573   2.317  0.4097  0.2192 -0.0023
23419SOL    HW171678   6.440   3.577   2.371  0.8410 -1.1680  0.7814
23419SOL    HW271679   6.488   3.538   2.233  0.0830  0.3872  0.0439
23420SOL     OW71680   1.112   1.374   1.140 -0.4886  0.0641  0.0027
23420SOL    HW171681   1.175   1.400   1.072  0.1097  1.5160  1.0542
23420SOL    HW271682   1.137   1.284   1.162  0.3483  0.1440 -0.5559
23421SOL     OW71683   3.372   8.631   8.849  0.1907  0.1305  1.1024
23421SOL    HW171684   3.383   8.622   8.755 -0.3954  0.0589  1.0356
23421SOL    HW271685   3.305   8.698   8.859 -0.2035 -0.3112  1.4523
23422SOL     OW71686   8.038   1.648   0.364 -0.1030  0.5540  1.0795
23422SOL    HW171687   7.973   1.589   0.327  0.2974  0.4569  0.5236
23422SOL    HW271688   8.040   1.627   0.458 -0.9412  0.6337  1.1164
23423SOL     OW71689   6.171   6.745   7.531  0.3306  0.1253  0.2055
23423SOL    HW171690   6.187   6.690   7.608 -1.5471 -1.1063 -0.2245
23423SOL    HW271691   6.232   6.818   7.541  2.6874 -1.8142  1.0029
23424SOL     OW71692   6.199   3.719   5.254  0.3089  0.6883  0.2281
23424SOL    HW171693   6.274   3.680   5.208 -1.6619  0.0113 -2.6597
23424SOL    HW271694   6.215   3.698   5.346  2.0724 -2.2472 -0.5909
23425SOL     OW71695   7.676   8.311   6.863 -0.1036 -0.1682  0.2696
23425SOL    HW171696   7.614   8.275   6.926  0.8249  0.1508  1.4111
23425SOL    HW271697   7.722   8.234   6.828 -0.2164 -0.3097  0.4314
23426SOL     OW71698   3.265   2.879   6.618 -0.6335  0.3148  0.4165
23426SOL    HW171699   3.312   2.956   6.586 -0.8979  1.4646  2.5796
23426SOL    HW271700   3.312   2.804   6.581  0.5931  1.4852 -0.4880
23427SOL     OW71701   3.434   4.320   7.184  0.6443  0.4889 -0.1717
23427SOL    HW171702   3.351   4.334   7.137 -0.1578 -0.0319  1.0362
23427SOL    HW271703   3.435   4.388   7.251 -0.7749 -1.7890  2.3754
23428SOL     OW71704   1.430   5.599   5.146 -0.1313  0.0193  0.0008
23428SOL    HW171705   1.399   5.530   5.087  0.1907 -0.1798  0.0576
23428SOL    HW271706   1.521   5.574   5.165  0.5308  1.3115 -1.2578
23429SOL     OW71707   5.497   2.421   3.566 -0.7284  0.1840 -0.4473
23429SOL    HW171708   5.573   2.365   3.585 -1.7295 -0.9631  0.3128
23429SOL    HW271709   5.526   2.476   3.493  1.4617  1.0936  1.0058
23430SOL     OW71710   5.035   0.069   3.301 -0.1709  0.8875 -0.1280
23430SOL    HW171711   4.965   0.130   3.322 -1.4938  0.6076 -3.2201
23430SOL    HW271712   4.993   0.002   3.247  2.0202 -0.6920 -0.0196
23431SOL     OW71713   3.745   6.739   6.877  0.1591  0.1248  0.2966
23431SOL    HW171714   3.817   6.787   6.836  0.4142  0.6477  1.3337
23431SOL    HW271715   3.786   6.687   6.946 -0.3911  0.0864  0.6038
23432SOL     OW71716   1.110   3.355   4.000  0.3518  0.0662 -0.0527
23432SOL    HW171717   1.201   3.339   4.027  0.8820 -0.0120 -1.7566
23432SOL    HW271718   1.093   3.288   3.933 -0.6382  0.6854 -0.4369
23433SOL     OW71719   8.023   1.973   2.008 -0.0376  0.1014  0.3120
23433SOL    HW171720   8.059   2.048   2.055  0.6312 -0.1522  0.2097
23433SOL    HW271721   7.979   1.922   2.076  1.7792 -0.7873  0.8873
23434SOL     OW71722   7.657   6.161   5.128  0.1843  0.4053 -0.0734
23434SOL    HW171723   7.573   6.115   5.133  0.8409 -0.8178 -0.0513
23434SOL    HW271724   7.652   6.209   5.045  0.4783 -1.7713 -1.4250
23435SOL     OW71725   8.546   8.020   3.634 -0.0130 -0.1113  0.2811
23435SOL    HW171726   8.614   8.036   3.568  0.3065  0.2570  0.6963
23435SOL    HW271727   8.520   7.929   3.619 -0.3107  0.1184 -0.6899
23436SOL     OW71728   8.583   8.650   2.383  0.0962  0.3924 -0.4385
23436SOL    HW171729   8.630   8.683   2.459 -0.5609 -0.6467  0.4479
23436SOL    HW271730   8.649   8.644   2.314  0.9661  0.2157  0.4001
23437SOL     OW71731   2.591   7.669   5.797 -0.1652 -0.3937 -0.8645
23437SOL    HW171732   2.635   7.743   5.838 -0.3246 -1.8246  2.2140
23437SOL    HW271733   2.662   7.619   5.756  0.5475 -0.5324  0.4707
23438SOL     OW71734   0.884   2.678   3.518  0.2855 -0.3200  0.0466
23438SOL    HW171735   0.803   2.630   3.501  0.6791 -1.3848  1.0795
23438SOL    HW271736   0.936   2.665   3.439 -0.2537 -0.2113 -0.3402
23439SOL     OW71737   4.052   1.172   8.806 -0.9604  0.0060  0.0199
23439SOL    HW171738   4.124   1.124   8.764 -1.2253 -0.2872 -0.1059
23439SOL    HW271739   4.071   1.264   8.788 -1.3316 -0.1329 -1.1949
23440SOL     OW71740   3.420   2.848   0.119  0.4728  0.4706 -0.4787
23440SOL    HW171741   3.381   2.909   0.056 -0.3194 -1.3571 -1.8511
23440SOL    HW271742   3.500   2.817   0.077 -0.5127 -1.4432 -1.0964
23441SOL     OW71743   3.145   1.187   7.417 -1.1722 -0.0900  0.7919
23441SOL    HW171744   3.135   1.195   7.323 -1.5661  1.1891  0.9300
23441SOL    HW271745   3.056   1.173   7.450 -1.1314  0.2463  1.0450
23442SOL     OW71746   6.791   1.305   0.296  0.0778 -0.2310 -0.4845
23442SOL    HW171747   6.869   1.252   0.279  1.1138  0.8691  0.6247
23442SOL    HW271748   6.729   1.280   0.228  2.4795  1.0740 -3.3767
23443SOL     OW71749   1.293   3.675   5.294 -0.2168  0.0716  0.6572
23443SOL    HW171750   1.315   3.583   5.309 -1.5884 -0.3502  0.1740
23443SOL    HW271751   1.217   3.691   5.350 -0.8340  0.5188 -0.2829
23444SOL     OW71752   3.541   3.325   4.659  0.0359 -0.0779 -0.3994
23444SOL    HW171753   3.461   3.378   4.653  0.4083  0.3531 -2.2500
23444SOL    HW271754   3.553   3.291   4.571  2.0399  0.0886 -0.2271
23445SOL     OW71755   7.330   1.786   3.214  0.5618 -0.2756 -0.3287
23445SOL    HW171756   7.345   1.746   3.300  1.0661  0.3097 -0.1414
23445SOL    HW271757   7.237   1.810   3.215  1.1917  2.4230  1.2227
23446SOL     OW71758   3.418   5.458   2.130 -0.6962 -0.6360  0.2618
23446SOL    HW171759   3.467   5.489   2.054  1.6072 -1.1008  1.4964
23446SOL    HW271760   3.445   5.515   2.201 -0.3452 -2.1942  1.4268
23447SOL     OW71761   5.579   8.829   3.872 -0.1587  0.2759  0.2499
23447SOL    HW171762   5.510   8.888   3.900 -0.2858  0.3014 -0.1090
23447SOL    HW271763   5.607   8.863   3.786 -0.6350 -0.5166 -0.2260
23448SOL     OW71764   1.084   4.547   3.357 -0.1269  0.2678  0.3633
23448SOL    HW171765   1.144   4.474   3.340 -1.3587 -0.4583 -1.2796
23448SOL    HW271766   1.053   4.572   3.270  1.2962  3.7610  0.7126
23449SOL     OW71767   2.766   6.825   8.506  0.3527 -0.2014 -0.0004
23449SOL    HW171768   2.739   6.915   8.527  1.3516  0.4746 -1.3942
23449SOL    HW271769   2.800   6.831   8.416  2.3074 -1.5570  0.5808
23450SOL     OW71770   7.212   7.273   9.034  0.2056 -0.0715  0.2313
23450SOL    HW171771   7.222   7.367   9.023  1.1117  0.1039  2.1425
23450SOL    HW271772   7.240   7.236   8.950  1.1276  1.2882 -0.0952
23451SOL     OW71773   5.959   0.591   4.918 -0.0213  0.0135  0.2948
23451SOL    HW171774   5.992   0.661   4.862 -0.6299  0.4198  0.4304
23451SOL    HW271775   5.867   0.580   4.891 -0.4781  0.5730  1.5380
23452SOL     OW71776   0.144   3.096   5.370 -0.4583 -0.5338  0.1508
23452SOL    HW171777   0.184   3.012   5.347  1.5037  0.4511 -0.2390
23452SOL    HW271778   0.137   3.143   5.287  0.8991  0.6605  0.6728
23453SOL     OW71779   2.100   2.232   5.707  0.0437  0.2944  0.5373
23453SOL    HW171780   2.153   2.154   5.687  1.4621  1.0035  1.3351
23453SOL    HW271781   2.085   2.273   5.622 -0.4403 -0.6577  0.1432
23454SOL     OW71782   4.610   2.983   8.796 -0.3414  0.0127 -0.0358
23454SOL    HW171783   4.671   2.999   8.723 -1.3953 -0.3501 -1.0190
23454SOL    HW271784   4.583   2.892   8.785 -2.8072  0.7913 -0.9984
23455SOL     OW71785   7.250   2.476   1.545 -0.2561 -0.5426 -0.1050
23455SOL    HW171786   7.260   2.384   1.569  0.7879 -0.6263 -0.7955
23455SOL    HW271787   7.334   2.499   1.505 -1.3070  0.0524 -2.0899
23456SOL     OW71788   3.197   3.060   2.315  0.3196  0.0201 -0.0747
23456SOL    HW171789   3.167   3.052   2.225  0.7303  1.8913 -0.4186
23456SOL    HW271790   3.292   3.046   2.310  0.1808 -1.1912  0.2981
23457SOL     OW71791   3.766   2.068   0.513  0.1692  0.0349 -0.0219
23457SOL    HW171792   3.821   2.144   0.492 -0.9250  1.6102  2.4346
23457SOL    HW271793   3.678   2.104   0.522 -0.4504 -1.6043  0.7841
23458SOL     OW71794   9.075   7.190   0.705 -0.0506  0.1838 -0.1318
23458SOL    HW171795   9.156   7.209   0.751  0.4984 -0.6421 -0.7384
23458SOL    HW271796   9.015   7.260   0.732  0.9276  0.9404  0.1258
23459SOL     OW71797   5.250   2.545   2.120  0.1254 -0.4924  0.1416
23459SOL    HW171798   5.229   2.585   2.204  0.0611  0.9320 -0.5202
23459SOL    HW271799   5.322   2.598   2.085 -1.5192  0.6195 -1.8309
23460SOL     OW71800   3.357   4.122   4.557 -0.2480  0.0187 -0.0293
23460SOL    HW171801   3.388   4.081   4.476 -0.8035  0.7897 -0.6454
23460SOL    HW271802   3.387   4.212   4.551 -2.4081  0.7509 -0.5747
23461SOL     OW71803   7.838   8.957   8.036 -0.2959 -0.0582  0.3254
23461SOL    HW171804   7.817   8.906   8.114 -0.2072  2.6935  2.3141
23461SOL    HW271805   7.915   9.008   8.061  0.7932 -0.2963 -2.2061
23462SOL     OW71806   6.423   4.473   8.915 -0.0801 -0.1448 -0.6157
23462SOL    HW171807   6.403   4.454   9.007 -1.3439  1.7551 -0.4414
23462SOL    HW271808   6.517   4.488   8.913 -0.0232 -0.3491  0.3404
23463SOL     OW71809   4.260   4.033   3.591 -0.3120  0.1222  0.2227
23463SOL    HW171810   4.228   3.963   3.535 -0.7580  1.3600 -1.1363
23463SOL    HW271811   4.213   4.022   3.674 -0.8386 -0.7885 -0.1913
23464SOL     OW71812   3.091   3.692   5.019 -0.7952  0.3894 -0.0817
23464SOL    HW171813   3.106   3.785   5.039 -2.2887  0.5818  0.3139
23464SOL    HW271814   3.053   3.657   5.100  0.9472 -0.9038  0.2236
23465SOL     OW71815   0.869   5.011   4.021 -0.2238  0.5990 -0.5005
23465SOL    HW171816   0.883   5.103   4.044 -1.2028  0.8933 -1.0204
23465SOL    HW271817   0.780   5.008   3.987 -0.2455 -0.5722 -0.3845
23466SOL     OW71818   6.710   3.197   5.566  0.4533 -0.0934  0.3014
23466SOL    HW171819   6.687   3.187   5.659 -1.4118  0.9647 -0.0134
23466SOL    HW271820   6.630   3.174   5.519  1.3836 -0.6423 -1.0854
23467SOL     OW71821   2.035   8.578   1.579  0.0087  0.1227  0.4218
23467SOL    HW171822   2.047   8.616   1.492  0.1726 -0.1017  0.3460
23467SOL    HW271823   1.993   8.494   1.563  2.6245 -1.2624  0.3194
23468SOL     OW71824   0.381   6.436   0.377  0.2840  0.6646  0.2425
23468SOL    HW171825   0.448   6.498   0.408  1.1738 -0.1404 -0.0273
23468SOL    HW271826   0.420   6.350   0.390 -0.4573  0.1995 -0.4978
23469SOL     OW71827   5.622   6.089   7.484  0.2856  0.1815  0.3206
23469SOL    HW171828   5.535   6.053   7.500  0.0861  1.0082  1.2093
23469SOL    HW271829   5.663   6.093   7.571  1.7604 -1.4937 -0.2400
23470SOL     OW71830   0.073   5.469   6.860  0.4423 -1.3354 -0.2070
23470SOL    HW171831   0.048   5.378   6.873  2.6245 -2.1203 -1.1180
23470SOL    HW271832   0.126   5.469   6.780 -1.5677  1.1640 -1.6704
23471SOL     OW71833   5.683   6.405   4.394  0.6878  0.7443 -0.2603
23471SOL    HW171834   5.665   6.366   4.479 -0.1490 -0.3354 -0.9001
23471SOL    HW271835   5.655   6.496   4.402 -0.0819  0.4578  0.3873
23472SOL     OW71836   7.757   3.420   1.625 -0.4819  0.0577 -0.0017
23472SOL    HW171837   7.689   3.445   1.687  1.4963  1.8624  1.6009
23472SOL    HW271838   7.753   3.486   1.556 -1.1862 -0.5974 -0.5924
23473SOL     OW71839   2.154   7.109   7.921 -0.8271  0.7956 -0.1592
23473SOL    HW171840   2.174   7.057   7.843 -1.9105  0.5649 -0.3011
23473SOL    HW271841   2.066   7.082   7.946 -1.1759  2.1281  0.1306
23474SOL     OW71842   2.269   2.742   8.011 -0.0128 -0.2156 -0.2578
23474SOL    HW171843   2.233   2.711   7.928 -0.1664 -1.4594  0.2609
23474SOL    HW271844   2.194   2.783   8.055 -0.1760 -0.4815 -0.2871
23475SOL     OW71845   6.696   3.502   8.840  0.1513  0.4149  0.2003
23475SOL    HW171846   6.717   3.530   8.929 -1.3694  1.0396  0.3937
23475SOL    HW271847   6.655   3.417   8.851 -0.4694  0.7030  0.1529
23476SOL     OW71848   3.706   2.325   0.856  0.1643 -0.2394  0.1265
23476SOL    HW171849   3.661   2.252   0.898  0.2824  1.3749  3.3578
23476SOL    HW271850   3.792   2.289   0.831  0.2171 -1.2201  1.6402
23477SOL     OW71851   1.445   7.065   5.080  0.2071 -0.0674  0.1581
23477SOL    HW171852   1.362   7.043   5.038  0.2417  1.0522 -0.5355
23477SOL    HW271853   1.494   7.112   5.012  1.7180 -1.3434  0.3040
23478SOL     OW71854   0.026   8.217   8.005 -0.1392  1.1228 -0.0827
23478SOL    HW171855  -0.014   8.284   7.950  1.1749  0.7785 -1.5290
23478SOL    HW271856   0.116   8.248   8.019  0.6660 -0.5262 -1.2265
23479SOL     OW71857   7.465   9.266   4.808 -0.3202 -0.1864 -0.5133
23479SOL    HW171858   7.407   9.334   4.839  0.4284  0.5748 -0.7465
23479SOL    HW271859   7.410   9.210   4.754 -0.9603  0.1824 -0.2465
23480SOL     OW71860   1.196   0.953   4.958  0.0390  0.2259  1.1383
23480SOL    HW171861   1.199   1.049   4.965  1.3278  0.2659  0.5096
23480SOL    HW271862   1.136   0.937   4.885  0.6169  0.6183  0.5620
23481SOL     OW71863   0.772   7.851   3.730  0.0377  0.2109 -0.6918
23481SOL    HW171864   0.772   7.897   3.646  2.1007 -1.6884 -1.8665
23481SOL    HW271865   0.859   7.811   3.735 -0.2592 -0.2918  2.0789
23482SOL     OW71866   1.409   1.339   6.759  0.1493  0.2285 -0.4761
23482SOL    HW171867   1.493   1.362   6.720  0.5350 -0.3324 -0.0024
23482SOL    HW271868   1.430   1.322   6.851 -0.8112  1.9761  0.1071
23483SOL     OW71869   1.955   0.808   0.403  0.1470  0.3356  0.5319
23483SOL    HW171870   1.992   0.746   0.340  1.7269 -0.0414  1.7757
23483SOL    HW271871   1.871   0.769   0.429  0.6082 -0.7148  0.4677
23484SOL     OW71872   0.526   6.972   5.534  0.4917  0.1275  0.9279
23484SOL    HW171873   0.582   6.934   5.466 -0.2942  1.2424 -0.3870
23484SOL    HW271874   0.505   6.898   5.591 -0.8146 -1.4710 -1.4150
23485SOL     OW71875   8.949   5.368   1.696  0.3133  0.5982  0.2134
23485SOL    HW171876   8.936   5.460   1.672  0.6499  0.2486 -1.4389
23485SOL    HW271877   9.019   5.338   1.639 -0.0037 -0.7701  0.5094
23486SOL     OW71878   3.684   0.020   5.412  0.2365  0.1507  0.1526
23486SOL    HW171879   3.747   0.025   5.484 -0.3879  1.6114  0.6342
23486SOL    HW271880   3.719   0.079   5.345  0.6961 -1.0298 -0.6794
23487SOL     OW71881   3.632   7.692   7.153 -0.1500  0.6628  0.2672
23487SOL    HW171882   3.651   7.638   7.229 -0.1210  0.0355 -0.1772
23487SOL    HW271883   3.660   7.639   7.078 -0.9708  0.9087 -0.2303
23488SOL     OW71884   0.465   1.862   6.311  0.1206  0.5983 -1.0609
23488SOL    HW171885   0.471   1.766   6.308  0.0643  0.4260  2.0299
23488SOL    HW271886   0.525   1.891   6.242  1.2662 -1.6518 -1.1213
23489SOL     OW71887   3.739   2.599   2.071  0.4391 -0.5595  0.0858
23489SOL    HW171888   3.718   2.537   2.141 -0.3822 -0.6242 -0.2049
23489SOL    HW271889   3.661   2.599   2.015  1.6977 -1.7539 -1.7787
23490SOL     OW71890   0.909   0.681   2.134 -0.2265  0.7629  0.4442
23490SOL    HW171891   0.863   0.764   2.121 -0.0807  1.1462  2.0404
23490SOL    HW271892   0.839   0.615   2.136 -0.3566  0.8491 -0.6869
23491SOL     OW71893   1.616   4.824   6.365  0.1868 -0.4882 -0.2650
23491SOL    HW171894   1.643   4.898   6.420 -0.6023  0.3046 -0.9085
23491SOL    HW271895   1.564   4.769   6.423  2.2716 -1.5378  0.7262
23492SOL     OW71896   8.457   6.445   8.300 -0.2806  0.4674 -0.1751
23492SOL    HW171897   8.374   6.463   8.344 -1.6195 -1.5568 -1.7291
23492SOL    HW271898   8.434   6.389   8.227  2.5266 -0.4213 -0.4887
23493SOL     OW71899   2.399   1.510   1.616  0.1267 -0.3200 -0.3292
23493SOL    HW171900   2.450   1.533   1.539  0.3190 -2.0184 -0.7550
23493SOL    HW271901   2.389   1.592   1.665  0.4226  0.6844 -1.8980
23494SOL     OW71902   6.659   0.888   0.383  0.0829  0.5571 -0.0276
23494SOL    HW171903   6.601   0.853   0.316 -0.1103 -1.4931  1.1168
23494SOL    HW271904   6.706   0.811   0.417  1.0538  1.6877  1.3258
23495SOL     OW71905   0.225   7.756   6.060  0.1116 -0.7430  0.4049
23495SOL    HW171906   0.280   7.828   6.089 -0.1872 -0.6896  0.8415
23495SOL    HW271907   0.226   7.762   5.964  0.0455 -0.1251  0.4401
23496SOL     OW71908   1.859   7.852   6.854 -0.3328  0.0771 -0.0951
23496SOL    HW171909   1.914   7.791   6.903 -0.0485 -1.7099 -2.4407
23496SOL    HW271910   1.772   7.844   6.894  0.3157  0.2662  1.3997
23497SOL     OW71911   0.329   4.410   4.463  0.8265  0.4413  0.1061
23497SOL    HW171912   0.424   4.416   4.463  0.8316  0.4241  0.7205
23497SOL    HW271913   0.301   4.463   4.538  0.4698 -1.1225  1.1203
23498SOL     OW71914   5.807   3.673   6.166 -0.1156  0.4251 -0.0053
23498SOL    HW171915   5.870   3.620   6.215  0.5510  0.7885 -0.4594
23498SOL    HW271916   5.732   3.681   6.225 -0.8073 -2.1364 -0.4120
23499SOL     OW71917   8.386   6.579   0.024 -0.6777 -0.2121  0.0628
23499SOL    HW171918   8.370   6.671   0.005 -1.1362 -0.4308 -0.6758
23499SOL    HW271919   8.352   6.533  -0.053  1.4350 -0.8666 -0.5402
23500SOL     OW71920   3.820   2.012   2.135 -0.0446  0.0740 -0.2247
23500SOL    HW171921   3.764   1.974   2.067  0.6970 -0.1635 -0.7228
23500SOL    HW271922   3.854   1.937   2.182  0.8150  0.1433 -0.7156
23501SOL     OW71923   1.665   1.919   3.885 -0.2922  0.5617 -0.7207
23501SOL    HW171924   1.699   1.932   3.973  0.9965  0.9192 -1.2486
23501SOL    HW271925   1.588   1.865   3.897  1.3649 -1.7176  0.4207
23502SOL     OW71926   4.325   4.058   4.443 -0.3135  0.1132 -0.2183
23502SOL    HW171927   4.369   4.128   4.395  0.6598 -0.4391 -0.1514
23502SOL    HW271928   4.281   4.007   4.375  0.9721 -0.6026 -0.5396
23503SOL     OW71929   6.948   4.663   8.603  0.1131  0.4514  0.0296
23503SOL    HW171930   6.987   4.718   8.535 -0.9361 -0.4695 -1.3960
23503SOL    HW271931   6.854   4.676   8.593 -0.0780 -0.2049  0.8723
23504SOL     OW71932   2.511   9.017   6.780  0.2684 -0.3615  0.7203
23504SOL    HW171933   2.556   9.098   6.754  0.5053 -0.6095  0.3453
23504SOL    HW271934   2.450   9.045   6.848 -0.4835  0.3433 -0.1944
23505SOL     OW71935   1.400   6.495   3.209  0.1504  0.5197  0.0189
23505SOL    HW171936   1.382   6.493   3.303  1.2321 -0.9752  0.2407
23505SOL    HW271937   1.489   6.530   3.202  0.3251  0.0092 -0.3971
23506SOL     OW71938   1.082   8.019   8.961 -0.0872  0.3183  0.5502
23506SOL    HW171939   1.097   7.961   8.885 -1.1373  1.0969 -0.2852
23506SOL    HW271940   0.995   7.994   8.992 -0.1230  0.7639  0.8072
23507SOL     OW71941   4.482   6.421   7.736 -0.1725  0.0726  0.2274
23507SOL    HW171942   4.401   6.412   7.686  0.4074  0.5617 -0.8472
23507SOL    HW271943   4.488   6.341   7.787 -0.2246 -1.0302 -1.3960
23508SOL     OW71944   8.828   8.122   5.854 -0.0393 -0.2312  0.2112
23508SOL    HW171945   8.748   8.168   5.881 -0.0683 -0.8375  1.1955
23508SOL    HW271946   8.895   8.190   5.851 -0.3796  0.1130  0.3107
23509SOL     OW71947   3.598   3.344   4.142 -0.7980  0.0620 -0.5556
23509SOL    HW171948   3.688   3.334   4.111 -1.1330 -3.9431 -0.7338
23509SOL    HW271949   3.544   3.329   4.065 -1.5989 -0.5270  0.0970
23510SOL     OW71950   7.446   4.218   2.172  0.5281  0.2507 -0.4902
23510SOL    HW171951   7.381   4.148   2.163  1.3350 -1.2404  3.3561
23510SOL    HW271952   7.529   4.178   2.144  0.8389 -0.0742  0.8507
23511SOL     OW71953   5.081   5.287   4.269  0.4960  0.0012 -0.1351
23511SOL    HW171954   4.994   5.282   4.310  1.0739  0.4218  1.2087
23511SOL    HW271955   5.134   5.226   4.319  0.9083 -0.5400 -1.1999
23512SOL     OW71956   0.128   8.693   5.411  0.1440  0.6427  0.2010
23512SOL    HW171957   0.108   8.782   5.383 -0.5783  0.8722  1.3666
23512SOL    HW271958   0.050   8.664   5.459  1.0933  0.1175  1.5190
23513SOL     OW71959   4.480   6.551   3.589  0.5809  0.7597  0.1667
23513SOL    HW171960   4.425   6.618   3.549 -1.0517 -0.9181 -0.5554
23513SOL    HW271961   4.429   6.518   3.663  0.9844 -0.2466  0.0136
23514SOL     OW71962   8.237   5.111   2.519 -0.3458  0.3943  0.0435
23514SOL    HW171963   8.199   5.133   2.604  1.8880 -1.7917  1.7604
23514SOL    HW271964   8.173   5.052   2.479 -0.7052  0.1333  0.9714
23515SOL     OW71965   3.210   0.723   2.505  0.1111 -0.1660 -0.1237
23515SOL    HW171966   3.207   0.664   2.580 -0.7065  1.4689  1.2252
23515SOL    HW271967   3.125   0.713   2.462  0.6876 -1.3119 -1.0391
23516SOL     OW71968   8.473   1.936   7.067  0.1027  0.0198 -0.0091
23516SOL    HW171969   8.488   1.870   7.134 -0.3296  1.2668  1.3763
23516SOL    HW271970   8.450   2.015   7.116  1.9345  1.5986 -1.5074
23517SOL     OW71971   8.625   1.770   3.037  0.1966  0.0139  0.1929
23517SOL    HW171972   8.576   1.843   2.998  3.3403  2.3769  0.2955
23517SOL    HW271973   8.592   1.765   3.127 -0.6297  0.7858 -0.0484
23518SOL     OW71974   8.849   1.388   9.181  0.3800 -0.5757  0.5801
23518SOL    HW171975   8.795   1.352   9.110 -0.0219  1.7434 -0.3842
23518SOL    HW271976   8.939   1.369   9.154  0.2110 -0.2233 -0.2742
23519SOL     OW71977   1.412   5.717   0.863 -0.6183 -0.0769  0.3799
23519SOL    HW171978   1.454   5.632   0.852 -1.3483 -1.0054  3.7663
23519SOL    HW271979   1.465   5.762   0.929 -1.7351  1.0209  0.5612
23520SOL     OW71980   2.682   0.094   0.534  0.0252  0.2429  1.0861
23520SOL    HW171981   2.733   0.175   0.547 -0.4209  0.7103  0.0668
23520SOL    HW271982   2.660   0.095   0.440 -2.1573  0.2458  1.5500
23521SOL     OW71983   0.547   5.436   6.559  0.3720  0.0247 -0.0857
23521SOL    HW171984   0.512   5.525   6.552  0.8664  0.1839 -0.6392
23521SOL    HW271985   0.608   5.429   6.485  1.8515 -0.0777  1.0945
23522SOL     OW71986   3.286   5.698   5.775  0.0232  0.4199  0.1959
23522SOL    HW171987   3.374   5.678   5.743 -0.1249  0.5113 -0.2719
23522SOL    HW271988   3.228   5.648   5.718 -0.2236  0.2584  0.5859
23523SOL     OW71989   5.800   0.748   2.870 -0.0309 -0.9677 -0.2140
23523SOL    HW171990   5.771   0.741   2.961  0.9720  1.0852  0.3186
23523SOL    HW271991   5.721   0.734   2.818 -0.9398 -0.5771  1.0347
23524SOL     OW71992   0.616   6.202   3.237  0.6087  0.3705  0.3086
23524SOL    HW171993   0.697   6.196   3.187  0.3176  0.5362 -0.1896
23524SOL    HW271994   0.592   6.295   3.233  0.7198  0.4379  0.9828
23525SOL     OW71995   5.769   0.172   0.032  0.4027 -0.1136 -0.1753
23525SOL    HW171996   5.818   0.198   0.111 -1.3675  4.0969 -0.2605
23525SOL    HW271997   5.824   0.201  -0.040 -0.5138  1.3825 -0.3149
23526SOL     OW71998   0.061   4.594   7.549  0.0201  0.0042 -0.0670
23526SOL    HW171999   0.003   4.520   7.535 -0.1945  0.0467  0.5500
23526SOL    HW272000   0.011   4.670   7.517  0.0172 -0.0458 -0.1827
23527SOL     OW72001   2.556   7.355   3.833  0.5470 -0.0602 -0.3440
23527SOL    HW172002   2.536   7.306   3.753 -0.5685 -0.1571 -0.0227
23527SOL    HW272003   2.587   7.289   3.894 -2.5059 -0.7675  0.6443
23528SOL     OW72004   2.793   6.411   7.923  0.1277 -0.3258 -0.1333
23528SOL    HW172005   2.765   6.475   7.988  0.4102 -0.7725  0.4282
23528SOL    HW272006   2.749   6.330   7.947  0.5389 -0.5938 -0.2636
23529SOL     OW72007   0.089   6.697   6.137  0.1376  0.1961  0.6363
23529SOL    HW172008   0.005   6.670   6.100 -0.3581 -0.8950  2.4350
23529SOL    HW272009   0.148   6.625   6.117  0.3521  0.4385  0.3886
23530SOL     OW72010   5.266   7.062   8.211  0.1278 -0.5588 -0.1635
23530SOL    HW172011   5.356   7.094   8.212  0.9338 -2.6193  1.9137
23530SOL    HW272012   5.218   7.130   8.163  2.5480  1.1458 -0.4188
23531SOL     OW72013   1.279   1.532   5.645  0.2826  0.0416  0.0260
23531SOL    HW172014   1.351   1.488   5.600  0.2942  0.2375 -0.1455
23531SOL    HW272015   1.315   1.557   5.730  0.8599  1.4266 -0.6022
23532SOL     OW72016   5.932   3.763   5.211  0.5548  0.3381 -0.3306
23532SOL    HW172017   5.919   3.671   5.234  1.2579 -0.0830 -1.5548
23532SOL    HW272018   6.026   3.775   5.214  0.4035  1.5613  1.7126
23533SOL     OW72019   1.467   1.927   4.381 -0.5785  0.7903  0.7282
23533SOL    HW172020   1.373   1.942   4.375 -0.6845  1.0625  2.4211
23533SOL    HW272021   1.500   2.003   4.429  0.2126 -0.1341  1.7060
23534SOL     OW72022   5.654   3.840   8.329  0.0807  0.2189  0.3156
23534SOL    HW172023   5.588   3.792   8.379 -0.4910 -0.6414 -1.2000
23534SOL    HW272024   5.630   3.932   8.339 -1.6892 -0.0941 -0.6051
23535SOL     OW72025   0.846   8.575   1.209  0.3272  0.8705 -0.4660
23535SOL    HW172026   0.915   8.509   1.204  0.4854  1.0523 -0.6860
23535SOL    HW272027   0.786   8.541   1.276 -0.3668 -0.2331 -1.6123
23536SOL     OW72028   9.268   9.175   2.023 -0.1245 -0.4619 -0.2884
23536SOL    HW172029   9.240   9.263   1.998 -1.5398 -0.7995  0.0455
23536SOL    HW272030   9.288   9.181   2.116  1.6742 -0.0624 -0.6561
23537SOL     OW72031   2.570   7.377   7.079  0.7112 -0.1946 -0.6612
23537SOL    HW172032   2.577   7.456   7.026  0.0850  0.4720  0.2235
23537SOL    HW272033   2.586   7.305   7.018  1.2425  0.6039 -1.4878
23538SOL     OW72034   7.428   3.913   0.863 -0.2801 -0.1284  0.1774
23538SOL    HW172035   7.469   3.920   0.950 -0.7952  2.8862  0.3023
23538SOL    HW272036   7.435   4.002   0.827 -2.6301 -0.5967 -1.6617
23539SOL     OW72037   5.044   2.317   2.069  1.0440  0.0187 -0.1006
23539SOL    HW172038   4.950   2.337   2.067  0.4722 -2.3532 -0.2348
23539SOL    HW272039   5.083   2.389   2.119 -0.5642  1.9320 -1.4395
23540SOL     OW72040   8.412   0.516   2.077 -0.0632 -0.0060 -0.3390
23540SOL    HW172041   8.491   0.556   2.115 -0.0471 -0.3078 -0.0523
23540SOL    HW272042   8.411   0.427   2.112 -1.1289  0.3344  0.5572
23541SOL     OW72043   9.048   1.906   7.829  0.2530 -0.5918 -0.4104
23541SOL    HW172044   9.013   1.822   7.799 -0.2526 -1.3533  2.1092
23541SOL    HW272045   8.976   1.946   7.878  1.2566  0.2072  0.4466
23542SOL     OW72046   8.368   3.152   8.085 -0.0889 -0.6464 -0.4334
23542SOL    HW172047   8.281   3.187   8.069  0.0547 -1.0833 -2.3601
23542SOL    HW272048   8.424   3.229   8.098 -0.3268 -0.2578 -1.6263
23543SOL     OW72049   8.096   7.332   7.966  0.3102  0.0627 -0.1168
23543SOL    HW172050   8.126   7.345   8.056 -0.5305 -1.2901  0.3935
23543SOL    HW272051   8.117   7.241   7.946 -1.4631 -0.3168 -0.4833
23544SOL     OW72052   0.447   4.173   9.041 -0.3398  0.1965 -0.3464
23544SOL    HW172053   0.510   4.105   9.018 -1.3569 -0.9078  0.0043
23544SOL    HW272054   0.425   4.213   8.957  0.8277  0.6154 -0.4679
23545SOL     OW72055   8.626   0.817   8.753 -0.1658 -0.2325 -0.0215
23545SOL    HW172056   8.714   0.780   8.761  0.7015  1.1806 -2.0813
23545SOL    HW272057   8.570   0.743   8.730  0.9255 -0.7895 -0.9283
23546SOL     OW72058   4.995   6.397   1.899  0.0049  0.7416 -0.4130
23546SOL    HW172059   5.040   6.481   1.894 -1.3248  1.4219 -3.1622
23546SOL    HW272060   5.053   6.335   1.854  0.4160  0.4394  0.5058
23547SOL     OW72061   7.428   5.936   3.397 -0.1728  0.2479 -0.4223
23547SOL    HW172062   7.516   5.953   3.363 -0.0947 -0.0052 -0.3494
23547SOL    HW272063   7.409   6.011   3.453  1.0297 -0.8833  1.6405
23548SOL     OW72064   3.989   7.428   3.762  0.1209 -0.0688 -0.0947
23548SOL    HW172065   3.940   7.358   3.719 -1.1819  1.1730 -0.7205
23548SOL    HW272066   4.032   7.475   3.690 -0.6091  0.9326  0.1014
23549SOL     OW72067   0.084   6.387   5.931  0.1803 -0.4805 -0.3745
23549SOL    HW172068   0.022   6.367   5.861 -1.0532  1.1574  0.1793
23549SOL    HW272069   0.111   6.301   5.964 -0.3285 -1.2637 -1.8751
23550SOL     OW72070   3.064   5.773   4.247  0.1784 -0.5868  0.1998
23550SOL    HW172071   2.972   5.794   4.233  0.2814  0.1951  0.6207
23550SOL    HW272072   3.109   5.857   4.238  1.1819 -1.2896 -2.5332
23551SOL     OW72073   9.093   6.271   2.338  0.4391 -0.1239  0.0922
23551SOL    HW172074   9.138   6.352   2.313  0.3301  0.1815  0.8641
23551SOL    HW272075   9.027   6.258   2.270  1.9932 -0.8697 -1.3829
23552SOL     OW72076   5.321   1.575   7.912  0.2894 -0.5656  0.0606
23552SOL    HW172077   5.225   1.577   7.908  0.2621 -0.5611  0.6663
23552SOL    HW272078   5.348   1.565   7.821 -0.2658  0.5002 -0.2509
23553SOL     OW72079   5.233   7.816   3.147 -0.0408 -0.1820  0.1241
23553SOL    HW172080   5.221   7.907   3.172 -1.0244 -0.2730  0.0139
23553SOL    HW272081   5.317   7.814   3.102  0.7859  0.3617  1.5633
23554SOL     OW72082   7.445   4.391   5.226  0.2413 -0.3643 -0.0994
23554SOL    HW172083   7.509   4.427   5.164  0.2387  2.4363  1.3450
23554SOL    HW272084   7.492   4.387   5.309 -1.4315  2.1146  1.0869
23555SOL     OW72085   5.298   4.461   1.246 -0.3406  0.0435  0.3640
23555SOL    HW172086   5.246   4.401   1.193 -0.1868  0.2654 -0.0448
23555SOL    HW272087   5.316   4.413   1.327  0.6055 -0.8378 -0.3428
23556SOL     OW72088   7.478   7.314   2.881 -0.4779  0.2430  0.3325
23556SOL    HW172089   7.570   7.294   2.900 -1.2155 -1.6253  2.3697
23556SOL    HW272090   7.478   7.340   2.789  1.9332 -0.8326 -0.0621
23557SOL     OW72091   7.911   8.947   2.836  0.2454  0.6886  0.1469
23557SOL    HW172092   7.911   9.016   2.769  0.0337  0.3836 -0.1734
23557SOL    HW272093   7.911   8.994   2.919  0.0456  1.0798 -0.0713
23558SOL     OW72094   8.854   8.126   3.070  0.1344 -0.3817 -0.3275
23558SOL    HW172095   8.850   8.042   3.114  0.2130 -0.5071 -0.5591
23558SOL    HW272096   8.762   8.147   3.050  0.1742 -0.7947 -0.9870
23559SOL     OW72097   5.856   8.747   7.400  0.3954  0.2170  0.4298
23559SOL    HW172098   5.805   8.666   7.403  0.6502 -0.1570 -2.2318
23559SOL    HW272099   5.829   8.795   7.478  0.0448 -2.2874  1.9811
23560SOL     OW72100   4.217   5.840   4.169 -0.4109  0.0387 -0.0783
23560SOL    HW172101   4.252   5.752   4.160  1.0992  0.7181 -1.2363
23560SOL    HW272102   4.163   5.836   4.249  1.1998 -1.4267  1.0176
23561SOL     OW72103   0.026   3.226   0.054 -0.0781 -0.2230 -0.3317
23561SOL    HW172104  -0.029   3.213  -0.024 -0.8689 -1.7776  0.4392
23561SOL    HW272105   0.019   3.144   0.103  1.9959 -0.0277  0.4149
23562SOL     OW72106   3.780   7.835   1.807  0.4448 -0.1586  0.2085
23562SOL    HW172107   3.826   7.910   1.770  1.1589  0.1435  1.6449
23562SOL    HW272108   3.688   7.862   1.807  0.3054 -0.4450 -1.9050
23563SOL     OW72109   4.069   0.253   2.129  0.1375 -0.1968 -0.0798
23563SOL    HW172110   4.127   0.317   2.088 -0.2849 -0.4290 -1.0910
23563SOL    HW272111   4.102   0.168   2.098 -0.6184 -0.3407 -0.5334
23564SOL     OW72112   6.275   5.698   7.067 -0.0172  0.4194 -0.9732
23564SOL    HW172113   6.223   5.687   7.146 -1.1289 -0.6160 -1.8109
23564SOL    HW272114   6.321   5.781   7.079 -1.1189  0.8774  0.2137
23565SOL     OW72115   0.686   2.802   0.891  0.4392 -0.0234  0.3019
23565SOL    HW172116   0.714   2.894   0.889  1.3356 -0.2766  0.7140
23565SOL    HW272117   0.689   2.774   0.799  3.7182 -0.6483  0.4888
23566SOL     OW72118   4.136   1.916   0.163 -0.3106 -0.2081 -0.2638
23566SOL    HW172119   4.076   1.943   0.232  1.4237 -1.0688  1.6766
23566SOL    HW272120   4.213   1.883   0.209  0.0013 -3.0955 -2.5453
23567SOL     OW72121   8.612   5.831   6.717 -0.3819 -1.3123  0.4614
23567SOL    HW172122   8.675   5.762   6.699  1.0726  0.0604  0.0896
23567SOL    HW272123   8.624   5.851   6.810 -0.9122 -1.6286  0.6077
23568SOL     OW72124   6.073   5.893   5.596 -0.2943 -0.0808  0.5744
23568SOL    HW172125   6.131   5.965   5.571  0.5730 -0.5927  1.0558
23568SOL    HW272126   6.132   5.820   5.616 -1.1378 -0.8071  0.4808
23569SOL     OW72127   1.211   7.724   3.350  0.3982  0.0806 -0.4778
23569SOL    HW172128   1.225   7.630   3.364  0.7516  0.4399  2.2503
23569SOL    HW272129   1.290   7.765   3.387 -0.6396  1.5004  0.2422
23570SOL     OW72130   8.506   5.708   7.367 -0.5078 -0.2125  0.1571
23570SOL    HW172131   8.437   5.754   7.319 -0.6721 -0.0886  0.5126
23570SOL    HW272132   8.559   5.777   7.406  0.0624 -0.3013 -0.4534
23571SOL     OW72133   7.943   4.740   0.069  0.3200 -1.0481  0.0114
23571SOL    HW172134   8.034   4.718   0.051  0.5297  1.0760 -1.8860
23571SOL    HW272135   7.947   4.795   0.148  0.9153  0.4582 -1.0346
23572SOL     OW72136   8.589   1.309   6.968  0.6118 -0.2337 -0.2553
23572SOL    HW172137   8.562   1.253   6.896  1.1751 -0.1676 -0.5255
23572SOL    HW272138   8.545   1.273   7.045 -0.5233  0.0865 -0.7273
23573SOL     OW72139   7.564   3.636   2.757 -0.0190  0.3518  0.0621
23573SOL    HW172140   7.652   3.620   2.792  0.4026  0.6879 -0.7995
23573SOL    HW272141   7.510   3.653   2.834  1.2899  3.0955  0.4882
23574SOL     OW72142   1.192   4.329   0.675 -0.2185 -0.6959 -0.1038
23574SOL    HW172143   1.125   4.274   0.717  0.6119 -0.9811  0.8850
23574SOL    HW272144   1.165   4.419   0.694  0.4080 -0.8181  1.5366
23575SOL     OW72145   5.762   5.469   4.386  0.2861  0.0323 -0.0263
23575SOL    HW172146   5.773   5.431   4.299 -0.3379  1.9352 -0.9945
23575SOL    HW272147   5.686   5.423   4.422 -0.1766  0.0176 -0.9732
23576SOL     OW72148   5.376   8.523   5.384 -0.3616 -0.6108 -0.1636
23576SOL    HW172149   5.384   8.525   5.479  0.4685  0.0924 -0.2297
23576SOL    HW272150   5.427   8.446   5.357 -0.8652 -0.9945 -0.0192
23577SOL     OW72151   3.404   3.245   5.822 -0.0623  0.0578 -0.0874
23577SOL    HW172152   3.418   3.208   5.909  0.2426  0.5365  0.0739
23577SOL    HW272153   3.492   3.266   5.791 -0.2286  0.6363 -0.1730
23578SOL     OW72154   7.424   3.063   6.469 -0.8389 -0.0715  0.2216
23578SOL    HW172155   7.332   3.065   6.443 -0.8408 -1.4116  0.0598
23578SOL    HW272156   7.427   3.000   6.541 -0.3417  1.3524  1.4918
23579SOL     OW72157   8.377   2.960   2.904 -0.8415  0.1210  0.2231
23579SOL    HW172158   8.459   2.916   2.881 -0.0183  2.0069 -0.7174
23579SOL    HW272159   8.339   2.906   2.973  2.3087  0.3504  2.3541
23580SOL     OW72160   7.834   6.075   3.678 -0.0097 -0.1394 -0.1657
23580SOL    HW172161   7.862   5.992   3.640  1.4201 -0.4865  1.5314
23580SOL    HW272162   7.863   6.071   3.769 -2.9558  0.8153  0.9099
23581SOL     OW72163   2.296   0.172   8.933 -0.5434 -0.0744  0.3546
23581SOL    HW172164   2.252   0.105   8.986 -1.3660  0.2089  0.0493
23581SOL    HW272165   2.341   0.227   8.997 -1.3326  0.1231  0.7534
23582SOL     OW72166   0.347   5.227   1.540 -0.4154  0.5221 -0.1304
23582SOL    HW172167   0.313   5.253   1.454 -0.8110  0.8253  0.1150
23582SOL    HW272168   0.282   5.260   1.603 -1.0922 -1.3092  0.1846
23583SOL     OW72169   0.351   2.813   6.750  0.2092 -0.1526 -0.7067
23583SOL    HW172170   0.442   2.835   6.729  0.3286 -1.7453 -2.0984
23583SOL    HW272171   0.310   2.797   6.665 -0.4481 -2.7906  0.0109
23584SOL     OW72172   8.927   5.672   0.567 -0.4167 -0.0658  0.2653
23584SOL    HW172173   8.912   5.767   0.566 -0.8487 -0.1287 -0.4618
23584SOL    HW272174   8.842   5.635   0.591  0.6572 -0.1896  4.8010
23585SOL     OW72175   8.656   5.098   5.812 -0.2800 -0.2840  0.3664
23585SOL    HW172176   8.597   5.151   5.867  0.6131  0.2731  0.8049
23585SOL    HW272177   8.598   5.055   5.749 -1.4818 -1.6885  2.3039
23586SOL     OW72178   1.000   4.117   9.116 -0.0112 -0.0494 -0.4227
23586SOL    HW172179   1.014   4.209   9.136 -0.1742 -0.2045  0.4513
23586SOL    HW272180   0.906   4.103   9.131  0.2814 -0.6841  0.8777
23587SOL     OW72181   7.327   4.421   5.913 -0.5486  0.1634  0.1760
23587SOL    HW172182   7.327   4.367   5.992  0.2325  0.1430  0.1730
23587SOL    HW272183   7.315   4.360   5.841  3.0781 -0.4834 -0.0799
23588SOL     OW72184   5.297   4.695   5.131 -0.0523 -0.7707 -0.0110
23588SOL    HW172185   5.274   4.608   5.165 -0.4057 -1.4832 -1.9208
23588SOL    HW272186   5.227   4.752   5.160 -0.2959 -1.3166  0.5012
23589SOL     OW72187   6.363   0.006   1.003  0.0700  0.1393 -0.2624
23589SOL    HW172188   6.406   0.090   1.013  0.4808 -0.1687  0.6874
23589SOL    HW272189   6.434  -0.058   1.006 -0.3656 -0.3212  0.3939
23590SOL     OW72190   2.692   8.154   2.629  0.0119 -0.1289 -0.1055
23590SOL    HW172191   2.623   8.089   2.642  0.4775 -0.0681  3.6223
23590SOL    HW272192   2.645   8.234   2.604 -1.0085 -0.7572 -0.2484
23591SOL     OW72193   1.313   0.758   1.700  0.0755  0.9864 -0.3918
23591SOL    HW172194   1.355   0.724   1.620  1.0695  1.5999 -0.1463
23591SOL    HW272195   1.312   0.683   1.760 -0.1074  0.6930 -0.7582
23592SOL     OW72196   8.571   6.339   8.638 -0.0161  0.1712 -0.2205
23592SOL    HW172197   8.488   6.315   8.597 -1.7811  1.6908  2.1699
23592SOL    HW272198   8.574   6.287   8.718  1.1438  0.4355 -0.0849
23593SOL     OW72199   8.830   6.536   3.770 -0.3338 -0.0153 -0.2868
23593SOL    HW172200   8.808   6.610   3.825 -0.5556 -0.4312  0.1876
23593SOL    HW272201   8.754   6.524   3.713 -0.6207 -0.3607  0.1648
23594SOL     OW72202   8.953   5.644   1.597 -0.3444  0.2155  0.1511
23594SOL    HW172203   8.947   5.673   1.688  1.5719  2.0403 -0.1976
23594SOL    HW272204   8.998   5.716   1.553  2.5378 -2.2889 -1.3892
23595SOL     OW72205   8.165   6.171   1.991  0.7060  0.1312 -0.2321
23595SOL    HW172206   8.121   6.252   1.963 -1.0656 -0.3433  1.0300
23595SOL    HW272207   8.206   6.194   2.074 -2.0560 -0.8661  1.5265
23596SOL     OW72208   3.077   7.193   0.569 -0.0735  0.1916 -0.2227
23596SOL    HW172209   3.097   7.263   0.508  1.6118  1.1896  1.3909
23596SOL    HW272210   3.141   7.202   0.640 -1.8436 -0.9644  1.6641
23597SOL     OW72211   3.470   7.240   8.756  0.3897  0.1708  0.0833
23597SOL    HW172212   3.422   7.321   8.768 -1.1103 -0.6656 -0.0974
23597SOL    HW272213   3.469   7.225   8.662 -0.5187 -0.7306  0.2204
23598SOL     OW72214   2.441   4.318   5.972 -0.4179 -0.6450  0.1070
23598SOL    HW172215   2.489   4.326   6.054  2.0106  0.8993 -1.3287
23598SOL    HW272216   2.503   4.278   5.912 -1.8567 -1.0017 -1.1968
23599SOL     OW72217   1.217   2.815   1.128  0.2388 -0.9531 -0.7959
23599SOL    HW172218   1.150   2.862   1.176  1.7133 -1.1793  1.6290
23599SOL    HW272219   1.226   2.864   1.046  0.4055  1.9393  0.8072
23600SOL     OW72220   6.801   5.722   1.347 -0.0389  0.0416 -0.2912
23600SOL    HW172221   6.857   5.646   1.333  1.9869  0.9837  2.0471
23600SOL    HW272222   6.753   5.732   1.265  1.8632 -1.9242 -1.7457
23601SOL     OW72223   5.233   7.453   8.510  0.1558  0.1226  0.5591
23601SOL    HW172224   5.261   7.407   8.589  2.1079  0.3146  0.0522
23601SOL    HW272225   5.175   7.522   8.541  0.8109  0.1361  1.8277
23602SOL     OW72226   1.521   4.470   4.129  0.3268 -0.1989 -0.1259
23602SOL    HW172227   1.501   4.529   4.201 -0.0770 -2.4338  1.6913
23602SOL    HW272228   1.444   4.475   4.072  0.4738  1.2685 -0.2318
23603SOL     OW72229   8.688   8.817   2.605 -0.5610  0.0048  0.1547
23603SOL    HW172230   8.781   8.805   2.588 -0.2636  1.4503  0.6515
23603SOL    HW272231   8.679   8.801   2.699 -0.9626 -0.8709 -0.0194
23604SOL     OW72232   4.206   6.746   4.509 -0.0688 -0.5293  0.2284
23604SOL    HW172233   4.186   6.676   4.571 -1.2621  0.9037  1.5150
23604SOL    HW272234   4.138   6.811   4.522  0.3634  0.4102 -1.7354
23605SOL     OW72235   2.123   1.760   8.454  0.1338  0.1659 -0.8745
23605SOL    HW172236   2.166   1.677   8.471  1.2594  0.3652 -2.4868
23605SOL    HW272237   2.194   1.824   8.452 -0.7060  1.1861  0.3009
23606SOL     OW72238   5.588   6.389   0.867  0.1616 -0.2127 -0.3628
23606SOL    HW172239   5.558   6.473   0.901 -0.0240 -0.4674  0.1148
23606SOL    HW272240   5.642   6.352   0.937 -0.0380 -0.6418 -0.4283
23607SOL     OW72241   3.128   1.606   2.307  0.1460  1.2174 -0.0925
23607SOL    HW172242   3.220   1.611   2.330  0.4272 -1.1343 -0.4119
23607SOL    HW272243   3.126   1.551   2.228 -1.5808  0.1155  0.6485
23608SOL     OW72244   1.926   1.264   8.856  0.5223 -0.0631  0.2547
23608SOL    HW172245   2.015   1.296   8.847  0.1364  1.3680  1.1243
23608SOL    HW272246   1.933   1.188   8.913  1.3001 -0.6438 -0.5997
23609SOL     OW72247   0.492   7.886   8.941  0.1664  0.0400 -0.5649
23609SOL    HW172248   0.496   7.979   8.919  1.8898  0.5830  1.7395
23609SOL    HW272249   0.552   7.844   8.879  0.8783  0.7474 -0.3605
23610SOL     OW72250   7.548   4.770   5.200 -0.2054  0.1459  0.3224
23610SOL    HW172251   7.500   4.780   5.118 -2.8931 -1.1327  1.6203
23610SOL    HW272252   7.595   4.687   5.190 -1.3955 -0.5632  0.4325
23611SOL     OW72253   7.035   5.819   0.645  0.3078 -0.6115 -0.2260
23611SOL    HW172254   7.022   5.911   0.665  1.3245 -0.4478 -0.2915
23611SOL    HW272255   7.125   5.813   0.613  0.1332 -1.5634 -0.5868
23612SOL     OW72256   4.574   0.354   0.249 -0.0491  0.3248  0.2586
23612SOL    HW172257   4.515   0.424   0.279 -1.6684 -1.9516  2.9239
23612SOL    HW272258   4.630   0.336   0.325 -1.0711 -2.5712  0.4411
23613SOL     OW72259   7.171   9.062   2.437  0.0195  0.1156 -0.2203
23613SOL    HW172260   7.251   9.076   2.386 -0.1543  0.4344 -0.4119
23613SOL    HW272261   7.102   9.107   2.387 -0.4490 -0.9387 -0.5358
23614SOL     OW72262   8.355   0.248   6.962  0.1383 -0.4799 -0.2801
23614SOL    HW172263   8.265   0.274   6.980 -0.9507 -3.1433 -1.4561
23614SOL    HW272264   8.372   0.279   6.873 -1.0024 -3.0504 -1.5029
23615SOL     OW72265   3.289   5.182   4.731  0.1043 -0.0825 -0.1277
23615SOL    HW172266   3.254   5.097   4.708 -0.9385  0.4201 -0.4650
23615SOL    HW272267   3.225   5.219   4.793  1.7504 -0.5222  1.9852
23616SOL     OW72268   2.650   6.732   2.077  0.2968  0.2713 -0.0953
23616SOL    HW172269   2.589   6.659   2.092  1.8470 -1.0421  0.1013
23616SOL    HW272270   2.597   6.810   2.090 -1.4514 -0.8086 -0.3887
23617SOL     OW72271   3.825   2.554   0.265  0.0092 -0.6549  0.3303
23617SOL    HW172272   3.912   2.529   0.234  0.5048  0.5410  0.6748
23617SOL    HW272273   3.817   2.647   0.240 -1.0538 -0.6730  0.5516
23618SOL     OW72274   3.752   1.564   4.039  0.3654 -0.1259  0.3218
23618SOL    HW172275   3.813   1.557   3.965 -0.6184  0.3287 -0.5666
23618SOL    HW272276   3.808   1.572   4.116  1.4184 -0.6719 -0.3658
23619SOL     OW72277   0.815   9.116   5.015 -0.1430  0.4221 -0.1277
23619SOL    HW172278   0.883   9.061   5.053 -1.3950  0.6316  2.6610
23619SOL    HW272279   0.814   9.092   4.923 -0.0743 -3.6635  0.7441
23620SOL     OW72280   4.819   5.260   5.476  0.0659 -0.5223 -0.5860
23620SOL    HW172281   4.847   5.240   5.565 -0.8594 -0.6236 -0.3096
23620SOL    HW272282   4.806   5.174   5.435 -2.3240 -0.5544  0.0989
23621SOL     OW72283   2.804   0.303   2.155  0.6792  0.0722  0.7308
23621SOL    HW172284   2.768   0.299   2.066  0.8610 -0.4440  0.6761
23621SOL    HW272285   2.727   0.294   2.212  0.8320 -2.7426  0.6183
23622SOL     OW72286   7.426   2.483   4.136 -0.4264 -0.3420 -0.2573
23622SOL    HW172287   7.477   2.553   4.096  0.1384  0.2157  1.3627
23622SOL    HW272288   7.357   2.529   4.185 -2.6069 -1.0635 -2.4091
23623SOL     OW72289   3.996   5.337   8.166 -0.2251 -0.1842 -0.2223
23623SOL    HW172290   3.992   5.243   8.182  1.4056 -0.1095  0.9608
23623SOL    HW272291   3.946   5.351   8.086 -0.9144 -1.9813 -0.1326
23624SOL     OW72292   8.787   4.229   2.983  0.6711  0.6499 -0.0411
23624SOL    HW172293   8.771   4.228   2.889 -0.4665  0.4036  0.1361
23624SOL    HW272294   8.764   4.141   3.013  2.9094  0.0918  0.2105
23625SOL     OW72295   4.203   3.808   0.179  0.1159 -0.1330  0.1440
23625SOL    HW172296   4.174   3.752   0.251 -0.2037  1.1986  1.0766
23625SOL    HW272297   4.298   3.795   0.174 -0.1143 -1.9142 -0.6935
23626SOL     OW72298   3.912   7.011   4.709  0.5370  0.0106  0.1696
23626SOL    HW172299   3.831   6.975   4.746  0.3652  0.0630 -0.1433
23626SOL    HW272300   3.918   6.970   4.622  0.3129  0.7593 -0.2133
23627SOL     OW72301   7.103   6.125   1.315  0.4984 -0.7885  0.1136
23627SOL    HW172302   7.133   6.210   1.281 -3.4816  0.5926 -0.4539
23627SOL    HW272303   7.108   6.135   1.410 -0.4437  0.3625  0.0708
23628SOL     OW72304   0.147   1.306   0.307  0.2515 -0.2045 -0.0540
23628SOL    HW172305   0.172   1.264   0.389  2.9163 -0.9738 -1.1320
23628SOL    HW272306   0.207   1.380   0.298  0.4791 -0.5311 -1.5911
23629SOL     OW72307   2.099   8.994   5.182  0.0004 -0.0436  0.4861
23629SOL    HW172308   2.181   9.043   5.176 -0.5822  0.8338 -0.9660
23629SOL    HW272309   2.031   9.062   5.181 -0.7764 -0.8083  0.1124
23630SOL     OW72310   6.525   2.353   1.836 -0.5732  0.2393  0.0552
23630SOL    HW172311   6.563   2.344   1.748 -1.1031  0.1051 -0.1599
23630SOL    HW272312   6.571   2.287   1.888 -0.8421 -0.2514 -0.3210
23631SOL     OW72313   0.586   6.465   7.494 -0.2758 -0.4498  0.3261
23631SOL    HW172314   0.583   6.492   7.402  1.1030 -1.7841 -0.1530
23631SOL    HW272315   0.504   6.419   7.508 -0.2850 -0.6852 -0.4152
23632SOL     OW72316   3.957   3.453   3.142 -0.3705 -0.5258  0.3174
23632SOL    HW172317   3.954   3.547   3.124 -1.3184 -0.7245 -0.7066
23632SOL    HW272318   4.049   3.430   3.137 -0.2342  0.1632 -0.4900
23633SOL     OW72319   7.091   5.844   2.425 -0.3960 -0.0506 -0.1738
23633SOL    HW172320   7.061   5.763   2.384  0.6905 -1.4441  1.5900
23633SOL    HW272321   7.026   5.862   2.492  0.1620 -0.4033  0.4868
23634SOL     OW72322   5.198   6.035   3.301 -0.1981 -0.4068 -0.2992
23634SOL    HW172323   5.147   6.064   3.377  0.5266  3.5100 -1.0853
23634SOL    HW272324   5.285   6.019   3.336 -0.7265 -2.3335  0.2371
23635SOL     OW72325   2.631   8.263   5.167  0.0331 -0.2378 -0.0689
23635SOL    HW172326   2.602   8.207   5.095  0.6357  0.4547 -0.8708
23635SOL    HW272327   2.714   8.225   5.196 -0.4839 -0.8395  0.6360
23636SOL     OW72328   9.013   4.759   0.049 -0.4865 -0.1940  0.0061
23636SOL    HW172329   8.971   4.819   0.111  0.3186 -1.1196  1.5199
23636SOL    HW272330   8.956   4.761  -0.028 -1.7395  0.7399  0.8986
23637SOL     OW72331   0.699   3.741   6.928 -0.1461  0.0049  0.0040
23637SOL    HW172332   0.620   3.722   6.878  0.3220  0.9270 -1.1211
23637SOL    HW272333   0.712   3.663   6.982 -2.2905  0.1570  0.8645
23638SOL     OW72334   3.692   2.772   7.784  0.0807 -0.2289  0.2225
23638SOL    HW172335   3.719   2.685   7.811  0.1421 -0.3642 -0.2618
23638SOL    HW272336   3.700   2.826   7.863  0.0991 -0.6469  0.5051
23639SOL     OW72337   5.436   7.896   7.490 -0.9523 -0.0698 -0.0221
23639SOL    HW172338   5.417   7.809   7.526 -1.9704 -0.8524 -2.2739
23639SOL    HW272339   5.526   7.888   7.457 -1.5137 -0.7936 -1.4891
23640SOL     OW72340   6.611   5.975   8.129 -0.2856  0.0868  0.2581
23640SOL    HW172341   6.588   5.933   8.212  0.0048 -0.3743  0.1109
23640SOL    HW272342   6.647   6.060   8.154 -0.8008  0.2136  0.5671
23641SOL     OW72343   8.610   3.851   7.528 -0.0125 -0.2847 -0.3091
23641SOL    HW172344   8.528   3.827   7.572 -0.1999  0.1322 -0.4201
23641SOL    HW272345   8.642   3.770   7.489 -0.0345 -0.5810  0.2904
23642SOL     OW72346   7.197   6.114   6.824 -0.1522 -0.8548  0.0795
23642SOL    HW172347   7.254   6.057   6.876  0.7716 -0.8488 -0.8837
23642SOL    HW272348   7.194   6.196   6.874 -0.0266 -1.1491  0.5775
23643SOL     OW72349   5.596   2.290   4.188 -0.0308  0.3063  0.3528
23643SOL    HW172350   5.569   2.302   4.097 -0.2013  0.2971  0.4012
23643SOL    HW272351   5.573   2.199   4.207  0.6032  0.1120  0.2038
23644SOL     OW72352   7.848   5.747   2.379  0.1837  0.2975 -0.3964
23644SOL    HW172353   7.773   5.805   2.368  0.5492  0.9057  0.2776
23644SOL    HW272354   7.809   5.662   2.400 -0.3948  0.0064 -2.4175
23645SOL     OW72355   5.187   4.210   7.182 -0.0550 -0.0686  0.4325
23645SOL    HW172356   5.257   4.198   7.246  0.1643  1.0561  0.4134
23645SOL    HW272357   5.144   4.291   7.207  0.2681  0.6033 -1.0397
23646SOL     OW72358   1.412   6.355   0.253  0.1975 -0.3239  0.2231
23646SOL    HW172359   1.347   6.412   0.212  0.1430 -0.4964  0.0690
23646SOL    HW272360   1.449   6.408   0.323  0.1958 -0.0737  0.0378
23647SOL     OW72361   8.847   7.597   2.134 -0.2894 -0.6957  0.1175
23647SOL    HW172362   8.851   7.526   2.198  0.3130 -1.0823 -0.3402
23647SOL    HW272363   8.805   7.558   2.058 -0.8561 -0.2825  0.2130
23648SOL     OW72364   7.211   2.150   2.157 -0.6053 -0.1807 -0.9911
23648SOL    HW172365   7.124   2.161   2.195  0.8999  0.8486  2.5885
23648SOL    HW272366   7.223   2.228   2.103 -1.2383  0.6523  0.0277
23649SOL     OW72367   2.426   6.491   7.933  0.1006  0.1832 -0.5123
23649SOL    HW172368   2.351   6.432   7.943  0.8134 -0.8376 -1.0233
23649SOL    HW272369   2.411   6.560   7.997  0.2510 -1.6197  1.5538
23650SOL     OW72370   0.683   8.136   3.037  0.1533  0.0073 -0.4880
23650SOL    HW172371   0.712   8.171   3.121  0.8365 -0.8107 -0.3643
23650SOL    HW272372   0.702   8.042   3.043  0.6343  0.0099 -1.7348
23651SOL     OW72373   6.758   3.355   1.530  0.0436 -0.4068 -0.4114
23651SOL    HW172374   6.843   3.339   1.572  1.1826 -0.6527 -2.6336
23651SOL    HW272375   6.761   3.447   1.505 -0.7456 -0.1827  0.2977
23652SOL     OW72376   0.748   1.369   1.351  0.3719  0.3320 -0.7517
23652SOL    HW172377   0.666   1.419   1.344  0.8348  1.0674 -1.0716
23652SOL    HW272378   0.817   1.434   1.335  1.0177 -0.2815 -0.4953
23653SOL     OW72379   8.287   5.651   3.758  0.0204  0.5970 -0.2790
23653SOL    HW172380   8.242   5.676   3.838  0.7128 -0.1458  0.3543
23653SOL    HW272381   8.305   5.734   3.714 -0.3264  1.0152  0.3516
23654SOL     OW72382   9.251   1.399   1.180  0.2991  0.1575  0.6296
23654SOL    HW172383   9.180   1.383   1.117  0.3174  0.6887  0.4722
23654SOL    HW272384   9.234   1.487   1.213  1.3247  0.6093 -0.0004
23655SOL     OW72385   2.711   7.297   8.873 -0.0698  0.1418 -0.0292
23655SOL    HW172386   2.714   7.316   8.967  1.0248  0.9642 -0.2056
23655SOL    HW272387   2.803   7.291   8.847 -0.3682 -0.4018 -0.9869
23656SOL     OW72388   1.859   5.706   2.562  0.2436 -0.5993 -0.3151
23656SOL    HW172389   1.941   5.679   2.604 -0.0502  0.2071  0.8436
23656SOL    HW272390   1.800   5.726   2.636 -0.0347  1.6553 -1.0592
23657SOL     OW72391   6.948   1.456   8.002  0.3537 -0.6144 -0.0740
23657SOL    HW172392   6.999   1.528   7.964  1.1082 -1.2483 -0.2862
23657SOL    HW272393   7.009   1.411   8.060 -0.3838 -0.5271  0.7789
23658SOL     OW72394   2.499   6.158   6.105  0.2239  0.8509 -0.3455
23658SOL    HW172395   2.504   6.188   6.014  1.0668  2.1476  0.0976
23658SOL    HW272396   2.590   6.146   6.131 -0.0467 -0.8027 -0.0505
23659SOL     OW72397   8.401   6.100   0.416  0.0831  0.5698 -0.4636
23659SOL    HW172398   8.340   6.111   0.489 -0.5699 -0.8515 -0.7625
23659SOL    HW272399   8.397   6.183   0.369 -1.6867  0.4971 -0.5078
23660SOL     OW72400   2.338   7.552   8.725 -0.3254 -0.2900 -0.4988
23660SOL    HW172401   2.404   7.495   8.684 -1.3630 -2.3993  0.6312
23660SOL    HW272402   2.374   7.573   8.811 -0.4945 -0.2600 -0.4349
23661SOL     OW72403   3.182   2.223   7.358 -0.0480  0.2228 -0.3394
23661SOL    HW172404   3.175   2.268   7.442 -2.7116 -0.8022  0.0692
23661SOL    HW272405   3.107   2.164   7.356  1.3294 -1.6120 -2.3899
23662SOL     OW72406   4.832   7.686   8.316 -0.2601  0.5927 -0.6297
23662SOL    HW172407   4.757   7.743   8.333 -0.9408  0.0566 -1.7138
23662SOL    HW272408   4.888   7.696   8.393 -1.1028  1.5428 -0.1183
23663SOL     OW72409   8.945   3.164   6.553  0.3567  0.0655  0.0004
23663SOL    HW172410   8.989   3.206   6.480  1.2243  0.3954  0.6997
23663SOL    HW272411   8.879   3.107   6.512 -0.1985  1.3722 -0.9817
23664SOL     OW72412   5.530   6.698   7.980 -0.1216  0.0222 -0.0152
23664SOL    HW172413   5.590   6.714   8.052  0.3069  0.6953 -0.5022
23664SOL    HW272414   5.443   6.715   8.016 -0.0744 -1.3381  0.8024
23665SOL     OW72415   6.681   3.754   8.748  0.2305 -0.0502 -0.5531
23665SOL    HW172416   6.689   3.660   8.768  0.4172  0.1095  0.1385
23665SOL    HW272417   6.629   3.789   8.819 -0.8144  0.1863 -1.3991
23666SOL     OW72418   3.614   1.865   3.449 -0.2079  0.0422  0.7893
23666SOL    HW172419   3.660   1.927   3.505 -0.7563 -0.2787  1.6050
23666SOL    HW272420   3.677   1.795   3.434  1.4051  1.9240 -2.2893
23667SOL     OW72421   2.071   5.266   4.095  0.3471 -0.2702 -0.0299
23667SOL    HW172422   1.981   5.264   4.064 -1.0179  1.8467  3.1926
23667SOL    HW272423   2.124   5.247   4.018 -2.6554  2.2911 -3.0361
23668SOL     OW72424   8.258   5.232   8.120 -0.4428  0.3818 -0.0116
23668SOL    HW172425   8.281   5.240   8.213  1.2561  0.3548 -0.4051
23668SOL    HW272426   8.204   5.153   8.116  1.2056 -0.8384  0.6873
23669SOL     OW72427   3.340   4.755   8.060 -0.5562 -0.5810 -0.2447
23669SOL    HW172428   3.351   4.837   8.012 -2.5999  0.4349  0.8772
23669SOL    HW272429   3.270   4.709   8.014 -0.5752 -0.9085  0.1060
23670SOL     OW72430   3.693   6.674   1.001 -0.1540  0.2913 -0.3776
23670SOL    HW172431   3.788   6.669   1.013 -0.1727  0.7311 -0.0253
23670SOL    HW272432   3.666   6.584   0.986 -0.0593 -0.3164  2.4698
23671SOL     OW72433   8.949   6.903   7.099  0.3967  0.7434 -0.0741
23671SOL    HW172434   8.913   6.867   7.180 -2.2121  0.6031 -1.2087
23671SOL    HW272435   8.949   6.997   7.112  1.6042  0.6598  0.6833
23672SOL     OW72436   2.755   4.269   7.038 -0.0122 -0.0471  0.2620
23672SOL    HW172437   2.744   4.328   7.113 -1.5850  1.0664 -0.7929
23672SOL    HW272438   2.808   4.319   6.976  0.7906 -0.7477  0.3590
23673SOL     OW72439   7.863   8.584   5.033 -0.2150  0.1021 -0.7566
23673SOL    HW172440   7.890   8.631   4.954 -0.5661 -0.3113 -1.1258
23673SOL    HW272441   7.943   8.542   5.065  0.2943  1.5939  0.0440
23674SOL     OW72442   0.348   7.327   8.116 -0.4023 -0.1988 -0.6073
23674SOL    HW172443   0.350   7.393   8.048  0.5441  0.0071 -0.3877
23674SOL    HW272444   0.324   7.246   8.071 -0.5106  0.0828 -1.0520
23675SOL     OW72445   3.885   0.062   7.647 -0.1719 -0.2224  1.0681
23675SOL    HW172446   3.926  -0.019   7.615  1.4100  1.2003 -0.8128
23675SOL    HW272447   3.851   0.040   7.733 -0.2132 -3.0001  0.4327
23676SOL     OW72448   1.346   2.300   2.833 -0.3949  0.1321  0.5891
23676SOL    HW172449   1.431   2.316   2.793 -0.4317 -1.0206 -0.0059
23676SOL    HW272450   1.289   2.368   2.797  0.1877  0.7062  0.7369
23677SOL     OW72451   3.936   4.592   3.781  0.4239  0.1607  0.0096
23677SOL    HW172452   3.949   4.498   3.777 -0.1792  0.1104 -2.3541
23677SOL    HW272453   3.861   4.603   3.840  0.5450 -0.8275  0.3632
23678SOL     OW72454   2.131   2.125   8.565  0.1145 -0.0553  0.2857
23678SOL    HW172455   2.183   2.072   8.504  0.3201  1.7047 -1.1285
23678SOL    HW272456   2.181   2.205   8.577 -0.1519 -0.1514  2.4696
23679SOL     OW72457   3.209   2.233   6.297  0.1438 -0.4619  0.2749
23679SOL    HW172458   3.176   2.254   6.385 -0.8120 -3.0743  0.6409
23679SOL    HW272459   3.303   2.222   6.310  0.5369  2.1936  0.2534
23680SOL     OW72460   2.817   7.290   1.595  0.2031 -0.2305  0.1438
23680SOL    HW172461   2.807   7.195   1.596  0.8021 -0.2953  0.8934
23680SOL    HW272462   2.823   7.313   1.503 -1.7148 -0.7198 -0.1489
23681SOL     OW72463   5.400   6.275   2.037  0.1558 -0.6683 -0.3834
23681SOL    HW172464   5.459   6.229   1.978 -0.0242 -0.5275 -0.6780
23681SOL    HW272465   5.421   6.368   2.024  1.1626 -0.6891  0.8826
23682SOL     OW72466   6.336   5.674   4.189 -0.2904 -0.1852 -0.5914
23682SOL    HW172467   6.421   5.631   4.179  0.4445  1.1704 -0.4268
23682SOL    HW272468   6.306   5.690   4.100 -0.6022 -1.0568 -0.6563
23683SOL     OW72469   6.601   0.789   4.988  0.1011  0.0725  0.1978
23683SOL    HW172470   6.547   0.710   4.980  2.2695 -1.5319  0.5714
23683SOL    HW272471   6.634   0.786   5.078  1.7710  0.3215 -0.3802
23684SOL     OW72472   2.650   8.018   2.909 -0.1431  0.1653 -0.0910
23684SOL    HW172473   2.740   8.003   2.938  0.3276  0.0231 -1.5263
23684SOL    HW272474   2.651   7.994   2.816 -2.0526 -1.3902  0.2231
23685SOL     OW72475   8.713   8.025   3.423  0.0666 -0.0098  0.3518
23685SOL    HW172476   8.672   7.994   3.342 -0.4204  1.8816 -0.1836
23685SOL    HW272477   8.799   7.983   3.424 -0.1190 -0.4594 -0.8886
23686SOL     OW72478   0.760   7.219   2.437 -0.2492  0.1723  0.3899
23686SOL    HW172479   0.677   7.260   2.413  0.4075  2.5512  1.8437
23686SOL    HW272480   0.740   7.126   2.443 -2.1753  0.3506 -1.7572
23687SOL     OW72481   7.846   0.473   7.074 -0.4332  0.6856 -0.4152
23687SOL    HW172482   7.849   0.567   7.057  1.1700  0.9288  1.0144
23687SOL    HW272483   7.847   0.466   7.170  0.3152 -0.8112 -0.5117
23688SOL     OW72484   3.097   4.154   9.088  0.4269 -0.3983 -0.0816
23688SOL    HW172485   3.032   4.158   9.017 -0.1396 -0.3352  0.4338
23688SOL    HW272486   3.102   4.244   9.120  1.3109 -0.2535 -0.5879
23689SOL     OW72487   0.966   6.466   4.598  0.2887 -0.1589 -0.5224
23689SOL    HW172488   0.988   6.393   4.657 -2.1427  1.1384  2.2365
23689SOL    HW272489   0.873   6.454   4.578  0.1116  1.5661 -0.8985
23690SOL     OW72490   4.103   1.904   2.450  0.2375  0.4061  0.3157
23690SOL    HW172491   4.047   1.878   2.377 -0.3096  0.7870  0.5946
23690SOL    HW272492   4.111   1.826   2.504 -2.0363  0.9363  1.5680
23691SOL     OW72493   5.025   2.696   6.423 -0.1334  0.0330 -0.1200
23691SOL    HW172494   5.031   2.758   6.351  0.1233  0.5040  0.3058
23691SOL    HW272495   5.081   2.623   6.396 -0.5378 -0.0779 -0.6756
23692SOL     OW72496   6.595   3.736   1.314 -0.4063 -0.8784  0.7274
23692SOL    HW172497   6.595   3.775   1.401 -0.1456  2.4746 -0.6098
23692SOL    HW272498   6.675   3.685   1.310 -0.2016 -0.7216  2.3034
23693SOL     OW72499   4.864   3.693   7.021 -0.2157  0.3131 -0.2282
23693SOL    HW172500   4.869   3.670   6.928  2.4333  0.0924 -0.1189
23693SOL    HW272501   4.862   3.610   7.067 -0.4839  0.4102 -0.0640
23694SOL     OW72502   4.968   8.800   2.871  0.1963  0.1773  0.3317
23694SOL    HW172503   5.047   8.805   2.817 -1.6641  1.0716 -2.5271
23694SOL    HW272504   4.948   8.707   2.875  0.8681  0.0210  0.2527
23695SOL     OW72505   2.934   3.944   7.432  0.2810  0.2982  0.0525
23695SOL    HW172506   2.937   4.023   7.487  0.3188 -0.7123  1.5659
23695SOL    HW272507   3.020   3.904   7.444 -0.5426 -1.2254  1.2987
23696SOL     OW72508   4.039   2.941   4.565 -0.0451  0.6161 -0.2211
23696SOL    HW172509   4.058   2.848   4.562 -0.1527  0.5935 -0.1884
23696SOL    HW272510   4.111   2.982   4.517  0.5984  0.6051  0.7053
23697SOL     OW72511   4.143   2.240   6.806  0.4150 -0.4875  0.5433
23697SOL    HW172512   4.109   2.330   6.803  1.2750 -0.0625  2.3437
23697SOL    HW272513   4.227   2.244   6.761  0.0980 -0.5824 -0.0711
23698SOL     OW72514   7.518   8.489   4.827  0.0482  0.1581 -0.0784
23698SOL    HW172515   7.542   8.539   4.905  1.7172  2.2587 -1.7973
23698SOL    HW272516   7.428   8.515   4.808 -0.2872 -0.1904  0.9948
23699SOL     OW72517   6.129   1.589   0.061  0.1622 -0.2587  0.4754
23699SOL    HW172518   6.188   1.574   0.135 -0.8230  0.5252  1.4477
23699SOL    HW272519   6.090   1.503   0.044  0.3998 -0.4473  0.8575
23700SOL     OW72520   4.306   7.122   7.958  0.5394 -0.2637 -0.2920
23700SOL    HW172521   4.358   7.077   7.892  1.4459  1.7831 -1.0809
23700SOL    HW272522   4.370   7.161   8.017 -0.1735  0.2255  0.1814
23701SOL     OW72523   3.481   9.181   4.801  0.1563  0.5465 -0.1482
23701SOL    HW172524   3.416   9.162   4.734 -1.3110 -0.7248  1.5510
23701SOL    HW272525   3.506   9.273   4.786 -0.5926  0.4755 -1.9990
23702SOL     OW72526   4.429   6.436   3.818 -0.2628 -0.0544  0.2305
23702SOL    HW172527   4.441   6.342   3.836 -0.8903 -0.2404 -0.2936
23702SOL    HW272528   4.364   6.464   3.882 -1.4286 -0.3933 -0.7875
23703SOL     OW72529   8.953   8.026   0.316 -0.4140  0.2503 -0.4356
23703SOL    HW172530   8.978   7.934   0.304  1.8528  0.7955 -0.3323
23703SOL    HW272531   8.919   8.054   0.231 -0.6708 -0.5468 -0.6022
23704SOL     OW72532   8.862   2.845   8.994 -0.7712 -0.3128 -0.1665
23704SOL    HW172533   8.818   2.863   9.077 -0.9471 -0.1533 -0.2931
23704SOL    HW272534   8.894   2.931   8.965  2.1013 -0.7625  1.2867
23705SOL     OW72535   1.270   0.345   7.826 -0.5027  0.3761  0.2447
23705SOL    HW172536   1.358   0.364   7.857 -1.0718  2.4626  0.7161
23705SOL    HW272537   1.275   0.359   7.731 -0.1361 -0.4456  0.1275
23706SOL     OW72538   9.124   0.758   7.611  0.0892  0.0868  0.1369
23706SOL    HW172539   9.215   0.787   7.607  0.1857  0.1247  1.8054
23706SOL    HW272540   9.123   0.676   7.561 -0.0832  2.4529 -4.1946
23707SOL     OW72541   1.028   7.123   8.164 -0.0979 -0.2453  0.3077
23707SOL    HW172542   0.935   7.102   8.153 -0.3936  1.3214 -0.4074
23707SOL    HW272543   1.029   7.198   8.223  0.8482 -1.2637  1.6435
23708SOL     OW72544   3.626   2.047   6.023 -0.0796  0.0369  0.2417
23708SOL    HW172545   3.696   2.035   5.959  0.1014  0.4380  0.3612
23708SOL    HW272546   3.670   2.083   6.100 -0.3875  0.1049  0.3877
23709SOL     OW72547   2.606   4.526   5.063 -0.2511  0.3129 -0.0759
23709SOL    HW172548   2.542   4.593   5.037 -0.6224  0.0413  0.1414
23709SOL    HW272549   2.557   4.444   5.064 -0.5176  0.4253  2.4463
23710SOL     OW72550   4.766   2.228   1.239  0.9768 -0.0422  0.0338
23710SOL    HW172551   4.730   2.255   1.154  0.0124  0.9464  0.7397
23710SOL    HW272552   4.861   2.232   1.226  0.8443  0.4112 -0.9040
23711SOL     OW72553   5.163   8.365   8.659 -0.2036  0.4255  0.1811
23711SOL    HW172554   5.128   8.304   8.723  0.1974 -2.1767 -1.9302
23711SOL    HW272555   5.189   8.311   8.584  0.4756  3.1450 -1.7357
23712SOL     OW72556   6.486   6.897   7.027 -0.1371  0.1751 -0.1892
23712SOL    HW172557   6.477   6.853   7.111  0.1308 -0.5820 -0.5463
23712SOL    HW272558   6.495   6.989   7.049 -0.1274 -0.0075  0.6073
23713SOL     OW72559   4.655   3.809   7.700 -0.2176  0.2096 -0.5813
23713SOL    HW172560   4.743   3.788   7.729 -1.2908 -3.3499  0.5697
23713SOL    HW272561   4.662   3.819   7.605  1.8726  3.5219 -0.2573
23714SOL     OW72562   9.050   7.406   9.241  0.5135  0.1513 -0.6285
23714SOL    HW172563   8.971   7.360   9.271  0.2918  0.8696 -0.0856
23714SOL    HW272564   9.016   7.481   9.193  0.8713  0.2868 -0.6677
23715SOL     OW72565   7.966   2.651   1.537 -0.2787 -0.1528 -0.3400
23715SOL    HW172566   7.937   2.706   1.609 -0.0563 -1.7346  1.0224
23715SOL    HW272567   8.044   2.694   1.504 -0.4052  0.6211  0.3407
23716SOL     OW72568   1.801   7.866   2.062  0.0429  0.2590 -0.0058
23716SOL    HW172569   1.770   7.885   2.151  1.2038 -1.7501  0.9034
23716SOL    HW272570   1.761   7.782   2.040 -0.4211  0.8546 -1.5123
23717SOL     OW72571   8.308   3.762   2.426 -0.1606 -0.3711  0.1656
23717SOL    HW172572   8.294   3.755   2.520  0.4927  1.5195  0.4545
23717SOL    HW272573   8.220   3.757   2.388 -0.5968  0.3489  1.0240
23718SOL     OW72574   6.829   4.257   2.384  0.4309 -0.3909  0.0395
23718SOL    HW172575   6.771   4.333   2.378  0.0129 -0.7661 -0.9388
23718SOL    HW272576   6.821   4.215   2.299  1.5153 -0.9152  0.1800
23719SOL     OW72577   1.470   7.765   1.723  0.3225 -0.1951 -0.2349
23719SOL    HW172578   1.511   7.831   1.667  0.2239 -1.3486 -1.7417
23719SOL    HW272579   1.402   7.726   1.668 -0.7952 -0.3671  1.2157
23720SOL     OW72580   5.997   4.086   1.833  0.0110 -0.1005 -0.3213
23720SOL    HW172581   5.906   4.104   1.857  0.0523 -0.9654  0.5227
23720SOL    HW272582   6.016   4.001   1.872  0.2306 -1.4112 -3.0395
23721SOL     OW72583   0.652   1.981   0.184 -0.6291 -0.1254 -0.0964
23721SOL    HW172584   0.689   2.035   0.254 -1.8610  2.3947 -1.2690
23721SOL    HW272585   0.635   1.897   0.226  1.3909  0.3305  1.8293
23722SOL     OW72586   7.736   1.449   7.894 -0.1011  0.0878 -0.2396
23722SOL    HW172587   7.716   1.468   7.986  1.3999  1.3050 -0.1153
23722SOL    HW272588   7.763   1.357   7.894 -2.5378 -0.6984  0.0619
23723SOL     OW72589   3.581   3.983   8.615  0.2007 -0.6436  0.5872
23723SOL    HW172590   3.551   3.920   8.681  0.7364 -0.2317  1.2449
23723SOL    HW272591   3.509   4.046   8.608  0.1840 -0.6257  0.8783
23724SOL     OW72592   7.928   4.175   9.006 -0.0588  0.0908 -0.3357
23724SOL    HW172593   7.889   4.141   8.926 -1.0264  0.0428  0.1375
23724SOL    HW272594   7.902   4.268   9.008  1.2801  0.4990 -0.8526
23725SOL     OW72595   4.724   8.634   4.110  0.1024 -0.2524 -0.0404
23725SOL    HW172596   4.715   8.729   4.105  0.9953  0.0472  2.6037
23725SOL    HW272597   4.798   8.620   4.169  1.3863 -2.6296 -2.0237
23726SOL     OW72598   0.806   1.778   4.834 -0.1512  0.3246 -0.0662
23726SOL    HW172599   0.795   1.774   4.739  0.3198 -0.3034 -0.0999
23726SOL    HW272600   0.772   1.694   4.865  1.9337 -0.5323  0.0755
23727SOL     OW72601   8.438   5.479   7.493 -0.0176  0.0938 -0.5050
23727SOL    HW172602   8.458   5.560   7.445  0.6986 -0.0733 -0.5040
23727SOL    HW272603   8.500   5.479   7.566 -0.7920  0.1163  0.1583
23728SOL     OW72604   0.887   5.909   4.880  0.3125  0.3813 -0.1283
23728SOL    HW172605   0.819   5.935   4.943  0.2853 -0.2809  0.1316
23728SOL    HW272606   0.901   5.987   4.827 -2.4971 -0.1502 -1.8730
23729SOL     OW72607   7.764   7.502   2.435  0.0593 -0.0077 -0.2514
23729SOL    HW172608   7.692   7.546   2.391  1.2769  0.1895 -2.2131
23729SOL    HW272609   7.793   7.564   2.502 -0.3922  0.7303 -0.7202
23730SOL     OW72610   7.823   3.649   4.238 -0.2432 -0.6025 -0.5331
23730SOL    HW172611   7.828   3.590   4.312  0.9406 -1.6888 -1.4474
23730SOL    HW272612   7.852   3.734   4.273 -0.0138 -1.0149  0.3013
23731SOL     OW72613   4.655   4.616   7.863  0.7995 -0.2321  0.1960
23731SOL    HW172614   4.719   4.666   7.913  1.0239  0.1171 -0.4302
23731SOL    HW272615   4.600   4.574   7.930  1.2128  0.0659  0.7315
23732SOL     OW72616   4.939   7.562   8.761 -0.1854  0.5010  0.7798
23732SOL    HW172617   4.975   7.474   8.769  0.8699  0.8640  0.2363
23732SOL    HW272618   4.938   7.596   8.850 -0.8368 -0.1458  1.0244
23733SOL     OW72619   0.677   0.187   8.207 -0.0051 -0.6150  0.9046
23733SOL    HW172620   0.764   0.150   8.221  0.7335  1.0710  1.0708
23733SOL    HW272621   0.618   0.131   8.257  0.7183 -2.7728 -0.5473
23734SOL     OW72622   7.997   2.214   5.128 -0.7613 -0.1854  0.4129
23734SOL    HW172623   8.056   2.194   5.200 -1.0028  0.6303  0.8446
23734SOL    HW272624   7.925   2.262   5.168 -1.5097 -0.7922 -0.1779
23735SOL     OW72625   8.207   4.572   3.006  0.1530 -0.0581  0.4581
23735SOL    HW172626   8.235   4.631   2.935 -0.7237  0.9279  0.9109
23735SOL    HW272627   8.261   4.597   3.081 -1.0241  1.0064  0.9848
23736SOL     OW72628   6.185   1.418   3.889  0.0189  0.0386 -0.2345
23736SOL    HW172629   6.153   1.439   3.801 -1.1051  0.7643  0.3181
23736SOL    HW272630   6.279   1.408   3.879 -0.1830 -0.6839 -1.6657
23737SOL     OW72631   1.069   3.904   7.427 -0.3724 -0.5919  0.6125
23737SOL    HW172632   1.112   3.819   7.419  0.3495 -0.2778  1.0479
23737SOL    HW272633   1.030   3.920   7.341 -2.1326 -2.1963  1.0573
23738SOL     OW72634   7.678   0.391   9.049 -0.1091 -0.0556 -0.3907
23738SOL    HW172635   7.595   0.349   9.074  0.2971 -1.0539 -0.6476
23738SOL    HW272636   7.706   0.343   8.970 -0.0483  1.2880 -1.2065
23739SOL     OW72637   9.132   0.304   1.235  0.5548  0.1986 -0.3060
23739SOL    HW172638   9.060   0.364   1.216 -1.7414 -1.5635  2.2297
23739SOL    HW272639   9.208   0.362   1.245 -1.2542  2.5774  0.7079
23740SOL     OW72640   7.641   6.173   1.378 -0.2070  0.2332 -0.2858
23740SOL    HW172641   7.555   6.211   1.393  0.1973  0.4188  1.9524
23740SOL    HW272642   7.695   6.246   1.348 -1.0904 -0.1691 -3.0961
23741SOL     OW72643   3.432   7.473   9.068  0.0898  0.3553  0.0864
23741SOL    HW172644   3.436   7.399   9.130  0.5519 -0.7315 -1.1901
23741SOL    HW272645   3.345   7.466   9.029  1.0307 -1.1878 -1.9362
23742SOL     OW72646   2.380   6.309   0.352 -0.7287  0.0083 -0.1578
23742SOL    HW172647   2.460   6.257   0.361 -0.6587 -0.0548 -1.0548
23742SOL    HW272648   2.325   6.280   0.425 -0.2776 -0.5716 -0.0317
23743SOL     OW72649   8.345   8.184   5.852 -0.5108  0.4649  0.1052
23743SOL    HW172650   8.280   8.119   5.825  0.3728  0.2085 -1.5189
23743SOL    HW272651   8.406   8.188   5.779 -0.5178  3.1144  0.1510
23744SOL     OW72652   0.784   4.299   6.127 -0.8110  0.0511  0.1302
23744SOL    HW172653   0.871   4.288   6.166 -0.2809 -1.8170 -1.4323
23744SOL    HW272654   0.729   4.235   6.174 -1.7468  2.0846  1.9938
23745SOL     OW72655   2.355   1.510   7.818  0.0389 -0.4458  0.0646
23745SOL    HW172656   2.324   1.467   7.897 -0.7688 -1.5349 -0.7963
23745SOL    HW272657   2.309   1.465   7.747  0.0866  1.0560 -0.9740
23746SOL     OW72658   4.714   0.943   7.936  0.4187 -0.0974 -0.3334
23746SOL    HW172659   4.694   0.850   7.942 -0.6140  0.1180 -0.2826
23746SOL    HW272660   4.719   0.961   7.843  0.2625 -0.1367 -0.3503
23747SOL     OW72661   6.344   5.064   6.203  0.6729  0.0880  0.1226
23747SOL    HW172662   6.346   5.003   6.129  0.7734  0.1506  0.0734
23747SOL    HW272663   6.312   5.012   6.276  0.5941  0.0198  0.0401
23748SOL     OW72664   3.373   1.851   2.269  0.6432 -0.1074 -0.5731
23748SOL    HW172665   3.342   1.942   2.266  1.5198  0.1906 -0.8986
23748SOL    HW272666   3.443   1.847   2.203  0.9178 -0.8970 -0.2457
23749SOL     OW72667   5.809   7.163   3.438 -0.5265  0.1743  0.4491
23749SOL    HW172668   5.902   7.168   3.420  0.0906  0.2211  3.1683
23749SOL    HW272669   5.793   7.232   3.502 -1.6719 -1.8745  2.5443
23750SOL     OW72670   0.112   9.125   5.935 -0.3117 -0.0780 -0.2360
23750SOL    HW172671   0.128   9.202   5.880 -0.6747 -0.1865 -0.4919
23750SOL    HW272672   0.149   9.149   6.020 -0.7705  0.5306 -0.2071
23751SOL     OW72673   5.231   0.472   7.656  0.2103  0.4616  0.0947
23751SOL    HW172674   5.294   0.544   7.658  0.2294  0.4415  0.2580
23751SOL    HW272675   5.206   0.464   7.564  1.3608 -0.3273 -0.1847
23752SOL     OW72676   1.905   4.507   1.107 -0.8601  0.0816 -0.4999
23752SOL    HW172677   1.812   4.529   1.117 -0.6060  0.4421  1.3762
23752SOL    HW272678   1.912   4.418   1.142 -0.3653  0.3947  0.2319
23753SOL     OW72679   1.872   7.724   2.714  0.0719 -0.2241 -0.2345
23753SOL    HW172680   1.890   7.630   2.705  2.2458  0.2544 -1.5754
23753SOL    HW272681   1.927   7.751   2.788 -0.2915  0.0536 -0.0673
23754SOL     OW72682   5.340   2.170   3.364 -0.0332 -0.2177  0.2817
23754SOL    HW172683   5.318   2.086   3.324  0.6855 -0.1779 -0.2153
23754SOL    HW272684   5.387   2.147   3.444  0.2244 -0.2871  0.1102
23755SOL     OW72685   0.552   8.112   8.316  0.3068  0.3215 -0.5391
23755SOL    HW172686   0.502   8.069   8.246 -1.3057 -1.2640  1.4461
23755SOL    HW272687   0.508   8.196   8.330  0.5215  0.5618 -1.2625
23756SOL     OW72688   0.157   0.174   3.599  0.0892 -0.3258 -0.2090
23756SOL    HW172689   0.157   0.105   3.665 -1.6682 -0.0646  0.1070
23756SOL    HW272690   0.083   0.152   3.542 -0.7630  1.5092  0.1351
23757SOL     OW72691   8.546   4.120   5.056  0.7504 -0.0668 -0.1298
23757SOL    HW172692   8.595   4.039   5.042  0.9358 -0.1650  1.0148
23757SOL    HW272693   8.466   4.092   5.100 -0.9604 -0.0613 -3.0138
23758SOL     OW72694   1.685   6.865   7.715 -0.2650  0.4040 -0.4333
23758SOL    HW172695   1.675   6.952   7.754  0.9196  0.2039  0.3858
23758SOL    HW272696   1.778   6.860   7.692 -0.2791 -0.7286 -0.2824
23759SOL     OW72697   2.593   6.843   8.879  0.7531 -0.6419 -0.0975
23759SOL    HW172698   2.613   6.763   8.927  0.7034 -0.5576  0.0647
23759SOL    HW272699   2.674   6.864   8.832  1.6793  0.6933  1.9614
23760SOL     OW72700   2.314   6.122   6.509 -0.0365 -0.0664 -0.0167
23760SOL    HW172701   2.388   6.098   6.564 -0.6727 -1.3739  0.3033
23760SOL    HW272702   2.338   6.091   6.422  0.1188  0.2166 -0.0763
23761SOL     OW72703   3.809   3.209   5.046  0.0974  0.2936  0.0181
23761SOL    HW172704   3.754   3.158   4.988  0.0478  0.7816 -0.3671
23761SOL    HW272705   3.895   3.208   5.005  0.2953 -0.1617  0.4319
23762SOL     OW72706   6.654   8.764   1.706 -0.4155 -0.2790  0.4316
23762SOL    HW172707   6.607   8.843   1.734  0.4373  0.3725  0.0917
23762SOL    HW272708   6.585   8.702   1.682 -1.1173  0.9019 -0.7633
23763SOL     OW72709   1.044   2.662   2.537  0.2944  0.1955 -0.3392
23763SOL    HW172710   1.044   2.731   2.604 -1.3736 -0.5192  0.4662
23763SOL    HW272711   0.995   2.699   2.464  0.4619  0.2928 -0.4034
23764SOL     OW72712   0.093   6.957   6.457  0.0202  0.1617 -0.7175
23764SOL    HW172713   0.177   6.994   6.486  0.2377 -1.0977  0.3718
23764SOL    HW272714   0.032   7.030   6.462  0.8947  0.9260 -0.8158
23765SOL     OW72715   7.545   4.485   0.255  0.1131 -0.0073 -0.3140
23765SOL    HW172716   7.575   4.563   0.210  0.3485 -0.1217 -0.3564
23765SOL    HW272717   7.509   4.516   0.338  0.4389  0.1197 -0.2195
23766SOL     OW72718   9.161   0.742   7.910 -0.5119  0.1681  0.1449
23766SOL    HW172719   9.136   0.806   7.844 -0.0459  0.3557  0.1425
23766SOL    HW272720   9.110   0.764   7.987 -0.8052  0.1598 -0.0464
23767SOL     OW72721   6.096   5.293   0.268  0.0190  0.1257 -0.4149
23767SOL    HW172722   6.078   5.211   0.315  0.1080  1.3972  2.0415
23767SOL    HW272723   6.011   5.321   0.235 -0.0288 -0.8696 -1.1872
23768SOL     OW72724   5.700   7.194   8.679  0.3098 -0.2554 -0.2501
23768SOL    HW172725   5.711   7.283   8.645 -0.0282 -0.3241 -0.5441
23768SOL    HW272726   5.739   7.197   8.767 -2.4799  1.0593  1.0794
23769SOL     OW72727   9.202   8.303   4.009 -0.1490 -0.1286  0.5164
23769SOL    HW172728   9.170   8.352   4.085 -1.0569 -2.2778  1.6086
23769SOL    HW272729   9.136   8.235   3.996  1.0794 -1.0978 -0.8965
23770SOL     OW72730   2.178   6.367   6.454  0.4409  1.0078 -0.1193
23770SOL    HW172731   2.205   6.357   6.362 -1.5395 -0.0886 -0.6397
23770SOL    HW272732   2.228   6.300   6.501  0.6659  0.8408 -0.5865
23771SOL     OW72733   8.181   3.118   0.110  0.6969 -0.2706  0.3803
23771SOL    HW172734   8.159   3.209   0.092  1.4779 -0.2350 -0.4942
23771SOL    HW272735   8.198   3.115   0.204  0.2559  0.3907  0.4859
23772SOL     OW72736   1.786   8.357   3.226 -1.2140 -0.1401  0.0122
23772SOL    HW172737   1.830   8.347   3.311  1.1771  1.8469 -0.8771
23772SOL    HW272738   1.726   8.430   3.239 -1.1435 -0.0988  0.1125
23773SOL     OW72739   6.310   4.117   1.095  0.2035 -0.3585  0.0888
23773SOL    HW172740   6.405   4.127   1.087  0.5333 -0.7737  2.8231
23773SOL    HW272741   6.277   4.207   1.095  1.0397  0.0284  2.9383
23774SOL     OW72742   6.941   1.819   7.179  0.1414  0.1213  0.1865
23774SOL    HW172743   6.900   1.733   7.167 -0.2475  0.2997  0.1992
23774SOL    HW272744   7.033   1.805   7.158 -0.0500 -0.1461 -0.5267
23775SOL     OW72745   5.846   6.155   6.774  0.0543 -0.1811  0.0297
23775SOL    HW172746   5.813   6.065   6.772 -0.6181 -0.0206  1.8277
23775SOL    HW272747   5.832   6.188   6.685 -1.4559 -1.2572 -0.1664
23776SOL     OW72748   8.059   7.850   5.061 -0.1055  0.2611  0.7628
23776SOL    HW172749   8.055   7.879   4.970 -1.0297 -2.1306 -0.0422
23776SOL    HW272750   7.996   7.906   5.107 -0.7389  0.5202 -0.3889
23777SOL     OW72751   5.386   2.309   1.990 -0.6343  0.0932 -0.4572
23777SOL    HW172752   5.335   2.387   2.011 -4.5036 -2.0259 -0.9351
23777SOL    HW272753   5.406   2.269   2.075 -1.6556 -0.0594 -0.2727
23778SOL     OW72754   1.608   8.530   8.111  0.7001 -0.4399  0.4570
23778SOL    HW172755   1.623   8.504   8.202 -1.1832 -1.7152  0.4635
23778SOL    HW272756   1.548   8.604   8.118  0.4957 -0.5867  0.2803
23779SOL     OW72757   0.378   5.171   0.903  0.4380  0.1696 -0.1388
23779SOL    HW172758   0.320   5.100   0.874 -0.0878  0.1526  0.9122
23779SOL    HW272759   0.325   5.250   0.897  0.5173  0.2499  0.1996
23780SOL     OW72760   5.516   8.759   6.498 -0.6331 -0.1986 -0.1213
23780SOL    HW172761   5.599   8.805   6.483 -1.7176  1.0026 -3.3381
23780SOL    HW272762   5.456   8.826   6.529 -0.9399 -0.6067  0.1834
23781SOL     OW72763   4.928   3.167   1.424  0.4770  0.2347  0.6869
23781SOL    HW172764   4.849   3.113   1.413  1.7068 -1.5326  0.0272
23781SOL    HW272765   4.982   3.118   1.486  2.4713 -0.3960 -1.3979
23782SOL     OW72766   3.778   6.804   3.932 -0.2203  0.3572  0.6039
23782SOL    HW172767   3.823   6.791   4.015 -1.4927 -1.1770  1.1144
23782SOL    HW272768   3.695   6.757   3.943 -0.1269 -0.4912 -1.7640
23783SOL     OW72769   5.363   2.818   5.901  0.3180 -0.0787  0.6841
23783SOL    HW172770   5.344   2.911   5.894 -1.4045 -0.3688  0.9813
23783SOL    HW272771   5.335   2.794   5.990 -0.2224 -1.0696  0.2649
23784SOL     OW72772   5.040   2.091   3.885 -0.6213 -0.4688  0.1564
23784SOL    HW172773   4.996   2.079   3.801 -1.2880 -0.2969  0.4765
23784SOL    HW272774   4.992   2.162   3.927  0.0466 -0.1949  0.4583
23785SOL     OW72775   8.863   0.412   6.933  0.1793  0.1662 -0.1307
23785SOL    HW172776   8.793   0.422   6.998 -1.1850 -0.2790 -1.4472
23785SOL    HW272777   8.818   0.425   6.849  1.6545 -0.3418 -1.0290
23786SOL     OW72778   8.381   7.299   8.639 -0.4534  0.5297  0.7195
23786SOL    HW172779   8.441   7.232   8.605  0.0568  1.5230 -0.4124
23786SOL    HW272780   8.396   7.375   8.583 -2.8111  0.8146  0.3798
23787SOL     OW72781   2.903   5.690   0.037  0.4940 -0.1648  0.5724
23787SOL    HW172782   2.990   5.726   0.051 -0.0791  1.3288  0.4930
23787SOL    HW272783   2.873   5.664   0.125  0.0511  1.6862  1.0022
23788SOL     OW72784   3.839   0.555   2.224 -1.1542  0.0097  0.0477
23788SOL    HW172785   3.804   0.596   2.146  0.8026 -0.1195 -0.9709
23788SOL    HW272786   3.906   0.495   2.192 -1.3073 -1.1467  1.7436
23789SOL     OW72787   3.460   3.758   5.756  0.0194  0.4350  0.0768
23789SOL    HW172788   3.505   3.817   5.695  0.8207 -1.2044 -1.0033
23789SOL    HW272789   3.437   3.682   5.703  0.7981 -1.1044  1.8231
23790SOL     OW72790   1.181   7.773   1.865  0.4501  0.7103 -0.4269
23790SOL    HW172791   1.220   7.858   1.850  1.8670  0.0987 -0.3572
23790SOL    HW272792   1.180   7.762   1.960  0.3683  0.6149 -0.4378
23791SOL     OW72793   5.106   0.540   0.951  0.3358  0.0033 -0.2028
23791SOL    HW172794   5.039   0.486   0.994 -0.6911  1.7924  0.5559
23791SOL    HW272795   5.173   0.554   1.018  0.0009  0.6664 -0.0037
23792SOL     OW72796   5.820   5.025   1.546  0.2467  0.2254  0.2618
23792SOL    HW172797   5.762   4.990   1.479  0.5791  1.0472 -0.4720
23792SOL    HW272798   5.867   4.948   1.580  1.1713 -0.0428 -1.5087
23793SOL     OW72799   5.317   6.681   0.826  0.5610  0.5691 -0.3980
23793SOL    HW172800   5.323   6.720   0.739  1.4200  2.3961  0.4351
23793SOL    HW272801   5.236   6.630   0.825  0.8006  0.1498 -2.3968
23794SOL     OW72802   6.045   7.893   0.375  0.4399 -0.2188  0.4064
23794SOL    HW172803   6.043   7.886   0.280  0.1921  1.2939  0.2711
23794SOL    HW272804   6.134   7.921   0.396 -0.0953  1.6775  0.3836
23795SOL     OW72805   3.928   7.902   6.672  0.4575 -0.0032  0.3836
23795SOL    HW172806   3.910   7.836   6.739  0.1644  0.4074  0.7104
23795SOL    HW272807   4.022   7.895   6.656  0.1426 -1.8028 -0.9653
23796SOL     OW72808   1.119   4.493   2.313  0.8804  0.5815 -0.1979
23796SOL    HW172809   1.163   4.472   2.231 -0.2576  0.9190 -0.9011
23796SOL    HW272810   1.191   4.498   2.377  1.7656  0.2093 -1.1312
23797SOL     OW72811   3.785   0.837   9.103 -0.6342 -0.2079 -0.2835
23797SOL    HW172812   3.856   0.835   9.039  0.5139 -0.3708  0.9227
23797SOL    HW272813   3.712   0.792   9.061 -0.2068  0.4245 -1.7614
23798SOL     OW72814   5.074   6.695   5.040 -0.7497  0.1765 -0.0400
23798SOL    HW172815   5.143   6.662   5.097 -1.1474  1.9407  1.5767
23798SOL    HW272816   5.109   6.686   4.951  1.3999  0.6221  0.7103
23799SOL     OW72817   0.137   3.532   3.699  0.2713 -0.6786  0.5252
23799SOL    HW172818   0.199   3.605   3.697 -0.6551  0.1404 -1.6348
23799SOL    HW272819   0.096   3.538   3.785  0.6186  1.0558  0.6185
23800SOL     OW72820   6.743   7.473   1.115  0.1749 -0.0864 -0.3982
23800SOL    HW172821   6.786   7.395   1.149  0.9365  0.5364  0.1201
23800SOL    HW272822   6.683   7.441   1.049  1.9031 -0.9652 -1.6198
23801SOL     OW72823   4.038   4.669   4.938 -0.3857  0.3721  0.5913
23801SOL    HW172824   3.989   4.655   4.857  0.9801 -1.2036 -0.0149
23801SOL    HW272825   4.015   4.758   4.965 -0.9386  0.9026 -1.4792
23802SOL     OW72826   3.766   0.109   2.942  0.1115 -0.0821  0.3444
23802SOL    HW172827   3.818   0.185   2.966  0.0562 -0.2192  0.9346
23802SOL    HW272828   3.791   0.089   2.852  0.5970  0.2440  0.4041
23803SOL     OW72829   0.721   7.486   1.765  0.0939  0.3315 -0.2109
23803SOL    HW172830   0.811   7.512   1.746 -0.0135  1.4362  0.7232
23803SOL    HW272831   0.720   7.471   1.859 -0.4971 -0.5381 -0.3462
23804SOL     OW72832   6.769   3.746   2.582 -0.1387  0.1739 -0.1783
23804SOL    HW172833   6.788   3.720   2.492 -1.1147  0.7444 -0.5672
23804SOL    HW272834   6.837   3.810   2.604 -0.8554  1.3060 -1.1245
23805SOL     OW72835   2.265   1.100   2.180 -0.4074 -0.8774  0.0972
23805SOL    HW172836   2.176   1.083   2.151  0.2344 -1.5225 -1.6529
23805SOL    HW272837   2.319   1.082   2.103  1.3147 -1.3783  1.3509
23806SOL     OW72838   0.206   7.747   0.803 -0.3837  0.1901 -0.2498
23806SOL    HW172839   0.249   7.745   0.718 -3.9134 -0.6952 -2.2359
23806SOL    HW272840   0.211   7.657   0.835  0.6232  0.4453  0.3449
23807SOL     OW72841   6.613   0.158   3.886  0.0724 -0.2952  0.3336
23807SOL    HW172842   6.668   0.082   3.869  1.7345  1.0587 -0.5811
23807SOL    HW272843   6.569   0.175   3.803  0.1409  0.0951  0.3759
23808SOL     OW72844   1.273   3.246   7.777  0.1252  0.3578  0.3016
23808SOL    HW172845   1.358   3.226   7.737 -0.1505  0.2137 -0.2235
23808SOL    HW272846   1.271   3.341   7.785 -0.4560  0.5501 -1.5248
23809SOL     OW72847   2.406   5.286   8.968  0.1571  0.0390  0.6977
23809SOL    HW172848   2.351   5.212   8.940 -0.1372  0.1716  0.9295
23809SOL    HW272849   2.416   5.274   9.062 -0.2153  0.5079  0.8027
23810SOL     OW72850   5.237   0.586   1.847 -0.2072 -0.1701 -0.0886
23810SOL    HW172851   5.257   0.666   1.897 -1.1737 -0.7739  1.3432
23810SOL    HW272852   5.161   0.549   1.891 -1.2458 -0.6633 -2.1803
23811SOL     OW72853   2.018   5.437   3.694 -0.4014  0.1791  0.4831
23811SOL    HW172854   1.923   5.439   3.708 -0.6049  1.1299 -0.8669
23811SOL    HW272855   2.054   5.414   3.780 -1.8475 -0.3280  0.9905
23812SOL     OW72856   8.105   7.466   8.483 -0.3090  0.2727  0.2289
23812SOL    HW172857   8.192   7.506   8.490 -0.3595  0.5215 -0.4533
23812SOL    HW272858   8.085   7.436   8.571  0.1281  0.9290  0.5571
23813SOL     OW72859   7.589   8.726   6.419  0.1643 -0.8207 -0.6146
23813SOL    HW172860   7.607   8.761   6.331 -0.9442  0.2928 -0.4311
23813SOL    HW272861   7.555   8.638   6.403  0.6949 -0.9223 -1.2509
23814SOL     OW72862   8.525   4.165   9.100 -0.4051  0.7206 -0.2916
23814SOL    HW172863   8.519   4.135   9.010 -0.6281 -1.4544  0.3719
23814SOL    HW272864   8.601   4.222   9.103 -0.5151  0.9711 -1.8824
23815SOL     OW72865   2.170   3.132   0.938  0.4467  0.2838 -0.2803
23815SOL    HW172866   2.181   3.119   0.844  2.9225  2.6382 -0.4468
23815SOL    HW272867   2.087   3.180   0.945  0.1313 -0.0874 -1.2059
23816SOL     OW72868   7.219   3.615   8.646  0.0122 -0.0969 -0.4572
23816SOL    HW172869   7.239   3.709   8.642  1.8482 -0.3336  1.5382
23816SOL    HW272870   7.124   3.611   8.644 -0.2408  2.0266  2.0296
23817SOL     OW72871   7.426   7.118   7.281 -0.0605  0.2994 -0.4960
23817SOL    HW172872   7.468   7.204   7.288  0.3471  0.0203  0.8260
23817SOL    HW272873   7.491   7.057   7.316 -0.5801 -0.4676 -0.8483
23818SOL     OW72874   0.093   6.708   1.016 -0.1523  0.0464  0.0271
23818SOL    HW172875   0.061   6.773   0.954  0.2775  0.7713  0.5419
23818SOL    HW272876   0.075   6.746   1.102 -1.1473 -1.1394  0.3739
23819SOL     OW72877   1.938   6.104   6.298  0.3886 -0.2076 -0.2907
23819SOL    HW172878   1.939   6.018   6.255  2.3034  0.1002 -0.9970
23819SOL    HW272879   2.015   6.103   6.355 -0.6559  0.3616  1.1937
23820SOL     OW72880   5.751   4.832   5.268  0.6844  0.4123 -0.1828
23820SOL    HW172881   5.772   4.882   5.189  0.0331  0.6737 -0.1923
23820SOL    HW272882   5.833   4.786   5.289  0.6717 -0.1883 -1.3812
23821SOL     OW72883   0.056   8.184   1.219 -0.2369 -0.0117 -0.0471
23821SOL    HW172884  -0.026   8.141   1.243  0.7164 -1.6921  0.3445
23821SOL    HW272885   0.059   8.180   1.124 -0.5238 -0.0765 -0.0542
23822SOL     OW72886   7.503   3.471   4.975  0.4986 -0.1570  0.4198
23822SOL    HW172887   7.460   3.481   4.890  0.7009  0.4842  0.3890
23822SOL    HW272888   7.496   3.557   5.016  1.1424 -0.2341  0.7012
23823SOL     OW72889   7.585   5.419   1.029 -0.0937  0.1314  0.3977
23823SOL    HW172890   7.674   5.428   0.995 -0.3996  3.0488  0.1325
23823SOL    HW272891   7.582   5.478   1.104 -1.5581 -0.6155  0.9652
23824SOL     OW72892   4.785   8.517   7.909  0.4366 -0.4045 -0.2801
23824SOL    HW172893   4.836   8.587   7.868  0.6148 -0.3861 -0.0320
23824SOL    HW272894   4.801   8.440   7.854 -0.4633 -0.0470 -1.0620
23825SOL     OW72895   6.531   9.151   1.288 -0.1238  0.3417 -0.6427
23825SOL    HW172896   6.576   9.162   1.204  0.8404 -0.8899 -0.3064
23825SOL    HW272897   6.601   9.144   1.352 -0.6997 -2.3620 -0.1860
23826SOL     OW72898   6.925   1.586   5.463 -0.0524  0.7630  0.2761
23826SOL    HW172899   6.941   1.493   5.481 -1.3951  0.4667  0.0356
23826SOL    HW272900   6.969   1.603   5.380 -0.0895  0.2561  0.1520
23827SOL     OW72901   1.404   7.777   4.369  0.1643 -0.1459 -0.1257
23827SOL    HW172902   1.318   7.754   4.333  0.0266  0.5298 -0.2387
23827SOL    HW272903   1.422   7.864   4.335  0.5789  0.0109  0.4747
23828SOL     OW72904   5.555   5.107   5.320  0.8086 -0.3730 -0.4234
23828SOL    HW172905   5.514   5.181   5.276 -0.6926 -1.8048 -1.5693
23828SOL    HW272906   5.649   5.126   5.318  0.5155  1.1025 -1.3813
23829SOL     OW72907   5.167   6.918   6.536  0.0522 -0.5233 -0.0839
23829SOL    HW172908   5.153   6.857   6.609  0.2101 -1.4585 -0.8095
23829SOL    HW272909   5.125   6.875   6.461 -1.9115  1.3404 -0.1571
23830SOL     OW72910   2.294   8.041   9.204 -0.1873 -0.6790  0.2823
23830SOL    HW172911   2.320   8.131   9.221  1.0980 -0.6174 -1.7614
23830SOL    HW272912   2.258   8.041   9.116  1.0746 -2.3624 -0.3046
23831SOL     OW72913   7.955   2.226   7.856 -0.2680 -0.0352  0.0036
23831SOL    HW172914   8.045   2.244   7.828 -0.6013  0.9790 -0.4691
23831SOL    HW272915   7.937   2.291   7.923  0.2807 -2.0087  2.2027
23832SOL     OW72916   3.001   6.013   4.616  0.9269 -0.1957  0.1382
23832SOL    HW172917   3.006   6.069   4.539  0.4352 -0.7546 -0.3079
23832SOL    HW272918   3.079   5.957   4.610  1.1495  0.0959  0.3121
23833SOL     OW72919   5.082   0.466   4.421  0.1251  1.0145  0.0061
23833SOL    HW172920   5.037   0.546   4.397 -1.2052 -0.2866 -2.2013
23833SOL    HW272921   5.148   0.454   4.353  0.0421  0.0602  0.0718
23834SOL     OW72922   7.005   4.713   7.505  0.0099 -0.2528 -0.0022
23834SOL    HW172923   7.074   4.762   7.550  1.2038 -0.3956 -1.5816
23834SOL    HW272924   6.975   4.773   7.436 -0.6801 -0.5996 -0.0079
23835SOL     OW72925   0.405   4.146   1.581  0.3524 -0.6012 -0.0969
23835SOL    HW172926   0.424   4.071   1.526 -1.6616 -1.4674  0.2924
23835SOL    HW272927   0.373   4.213   1.520 -0.3801 -1.0127 -0.1815
23836SOL     OW72928   5.708   5.678   0.663  0.3732 -0.3526 -0.6446
23836SOL    HW172929   5.684   5.770   0.651  0.7782 -0.2766 -0.8732
23836SOL    HW272930   5.746   5.652   0.579 -0.4214 -0.9428 -0.8443
23837SOL     OW72931   3.280   8.074   1.998 -0.2085  0.0436 -0.2484
23837SOL    HW172932   3.285   8.070   2.093  0.8265 -1.8973 -0.3265
23837SOL    HW272933   3.235   7.993   1.973  1.4519 -0.5545 -1.4688
23838SOL     OW72934   5.632   0.482   7.172  0.4435 -0.0367  0.2216
23838SOL    HW172935   5.641   0.414   7.107  0.3343  0.6330 -0.5082
23838SOL    HW272936   5.604   0.436   7.252  0.8709 -0.8900 -0.1156
23839SOL     OW72937   5.577   5.304   4.472  0.4334  0.1143  0.1250
23839SOL    HW172938   5.574   5.301   4.568  0.5355 -1.1659  0.1127
23839SOL    HW272939   5.490   5.335   4.446  0.5602  0.9168  0.6413
23840SOL     OW72940   7.836   0.077   7.007 -0.3733  0.1215 -0.0120
23840SOL    HW172941   7.916   0.094   6.958  0.1730 -0.1267  0.7858
23840SOL    HW272942   7.768   0.069   6.939  0.1593  0.9187 -0.6501
23841SOL     OW72943   7.218   2.854   4.511 -0.0820  0.9327 -0.2408
23841SOL    HW172944   7.217   2.771   4.560  0.5915 -0.8710 -3.0442
23841SOL    HW272945   7.126   2.877   4.501 -0.2662  0.7543  0.8909
23842SOL     OW72946   4.442   5.568   8.301  0.4573 -0.1782  0.0783
23842SOL    HW172947   4.414   5.532   8.217  0.6249 -2.1327  0.8024
23842SOL    HW272948   4.425   5.662   8.294 -1.3155 -0.5504 -1.4375
23843SOL     OW72949   6.022   5.257   8.653 -0.3388  0.2920  0.2553
23843SOL    HW172950   6.102   5.274   8.603 -0.2116  0.4705  0.5175
23843SOL    HW272951   5.951   5.273   8.591 -0.1584 -0.8192 -0.2648
23844SOL     OW72952   0.621   5.694   3.783 -1.1655 -0.6582  0.5789
23844SOL    HW172953   0.575   5.727   3.860 -0.7207 -1.5860  1.2615
23844SOL    HW272954   0.709   5.731   3.789 -1.1619 -0.6458  0.4558
23845SOL     OW72955   0.604   7.747   7.300  0.6081 -0.6192  0.1999
23845SOL    HW172956   0.620   7.757   7.394  0.3780 -1.5116  0.3498
23845SOL    HW272957   0.690   7.759   7.260  0.8418 -0.9343  0.5914
23846SOL     OW72958   1.859   2.988   0.234  0.5177 -0.3255 -0.1780
23846SOL    HW172959   1.903   3.064   0.272 -0.9496  0.3218  0.3055
23846SOL    HW272960   1.867   3.000   0.139 -0.2548  0.7894 -0.1181
23847SOL     OW72961   2.079   4.731   3.021 -0.0168 -0.5306 -0.2173
23847SOL    HW172962   2.042   4.751   3.107 -2.8361 -2.3917 -0.8315
23847SOL    HW272963   2.041   4.796   2.963  0.8399 -0.0739 -0.2742
23848SOL     OW72964   7.972   2.449   8.615  0.1417  0.1230  0.0165
23848SOL    HW172965   8.000   2.509   8.546 -0.7172 -0.1229 -0.5709
23848SOL    HW272966   7.888   2.415   8.584  0.6490 -1.4577  0.2763
23849SOL     OW72967   1.001   2.560   4.006 -0.9275  0.5883  0.2655
23849SOL    HW172968   0.943   2.488   4.029 -2.9904  2.4304  1.2543
23849SOL    HW272969   1.025   2.600   4.090  0.2609  1.0256 -0.2473
23850SOL     OW72970   5.397   0.422   6.043 -0.2526  0.1549  0.1368
23850SOL    HW172971   5.456   0.349   6.064 -1.8583 -0.8823  1.2378
23850SOL    HW272972   5.423   0.449   5.955  1.7162 -0.3911  0.5104
23851SOL     OW72973   3.663   3.439   6.688  0.3082 -0.4384  0.1761
23851SOL    HW172974   3.749   3.467   6.656  0.6898 -0.0801  1.4121
23851SOL    HW272975   3.680   3.357   6.734 -0.3846 -1.4393 -1.2895
23852SOL     OW72976   4.839   5.849   0.543 -0.2505  0.1567  0.3625
23852SOL    HW172977   4.905   5.893   0.596 -0.1686  1.4406 -0.7429
23852SOL    HW272978   4.840   5.896   0.459 -0.5155 -1.6391 -0.7212
23853SOL     OW72979   3.636   4.798   6.460  0.0328  0.0669  0.4620
23853SOL    HW172980   3.667   4.709   6.443  0.7815  0.3917  0.0777
23853SOL    HW272981   3.603   4.795   6.550 -0.2387 -0.6703  0.3451
23854SOL     OW72982   0.141   4.937   5.985 -0.5880 -0.0288 -0.5854
23854SOL    HW172983   0.053   4.964   6.013  0.1818  1.7137  0.3097
23854SOL    HW272984   0.184   4.908   6.065  0.4219  1.4979 -0.5237
23855SOL     OW72985   7.553   4.370   1.620 -0.0730 -0.2511 -0.5079
23855SOL    HW172986   7.604   4.442   1.583  1.9191 -1.1635  0.2680
23855SOL    HW272987   7.618   4.318   1.668 -1.9401 -0.9520  1.4077
23856SOL     OW72988   9.027   4.215   2.522 -0.3014  0.1299  0.3576
23856SOL    HW172989   9.112   4.177   2.503 -0.0890 -0.6754  2.7052
23856SOL    HW272990   8.971   4.185   2.450  0.8400 -1.2146 -0.0047
23857SOL     OW72991   8.666   4.357   0.669  0.2255  0.1666 -0.2036
23857SOL    HW172992   8.735   4.319   0.724 -1.3603 -1.6887  0.6370
23857SOL    HW272993   8.708   4.431   0.625  3.0347 -1.4823 -0.5343
23858SOL     OW72994   2.734   6.453   1.307  0.0924  0.3130 -0.0122
23858SOL    HW172995   2.660   6.393   1.320  2.4644 -3.2543 -1.5616
23858SOL    HW272996   2.802   6.399   1.267  3.2666  3.6114  0.4511
23859SOL     OW72997   9.229   1.018   0.303 -0.7664 -0.4731  0.2748
23859SOL    HW172998   9.163   0.990   0.366 -2.6877  0.0469 -1.4253
23859SOL    HW272999   9.239   1.112   0.319 -1.4305 -0.2937 -0.3195
23860SOL     OW73000   9.152   7.098   0.018  0.0773 -0.3965 -0.8339
23860SOL    HW173001   9.145   7.007   0.049  1.7398 -1.1734 -2.5311
23860SOL    HW273002   9.151   7.150   0.098 -0.3862 -1.9497  0.2308
23861SOL     OW73003   1.237   0.153   2.481 -0.4809  0.1441  0.2632
23861SOL    HW173004   1.188   0.145   2.563 -1.7214 -2.0119 -0.5996
23861SOL    HW273005   1.288   0.073   2.477  1.4574  1.3440  0.0417
23862SOL     OW73006   4.057   1.171   3.743 -0.2649 -0.0202 -0.4613
23862SOL    HW173007   4.060   1.158   3.648 -0.4536 -0.5853 -0.3990
23862SOL    HW273008   3.964   1.171   3.764 -0.2154 -0.9111 -0.1628
23863SOL     OW73009   1.602   1.520   2.393  0.2201  0.0649  0.2157
23863SOL    HW173010   1.630   1.441   2.440 -2.8731 -2.0477 -1.0857
23863SOL    HW273011   1.512   1.534   2.424  0.9997  3.8206  1.1627
23864SOL     OW73012   8.684   9.040   6.808  0.0131 -0.0039 -0.0244
23864SOL    HW173013   8.622   9.067   6.876  0.3228  0.4510  0.0823
23864SOL    HW273014   8.649   8.957   6.776  0.1829 -0.5182  1.0906
23865SOL     OW73015   2.186   4.398   5.933 -0.1767 -0.0733  0.1892
23865SOL    HW173016   2.274   4.361   5.935  0.3700  1.1921  0.9836
23865SOL    HW273017   2.165   4.404   5.840  1.3867  1.3605 -0.1380
23866SOL     OW73018   6.476   0.767   8.139  0.5239 -0.4409 -0.1551
23866SOL    HW173019   6.390   0.806   8.128  0.2230 -0.9512  0.3813
23866SOL    HW273020   6.494   0.724   8.055 -0.2968 -1.4153  0.1566
23867SOL     OW73021   0.955   1.796   6.607 -0.4301  0.1759  0.1807
23867SOL    HW173022   0.987   1.777   6.695 -1.2831 -0.0410  0.4448
23867SOL    HW273023   0.939   1.891   6.607  1.4601  0.5398 -0.3737
23868SOL     OW73024   6.570   6.318   3.659  0.2300 -0.1272  0.7061
23868SOL    HW173025   6.569   6.319   3.563 -1.5747 -2.5330  0.5970
23868SOL    HW273026   6.533   6.403   3.684  0.3924  0.4001 -0.7251
23869SOL     OW73027   5.151   9.167   7.740 -0.0337 -0.2063  0.3099
23869SOL    HW173028   5.108   9.221   7.805  0.1062  0.4849 -0.1660
23869SOL    HW273029   5.107   9.188   7.658  0.3163 -0.4913  0.0452
23870SOL     OW73030   2.858   6.436   7.109 -0.0676  0.4058  0.3781
23870SOL    HW173031   2.843   6.471   7.021  0.1040 -0.6709 -0.1033
23870SOL    HW273032   2.929   6.372   7.097 -0.3741 -0.1007  1.2057
23871SOL     OW73033   3.353   7.336   7.452  0.2893  0.7624  0.4186
23871SOL    HW173034   3.390   7.269   7.396  1.2615  0.7509  1.0531
23871SOL    HW273035   3.264   7.349   7.419  0.4509 -0.0738 -0.3687
23872SOL     OW73036   7.758   0.834   0.851  0.2244  0.1981  0.0057
23872SOL    HW173037   7.817   0.909   0.850  0.4284  0.0557 -2.1159
23872SOL    HW273038   7.788   0.778   0.779 -1.3614 -0.7770  0.0478
23873SOL     OW73039   3.966   1.738   4.700 -0.1475  0.2537  0.3284
23873SOL    HW173040   3.922   1.749   4.615  1.9229  3.0777 -0.5268
23873SOL    HW273041   3.950   1.820   4.746  2.9810  0.9365  0.4610
23874SOL     OW73042   6.071   1.030   8.339  0.1287  0.1611  0.4628
23874SOL    HW173043   6.082   1.114   8.294 -0.6159 -0.0158 -0.0774
23874SOL    HW273044   6.092   1.048   8.430  0.5514  0.7954  0.2436
23875SOL     OW73045   1.323   1.705   0.964  0.3695  0.4746 -0.1886
23875SOL    HW173046   1.233   1.730   0.946  0.3565  0.8788  0.4121
23875SOL    HW273047   1.348   1.756   1.042  0.6065 -0.7432  0.5707
23876SOL     OW73048   0.001   7.299   2.070  0.0693  0.0151 -0.2364
23876SOL    HW173049   0.063   7.367   2.097  0.8011  0.1367 -2.0513
23876SOL    HW273050  -0.042   7.272   2.151  0.7167  1.6940  0.7233
23877SOL     OW73051   4.687   6.824   3.192 -0.3241 -0.2421 -0.1763
23877SOL    HW173052   4.673   6.731   3.173  1.5654 -0.9691  1.6420
23877SOL    HW273053   4.780   6.837   3.177 -0.6221  1.4752 -0.7135
23878SOL     OW73054   8.351   1.132   6.590 -0.2070 -0.0989 -0.8088
23878SOL    HW173055   8.376   1.204   6.647  2.3894 -0.4048 -1.4109
23878SOL    HW273056   8.346   1.172   6.502  1.7066 -0.6376 -1.2198
23879SOL     OW73057   3.364   5.386   0.726  0.4008  0.0056 -0.1167
23879SOL    HW173058   3.325   5.327   0.662  1.1554 -0.0143 -0.5754
23879SOL    HW273059   3.306   5.462   0.728 -0.6707 -0.7907  0.5981
23880SOL     OW73060   2.981   2.345   5.525 -0.3774  0.5920 -0.2455
23880SOL    HW173061   3.010   2.399   5.599 -0.2405 -0.2429  0.3283
23880SOL    HW273062   2.950   2.264   5.566  0.0487 -0.0356 -1.1307
23881SOL     OW73063   7.409   5.990   6.264 -0.4492  0.2522 -0.2029
23881SOL    HW173064   7.481   6.014   6.323 -0.4718 -0.2539  0.0376
23881SOL    HW273065   7.450   5.934   6.198 -0.8823 -1.3250  0.8133
23882SOL     OW73066   2.711   6.817   4.522  0.6941  0.1466  0.1505
23882SOL    HW173067   2.670   6.887   4.572 -1.1607  0.3675 -1.5477
23882SOL    HW273068   2.754   6.861   4.449 -0.1271 -0.3995 -0.6942
23883SOL     OW73069   5.049   4.931   9.257 -0.0464  0.9175  0.3300
23883SOL    HW173070   4.970   4.911   9.207 -0.7269 -0.4838  1.8965
23883SOL    HW273071   5.016   4.971   9.338  0.7915 -0.2294  1.2580
23884SOL     OW73072   4.720   8.272   0.247  0.3998 -0.4284 -0.0406
23884SOL    HW173073   4.631   8.297   0.222  0.5647  1.2073  0.8820
23884SOL    HW273074   4.709   8.226   0.330  0.3314 -1.3236 -0.5274
23885SOL     OW73075   6.977   7.693   5.248 -0.0036 -0.1782  0.1846
23885SOL    HW173076   6.949   7.784   5.245 -0.5299 -0.1737  3.1304
23885SOL    HW273077   6.909   7.645   5.200 -0.2649  0.8240 -0.4734
23886SOL     OW73078   4.906   1.258   6.269  0.3083  1.0928 -0.5465
23886SOL    HW173079   4.995   1.234   6.297  1.9535  4.5393 -2.1920
23886SOL    HW273080   4.890   1.343   6.310 -2.2565  0.6048 -0.3807
23887SOL     OW73081   6.543   6.780   0.872  0.8528 -0.7865 -0.6392
23887SOL    HW173082   6.511   6.742   0.954 -2.4911  0.1577 -1.3576
23887SOL    HW273083   6.610   6.843   0.899 -0.1604 -0.5139  1.3895
23888SOL     OW73084   5.479   7.682   5.049  0.3559  0.3454  0.2455
23888SOL    HW173085   5.475   7.706   5.141  0.7063 -2.4295  1.0695
23888SOL    HW273086   5.413   7.614   5.038  1.3169 -0.4128 -1.1848
23889SOL     OW73087   0.502   1.234   7.936  0.1808  0.0771 -0.6611
23889SOL    HW173088   0.423   1.184   7.917  0.8531 -1.6888  0.9033
23889SOL    HW273089   0.550   1.237   7.853  0.2406 -2.1411 -0.7497
23890SOL     OW73090   7.271   1.326   5.158 -0.0959  0.2110  0.1340
23890SOL    HW173091   7.308   1.316   5.246  0.7312 -3.2918 -0.4507
23890SOL    HW273092   7.221   1.246   5.144 -0.7054  0.9365 -2.3714
23891SOL     OW73093   7.297   8.657   4.872 -0.1453  0.0407 -0.5610
23891SOL    HW173094   7.367   8.718   4.895 -0.6880  0.8342 -0.9541
23891SOL    HW273095   7.228   8.713   4.835 -0.4181 -0.8810 -1.4799
23892SOL     OW73096   0.031   4.619   0.472 -0.5779  0.1599  0.2127
23892SOL    HW173097   0.108   4.671   0.446 -0.5976 -0.7025 -1.7782
23892SOL    HW273098  -0.019   4.677   0.529  0.9072  1.2095  0.5001
23893SOL     OW73099   3.411   8.247   2.395 -0.1602  0.0736 -0.1952
23893SOL    HW173100   3.398   8.333   2.355 -1.5192  0.3448  0.7274
23893SOL    HW273101   3.418   8.265   2.489 -0.6212 -0.8199  0.0254
23894SOL     OW73102   7.493   6.646   7.228 -0.1887 -0.2495  0.1837
23894SOL    HW173103   7.476   6.649   7.134 -0.1810  0.7007  0.2085
23894SOL    HW273104   7.566   6.706   7.242 -1.1965  0.8339  0.9935
23895SOL     OW73105   0.470   3.509   5.109  0.6391 -0.7017  0.5137
23895SOL    HW173106   0.437   3.452   5.040 -0.3079 -0.0703  0.4266
23895SOL    HW273107   0.425   3.479   5.188 -1.9797  1.5472  0.0341
23896SOL     OW73108   3.282   3.185   7.839  0.1915 -0.5096  0.2782
23896SOL    HW173109   3.343   3.257   7.824 -1.1689  0.5530 -0.3779
23896SOL    HW273110   3.218   3.221   7.901  0.7382 -1.9354  1.7517
23897SOL     OW73111   7.113   1.408   0.743 -0.2415  0.2879  0.6267
23897SOL    HW173112   7.170   1.449   0.678  0.3852 -0.8596  0.4379
23897SOL    HW273113   7.029   1.454   0.734  0.4056  1.4503  0.3546
23898SOL     OW73114   0.416   8.210   3.053  0.1979  0.0529 -0.2468
23898SOL    HW173115   0.506   8.177   3.055  0.1136 -0.3299  3.8354
23898SOL    HW273116   0.364   8.134   3.026  0.9371  0.1212 -2.0467
23899SOL     OW73117   6.255   2.540   6.539 -0.0647  0.0777 -0.7252
23899SOL    HW173118   6.214   2.489   6.470 -1.0438 -1.7352  1.1091
23899SOL    HW273119   6.303   2.476   6.592  0.3765  1.3510  0.4977
23900SOL     OW73120   4.142   2.353   6.311 -0.0364  0.0946 -0.0079
23900SOL    HW173121   4.149   2.320   6.222 -1.5972  0.3297 -0.2467
23900SOL    HW273122   4.072   2.301   6.350  0.3887  0.2356  0.9667
23901SOL     OW73123   3.523   2.287   1.277  0.7758  0.5363 -0.2996
23901SOL    HW173124   3.602   2.321   1.318  0.7371 -0.6819  0.8343
23901SOL    HW273125   3.478   2.240   1.347  0.2535 -0.8527 -1.5225
23902SOL     OW73126   0.235   5.873   2.745  0.3683 -0.3629  0.0690
23902SOL    HW173127   0.238   5.828   2.661 -0.0528 -0.6257  0.1938
23902SOL    HW273128   0.287   5.817   2.804 -1.0528 -1.2681  0.4955
23903SOL     OW73129   8.941   5.534   7.087  0.1333 -0.9019  0.4110
23903SOL    HW173130   8.868   5.528   7.150  0.4254 -0.6585  0.7752
23903SOL    HW273131   9.006   5.473   7.121  1.4867  1.2595  1.9614
23904SOL     OW73132   3.922   7.435   1.443  0.3466 -0.3368  0.5751
23904SOL    HW173133   3.974   7.355   1.455  1.1155 -0.1793 -1.4541
23904SOL    HW273134   3.974   7.489   1.383 -1.2924  0.6477 -0.0030
23905SOL     OW73135   1.017   2.280   7.056  0.4420 -0.0870  0.0015
23905SOL    HW173136   1.089   2.319   7.107  1.1654 -2.2016  0.7090
23905SOL    HW273137   1.028   2.317   6.968  2.9654 -0.9775 -0.1466
23906SOL     OW73138   5.551   0.715   0.233 -0.0415 -0.3668  0.0388
23906SOL    HW173139   5.456   0.705   0.223 -0.1553  0.0531  0.6615
23906SOL    HW273140   5.577   0.640   0.288 -0.3173  0.5592  1.4885
23907SOL     OW73141   4.293   3.025   7.472  0.2212 -0.0152 -0.0072
23907SOL    HW173142   4.296   2.935   7.507 -0.6225 -0.8684 -1.9490
23907SOL    HW273143   4.377   3.036   7.427  1.0032  0.8104  1.5841
23908SOL     OW73144   0.512   8.561   7.651  0.5402  0.5018 -0.1224
23908SOL    HW173145   0.546   8.571   7.562 -3.1142 -0.3169 -1.8107
23908SOL    HW273146   0.512   8.467   7.667 -1.3289  0.3942 -0.4713
23909SOL     OW73147   8.812   3.719   5.591 -0.1820  0.1503 -0.5393
23909SOL    HW173148   8.721   3.702   5.617  0.1056 -0.3794  0.1240
23909SOL    HW273149   8.833   3.803   5.631 -0.1649 -0.0416 -0.1485
23910SOL     OW73150   0.850   6.042   1.968 -0.3886  0.0839  0.1389
23910SOL    HW173151   0.801   5.997   1.899 -2.4391  3.3693 -0.7611
23910SOL    HW273152   0.941   6.044   1.936 -0.6626 -1.3033 -0.8238
23911SOL     OW73153   7.986   4.742   1.078 -0.2419  0.8360  0.4166
23911SOL    HW173154   8.032   4.810   1.030 -0.4708  0.4925 -0.3004
23911SOL    HW273155   8.055   4.686   1.113 -0.0531  1.4567  1.0470
23912SOL     OW73156   6.245   2.692   3.058  0.1545  0.5205 -0.4530
23912SOL    HW173157   6.305   2.757   3.020 -0.1885  2.3262  1.8425
23912SOL    HW273158   6.158   2.724   3.035 -0.0236  1.0279  0.8514
23913SOL     OW73159   1.006   0.520   4.611  0.1244 -0.5387 -0.1481
23913SOL    HW173160   0.985   0.521   4.705 -0.5220 -2.4907 -0.2149
23913SOL    HW273161   1.101   0.530   4.608  0.1872 -0.7225  0.7469
23914SOL     OW73162   7.773   0.798   6.372 -0.2201 -0.0130  0.1328
23914SOL    HW173163   7.811   0.868   6.320 -1.2480  0.1608 -0.4119
23914SOL    HW273164   7.847   0.760   6.419  0.5406  0.6068 -0.5362
23915SOL     OW73165   0.792   6.917   5.798 -0.0316 -0.4057  0.1254
23915SOL    HW173166   0.886   6.909   5.782 -0.2155  0.8180 -1.8804
23915SOL    HW273167   0.754   6.836   5.764  0.1787 -0.3844 -0.1565
23916SOL     OW73168   5.985   4.463   5.853 -0.2321  0.2614  0.7002
23916SOL    HW173169   5.946   4.532   5.799 -0.7169  1.3109  2.3231
23916SOL    HW273170   6.030   4.406   5.790 -2.9484 -0.0766 -1.0969
23917SOL     OW73171   5.116   1.644   8.737  0.1071 -0.0287 -0.2408
23917SOL    HW173172   5.111   1.703   8.812 -0.5466  1.1156 -1.1574
23917SOL    HW273173   5.209   1.641   8.715  0.3449 -0.6256  0.7892
23918SOL     OW73174   0.796   8.353   4.300  0.3244 -0.4186  0.1439
23918SOL    HW173175   0.733   8.412   4.258  0.9598  1.7319  1.9674
23918SOL    HW273176   0.881   8.386   4.273  0.6989 -0.9843  0.6022
23919SOL     OW73177   5.423   5.802   2.041 -0.1146  0.1445 -0.6656
23919SOL    HW173178   5.465   5.845   2.115 -1.9724  1.9752 -0.5799
23919SOL    HW273179   5.488   5.807   1.971  0.5872  1.0417  0.0256
23920SOL     OW73180   1.357   4.863   0.491 -0.2207 -0.4072 -0.9497
23920SOL    HW173181   1.408   4.782   0.492 -0.5989 -0.6898  1.2793
23920SOL    HW273182   1.415   4.929   0.530 -0.3225  0.1485 -1.7033
23921SOL     OW73183   8.413   2.843   7.182 -0.2815  0.3273  0.1734
23921SOL    HW173184   8.341   2.788   7.152 -0.1689 -0.3809  1.1562
23921SOL    HW273185   8.431   2.900   7.108 -1.1657 -0.1787 -0.4612
23922SOL     OW73186   6.976   8.699   6.893 -0.0652  0.5219  0.3599
23922SOL    HW173187   7.039   8.686   6.822 -0.2959  1.2500  0.0185
23922SOL    HW273188   7.031   8.712   6.971  0.3281  3.1775 -0.2500
23923SOL     OW73189   2.287   4.139   2.898  0.3176  0.6140 -0.3734
23923SOL    HW173190   2.304   4.063   2.842 -1.2108  0.6845 -0.9874
23923SOL    HW273191   2.221   4.190   2.850  1.1336  2.2195  0.1381
23924SOL     OW73192   7.146   0.146   8.778 -0.1441  0.5728  0.5292
23924SOL    HW173193   7.185   0.231   8.800 -0.0111  0.4215  0.8875
23924SOL    HW273194   7.210   0.082   8.809 -0.2114  0.3439  0.1917
23925SOL     OW73195   6.641   4.647   8.883  0.3586 -0.0676  0.2742
23925SOL    HW173196   6.719   4.637   8.938  2.0369  0.9765 -1.7964
23925SOL    HW273197   6.619   4.740   8.890  0.3377 -0.0116 -0.4714
23926SOL     OW73198   2.202   3.804   2.363  0.6133 -0.3670  0.5053
23926SOL    HW173199   2.256   3.744   2.414  2.3045  1.3733  0.8621
23926SOL    HW273200   2.265   3.856   2.313 -0.8601  0.2249 -0.8004
23927SOL     OW73201   1.972   5.747   3.643 -0.0114 -0.1040 -0.3120
23927SOL    HW173202   1.942   5.661   3.673 -1.2093  0.4442  0.1293
23927SOL    HW273203   1.952   5.749   3.550 -0.5270 -0.0796 -0.1998
23928SOL     OW73204   4.507   8.582   5.761 -0.7676 -0.3740  0.2040
23928SOL    HW173205   4.534   8.535   5.840  2.8150  0.3618 -0.3873
23928SOL    HW273206   4.533   8.524   5.689  0.0899  0.7692 -0.4505
23929SOL     OW73207   0.059   9.023   3.878  0.2912 -0.0937  0.0013
23929SOL    HW173208   0.028   8.992   3.963  1.8473 -1.2427  0.1939
23929SOL    HW273209   0.078   8.943   3.829  0.5150  0.5612 -1.0191
23930SOL     OW73210   7.170   2.863   3.337 -0.3982  0.0237 -0.0228
23930SOL    HW173211   7.196   2.796   3.400  3.3258  0.8668 -0.4026
23930SOL    HW273212   7.094   2.906   3.377 -2.0708 -3.3992  0.8358
23931SOL     OW73213   6.116   5.477   8.215  0.0402  0.0301 -0.1511
23931SOL    HW173214   6.192   5.434   8.177  1.0790  2.1622 -0.5933
23931SOL    HW273215   6.144   5.503   8.303 -1.0401 -1.3587  0.6463
23932SOL     OW73216   6.874   5.882   4.533  0.4013 -0.1738  0.1109
23932SOL    HW173217   6.873   5.977   4.531  4.3925  0.0477 -0.8086
23932SOL    HW273218   6.809   5.855   4.469 -0.3833  1.9419 -0.0383
23933SOL     OW73219   3.911   2.733   5.927 -0.4873 -0.3551 -0.0813
23933SOL    HW173220   3.890   2.826   5.934  0.2233  0.1119 -2.8193
23933SOL    HW273221   3.986   2.720   5.985  0.8392  1.3559 -1.3271
23934SOL     OW73222   2.829   3.627   2.607 -0.0828 -0.0855 -0.5245
23934SOL    HW173223   2.911   3.583   2.582 -1.3070 -1.9128 -1.5095
23934SOL    HW273224   2.786   3.647   2.524 -1.7022 -1.2973 -0.0354
23935SOL     OW73225   1.066   2.999   3.130 -0.0243 -0.5626 -0.0227
23935SOL    HW173226   1.101   2.925   3.181 -2.1812 -1.4526  0.2558
23935SOL    HW273227   1.056   3.069   3.194 -0.2686 -0.8279  0.2319
23936SOL     OW73228   3.934   0.687   1.650  0.1304 -0.6327  0.4356
23936SOL    HW173229   3.939   0.597   1.684  1.6543 -0.2849  1.1957
23936SOL    HW273230   4.008   0.693   1.589 -0.6579 -0.2381 -0.5074
23937SOL     OW73231   8.712   9.217   0.592  0.7973  0.4165  0.4289
23937SOL    HW173232   8.646   9.241   0.657  0.9250  0.5184  0.5205
23937SOL    HW273233   8.792   9.263   0.620  0.9844  0.0602  0.4836
23938SOL     OW73234   1.060   3.587   7.413  0.2580  0.0115 -0.2732
23938SOL    HW173235   1.143   3.622   7.446  0.5017 -1.7778  1.1532
23938SOL    HW273236   1.085   3.532   7.339  0.4655 -1.1601  0.6459
23939SOL     OW73237   9.044   7.469   1.223 -0.0054  0.4017 -1.1820
23939SOL    HW173238   9.054   7.530   1.150  0.1539  1.5940 -0.2031
23939SOL    HW273239   8.984   7.513   1.283  0.2802 -0.3155 -0.3442
23940SOL     OW73240   0.250   2.841   3.380  0.6486  0.5550  0.2195
23940SOL    HW173241   0.308   2.837   3.456  0.5051  1.8946  0.4401
23940SOL    HW273242   0.164   2.861   3.417  0.7404  2.0970 -0.3147
23941SOL     OW73243   3.793   4.029   7.246 -0.6412 -0.2543  0.0462
23941SOL    HW173244   3.761   3.994   7.163 -0.3995  0.1746 -0.2336
23941SOL    HW273245   3.886   4.045   7.230 -0.1126 -2.0563  1.0343
23942SOL     OW73246   2.992   5.457   5.429 -0.5186  0.3357 -0.7689
23942SOL    HW173247   2.919   5.519   5.432 -0.8258 -0.0365 -0.1909
23942SOL    HW273248   2.974   5.402   5.353  0.0250  1.2644 -1.5906
23943SOL     OW73249   9.076   6.217   6.879 -0.1748 -0.3001 -0.1237
23943SOL    HW173250   9.146   6.157   6.904  0.3606 -0.3846 -1.7421
23943SOL    HW273251   9.111   6.304   6.895 -0.1277 -0.3687  0.1452
23944SOL     OW73252   6.851   5.492   3.102  0.4127 -0.3276  0.0052
23944SOL    HW173253   6.758   5.473   3.088 -0.0572  0.7316  1.4750
23944SOL    HW273254   6.880   5.531   3.020 -0.1771 -1.5392 -0.8122
23945SOL     OW73255   1.659   5.525   8.657 -0.4121 -0.0826 -0.2361
23945SOL    HW173256   1.693   5.519   8.746  1.6709 -1.6715 -1.0645
23945SOL    HW273257   1.584   5.584   8.664  0.8419  1.3669  2.2234
23946SOL     OW73258   8.325   4.183   1.570 -0.3490 -0.0801  0.7605
23946SOL    HW173259   8.417   4.183   1.543 -0.5514  0.8281  0.0363
23946SOL    HW273260   8.288   4.106   1.527 -0.7076  1.4265 -1.8352
23947SOL     OW73261   3.327   6.856   9.134 -0.0997 -0.5007  1.0451
23947SOL    HW173262   3.296   6.905   9.210  1.0602  0.8813  0.6789
23947SOL    HW273263   3.380   6.919   9.085 -0.2283 -1.5596 -0.5442
23948SOL     OW73264   2.639   3.628   4.220  0.0703  0.1389  0.3202
23948SOL    HW173265   2.676   3.651   4.305  0.8980  1.7856 -0.4148
23948SOL    HW273266   2.715   3.628   4.161 -0.7459  1.2556 -0.7989
23949SOL     OW73267   8.195   6.366   7.160 -0.0085 -0.5523  0.2082
23949SOL    HW173268   8.273   6.403   7.201  1.2747 -2.7252 -0.0968
23949SOL    HW273269   8.127   6.376   7.226  0.6542  0.8840  0.7132
23950SOL     OW73270   5.807   6.463   7.695  0.2451  0.2521 -0.2479
23950SOL    HW173271   5.775   6.420   7.774  0.4273 -0.3823 -0.5147
23950SOL    HW273272   5.777   6.554   7.703 -1.4634 -0.2759 -0.4150
23951SOL     OW73273   6.400   2.906   0.653 -0.0976 -0.0475  0.0528
23951SOL    HW173274   6.349   2.863   0.722  1.6751 -0.7663  0.9883
23951SOL    HW273275   6.441   2.980   0.698 -0.6781  0.8188 -0.8067
23952SOL     OW73276   9.133   8.362   7.749 -0.5812  0.0243 -0.1180
23952SOL    HW173277   9.038   8.373   7.760 -0.7405 -0.2134 -1.1909
23952SOL    HW273278   9.166   8.450   7.733 -0.7294  0.0123 -0.5038
23953SOL     OW73279   8.263   4.694   2.418  0.2055 -0.0336 -0.1159
23953SOL    HW173280   8.341   4.683   2.364  1.4010  0.5383  1.3946
23953SOL    HW273281   8.213   4.613   2.407  0.1905  0.2262 -2.3213
23954SOL     OW73282   6.770   2.426   8.399  0.3570 -0.0177 -0.2147
23954SOL    HW173283   6.773   2.419   8.303  1.6808 -0.3808 -0.1745
23954SOL    HW273284   6.847   2.377   8.428  1.5197  2.3231  0.8919
23955SOL     OW73285   8.839   6.853   4.273  0.6511 -0.1280 -0.0106
23955SOL    HW173286   8.759   6.817   4.313  2.4219 -1.4792  2.6168
23955SOL    HW273287   8.859   6.930   4.326  0.8556  0.4875 -0.9620
23956SOL     OW73288   8.783   5.617   1.077 -0.2363  0.0876  0.2559
23956SOL    HW173289   8.769   5.635   1.170  1.0018  1.5860  0.1908
23956SOL    HW273290   8.797   5.703   1.037 -1.2420 -0.4790 -1.4281
23957SOL     OW73291   2.581   6.234   4.366  0.4466 -0.3127  0.6624
23957SOL    HW173292   2.613   6.182   4.439 -0.0723 -0.1102  1.0369
23957SOL    HW273293   2.556   6.318   4.404  0.7492  0.0179  0.1531
23958SOL     OW73294   5.081   3.836   6.362  0.1721  0.2223  0.3552
23958SOL    HW173295   5.044   3.923   6.348 -0.9248 -0.3111 -0.1951
23958SOL    HW273296   5.006   3.777   6.357  0.6300 -0.6154  2.4780
23959SOL     OW73297   8.820   8.522   2.119  0.1231 -0.1636  0.5471
23959SOL    HW173298   8.783   8.484   2.039  0.1538 -1.3607  1.0799
23959SOL    HW273299   8.777   8.607   2.127  0.6221  0.2908 -1.1063
23960SOL     OW73300   6.645   0.607   2.020 -0.0054  0.0308  0.0592
23960SOL    HW173301   6.622   0.695   1.991  0.1448 -0.5352 -1.8999
23960SOL    HW273302   6.602   0.598   2.105 -2.4036  0.9555 -0.9804
23961SOL     OW73303   2.308   2.267   2.957  0.1157  0.5665 -0.1313
23961SOL    HW173304   2.329   2.200   2.891  0.4280  0.5677 -0.0365
23961SOL    HW273305   2.365   2.341   2.935  1.9421 -0.2520  1.4880
23962SOL     OW73306   2.509   0.850   8.985 -0.3664  0.3706 -0.4802
23962SOL    HW173307   2.597   0.843   9.021  0.4185  1.6115 -2.0047
23962SOL    HW273308   2.516   0.815   8.896 -1.2674  0.9730 -0.8111
23963SOL     OW73309   9.103   1.949   2.137 -0.1694 -0.5256  0.3210
23963SOL    HW173310   9.132   1.906   2.217  1.4837 -0.5506 -0.2625
23963SOL    HW273311   9.171   2.014   2.118 -0.5710 -0.4728 -1.0271
23964SOL     OW73312   5.842   1.143   2.269  0.1398 -0.6875 -0.5663
23964SOL    HW173313   5.786   1.072   2.301  0.6860 -0.9328 -0.1444
23964SOL    HW273314   5.782   1.216   2.255 -0.3451 -1.0643 -0.4939
23965SOL     OW73315   6.188   6.495   2.331  0.5403 -0.0447 -0.3268
23965SOL    HW173316   6.132   6.568   2.304  0.9668  0.1657 -0.6461
23965SOL    HW273317   6.157   6.420   2.280 -2.2286 -1.0195  2.4192
23966SOL     OW73318   5.163   3.281   6.042 -0.3241 -0.0635  0.5576
23966SOL    HW173319   5.090   3.330   6.080  0.2537  0.5220  0.9362
23966SOL    HW273320   5.225   3.271   6.114  0.0411 -0.4324  0.1999
23967SOL     OW73321   8.656   0.382   0.431  0.3658  0.3434  0.2291
23967SOL    HW173322   8.601   0.410   0.504 -0.6938  0.5441 -0.6191
23967SOL    HW273323   8.725   0.331   0.472  0.2345  1.0974  1.4470
23968SOL     OW73324   0.647   8.233   1.080 -0.0459  0.2667  0.0726
23968SOL    HW173325   0.733   8.192   1.090  0.3002  1.0749  0.5656
23968SOL    HW273326   0.658   8.291   1.004 -0.4249 -0.2894 -0.4086
23969SOL     OW73327   6.213   5.717   2.603 -0.5601 -0.3204 -0.0241
23969SOL    HW173328   6.275   5.790   2.603 -0.4443 -0.3761  1.8879
23969SOL    HW273329   6.165   5.727   2.521  0.1401  1.3055 -0.2805
23970SOL     OW73330   8.905   6.280   3.101  0.0626  0.6257 -0.6899
23970SOL    HW173331   8.986   6.284   3.050 -1.0142 -1.0312 -2.6958
23970SOL    HW273332   8.879   6.371   3.113  0.2308  1.1219 -3.4715
23971SOL     OW73333   1.294   6.195   6.333  0.0601 -0.4235 -0.0781
23971SOL    HW173334   1.251   6.211   6.417 -0.9306  1.9611 -0.9461
23971SOL    HW273335   1.235   6.234   6.269  1.6679 -0.5626 -1.7090
23972SOL     OW73336   4.409   7.517   4.205  0.0665  0.1851  0.3221
23972SOL    HW173337   4.470   7.452   4.171 -0.7940 -0.4845  0.0054
23972SOL    HW273338   4.464   7.589   4.234  1.2177 -1.3744  2.3073
23973SOL     OW73339   2.946   7.800   2.582  0.6161 -0.0824  0.4090
23973SOL    HW173340   3.032   7.766   2.562 -0.0250 -1.1327 -0.6817
23973SOL    HW273341   2.943   7.886   2.539  0.9733 -0.2079  0.1344
23974SOL     OW73342   3.654   8.034   5.456  0.3096 -0.0151  0.5894
23974SOL    HW173343   3.583   8.072   5.507 -0.0402  0.2007 -0.0513
23974SOL    HW273344   3.690   7.965   5.512 -2.6619 -2.5980 -0.3706
23975SOL     OW73345   7.223   1.668   5.954  0.6956  0.1075 -0.4526
23975SOL    HW173346   7.316   1.657   5.933  1.0160  0.0151  0.9236
23975SOL    HW273347   7.220   1.748   6.006  0.0230  0.0428 -0.3890
23976SOL     OW73348   0.949   5.680   6.435  0.2328 -0.6116 -0.1452
23976SOL    HW173349   1.018   5.627   6.474  0.9031 -0.2288 -0.7691
23976SOL    HW273350   0.992   5.724   6.361 -0.5398  0.0687 -0.2050
23977SOL     OW73351   1.587   8.892   4.469  0.2841 -0.5748  0.2893
23977SOL    HW173352   1.654   8.956   4.492  1.5456 -1.6707 -0.1493
23977SOL    HW273353   1.519   8.942   4.424 -0.0398  0.8483  2.2715
23978SOL     OW73354   7.367   2.155   8.497  0.0477  0.1548  0.6202
23978SOL    HW173355   7.384   2.062   8.514 -1.7197 -0.4992 -0.8836
23978SOL    HW273356   7.394   2.199   8.577  1.0555 -1.6373  1.3221
23979SOL     OW73357   6.402   0.054   7.847 -0.0087  0.0990 -0.1316
23979SOL    HW173358   6.396  -0.005   7.773  0.5277 -0.4135  0.2224
23979SOL    HW273359   6.485   0.031   7.889 -0.8774 -0.4426  1.3285
23980SOL     OW73360   2.886   1.491   1.207 -0.4185  0.2571 -0.4185
23980SOL    HW173361   2.907   1.492   1.114  0.1695 -0.4208 -0.2966
23980SOL    HW273362   2.823   1.419   1.216 -0.4250  0.2798 -0.2836
23981SOL     OW73363   3.862   5.188   6.837 -0.2844  0.3959 -0.1072
23981SOL    HW173364   3.954   5.176   6.860  0.0711  0.9139 -1.1793
23981SOL    HW273365   3.859   5.177   6.742 -1.5909 -1.0985  0.0656
23982SOL     OW73366   6.682   2.097   8.195  0.2253  0.5036  0.3455
23982SOL    HW173367   6.678   2.193   8.195  0.7556  0.5632 -1.3921
23982SOL    HW273368   6.771   2.077   8.165 -0.3226 -0.4979 -0.7123
23983SOL     OW73369   7.621   9.001   3.876 -0.3505  0.2937 -0.3011
23983SOL    HW173370   7.698   8.947   3.894 -0.5800  0.3138  0.8075
23983SOL    HW273371   7.624   9.069   3.943 -1.8340 -0.2453  0.3631
23984SOL     OW73372   8.725   7.986   0.125  0.4766 -0.7724  0.6008
23984SOL    HW173373   8.668   7.927   0.077 -1.3339  0.7340  0.8050
23984SOL    HW273374   8.797   8.005   0.064  0.5215 -2.2685  0.1442
23985SOL     OW73375   3.351   8.841   2.859 -0.0337 -0.4184  0.0414
23985SOL    HW173376   3.295   8.803   2.791  0.1314  1.5132 -1.2231
23985SOL    HW273377   3.300   8.831   2.939  0.0444 -3.3540 -0.1475
23986SOL     OW73378   8.609   7.637   4.862 -0.5701  0.0616 -0.3015
23986SOL    HW173379   8.590   7.721   4.819 -0.7441  1.5297  2.4452
23986SOL    HW273380   8.702   7.644   4.886 -0.8320 -0.0758  0.8037
23987SOL     OW73381   2.145   7.772   8.659  0.0777 -0.7159  0.7471
23987SOL    HW173382   2.229   7.759   8.703 -0.8790 -0.7072  2.6838
23987SOL    HW273383   2.098   7.690   8.671  0.2500 -1.2188 -1.4945
23988SOL     OW73384   7.715   8.896   6.211 -0.5980 -0.6845  0.2933
23988SOL    HW173385   7.788   8.855   6.164 -0.4980 -2.5864  1.9801
23988SOL    HW273386   7.755   8.969   6.257 -0.2374 -0.2936 -0.6038
23989SOL     OW73387   3.976   8.334   1.739  0.6113 -0.0312  0.0166
23989SOL    HW173388   3.996   8.348   1.831  2.8233 -2.6444  0.0529
23989SOL    HW273389   4.023   8.404   1.694  3.9225 -1.6472  0.6632
23990SOL     OW73390   3.056   5.086   5.070  0.1603  0.4380  0.0888
23990SOL    HW173391   3.150   5.097   5.053 -0.0757  0.9430 -1.0073
23990SOL    HW273392   3.019   5.066   4.984 -0.6790 -0.2108  0.5925
23991SOL     OW73393   0.895   4.218   7.173 -0.1848  0.6719 -0.1144
23991SOL    HW173394   0.943   4.269   7.238  0.9688 -0.6695  0.1237
23991SOL    HW273395   0.805   4.251   7.178  0.5829  2.8873 -0.2201
23992SOL     OW73396   5.915   8.405   4.934  0.6505 -0.6987 -0.2380
23992SOL    HW173397   5.920   8.458   4.855  1.8812 -0.0317  0.2576
23992SOL    HW273398   6.006   8.387   4.957  0.3081 -1.0841  0.8900
23993SOL     OW73399   3.757   2.462   1.425  0.0825  0.1518 -0.4167
23993SOL    HW173400   3.826   2.462   1.492 -0.9644  2.0215  0.7558
23993SOL    HW273401   3.804   2.455   1.342  1.5237 -0.6801  0.4193
23994SOL     OW73402   0.406   5.909   4.861 -0.3790  0.1202 -0.7649
23994SOL    HW173403   0.462   5.985   4.880  0.4758 -0.4454 -0.9710
23994SOL    HW273404   0.453   5.835   4.900 -1.0846 -0.3395 -0.7788
23995SOL     OW73405   6.750   6.467   4.321  0.2088 -0.5722 -0.5381
23995SOL    HW173406   6.700   6.513   4.388  0.3798 -1.8933  0.5346
23995SOL    HW273407   6.743   6.523   4.243 -1.4794  0.1111  0.0643
23996SOL     OW73408   4.074   4.422   2.895 -0.3083 -0.1001  0.0827
23996SOL    HW173409   3.996   4.421   2.839 -0.7238 -0.9490  0.6446
23996SOL    HW273410   4.144   4.388   2.839 -0.6759 -0.7560  0.0055
23997SOL     OW73411   7.576   7.730   6.482  0.0139  0.1104 -0.1089
23997SOL    HW173412   7.553   7.664   6.548 -0.6542  1.1729  0.7466
23997SOL    HW273413   7.555   7.688   6.399 -0.1382 -0.8630  0.3983
23998SOL     OW73414   7.544   3.189   0.495 -0.5751 -0.1537 -0.2801
23998SOL    HW173415   7.523   3.112   0.442 -0.2229 -0.5689  0.1856
23998SOL    HW273416   7.538   3.262   0.433 -0.4070 -0.6061 -0.8383
23999SOL     OW73417   8.699   5.859   3.793  0.5920 -0.4921  0.0181
23999SOL    HW173418   8.669   5.863   3.702 -1.1593  1.3929  0.6058
23999SOL    HW273419   8.690   5.949   3.825  3.4867 -0.6057  1.3972
24000SOL     OW73420   9.220   7.682   2.339  0.0987  0.1039  0.1165
24000SOL    HW173421   9.278   7.714   2.409  1.3887  0.8801 -1.2529
24000SOL    HW273422   9.194   7.761   2.291 -2.3943 -0.1862  0.8444
24001SOL     OW73423   1.841   3.754   5.201  0.5703 -0.2654 -0.2752
24001SOL    HW173424   1.752   3.787   5.193  0.4345 -0.8649 -1.3945
24001SOL    HW273425   1.871   3.786   5.286 -0.5744  0.2572 -0.0548
24002SOL     OW73426   5.007   8.712   7.811 -0.4607  0.2520  0.1020
24002SOL    HW173427   5.050   8.636   7.849 -0.1972 -0.8772 -2.2365
24002SOL    HW273428   5.054   8.787   7.846  1.1795 -0.8026  0.2436
24003SOL     OW73429   7.743   0.666   5.986 -0.1568  0.0751  0.3718
24003SOL    HW173430   7.697   0.676   5.903  2.7734 -0.4201 -1.4513
24003SOL    HW273431   7.778   0.753   6.005  0.9308 -0.2551 -0.0604
24004SOL     OW73432   2.317   2.930   6.621 -0.5160  0.6358  0.0776
24004SOL    HW173433   2.303   2.865   6.690 -0.0129 -0.0678 -0.4754
24004SOL    HW273434   2.265   2.899   6.547 -0.4129  0.9596 -0.1333
24005SOL     OW73435   3.080   1.660   0.955  0.0872  0.0588  0.1370
24005SOL    HW173436   3.118   1.599   0.892  1.8539  0.3093  0.9063
24005SOL    HW273437   3.125   1.641   1.037  0.6611  2.3431  0.4098
24006SOL     OW73438   6.814   5.519   2.045  0.7258 -0.4314 -0.3771
24006SOL    HW173439   6.719   5.522   2.058  0.7980 -0.1365  0.1295
24006SOL    HW273440   6.828   5.452   1.978 -0.1064  1.8154 -2.9772
24007SOL     OW73441   7.961   2.103   0.948  0.8304  1.3344 -0.4467
24007SOL    HW173442   8.004   2.130   0.867  2.7515  0.0488  0.0825
24007SOL    HW273443   8.009   2.026   0.977 -0.7823  0.8434  1.1343
24008SOL     OW73444   8.019   1.695   7.505 -0.0133  0.0884 -0.4289
24008SOL    HW173445   8.038   1.647   7.585  0.4423 -0.3004 -0.7632
24008SOL    HW273446   8.102   1.695   7.456 -0.5537 -0.6155 -1.3780
24009SOL     OW73447   1.835   2.308   7.494  0.1298 -0.2193 -0.0411
24009SOL    HW173448   1.793   2.226   7.520  1.4354 -1.6070 -2.0217
24009SOL    HW273449   1.789   2.335   7.415 -1.2327  1.8243  1.3426
24010SOL     OW73450   4.293   8.695   8.756  0.0354 -0.1583 -0.3917
24010SOL    HW173451   4.382   8.669   8.732  0.2136  0.0886  0.0064
24010SOL    HW273452   4.304   8.761   8.824 -0.4216  0.6883 -1.1158
24011SOL     OW73453   6.134   6.570   7.295 -0.2534 -0.9769  0.1163
24011SOL    HW173454   6.156   6.638   7.358  1.7553 -1.3297 -0.1301
24011SOL    HW273455   6.039   6.576   7.284 -0.0335  2.8809 -1.1423
24012SOL     OW73456   1.131   0.822   8.396 -0.6935 -0.0868 -0.2536
24012SOL    HW173457   1.148   0.909   8.361  0.5331 -0.3402 -0.3366
24012SOL    HW273458   1.214   0.795   8.436 -1.5038 -0.5937  1.1615
24013SOL     OW73459   5.237   7.147   6.691  0.1493 -0.0208 -0.0349
24013SOL    HW173460   5.191   7.136   6.775 -0.0269  1.0029  0.0150
24013SOL    HW273461   5.220   7.065   6.644 -1.3607  0.1401  0.1718
24014SOL     OW73462   9.108   6.576   4.581 -0.2551  0.4136  0.4317
24014SOL    HW173463   9.142   6.565   4.492 -1.0799  1.1803 -0.0047
24014SOL    HW273464   9.090   6.670   4.588  0.2805  0.4432  1.6012
24015SOL     OW73465   4.592   2.128   0.214  0.8123  0.6668  0.2365
24015SOL    HW173466   4.523   2.185   0.246  0.0973  0.4406 -0.8493
24015SOL    HW273467   4.660   2.131   0.282  0.3981  2.0834  0.6098
24016SOL     OW73468   4.787   6.824   4.212 -0.1819 -0.0730 -0.0345
24016SOL    HW173469   4.712   6.852   4.160 -0.2086  1.1042  0.6178
24016SOL    HW273470   4.749   6.769   4.281 -0.2016 -1.1919 -0.9068
24017SOL     OW73471   0.793   1.405   4.278  0.2631 -0.1476 -0.2197
24017SOL    HW173472   0.800   1.477   4.215 -0.2441 -0.0591 -0.1844
24017SOL    HW273473   0.780   1.448   4.362 -0.1423 -0.2777 -0.2127
24018SOL     OW73474   8.324   1.162   0.859 -0.3475 -0.2845  0.5771
24018SOL    HW173475   8.381   1.238   0.864 -1.9064  0.8737  1.9231
24018SOL    HW273476   8.382   1.087   0.872  0.9704  0.7699  0.9570
24019SOL     OW73477   4.316   4.712   3.184 -0.1259 -0.1475 -0.1295
24019SOL    HW173478   4.356   4.653   3.120 -0.1810  0.2945 -0.5767
24019SOL    HW273479   4.307   4.795   3.138 -0.0873  0.2037  0.4813
24020SOL     OW73480   3.541   8.116   4.175  0.1927 -0.4152  0.0078
24020SOL    HW173481   3.508   8.113   4.085  0.2459  0.2851 -0.0433
24020SOL    HW273482   3.516   8.203   4.207  3.6322  1.0113 -0.7263
24021SOL     OW73483   4.265   7.090   4.891  0.2901  0.2700 -0.0853
24021SOL    HW173484   4.358   7.105   4.907  0.6657 -0.4809 -1.4078
24021SOL    HW273485   4.248   7.003   4.928 -0.1680  0.8451  1.1175
24022SOL     OW73486   4.263   5.806   5.818  0.6844  0.1730 -0.3026
24022SOL    HW173487   4.256   5.865   5.893 -1.7659  0.4068 -0.6048
24022SOL    HW273488   4.188   5.830   5.762  1.4999 -1.0666 -2.0280
24023SOL     OW73489   8.490   3.276   7.692  0.0798  0.6646 -0.0681
24023SOL    HW173490   8.461   3.185   7.698 -0.5452  0.8351 -0.3746
24023SOL    HW273491   8.517   3.299   7.781  0.7706  0.0167 -0.0987
24024SOL     OW73492   7.413   9.003   2.245  0.3108  0.3033  0.8793
24024SOL    HW173493   7.385   8.915   2.219  2.2557 -0.3846  0.9782
24024SOL    HW273494   7.443   9.043   2.163  0.6350  0.4068  1.0511
24025SOL     OW73495   4.871   7.938   8.015  0.2913 -0.3471  0.0304
24025SOL    HW173496   4.859   8.023   8.056 -0.9379  0.9733 -2.8241
24025SOL    HW273497   4.788   7.892   8.030 -0.0974  0.0724 -0.7925
24026SOL     OW73498   1.514   4.052   8.911 -0.0450 -0.3785  0.0301
24026SOL    HW173499   1.554   4.070   8.996 -0.7081  0.3981  0.1805
24026SOL    HW273500   1.423   4.032   8.931  0.0633 -1.3956 -0.3912
24027SOL     OW73501   7.776   5.017   8.408 -0.4059 -0.2526 -0.0107
24027SOL    HW173502   7.860   5.041   8.447 -0.1219  1.3612 -1.4922
24027SOL    HW273503   7.756   4.931   8.445  1.6387 -0.4501  0.7565
24028SOL     OW73504   0.734   4.001   8.365 -0.3177  0.6012 -0.1079
24028SOL    HW173505   0.824   3.986   8.395 -0.2021 -0.5692 -0.9648
24028SOL    HW273506   0.738   3.988   8.271 -1.2660  1.1903 -0.2302
24029SOL     OW73507   3.081   3.041   4.569  0.2156 -0.4107  0.4080
24029SOL    HW173508   2.997   3.074   4.537  0.5168  1.1071  1.1319
24029SOL    HW273509   3.070   2.946   4.569 -2.2945 -0.2352  2.5190
24030SOL     OW73510   1.565   4.774   7.222  0.1523  0.0729  0.0630
24030SOL    HW173511   1.606   4.859   7.203  1.1394 -0.3086  0.4299
24030SOL    HW273512   1.576   4.725   7.140  0.2210  0.0508  0.0858
24031SOL     OW73513   3.112   3.511   1.764  0.2984  0.7187  0.4272
24031SOL    HW173514   3.063   3.553   1.693  1.4126  1.3985  0.0354
24031SOL    HW273515   3.131   3.582   1.825  1.6419  0.6827  0.0807
24032SOL     OW73516   5.787   4.198   0.452 -0.6460  0.6131  0.5769
24032SOL    HW173517   5.816   4.284   0.421 -1.8866  0.1702 -2.0049
24032SOL    HW273518   5.868   4.152   0.475  0.2187  1.6386 -0.3296
24033SOL     OW73519   3.892   1.386   4.534 -0.3054 -0.3022 -0.0641
24033SOL    HW173520   3.833   1.328   4.485  0.9287 -1.5899 -0.1107
24033SOL    HW273521   3.838   1.422   4.604 -1.4756 -0.3689 -0.8894
24034SOL     OW73522   0.856   3.186   7.947  0.1751 -0.0848  0.1752
24034SOL    HW173523   0.786   3.124   7.927 -1.3378  1.7078 -0.4121
24034SOL    HW273524   0.930   3.156   7.895 -0.8313 -0.8199 -0.8997
24035SOL     OW73525   2.943   2.395   8.618 -0.5304  0.1887 -0.1981
24035SOL    HW173526   3.017   2.360   8.668 -1.5636 -1.1085  0.4726
24035SOL    HW273527   2.956   2.490   8.621  1.2793 -0.0149 -0.3922
24036SOL     OW73528   4.008   7.480   7.464  0.2371 -0.0352 -0.2544
24036SOL    HW173529   4.046   7.396   7.489 -1.0274 -0.3734  0.6230
24036SOL    HW273530   4.071   7.517   7.403  0.6599 -1.7846 -0.9600
24037SOL     OW73531   2.301   5.603   4.401  0.3972  0.1001  0.0405
24037SOL    HW173532   2.227   5.663   4.404 -0.6208 -0.7468 -3.3078
24037SOL    HW273533   2.377   5.658   4.385 -0.2850  0.6875 -1.3423
24038SOL     OW73534   3.516   5.830   4.618 -0.3844 -0.6883  0.2034
24038SOL    HW173535   3.565   5.817   4.700  1.8230 -2.1487 -1.2231
24038SOL    HW273536   3.539   5.753   4.565  1.0803  1.7761 -3.0847
24039SOL     OW73537   1.405   5.641   0.489 -0.2251 -0.1646  0.7669
24039SOL    HW173538   1.327   5.660   0.541 -0.5428 -0.6695  0.4857
24039SOL    HW273539   1.426   5.724   0.446 -1.2493 -0.2846 -0.0020
24040SOL     OW73540   2.127   4.044   4.126  0.0463 -0.2934  0.1581
24040SOL    HW173541   2.208   4.047   4.175 -0.7469  1.1964  1.4649
24040SOL    HW273542   2.082   3.966   4.158  0.4758 -0.5166  0.2216
24041SOL     OW73543   2.638   1.234   4.157  0.2415 -0.2767 -0.1196
24041SOL    HW173544   2.592   1.307   4.114  3.1265  2.6201  1.3131
24041SOL    HW273545   2.576   1.201   4.222 -0.4509  2.4272  0.6995
24042SOL     OW73546   2.886   2.941   3.547 -0.4616 -0.1587 -0.7068
24042SOL    HW173547   2.836   2.960   3.626  1.3848 -0.5445  0.5971
24042SOL    HW273548   2.970   2.909   3.578  0.2317 -0.5733 -2.8369
24043SOL     OW73549   0.589   7.661   3.628 -0.2766 -0.2854  0.4164
24043SOL    HW173550   0.503   7.662   3.584  0.1152 -0.4709 -0.3740
24043SOL    HW273551   0.588   7.738   3.685 -0.8751 -0.1530  0.2348
24044SOL     OW73552   1.026   6.812   0.647  0.1329 -0.0192 -0.0157
24044SOL    HW173553   0.950   6.858   0.683 -1.1277 -0.1366 -2.3420
24044SOL    HW273554   1.100   6.844   0.699 -1.6079 -0.9672  3.2966
24045SOL     OW73555   3.211   7.836   8.007 -0.6775  0.2050 -0.0424
24045SOL    HW173556   3.237   7.918   8.049 -2.3837  0.9212 -0.2868
24045SOL    HW273557   3.268   7.829   7.931 -0.5638  1.2406 -0.0728
24046SOL     OW73558   8.575   8.537   1.162  0.1637 -0.4021 -0.7623
24046SOL    HW173559   8.649   8.596   1.175  0.3744 -1.1554  2.3271
24046SOL    HW273560   8.498   8.593   1.170  0.3869 -0.2042  0.1154
24047SOL     OW73561   7.521   1.617   9.264 -0.4458 -0.1578 -0.0672
24047SOL    HW173562   7.538   1.711   9.262  1.3508 -0.4551 -0.7965
24047SOL    HW273563   7.426   1.610   9.265 -0.7702  1.7287  4.0619
24048SOL     OW73564   2.696   5.147   1.261  0.2587  0.4505 -0.0520
24048SOL    HW173565   2.600   5.150   1.261  0.2436  0.0290  0.2693
24048SOL    HW273566   2.719   5.117   1.349  0.7193  1.4513  0.1883
24049SOL     OW73567   3.934   3.574   6.982  0.1039 -0.1999  0.6866
24049SOL    HW173568   3.841   3.558   6.996 -0.2703  0.6513 -0.5758
24049SOL    HW273569   3.972   3.487   6.969 -0.9079 -0.4561 -0.8645
24050SOL     OW73570   6.834   7.058   7.391 -0.1109 -0.6115  0.0626
24050SOL    HW173571   6.920   7.098   7.408 -0.5418  0.2807  0.2116
24050SOL    HW273572   6.825   7.061   7.296 -0.6527  0.7891  0.1388
24051SOL     OW73573   7.242   3.237   0.862 -0.1921  0.0729 -0.0319
24051SOL    HW173574   7.198   3.154   0.847  0.7746 -0.3753 -0.4971
24051SOL    HW273575   7.324   3.230   0.812  0.3800  0.8927  0.7612
24052SOL     OW73576   2.967   2.514   8.030  0.6274  0.2125 -0.3812
24052SOL    HW173577   3.060   2.500   8.011  0.2992 -1.0937 -1.1493
24052SOL    HW273578   2.929   2.426   8.028 -0.3431  0.5374  1.5807
24053SOL     OW73579   4.616   6.298   1.980  0.3021 -0.5707 -0.2895
24053SOL    HW173580   4.672   6.223   1.961  1.3700  0.2227 -0.4339
24053SOL    HW273581   4.633   6.359   1.907 -0.5107 -0.1733 -0.1585
24054SOL     OW73582   7.081   4.633   3.911  0.0023 -0.1156  0.2535
24054SOL    HW173583   7.031   4.587   3.844  0.8930  2.3044 -2.2799
24054SOL    HW273584   7.017   4.656   3.978 -1.3715 -0.8875 -0.7550
24055SOL     OW73585   6.019   2.324   3.084  0.6710  0.1339 -0.2837
24055SOL    HW173586   6.059   2.380   3.150  0.4615 -0.9638  0.8019
24055SOL    HW273587   6.091   2.268   3.053  0.2411 -1.1902  0.9873
24056SOL     OW73588   3.469   8.739   2.068 -0.5219 -0.3814  0.0394
24056SOL    HW173589   3.480   8.665   2.128  1.5224 -0.5650 -0.4754
24056SOL    HW273590   3.524   8.808   2.105 -1.1747  0.3519 -0.3307
24057SOL     OW73591   4.388   3.053   6.979  0.3923 -0.4733 -0.3448
24057SOL    HW173592   4.451   3.107   7.028  1.2976 -1.8635  0.0665
24057SOL    HW273593   4.321   3.031   7.043  0.6439 -0.8175 -0.1987
24058SOL     OW73594   4.599   3.684   2.753 -0.2806 -0.6715 -0.2200
24058SOL    HW173595   4.666   3.719   2.811 -1.1908  2.0015 -0.6331
24058SOL    HW273596   4.519   3.730   2.778 -0.9299 -0.2383 -2.8068
24059SOL     OW73597   4.763   4.607   3.183  0.2643  0.3850 -0.3190
24059SOL    HW173598   4.748   4.678   3.120 -3.1490  0.4312  0.3366
24059SOL    HW273599   4.737   4.528   3.137 -0.3474  0.1785  0.3593
24060SOL     OW73600   8.698   7.232   4.364  0.6978  0.0701 -0.7915
24060SOL    HW173601   8.785   7.266   4.342  0.0928  1.5559 -1.0219
24060SOL    HW273602   8.640   7.308   4.355 -0.0284  0.2043  3.2529
24061SOL     OW73603   0.394   1.890   5.049 -0.4271  0.1001 -0.2860
24061SOL    HW173604   0.425   1.801   5.069  1.5174  0.0535 -2.9875
24061SOL    HW273605   0.440   1.946   5.111 -0.9185 -0.6575  0.7989
24062SOL     OW73606   0.226   4.380   0.660 -0.1109  0.3627  0.0435
24062SOL    HW173607   0.170   4.446   0.700 -0.6262 -0.1324  0.1451
24062SOL    HW273608   0.199   4.297   0.700  1.9515  0.3053  1.5030
24063SOL     OW73609   6.178   0.618   2.130 -0.1483  0.3401 -0.5431
24063SOL    HW173610   6.099   0.638   2.080  1.1259  0.0781 -2.7660
24063SOL    HW273611   6.171   0.525   2.149  0.4388 -0.0936 -2.3178
24064SOL     OW73612   0.774   8.148   9.276  0.1111 -0.6863  0.5724
24064SOL    HW173613   0.683   8.155   9.247  0.3761 -0.2398 -0.1645
24064SOL    HW273614   0.815   8.087   9.215  0.3296 -0.8374  0.8647
24065SOL     OW73615   2.769   5.057   9.122 -0.0588 -0.4056  0.0347
24065SOL    HW173616   2.677   5.055   9.094  0.0188 -1.9115 -0.2346
24065SOL    HW273617   2.816   5.092   9.046 -0.2608 -1.0230 -0.3867
24066SOL     OW73618   1.242   1.551   1.802  0.2141  0.2916 -0.1474
24066SOL    HW173619   1.188   1.538   1.881 -0.1566  0.0174 -0.4439
24066SOL    HW273620   1.332   1.537   1.832  0.1256  0.7240  0.3469
24067SOL     OW73621   3.253   8.183   6.125  0.7372 -0.0778 -0.2724
24067SOL    HW173622   3.341   8.217   6.138  0.7994 -0.4342  0.2526
24067SOL    HW273623   3.260   8.129   6.046  0.6304  1.1187 -1.1334
24068SOL     OW73624   5.739   0.773   6.352  0.5163 -0.2841 -0.2498
24068SOL    HW173625   5.739   0.683   6.320  0.1766  0.3223 -2.0573
24068SOL    HW273626   5.717   0.765   6.445 -3.5275 -1.8585 -1.1350
24069SOL     OW73627   3.930   3.324   8.808 -0.5482  0.2395 -0.4669
24069SOL    HW173628   3.891   3.360   8.888  0.4485  0.3965 -0.0375
24069SOL    HW273629   3.856   3.287   8.760 -1.1625  0.1261  0.5363
24070SOL     OW73630   1.122   3.042   6.406 -0.2214  0.3988  0.1919
24070SOL    HW173631   1.168   3.080   6.481  1.1846 -1.6585  0.4747
24070SOL    HW273632   1.056   2.985   6.444 -0.7782  0.8005 -0.1687
24071SOL     OW73633   2.014   9.003   3.822 -0.5595  0.0303  0.5567
24071SOL    HW173634   2.016   9.099   3.827 -1.6565  0.1800 -1.0726
24071SOL    HW273635   2.099   8.975   3.856 -0.0798  1.6086  0.7213
24072SOL     OW73636   2.049   8.821   6.220 -0.0701 -0.6224  0.2203
24072SOL    HW173637   1.991   8.748   6.239 -0.1313 -0.8409 -0.7234
24072SOL    HW273638   2.003   8.871   6.153 -0.2904  0.6207  1.2669
24073SOL     OW73639   2.743   9.186   2.718 -0.0828 -0.1341  0.3879
24073SOL    HW173640   2.741   9.100   2.759 -0.6105 -0.2941  0.0445
24073SOL    HW273641   2.775   9.169   2.629 -1.2260 -0.1524 -0.0470
24074SOL     OW73642   3.400   6.847   6.445  0.3216 -0.0219 -0.2688
24074SOL    HW173643   3.483   6.810   6.415 -0.0600 -1.0977 -0.0556
24074SOL    HW273644   3.405   6.940   6.423  2.1241  0.1960  0.9271
24075SOL     OW73645   7.532   1.944   4.440 -0.0912 -0.3293  0.2845
24075SOL    HW173646   7.595   1.960   4.369 -1.9094  1.1854 -1.0994
24075SOL    HW273647   7.503   1.854   4.427 -1.7825  0.4698 -2.1722
24076SOL     OW73648   3.155   3.585   3.514 -0.3972 -0.1456  0.4720
24076SOL    HW173649   3.136   3.500   3.474 -2.0532 -0.4841  1.8556
24076SOL    HW273650   3.106   3.648   3.461 -0.9274 -0.3331  0.7352
24077SOL     OW73651   6.621   1.036   2.659  0.0289  0.1367 -0.7556
24077SOL    HW173652   6.669   1.041   2.741 -0.8625  0.1519 -0.2219
24077SOL    HW273653   6.682   1.070   2.593  0.8460 -0.1231 -0.1536
24078SOL     OW73654   0.818   9.275   8.651 -0.9670  0.1564 -0.3524
24078SOL    HW173655   0.905   9.304   8.679 -0.5619 -0.3855 -0.9973
24078SOL    HW273656   0.792   9.212   8.718 -0.9131  0.4072 -0.0926
24079SOL     OW73657   3.729   3.156   2.367 -0.4406  0.6526  0.2326
24079SOL    HW173658   3.645   3.173   2.409 -0.3049 -0.4122  0.9916
24079SOL    HW273659   3.770   3.090   2.423  0.7869  0.9650 -0.2739
24080SOL     OW73660   4.499   7.124   2.877  0.1370 -0.1897 -0.1889
24080SOL    HW173661   4.410   7.151   2.899  1.1986  2.6915  0.9680
24080SOL    HW273662   4.521   7.058   2.944 -0.1640  1.2252  1.3773
24081SOL     OW73663   1.307   7.619   8.665  0.9031  0.2854  0.3333
24081SOL    HW173664   1.254   7.694   8.637 -0.0055  0.8224  3.1746
24081SOL    HW273665   1.397   7.644   8.642  0.5020  1.8347  0.3051
24082SOL     OW73666   3.972   5.975   3.455  0.4897 -0.1301  0.4918
24082SOL    HW173667   3.939   5.898   3.500  0.1203 -0.0477  0.3722
24082SOL    HW273668   3.984   6.040   3.524  0.5983 -0.2273  0.5641
24083SOL     OW73669   4.595   6.621   5.757  0.1116  0.2936 -0.1320
24083SOL    HW173670   4.636   6.538   5.781  1.0253  0.5301 -0.8318
24083SOL    HW273671   4.523   6.597   5.699 -1.1842 -0.1709  1.5880
24084SOL     OW73672   8.231   1.347   0.422 -0.0854  0.3927 -0.4424
24084SOL    HW173673   8.298   1.414   0.415  0.3783 -0.1300 -1.0415
24084SOL    HW273674   8.162   1.388   0.475  0.7671  0.8732  0.3293
24085SOL     OW73675   1.772   6.187   5.247 -0.5197  0.0937  0.3799
24085SOL    HW173676   1.678   6.205   5.251 -0.6727 -0.8239  2.9207
24085SOL    HW273677   1.813   6.274   5.244 -1.4197  0.4904 -1.5709
24086SOL     OW73678   1.895   5.167   8.703  0.0624  0.0909  0.4601
24086SOL    HW173679   1.934   5.231   8.762 -0.0323 -1.2867  2.0889
24086SOL    HW273680   1.923   5.083   8.737 -2.4289 -0.8668  0.3216
24087SOL     OW73681   3.316   8.406   1.427 -0.3310 -0.0167 -0.0351
24087SOL    HW173682   3.356   8.485   1.390  0.5326  0.1616  1.2350
24087SOL    HW273683   3.253   8.440   1.491 -0.2067 -0.3554  0.2646
24088SOL     OW73684   6.151   0.563   4.682 -0.2057  0.5702  0.3592
24088SOL    HW173685   6.208   0.513   4.741 -0.1152 -0.4685 -0.5783
24088SOL    HW273686   6.113   0.631   4.738 -0.5473 -0.6955  1.7583
24089SOL     OW73687   3.065   1.980   6.351 -0.5103  0.6489  0.3543
24089SOL    HW173688   3.085   2.039   6.278 -0.9015  0.3007 -0.0369
24089SOL    HW273689   3.066   1.892   6.313  1.1545  0.2725  1.1398
24090SOL     OW73690   8.140   6.092   3.367 -0.2115 -0.3196 -0.2847
24090SOL    HW173691   8.158   6.001   3.393 -0.2138 -0.1791  0.2191
24090SOL    HW273692   8.136   6.089   3.272 -2.3215 -1.2670 -0.2293
24091SOL     OW73693   3.553   7.770   1.123  0.7438 -0.2913 -0.1255
24091SOL    HW173694   3.530   7.713   1.196  0.8045 -0.6735 -0.4023
24091SOL    HW273695   3.504   7.851   1.139 -0.1444 -0.7921 -0.2717
24092SOL     OW73696   2.808   2.897   4.320 -0.5646 -0.2353  0.3962
24092SOL    HW173697   2.880   2.956   4.300 -1.4318  0.1893 -1.8312
24092SOL    HW273698   2.844   2.809   4.306  0.0366 -0.1253  1.2298
24093SOL     OW73699   0.996   7.101   8.984 -0.2664 -0.3157  0.5258
24093SOL    HW173700   1.065   7.166   8.971 -0.4603 -0.0883  0.6203
24093SOL    HW273701   0.917   7.144   8.950 -0.4759 -0.3356  0.9921
24094SOL     OW73702   3.309   0.797   5.188 -0.2823 -0.4996  0.3061
24094SOL    HW173703   3.309   0.824   5.280  0.8113 -0.5235  0.3181
24094SOL    HW273704   3.260   0.715   5.187 -1.3842  0.1185  0.6607
24095SOL     OW73705   8.624   0.862   4.129 -0.4938 -0.0787 -0.1852
24095SOL    HW173706   8.652   0.947   4.096  0.8196  0.4245  1.9965
24095SOL    HW273707   8.543   0.842   4.082 -0.8250  2.3636 -0.7398
24096SOL     OW73708   5.938   2.671   4.500  0.5799 -0.2355  0.1921
24096SOL    HW173709   6.017   2.634   4.460  1.1861 -2.0211  2.8060
24096SOL    HW273710   5.867   2.619   4.464  0.7268  0.3442 -0.9848
24097SOL     OW73711   6.016   5.012   3.662 -0.3250  0.3547  0.2207
24097SOL    HW173712   6.087   5.031   3.724  0.6843 -1.7098 -0.1778
24097SOL    HW273713   5.939   5.055   3.699  0.1863 -0.9196  3.0556
24098SOL     OW73714   0.634   0.850   7.505 -0.3924  0.1205  0.1645
24098SOL    HW173715   0.619   0.823   7.415 -2.8148  0.1538  0.4809
24098SOL    HW273716   0.705   0.914   7.500  1.7844 -2.2113 -1.2572
24099SOL     OW73717   6.566   3.862   1.564 -0.1401 -0.0940  0.2079
24099SOL    HW173718   6.635   3.912   1.608  0.2900 -0.4868 -0.0129
24099SOL    HW273719   6.485   3.892   1.606 -0.1182  2.1859 -1.2151
24100SOL     OW73720   6.748   0.328   0.123 -0.4472  0.4968 -0.0412
24100SOL    HW173721   6.838   0.360   0.124 -0.5472  0.9436 -1.8867
24100SOL    HW273722   6.735   0.297   0.034 -1.9184 -0.1994  0.3905
24101SOL     OW73723   7.347   5.155   7.233  0.3385 -0.1895  0.2657
24101SOL    HW173724   7.251   5.155   7.237  0.2127 -1.0741 -1.6857
24101SOL    HW273725   7.367   5.110   7.152  2.3285  2.9237 -1.1555
24102SOL     OW73726   8.499   0.230   1.166 -0.0727 -0.0681  0.0873
24102SOL    HW173727   8.505   0.218   1.072 -0.4000  1.5019 -0.1723
24102SOL    HW273728   8.555   0.306   1.183 -2.0743  1.3379  0.7457
24103SOL     OW73729   7.831   4.710   2.110 -0.0046  0.2055  0.1512
24103SOL    HW173730   7.796   4.634   2.156  1.0025 -2.2666 -2.8214
24103SOL    HW273731   7.926   4.704   2.122  0.0960  0.9125 -0.2450
24104SOL     OW73732   3.898   3.287   3.374  0.2453  0.3480  0.6115
24104SOL    HW173733   3.803   3.277   3.372  0.1513  1.1018  1.0755
24104SOL    HW273734   3.918   3.340   3.297 -0.1352  3.3415  2.4109
24105SOL     OW73735   0.604   7.244   3.281 -0.4410 -0.4727 -0.0843
24105SOL    HW173736   0.529   7.193   3.311 -0.0932 -0.4502  0.8586
24105SOL    HW273737   0.624   7.302   3.354 -1.0224  1.2670 -1.2328
24106SOL     OW73738   5.105   0.537   2.941 -0.0860 -0.2970 -0.1531
24106SOL    HW173739   5.073   0.566   3.027  0.6677  0.0578  0.0242
24106SOL    HW273740   5.116   0.618   2.891  2.4037 -0.1636  0.4702
24107SOL     OW73741   6.374   4.273   3.569 -0.2300  0.2780 -0.2871
24107SOL    HW173742   6.418   4.319   3.498  0.3962  0.2212  0.0600
24107SOL    HW273743   6.327   4.202   3.525 -1.3613  1.3342 -0.8484
24108SOL     OW73744   0.795   4.007   1.200 -0.1083 -0.1101 -0.5397
24108SOL    HW173745   0.789   3.999   1.105  0.0503 -1.4817 -0.4672
24108SOL    HW273746   0.887   3.989   1.220 -0.2415 -0.3354 -0.1002
24109SOL     OW73747   8.959   5.399   4.191 -0.2321 -0.3202 -0.1000
24109SOL    HW173748   8.901   5.450   4.248  0.9300  0.2979  0.5804
24109SOL    HW273749   9.019   5.464   4.154  3.2117 -1.3353  3.0551
24110SOL     OW73750   1.192   7.323   6.804  0.2390 -0.3292 -0.0563
24110SOL    HW173751   1.236   7.402   6.836  1.7769 -1.6534  1.2561
24110SOL    HW273752   1.198   7.329   6.709 -0.3722  1.4946 -0.0129
24111SOL     OW73753   2.714   4.364   7.553 -0.3668  0.4502  0.5811
24111SOL    HW173754   2.680   4.453   7.555 -3.1583 -0.5129  0.6901
24111SOL    HW273755   2.757   4.353   7.638 -1.6763  1.1345  1.3714
24112SOL     OW73756   0.581   2.511   8.825 -0.1184  0.1385 -0.0214
24112SOL    HW173757   0.531   2.592   8.838  0.2371  0.3545  0.0274
24112SOL    HW273758   0.629   2.500   8.907 -0.6226 -0.4516  0.2061
24113SOL     OW73759   1.682   4.620   7.681 -0.1657  0.1651 -0.9550
24113SOL    HW173760   1.666   4.714   7.672  1.5425  0.4481 -1.4127
24113SOL    HW273761   1.727   4.611   7.765 -0.8374 -0.3433 -0.6354
24114SOL     OW73762   8.958   1.887   6.492  0.4149 -0.0343  0.5436
24114SOL    HW173763   9.024   1.843   6.440  0.1480 -0.8194  0.8600
24114SOL    HW273764   8.878   1.883   6.440  0.1297 -0.8851  1.0296
24115SOL     OW73765   7.026   0.870   9.007 -0.0316 -0.3558 -0.0635
24115SOL    HW173766   6.954   0.831   9.056 -0.8217  1.4622  0.2848
24115SOL    HW273767   7.056   0.943   9.061  0.9440 -0.0189 -1.0082
24116SOL     OW73768   7.398   4.261   7.960 -0.1229  0.3161  0.0101
24116SOL    HW173769   7.347   4.339   7.937 -0.2113 -0.0905 -1.2643
24116SOL    HW273770   7.366   4.194   7.900 -0.4659 -0.8827  1.4707
24117SOL     OW73771   0.004   2.033   4.090 -0.4567  0.3242 -0.3068
24117SOL    HW173772   0.023   1.946   4.057 -0.7884  0.2503 -0.3091
24117SOL    HW273773  -0.046   2.018   4.170  0.3441  0.4985  0.2416
24118SOL     OW73774   0.044   0.681   8.519 -0.0065 -0.1703  0.4591
24118SOL    HW173775   0.097   0.717   8.447 -0.7366 -0.7954 -0.4255
24118SOL    HW273776   0.100   0.687   8.596  0.7234  0.7202 -0.1246
24119SOL     OW73777   3.184   0.907   9.046 -0.0141  0.1403  0.0614
24119SOL    HW173778   3.171   0.973   9.115 -0.0247 -0.2746  0.4648
24119SOL    HW273779   3.142   0.828   9.081  1.4529 -0.5535  0.3343
24120SOL     OW73780   5.330   8.816   8.664 -0.1409 -0.0445 -0.1590
24120SOL    HW173781   5.390   8.766   8.720  1.9515  0.9197 -1.4195
24120SOL    HW273782   5.259   8.754   8.644 -0.0686 -0.9436  2.0813
24121SOL     OW73783   7.839   6.748   6.634  0.0917 -0.3226 -0.1095
24121SOL    HW173784   7.838   6.671   6.577  0.8032  0.1794 -0.8155
24121SOL    HW273785   7.776   6.808   6.595  0.2949 -0.1335 -0.1486
24122SOL     OW73786   7.363   2.221   0.103 -0.6197 -0.3619 -0.1926
24122SOL    HW173787   7.371   2.181   0.017 -2.4858  0.6782 -0.8969
24122SOL    HW273788   7.452   2.250   0.123  0.4757 -3.2686 -0.3598
24123SOL     OW73789   2.902   7.711   3.767 -0.3052  0.3858 -0.1391
24123SOL    HW173790   2.902   7.649   3.694  1.0955 -0.5123  0.5809
24123SOL    HW273791   2.969   7.776   3.744 -2.0853  1.9839 -1.1100
24124SOL     OW73792   2.158   4.999   7.242  0.1832 -0.3824  0.1769
24124SOL    HW173793   2.169   4.982   7.336 -0.3046 -0.7131  0.1752
24124SOL    HW273794   2.217   4.936   7.200  1.1848  0.4623  0.2869
24125SOL     OW73795   2.285   6.662   3.941 -0.0445 -0.4090  0.4180
24125SOL    HW173796   2.361   6.639   3.994 -0.4280 -0.4089  0.9790
24125SOL    HW273797   2.220   6.693   4.004 -0.4128 -0.1472 -0.0807
24126SOL     OW73798   3.213   4.032   2.876 -0.1191  0.3615  0.0082
24126SOL    HW173799   3.241   4.119   2.848  1.0025  0.2836  0.8129
24126SOL    HW273800   3.152   4.003   2.808 -1.2255  2.1346  0.1932
24127SOL     OW73801   5.812   2.015   7.689 -0.7262 -0.5016  0.2367
24127SOL    HW173802   5.833   2.052   7.775 -1.2168 -0.8424  0.5093
24127SOL    HW273803   5.761   2.084   7.645 -1.8870 -0.9297  0.8520
24128SOL     OW73804   5.979   2.801   3.074 -0.4385  0.3460  0.1472
24128SOL    HW173805   5.902   2.766   3.119  1.4132  0.6143  3.9810
24128SOL    HW273806   5.981   2.894   3.097  2.4147 -0.1851  2.7636
24129SOL     OW73807   4.457   2.607   0.920 -0.2671  0.2233  0.1130
24129SOL    HW173808   4.422   2.690   0.951  0.0136  0.4970 -0.2858
24129SOL    HW273809   4.452   2.549   0.996 -2.2510  0.0258 -0.1315
24130SOL     OW73810   0.724   6.034   6.293 -0.3017 -0.1852 -0.0212
24130SOL    HW173811   0.817   6.046   6.314 -0.4134  1.1500 -0.2149
24130SOL    HW273812   0.691   6.123   6.281 -1.8218 -0.5951  0.9491
24131SOL     OW73813   4.286   4.139   8.920 -0.3724  0.0114 -0.6176
24131SOL    HW173814   4.366   4.181   8.952 -1.8782  0.7045  2.5560
24131SOL    HW273815   4.247   4.203   8.860  0.0131  0.9030  0.0634
24132SOL     OW73816   2.679   0.566   7.589 -0.5128  0.0407 -0.5337
24132SOL    HW173817   2.687   0.656   7.620 -2.8373 -0.3937  1.6033
24132SOL    HW273818   2.768   0.532   7.594  0.2556  1.9191 -0.4996
24133SOL     OW73819   4.448   1.396   4.401 -0.1798  0.1212  0.6306
24133SOL    HW173820   4.434   1.450   4.479 -0.7637  0.1620  0.4968
24133SOL    HW273821   4.484   1.456   4.336  2.9385 -0.4084  1.6583
24134SOL     OW73822   2.056   7.207   4.286 -0.6674 -0.0168  0.0155
24134SOL    HW173823   2.116   7.275   4.255  1.3454 -2.2871 -1.4646
24134SOL    HW273824   2.099   7.172   4.364 -0.6007 -0.9631 -0.4405
24135SOL     OW73825   6.287   5.689   4.716 -0.3356  0.5741 -0.1915
24135SOL    HW173826   6.305   5.735   4.798 -1.7860 -0.3307  0.6769
24135SOL    HW273827   6.310   5.598   4.734  1.0624  0.6512 -1.4079
24136SOL     OW73828   7.704   6.445   1.385  0.4509  0.1749  0.2679
24136SOL    HW173829   7.665   6.477   1.466 -2.3907  0.0504 -0.9113
24136SOL    HW273830   7.690   6.517   1.323  0.9249 -0.4145 -0.5340
24137SOL     OW73831   5.902   3.362   3.350  0.3252 -0.8224 -0.0561
24137SOL    HW173832   5.919   3.366   3.256  0.8419 -0.3899  0.0481
24137SOL    HW273833   5.809   3.382   3.359  0.7684  1.6504 -0.3083
24138SOL     OW73834   3.449   6.758   6.010 -0.5228  0.2704 -0.1686
24138SOL    HW173835   3.469   6.784   6.100 -0.0563  0.4950 -0.3339
24138SOL    HW273836   3.530   6.774   5.962 -0.2189 -1.4936 -0.2887
24139SOL     OW73837   3.517   0.254   3.131  0.0584  0.2844 -0.0338
24139SOL    HW173838   3.506   0.179   3.073  0.3799  1.7302 -2.1041
24139SOL    HW273839   3.611   0.257   3.149  0.0932  0.3477 -0.2167
24140SOL     OW73840   5.731   7.927   1.733  0.2125  0.7690 -0.1739
24140SOL    HW173841   5.810   7.961   1.691  2.5301 -0.6894  2.6049
24140SOL    HW273842   5.714   7.844   1.688  0.5041  0.9037 -0.5410
24141SOL     OW73843   1.811   4.316   2.105 -0.3453  0.4498  0.3944
24141SOL    HW173844   1.812   4.221   2.090  1.1263  0.5203 -0.0959
24141SOL    HW273845   1.742   4.329   2.170 -0.1185 -1.0256  0.9699
24142SOL     OW73846   2.635   3.202   1.653  0.5144  0.2529  0.0261
24142SOL    HW173847   2.645   3.193   1.559 -0.1360  0.6137 -0.0886
24142SOL    HW273848   2.719   3.234   1.684  1.5944 -2.2373 -0.0715
24143SOL     OW73849   6.268   3.598   0.055  0.0520 -0.4680 -0.0399
24143SOL    HW173850   6.199   3.611  -0.010 -0.0437 -2.0593 -0.2951
24143SOL    HW273851   6.349   3.599   0.004  0.3229  1.7951  0.3062
24144SOL     OW73852   2.058   3.055   6.711 -0.0481  0.0714 -0.7485
24144SOL    HW173853   2.136   3.044   6.657  0.0466  3.0173 -1.3295
24144SOL    HW273854   1.991   3.086   6.650 -0.1553  2.6983  0.5767
24145SOL     OW73855   5.360   8.520   6.950 -0.2466  0.1703  0.4323
24145SOL    HW173856   5.309   8.513   6.869 -0.4924 -1.6771  0.6993
24145SOL    HW273857   5.360   8.613   6.971 -0.2440  0.6823 -1.6438
24146SOL     OW73858   9.191   4.443   8.472 -0.3601 -0.4360 -0.1019
24146SOL    HW173859   9.227   4.500   8.540  0.9244 -0.3652 -0.8035
24146SOL    HW273860   9.169   4.362   8.518  2.9781 -1.4130  0.0501
24147SOL     OW73861   7.265   0.408   8.808  0.0784  0.0539  0.3420
24147SOL    HW173862   7.318   0.395   8.729  0.6665 -1.0562  0.9010
24147SOL    HW273863   7.277   0.500   8.830  1.6030 -0.1245  0.3343
24148SOL     OW73864   7.157   0.188   1.368  0.5079 -0.2258 -0.3331
24148SOL    HW173865   7.186   0.206   1.457  0.3498 -0.4473 -0.2353
24148SOL    HW273866   7.184   0.097   1.352 -0.3895 -0.5356 -0.1316
24149SOL     OW73867   3.924   7.797   2.033  0.8058 -0.3495 -0.0826
24149SOL    HW173868   3.867   7.847   2.091  2.7978  1.0677  0.7820
24149SOL    HW273869   3.870   7.777   1.957 -0.8238  0.8958  0.6932
24150SOL     OW73870   6.206   2.850   7.980  0.6469 -0.2135  0.1869
24150SOL    HW173871   6.233   2.941   7.973  0.6181 -0.3152 -1.7322
24150SOL    HW273872   6.163   2.831   7.897 -0.1226 -1.7372  0.8944
24151SOL     OW73873   2.594   7.351   2.466 -0.0798 -0.2445 -0.3288
24151SOL    HW173874   2.587   7.281   2.531  0.0642 -0.9524 -1.0642
24151SOL    HW273875   2.662   7.408   2.500 -0.1734 -0.4793  0.2644
24152SOL     OW73876   5.471   3.838   0.088  0.0978  0.2976 -0.2364
24152SOL    HW173877   5.403   3.844   0.156 -1.0886 -1.2813 -1.2107
24152SOL    HW273878   5.438   3.892   0.016 -0.6242 -1.1301 -1.0435
24153SOL     OW73879   9.041   1.031   7.565 -0.0810  0.2591  0.2542
24153SOL    HW173880   9.059   1.026   7.659 -0.7400 -1.2285  0.3283
24153SOL    HW273881   9.023   0.941   7.539  0.0403  0.6579 -1.3032
24154SOL     OW73882   6.151   7.436   4.007  0.2630 -0.2278  0.1037
24154SOL    HW173883   6.197   7.355   3.984  1.1572  0.3664 -0.2339
24154SOL    HW273884   6.115   7.418   4.094  0.7549 -0.8646  0.1885
24155SOL     OW73885   3.937   1.493   0.662 -0.5859  0.1934 -0.4108
24155SOL    HW173886   4.012   1.490   0.602 -0.7185  2.4497 -0.7746
24155SOL    HW273887   3.972   1.466   0.746 -0.0919 -1.7559 -1.1884
24156SOL     OW73888   6.111   6.757   0.598  0.0229 -0.0233  0.0332
24156SOL    HW173889   6.133   6.715   0.681 -1.3589 -3.0321 -0.9766
24156SOL    HW273890   6.188   6.744   0.543  0.2001  0.2225  0.2214
24157SOL     OW73891   2.572   9.074   8.667 -0.3971  0.0819  0.0755
24157SOL    HW173892   2.481   9.102   8.658 -1.5785 -3.1560  0.5304
24157SOL    HW273893   2.590   9.025   8.587  0.8444  0.3690  0.1567
24158SOL     OW73894   5.742   6.371   1.094  0.4989 -0.1549 -0.3639
24158SOL    HW173895   5.807   6.303   1.112  0.1489 -0.1632  0.9252
24158SOL    HW273896   5.794   6.450   1.080  0.8090 -0.2471  0.2519
24159SOL     OW73897   3.519   9.219   8.580 -0.2700  0.5122  0.2057
24159SOL    HW173898   3.454   9.149   8.585  1.3193 -1.1427 -1.3190
24159SOL    HW273899   3.499   9.264   8.498 -0.9034  1.5297  0.8858
24160SOL     OW73900   3.296   6.834   8.259 -0.0523 -0.2029 -0.3816
24160SOL    HW173901   3.281   6.822   8.353 -1.1343 -0.1126 -0.5255
24160SOL    HW273902   3.288   6.928   8.245 -2.0180 -0.4051 -0.8736
24161SOL     OW73903   7.088   5.031   1.613  0.1986  0.3844 -0.8186
24161SOL    HW173904   7.147   5.035   1.688  1.1559  2.6187 -1.5858
24161SOL    HW273905   7.144   5.009   1.538 -0.6040 -1.0598 -1.0148
24162SOL     OW73906   1.319   4.060   0.658  0.2816 -0.0617  0.4303
24162SOL    HW173907   1.314   3.998   0.730 -0.3990 -1.6255 -0.8829
24162SOL    HW273908   1.284   4.142   0.693 -0.2789 -0.8561  1.7866
24163SOL     OW73909   1.646   5.795   7.665  0.5101  0.4628 -0.3082
24163SOL    HW173910   1.666   5.730   7.732 -0.8933  1.3950  1.1024
24163SOL    HW273911   1.684   5.876   7.700 -0.3812  0.9916 -0.5614
24164SOL     OW73912   1.648   1.883   9.220 -0.0479 -0.4823  0.0622
24164SOL    HW173913   1.732   1.921   9.194  0.5526 -2.1214 -0.4845
24164SOL    HW273914   1.654   1.791   9.195 -0.8836 -1.3317  2.6899
24165SOL     OW73915   4.348   9.054   2.181  0.2556 -0.4706  0.2233
24165SOL    HW173916   4.427   9.103   2.158  0.8748 -1.6680 -0.2640
24165SOL    HW273917   4.301   9.113   2.240  0.3339  1.2445 -1.3157
24166SOL     OW73918   2.149   8.054   1.950  0.8306  0.0922  0.1622
24166SOL    HW173919   2.131   7.963   1.928  2.8207 -0.2740 -0.1411
24166SOL    HW273920   2.097   8.071   2.029 -0.6249 -0.8579 -0.5565
24167SOL     OW73921   8.824   0.839   5.252 -0.7805  0.0204  0.5996
24167SOL    HW173922   8.856   0.807   5.336  0.3872 -0.5884 -0.0488
24167SOL    HW273923   8.864   0.926   5.243  0.5242 -0.6207 -0.0782
24168SOL     OW73924   7.293   7.550   1.235 -0.2501  0.1609  0.4125
24168SOL    HW173925   7.298   7.527   1.328 -1.1729  1.9983  0.9571
24168SOL    HW273926   7.214   7.602   1.227 -0.2474 -0.0577 -1.4532
24169SOL     OW73927   4.115   9.003   0.841 -0.0306 -0.3252 -0.0012
24169SOL    HW173928   4.059   9.080   0.826  0.6067  0.1448 -0.0042
24169SOL    HW273929   4.053   8.931   0.852 -0.6426  0.1968  0.0630
24170SOL     OW73930   0.872   0.368   7.969  0.3231  0.2155  0.0504
24170SOL    HW173931   0.888   0.457   8.000  0.6909  0.3825 -0.6053
24170SOL    HW273932   0.923   0.313   8.030 -0.8682  0.3344  1.2041
24171SOL     OW73933   3.927   8.412   3.941 -0.2099 -0.3917 -0.2036
24171SOL    HW173934   3.876   8.334   3.962  0.3034 -0.2356  1.8613
24171SOL    HW273935   4.009   8.377   3.904  0.0224 -0.8592  0.7142
24172SOL     OW73936   7.977   2.388   6.593  0.8290 -0.6820 -0.5155
24172SOL    HW173937   8.054   2.438   6.618  0.7381 -1.7287  2.1981
24172SOL    HW273938   7.959   2.332   6.668 -3.1739  0.2241 -0.5591
24173SOL     OW73939   0.349   1.196   8.232 -0.1459  0.1835 -0.2661
24173SOL    HW173940   0.298   1.143   8.293  2.4833 -0.6837  1.3248
24173SOL    HW273941   0.320   1.168   8.145 -0.6017 -2.0484  0.5625
24174SOL     OW73942   8.580   6.658   3.975  0.8673  0.3741 -0.3349
24174SOL    HW173943   8.563   6.607   4.055  0.9858 -0.9544 -1.1238
24174SOL    HW273944   8.525   6.617   3.908  1.7446  0.6201 -1.2361
24175SOL     OW73945   8.094   2.736   5.740 -0.4420  0.5947 -0.0468
24175SOL    HW173946   8.083   2.721   5.647 -0.6386  0.8341 -0.0626
24175SOL    HW273947   8.039   2.671   5.783  0.9973 -0.6899 -0.0620
24176SOL     OW73948   0.652   9.102   6.864 -0.4307 -0.1638 -0.3489
24176SOL    HW173949   0.629   9.143   6.947  0.9276  1.1125 -0.5667
24176SOL    HW273950   0.650   9.174   6.800  2.3397 -0.2967 -0.6850
24177SOL     OW73951   8.579   8.435   3.697 -0.6853  0.2341  0.3084
24177SOL    HW173952   8.571   8.492   3.621  0.7402 -1.0112 -0.8474
24177SOL    HW273953   8.545   8.351   3.667 -0.7736 -0.0842  1.2764
24178SOL     OW73954   5.496   9.003   1.595  0.3916 -0.4593 -0.1877
24178SOL    HW173955   5.550   8.961   1.528 -1.5150 -0.0300 -2.1467
24178SOL    HW273956   5.438   9.061   1.545  0.5192  1.8055  2.0906
24179SOL     OW73957   1.340   3.723   8.599  0.0018 -0.1861  0.4932
24179SOL    HW173958   1.400   3.763   8.537  1.0773 -1.6127  0.5604
24179SOL    HW273959   1.260   3.708   8.549 -0.2568  1.5297  0.3441
24180SOL     OW73960   9.094   3.874   0.037 -0.0731  0.0632  0.0674
24180SOL    HW173961   9.178   3.893   0.079  0.1092  1.1803 -0.7680
24180SOL    HW273962   9.029   3.885   0.108  0.1612  2.5887 -0.0127
24181SOL     OW73963   3.828   3.258   4.452 -0.3605  0.1522 -0.2038
24181SOL    HW173964   3.841   3.191   4.520 -0.4594  0.4207  0.0839
24181SOL    HW273965   3.734   3.256   4.434 -0.3790  0.2749 -0.1264
24182SOL     OW73966   9.005   1.169   9.128  0.0705  0.4358 -0.0071
24182SOL    HW173967   9.065   1.119   9.183  0.7456  0.8117 -0.3846
24182SOL    HW273968   9.043   1.163   9.040 -0.0921  1.2229 -0.1352
24183SOL     OW73969   8.791   6.799   2.138  0.5152  0.0861 -0.0430
24183SOL    HW173970   8.823   6.796   2.228  2.0898  2.0325 -0.4637
24183SOL    HW273971   8.806   6.710   2.104  2.8880  0.1367  0.6823
24184SOL     OW73972   2.601   4.666   3.565  0.1065  0.5512 -0.2413
24184SOL    HW173973   2.553   4.624   3.494 -0.2348  1.5986 -0.6509
24184SOL    HW273974   2.547   4.652   3.642 -1.3616  2.4863 -0.8580
24185SOL     OW73975   6.588   0.005   5.412 -0.0938 -0.1799  0.3427
24185SOL    HW173976   6.666   0.000   5.467  0.1875  0.5469  0.0101
24185SOL    HW273977   6.568  -0.087   5.391 -0.3004 -0.4931  1.7660
24186SOL     OW73978   8.837   3.994   4.653 -1.1747 -0.0722  0.4276
24186SOL    HW173979   8.809   4.028   4.738 -1.7897  0.4414  0.0360
24186SOL    HW273980   8.929   4.019   4.646 -1.5159  1.2396  0.3015
24187SOL     OW73981   6.847   9.016   5.987  0.5660 -0.1660 -0.2007
24187SOL    HW173982   6.931   9.001   5.943  1.0742 -1.2017  1.0571
24187SOL    HW273983   6.854   9.104   6.023  0.7091  0.1357 -0.9544
24188SOL     OW73984   0.002   0.556   3.349 -0.3037  0.0969  0.4321
24188SOL    HW173985   0.045   0.567   3.434  0.6661 -0.8078  0.0816
24188SOL    HW273986   0.035   0.628   3.295  1.3959 -0.9972 -0.0556
24189SOL     OW73987   6.341   0.766   1.970 -0.2754 -0.3340  0.2883
24189SOL    HW173988   6.286   0.700   2.013 -0.6102 -0.2258  0.0367
24189SOL    HW273989   6.323   0.847   2.018  1.5705 -0.7791  1.8259
24190SOL     OW73990   0.137   2.666   2.128  0.1182 -0.0022  0.0746
24190SOL    HW173991   0.179   2.633   2.049  1.7688  0.0020  0.9000
24190SOL    HW273992   0.176   2.614   2.199 -1.4577 -0.1481  0.8886
24191SOL     OW73993   8.406   7.931   0.835 -0.2157  0.0111  0.6400
24191SOL    HW173994   8.382   7.974   0.753  2.0360 -0.5520 -0.3834
24191SOL    HW273995   8.396   7.998   0.902 -0.5484  0.9483 -0.3267
24192SOL     OW73996   6.722   0.938   1.132 -0.5133 -0.1575 -0.1612
24192SOL    HW173997   6.714   0.850   1.168 -1.2053  0.7673  2.1674
24192SOL    HW273998   6.633   0.965   1.113 -0.5199  0.6458  0.8632
24193SOL     OW73999   0.587   2.587   3.516 -0.1821  0.1860 -0.6891
24193SOL    HW174000   0.629   2.574   3.601 -0.1042  1.0459 -0.5911
24193SOL    HW274001   0.564   2.498   3.488  0.8949 -0.2278 -0.3384
24194SOL     OW74002   2.586   4.513   7.837 -0.0618  0.2675  0.2852
24194SOL    HW174003   2.659   4.542   7.892  2.4278 -1.7100 -1.7494
24194SOL    HW274004   2.595   4.563   7.756 -0.4297 -0.6051 -0.3121
24195SOL     OW74005   5.801   8.640   5.526  0.5119  0.1810 -0.1045
24195SOL    HW174006   5.747   8.598   5.458  0.9195 -0.4602 -0.0378
24195SOL    HW274007   5.888   8.647   5.486  0.6841  0.0597  0.2442
24196SOL     OW74008   8.219   6.550   8.409 -0.3742 -0.2823  0.1216
24196SOL    HW174009   8.276   6.610   8.457  0.0709 -1.1775  0.7346
24196SOL    HW274010   8.133   6.561   8.449 -0.8514  1.5535 -1.2331
24197SOL     OW74011   4.437   5.497   2.392 -0.3728  0.3964  0.2682
24197SOL    HW174012   4.427   5.516   2.299 -3.0310  0.6042  0.5016
24197SOL    HW274013   4.352   5.462   2.419  0.8940 -1.4045  2.2604
24198SOL     OW74014   3.371   7.112   6.423 -0.0739 -0.2829 -0.6187
24198SOL    HW174015   3.367   7.124   6.328  0.0502  1.0989 -0.4680
24198SOL    HW274016   3.387   7.200   6.458  1.1425 -0.9479  0.6119
24199SOL     OW74017   6.856   2.137   2.030 -0.1425  0.5438 -0.0513
24199SOL    HW174018   6.774   2.115   1.986  0.0711 -1.0401  0.2562
24199SOL    HW274019   6.901   2.197   1.970 -0.5093 -0.4071 -1.3343
24200SOL     OW74020   0.462   4.270   8.796 -0.3203 -0.2970 -0.6192
24200SOL    HW174021   0.545   4.317   8.798 -0.9953  0.9403 -0.6253
24200SOL    HW274022   0.397   4.338   8.776 -1.3787 -1.1602 -0.1779
24201SOL     OW74023   4.859   1.229   2.830 -0.2977  0.3368  0.2278
24201SOL    HW174024   4.911   1.307   2.850  0.0301  0.5619 -1.3900
24201SOL    HW274025   4.814   1.208   2.912 -0.3186  2.1574  0.7104
24202SOL     OW74026   3.604   5.886   2.515 -0.1975  0.1288  0.1804
24202SOL    HW174027   3.520   5.868   2.472 -0.5434  0.3793  0.7520
24202SOL    HW274028   3.598   5.843   2.600  1.0951 -1.7379 -0.5862
24203SOL     OW74029   6.215   2.845   0.871 -0.4181 -1.0611 -0.1697
24203SOL    HW174030   6.171   2.928   0.854  0.0353 -0.5753  0.9333
24203SOL    HW274031   6.145   2.787   0.902 -0.4578 -0.5425  0.7698
24204SOL     OW74032   6.300   7.130   8.608 -0.3752 -0.0163  0.1161
24204SOL    HW174033   6.369   7.076   8.647 -1.0152 -0.3373  0.8260
24204SOL    HW274034   6.220   7.105   8.655 -1.0406  0.1195 -0.9048
24205SOL     OW74035   4.201   9.101   0.378 -0.0272 -0.4309 -0.2393
24205SOL    HW174036   4.156   9.019   0.397 -0.5881  0.1616  1.0916
24205SOL    HW274037   4.147   9.143   0.311  1.0901 -1.8057 -2.0847
24206SOL     OW74038   7.188   1.434   8.862 -0.4053 -0.7963  0.2975
24206SOL    HW174039   7.148   1.498   8.804  0.3968 -0.0824  0.5140
24206SOL    HW274040   7.129   1.430   8.938 -0.5982 -0.5115  0.1621
24207SOL     OW74041   8.964   8.741   0.451 -0.1979  0.1923  0.1456
24207SOL    HW174042   8.918   8.676   0.398 -0.7210  0.4379  0.2924
24207SOL    HW274043   9.018   8.789   0.388  0.0840 -0.2917  0.0166
24208SOL     OW74044   4.463   1.956   3.561  0.3700  0.7549  0.1534
24208SOL    HW174045   4.487   1.989   3.648 -0.1947  1.5082  0.0356
24208SOL    HW274046   4.533   1.988   3.504  0.5760  0.5292  0.2775
24209SOL     OW74047   7.502   2.844   5.967 -0.2602  0.5201 -0.0388
24209SOL    HW174048   7.482   2.902   5.894 -0.8553  0.6839  0.2442
24209SOL    HW274049   7.558   2.896   6.025  0.7091  0.1876 -0.6549
24210SOL     OW74050   6.249   6.374   7.124  0.8124  0.0814 -0.5133
24210SOL    HW174051   6.289   6.441   7.069  0.8245  1.2447  0.8697
24210SOL    HW274052   6.196   6.423   7.187  1.0581 -1.1854  0.7268
24211SOL     OW74053   8.490   2.261   2.029  0.1133  0.0518 -0.0039
24211SOL    HW174054   8.408   2.245   1.982 -1.0018  2.1786  1.0505
24211SOL    HW274055   8.466   2.256   2.121  1.1803  0.7158  0.3299
24212SOL     OW74056   6.917   6.528   0.611 -0.1499  0.1567 -0.0338
24212SOL    HW174057   6.928   6.533   0.706  2.4928  0.2623 -0.2898
24212SOL    HW274058   6.874   6.610   0.588  3.3504  2.3852  0.6602
24213SOL     OW74059   8.526   7.176   3.749 -0.2900  0.2984  0.3565
24213SOL    HW174060   8.494   7.087   3.766 -1.9454  0.5014 -1.3327
24213SOL    HW274061   8.598   7.165   3.688 -0.1271  0.0791  0.5885
24214SOL     OW74062   7.809   5.546   3.238  0.1717  0.2784  0.2081
24214SOL    HW174063   7.833   5.465   3.283  0.2130 -0.3025 -0.8156
24214SOL    HW274064   7.727   5.525   3.192  0.6945  0.4875 -0.8624
24215SOL     OW74065   6.907   4.652   5.512  0.0552 -0.0321  0.5779
24215SOL    HW174066   6.968   4.579   5.507 -2.5179 -2.2616 -1.4796
24215SOL    HW274067   6.896   4.680   5.421  0.1006  2.2422  1.2113
24216SOL     OW74068   3.845   7.636   2.839 -0.0288 -0.0635 -0.1130
24216SOL    HW174069   3.897   7.610   2.915  0.4679 -1.2349 -0.8166
24216SOL    HW274070   3.759   7.657   2.874  0.2513 -0.4085  0.7987
24217SOL     OW74071   6.559   4.205   1.042  0.0182 -0.1772  0.2624
24217SOL    HW174072   6.579   4.289   1.000 -0.8920 -1.3252 -2.6989
24217SOL    HW274073   6.613   4.142   0.995 -0.2614 -1.4514  1.5932
24218SOL     OW74074   7.848   4.292   0.748  1.4463 -0.2326 -0.0854
24218SOL    HW174075   7.776   4.305   0.810  2.0683 -0.3557  0.6787
24218SOL    HW274076   7.919   4.347   0.782  1.1675  1.2520 -1.7817
24219SOL     OW74077   0.433   0.848   8.610 -0.7094  0.2664  0.0045
24219SOL    HW174078   0.473   0.808   8.687  1.3857 -0.7524 -1.5124
24219SOL    HW274079   0.399   0.774   8.559 -0.2072  0.7011 -1.0074
24220SOL     OW74080   5.624   9.133   5.913  0.6770 -0.3823 -0.4854
24220SOL    HW174081   5.554   9.075   5.884  0.6559 -0.1908 -0.8318
24220SOL    HW274082   5.592   9.171   5.994  0.1900  0.0324 -0.8642
24221SOL     OW74083   3.997   7.097   5.520 -0.2625 -0.3578  0.5266
24221SOL    HW174084   4.093   7.095   5.525 -0.2251 -0.4585 -0.1935
24221SOL    HW274085   3.977   7.181   5.478 -0.3985 -1.1294 -1.0360
24222SOL     OW74086   2.093   7.187   1.829  0.2147  0.0138 -0.2696
24222SOL    HW174087   2.178   7.226   1.807 -0.6395  2.0540 -0.1979
24222SOL    HW274088   2.064   7.237   1.906 -1.7234  0.4604 -1.2323
24223SOL     OW74089   3.389   1.859   1.129 -0.1648  0.4467  0.9315
24223SOL    HW174090   3.339   1.777   1.129  1.2802 -0.5286 -0.9379
24223SOL    HW274091   3.329   1.924   1.094 -0.6382 -0.3209  0.2792
24224SOL     OW74092   6.372   5.192   0.886 -0.5516  0.4258  0.1867
24224SOL    HW174093   6.426   5.270   0.872 -2.5284  1.8488 -0.0097
24224SOL    HW274094   6.361   5.187   0.981 -1.1151  0.9117  0.1528
24225SOL     OW74095   7.247   8.299   6.064 -0.5388  0.8103 -0.2348
24225SOL    HW174096   7.273   8.261   6.148  0.6639  0.2643 -0.8232
24225SOL    HW274097   7.167   8.252   6.040  0.4474 -0.8026 -0.5279
24226SOL     OW74098   8.186   7.730   8.665 -0.3035 -0.5077 -0.2645
24226SOL    HW174099   8.265   7.685   8.636  0.3853 -0.7281  1.8263
24226SOL    HW274100   8.176   7.706   8.757  0.1458  3.6041  1.0603
24227SOL     OW74101   0.021   7.464   5.108 -0.2375  0.2197 -0.3054
24227SOL    HW174102   0.107   7.435   5.138  0.4053  0.8075 -1.5018
24227SOL    HW274103  -0.033   7.465   5.187  1.0658  0.5828  0.6145
24228SOL     OW74104   1.171   0.947   9.172  0.0588  0.4093 -0.2775
24228SOL    HW174105   1.080   0.964   9.148 -0.3428  2.4550  2.1727
24228SOL    HW274106   1.167   0.873   9.232 -0.1445  0.9572  0.4072
24229SOL     OW74107   9.195   4.943   3.414 -0.2692  0.4342 -0.0794
24229SOL    HW174108   9.232   4.865   3.374 -1.1395 -0.4542  0.7891
24229SOL    HW274109   9.141   4.910   3.486  0.7128  1.9243  1.4237
24230SOL     OW74110   3.242   2.981   5.190 -0.0029  0.2812 -0.2628
24230SOL    HW174111   3.157   2.939   5.176  0.0838 -0.3154  0.9080
24230SOL    HW274112   3.294   2.954   5.115 -0.4243 -0.4786 -0.2950
24231SOL     OW74113   2.941   2.081   4.727 -0.4611  0.2317  0.5844
24231SOL    HW174114   2.889   2.078   4.807  1.6343  0.3481  2.0387
24231SOL    HW274115   2.971   1.991   4.714  0.9249  0.5714  1.1920
24232SOL     OW74116   6.882   6.895   4.079  0.2645  0.2941 -0.3785
24232SOL    HW174117   6.824   6.967   4.107  0.9130  0.3442  0.9162
24232SOL    HW274118   6.838   6.816   4.110 -0.3792  0.1197 -1.6821
24233SOL     OW74119   6.239   6.317   3.316  0.0566  0.7828  0.0109
24233SOL    HW174120   6.149   6.303   3.345 -0.4088 -2.4029 -2.3126
24233SOL    HW274121   6.231   6.371   3.238 -0.1320 -0.8228 -1.1420
24234SOL     OW74122   5.397   8.680   2.377 -0.2341 -0.1290  0.6812
24234SOL    HW174123   5.309   8.648   2.397 -0.1018 -0.9402  0.0135
24234SOL    HW274124   5.392   8.711   2.287  0.0234  0.3888  0.8346
24235SOL     OW74125   2.172   2.366   1.450 -0.3298  0.3501 -0.4953
24235SOL    HW174126   2.153   2.421   1.374 -1.2848 -0.0904 -0.5901
24235SOL    HW274127   2.188   2.427   1.521 -0.9498  0.7679 -0.7029
24236SOL     OW74128   2.552   1.122   2.318  0.0858  0.6774 -0.4577
24236SOL    HW174129   2.509   1.159   2.395 -1.5586 -0.2133 -0.8997
24236SOL    HW274130   2.552   1.194   2.254 -2.3711  0.2598 -1.0341
24237SOL     OW74131   8.325   1.674   2.057 -0.4405  0.2822 -0.0204
24237SOL    HW174132   8.367   1.594   2.089 -1.7178 -0.1462  0.6846
24237SOL    HW274133   8.260   1.643   1.993 -0.2904  0.8411 -0.4498
24238SOL     OW74134   5.267   7.618   3.884 -0.3379 -0.1526 -0.2524
24238SOL    HW174135   5.178   7.653   3.885  0.6390  2.5198 -0.6950
24238SOL    HW274136   5.294   7.617   3.976 -0.3162  0.4436 -0.2510
24239SOL     OW74137   3.400   6.517   8.798 -0.4706 -0.4072  0.8773
24239SOL    HW174138   3.373   6.463   8.724 -0.9180 -0.5053  1.1080
24239SOL    HW274139   3.338   6.591   8.797  1.0292  0.9162 -0.3368
24240SOL     OW74140   5.456   0.766   1.466  0.5434 -0.3973 -0.3816
24240SOL    HW174141   5.439   0.685   1.513  1.7422 -0.3221  0.2230
24240SOL    HW274142   5.381   0.822   1.486  0.4780 -0.7884  0.5194
24241SOL     OW74143   1.672   1.782   8.558 -0.0002  0.1724  0.2293
24241SOL    HW174144   1.754   1.831   8.562 -0.4913  0.9500  1.7670
24241SOL    HW274145   1.684   1.711   8.621  0.5800 -1.5700 -1.7418
24242SOL     OW74146   4.411   3.780   5.143  0.2474 -0.0669  0.4611
24242SOL    HW174147   4.496   3.768   5.187 -0.5333  1.3837  2.5037
24242SOL    HW274148   4.388   3.871   5.159 -1.0548 -0.0183 -1.3438
24243SOL     OW74149   7.193   3.859   4.300 -0.2575  0.1559 -0.7394
24243SOL    HW174150   7.257   3.883   4.367 -0.1911 -1.7748 -0.0610
24243SOL    HW274151   7.186   3.937   4.245 -0.2015  1.7478  1.3943
24244SOL     OW74152   0.836   2.190   3.864 -0.3718  0.2868 -0.0261
24244SOL    HW174153   0.917   2.217   3.823 -1.2491  0.3657 -1.8021
24244SOL    HW274154   0.815   2.260   3.925  1.2513 -0.0959  1.0381
24245SOL     OW74155   1.475   2.360   8.852  0.3015  0.3594  1.1503
24245SOL    HW174156   1.385   2.355   8.820  0.9320  0.0245 -0.6902
24245SOL    HW274157   1.473   2.428   8.919 -1.2070  0.7289  0.7729
24246SOL     OW74158   6.153   2.118   7.107  0.0724  0.3261  0.6099
24246SOL    HW174159   6.191   2.086   7.025 -2.1143 -1.8516  0.3077
24246SOL    HW274160   6.210   2.190   7.133  1.9859 -0.1534 -1.7883
24247SOL     OW74161   6.919   5.535   2.845  0.0099 -0.4554  0.5567
24247SOL    HW174162   6.988   5.539   2.779 -0.2763  0.6419  0.3202
24247SOL    HW274163   6.869   5.456   2.823  0.6026 -0.7244  0.1552
24248SOL     OW74164   9.212   8.623   5.850 -0.4563  0.1543 -0.2490
24248SOL    HW174165   9.267   8.616   5.928 -0.9084 -1.7434 -0.0445
24248SOL    HW274166   9.244   8.701   5.804 -0.3843  1.5322  1.9773
24249SOL     OW74167   3.517   3.483   7.388  0.1982 -0.1262  0.1681
24249SOL    HW174168   3.432   3.508   7.351  0.6457 -0.4179 -1.1125
24249SOL    HW274169   3.496   3.423   7.459 -0.6347 -2.5334 -1.9613
24250SOL     OW74170   4.574   7.576   6.454  0.1816  0.5288  0.0930
24250SOL    HW174171   4.655   7.524   6.458  0.1814  0.5164 -0.0887
24250SOL    HW274172   4.569   7.618   6.540 -0.2701 -0.4646  0.5679
24251SOL     OW74173   0.576   7.482   7.217 -0.4546  0.0942  0.5807
24251SOL    HW174174   0.520   7.433   7.277  0.4367  0.5773  1.8635
24251SOL    HW274175   0.589   7.566   7.259  0.9543  0.1141  0.1743
24252SOL     OW74176   7.375   6.225   2.827  0.7900 -0.0082 -0.2650
24252SOL    HW174177   7.309   6.220   2.897 -0.4332  0.9183 -1.2977
24252SOL    HW274178   7.374   6.137   2.789  0.1756 -0.0260 -0.2313
24253SOL     OW74179   4.066   8.019   5.214  0.4439  0.3759 -0.1436
24253SOL    HW174180   4.029   8.010   5.302 -0.8901 -3.5097 -0.8663
24253SOL    HW274181   4.017   8.090   5.174 -1.9058 -0.4956  0.9966
24254SOL     OW74182   1.038   1.767   6.860  0.2128 -0.5560  0.0492
24254SOL    HW174183   0.988   1.748   6.940 -1.5099  0.3096 -0.7518
24254SOL    HW274184   1.076   1.853   6.876 -0.4125 -0.2303 -0.1616
24255SOL     OW74185   8.341   8.231   8.963  0.6538 -0.2855  0.1362
24255SOL    HW174186   8.406   8.195   8.902  1.1090  1.3864 -0.4102
24255SOL    HW274187   8.332   8.323   8.937  0.4113  0.3280  2.2067
24256SOL     OW74188   8.384   1.576   1.727 -0.0122 -0.7583  0.3495
24256SOL    HW174189   8.325   1.633   1.679  0.8210 -0.9354 -0.9424
24256SOL    HW274190   8.439   1.635   1.779 -0.3903 -0.5165  0.4723
24257SOL     OW74191   4.161   6.050   6.356 -0.1075 -0.2650 -0.3315
24257SOL    HW174192   4.201   5.964   6.366 -0.4969 -0.5708 -1.2839
24257SOL    HW274193   4.071   6.031   6.330 -0.8843  0.4061  1.6701
24258SOL     OW74194   8.274   6.434   6.898 -0.3904  0.5115 -0.5423
24258SOL    HW174195   8.224   6.408   6.976 -1.8550 -1.1242 -1.9328
24258SOL    HW274196   8.214   6.492   6.850  0.0889  0.6680 -0.9562
24259SOL     OW74197   6.798   7.361   7.444  0.2833 -0.7023 -0.3212
24259SOL    HW174198   6.752   7.310   7.377 -4.2755  2.4500 -0.0083
24259SOL    HW274199   6.868   7.405   7.396 -1.1388 -0.6149 -2.4856
24260SOL     OW74200   7.855   8.362   1.080  0.0569  0.1509  0.7969
24260SOL    HW174201   7.944   8.336   1.056  0.4255  1.4888  0.6229
24260SOL    HW274202   7.800   8.290   1.050  0.7658  0.6168 -1.8217
24261SOL     OW74203   0.520   0.715   4.376 -0.2069  0.1741 -0.0185
24261SOL    HW174204   0.444   0.720   4.433 -1.1689  0.5683 -1.3104
24261SOL    HW274205   0.573   0.645   4.414  0.5179  2.1064  2.8932
24262SOL     OW74206   6.862   0.793   6.347 -0.0786  0.2793 -0.3228
24262SOL    HW174207   6.926   0.774   6.278  0.5660  1.0080  0.0603
24262SOL    HW274208   6.837   0.707   6.380 -0.9904 -0.1318 -1.9743
24263SOL     OW74209   7.049   4.429   8.493  0.1207  0.0769  0.0629
24263SOL    HW174210   6.990   4.479   8.548  0.2607 -0.7849  1.0240
24263SOL    HW274211   7.101   4.376   8.554  1.1097 -0.0170 -0.8173
24264SOL     OW74212   6.652   4.391   4.379 -0.6202  0.1798 -0.0248
24264SOL    HW174213   6.688   4.477   4.400 -1.3239  0.9867 -1.8084
24264SOL    HW274214   6.634   4.350   4.464  0.7177  1.3548  0.8597
24265SOL     OW74215   3.380   1.172   7.979  0.1220  0.1132  0.3473
24265SOL    HW174216   3.360   1.256   7.938 -0.9482 -0.8148 -1.1767
24265SOL    HW274217   3.473   1.160   7.964  0.5847  1.6044  1.7831
24266SOL     OW74218   3.048   5.068   8.268  0.2678  0.4728 -0.1156
24266SOL    HW174219   3.092   5.140   8.312  2.4383 -1.3439  0.8725
24266SOL    HW274220   3.084   5.067   8.180  0.5008  0.3873 -0.0196
24267SOL     OW74221   4.035   3.516   1.721 -0.4831  0.5111 -0.4663
24267SOL    HW174222   4.061   3.511   1.813  0.7656  0.0993 -0.8273
24267SOL    HW274223   3.940   3.501   1.723 -0.0493 -3.1673  0.4715
24268SOL     OW74224   8.978   7.065   1.436  0.3802  0.4071  0.0711
24268SOL    HW174225   8.951   6.974   1.423  0.0889  0.0505  2.6724
24268SOL    HW274226   9.072   7.060   1.456  0.2441  0.5768  0.8059
24269SOL     OW74227   1.577   6.847   2.329  0.0330  0.5076  0.1636
24269SOL    HW174228   1.673   6.853   2.332  0.2460 -2.1641  1.0871
24269SOL    HW274229   1.552   6.817   2.416 -1.5893  0.4374 -0.3005
24270SOL     OW74230   3.919   2.995   9.195 -0.2995 -0.2042  0.1259
24270SOL    HW174231   3.855   2.941   9.148  1.0470 -2.1388  0.4083
24270SOL    HW274232   3.929   3.073   9.141 -1.4282 -0.7663 -0.9420
24271SOL     OW74233   3.432   2.140   5.775  0.0400 -0.2319  0.2856
24271SOL    HW174234   3.492   2.198   5.820  0.3734  0.4320 -0.9560
24271SOL    HW274235   3.488   2.090   5.715 -0.6556  0.7020 -1.2073
24272SOL     OW74236   6.783   4.685   4.797 -0.0389  0.1510  0.2930
24272SOL    HW174237   6.719   4.635   4.847  0.9085 -0.3271  1.0354
24272SOL    HW274238   6.764   4.777   4.818  0.4509 -0.0506  1.6630
24273SOL     OW74239   7.862   5.967   6.936  0.2726 -0.5376  0.1638
24273SOL    HW174240   7.869   5.926   7.023 -0.9432 -1.3467 -0.0993
24273SOL    HW274241   7.908   5.908   6.878  0.6231 -0.2670  0.1610
24274SOL     OW74242   4.368   2.234   7.605  0.1058 -0.4309  0.7167
24274SOL    HW174243   4.405   2.149   7.631  0.3733 -0.4478  0.2957
24274SOL    HW274244   4.303   2.253   7.673 -2.3473 -2.5408 -0.8450
24275SOL     OW74245   7.964   7.334   0.752 -0.1599 -0.1567 -0.0708
24275SOL    HW174246   7.881   7.376   0.775 -0.0324 -0.4390  0.9904
24275SOL    HW274247   7.997   7.384   0.677 -0.3612  1.1969  0.6959
24276SOL     OW74248   1.947   3.983   8.717 -0.0094 -0.4463  0.1977
24276SOL    HW174249   1.920   4.010   8.629  0.3791  1.9020  0.7438
24276SOL    HW274250   1.866   3.961   8.762 -0.8961  3.4179  0.8161
24277SOL     OW74251   3.402   0.671   0.191  0.0788 -0.3569  0.3414
24277SOL    HW174252   3.405   0.745   0.131 -0.3345 -1.0342 -0.5430
24277SOL    HW274253   3.309   0.657   0.207  0.0614 -1.6035 -0.6968
24278SOL     OW74254   7.058   1.878   2.025 -0.2349 -0.0900 -0.4420
24278SOL    HW174255   7.092   1.937   1.958  0.2011  0.4434  0.2447
24278SOL    HW274256   6.965   1.868   2.002  0.0065 -0.3068 -1.4017
24279SOL     OW74257   7.895   6.634   5.502 -0.1915 -0.3926  0.4167
24279SOL    HW174258   7.879   6.539   5.506 -0.0638 -0.4828 -0.7366
24279SOL    HW274259   7.975   6.642   5.451 -0.3055  0.3453  0.3481
24280SOL     OW74260   8.631   4.676   1.667  0.1117  0.3573  0.2775
24280SOL    HW174261   8.571   4.704   1.735 -0.7575 -0.3042 -0.1903
24280SOL    HW274262   8.619   4.739   1.596 -0.4479 -0.0962 -0.0345
24281SOL     OW74263   4.094   9.016   5.958  0.2792  0.5302  0.5911
24281SOL    HW174264   4.184   8.983   5.964  1.0255  2.5345  1.3195
24281SOL    HW274265   4.041   8.938   5.943  2.2949 -0.5630 -1.5101
24282SOL     OW74266   1.650   4.103   9.181  0.6559 -1.2433  0.4389
24282SOL    HW174267   1.658   4.195   9.204  1.8375 -1.0728 -0.5730
24282SOL    HW274268   1.738   4.067   9.193  0.4454 -1.9978 -0.1816
24283SOL     OW74269   9.067   7.223   2.252 -0.1515  1.2235 -0.2518
24283SOL    HW174270   8.973   7.234   2.266 -0.0329  1.3760  0.4555
24283SOL    HW274271   9.076   7.131   2.227 -0.4717  1.1696 -0.1834
24284SOL     OW74272   8.784   0.511   0.088  0.0543 -0.1119 -0.1652
24284SOL    HW174273   8.789   0.424   0.047 -0.0602 -0.1415 -0.1178
24284SOL    HW274274   8.783   0.572   0.015 -3.4762 -0.2643 -0.4410
24285SOL     OW74275   7.990   7.644   6.321 -0.2101 -0.5332  0.3413
24285SOL    HW174276   8.061   7.705   6.342 -0.9907  0.0404  1.4327
24285SOL    HW274277   8.026   7.557   6.342 -0.5409 -0.0867  3.2150
24286SOL     OW74278   0.840   7.071   4.048 -0.0703 -0.2438 -0.3045
24286SOL    HW174279   0.874   6.995   4.095 -0.1525 -0.4459 -0.5664
24286SOL    HW274280   0.798   7.034   3.970  1.3051  0.1719 -1.2825
24287SOL     OW74281   2.331   8.566   0.885 -0.3202 -0.3886  0.2455
24287SOL    HW174282   2.276   8.521   0.821  0.0911  0.3297 -0.6290
24287SOL    HW274283   2.276   8.572   0.963 -0.2440 -2.7751  0.5625
24288SOL     OW74284   6.893   7.145   7.105  0.6146  0.3075 -0.1612
24288SOL    HW174285   6.948   7.202   7.050  0.0470 -0.7615 -1.9197
24288SOL    HW274286   6.853   7.084   7.043 -0.8108 -0.3636  1.3602
24289SOL     OW74287   7.190   5.372   8.139 -0.2781  0.4918 -0.2124
24289SOL    HW174288   7.108   5.408   8.106 -0.3677  0.7462  0.2785
24289SOL    HW274289   7.227   5.325   8.064  0.8488  3.2679 -1.5736
24290SOL     OW74290   9.121   5.593   8.530 -0.3359 -0.0900 -0.1565
24290SOL    HW174291   9.116   5.652   8.606  2.9491 -0.4855  0.5273
24290SOL    HW274292   9.042   5.612   8.480 -0.4441  3.4566  1.0495
24291SOL     OW74293   1.505   3.335   0.378  0.3974  0.3579  0.2499
24291SOL    HW174294   1.518   3.387   0.299  0.7071  0.3470  0.2909
24291SOL    HW274295   1.526   3.245   0.351 -0.1902  0.2431  0.1646
24292SOL     OW74296   5.520   2.281   6.315 -0.0621 -0.0236  0.5733
24292SOL    HW174297   5.491   2.203   6.362  0.2261 -0.3163  0.2674
24292SOL    HW274298   5.608   2.259   6.284  0.3594  0.7293  1.1998
24293SOL     OW74299   3.606   6.237   5.359 -0.3177  0.3414 -0.1693
24293SOL    HW174300   3.680   6.182   5.382 -0.1171  0.1516 -1.2100
24293SOL    HW274301   3.639   6.327   5.368  0.0968  0.2570 -0.7751
24294SOL     OW74302   3.925   7.310   4.027 -0.3419  0.0139  0.3319
24294SOL    HW174303   3.942   7.396   4.067 -2.1765 -0.3535  2.0520
24294SOL    HW274304   3.916   7.328   3.934  2.0398  1.2356  0.2543
24295SOL     OW74305   7.751   2.583   6.453  0.3344  0.0689 -0.1715
24295SOL    HW174306   7.690   2.654   6.431 -0.0690  0.2810  1.5245
24295SOL    HW274307   7.724   2.554   6.540  0.4396 -2.2565 -0.8506
24296SOL     OW74308   4.128   8.695   6.165  0.3262 -0.1388  0.2822
24296SOL    HW174309   4.215   8.691   6.126 -0.0777 -1.0606 -0.5645
24296SOL    HW274310   4.068   8.691   6.091 -0.4820 -2.9982  0.9721
24297SOL     OW74311   0.606   7.752   4.799  0.3401  0.5073 -0.2345
24297SOL    HW174312   0.537   7.764   4.865 -0.1653 -1.8155 -0.2527
24297SOL    HW274313   0.678   7.807   4.829 -1.0250  1.9981  0.4919
24298SOL     OW74314   9.128   5.399   4.885  0.1532 -0.0163  0.0370
24298SOL    HW174315   9.140   5.339   4.811 -2.0865  1.2993 -1.5364
24298SOL    HW274316   9.034   5.395   4.903  0.4267  0.8650  1.8144
24299SOL     OW74317   7.766   6.769   2.785 -0.0413  0.4288 -0.1955
24299SOL    HW174318   7.845   6.716   2.791  1.0891  2.0175 -0.6592
24299SOL    HW274319   7.748   6.796   2.875  0.0552  0.2275 -0.1155
24300SOL     OW74320   2.115   0.925   5.681 -0.1453  0.0554  0.0301
24300SOL    HW174321   2.208   0.921   5.659  0.0968 -0.6714  1.0982
24300SOL    HW274322   2.076   0.850   5.637 -0.2244  0.3313 -0.3764
24301SOL     OW74323   0.554   3.437   0.539 -0.7413 -0.4793 -0.7235
24301SOL    HW174324   0.463   3.468   0.544 -0.0307  1.6139  0.3881
24301SOL    HW274325   0.551   3.366   0.474 -3.3852 -1.3773  0.2166
24302SOL     OW74326   7.263   6.160   3.457  0.2112 -0.0312 -0.7274
24302SOL    HW174327   7.224   6.211   3.528  2.1338 -1.2367  1.3068
24302SOL    HW274328   7.212   6.079   3.454  0.3067 -0.1002 -0.5136
24303SOL     OW74329   7.369   2.634   0.118 -0.0507 -0.0304  0.0131
24303SOL    HW174330   7.296   2.677   0.163  0.6273  0.0302  1.1031
24303SOL    HW274331   7.362   2.542   0.145 -2.6647 -1.2041 -3.8259
24304SOL     OW74332   6.590   1.842   1.002  0.6142  0.2190  0.1026
24304SOL    HW174333   6.669   1.864   1.051  0.6273 -0.9942  0.6656
24304SOL    HW274334   6.544   1.779   1.058  0.1663 -0.4843 -1.0277
24305SOL     OW74335   6.354   9.000   0.647  0.1537 -0.7318  0.3963
24305SOL    HW174336   6.377   8.966   0.561 -2.0725 -2.0727  0.2526
24305SOL    HW274337   6.379   9.093   0.644 -0.1645 -0.6785 -1.7887
24306SOL     OW74338   0.653   2.589   8.569 -0.1455 -0.1557 -0.7124
24306SOL    HW174339   0.657   2.543   8.653  1.8558  1.9765  0.4544
24306SOL    HW274340   0.560   2.605   8.555 -0.5742 -1.2245  0.6771
24307SOL     OW74341   0.120   7.164   9.147 -0.3052  0.0486 -0.4164
24307SOL    HW174342   0.150   7.073   9.149  0.0728  0.1644 -0.7250
24307SOL    HW274343   0.040   7.164   9.200  1.1284  0.0702  1.8950
24308SOL     OW74344   3.575   4.273   5.924  0.4922 -0.5659 -0.0998
24308SOL    HW174345   3.605   4.355   5.887  1.5923  0.5241  2.9134
24308SOL    HW274346   3.606   4.206   5.863  3.1028  0.9883 -0.6239
24309SOL     OW74347   5.805   2.317   8.884 -0.1238  0.1088 -0.1237
24309SOL    HW174348   5.786   2.226   8.908 -1.4248  0.3111 -0.3340
24309SOL    HW274349   5.861   2.309   8.806 -0.8476 -0.5242 -0.6010
24310SOL     OW74350   1.063   5.714   9.100 -0.0719  0.1558 -0.0313
24310SOL    HW174351   1.121   5.699   9.025 -0.2770 -0.6489 -0.0411
24310SOL    HW274352   1.108   5.780   9.153  0.6019 -0.0792 -0.3062
24311SOL     OW74353   3.284   7.918   5.385 -0.2440 -0.4445  0.8101
24311SOL    HW174354   3.264   7.937   5.293 -2.3656  0.2920  1.3596
24311SOL    HW274355   3.247   7.831   5.401  0.2850 -0.6517  0.9226
24312SOL     OW74356   4.325   1.663   4.120  0.4218 -0.2301  0.1220
24312SOL    HW174357   4.389   1.602   4.156  1.3778  0.5832 -0.1383
24312SOL    HW274358   4.294   1.713   4.195  0.3407 -0.4033  0.2034
24313SOL     OW74359   2.769   3.776   1.388 -0.2502 -0.2796 -0.1189
24313SOL    HW174360   2.771   3.748   1.297 -1.8066 -1.0661  0.0563
24313SOL    HW274361   2.712   3.853   1.388  1.4107  1.0147 -0.0919
24314SOL     OW74362   2.094   8.972   8.110 -0.2904 -0.1772  0.0083
24314SOL    HW174363   2.145   8.990   8.030 -0.7539 -0.9825 -0.4774
24314SOL    HW274364   2.008   8.947   8.077 -0.8798  0.7332  0.8113
24315SOL     OW74365   3.659   7.052   5.449 -0.6709 -0.5905  0.0846
24315SOL    HW174366   3.704   6.969   5.463 -0.0350 -0.0493  1.4762
24315SOL    HW274367   3.724   7.107   5.405 -1.0491 -0.7886 -0.7263
24316SOL     OW74368   1.122   6.084   2.001 -0.5892  0.5438 -0.5243
24316SOL    HW174369   1.130   6.089   2.096  1.1545 -0.7030 -0.5604
24316SOL    HW274370   1.158   6.167   1.970 -0.0380  0.4642 -0.1201
24317SOL     OW74371   4.989   1.391   8.959 -0.1562  0.1472  0.4373
24317SOL    HW174372   4.919   1.372   8.896 -0.6044 -0.6778  1.1656
24317SOL    HW274373   4.969   1.480   8.990 -0.6694  0.0613  0.3624
24318SOL     OW74374   1.359   4.815   2.772  0.4746 -0.0876 -0.0464
24318SOL    HW174375   1.341   4.787   2.861 -1.8427 -0.5963 -0.5961
24318SOL    HW274376   1.297   4.887   2.757  0.5115 -0.3079 -1.3712
24319SOL     OW74377   8.509   0.337   5.074 -0.0740  0.7770 -0.2591
24319SOL    HW174378   8.590   0.381   5.049  2.9144 -2.4348  2.6524
24319SOL    HW274379   8.479   0.384   5.152  1.6341 -0.4974  1.2760
24320SOL     OW74380   0.438   1.314   5.905  0.0375 -0.1775  0.0549
24320SOL    HW174381   0.494   1.390   5.922 -0.8777  0.4612  0.2581
24320SOL    HW274382   0.435   1.307   5.809  0.6684 -0.3809  0.0448
24321SOL     OW74383   6.722   7.119   4.019  0.4784 -0.7989  0.6493
24321SOL    HW174384   6.673   7.191   4.059  3.4222  1.4294  0.6130
24321SOL    HW274385   6.688   7.112   3.930 -0.3427  0.0819  0.8869
24322SOL     OW74386   4.012   6.551   4.569  0.2812  0.5296  0.3543
24322SOL    HW174387   4.053   6.539   4.654  0.3182  0.8122  0.3792
24322SOL    HW274388   3.966   6.469   4.551  0.3205  0.4509  0.6202
24323SOL     OW74389   4.117   6.298   5.586 -0.5684  0.2800  0.4554
24323SOL    HW174390   4.137   6.284   5.678  1.8370 -2.1239 -0.2975
24323SOL    HW274391   4.045   6.239   5.567  0.9311 -1.5527  0.2070
24324SOL     OW74392   7.097   5.419   5.143  0.0547 -0.6295 -0.0624
24324SOL    HW174393   7.040   5.480   5.096 -0.1134 -0.4482  0.3705
24324SOL    HW274394   7.074   5.333   5.109 -0.4179 -0.5480  0.0460
24325SOL     OW74395   1.439   2.950   9.091  0.7652  0.2905  0.5154
24325SOL    HW174396   1.397   3.002   9.023 -0.0976 -0.6409  0.3060
24325SOL    HW274397   1.366   2.914   9.143  1.1928 -1.9865 -0.3148
24326SOL     OW74398   8.426   4.511   6.840  0.0375 -0.5076  0.1920
24326SOL    HW174399   8.422   4.428   6.792  1.2712 -0.5490  0.1315
24326SOL    HW274400   8.515   4.515   6.874  0.8603  1.9489 -1.9289
24327SOL     OW74401   4.479   6.513   1.116  0.3926 -0.4616  0.4533
24327SOL    HW174402   4.437   6.595   1.091 -1.7785 -0.7428  2.7778
24327SOL    HW274403   4.411   6.447   1.102  0.2983 -1.0872  3.3111
24328SOL     OW74404   5.063   5.792   6.155 -0.5405  0.5263  0.2470
24328SOL    HW174405   4.982   5.767   6.199  0.0390 -1.7013  0.1730
24328SOL    HW274406   5.118   5.714   6.160  1.6119  1.9559  0.2682
24329SOL     OW74407   6.326   7.474   0.922  0.3893  0.9868 -0.4135
24329SOL    HW174408   6.294   7.549   0.871  0.6548  1.5977  0.2951
24329SOL    HW274409   6.340   7.509   1.010  0.7782  0.1629 -0.1339
24330SOL     OW74410   0.682   1.010   9.244  0.1639  0.4953 -0.6048
24330SOL    HW174411   0.679   1.088   9.299 -0.9764  0.5737 -0.7478
24330SOL    HW274412   0.748   1.030   9.177 -0.8573  1.7852 -1.2765
24331SOL     OW74413   1.682   7.013   5.953  0.4311 -0.2762  0.1932
24331SOL    HW174414   1.594   6.994   5.986  0.5743 -1.0674  0.1295
24331SOL    HW274415   1.680   7.107   5.934  0.1017  0.0619  1.7179
24332SOL     OW74416   5.258   8.255   7.962 -0.5284  0.3264  0.0028
24332SOL    HW174417   5.295   8.208   7.888 -0.6554  2.2243 -1.3592
24332SOL    HW274418   5.333   8.289   8.010 -0.4300  1.0380 -0.6252
24333SOL     OW74419   5.335   5.375   1.996 -0.6561  0.0305 -0.4014
24333SOL    HW174420   5.280   5.302   1.968 -0.8271 -0.1980  0.5177
24333SOL    HW274421   5.273   5.446   2.012 -0.6297 -0.0520  0.0718
24334SOL     OW74422   0.295   4.625   4.260  0.1217 -0.0982  0.3989
24334SOL    HW174423   0.252   4.634   4.175 -1.6844 -1.5216  1.0923
24334SOL    HW274424   0.327   4.535   4.261 -0.2039 -0.2135  1.3538
24335SOL     OW74425   1.096   8.001   4.018  0.3055  0.0599 -0.4622
24335SOL    HW174426   1.115   7.908   4.004 -0.4960 -0.1349 -0.3232
24335SOL    HW274427   1.164   8.048   3.969  0.0536 -0.5989 -1.4555
24336SOL     OW74428   9.224   7.710   4.946  0.3051  0.4128 -0.0143
24336SOL    HW174429   9.273   7.628   4.956  0.7308  0.7575  0.8613
24336SOL    HW274430   9.154   7.703   5.011 -0.6389  0.0569 -1.0483
24337SOL     OW74431   7.175   8.637   9.149  0.0191 -0.3797  0.1070
24337SOL    HW174432   7.167   8.542   9.162  0.7323 -0.2078  2.2174
24337SOL    HW274433   7.085   8.669   9.149 -0.1709 -0.8499  1.5034
24338SOL     OW74434   3.091   6.290   3.061 -0.0998  0.2289 -0.1681
24338SOL    HW174435   3.085   6.228   2.989 -0.6897 -0.9672  0.8552
24338SOL    HW274436   3.069   6.374   3.023 -0.7530 -0.4324 -1.2977
24339SOL     OW74437   4.734   2.735   6.137  0.7145 -0.1164 -0.3807
24339SOL    HW174438   4.822   2.717   6.105  1.1418  0.7986  0.2492
24339SOL    HW274439   4.713   2.822   6.103 -0.0640 -0.4350 -0.7550
24340SOL     OW74440   5.676   5.329   7.325  0.8034  0.0233  0.0508
24340SOL    HW174441   5.746   5.394   7.330 -0.3427  1.2683  0.8075
24340SOL    HW274442   5.655   5.310   7.417  0.0429 -0.1958 -0.1628
24341SOL     OW74443   7.340   2.553   0.786 -0.2101 -0.7261 -0.0423
24341SOL    HW174444   7.415   2.583   0.837  0.9781 -4.6233  0.8074
24341SOL    HW274445   7.264   2.574   0.840  0.6837 -0.9441  1.3525
24342SOL     OW74446   7.519   4.293   2.936 -0.3126 -0.3976  0.1512
24342SOL    HW174447   7.439   4.271   2.889 -0.9748  0.7651  0.6988
24342SOL    HW274448   7.508   4.253   3.022 -0.5517  0.1837  0.4006
24343SOL     OW74449   6.222   6.955   2.175 -0.1034 -0.2373  0.3024
24343SOL    HW174450   6.226   6.921   2.265  0.7877 -1.5449 -0.2020
24343SOL    HW274451   6.313   6.968   2.150 -0.3473  0.1800 -0.3951
24344SOL     OW74452   6.707   6.533   5.764 -0.2953  0.1225  0.3944
24344SOL    HW174453   6.765   6.606   5.745 -0.4264  0.0930 -0.1312
24344SOL    HW274454   6.689   6.493   5.678 -0.8650 -0.0370  0.5812
24345SOL     OW74455   0.305   2.700   0.765  0.6425 -0.7105 -0.0078
24345SOL    HW174456   0.318   2.623   0.820 -1.2787  0.3296  2.0760
24345SOL    HW274457   0.212   2.723   0.777  1.0774  1.7456 -0.7418
24346SOL     OW74458   8.247   6.063   7.795  0.1565 -0.1443  0.6783
24346SOL    HW174459   8.308   5.989   7.785  0.2534 -0.0489  0.5679
24346SOL    HW274460   8.161   6.025   7.777  0.3567  0.1183 -1.0438
24347SOL     OW74461   4.239   0.846   8.229  0.2361  0.0271 -1.2841
24347SOL    HW174462   4.315   0.904   8.221  0.9104 -0.6448 -0.1179
24347SOL    HW274463   4.254   0.779   8.163  0.7448 -0.1788 -0.9678
24348SOL     OW74464   5.710   2.936   7.803 -0.1949  0.2656  0.0647
24348SOL    HW174465   5.628   2.888   7.803  0.9703 -1.8675 -0.9281
24348SOL    HW274466   5.723   2.962   7.712  0.5839 -0.0783  0.0662
24349SOL     OW74467   7.593   4.687   6.960 -0.0995  0.5868 -0.1193
24349SOL    HW174468   7.674   4.684   7.012 -0.5589  0.5481  0.6154
24349SOL    HW274469   7.620   4.716   6.874  0.7284  0.4000  0.0718
24350SOL     OW74470   3.558   5.019   2.681 -0.2646  0.4898  0.5622
24350SOL    HW174471   3.608   5.077   2.624  0.0494 -0.3029  0.0148
24350SOL    HW274472   3.470   5.056   2.682  0.0269  1.2089  0.5574
24351SOL     OW74473   4.799   1.237   2.447  0.0065 -0.2480  0.0994
24351SOL    HW174474   4.850   1.262   2.369  1.1912  1.0039  1.2214
24351SOL    HW274475   4.864   1.226   2.516 -1.2316  2.7327  1.9378
24352SOL     OW74476   8.401   2.782   5.255  0.2568 -0.2459 -0.0616
24352SOL    HW174477   8.363   2.867   5.281  1.0421 -0.8534  3.7180
24352SOL    HW274478   8.364   2.720   5.318  1.0241 -2.4441 -1.6751
24353SOL     OW74479   1.669   7.320   8.861  0.0755  0.3003  0.3513
24353SOL    HW174480   1.649   7.269   8.940 -0.4392  0.3063  0.2232
24353SOL    HW274481   1.587   7.325   8.814  0.0625  1.4509  0.4709
24354SOL     OW74482   2.094   7.755   6.514  0.6416  0.4167  0.4540
24354SOL    HW174483   2.047   7.673   6.528  2.6767 -0.6080  1.7641
24354SOL    HW274484   2.063   7.787   6.429 -0.2567 -1.6509 -0.0451
24355SOL     OW74485   2.612   0.693   8.185 -0.2126 -0.0272 -0.0649
24355SOL    HW174486   2.539   0.678   8.125 -1.0624 -0.0008  0.9333
24355SOL    HW274487   2.610   0.619   8.245 -0.2319  0.6200  0.7544
24356SOL     OW74488   1.518   3.413   3.150  0.3138  0.3191  0.2053
24356SOL    HW174489   1.612   3.427   3.144  0.3422  0.3146  0.6095
24356SOL    HW274490   1.495   3.368   3.069  0.7098  0.0350  0.2467
24357SOL     OW74491   2.683   8.486   6.638 -0.2733  0.4529 -0.5014
24357SOL    HW174492   2.679   8.435   6.557 -2.0260  0.2806 -0.3564
24357SOL    HW274493   2.591   8.501   6.661  0.1792  0.4712  1.4825
24358SOL     OW74494   9.273   7.580   5.660  0.4045  0.0522 -0.1164
24358SOL    HW174495   9.193   7.563   5.710 -0.3851  2.0684 -0.6164
24358SOL    HW274496   9.283   7.502   5.604 -0.8916 -0.4651  0.3376
24359SOL     OW74497   1.509   5.066   7.256  0.0084  0.1204 -0.0082
24359SOL    HW174498   1.523   5.158   7.237 -1.0937  0.1214 -0.9890
24359SOL    HW274499   1.586   5.038   7.305 -0.2068  1.8552  1.4103
24360SOL     OW74500   3.460   1.457   1.154 -0.2876  0.0734  0.4471
24360SOL    HW174501   3.520   1.502   1.214 -0.2446 -2.0775  2.1438
24360SOL    HW274502   3.433   1.525   1.092 -0.3143  2.4652  2.8657
24361SOL     OW74503   0.510   0.569   5.990  0.0316 -0.1583 -0.9037
24361SOL    HW174504   0.441   0.609   5.938 -1.8661 -2.7270 -0.5532
24361SOL    HW274505   0.569   0.530   5.926  0.6324  1.1607 -1.1815
24362SOL     OW74506   2.754   7.229   2.887 -0.4015  0.3375 -0.4617
24362SOL    HW174507   2.796   7.154   2.844 -1.5656 -1.1910  0.9569
24362SOL    HW274508   2.827   7.279   2.923  0.3555 -0.7771 -0.3802
24363SOL     OW74509   1.115   7.332   0.672 -0.3120  0.3603 -0.1856
24363SOL    HW174510   1.134   7.263   0.609 -0.3807 -1.0362  1.2829
24363SOL    HW274511   1.180   7.400   0.654 -1.0933  0.5827 -2.5510
24364SOL     OW74512   3.510   3.843   2.315  0.1523 -0.2609 -0.6750
24364SOL    HW174513   3.514   3.935   2.289  1.5811 -0.1185 -0.0663
24364SOL    HW274514   3.588   3.830   2.369 -0.9075 -1.3941  0.6827
24365SOL     OW74515   6.746   8.229   5.852  0.2156 -0.0255  0.2589
24365SOL    HW174516   6.704   8.217   5.767 -0.1905 -0.3836  0.5058
24365SOL    HW274517   6.675   8.253   5.911  0.7695  2.2614  0.0992
24366SOL     OW74518   8.839   4.739   9.103  0.3906 -0.5195 -0.4336
24366SOL    HW174519   8.822   4.777   9.016  0.6773 -2.3967 -1.3592
24366SOL    HW274520   8.774   4.669   9.111  1.5055 -1.5289  0.0779
24367SOL     OW74521   0.978   7.945   8.474  0.0585  0.5085  0.1156
24367SOL    HW174522   0.918   7.883   8.516  1.0160  0.1742  1.0552
24367SOL    HW274523   0.922   8.017   8.445 -1.2414 -1.2159 -1.9322
24368SOL     OW74524   3.603   4.392   1.983  0.3281 -0.2282  0.3061
24368SOL    HW174525   3.564   4.321   1.932  1.2357 -0.6496  0.1816
24368SOL    HW274526   3.528   4.445   2.011 -0.3236 -0.9906  0.0425
24369SOL     OW74527   6.841   8.745   2.989 -0.3667 -0.3185  0.0020
24369SOL    HW174528   6.816   8.830   2.953 -2.4655 -1.1197 -0.5860
24369SOL    HW274529   6.763   8.714   3.035 -0.0013 -2.3330 -0.5969
24370SOL     OW74530   8.418   8.680   0.479  0.5747  0.1265 -0.1914
24370SOL    HW174531   8.466   8.606   0.516 -1.7013 -1.9881 -1.2776
24370SOL    HW274532   8.352   8.641   0.422 -0.8791  2.9888 -0.6456
24371SOL     OW74533   7.716   0.158   1.735  0.8638 -0.1228 -0.4486
24371SOL    HW174534   7.689   0.241   1.775 -0.4468 -1.0515  0.6767
24371SOL    HW274535   7.670   0.156   1.651 -0.0299 -0.2395  0.0414
24372SOL     OW74536   3.357   4.867   8.953  0.1239  0.2385  0.5352
24372SOL    HW174537   3.435   4.879   9.006  0.6992  1.8190 -0.5999
24372SOL    HW274538   3.312   4.791   8.992  1.8555 -0.2723  1.6136
24373SOL     OW74539   7.224   3.178   0.526  0.1409 -0.2273  0.3671
24373SOL    HW174540   7.214   3.157   0.433 -0.7332 -2.5140  0.9054
24373SOL    HW274541   7.201   3.271   0.532  1.2324  0.2634 -1.8176
24374SOL     OW74542   0.552   4.963   1.409  0.1797 -0.1208  0.4737
24374SOL    HW174543   0.533   5.022   1.483 -1.4300  0.8470 -0.6519
24374SOL    HW274544   0.510   4.881   1.433  1.9599 -0.7147  1.8011
24375SOL     OW74545   3.156   4.438   3.992 -0.3238 -0.3168  0.4654
24375SOL    HW174546   3.156   4.344   3.972 -2.5461 -0.0515 -1.1813
24375SOL    HW274547   3.248   4.462   3.993  0.2446 -2.1545 -1.0933
24376SOL     OW74548   5.939   0.581   5.514 -0.4187  0.3011 -0.2417
24376SOL    HW174549   5.956   0.541   5.428 -2.3991  0.2511 -0.6456
24376SOL    HW274550   5.900   0.666   5.494 -2.4518 -0.3879  0.5434
24377SOL     OW74551   1.770   2.720   2.106 -0.8361 -0.9259  0.3386
24377SOL    HW174552   1.722   2.797   2.077  1.8193  0.6206 -0.2629
24377SOL    HW274553   1.770   2.662   2.029 -0.1584 -0.1116 -0.2895
24378SOL     OW74554   1.629   7.218   5.537  0.5591 -0.4692  0.1454
24378SOL    HW174555   1.633   7.189   5.446 -0.8980 -0.8661  0.1893
24378SOL    HW274556   1.707   7.272   5.548  0.9474 -0.7086 -1.2273
24379SOL     OW74557   6.043   7.093   4.891 -0.3291  0.6119  0.7140
24379SOL    HW174558   6.049   7.157   4.820 -0.0192 -0.9308 -0.7191
24379SOL    HW274559   6.113   7.119   4.952  1.7852  0.0000 -1.2862
24380SOL     OW74560   1.350   6.043   5.131  0.0610 -0.2101 -0.3714
24380SOL    HW174561   1.287   6.011   5.194 -0.3032  1.0535 -0.0574
24380SOL    HW274562   1.340   5.986   5.055 -1.0680 -0.3728 -0.1130
24381SOL     OW74563   0.859   0.764   8.477  0.4585 -0.1353  0.0633
24381SOL    HW174564   0.951   0.783   8.461 -0.1119  0.9814 -2.2227
24381SOL    HW274565   0.813   0.796   8.399 -1.5306 -3.6015 -0.4110
24382SOL     OW74566   6.936   8.434   8.411 -0.0301  0.2180  0.0305
24382SOL    HW174567   6.932   8.351   8.363 -3.0430 -0.4686  1.2164
24382SOL    HW274568   7.018   8.430   8.459  0.4352 -1.5527 -0.8254
24383SOL     OW74569   1.287   7.537   2.185 -0.1658  0.3401 -0.1576
24383SOL    HW174570   1.370   7.497   2.160  0.8821  1.1980  1.7520
24383SOL    HW274571   1.302   7.631   2.176 -0.1867  0.6242  2.1320
24384SOL     OW74572   5.495   7.343   1.222  0.1492 -0.2062 -0.3333
24384SOL    HW174573   5.577   7.333   1.175  0.0802 -1.9740 -0.1723
24384SOL    HW274574   5.455   7.422   1.186  2.1306  0.9831 -0.0333
24385SOL     OW74575   3.939   5.548   4.124  0.0559 -0.7000 -0.2049
24385SOL    HW174576   3.994   5.579   4.052  1.4682 -0.5142  0.9112
24385SOL    HW274577   3.903   5.628   4.162 -0.5607 -0.7884 -0.5908
24386SOL     OW74578   3.288   7.412   1.954  0.2564 -0.1975  0.1418
24386SOL    HW174579   3.358   7.359   1.915  0.1760  0.7788 -1.3930
24386SOL    HW274580   3.333   7.468   2.017  0.7273 -0.2077 -0.1832
24387SOL     OW74581   6.072   0.846   3.425 -0.0977 -0.1213 -0.1966
24387SOL    HW174582   6.119   0.769   3.457 -0.9520 -0.8566 -0.6581
24387SOL    HW274583   6.139   0.913   3.414  1.0042 -1.4370 -1.7611
24388SOL     OW74584   8.963   7.337   7.991 -0.0479 -0.5296 -0.4441
24388SOL    HW174585   8.887   7.299   8.034  0.1833  0.2622  0.7114
24388SOL    HW274586   8.935   7.350   7.900 -1.1475 -0.6184 -0.1309
24389SOL     OW74587   3.643   5.519   6.237 -0.4692 -0.6518 -0.3863
24389SOL    HW174588   3.620   5.571   6.315 -4.9472 -3.8386  0.7818
24389SOL    HW274589   3.633   5.580   6.164 -0.7889  1.2716  1.1709
24390SOL     OW74590   3.322   6.005   2.717  0.1172  0.1332 -0.5525
24390SOL    HW174591   3.390   6.003   2.785  0.7260  2.9155 -0.9550
24390SOL    HW274592   3.261   5.935   2.742  2.0297 -1.1081  0.9709
24391SOL     OW74593   2.067   0.717   8.709  0.1753  0.7835  0.0515
24391SOL    HW174594   2.158   0.689   8.717 -0.3111 -1.1602 -0.6240
24391SOL    HW274595   2.060   0.751   8.620  0.6706  2.8051  0.7420
24392SOL     OW74596   7.472   7.951   7.560 -0.2927  0.0402  0.3063
24392SOL    HW174597   7.467   7.902   7.642  0.5696 -0.6998 -0.0757
24392SOL    HW274598   7.456   7.886   7.492 -0.8558  0.6212 -0.1312
24393SOL     OW74599   0.594   8.938   5.756  0.1671  0.6924  0.2398
24393SOL    HW174600   0.551   8.950   5.671 -0.3422 -1.3633  0.1528
24393SOL    HW274601   0.528   8.965   5.820 -0.0511  0.6969  0.0157
24394SOL     OW74602   3.483   3.635   8.420  0.3840  0.0257 -0.1042
24394SOL    HW174603   3.404   3.600   8.379 -1.1811  0.1350  2.5996
24394SOL    HW274604   3.523   3.560   8.464  1.0393  0.2481 -0.3020
24395SOL     OW74605   8.073   8.617   3.469 -0.3154  0.4315  0.2307
24395SOL    HW174606   8.096   8.659   3.386  1.4426 -1.2004 -0.1759
24395SOL    HW274607   7.986   8.581   3.455 -0.7233  1.5816 -0.3152
24396SOL     OW74608   0.713   6.761   2.212 -0.4619  0.2216 -0.0673
24396SOL    HW174609   0.772   6.753   2.137  0.3392  2.0405  0.3254
24396SOL    HW274610   0.696   6.670   2.238  0.7419 -0.3939 -1.2908
24397SOL     OW74611   0.526   9.023   7.297  0.0137  0.1608 -0.2650
24397SOL    HW174612   0.616   8.993   7.310  0.2062  1.3288  1.5570
24397SOL    HW274613   0.536   9.110   7.257 -0.2296  0.6250  0.6397
24398SOL     OW74614   8.823   5.520   3.555  0.1336  0.0653 -0.1265
24398SOL    HW174615   8.794   5.600   3.512  0.5288 -0.2478 -0.9914
24398SOL    HW274616   8.919   5.528   3.559  0.3193 -1.0472 -1.6446
24399SOL     OW74617   2.489   7.050   5.588  0.2513 -0.2987  0.4922
24399SOL    HW174618   2.468   7.111   5.659  0.4198  0.8906 -0.4344
24399SOL    HW274619   2.553   7.098   5.535  0.6656 -1.4494 -0.0705
24400SOL     OW74620   2.982   3.655   4.527  0.4121 -0.3276  0.6114
24400SOL    HW174621   2.981   3.686   4.617  0.7788  1.3538  0.0790
24400SOL    HW274622   3.075   3.654   4.503  0.3026 -0.5761  0.1916
24401SOL     OW74623   8.589   2.205   6.671 -0.2346  0.2842 -0.1992
24401SOL    HW174624   8.612   2.238   6.758  3.9087  1.7135 -1.6066
24401SOL    HW274625   8.618   2.114   6.672  0.1977  0.4191 -0.1876
24402SOL     OW74626   6.567   7.177   7.003 -0.4236  0.5313 -0.2298
24402SOL    HW174627   6.512   7.252   6.982 -0.7502  1.2174  2.5625
24402SOL    HW274628   6.631   7.212   7.066  1.5531 -0.8356 -1.3971
24403SOL     OW74629   4.509   1.648   0.067  0.4286  0.3824  0.1072
24403SOL    HW174630   4.538   1.686   0.149 -2.2496  2.2355  0.3071
24403SOL    HW274631   4.414   1.645   0.073  0.1731 -0.2820 -2.5708
24404SOL     OW74632   3.305   1.092   7.644  0.3473 -0.3556 -0.3886
24404SOL    HW174633   3.366   1.166   7.650  0.9241 -0.9139  1.5488
24404SOL    HW274634   3.247   1.115   7.572  1.2822  1.4047 -0.6490
24405SOL     OW74635   3.068   4.626   1.131  0.0508  0.0491  0.6063
24405SOL    HW174636   3.029   4.705   1.169  0.4876  0.5928 -0.0599
24405SOL    HW274637   3.053   4.558   1.197 -0.9471  0.5223  0.8866
24406SOL     OW74638   7.303   1.136   1.617 -0.0897  0.8023  0.3941
24406SOL    HW174639   7.337   1.196   1.683  0.0925  0.8233  0.2802
24406SOL    HW274640   7.299   1.189   1.537 -0.2653  0.7629  0.3755
24407SOL     OW74641   2.072   8.131   5.564  0.0586  0.0695 -0.4656
24407SOL    HW174642   1.997   8.076   5.542 -0.2488  0.4626 -0.4096
24407SOL    HW274643   2.038   8.195   5.627  0.2508  0.7527 -1.0498
24408SOL     OW74644   9.114   7.464   5.341 -0.5462  0.5706  0.2628
24408SOL    HW174645   9.184   7.429   5.396  0.8420 -2.0212 -2.8144
24408SOL    HW274646   9.037   7.414   5.364 -0.3446  0.5019  0.8002
24409SOL     OW74647   2.755   9.143   3.686  0.5469 -0.5829  0.3775
24409SOL    HW174648   2.707   9.193   3.752 -0.0452  1.5712 -1.5551
24409SOL    HW274649   2.847   9.151   3.711  0.4450  1.3510  0.2640
24410SOL     OW74650   2.736   5.976   6.520 -0.2433  0.3276  0.1279
24410SOL    HW174651   2.731   6.054   6.464 -0.0599  0.8395  0.8121
24410SOL    HW274652   2.645   5.959   6.545 -0.2013  0.8082  0.6256
24411SOL     OW74653   1.546   2.105   3.321 -0.4223  0.4592 -0.3542
24411SOL    HW174654   1.614   2.153   3.273 -0.0366 -1.2551 -1.6486
24411SOL    HW274655   1.527   2.030   3.265 -1.5578 -0.4611  1.1992
24412SOL     OW74656   7.691   3.295   2.516 -0.1464  0.1218  0.8914
24412SOL    HW174657   7.740   3.374   2.492 -0.5001  0.4890  1.3512
24412SOL    HW274658   7.750   3.246   2.572 -0.0039  0.1690  0.7826
24413SOL     OW74659   6.680   4.789   6.270  0.2441 -0.1528  0.3296
24413SOL    HW174660   6.772   4.782   6.298  0.4804  0.6957 -0.1880
24413SOL    HW274661   6.683   4.774   6.175 -0.1167  0.0757  0.2797
24414SOL     OW74662   3.017   2.501   4.474 -0.6792 -0.2213  0.0558
24414SOL    HW174663   2.958   2.442   4.522 -0.6608  0.8812  1.5015
24414SOL    HW274664   3.100   2.453   4.470 -1.3562 -1.3724 -1.1322
24415SOL     OW74665   1.631   2.262   4.532 -0.4602 -0.1183 -0.3461
24415SOL    HW174666   1.721   2.279   4.560 -0.4991  0.1753 -0.4014
24415SOL    HW274667   1.598   2.199   4.596 -0.6623  0.8091  0.4780
24416SOL     OW74668   6.275   4.638   5.012 -0.2886 -0.6117  0.1317
24416SOL    HW174669   6.356   4.615   5.058 -1.0572 -0.8614  1.4185
24416SOL    HW274670   6.286   4.730   4.989  0.4890 -0.7284  0.0115
24417SOL     OW74671   7.711   3.839   2.030  0.1196  0.4435 -0.0841
24417SOL    HW174672   7.768   3.821   2.105  1.7543  1.6972 -0.9515
24417SOL    HW274673   7.744   3.780   1.961 -0.1592  0.6017 -0.3523
24418SOL     OW74674   2.476   4.176   9.031 -0.6780 -0.6941 -0.5127
24418SOL    HW174675   2.449   4.214   8.947 -0.7054  0.4382 -0.0181
24418SOL    HW274676   2.571   4.174   9.027 -0.4285  2.5149  0.6523
24419SOL     OW74677   0.942   8.638   2.412  0.3956 -0.0567 -0.1701
24419SOL    HW174678   0.995   8.678   2.481 -0.2998 -0.0278  0.3591
24419SOL    HW274679   0.911   8.712   2.360 -0.1663  0.0307  0.2823
24420SOL     OW74680   7.919   1.840   0.239  0.2479  0.0414 -0.8383
24420SOL    HW174681   7.959   1.772   0.294  1.4492 -0.1581 -1.8841
24420SOL    HW274682   7.926   1.920   0.290  0.1658 -0.3636 -0.1833
24421SOL     OW74683   6.902   6.419   1.919  0.4492  0.0183  0.2928
24421SOL    HW174684   6.991   6.438   1.888  1.0292 -0.0244  1.8417
24421SOL    HW274685   6.908   6.428   2.014 -0.8924 -1.3146  0.5273
24422SOL     OW74686   0.226   7.009   4.450 -0.1475 -0.2808  0.3638
24422SOL    HW174687   0.213   6.945   4.521  0.6930 -0.0030  0.7733
24422SOL    HW274688   0.279   7.078   4.489 -2.7280  1.7481  0.5579
24423SOL     OW74689   4.555   9.032   2.558  0.0898 -0.1597  0.0796
24423SOL    HW174690   4.516   9.117   2.581  0.9087  0.3818 -0.5164
24423SOL    HW274691   4.619   9.016   2.627 -0.2270 -0.4198  0.3214
24424SOL     OW74692   3.035   3.194   7.268  0.4131 -0.1155 -0.0210
24424SOL    HW174693   3.038   3.274   7.215 -0.8918 -0.0486 -0.0301
24424SOL    HW274694   3.099   3.208   7.337  1.2793  0.3015 -0.8961
24425SOL     OW74695   3.446   4.484   0.079 -0.3638  0.0601  0.0628
24425SOL    HW174696   3.406   4.487  -0.008  0.4523  2.4685 -0.3050
24425SOL    HW274697   3.514   4.417   0.073 -0.5747 -0.0643 -1.0314
24426SOL     OW74698   7.850   2.308   0.578 -0.2968  0.0103 -0.0978
24426SOL    HW174699   7.800   2.352   0.647 -2.9852 -1.0858 -1.1818
24426SOL    HW274700   7.898   2.379   0.535 -1.3795  1.2839  0.6854
24427SOL     OW74701   0.423   4.826   4.636 -0.0242 -0.5558  0.2496
24427SOL    HW174702   0.423   4.879   4.556 -0.4686  1.7656  1.6673
24427SOL    HW274703   0.504   4.776   4.631 -0.9014 -1.8999 -2.4556
24428SOL     OW74704   5.999   7.028   3.871  0.3657  0.3788  0.2240
24428SOL    HW174705   5.931   7.043   3.805  1.0732 -0.1724 -0.6712
24428SOL    HW274706   5.955   6.984   3.943  0.0794 -1.6070 -1.0874
24429SOL     OW74707   2.200   5.935   1.483  0.1017  0.5319 -0.2286
24429SOL    HW174708   2.119   5.891   1.459  1.2943 -0.7563 -2.1519
24429SOL    HW274709   2.251   5.868   1.529  0.1701  1.2821  0.8245
24430SOL     OW74710   0.595   1.944   6.106  0.0409 -0.6118  0.1350
24430SOL    HW174711   0.596   2.025   6.055  1.1839  0.1730  1.3519
24430SOL    HW274712   0.645   1.882   6.053 -0.4458 -0.4112 -0.5860
24431SOL     OW74713   4.580   7.840   0.678 -0.5579  0.0898  0.2018
24431SOL    HW174714   4.648   7.867   0.616 -1.1972  0.1049 -0.5084
24431SOL    HW274715   4.628   7.797   0.749  0.1044 -1.0965 -0.9227
24432SOL     OW74716   6.065   8.512   8.078 -0.7076  0.1070 -0.5816
24432SOL    HW174717   6.106   8.426   8.080 -3.2771 -1.2546 -1.4054
24432SOL    HW274718   5.974   8.495   8.103 -0.6845  3.0650  2.2339
24433SOL     OW74719   2.003   5.109   7.724  0.0866  0.2829 -0.2283
24433SOL    HW174720   2.059   5.066   7.659  0.1909 -0.9396  0.6350
24433SOL    HW274721   1.926   5.137   7.675  1.0619  1.2385 -1.2701
24434SOL     OW74722   8.571   6.854   0.917  0.7091 -0.4366 -0.2955
24434SOL    HW174723   8.629   6.837   0.991 -1.3918 -0.4692  1.4326
24434SOL    HW274724   8.565   6.770   0.872  1.2649 -0.6726  0.0668
24435SOL     OW74725   8.359   6.779   7.217 -0.1439 -0.3657 -0.4844
24435SOL    HW174726   8.296   6.834   7.170 -0.0215 -1.0086 -1.4319
24435SOL    HW274727   8.342   6.797   7.309 -1.6807 -0.4793 -0.7135
24436SOL     OW74728   9.115   4.380   5.381  0.1226 -0.2682 -0.4099
24436SOL    HW174729   9.051   4.439   5.341  0.5653  0.1843 -0.4591
24436SOL    HW274730   9.106   4.298   5.332 -0.9879 -0.4829  0.1127
24437SOL     OW74731   1.289   0.300   4.919 -0.1830 -0.0896 -0.2719
24437SOL    HW174732   1.349   0.288   4.845 -0.8708 -0.9448 -0.7151
24437SOL    HW274733   1.345   0.324   4.992  0.5739  0.2130 -0.9430
24438SOL     OW74734   1.551   7.039   8.614  0.0875  0.0335 -0.1118
24438SOL    HW174735   1.630   7.089   8.595 -1.1793  2.0075 -0.4708
24438SOL    HW274736   1.479   7.101   8.603 -1.5632 -1.7429 -0.0743
24439SOL     OW74737   7.905   2.362   3.907 -0.0358  0.2904  0.6093
24439SOL    HW174738   7.876   2.423   3.976 -0.0505  1.1615 -0.1428
24439SOL    HW274739   7.992   2.393   3.883 -1.0445  1.6495 -1.5608
24440SOL     OW74740   5.912   0.998   4.896 -0.0081  0.3404 -1.1027
24440SOL    HW174741   5.923   1.086   4.932 -0.6922  0.0615 -0.1659
24440SOL    HW274742   5.872   1.011   4.811  1.4918  1.0142 -1.7502
24441SOL     OW74743   5.988   5.272   5.711  0.4228  0.3371 -0.1413
24441SOL    HW174744   5.932   5.303   5.783  2.3053 -0.1769  1.6487
24441SOL    HW274745   6.070   5.322   5.721  0.7387  0.2779 -1.9877
24442SOL     OW74746   5.064   1.106   4.258 -0.3581  0.2205  0.5349
24442SOL    HW174747   5.061   1.020   4.215 -2.3839  0.2412  0.5341
24442SOL    HW274748   5.078   1.168   4.187 -1.9576  0.1033  0.0601
24443SOL     OW74749   1.660   5.554   6.100  0.4277  0.1030 -0.8418
24443SOL    HW174750   1.590   5.529   6.040 -0.5021  0.2862  0.1476
24443SOL    HW274751   1.686   5.472   6.142  0.4727  0.1142 -0.8467
24444SOL     OW74752   5.358   6.358   1.447 -0.4176 -0.1227  0.3447
24444SOL    HW174753   5.397   6.420   1.509 -0.9856  1.2128 -0.5876
24444SOL    HW274754   5.427   6.343   1.382 -1.0316  1.3682 -0.6923
24445SOL     OW74755   8.535   2.766   7.420  0.0421 -0.3673 -0.5351
24445SOL    HW174756   8.455   2.770   7.473  0.7557  3.6146  0.6508
24445SOL    HW274757   8.506   2.791   7.332 -0.3857 -1.8193 -0.8273
24446SOL     OW74758   8.630   0.173   7.042 -0.0260  0.0646  0.0753
24446SOL    HW174759   8.639   0.130   6.957 -1.2705 -1.4581  0.6777
24446SOL    HW274760   8.695   0.130   7.097  0.8205  1.0921 -0.0906
24447SOL     OW74761   4.092   6.193   6.060 -0.4494 -0.1426  0.3437
24447SOL    HW174762   4.114   6.227   6.146 -0.2532  2.7866 -0.7479
24447SOL    HW274763   3.997   6.205   6.053 -0.2354  1.3183 -0.4481
24448SOL     OW74764   5.452   8.049   5.947  0.2856  0.1155 -0.0185
24448SOL    HW174765   5.533   8.001   5.965  1.0974  0.7694 -1.7312
24448SOL    HW274766   5.416   8.007   5.868 -0.9738 -0.0381  0.6024
24449SOL     OW74767   1.171   6.609   0.433 -0.1733 -0.0821  0.0168
24449SOL    HW174768   1.184   6.575   0.345  0.5835  0.3320 -0.0378
24449SOL    HW274769   1.164   6.531   0.488 -2.5651 -0.3893 -0.6403
24450SOL     OW74770   5.729   6.593   7.400 -0.2602 -0.1273  0.7622
24450SOL    HW174771   5.719   6.674   7.449 -1.1853 -0.1629  0.6525
24450SOL    HW274772   5.674   6.530   7.447  1.1539 -0.9461  1.3783
24451SOL     OW74773   3.744   8.837   1.904 -0.5740  0.5689  0.0052
24451SOL    HW174774   3.695   8.761   1.935 -2.1929  1.0099 -1.2844
24451SOL    HW274775   3.679   8.908   1.900  0.3191  1.3784 -1.0773
24452SOL     OW74776   0.236   2.214   6.184 -0.2703  0.1018 -0.0208
24452SOL    HW174777   0.228   2.122   6.208 -1.6797 -0.0165 -0.8083
24452SOL    HW274778   0.300   2.250   6.246  0.0657 -1.3222  0.4981
24453SOL     OW74779   6.090   2.790   7.447  0.1124  0.4267 -0.2894
24453SOL    HW174780   6.123   2.783   7.358 -0.4232  0.4783 -0.4946
24453SOL    HW274781   5.995   2.784   7.438 -0.0724  2.1671  0.0941
24454SOL     OW74782   2.583   5.636   8.868 -0.1186  0.0521  0.3914
24454SOL    HW174783   2.634   5.649   8.947 -1.1454 -0.2327  1.1192
24454SOL    HW274784   2.610   5.708   8.810 -1.4994  2.1393  2.1429
24455SOL     OW74785   9.210   7.519   0.503  0.1024 -0.1486 -0.1801
24455SOL    HW174786   9.174   7.599   0.464 -0.6608 -1.4924 -2.4329
24455SOL    HW274787   9.291   7.503   0.454  1.3993  0.3531  1.7152
24456SOL     OW74788   0.850   4.852   8.398 -0.2879 -0.0818 -0.7884
24456SOL    HW174789   0.920   4.887   8.343 -0.3570 -0.2968 -1.0145
24456SOL    HW274790   0.809   4.930   8.437  1.7654 -0.0205  1.4997
24457SOL     OW74791   7.126   8.178   9.012  0.0409  0.5317 -0.2078
24457SOL    HW174792   7.166   8.132   8.938 -1.4382 -1.0300 -0.0809
24457SOL    HW274793   7.037   8.198   8.983 -0.4734  0.1251  1.0329
24458SOL     OW74794   3.417   5.498   3.493 -0.5037  0.5811  0.6754
24458SOL    HW174795   3.434   5.469   3.404 -0.9770  2.2455 -0.0159
24458SOL    HW274796   3.393   5.419   3.541 -0.5821 -0.2927 -0.7648
24459SOL     OW74797   4.147   7.059   8.173  0.3522  0.0069 -0.3307
24459SOL    HW174798   4.188   6.981   8.211  0.3854  0.0698 -0.2358
24459SOL    HW274799   4.175   7.059   8.082  0.0081 -0.3233 -0.4395
24460SOL     OW74800   6.587   4.124   0.117  0.0308 -0.9539  0.2290
24460SOL    HW174801   6.503   4.169   0.115  0.0108 -0.9488  0.9028
24460SOL    HW274802   6.565   4.032   0.130  0.1272 -0.9528  0.4066
24461SOL     OW74803   5.237   4.843   3.027 -0.2948  0.3263 -0.5970
24461SOL    HW174804   5.311   4.903   3.034 -0.3281  0.1895  1.7590
24461SOL    HW274805   5.274   4.764   2.987  1.0823 -0.0284  1.2400
24462SOL     OW74806   8.621   4.752   2.658 -0.1169  0.5911  0.8244
24462SOL    HW174807   8.593   4.719   2.744 -0.2891  0.7543  0.8324
24462SOL    HW274808   8.548   4.806   2.629  0.5623  1.8073  1.2769
24463SOL     OW74809   1.790   5.663   4.392 -0.1194 -0.6439  0.2890
24463SOL    HW174810   1.724   5.722   4.427  0.5764 -0.3303  1.1228
24463SOL    HW274811   1.751   5.576   4.400 -0.5709 -0.4321  0.4328
24464SOL     OW74812   5.942   3.145   6.598  0.4085 -0.6604 -0.1859
24464SOL    HW174813   5.903   3.202   6.531  1.4257 -0.5476 -0.7083
24464SOL    HW274814   6.037   3.154   6.585  0.6388 -3.2915 -1.0220
24465SOL     OW74815   3.964   7.455   2.264  0.0137  0.0066 -0.0431
24465SOL    HW174816   3.873   7.427   2.274  0.2060 -0.5170  0.2745
24465SOL    HW274817   3.969   7.538   2.311 -0.6417  0.7671 -1.2700
24466SOL     OW74818   1.370   7.595   5.995 -0.7466 -0.4026  0.1349
24466SOL    HW174819   1.343   7.686   6.008 -0.0953 -0.1016 -0.5612
24466SOL    HW274820   1.330   7.570   5.911  1.6837  0.2923 -1.3009
24467SOL     OW74821   1.018   5.872   8.045  0.1849  0.4849 -0.2701
24467SOL    HW174822   0.942   5.814   8.037  0.8219 -0.1851 -1.7711
24467SOL    HW274823   1.091   5.813   8.061  0.6967  0.9612 -0.8366
24468SOL     OW74824   4.856   3.009   4.381 -0.5815  0.1656 -0.5936
24468SOL    HW174825   4.894   3.076   4.324 -1.5149 -0.0775 -1.5532
24468SOL    HW274826   4.903   2.929   4.359 -1.8532 -0.2205 -2.0720
24469SOL     OW74827   1.749   8.094   0.242 -0.1583 -1.0398  0.0297
24469SOL    HW174828   1.839   8.080   0.272 -0.7071 -0.7101  1.9404
24469SOL    HW274829   1.696   8.086   0.321 -1.7121 -0.2883 -0.9006
24470SOL     OW74830   1.078   7.396   0.307 -0.2085 -0.1602  0.2955
24470SOL    HW174831   1.111   7.309   0.286  2.7447  1.1615 -1.0388
24470SOL    HW274832   1.149   7.437   0.357 -1.4787  1.5469  0.7947
24471SOL     OW74833   5.211   0.182   4.408  0.0543 -0.4106 -0.4850
24471SOL    HW174834   5.127   0.207   4.369 -0.0336  0.1096  0.0175
24471SOL    HW274835   5.198   0.196   4.502  0.2352 -1.7156 -0.2545
24472SOL     OW74836   0.991   0.825   2.424 -0.6224 -0.0403  0.1246
24472SOL    HW174837   0.952   0.879   2.355 -0.2230 -0.7500 -0.6771
24472SOL    HW274838   1.038   0.756   2.377  3.4514  1.8946  0.8921
24473SOL     OW74839   5.243   6.159   4.717  0.8454 -0.0618  0.4209
24473SOL    HW174840   5.264   6.248   4.690 -1.0739  0.1844 -0.4454
24473SOL    HW274841   5.233   6.111   4.635 -2.2984 -0.0078  0.6740
24474SOL     OW74842   0.848   1.675   8.931 -0.0707 -0.3265 -0.0797
24474SOL    HW174843   0.917   1.721   8.979  0.6902 -0.5618 -0.9227
24474SOL    HW274844   0.881   1.669   8.842 -1.3443 -0.1440 -0.5781
24475SOL     OW74845   6.132   2.658   2.770 -0.6444 -0.2745  0.1815
24475SOL    HW174846   6.067   2.600   2.730  0.7015 -1.8730  0.1920
24475SOL    HW274847   6.214   2.609   2.766  0.4926  1.4682  0.6096
24476SOL     OW74848   6.905   1.428   2.009  0.0077  0.5579 -0.3255
24476SOL    HW174849   6.991   1.397   2.040 -0.0436  0.2102 -0.5288
24476SOL    HW274850   6.924   1.472   1.926 -0.2775 -1.4427 -1.5159
24477SOL     OW74851   6.960   8.131   4.993 -0.0458  0.0680  0.3919
24477SOL    HW174852   7.033   8.192   5.009 -0.4533  0.9466 -0.9651
24477SOL    HW274853   6.885   8.172   5.036 -0.3145  0.5419 -0.5002
24478SOL     OW74854   5.293   2.574   6.300 -0.1150 -0.0941  0.0062
24478SOL    HW174855   5.312   2.578   6.393 -0.7128  1.0007  0.0958
24478SOL    HW274856   5.337   2.651   6.263 -1.6677  0.6931 -0.2645
24479SOL     OW74857   1.629   6.326   4.778 -0.2653 -0.1216  0.7874
24479SOL    HW174858   1.625   6.368   4.692  1.2791 -1.6695 -0.0848
24479SOL    HW274859   1.720   6.336   4.805 -0.3784 -1.0255  1.5325
24480SOL     OW74860   5.285   6.007   1.902  0.1333 -0.4187  0.2984
24480SOL    HW174861   5.303   5.934   1.961  0.5614 -1.9270 -1.6082
24480SOL    HW274862   5.308   6.085   1.953  2.0799 -1.7269  1.5557
24481SOL     OW74863   8.510   3.869   8.654 -0.6089  0.1649 -0.0551
24481SOL    HW174864   8.511   3.820   8.572 -3.8223  1.0394 -0.7584
24481SOL    HW274865   8.481   3.957   8.629  1.9838  1.6142  1.5810
24482SOL     OW74866   0.426   9.255   2.043  0.2441  0.5939 -0.5696
24482SOL    HW174867   0.510   9.277   2.083 -0.1029  0.4845  0.2564
24482SOL    HW274868   0.383   9.339   2.030  0.0041  0.5898  0.1230
24483SOL     OW74869   8.821   0.808   4.380 -0.3398 -0.3825  0.1738
24483SOL    HW174870   8.903   0.783   4.338  0.0260  0.9457  0.0565
24483SOL    HW274871   8.767   0.842   4.308 -1.2194 -1.7335  0.1549
24484SOL     OW74872   8.410   4.468   2.674 -0.0891 -0.1427  0.1227
24484SOL    HW174873   8.448   4.426   2.597 -0.3685  0.4884 -0.3639
24484SOL    HW274874   8.317   4.445   2.672 -0.4796  1.3585 -0.7585
24485SOL     OW74875   3.742   7.771   8.576 -0.5511  0.0077 -0.1593
24485SOL    HW174876   3.688   7.779   8.654  2.3185 -1.0055  2.0939
24485SOL    HW274877   3.744   7.677   8.557  0.2630  0.0428 -0.2924
24486SOL     OW74878   1.555   5.360   1.788  0.3672 -0.7030 -0.1153
24486SOL    HW174879   1.536   5.282   1.736 -0.5267  0.4521 -1.6160
24486SOL    HW274880   1.468   5.392   1.815  0.7156 -0.1494  0.3617
24487SOL     OW74881   2.983   7.273   3.691 -0.3328  0.2959 -0.1229
24487SOL    HW174882   2.953   7.193   3.648  0.2515 -0.7086  1.2527
24487SOL    HW274883   3.075   7.256   3.711 -0.1107  1.4532 -0.0886
24488SOL     OW74884   0.235   7.237   4.096  0.4083 -0.0647  0.0774
24488SOL    HW174885   0.320   7.281   4.095  0.6570 -0.5435  0.1071
24488SOL    HW274886   0.186   7.281   4.165 -0.2598  1.8919 -1.5448
24489SOL     OW74887   6.393   3.340   7.039  0.5852 -0.3651  0.0780
24489SOL    HW174888   6.389   3.296   7.123 -0.3412 -0.8039 -0.1843
24489SOL    HW274889   6.486   3.352   7.022  0.7764  1.4186  2.0322
24490SOL     OW74890   7.105   7.228   8.149 -0.6247  0.0809  0.0519
24490SOL    HW174891   7.169   7.175   8.197 -0.3472 -0.1773 -0.5962
24490SOL    HW274892   7.026   7.175   8.149 -0.6909  0.1748  0.4053
24491SOL     OW74893   6.348   2.935   1.324  0.0853  0.5768  0.4129
24491SOL    HW174894   6.407   2.859   1.324 -0.0886  0.4413 -0.0573
24491SOL    HW274895   6.364   2.977   1.240 -0.6832  0.3879  0.1673
24492SOL     OW74896   6.513   7.852   2.126  0.5499  0.8092 -0.0139
24492SOL    HW174897   6.587   7.885   2.075  0.2526 -0.4430 -1.3178
24492SOL    HW274898   6.554   7.817   2.206  1.6186 -1.1784 -1.3336
24493SOL     OW74899   1.329   7.793   7.705 -0.1501 -0.6552  0.0140
24493SOL    HW174900   1.416   7.758   7.685  1.1536  1.3893  1.7361
24493SOL    HW274901   1.280   7.780   7.624  2.4365  0.1163 -1.8073
24494SOL     OW74902   2.558   4.927   5.259  0.5190 -0.5936 -0.1745
24494SOL    HW174903   2.593   4.976   5.333  0.7977  0.8434 -1.2143
24494SOL    HW274904   2.627   4.931   5.193 -0.8856  0.8217 -1.6393
24495SOL     OW74905   4.517   1.029   4.777  0.3006  0.0357  0.5281
24495SOL    HW174906   4.459   1.010   4.851  0.4261 -0.6582  0.4519
24495SOL    HW274907   4.457   1.050   4.705  0.0366 -2.3050 -0.0187
24496SOL     OW74908   7.707   2.794   7.467  0.3409  0.4286  0.2354
24496SOL    HW174909   7.774   2.862   7.456  1.9272 -1.2121 -0.9096
24496SOL    HW274910   7.742   2.719   7.419 -1.1543 -1.3328  1.7622
24497SOL     OW74911   2.720   6.543   4.468  0.3474  0.3046  0.4648
24497SOL    HW174912   2.732   6.637   4.484  1.3889  0.4001 -0.7321
24497SOL    HW274913   2.702   6.538   4.374 -1.6481 -0.5490  0.8399
24498SOL     OW74914   4.754   5.491   1.220 -0.1431  0.5172 -0.0716
24498SOL    HW174915   4.793   5.550   1.155 -1.5288  3.3312  1.4628
24498SOL    HW274916   4.830   5.451   1.264  0.8291  0.4773 -1.7137
24499SOL     OW74917   2.790   2.321   5.306 -1.1138  0.5085 -0.0584
24499SOL    HW174918   2.762   2.230   5.318  1.2660 -0.3070 -0.1432
24499SOL    HW274919   2.878   2.324   5.344 -0.8770  2.6220 -0.6627
24500SOL     OW74920   3.285   3.485   1.156  0.0412  0.6909  0.4464
24500SOL    HW174921   3.190   3.494   1.158 -0.1569 -0.4531 -1.6593
24500SOL    HW274922   3.316   3.573   1.134 -0.6270  0.7340 -0.3632
24501SOL     OW74923   2.686   4.214   2.676 -0.2756  0.1951 -0.6158
24501SOL    HW174924   2.626   4.257   2.737  0.0105 -0.3312  0.0563
24501SOL    HW274925   2.743   4.161   2.732 -2.3556 -3.3069 -1.4829
24502SOL     OW74926   9.144   5.402   7.203  0.5541  0.4609  0.2532
24502SOL    HW174927   9.220   5.344   7.210 -0.3057 -0.5522  1.8155
24502SOL    HW274928   9.087   5.376   7.275 -0.9030  1.7679 -0.3620
24503SOL     OW74929   4.432   5.874   2.934 -0.0944  0.0937  0.5038
24503SOL    HW174930   4.427   5.927   2.854  2.8462 -0.4755 -0.1906
24503SOL    HW274931   4.442   5.938   3.004 -0.1097  0.5499  0.0951
24504SOL     OW74932   2.534   2.028   6.433  0.3967 -0.1183 -0.4826
24504SOL    HW174933   2.498   2.089   6.498  1.3838 -1.7203  1.7097
24504SOL    HW274934   2.629   2.033   6.445  0.5648 -0.9517 -1.3458
24505SOL     OW74935   0.975   8.029   0.257 -0.2931  0.4733 -0.1535
24505SOL    HW174936   0.884   8.029   0.226 -0.1845 -1.6012 -0.6511
24505SOL    HW274937   0.980   7.952   0.314  1.3735  0.0190 -0.8643
24506SOL     OW74938   3.687   7.910   0.543  0.0078  0.4676  0.0717
24506SOL    HW174939   3.672   7.889   0.635 -1.4953  0.8253 -0.0700
24506SOL    HW274940   3.667   7.829   0.496  1.7945 -0.0325  0.1111
24507SOL     OW74941   5.902   1.214   4.623 -0.4310 -0.3396  0.3828
24507SOL    HW174942   5.897   1.309   4.639 -1.1377 -0.8259  3.8184
24507SOL    HW274943   5.978   1.204   4.566  0.5176  2.2285  1.0258
24508SOL     OW74944   5.886   2.864   3.659  0.3390 -0.3612  0.3296
24508SOL    HW174945   5.921   2.948   3.630  1.9889 -0.9124  0.5870
24508SOL    HW274946   5.832   2.885   3.735  0.2929  0.5232  0.0552
24509SOL     OW74947   6.417   3.112   8.516 -0.0368 -0.3273 -0.1610
24509SOL    HW174948   6.452   3.075   8.435  2.5502 -1.3047  1.2858
24509SOL    HW274949   6.461   3.196   8.525  0.5920 -0.7335  0.7516
24510SOL     OW74950   7.877   0.033   0.461  0.3560 -0.5815 -0.2834
24510SOL    HW174951   7.789   0.000   0.442 -0.2064  0.4695  0.4393
24510SOL    HW274952   7.876   0.051   0.554  0.3396  2.2874 -0.7540
24511SOL     OW74953   6.561   3.975   8.392  0.1211 -0.0989 -1.1333
24511SOL    HW174954   6.641   3.933   8.424 -0.5324 -0.1137  0.5783
24511SOL    HW274955   6.587   4.066   8.375  0.6979 -0.3154 -1.4379
24512SOL     OW74956   3.937   9.053   1.735 -0.3059  0.0975 -0.5264
24512SOL    HW174957   3.901   8.970   1.705 -0.2764 -0.6717  1.4104
24512SOL    HW274958   3.994   9.029   1.808  1.5942  1.6023 -1.4324
24513SOL     OW74959   0.997   5.131   1.033 -0.2209 -0.1681 -0.2458
24513SOL    HW174960   0.944   5.075   0.977 -0.6363 -0.9326  0.8977
24513SOL    HW274961   1.006   5.083   1.115 -0.4776  1.3601  0.7237
24514SOL     OW74962   0.937   6.103   3.427 -0.6879 -0.6061  0.4751
24514SOL    HW174963   0.929   6.118   3.333 -3.5813  1.1741  0.8834
24514SOL    HW274964   0.940   6.008   3.435 -0.9312 -0.8248 -1.4062
24515SOL     OW74965   3.376   8.440   5.683  0.2664  0.4103  0.2787
24515SOL    HW174966   3.371   8.512   5.745  0.4866  2.6082 -2.0965
24515SOL    HW274967   3.403   8.481   5.600 -1.8746 -1.9965 -1.7966
24516SOL     OW74968   1.708   8.586   2.250 -0.1056  0.8006 -0.0848
24516SOL    HW174969   1.659   8.571   2.168  0.2762 -1.2522  0.0006
24516SOL    HW274970   1.664   8.530   2.314  1.1183  0.4756  0.4939
24517SOL     OW74971   5.394   3.825   7.456 -0.2667 -0.6712 -0.9154
24517SOL    HW174972   5.438   3.814   7.541 -0.7639  0.7936 -0.4350
24517SOL    HW274973   5.307   3.787   7.469 -0.1581 -0.9258 -0.9337
24518SOL     OW74974   7.599   7.504   5.513  0.2720 -0.1522  0.0393
24518SOL    HW174975   7.563   7.516   5.425  1.5084  1.6558 -0.2568
24518SOL    HW274976   7.662   7.433   5.503 -0.1221 -0.4526 -0.3672
24519SOL     OW74977   1.800   7.131   1.955  0.1181  0.1919 -0.1250
24519SOL    HW174978   1.853   7.161   1.881  0.4073 -0.9484 -0.4082
24519SOL    HW274979   1.713   7.117   1.919  0.3708 -0.8076 -0.3771
24520SOL     OW74980   1.212   0.579   5.878  0.1620  0.1289 -0.3757
24520SOL    HW174981   1.156   0.501   5.880  1.9948 -1.2528  0.0849
24520SOL    HW274982   1.244   0.583   5.788  0.3199  0.1539 -0.3183
24521SOL     OW74983   7.677   6.037   1.610  0.4344  0.4557 -0.1186
24521SOL    HW174984   7.681   6.110   1.672  2.1271 -0.1899  0.5870
24521SOL    HW274985   7.691   6.078   1.525 -0.4469  1.1657  0.0597
24522SOL     OW74986   2.968   0.664   2.848 -0.9595  0.7788 -0.2817
24522SOL    HW174987   2.931   0.739   2.803 -1.1975 -0.3217 -2.0361
24522SOL    HW274988   2.894   0.623   2.892 -0.9049  1.3035  0.3149
24523SOL     OW74989   1.458   2.785   3.886 -0.2870 -0.7197  0.1629
24523SOL    HW174990   1.380   2.822   3.844 -0.3388 -0.9601  0.0455
24523SOL    HW274991   1.454   2.816   3.976 -0.8002 -1.1628  0.2978
24524SOL     OW74992   8.877   5.019   2.001  0.1005 -0.2310  0.2777
24524SOL    HW174993   8.968   4.993   2.004  0.9310  2.2935 -0.3282
24524SOL    HW274994   8.829   4.945   2.038  2.3511 -1.6550  0.5157
24525SOL     OW74995   8.222   3.261   6.778 -0.3127 -0.2350 -0.0930
24525SOL    HW174996   8.159   3.245   6.708  0.6265  0.5116 -1.1540
24525SOL    HW274997   8.171   3.253   6.858 -1.9316  1.1053 -0.9276
24526SOL     OW74998   0.790   5.970   8.535 -0.2985  0.7167 -0.0867
24526SOL    HW174999   0.775   5.946   8.444 -0.8485  2.1351 -0.4085
24526SOL    HW275000   0.719   5.928   8.583 -0.3764  0.4744 -0.4129
24527SOL     OW75001   3.586   5.879   2.060 -0.7394  0.0258  0.0760
24527SOL    HW175002   3.666   5.856   2.013 -0.8639 -0.4957  0.1153
24527SOL    HW275003   3.615   5.942   2.126 -0.6954  1.4163 -1.2136
24528SOL     OW75004   5.939   9.048   0.653  0.5394  0.4765  0.0073
24528SOL    HW175005   5.969   8.957   0.644  1.3703  0.8063 -0.6875
24528SOL    HW275006   6.014   9.094   0.691 -0.3248  0.6365  1.6213
24529SOL     OW75007   6.060   3.444   8.197  0.1990 -0.0074  0.3521
24529SOL    HW175008   6.128   3.430   8.263 -0.0212 -1.5493  0.3047
24529SOL    HW275009   6.036   3.536   8.206  1.5035  0.2888  1.1207
24530SOL     OW75010   7.531   2.269   3.977  0.3496  0.4153  0.0100
24530SOL    HW175011   7.503   2.334   4.042  0.7809  0.2519  0.3622
24530SOL    HW275012   7.614   2.235   4.011 -0.6712 -1.5450  0.7112
24531SOL     OW75013   2.006   0.335   3.454  0.2872 -0.2160 -0.2865
24531SOL    HW175014   2.052   0.386   3.387 -1.4318  0.3686 -1.0788
24531SOL    HW275015   2.004   0.392   3.530 -1.4555  0.9068 -1.1089
24532SOL     OW75016   5.678   5.280   2.468  0.1274  0.4065  0.3677
24532SOL    HW175017   5.641   5.364   2.441 -0.2726  0.6121  1.5100
24532SOL    HW275018   5.761   5.302   2.510  0.9634  0.0527 -1.0485
24533SOL     OW75019   6.704   0.758   3.951  0.5916  0.3883  0.3357
24533SOL    HW175020   6.744   0.671   3.953  3.0045  1.4231 -0.3814
24533SOL    HW275021   6.613   0.742   3.976  0.9959 -2.3095  0.4071
24534SOL     OW75022   7.084   8.338   3.938  0.0748  0.1877 -0.2612
24534SOL    HW175023   7.086   8.256   3.889 -2.2464 -1.0545  1.5719
24534SOL    HW275024   7.171   8.344   3.977 -0.5001 -2.9701  1.8929
24535SOL     OW75025   0.303   3.707   3.078 -0.1935  0.1576 -0.0282
24535SOL    HW175026   0.271   3.639   3.019  1.4164 -0.9924  0.3432
24535SOL    HW275027   0.342   3.773   3.020 -0.2656 -0.0544 -0.3188
24536SOL     OW75028   1.426   1.154   2.986 -0.1041  0.1677 -0.3406
24536SOL    HW175029   1.458   1.204   2.911  0.8824  0.2360  0.1142
24536SOL    HW275030   1.505   1.126   3.031 -0.6856 -0.0833  0.5370
24537SOL     OW75031   8.439   1.440   2.529 -0.3538  0.3753 -0.1597
24537SOL    HW175032   8.408   1.518   2.574  1.2979  0.4759  0.8983
24537SOL    HW275033   8.535   1.443   2.537 -0.1182 -0.7364 -1.8278
24538SOL     OW75034   7.625   0.465   2.526  0.2918 -0.0325  0.8597
24538SOL    HW175035   7.606   0.541   2.472 -0.6963 -0.8732 -0.0127
24538SOL    HW275036   7.577   0.479   2.607 -4.4609 -2.0621 -1.2222
24539SOL     OW75037   1.104   0.330   6.397  0.1902  0.4743  0.1705
24539SOL    HW175038   1.081   0.288   6.480 -1.2815  0.5360 -0.1793
24539SOL    HW275039   1.166   0.270   6.356 -0.1258 -0.2278  0.7045
24540SOL     OW75040   5.051   1.912   1.766  0.1517  0.7053  0.6271
24540SOL    HW175041   5.004   1.995   1.781  1.7848  1.9601 -0.7669
24540SOL    HW275042   5.113   1.907   1.839 -0.0127  0.6681  0.7648
24541SOL     OW75043   3.318   6.258   4.694  0.4968 -0.3472 -0.5624
24541SOL    HW175044   3.228   6.240   4.720  0.4625  0.3584 -0.1423
24541SOL    HW275045   3.369   6.247   4.774  0.6995 -0.2030 -0.6688
24542SOL     OW75046   1.891   7.431   2.707 -0.3595  0.5990 -0.5534
24542SOL    HW175047   1.909   7.400   2.618 -0.6267 -1.3964  0.0389
24542SOL    HW275048   1.798   7.454   2.706 -1.1071 -2.0699 -0.1416
24543SOL     OW75049   8.727   1.793   2.508 -0.0472 -0.0353 -0.6924
24543SOL    HW175050   8.745   1.699   2.510  2.1300  0.2854  2.9647
24543SOL    HW275051   8.796   1.829   2.452  1.4637 -0.3377  0.8939
24544SOL     OW75052   0.430   8.543   5.061 -0.4927  0.0501  0.2394
24544SOL    HW175053   0.432   8.456   5.021  1.6356  0.1518 -0.0147
24544SOL    HW275054   0.424   8.603   4.986  0.0098  0.1518  0.2761
24545SOL     OW75055   8.341   4.240   1.836 -0.4893  0.1342 -0.2669
24545SOL    HW175056   8.342   4.209   1.745  0.5625  0.9091 -0.5384
24545SOL    HW275057   8.265   4.198   1.875  0.7734 -2.7447 -0.6392
24546SOL     OW75058   3.337   7.941   8.837  0.2094 -0.4242 -0.0823
24546SOL    HW175059   3.357   7.959   8.929  0.5505 -1.1253 -0.0106
24546SOL    HW275060   3.267   8.002   8.815  0.5349  0.1607  0.4715
24547SOL     OW75061   1.573   4.112   7.692 -0.0744 -0.0362 -0.0643
24547SOL    HW175062   1.546   4.072   7.775  1.2573 -1.4106 -0.2420
24547SOL    HW275063   1.520   4.191   7.685  0.4255  0.6420  2.5699
24548SOL     OW75064   0.626   6.690   6.957  0.4956  0.3451 -0.5907
24548SOL    HW175065   0.633   6.778   6.921 -0.9902  0.8953  0.3786
24548SOL    HW275066   0.715   6.670   6.988  1.0647  1.0923 -1.7001
24549SOL     OW75067   7.503   6.462   6.988 -0.2064 -0.2880  0.1498
24549SOL    HW175068   7.596   6.469   6.966 -0.7188 -1.0965 -2.7409
24549SOL    HW275069   7.500   6.399   7.060  1.4745 -0.1816  0.3571
24550SOL     OW75070   4.786   6.418   1.534 -0.0654 -0.5471  0.5628
24550SOL    HW175071   4.870   6.372   1.535  0.8708  1.1151  0.3047
24550SOL    HW275072   4.758   6.416   1.442 -0.0344 -0.5814  0.5539
24551SOL     OW75073   2.472   4.263   1.144 -0.1700 -0.3549 -0.0725
24551SOL    HW175074   2.563   4.289   1.159 -0.2033 -0.7831  0.9348
24551SOL    HW275075   2.434   4.335   1.093  0.5279  0.1828  0.1576
24552SOL     OW75076   7.138   0.010   7.708  0.2501 -0.0974  0.5723
24552SOL    HW175077   7.168   0.101   7.721 -0.0885  0.0812  0.1483
24552SOL    HW275078   7.052   0.007   7.749 -0.6472  0.3599 -1.1508
24553SOL     OW75079   9.011   7.772   4.759 -0.0517 -0.1500 -0.3751
24553SOL    HW175080   8.977   7.811   4.839  0.0094 -0.6862 -0.0855
24553SOL    HW275081   9.080   7.833   4.731  1.3400 -0.9641  1.0894
24554SOL     OW75082   4.865   1.445   1.302 -0.2371 -0.3184 -0.1103
24554SOL    HW175083   4.786   1.410   1.344 -0.0509  0.0419  0.5613
24554SOL    HW275084   4.875   1.533   1.339  0.9706 -0.6838  0.5150
24555SOL     OW75085   8.830   0.503   1.716 -0.1575  0.2800  0.1382
24555SOL    HW175086   8.753   0.544   1.753 -1.6316 -2.9814  1.0245
24555SOL    HW275087   8.799   0.460   1.636  1.6292  1.9755 -1.5821
24556SOL     OW75088   7.987   9.083   2.555  0.0693  0.0416  0.0948
24556SOL    HW175089   7.975   8.990   2.574  1.6895 -0.0646  0.7947
24556SOL    HW275090   8.076   9.089   2.521 -0.4857  1.1760 -1.2539
24557SOL     OW75091   5.918   5.442   3.875 -0.3837 -0.1975  0.0994
24557SOL    HW175092   5.853   5.470   3.811 -1.4988 -1.8235  0.4515
24557SOL    HW275093   5.997   5.490   3.852 -1.9344  2.6119  0.2632
24558SOL     OW75094   7.407   0.535   6.661  0.2849  0.5967 -0.1437
24558SOL    HW175095   7.467   0.603   6.630  2.1578 -0.9197 -0.0547
24558SOL    HW275096   7.407   0.546   6.756  0.7862  0.3306 -0.1097
24559SOL     OW75097   2.732   7.729   4.015 -0.0443 -0.7511 -0.2744
24559SOL    HW175098   2.813   7.714   3.968 -0.1182  2.8378 -1.7854
24559SOL    HW275099   2.716   7.646   4.061  4.1799 -1.7530 -0.2072
24560SOL     OW75100   8.874   3.483   0.034 -0.3123 -0.1907  0.1334
24560SOL    HW175101   8.863   3.409  -0.026  1.9551 -2.2850  2.1014
24560SOL    HW275102   8.948   3.532  -0.002  1.8231 -2.1072  1.6716
24561SOL     OW75103   3.350   7.675   7.057 -0.1255 -0.2190  0.2418
24561SOL    HW175104   3.444   7.672   7.070 -0.1549  0.1844  0.5851
24561SOL    HW275105   3.313   7.673   7.145 -0.5280 -2.3983  0.0805
24562SOL     OW75106   5.575   1.567   3.303 -0.2457 -0.2292  0.5800
24562SOL    HW175107   5.535   1.489   3.265  0.3289 -0.7257  0.9907
24562SOL    HW275108   5.579   1.549   3.397 -1.6757  0.9938  0.9269
24563SOL     OW75109   2.876   1.193   7.757 -0.0200  0.0292  0.2109
24563SOL    HW175110   2.923   1.140   7.821 -2.0132  0.2928  2.0371
24563SOL    HW275111   2.883   1.145   7.675 -1.3781 -2.9390  1.6786
24564SOL     OW75112   2.764   5.655   3.548  0.1816 -0.3538  0.4568
24564SOL    HW175113   2.687   5.656   3.605 -0.7940 -1.5394 -0.7633
24564SOL    HW275114   2.829   5.706   3.595 -1.0408 -0.0989  1.9657
24565SOL     OW75115   7.083   7.318   1.706 -0.2018  0.4353  0.0362
24565SOL    HW175116   7.062   7.339   1.797 -0.4578  2.2578 -0.3881
24565SOL    HW275117   7.151   7.381   1.683  2.1761 -2.0151 -0.1649
24566SOL     OW75118   5.435   2.961   0.243 -0.2869 -0.4972  0.3931
24566SOL    HW175119   5.482   2.998   0.168  0.0423 -2.4440 -0.4170
24566SOL    HW275120   5.424   3.035   0.303 -2.4124  1.7014 -2.4154
24567SOL     OW75121   5.121   7.878   7.194 -0.2509 -0.5657 -0.2677
24567SOL    HW175122   5.117   7.960   7.146  1.0943 -0.8209 -0.8531
24567SOL    HW275123   5.178   7.896   7.269 -0.1190 -0.8960 -0.2830
24568SOL     OW75124   7.201   5.772   2.826 -0.0258  0.6991 -0.2004
24568SOL    HW175125   7.139   5.738   2.761 -1.8528 -1.3425  2.4028
24568SOL    HW275126   7.147   5.801   2.899  1.9439  2.7497  0.5786
24569SOL     OW75127   4.901   0.711   4.569 -0.0603 -0.3238  0.3355
24569SOL    HW175128   4.947   0.794   4.554  0.2012 -0.6451 -0.6609
24569SOL    HW275129   4.870   0.684   4.483  2.4080 -2.7707  0.0790
24570SOL     OW75130   1.832   7.274   6.749  0.2845  0.4133 -0.0689
24570SOL    HW175131   1.840   7.184   6.720  2.1434  0.6747 -0.5008
24570SOL    HW275132   1.919   7.311   6.737 -0.3514  2.1801  0.4061
24571SOL     OW75133   8.890   1.055   8.064 -0.2970 -0.0477  0.0303
24571SOL    HW175134   8.797   1.054   8.085 -0.2780  1.5538  0.3237
24571SOL    HW275135   8.899   1.124   7.998  0.4642 -1.3172 -1.2498
24572SOL     OW75136   4.790   4.500   7.344  0.4466 -0.1198 -0.3900
24572SOL    HW175137   4.750   4.497   7.431 -0.4558  1.9490 -0.6688
24572SOL    HW275138   4.828   4.588   7.338  2.9656 -1.1693 -1.0853
24573SOL     OW75139   4.442   0.358   8.586  0.3379 -0.6821  0.2106
24573SOL    HW175140   4.487   0.344   8.669  0.8558  0.3716  0.1341
24573SOL    HW275141   4.485   0.435   8.548 -0.5187 -0.5671 -0.5873
24574SOL     OW75142   3.080   4.659   8.797  0.0443 -0.4280 -0.3791
24574SOL    HW175143   3.063   4.700   8.882  0.8408 -1.2441  0.1960
24574SOL    HW275144   2.994   4.651   8.757 -0.2834  0.4577  0.1219
24575SOL     OW75145   2.975   3.629   8.683 -0.1708  0.8558  0.1593
24575SOL    HW175146   2.899   3.574   8.700  0.9025 -1.1344 -1.1492
24575SOL    HW275147   3.046   3.591   8.734  0.2963  1.8599  0.2944
24576SOL     OW75148   8.126   7.443   6.692  0.1957 -0.5464  0.1243
24576SOL    HW175149   8.097   7.436   6.601  1.0963 -0.2841 -0.1997
24576SOL    HW275150   8.108   7.357   6.730 -0.2985 -0.6185 -0.2715
24577SOL     OW75151   1.127   8.843   4.300 -0.1867  0.3311 -0.3144
24577SOL    HW175152   1.174   8.801   4.373  2.0798  2.0144 -0.7106
24577SOL    HW275153   1.145   8.786   4.225  2.6422  1.6954 -0.7922
24578SOL     OW75154   6.879   1.504   8.645 -0.2478  0.2827 -0.3455
24578SOL    HW175155   6.861   1.568   8.577  1.5183  2.5596  1.1361
24578SOL    HW275156   6.953   1.541   8.693 -0.6204 -1.7841  2.0545
24579SOL     OW75157   6.077   9.037   5.401  0.0361  0.1072 -0.3448
24579SOL    HW175158   6.081   9.077   5.314 -2.7744 -0.0647 -0.6519
24579SOL    HW275159   5.984   9.040   5.425  0.1080 -3.3614  0.9874
24580SOL     OW75160   6.178   8.247   3.494 -0.1535  0.1039 -0.4228
24580SOL    HW175161   6.127   8.326   3.510 -0.1215  0.3710 -1.5759
24580SOL    HW275162   6.134   8.203   3.421 -1.0087 -1.7119  1.0956
24581SOL     OW75163   3.274   4.640   8.599  0.5543 -0.1323  0.1168
24581SOL    HW175164   3.212   4.661   8.669  0.7524  0.9362 -0.0094
24581SOL    HW275165   3.237   4.682   8.521  0.5834 -0.9067 -0.3285
24582SOL     OW75166   1.147   8.957   0.569 -0.3474  0.2316 -0.1423
24582SOL    HW175167   1.198   9.037   0.575  1.6166 -0.9493 -0.1135
24582SOL    HW275168   1.138   8.941   0.475 -2.2551  1.3404 -0.1974
24583SOL     OW75169   5.480   3.812   7.781 -0.4178  0.2568 -0.3426
24583SOL    HW175170   5.435   3.787   7.862 -0.8684 -0.7890 -0.9026
24583SOL    HW275171   5.490   3.730   7.733 -2.2400  1.1704 -2.4175
24584SOL     OW75172   3.356   7.251   0.725  0.8759  0.0206 -0.3490
24584SOL    HW175173   3.424   7.198   0.767  0.6212 -0.5544 -0.6457
24584SOL    HW275174   3.377   7.246   0.631  1.0691  0.7666 -0.3554
24585SOL     OW75175   4.432   4.056   5.184  0.1367 -0.0630  0.0254
24585SOL    HW175176   4.523   4.056   5.156  0.1892 -0.5130  0.1779
24585SOL    HW275177   4.385   4.102   5.114  0.3361 -0.7384 -0.5644
24586SOL     OW75178   6.185   5.497   0.480 -0.1122  0.2280  0.2110
24586SOL    HW175179   6.091   5.505   0.495 -0.0906 -0.4094  0.7250
24586SOL    HW275180   6.194   5.418   0.427  0.0855  0.6539 -0.4053
24587SOL     OW75181   3.346   3.050   9.210 -0.6942  0.4289  0.9882
24587SOL    HW175182   3.362   2.989   9.137  0.8472  2.4114 -0.4292
24587SOL    HW275183   3.268   3.099   9.184 -0.6197  0.5915  1.0739
24588SOL     OW75184   8.789   2.079   1.110  0.7493  0.1429  0.1326
24588SOL    HW175185   8.826   2.147   1.053  3.0495  0.0170  1.3560
24588SOL    HW275186   8.831   2.094   1.195  1.6794 -3.0293  0.3407
24589SOL     OW75187   3.423   2.521   7.717  0.0310 -0.1302  0.0570
24589SOL    HW175188   3.354   2.575   7.680 -0.0122  0.4353  0.9246
24589SOL    HW275189   3.432   2.552   7.807  0.9783 -0.6241  0.1473
24590SOL     OW75190   5.241   3.022   4.004 -0.4723  0.5122  0.1582
24590SOL    HW175191   5.331   2.995   4.019 -0.5559 -0.4165 -0.8848
24590SOL    HW275192   5.188   2.956   4.051 -0.6229  0.9381  0.5991
24591SOL     OW75193   1.198   3.008   7.330 -0.0186 -0.7388  0.4762
24591SOL    HW175194   1.111   2.969   7.339  0.2499 -1.4554  0.0896
24591SOL    HW275195   1.234   2.969   7.250  0.5472 -0.2286  0.4690
24592SOL     OW75196   3.206   3.480   3.991  0.3784 -0.3227  0.4103
24592SOL    HW175197   3.190   3.458   4.083  1.7758 -1.5743  0.3897
24592SOL    HW275198   3.119   3.493   3.954 -0.3057 -1.6603  1.4728
24593SOL     OW75199   9.226   6.612   8.240  0.7111 -0.0637 -0.2544
24593SOL    HW175200   9.191   6.657   8.163  0.5634 -1.3226 -0.9583
24593SOL    HW275201   9.239   6.521   8.211 -1.0944 -1.0428  1.7386
24594SOL     OW75202   5.761   5.592   8.719 -0.6803 -0.0179  0.3380
24594SOL    HW175203   5.682   5.626   8.677  0.7785  2.6473 -0.4435
24594SOL    HW275204   5.768   5.502   8.688 -2.1323  0.4319 -1.4677
24595SOL     OW75205   7.826   7.644   7.705  0.3109 -0.4766  0.0412
24595SOL    HW175206   7.887   7.571   7.694 -0.2362 -1.0772  0.9291
24595SOL    HW275207   7.866   7.715   7.654  0.2647 -1.6945 -1.7929
24596SOL     OW75208   8.973   4.645   5.233  0.1982 -0.4265  0.3291
24596SOL    HW175209   8.943   4.729   5.267  1.9424  1.2335 -1.9317
24596SOL    HW275210   8.905   4.620   5.170  0.7762  0.5190 -0.7052
24597SOL     OW75211   6.715   4.951   4.859 -0.0724  0.1454  0.1908
24597SOL    HW175212   6.756   5.033   4.832  1.0938 -0.4832 -0.0239
24597SOL    HW275213   6.736   4.944   4.952  1.9508 -1.0565 -0.3006
24598SOL     OW75214   3.869   1.906   1.575 -0.0170 -0.0478 -0.0370
24598SOL    HW175215   3.816   1.968   1.525  1.4712 -0.6424 -2.5216
24598SOL    HW275216   3.925   1.961   1.630  0.4840  0.8185 -1.3562
24599SOL     OW75217   8.817   7.453   3.385  0.3657  0.0190 -0.0141
24599SOL    HW175218   8.761   7.377   3.366  0.9016 -0.4192  0.1445
24599SOL    HW275219   8.906   7.423   3.367  0.5170  0.8512 -0.6869
24600SOL     OW75220   8.356   2.039   8.098  0.4818  0.2997  0.3757
24600SOL    HW175221   8.421   2.109   8.088  1.7989 -0.9544 -0.2307
24600SOL    HW275222   8.272   2.081   8.082  1.4282  1.1644 -3.1419
24601SOL     OW75223   8.578   8.586   6.174  0.4525  0.8207  0.2143
24601SOL    HW175224   8.510   8.598   6.241 -1.3456  1.2829 -1.5696
24601SOL    HW275225   8.649   8.542   6.219 -1.2607 -0.2065  2.0784
24602SOL     OW75226   7.640   2.338   6.915  0.2233 -0.2096 -0.4755
24602SOL    HW175227   7.731   2.310   6.904  1.0832  0.8261  2.8480
24602SOL    HW275228   7.620   2.320   7.007 -2.6470  0.5135 -0.8445
24603SOL     OW75229   8.155   3.706   6.487  0.2333 -0.4236 -0.4488
24603SOL    HW175230   8.175   3.798   6.468  0.7551 -0.4900 -0.2358
24603SOL    HW275231   8.155   3.700   6.582  0.1798 -0.6410 -0.4618
24604SOL     OW75232   2.684   9.052   0.594  0.0505 -0.4457 -0.6999
24604SOL    HW175233   2.667   9.146   0.581  1.2663  0.0539  0.8961
24604SOL    HW275234   2.774   9.040   0.565  0.8836 -0.4515  1.6391
24605SOL     OW75235   6.918   7.335   4.784  0.4212 -0.8383  0.3813
24605SOL    HW175236   6.873   7.386   4.717  1.5312 -0.0819  0.1796
24605SOL    HW275237   6.908   7.387   4.864  2.4919  0.3384 -0.0446
24606SOL     OW75238   1.586   4.864   2.280  0.1820 -0.4440 -0.0540
24606SOL    HW175239   1.505   4.883   2.328  0.2624  0.6498 -0.3244
24606SOL    HW275240   1.573   4.902   2.193  0.5692 -1.2175 -0.4638
24607SOL     OW75241   3.607   2.600   2.906 -0.2167 -0.2348  0.0876
24607SOL    HW175242   3.533   2.563   2.954 -0.0393 -0.8826 -0.1191
24607SOL    HW275243   3.638   2.528   2.851  0.4197  0.0959 -0.0006
24608SOL     OW75244   6.580   3.993   2.382  0.2504  0.0997 -0.7953
24608SOL    HW175245   6.626   3.917   2.348  0.0164  0.0432 -0.9896
24608SOL    HW275246   6.640   4.031   2.447 -0.7254 -1.7785  1.3057
24609SOL     OW75247   1.290   3.181   5.724  0.4435 -0.3241 -0.4453
24609SOL    HW175248   1.312   3.157   5.814 -0.8184 -0.8701 -0.2587
24609SOL    HW275249   1.195   3.193   5.725  0.5960  1.2753 -1.3499
24610SOL     OW75250   5.262   5.410   8.604 -0.6631  0.4342 -1.0646
24610SOL    HW175251   5.329   5.342   8.611 -1.3995 -0.1859  0.3829
24610SOL    HW275252   5.221   5.394   8.518 -0.0822 -0.2338 -1.2245
24611SOL     OW75253   4.741   6.816   7.289 -0.0439 -0.3666 -0.3912
24611SOL    HW175254   4.755   6.721   7.291  0.0757 -0.3417  0.5949
24611SOL    HW275255   4.707   6.833   7.201  0.2325 -1.2766 -0.6935
24612SOL     OW75256   5.857   4.912   6.466 -0.2537  0.7231 -0.3261
24612SOL    HW175257   5.773   4.868   6.484 -0.1738  0.1205 -1.3798
24612SOL    HW275258   5.907   4.849   6.414  1.4303  0.5130  1.4502
24613SOL     OW75259   8.916   2.137   1.382 -0.1022  0.1044  1.0416
24613SOL    HW175260   8.864   2.070   1.426  0.3705 -1.3494 -0.4865
24613SOL    HW275261   9.001   2.134   1.425 -0.2221  0.0457  1.2749
24614SOL     OW75262   1.897   1.959   9.102 -0.2192  0.1461  0.2348
24614SOL    HW175263   1.948   1.947   9.022 -0.3243  0.2837  0.1479
24614SOL    HW275264   1.956   1.931   9.172 -0.8841 -2.1873 -0.0526
24615SOL     OW75265   7.465   1.137   3.555  0.3529  0.0178  0.0600
24615SOL    HW175266   7.552   1.112   3.525  0.8178 -0.8536  1.9658
24615SOL    HW275267   7.406   1.076   3.512  0.1884  2.5300 -3.7310
24616SOL     OW75268   3.040   7.076   4.673  0.2949 -0.9518 -0.1107
24616SOL    HW175269   2.983   7.139   4.716 -0.2300 -1.4399 -0.0712
24616SOL    HW275270   2.979   7.012   4.635  0.7748 -0.9303 -0.9360
24617SOL     OW75271   7.647   2.936   7.913 -0.3703 -0.2611  0.8294
24617SOL    HW175272   7.681   3.011   7.865  1.0944 -0.9158  0.7928
24617SOL    HW275273   7.552   2.946   7.909 -0.2542  2.8133  2.7398
24618SOL     OW75274   0.795   6.932   0.775  0.3017 -0.0643  0.3873
24618SOL    HW175275   0.754   6.947   0.860  0.4696  2.5986  0.0946
24618SOL    HW275276   0.827   7.018   0.748  0.9579 -0.9674 -2.0223
24619SOL     OW75277   4.355   0.291   3.250  0.7404  0.0529  0.3764
24619SOL    HW175278   4.359   0.366   3.310  0.7630 -0.8949  1.5929
24619SOL    HW275279   4.372   0.329   3.164 -2.4316  2.0269  0.4520
24620SOL     OW75280   2.709   4.917   3.073 -0.4618  0.3558 -0.0354
24620SOL    HW175281   2.769   4.844   3.058 -1.4874 -0.8046  1.3109
24620SOL    HW275282   2.766   4.990   3.099  0.7223  0.5513 -2.8458
24621SOL     OW75283   2.412   4.468   6.970  0.5155 -0.0391 -1.0129
24621SOL    HW175284   2.377   4.428   7.049  0.4786 -1.0134 -1.5083
24621SOL    HW275285   2.361   4.548   6.959  2.1499  1.4247  1.2810
24622SOL     OW75286   3.935   3.375   4.245 -0.5501 -0.0311  0.4048
24622SOL    HW175287   3.918   3.300   4.301  2.8457 -1.1104  0.2146
24622SOL    HW275288   3.943   3.339   4.157 -0.1621  0.7601  0.1003
24623SOL     OW75289   5.652   7.821   1.379  0.6942  0.1312 -0.2512
24623SOL    HW175290   5.645   7.770   1.459  1.8682 -0.0236 -0.2316
24623SOL    HW275291   5.661   7.912   1.409  0.6737  0.1271 -0.2324
24624SOL     OW75292   3.283   4.831   1.228  0.0576  0.2255  0.6338
24624SOL    HW175293   3.199   4.790   1.207 -0.2978  0.5305  1.4559
24624SOL    HW275294   3.262   4.922   1.246  0.6839  0.5005  0.0286
24625SOL     OW75295   4.285   4.919   8.696 -0.0158  0.2662 -0.2594
24625SOL    HW175296   4.326   5.004   8.680 -0.6024  0.3543 -1.3412
24625SOL    HW275297   4.264   4.885   8.609 -0.7099 -0.5368  0.2033
24626SOL     OW75298   4.446   6.128   6.159 -0.2988 -0.4473 -0.0713
24626SOL    HW175299   4.416   6.219   6.163  2.2558  0.4332  2.0850
24626SOL    HW275300   4.429   6.093   6.247 -0.7979 -1.9127 -0.7247
24627SOL     OW75301   7.460   6.749   5.057 -0.0470  0.1674  0.3497
24627SOL    HW175302   7.431   6.818   4.998 -1.5280 -2.3330 -2.1047
24627SOL    HW275303   7.530   6.704   5.009 -1.4513 -2.0829  0.2459
24628SOL     OW75304   7.704   0.830   1.113  0.4666 -0.0883  0.3455
24628SOL    HW175305   7.720   0.843   1.020  1.9063  1.0712  0.7285
24628SOL    HW275306   7.791   0.829   1.153 -0.0939 -1.1690  1.6202
24629SOL     OW75307   5.997   8.356   5.197 -0.0511  0.3343 -0.2434
24629SOL    HW175308   5.940   8.375   5.272  0.4130 -1.2493  0.5596
24629SOL    HW275309   5.938   8.334   5.126 -0.4747  0.7499 -0.0265
24630SOL     OW75310   8.925   3.802   2.542  0.0008  0.3224 -0.1887
24630SOL    HW175311   9.007   3.820   2.588  0.2370 -0.4196 -0.3039
24630SOL    HW275312   8.888   3.888   2.523  0.0516  0.6491  1.1157
24631SOL     OW75313   0.634   3.931   8.109 -0.5376  0.3598 -0.2540
24631SOL    HW175314   0.561   3.992   8.103 -0.0614  0.8340 -1.5528
24631SOL    HW275315   0.594   3.845   8.095 -1.2275  0.2986  1.7035
24632SOL     OW75316   7.521   8.570   9.051 -0.2095  0.2840  0.0456
24632SOL    HW175317   7.615   8.574   9.029 -0.1107  1.0754  0.5505
24632SOL    HW275318   7.520   8.547   9.144 -0.4916  0.7504  0.1624
24633SOL     OW75319   7.642   0.567   8.679  0.2062 -0.2161 -0.2919
24633SOL    HW175320   7.727   0.605   8.657 -0.0455  0.2436 -0.4998
24633SOL    HW275321   7.608   0.623   8.749 -0.0747 -0.1806 -0.4525
24634SOL     OW75322   6.157   3.743   4.901  0.2502 -0.4342 -0.1682
24634SOL    HW175323   6.247   3.763   4.927  0.1020 -0.6409  0.5215
24634SOL    HW275324   6.129   3.820   4.851  1.1295 -0.7768 -1.2286
24635SOL     OW75325   5.491   0.232   2.875 -0.2723 -0.3846 -0.4936
24635SOL    HW175326   5.548   0.167   2.916  0.4251 -0.0355 -0.8845
24635SOL    HW275327   5.536   0.255   2.794 -1.7166 -1.2375 -1.6079
24636SOL     OW75328   1.088   8.987   1.959 -0.2636  0.4501  0.1346
24636SOL    HW175329   1.017   8.929   1.933 -1.2284  2.2981 -1.6983
24636SOL    HW275330   1.157   8.929   1.991 -1.9761 -1.5066  0.4558
24637SOL     OW75331   0.107   0.720   7.537  0.3108 -0.2626 -0.5643
24637SOL    HW175332   0.154   0.705   7.619  1.1109  0.6875 -0.8258
24637SOL    HW275333   0.172   0.761   7.480 -0.2923 -0.7289 -1.6134
24638SOL     OW75334   7.799   4.723   4.085  0.2490 -0.0834 -0.0904
24638SOL    HW175335   7.764   4.765   4.163 -1.0360 -1.8691  0.3463
24638SOL    HW275336   7.838   4.642   4.117 -1.1362 -1.3173 -1.3605
24639SOL     OW75337   8.227   6.922   3.199  0.1241  0.8632 -0.3183
24639SOL    HW175338   8.151   6.975   3.224 -1.2013 -0.5058 -1.3022
24639SOL    HW275339   8.204   6.833   3.226 -0.0959 -0.1684 -3.5548
24640SOL     OW75340   5.372   5.618   3.213  0.1828 -0.8304 -0.3723
24640SOL    HW175341   5.341   5.543   3.163  0.2344  0.1023 -1.8798
24640SOL    HW275342   5.357   5.693   3.155 -0.6466  0.4410  1.3952
24641SOL     OW75343   6.349   3.230   2.117  0.2215  0.5359 -0.5844
24641SOL    HW175344   6.370   3.179   2.038  0.1189 -0.8902  0.2661
24641SOL    HW275345   6.404   3.192   2.185 -1.5317  0.0029  0.5966
24642SOL     OW75346   3.826   3.367   4.769  0.1065 -0.1347 -0.0310
24642SOL    HW175347   3.907   3.316   4.767  0.9996  1.2773 -1.3295
24642SOL    HW275348   3.757   3.301   4.781  1.3978 -1.3858  0.8875
24643SOL     OW75349   0.496   0.418   1.218 -0.3199 -0.0165  0.2728
24643SOL    HW175350   0.543   0.426   1.135 -0.0913 -0.4553  0.3590
24643SOL    HW275351   0.421   0.362   1.197 -0.8405  0.7213  0.1236
24644SOL     OW75352   1.369   1.965   7.133 -0.0294 -0.2053  0.4030
24644SOL    HW175353   1.316   1.889   7.155  0.2066 -0.0422  1.5845
24644SOL    HW275354   1.394   2.003   7.217 -0.0984  1.1527 -0.1562
24645SOL     OW75355   8.625   1.379   5.001 -0.5679 -0.1885  0.0400
24645SOL    HW175356   8.531   1.364   5.013 -0.3802 -0.5487  1.1233
24645SOL    HW275357   8.667   1.319   5.063  0.3670  0.1971 -0.2144
24646SOL     OW75358   7.763   6.699   1.022  0.1332 -0.7262 -0.4878
24646SOL    HW175359   7.695   6.707   1.090 -0.6276  0.9734 -1.3751
24646SOL    HW275360   7.714   6.702   0.940  1.3044  1.2862 -1.1747
24647SOL     OW75361   4.582   1.774   5.037  0.1211  0.3494 -0.1890
24647SOL    HW175362   4.546   1.862   5.048 -1.1328 -0.0874 -0.6511
24647SOL    HW275363   4.677   1.787   5.032 -0.0741  1.7129 -0.6553
24648SOL     OW75364   8.993   5.184   1.158  0.1737  0.3155 -0.2491
24648SOL    HW175365   9.017   5.198   1.067  0.1715 -0.5873 -0.3990
24648SOL    HW275366   8.939   5.259   1.181  0.6388  0.8341 -0.8198
24649SOL     OW75367   5.567   1.522   4.692  0.0248 -0.1577  0.3123
24649SOL    HW175368   5.582   1.452   4.756 -0.8261  1.2080  2.0906
24649SOL    HW275369   5.474   1.516   4.672  0.4625 -1.2123 -1.6604
24650SOL     OW75370   6.901   8.959   0.708 -0.2381 -0.5619 -0.1050
24650SOL    HW175371   6.819   8.959   0.659 -1.0850  1.2053  1.1774
24650SOL    HW275372   6.874   8.949   0.800  0.9993 -0.2824  0.3061
24651SOL     OW75373   7.152   2.848   2.752  1.0542 -0.5045 -0.3639
24651SOL    HW175374   7.143   2.753   2.746 -0.8935 -0.3811 -0.0011
24651SOL    HW275375   7.076   2.882   2.704  0.3281  0.8114  1.5816
24652SOL     OW75376   2.888   5.588   3.270  0.6359 -0.4629 -0.0408
24652SOL    HW175377   2.952   5.655   3.245  1.5187 -0.2650  2.4285
24652SOL    HW275378   2.861   5.614   3.358 -0.6514 -2.1727  0.0959
24653SOL     OW75379   2.793   7.937   4.251 -0.2259 -0.3181  0.1276
24653SOL    HW175380   2.750   8.017   4.223 -0.5821 -0.3127  0.6743
24653SOL    HW275381   2.810   7.889   4.171  0.3128  0.4671 -0.2416
24654SOL     OW75382   2.869   8.965   8.992 -0.1252 -0.3018  0.0965
24654SOL    HW175383   2.802   8.944   9.056 -0.7419  0.5647 -0.2417
24654SOL    HW275384   2.901   9.052   9.019 -1.7587  0.9841 -1.8252
24655SOL     OW75385   4.968   3.088   5.885  0.0359  0.1815 -0.0138
24655SOL    HW175386   5.017   3.103   5.966 -2.6395  1.7161  1.4561
24655SOL    HW275387   4.989   3.165   5.831 -0.5137  0.7305  0.5277
24656SOL     OW75388   6.504   7.827   5.490  0.0082  0.0741  0.0609
24656SOL    HW175389   6.575   7.878   5.529  1.1185 -1.0838 -0.3842
24656SOL    HW275390   6.540   7.739   5.482 -1.7932 -0.7483  0.6101
24657SOL     OW75391   0.132   4.472   1.725 -0.4312 -0.5886 -0.5948
24657SOL    HW175392   0.151   4.501   1.814  1.4040 -1.8796 -0.5115
24657SOL    HW275393   0.122   4.552   1.675  1.5435  0.2020  0.1842
24658SOL     OW75394   5.953   4.729   3.675  0.1607 -0.6839  0.0912
24658SOL    HW175395   5.962   4.776   3.592 -2.0042 -0.8931 -0.3192
24658SOL    HW275396   5.976   4.793   3.741  1.3430 -0.3375 -0.6250
24659SOL     OW75397   0.727   5.561   6.863 -0.6545 -0.4514  0.1721
24659SOL    HW175398   0.789   5.554   6.936 -0.6284  0.2897  0.2289
24659SOL    HW275399   0.646   5.522   6.897 -0.3274 -1.0953  0.2212
24660SOL     OW75400   8.464   4.913   8.508 -0.7612  0.3880 -0.3215
24660SOL    HW175401   8.488   4.948   8.422  0.5929  0.5606  0.1085
24660SOL    HW275402   8.370   4.897   8.501 -0.9103  1.5396 -1.4358
24661SOL     OW75403   2.386   7.043   6.642  0.5323 -0.4113  0.4998
24661SOL    HW175404   2.385   6.965   6.697  2.0824  0.4445  1.8103
24661SOL    HW275405   2.354   7.013   6.557 -0.5845 -2.0714  1.4550
24662SOL     OW75406   0.592   3.522   9.195 -0.1207  0.2512  0.0416
24662SOL    HW175407   0.666   3.508   9.255  0.3425  1.9220 -0.0726
24662SOL    HW275408   0.630   3.569   9.121 -0.9040 -0.8214 -1.0657
24663SOL     OW75409   7.933   7.307   8.294  0.1571  0.3182 -0.1406
24663SOL    HW175410   7.983   7.229   8.318 -0.9921  0.3337  2.7932
24663SOL    HW275411   7.966   7.375   8.352 -1.7683  0.8400  0.4372
24664SOL     OW75412   5.159   1.048   7.335 -0.0454 -0.3485 -0.3792
24664SOL    HW175413   5.092   1.113   7.355  0.2758  0.8235 -2.7687
24664SOL    HW275414   5.164   0.994   7.414 -2.8349  0.3321  0.3878
24665SOL     OW75415   3.960   7.610   3.154  0.4939 -0.3279 -0.0000
24665SOL    HW175416   4.047   7.599   3.193  0.6139 -0.0975 -0.2033
24665SOL    HW275417   3.900   7.610   3.229  0.7387  0.2493  0.2000
24666SOL     OW75418   7.186   4.233   5.183 -0.1729 -0.2275 -0.4226
24666SOL    HW175419   7.210   4.228   5.276 -0.7195 -0.3336 -0.2832
24666SOL    HW275420   7.268   4.254   5.138  0.0133  0.2464  0.1297
24667SOL     OW75421   0.526   3.563   5.788  0.6155 -0.4887 -0.1404
24667SOL    HW175422   0.572   3.507   5.850 -0.5653 -0.8307  0.4563
24667SOL    HW275423   0.507   3.505   5.713  0.9809 -0.3996 -0.3025
24668SOL     OW75424   1.221   6.862   1.273  0.0072  0.6995  0.1011
24668SOL    HW175425   1.163   6.938   1.283  1.6959  2.1987 -0.8314
24668SOL    HW275426   1.209   6.812   1.353 -0.4584  2.4890  1.2071
24669SOL     OW75427   3.805   0.223   1.840 -0.1725  0.2835  0.7008
24669SOL    HW175428   3.728   0.255   1.888  0.6800  0.8946  1.6888
24669SOL    HW275429   3.829   0.142   1.885  0.3520  0.6142  1.0189
24670SOL     OW75430   2.986   6.589   6.410 -0.6463 -0.5080 -0.0099
24670SOL    HW175431   3.052   6.651   6.442  0.4478 -0.9368 -1.3434
24670SOL    HW275432   2.902   6.627   6.436  0.0538  0.9404  0.2032
24671SOL     OW75433   0.235   6.432   6.175 -0.1380  0.1976 -0.2401
24671SOL    HW175434   0.155   6.387   6.148 -0.2353  0.7504 -0.9199
24671SOL    HW275435   0.297   6.416   6.103  0.2086  0.1674  0.0615
24672SOL     OW75436   2.980   5.029   1.688  0.6517 -0.0691 -0.1108
24672SOL    HW175437   3.052   5.077   1.648  0.3057  1.0316  0.5505
24672SOL    HW275438   3.022   4.956   1.733  1.3472  0.5216  0.2142
24673SOL     OW75439   8.707   6.593   5.439 -0.0810 -0.4091 -0.3309
24673SOL    HW175440   8.780   6.626   5.386 -1.3093  0.9287 -1.2775
24673SOL    HW275441   8.635   6.583   5.376 -0.7745 -1.5645  0.6041
24674SOL     OW75442   3.380   7.018   5.261  0.2964 -0.1062  0.0326
24674SOL    HW175443   3.414   7.005   5.350  0.3320 -0.4222 -0.0271
24674SOL    HW275444   3.303   6.962   5.256  1.3712 -1.5783 -0.7592
24675SOL     OW75445   0.762   8.641   0.948  0.9062 -0.3913  0.5137
24675SOL    HW175446   0.819   8.618   1.022  1.2510  0.8148  0.6396
24675SOL    HW275447   0.776   8.734   0.935 -0.4948 -0.2204  0.0579
24676SOL     OW75448   7.573   2.802   6.350  0.2268 -0.5317  0.5390
24676SOL    HW175449   7.545   2.869   6.412  1.3562  0.1818  0.3215
24676SOL    HW275450   7.492   2.760   6.321 -0.4095 -0.0475  1.5632
24677SOL     OW75451   3.494   2.775   4.836 -0.4636 -0.0079  0.2359
24677SOL    HW175452   3.507   2.862   4.875 -0.1933  0.2545 -0.4188
24677SOL    HW275453   3.453   2.723   4.905 -1.5272  0.9172  0.3339
24678SOL     OW75454   0.720   7.768   7.558  0.5101  0.5138 -0.8551
24678SOL    HW175455   0.773   7.689   7.567 -0.8845 -0.3451  0.3801
24678SOL    HW275456   0.776   7.838   7.591  0.4505 -0.5883  1.8775
24679SOL     OW75457   8.989   4.066   3.779  0.4940  0.1822  0.2761
24679SOL    HW175458   9.001   4.157   3.808  0.4965  0.5962 -0.9177
24679SOL    HW275459   8.999   4.071   3.683 -0.8693 -0.8493  0.0560
24680SOL     OW75460   5.424   2.310   3.964 -0.0103  0.2130 -0.2209
24680SOL    HW175461   5.386   2.251   3.899  0.1708  0.1057 -0.2281
24680SOL    HW275462   5.349   2.335   4.020  0.1899 -1.3157  0.7854
24681SOL     OW75463   4.726   4.275   8.472 -0.0277  0.1384  0.1464
24681SOL    HW175464   4.742   4.181   8.477 -0.8156 -0.0233 -0.1860
24681SOL    HW275465   4.632   4.282   8.454 -0.0879  1.0066  0.7831
24682SOL     OW75466   3.619   1.115   1.462  0.5241  0.0938  0.1613
24682SOL    HW175467   3.680   1.093   1.392 -0.0026 -0.3876 -0.1613
24682SOL    HW275468   3.569   1.189   1.428  1.0156  0.5797  0.4821
24683SOL     OW75469   2.565   3.435   4.470  0.4715 -0.2535 -0.0317
24683SOL    HW175470   2.546   3.361   4.526  1.1716 -0.8591 -0.5658
24683SOL    HW275471   2.542   3.406   4.382  0.6262  0.2043 -0.2305
24684SOL     OW75472   2.531   1.602   7.519  0.0592  0.2508 -0.0545
24684SOL    HW175473   2.624   1.626   7.518  0.1345 -0.0142 -1.1026
24684SOL    HW275474   2.508   1.598   7.611  1.2899 -0.4325  0.2525
24685SOL     OW75475   1.808   2.502   3.784  0.2502  0.4065 -0.2361
24685SOL    HW175476   1.758   2.438   3.733  2.3607 -0.0824 -1.8100
24685SOL    HW275477   1.741   2.553   3.830 -1.5780 -2.5989  0.7844
24686SOL     OW75478   2.768   8.989   7.433  0.0352 -0.0779 -0.0959
24686SOL    HW175479   2.806   8.904   7.455 -0.0765 -0.3056 -0.7719
24686SOL    HW275480   2.797   9.006   7.344  0.2052  0.6824  0.0986
24687SOL     OW75481   7.755   7.501   6.251  0.2138  0.0641 -0.3237
24687SOL    HW175482   7.695   7.542   6.189  1.5490  0.2415 -1.5501
24687SOL    HW275483   7.834   7.556   6.248  0.5032 -0.2386  1.1334
24688SOL     OW75484   1.081   6.155   2.868 -0.3977 -0.0991  0.1876
24688SOL    HW175485   1.063   6.202   2.786  1.6652 -1.1846 -0.9415
24688SOL    HW275486   1.149   6.207   2.910  0.4400 -0.9580 -0.0873
24689SOL     OW75487   7.780   2.805   6.183 -0.3050 -0.6836 -0.5611
24689SOL    HW175488   7.694   2.818   6.223  0.2995 -0.1968  0.6235
24689SOL    HW275489   7.800   2.712   6.198  0.2334 -0.3492  0.9836
24690SOL     OW75490   7.300   2.624   5.340 -0.2350 -0.5767  0.1765
24690SOL    HW175491   7.237   2.691   5.367 -0.2236 -0.9746  1.1987
24690SOL    HW275492   7.263   2.588   5.259 -0.6959  0.0421  0.1075
24691SOL     OW75493   5.604   0.021   1.082 -0.1565  0.1128  0.2749
24691SOL    HW175494   5.628   0.082   1.012 -3.0111  0.7753 -0.2647
24691SOL    HW275495   5.676   0.027   1.145  1.8415  0.5543 -1.9068
24692SOL     OW75496   6.254   1.587   2.522 -0.0394 -0.0906 -0.0813
24692SOL    HW175497   6.174   1.540   2.544  0.2276 -1.6535 -2.1528
24692SOL    HW275498   6.324   1.535   2.559  0.1196  0.2161  0.0522
24693SOL     OW75499   4.262   7.450   1.316  0.6538 -0.8552 -0.5030
24693SOL    HW175500   4.237   7.542   1.321 -1.8740 -1.4102 -1.6394
24693SOL    HW275501   4.295   7.429   1.404  1.6335  1.1741 -0.3303
24694SOL     OW75502   4.086   5.782   7.519 -0.1931 -0.1948  0.7633
24694SOL    HW175503   4.093   5.862   7.467 -2.5096 -0.8986 -0.7859
24694SOL    HW275504   3.998   5.749   7.500 -0.4189 -1.5558  3.6594
24695SOL     OW75505   4.526   6.739   2.470  0.1296  0.3662 -0.0509
24695SOL    HW175506   4.505   6.817   2.522 -0.1955  0.2311  0.0241
24695SOL    HW275507   4.502   6.763   2.380  0.7905  0.6368 -0.1564
24696SOL     OW75508   6.986   5.858   3.553 -0.2139  0.2286 -0.2507
24696SOL    HW175509   7.062   5.812   3.587 -0.2648  1.2334  1.3280
24696SOL    HW275510   7.013   5.892   3.468  0.5108 -0.8780 -0.4739
24697SOL     OW75511   7.787   2.271   3.614 -0.0390 -0.1171  0.1114
24697SOL    HW175512   7.829   2.334   3.672  0.7201  0.3639 -0.9189
24697SOL    HW275513   7.859   2.213   3.587 -0.2020  0.1534 -0.9547
24698SOL     OW75514   4.002   4.553   9.038  0.4612  0.3430  0.0259
24698SOL    HW175515   3.952   4.507   9.105 -2.0550  2.4032 -0.2515
24698SOL    HW275516   4.050   4.620   9.086  0.9372 -0.0158  0.0484
24699SOL     OW75517   6.109   6.896   7.889 -0.0454 -0.0469  0.0258
24699SOL    HW175518   6.064   6.814   7.872 -0.4349  0.1047  0.3098
24699SOL    HW275519   6.113   6.903   7.984  3.1702 -1.4583  0.1243
24700SOL     OW75520   8.068   4.125   5.627  0.6176 -0.7632 -0.5681
24700SOL    HW175521   8.063   4.202   5.570 -3.8846 -0.5264 -0.2489
24700SOL    HW275522   8.066   4.161   5.716  0.0938 -1.1994 -0.3959
24701SOL     OW75523   3.709   6.038   4.481 -0.4245  0.1257 -0.0227
24701SOL    HW175524   3.740   6.012   4.567 -0.9862 -0.2590  0.0694
24701SOL    HW275525   3.748   5.975   4.421 -0.7419 -0.1527  0.0560
24702SOL     OW75526   2.495   0.557   4.876 -0.7962 -0.3655 -0.0450
24702SOL    HW175527   2.482   0.462   4.875  1.2343 -0.6821 -0.3125
24702SOL    HW275528   2.486   0.583   4.784 -0.7712 -0.3754 -0.0498
24703SOL     OW75529   4.553   3.276   1.027  0.4750 -0.1716 -0.0761
24703SOL    HW175530   4.538   3.342   0.959  1.4749 -0.2429 -0.3759
24703SOL    HW275531   4.635   3.303   1.069  1.4233 -1.7563 -0.8574
24704SOL     OW75532   2.144   1.033   3.809 -0.1299 -0.1610 -0.2287
24704SOL    HW175533   2.188   1.082   3.740 -1.3723  1.2857 -0.0392
24704SOL    HW275534   2.213   1.017   3.874  0.9811 -1.3019 -1.6300
24705SOL     OW75535   1.913   2.116   5.892 -0.6779  0.1526  0.0631
24705SOL    HW175536   1.856   2.100   5.968  0.7825 -0.8199  1.0206
24705SOL    HW275537   1.968   2.038   5.887  0.5387  1.0249 -0.8325
24706SOL     OW75538   5.067   3.274   1.141  0.5775 -0.2575  0.3074
24706SOL    HW175539   5.139   3.307   1.088 -0.0593  0.3381 -0.2181
24706SOL    HW275540   5.088   3.181   1.155  1.1582 -0.2290 -0.3201
24707SOL     OW75541   0.896   3.628   1.064  0.6348 -0.5831 -0.2740
24707SOL    HW175542   0.935   3.685   0.998  0.7210  1.9395  1.7978
24707SOL    HW275543   0.966   3.611   1.126 -0.3966  0.4045  1.2186
24708SOL     OW75544   2.491   6.689   6.456 -0.1788  0.6148 -0.3683
24708SOL    HW175545   2.528   6.727   6.376 -1.7781 -0.0979 -1.4973
24708SOL    HW275546   2.407   6.734   6.467 -1.1206 -1.0334 -0.5241
24709SOL     OW75547   7.786   4.348   6.374  0.0063 -0.0202  0.5568
24709SOL    HW175548   7.704   4.397   6.382 -0.5645 -0.5368 -1.6066
24709SOL    HW275549   7.846   4.409   6.330  0.9053  0.4105  2.2587
24710SOL     OW75550   5.826   1.602   3.823 -0.1352  0.3405  0.2829
24710SOL    HW175551   5.773   1.671   3.784 -1.5525 -1.3591 -0.9832
24710SOL    HW275552   5.916   1.635   3.820 -0.4177  1.0819 -2.7127
24711SOL     OW75553   0.445   4.314   1.819 -0.6102 -0.3919 -0.5846
24711SOL    HW175554   0.445   4.276   1.731 -1.0454  0.3439 -0.9110
24711SOL    HW275555   0.447   4.408   1.805  3.7777 -0.1647  0.2251
24712SOL     OW75556   1.312   7.656   1.518  0.2023 -0.3288 -0.2697
24712SOL    HW175557   1.372   7.589   1.484  1.1673 -0.2410  1.1652
24712SOL    HW275558   1.255   7.677   1.444  1.3957 -1.0337 -1.4365
24713SOL     OW75559   5.766   4.644   8.818  0.0608  0.0200  0.5745
24713SOL    HW175560   5.833   4.587   8.778 -0.8708 -0.4618 -0.3446
24713SOL    HW275561   5.784   4.730   8.782  0.2748 -0.0754  0.4465
24714SOL     OW75562   5.892   1.063   9.239 -0.1762  0.1572 -0.6533
24714SOL    HW175563   5.849   0.995   9.291 -1.2684  1.1025 -0.2810
24714SOL    HW275564   5.972   1.021   9.206 -0.1670 -0.8967  0.6297
24715SOL     OW75565   4.869   4.232   7.793  0.4479  0.6369  0.3920
24715SOL    HW175566   4.925   4.297   7.748 -0.0165 -0.4501 -1.8896
24715SOL    HW275567   4.794   4.221   7.735 -0.6179 -0.2896  1.8767
24716SOL     OW75568   4.335   2.844   5.979  0.1161 -0.4411 -0.2074
24716SOL    HW175569   4.403   2.900   5.942 -0.6045  0.6216  0.0457
24716SOL    HW275570   4.336   2.863   6.073 -3.4267  3.0050 -0.6065
24717SOL     OW75571   8.321   6.261   4.036 -0.0927  0.1309 -0.2237
24717SOL    HW175572   8.263   6.306   4.098 -0.3340 -0.8259  0.2517
24717SOL    HW275573   8.396   6.235   4.090 -0.1423 -0.3967 -0.4133
24718SOL     OW75574   3.929   0.840   7.886 -0.2266  0.2137  0.2476
24718SOL    HW175575   3.953   0.919   7.839  0.6405 -0.4479 -0.4540
24718SOL    HW275576   3.902   0.778   7.818  0.7752 -0.6582  0.6086
24719SOL     OW75577   5.151   1.144   6.290 -0.2958  0.0159  0.2535
24719SOL    HW175578   5.235   1.142   6.337 -0.0933  0.5110 -0.0728
24719SOL    HW275579   5.176   1.139   6.198 -0.6173  0.3701  0.1483
24720SOL     OW75580   0.301   8.889   6.364  0.2083 -0.0729  0.0605
24720SOL    HW175581   0.357   8.859   6.292  0.1627 -0.8509  0.3436
24720SOL    HW275582   0.362   8.906   6.436  0.0749 -1.0903  0.4252
24721SOL     OW75583   5.091   1.159   7.625 -0.2200 -0.5526  0.0689
24721SOL    HW175584   5.082   1.253   7.606  1.2600 -0.6323 -1.2918
24721SOL    HW275585   5.185   1.146   7.632 -0.4681 -1.7177  1.6378
24722SOL     OW75586   2.532   1.893   0.487 -0.5984  0.5217 -0.3418
24722SOL    HW175587   2.437   1.888   0.488 -0.6712  1.4644  1.2469
24722SOL    HW275588   2.552   1.986   0.481  0.2598  0.2700 -1.8672
24723SOL     OW75589   7.844   8.161   7.259  0.0509 -0.2370 -0.7504
24723SOL    HW175590   7.848   8.081   7.206  0.5289  1.0674 -2.8437
24723SOL    HW275591   7.925   8.159   7.311 -1.2776 -2.4263  1.4432
24724SOL     OW75592   0.735   9.078   1.062 -0.3360 -0.0862 -0.1337
24724SOL    HW175593   0.750   9.121   0.978 -0.7454 -0.5128 -0.4304
24724SOL    HW275594   0.674   9.007   1.042  2.3231 -2.5647 -0.2034
24725SOL     OW75595   6.067   2.084   4.079 -0.2821  0.0635 -0.0567
24725SOL    HW175596   5.988   2.097   4.131 -0.3991 -1.0215  0.0526
24725SOL    HW275597   6.106   2.171   4.073 -0.1892  0.2135  1.9735
24726SOL     OW75598   2.169   1.908   1.055 -0.2831  0.0522  0.0826
24726SOL    HW175599   2.170   1.920   0.960 -1.8334 -1.1571 -0.1299
24726SOL    HW275600   2.160   1.814   1.068  2.0717 -0.0475  1.5042
24727SOL     OW75601   6.029   7.216   5.523 -0.1816  0.0843  0.0355
24727SOL    HW175602   6.013   7.302   5.484  0.1965  0.9035  1.5822
24727SOL    HW275603   6.125   7.210   5.530 -0.2178 -0.3031  0.2649
24728SOL     OW75604   2.544   8.346   8.767  0.0380 -0.1971 -0.0849
24728SOL    HW175605   2.629   8.304   8.777  0.8380  1.4647  0.4736
24728SOL    HW275606   2.552   8.429   8.815 -0.7484  1.5556 -2.7397
24729SOL     OW75607   0.025   2.650   0.488 -0.0280  0.0895 -0.4049
24729SOL    HW175608   0.118   2.644   0.466 -0.1426 -0.5582 -0.7452
24729SOL    HW275609  -0.018   2.588   0.430 -0.8504  1.3167 -1.1547
24730SOL     OW75610   7.495   3.868   1.712  0.3449  0.3792  0.1741
24730SOL    HW175611   7.584   3.889   1.741 -0.5076  0.4495  3.0917
24730SOL    HW275612   7.443   3.945   1.733 -0.1701  1.2223 -3.4711
24731SOL     OW75613   4.206   2.971   3.945  0.0560  0.2045  0.7873
24731SOL    HW175614   4.166   2.887   3.967 -1.2125  0.4534 -0.5116
24731SOL    HW275615   4.300   2.951   3.937 -0.4040 -1.4821 -1.2094
24732SOL     OW75616   2.211   4.269   6.825 -0.0301 -0.1751  0.0222
24732SOL    HW175617   2.227   4.279   6.731 -2.1656 -0.0820 -0.3729
24732SOL    HW275618   2.213   4.359   6.859 -0.4467 -0.0889 -0.1687
24733SOL     OW75619   4.138   5.439   7.745 -0.0164 -0.3135 -0.9112
24733SOL    HW175620   4.175   5.351   7.749  0.7349 -0.0938 -2.4274
24733SOL    HW275621   4.166   5.473   7.660 -2.9158  0.2199 -1.7442
24734SOL     OW75622   4.080   4.778   0.845  0.3019  0.3441  0.2058
24734SOL    HW175623   4.066   4.807   0.755 -0.0150  1.6614  0.6512
24734SOL    HW275624   4.015   4.826   0.896  0.4250 -0.4427  1.1376
24735SOL     OW75625   1.356   6.553   4.709 -0.2213  0.0454  0.4466
24735SOL    HW175626   1.443   6.580   4.739 -0.0443  1.4034 -1.1435
24735SOL    HW275627   1.370   6.527   4.618 -1.1568 -1.6069  0.7443
24736SOL     OW75628   1.277   5.046   3.323 -0.0472 -0.0775  0.8415
24736SOL    HW175629   1.243   4.970   3.276  1.3245  0.1851 -0.6660
24736SOL    HW275630   1.368   5.024   3.343 -0.0788  0.5695  1.7711
24737SOL     OW75631   5.998   0.606   8.007  0.3517  0.2520 -0.4697
24737SOL    HW175632   5.975   0.657   7.929  3.5806 -0.7284 -2.2470
24737SOL    HW275633   6.092   0.588   7.997  0.8406 -0.2682  3.5030
24738SOL     OW75634   3.134   5.929   6.770  0.0508 -0.3158 -0.0793
24738SOL    HW175635   3.165   5.896   6.686 -2.0870 -0.6587 -0.8025
24738SOL    HW275636   3.073   6.000   6.748 -1.2671 -1.0202  1.1022
24739SOL     OW75637   4.354   0.682   8.053  0.0729 -0.0243 -0.5958
24739SOL    HW175638   4.442   0.706   8.023  0.7972 -0.6019  0.9839
24739SOL    HW275639   4.302   0.678   7.973  1.8139 -1.0462 -1.7508
24740SOL     OW75640   6.084   3.006   4.223 -0.3790  0.1696 -1.2490
24740SOL    HW175641   6.002   2.986   4.178 -0.7921 -2.2099  0.3544
24740SOL    HW275642   6.148   2.944   4.186 -0.2926 -0.5857  0.0791
24741SOL     OW75643   1.295   2.109   1.758 -0.1419 -0.0168  0.5955
24741SOL    HW175644   1.308   2.190   1.708  1.4075  0.4233  1.6273
24741SOL    HW275645   1.296   2.136   1.849 -2.0425 -0.9294  0.9352
24742SOL     OW75646   1.588   6.428   1.656 -0.2883 -0.6384 -0.2792
24742SOL    HW175647   1.638   6.365   1.708 -0.9887 -1.9882 -1.1805
24742SOL    HW275648   1.627   6.513   1.677  1.0061 -1.4166  0.6011
24743SOL     OW75649   5.455   2.545   2.980 -0.1468 -0.4649 -0.3020
24743SOL    HW175650   5.529   2.601   2.956  0.8135 -0.9233  1.3763
24743SOL    HW275651   5.469   2.525   3.073 -1.5130 -1.8929 -0.3461
24744SOL     OW75652   4.643   4.923   8.685  0.5036 -0.5236  0.4752
24744SOL    HW175653   4.582   4.919   8.611 -0.3773 -0.2684  1.1735
24744SOL    HW275654   4.590   4.954   8.758  1.1525 -1.6421  1.4485
24745SOL     OW75655   3.754   5.437   3.726  0.0166  0.1871 -0.0773
24745SOL    HW175656   3.683   5.396   3.775 -0.2217  0.1591 -0.4471
24745SOL    HW275657   3.738   5.531   3.733  0.4382  0.2149  0.5815
24746SOL     OW75658   0.780   2.917   6.186 -0.2199 -0.5269  0.5006
24746SOL    HW175659   0.797   2.851   6.253  2.3701  0.5056  1.0025
24746SOL    HW275660   0.744   2.992   6.234  0.1559 -0.3443  0.5031
24747SOL     OW75661   1.600   4.617   6.604  0.0160 -0.4696 -0.0719
24747SOL    HW175662   1.559   4.546   6.555 -0.3403  0.4065 -1.1040
24747SOL    HW275663   1.686   4.584   6.628  0.2205 -0.9142 -1.3642
24748SOL     OW75664   3.569   4.432   3.758 -0.1215 -0.2965  0.1825
24748SOL    HW175665   3.593   4.449   3.667  1.7084  1.1275  0.8642
24748SOL    HW275666   3.641   4.380   3.792  0.0782  0.6492  1.2512
24749SOL     OW75667   4.704   7.137   0.788 -0.5834  0.3003  0.5524
24749SOL    HW175668   4.725   7.198   0.858  0.5169 -0.3106  0.7949
24749SOL    HW275669   4.626   7.091   0.818 -0.3328  0.2973  1.2108
24750SOL     OW75670   5.843   8.060   0.723 -0.0384 -0.2060 -0.1502
24750SOL    HW175671   5.770   8.027   0.671  1.2919 -2.6342 -0.5976
24750SOL    HW275672   5.894   8.112   0.661 -0.4240  0.0361 -0.2746
24751SOL     OW75673   0.463   2.594   6.895  0.1480 -0.2783  0.5685
24751SOL    HW175674   0.393   2.631   6.841 -0.4640 -0.9662  0.8713
24751SOL    HW275675   0.515   2.542   6.833 -0.0026 -0.3047  0.4630
24752SOL     OW75676   2.197   1.894   1.417 -0.0711  0.0789 -0.6201
24752SOL    HW175677   2.216   1.864   1.506 -0.9536  0.2408 -0.3759
24752SOL    HW275678   2.110   1.860   1.398  0.9555 -1.8630 -2.2644
24753SOL     OW75679   6.479   7.967   0.238  0.3786  0.4469 -0.0138
24753SOL    HW175680   6.457   8.019   0.161 -1.2777 -0.3468 -0.1052
24753SOL    HW275681   6.511   7.884   0.204  0.5115  0.4303  0.1482
24754SOL     OW75682   3.647   4.394   6.620 -0.8072  0.1449 -0.8795
24754SOL    HW175683   3.588   4.325   6.588  0.2175 -0.6555 -1.1066
24754SOL    HW275684   3.728   4.348   6.642 -1.1697  0.7487  2.2115
24755SOL     OW75685   6.098   9.080   6.175 -0.3245 -0.5563 -0.3699
24755SOL    HW175686   6.109   9.093   6.081  0.2004  1.2662 -0.0854
24755SOL    HW275687   6.121   9.164   6.214  0.2765 -1.5229  1.4665
24756SOL     OW75688   6.715   5.774   6.231 -0.7216  0.4117  0.1125
24756SOL    HW175689   6.802   5.813   6.241 -0.7716  0.4098  0.5974
24756SOL    HW275690   6.730   5.695   6.179 -0.4687  0.5386 -0.0087
24757SOL     OW75691   0.813   6.054   2.534 -0.0615 -0.1983 -0.1921
24757SOL    HW175692   0.746   6.039   2.601 -0.3476 -0.4726 -0.5347
24757SOL    HW275693   0.789   5.996   2.463 -0.5126  1.0329 -1.0756
24758SOL     OW75694   6.780   2.586   6.762 -0.5441 -0.7849 -0.9010
24758SOL    HW175695   6.868   2.550   6.753 -0.0383  0.0632  0.3379
24758SOL    HW275696   6.772   2.608   6.855 -1.0920  1.5150 -1.4156
24759SOL     OW75697   7.257   7.553   9.067 -0.2768 -0.1723 -0.5420
24759SOL    HW175698   7.242   7.631   9.013 -0.8106  1.9833  2.4543
24759SOL    HW275699   7.352   7.546   9.071 -0.2013  0.8944 -0.1357
24760SOL     OW75700   7.510   6.638   8.561 -0.2038 -0.6273 -0.2137
24760SOL    HW175701   7.519   6.548   8.528 -1.0948 -0.5622 -0.6621
24760SOL    HW275702   7.489   6.690   8.483 -0.3580 -0.1447  0.1470
24761SOL     OW75703   7.938   1.597   4.854 -0.2396 -0.1498 -0.1440
24761SOL    HW175704   8.017   1.588   4.802 -0.9441 -0.4041 -1.1922
24761SOL    HW275705   7.873   1.635   4.794 -0.5615  1.3190  1.0409
24762SOL     OW75706   9.223   1.711   4.521 -0.5992 -0.1318  0.1042
24762SOL    HW175707   9.267   1.756   4.593  0.0796  0.0885 -0.4401
24762SOL    HW275708   9.235   1.618   4.540  0.0380 -0.0727  0.0014
24763SOL     OW75709   7.722   6.183   5.586  0.6919  0.5938  0.0497
24763SOL    HW175710   7.631   6.214   5.587  0.4222 -0.1843  0.0866
24763SOL    HW275711   7.718   6.097   5.626  1.6192  1.0066  1.0880
24764SOL     OW75712   3.170   4.837   9.243  0.0495 -0.2847  0.4111
24764SOL    HW175713   3.236   4.786   9.290 -0.8581 -0.2822  1.7452
24764SOL    HW275714   3.213   4.920   9.223  0.7941 -0.6953  0.2808
24765SOL     OW75715   2.320   2.080   6.137 -0.3439  0.4921  0.2383
24765SOL    HW175716   2.397   2.066   6.193 -0.0295 -0.3119 -0.3759
24765SOL    HW275717   2.340   2.032   6.057 -0.9311  1.3754 -0.4413
24766SOL     OW75718   3.984   2.870   3.231 -0.4445  0.2488 -0.0007
24766SOL    HW175719   3.893   2.898   3.222 -0.4494  0.1321 -0.3045
24766SOL    HW275720   4.026   2.939   3.282 -0.8885 -0.0730  0.8224
24767SOL     OW75721   7.683   4.201   8.001  0.2606 -0.1468 -0.3210
24767SOL    HW175722   7.718   4.269   7.942  0.8737 -0.6026 -0.4952
24767SOL    HW275723   7.589   4.219   8.005  0.4950  1.0456  0.0783
24768SOL     OW75724   9.180   4.855   1.492 -0.0166 -0.9015  0.5025
24768SOL    HW175725   9.096   4.863   1.539 -1.4062  0.2429 -1.9406
24768SOL    HW275726   9.208   4.946   1.479  0.6124 -1.2125 -0.3636
24769SOL     OW75727   7.886   9.208   0.067  0.2115 -0.3482  0.0958
24769SOL    HW175728   7.883   9.113   0.053 -0.4472 -0.2569 -0.4214
24769SOL    HW275729   7.848   9.245  -0.012  3.2545  0.4944 -1.1117
24770SOL     OW75730   9.114   2.560   6.895 -0.7365  0.2474 -0.0626
24770SOL    HW175731   9.079   2.627   6.954  0.9563  0.7297  0.4674
24770SOL    HW275732   9.146   2.491   6.954  0.2616  0.3727 -0.4410
24771SOL     OW75733   3.669   7.343   7.722  0.5419 -0.4015  0.2122
24771SOL    HW175734   3.669   7.365   7.629  1.5406 -1.9942 -0.2119
24771SOL    HW275735   3.580   7.314   7.741  0.4390 -0.4485 -0.3428
24772SOL     OW75736   3.178   8.542   3.227  0.2228  0.2362  0.0945
24772SOL    HW175737   3.171   8.448   3.241 -0.0431  0.2662  0.1755
24772SOL    HW275738   3.128   8.581   3.299 -0.5813  0.4114 -0.5467
24773SOL     OW75739   7.140   0.685   3.337  0.0977 -0.3104  0.2145
24773SOL    HW175740   7.060   0.722   3.373 -0.2319 -0.9799  0.1794
24773SOL    HW275741   7.138   0.593   3.362  2.1227  0.1705  2.4596
24774SOL     OW75742   2.886   6.096   0.804 -0.2912 -0.1501  0.0930
24774SOL    HW175743   2.881   6.013   0.758 -0.2249 -0.0948 -0.0138
24774SOL    HW275744   2.971   6.093   0.849  0.0283  0.1549 -0.4794
24775SOL     OW75745   5.774   3.288   8.398 -0.2547 -0.3826  0.2699
24775SOL    HW175746   5.694   3.316   8.353  0.5057  1.0936 -0.2511
24775SOL    HW275747   5.812   3.221   8.340 -1.1974 -1.2545  0.6316
24776SOL     OW75748   1.282   7.081   8.806  0.1860 -0.1077  0.1302
24776SOL    HW175749   1.318   7.013   8.864  2.5497  0.4630 -0.5324
24776SOL    HW275750   1.266   7.036   8.723 -0.3015 -0.2866  0.3177
24777SOL     OW75751   8.238   1.219   3.639  0.3416  0.2141 -0.1968
24777SOL    HW175752   8.242   1.150   3.573 -0.7444  0.5526 -0.6397
24777SOL    HW275753   8.175   1.281   3.604 -0.7408  0.0912  1.4682
24778SOL     OW75754   4.841   7.928   6.775 -0.4816 -0.1122  0.0978
24778SOL    HW175755   4.802   7.956   6.858 -0.4173 -0.5096  0.2601
24778SOL    HW275756   4.866   8.010   6.732 -2.5985  0.2694 -0.5693
24779SOL     OW75757   7.114   3.662   6.485  0.6033 -0.1671  0.3124
24779SOL    HW175758   7.156   3.618   6.411  1.6146  0.8737  0.2221
24779SOL    HW275759   7.042   3.712   6.446  0.1903 -0.8018  0.2526
24780SOL     OW75760   5.576   6.822   4.535  0.3376 -0.0041  0.8093
24780SOL    HW175761   5.661   6.859   4.510 -0.1309 -0.1202 -1.0831
24780SOL    HW275762   5.577   6.824   4.631  2.5735 -0.2441  0.8527
24781SOL     OW75763   4.369   6.800   7.141 -0.2313 -0.1028  0.0219
24781SOL    HW175764   4.306   6.866   7.113 -0.4442 -0.4729 -0.3806
24781SOL    HW275765   4.339   6.719   7.101  1.4353  0.0213 -1.6283
24782SOL     OW75766   3.289   8.021   2.292  0.5735  0.6209  0.3945
24782SOL    HW175767   3.343   8.092   2.327  0.6007 -0.1546  2.0274
24782SOL    HW275768   3.208   8.024   2.343  0.9706 -1.1071  1.2243
24783SOL     OW75769   8.252   7.603   8.921  0.8430  0.1156  0.0284
24783SOL    HW175770   8.312   7.529   8.913  1.6617  0.7376  0.3244
24783SOL    HW275771   8.306   7.674   8.955 -0.1783  0.5440  0.7823
24784SOL     OW75772   6.875   1.556   1.714  0.4050 -0.2093 -0.2298
24784SOL    HW175773   6.803   1.551   1.651 -1.5416  1.2310  1.6970
24784SOL    HW275774   6.901   1.648   1.714 -0.5727  0.1378  1.9176
24785SOL     OW75775   0.927   8.311   0.522  0.9975 -0.6500 -0.6187
24785SOL    HW175776   0.902   8.370   0.593 -2.0352 -2.0844 -0.3709
24785SOL    HW275777   0.890   8.227   0.545  0.5109 -1.3596 -3.5195
24786SOL     OW75778   8.598   1.409   7.920 -0.1369  0.1578  0.8746
24786SOL    HW175779   8.603   1.344   7.990  0.2543 -1.6694 -0.7788
24786SOL    HW275780   8.504   1.427   7.910 -0.4791 -1.9439 -0.1630
24787SOL     OW75781   3.891   8.193   8.470 -0.2342 -0.8993 -0.2018
24787SOL    HW175782   3.888   8.223   8.379  2.2100  0.2310 -0.0066
24787SOL    HW275783   3.935   8.107   8.466 -0.2907 -0.9332 -0.1114
24788SOL     OW75784   2.481   6.020   4.968 -0.2610  0.3685 -0.3679
24788SOL    HW175785   2.482   6.002   4.874  0.9620  3.2033 -0.9949
24788SOL    HW275786   2.402   6.072   4.981 -0.4462 -0.0530  0.1909
24789SOL     OW75787   5.082   5.669   0.614 -0.0714  0.0036  0.1685
24789SOL    HW175788   5.024   5.745   0.614 -0.4255 -0.2434 -1.2126
24789SOL    HW275789   5.024   5.595   0.600  0.4584 -0.3617 -0.1163
24790SOL     OW75790   3.976   1.815   3.800 -0.6536 -0.1550  0.1969
24790SOL    HW175791   3.973   1.719   3.799  0.7344 -0.2258  0.2137
24790SOL    HW275792   4.024   1.835   3.881 -1.0052  0.5560  0.2281
24791SOL     OW75793   6.723   5.011   5.586  0.3220 -0.0907  0.0362
24791SOL    HW175794   6.712   4.919   5.607  1.1695 -0.1356  0.3175
24791SOL    HW275795   6.713   5.057   5.670  0.0914  0.0510 -0.0692
24792SOL     OW75796   0.094   2.914   2.105 -0.3412  0.5362 -0.6195
24792SOL    HW175797   0.118   2.824   2.129  2.0056  0.7177 -2.0440
24792SOL    HW275798   0.021   2.903   2.044 -1.8745 -0.2138  1.2313
24793SOL     OW75799   2.104   7.601   6.868  0.0213 -0.4471 -0.6126
24793SOL    HW175800   2.065   7.552   6.796  0.0295 -1.2840 -0.0532
24793SOL    HW275801   2.188   7.631   6.834  1.2243 -3.0455 -0.1355
24794SOL     OW75802   5.736   5.571   8.327  0.3067 -0.2036 -0.0852
24794SOL    HW175803   5.686   5.631   8.383  1.1364 -1.1574  1.7583
24794SOL    HW275804   5.669   5.528   8.274 -0.6994 -0.2355  1.1350
24795SOL     OW75805   8.711   5.291   3.287 -0.1922 -0.2880 -0.4671
24795SOL    HW175806   8.769   5.281   3.362 -1.0435 -0.2125  0.2196
24795SOL    HW275807   8.656   5.213   3.288 -1.0883  0.3280 -0.2118
24796SOL     OW75808   3.176   1.371   7.925  0.1085  0.1230  0.4416
24796SOL    HW175809   3.096   1.325   7.952 -0.7482  2.0645  1.4204
24796SOL    HW275810   3.173   1.371   7.830  0.3830 -2.1923  0.3807
24797SOL     OW75811   5.584   0.119   0.547 -0.0700  0.0919 -0.4555
24797SOL    HW175812   5.649   0.178   0.585  0.6015 -0.8535 -0.1270
24797SOL    HW275813   5.510   0.177   0.525  0.0957  0.8843  0.9460
24798SOL     OW75814   0.359   1.668   2.008 -0.0315 -0.2536 -0.0709
24798SOL    HW175815   0.301   1.611   1.957 -2.5884  1.4082  0.7504
24798SOL    HW275816   0.322   1.755   1.996 -0.2951  0.3383  3.8927
24799SOL     OW75817   7.254   4.282   8.670  0.0519 -0.5635  0.2094
24799SOL    HW175818   7.191   4.271   8.741  0.4086 -0.7966  0.4914
24799SOL    HW275819   7.289   4.194   8.655  1.1604 -0.2439  0.8466
24800SOL     OW75820   5.578   1.345   4.248  0.0204 -0.5764  0.1459
24800SOL    HW175821   5.596   1.307   4.162 -0.4869 -2.0931  0.6823
24800SOL    HW275822   5.505   1.405   4.233 -0.5381 -1.3635 -0.3733
24801SOL     OW75823   7.839   3.883   5.313 -0.0641 -0.1138  0.0248
24801SOL    HW175824   7.852   3.942   5.239 -1.5548 -0.0598 -0.2275
24801SOL    HW275825   7.766   3.922   5.362  0.0569 -0.8361  0.8083
24802SOL     OW75826   4.912   7.781   0.842  0.2635  0.4253 -0.6690
24802SOL    HW175827   4.959   7.843   0.786  0.9808  2.6398  2.1922
24802SOL    HW275828   4.968   7.771   0.919 -1.4569 -1.1700  0.4449
24803SOL     OW75829   3.626   2.627   7.574  0.3840  0.1405  0.2822
24803SOL    HW175830   3.569   2.585   7.639  0.2903 -0.4072 -0.1533
24803SOL    HW275831   3.682   2.686   7.626  0.9271 -0.9553  0.9695
24804SOL     OW75832   1.940   3.897   0.215  0.4308  0.3603  0.2504
24804SOL    HW175833   1.893   3.862   0.290  0.3702 -0.3017 -0.0861
24804SOL    HW275834   2.028   3.861   0.223  0.1998 -0.3837 -0.4272
24805SOL     OW75835   0.730   0.916   0.997 -0.7385 -0.6740  0.2125
24805SOL    HW175836   0.664   0.931   1.065  1.3196  1.3811  1.9621
24805SOL    HW275837   0.705   0.974   0.925 -0.8904  0.0799  0.8560
24806SOL     OW75838   7.198   7.257   2.019  0.4097  0.2376 -0.1326
24806SOL    HW175839   7.287   7.239   1.988  0.7668  1.1977  0.2642
24806SOL    HW275840   7.154   7.173   2.016  1.9187 -0.6752  1.5370
24807SOL     OW75841   0.187   6.821   7.524 -0.0138  0.5162  0.3007
24807SOL    HW175842   0.132   6.858   7.455 -1.1132 -0.4803  0.6029
24807SOL    HW275843   0.258   6.777   7.478 -0.1514  0.7703 -0.1524
24808SOL     OW75844   8.775   2.146   1.711 -0.1329 -0.5507  0.2218
24808SOL    HW175845   8.740   2.127   1.799  1.4573  0.6319  1.1744
24808SOL    HW275846   8.837   2.075   1.694  0.6119 -0.0339  0.7076
24809SOL     OW75847   9.024   4.720   8.018 -0.2067 -0.4528 -0.1030
24809SOL    HW175848   8.937   4.692   7.989 -0.2020 -0.2412 -0.3344
24809SOL    HW275849   9.085   4.670   7.963 -0.1997  0.0577 -0.5724
24810SOL     OW75850   7.647   5.403   0.379  0.5257 -0.3009  0.1758
24810SOL    HW175851   7.613   5.319   0.348 -2.7771  0.3344  1.6562
24810SOL    HW275852   7.718   5.381   0.438 -0.9105 -2.1844  1.3042
24811SOL     OW75853   9.162   7.175   6.445 -0.0024 -0.2358 -0.2753
24811SOL    HW175854   9.131   7.236   6.511  1.2229 -0.9817  1.0660
24811SOL    HW275855   9.221   7.226   6.390  1.7825 -0.3277  1.4235
24812SOL     OW75856   0.652   4.297   4.829 -0.1586  0.1079 -0.1035
24812SOL    HW175857   0.738   4.340   4.819 -0.5491  0.3441 -3.1127
24812SOL    HW275858   0.606   4.316   4.748 -1.6777 -3.1830 -0.1358
24813SOL     OW75859   8.473   3.446   0.124  0.4863 -0.2575 -0.3663
24813SOL    HW175860   8.513   3.532   0.113  2.4841 -1.0166  0.3580
24813SOL    HW275861   8.545   3.391   0.156 -0.6977 -2.2161 -0.9051
24814SOL     OW75862   5.856   5.510   6.844  0.1713 -0.1785 -0.4008
24814SOL    HW175863   5.832   5.602   6.858  0.3750 -0.3638  1.3951
24814SOL    HW275864   5.777   5.461   6.868  1.3031 -0.6389  2.7854
24815SOL     OW75865   5.313   4.704   3.501  0.1098 -0.5739 -0.3324
24815SOL    HW175866   5.399   4.710   3.543  0.7124 -0.7919 -1.4823
24815SOL    HW275867   5.282   4.794   3.497  0.6588 -0.3915 -0.6333
24816SOL     OW75868   1.852   6.966   6.811 -0.0322  0.4192 -0.0557
24816SOL    HW175869   1.864   6.878   6.848  0.3414 -0.2096 -1.6075
24816SOL    HW275870   1.798   6.953   6.734  0.7373  1.4267 -0.7990
24817SOL     OW75871   2.504   6.398   4.916  0.7488 -0.3411  0.1522
24817SOL    HW175872   2.427   6.346   4.939  0.9290 -0.6475  0.0681
24817SOL    HW275873   2.575   6.361   4.968  0.9543 -0.4114 -0.1698
24818SOL     OW75874   8.888   2.459   6.400 -0.2470 -0.5604 -0.0332
24818SOL    HW175875   8.979   2.452   6.429  0.0428  0.0108 -0.7817
24818SOL    HW275876   8.850   2.373   6.421  0.9976 -1.5240 -1.4978
24819SOL     OW75877   6.098   1.342   5.301  0.0605  0.2288  0.2748
24819SOL    HW175878   6.018   1.325   5.351 -1.7360  3.9357 -0.9972
24819SOL    HW275879   6.070   1.347   5.210  2.0612  0.1429 -0.4006
24820SOL     OW75880   7.135   5.013   2.673  0.5114  0.0260  0.0070
24820SOL    HW175881   7.169   5.023   2.584 -1.3203 -0.8753 -0.8696
24820SOL    HW275882   7.189   4.944   2.712  0.4280 -0.5968 -0.9433
24821SOL     OW75883   5.169   3.229   7.416 -0.4424 -0.3367 -0.8327
24821SOL    HW175884   5.261   3.215   7.393 -0.0626  0.4180  0.1505
24821SOL    HW275885   5.150   3.161   7.481 -0.1573  0.3602 -0.0036
24822SOL     OW75886   2.957   5.255   7.146 -0.0769  0.3334 -0.0858
24822SOL    HW175887   2.922   5.344   7.150 -0.9321 -0.0278  1.9521
24822SOL    HW275888   2.910   5.208   7.215  2.2693 -1.0044  0.7037
24823SOL     OW75889   3.941   8.845   8.939 -0.1281 -0.2323  0.5727
24823SOL    HW175890   3.909   8.821   9.026  0.1203 -0.3351  0.6371
24823SOL    HW275891   3.953   8.761   8.894 -2.4545 -0.1150 -0.3685
24824SOL     OW75892   3.935   7.574   4.042 -0.3597  0.3076  0.0108
24824SOL    HW175893   4.015   7.616   4.075 -1.3607  1.3615  1.2081
24824SOL    HW275894   3.946   7.572   3.947  0.9059  0.8092  0.1322
24825SOL     OW75895   8.216   0.394   5.830 -0.5545 -0.2793  0.0926
24825SOL    HW175896   8.245   0.410   5.740 -0.3249 -0.5299  0.1231
24825SOL    HW275897   8.148   0.460   5.845  0.1901  0.5099  0.1136
24826SOL     OW75898   4.890   6.528   1.024 -0.6785 -0.3785 -0.7510
24826SOL    HW175899   4.899   6.441   1.062 -1.0584 -0.3912 -0.6834
24826SOL    HW275900   4.871   6.585   1.099  1.4891  0.1119 -0.5064
24827SOL     OW75901   4.106   6.552   4.815 -0.2597  0.0085  0.0493
24827SOL    HW175902   4.100   6.457   4.812  2.0604 -0.1995 -2.2251
24827SOL    HW275903   4.195   6.569   4.845 -0.7163  1.4911  0.6426
24828SOL     OW75904   2.584   8.820   6.954  0.1084  0.3766  0.1064
24828SOL    HW175905   2.501   8.787   6.989 -0.0074 -0.5734 -1.0009
24828SOL    HW275906   2.560   8.860   6.871  0.6163  1.0523  0.2849
24829SOL     OW75907   2.662   4.850   1.675  0.0929  0.2377  0.2453
24829SOL    HW175908   2.625   4.848   1.764 -0.1592  1.4396  0.1873
24829SOL    HW275909   2.620   4.776   1.630 -0.8160  0.4415  0.7378
24830SOL     OW75910   6.703   8.414   1.375 -0.0603  0.3033  0.7211
24830SOL    HW175911   6.730   8.410   1.283  1.1007 -0.6728  1.0871
24830SOL    HW275912   6.749   8.490   1.410 -1.0716  1.1191  0.3456
24831SOL     OW75913   7.957   8.541   2.979  0.0489  0.3874 -0.2949
24831SOL    HW175914   7.961   8.623   3.029 -0.1597  0.6474 -0.7057
24831SOL    HW275915   7.892   8.488   3.025  0.9834 -0.0004  0.6369
24832SOL     OW75916   2.077   7.659   5.778  0.3299  0.0464 -0.4865
24832SOL    HW175917   2.105   7.575   5.740 -2.2719 -0.4108 -1.6089
24832SOL    HW275918   2.143   7.722   5.749  1.6445 -1.3649 -0.7010
24833SOL     OW75919   4.577   4.584   4.721 -0.1254  0.4835  0.0649
24833SOL    HW175920   4.671   4.589   4.705 -0.2086  0.9686 -0.2886
24833SOL    HW275921   4.537   4.623   4.643 -0.5395  3.4139  1.5777
24834SOL     OW75922   6.174   1.900   8.095  0.5672 -0.2211  0.3611
24834SOL    HW175923   6.177   1.807   8.076  0.4692  0.0811 -1.2514
24834SOL    HW275924   6.265   1.927   8.099  0.5873 -0.2346  0.0075
24835SOL     OW75925   8.942   4.683   8.704 -0.1623  0.3044  0.9628
24835SOL    HW175926   8.933   4.597   8.744 -0.8032 -0.7738 -1.3473
24835SOL    HW275927   9.020   4.676   8.650 -1.1540  0.5884 -0.5543
24836SOL     OW75928   8.641   3.241   7.920 -0.2190  0.4269 -0.2480
24836SOL    HW175929   8.655   3.310   7.985  2.3586 -0.3480  0.1468
24836SOL    HW275930   8.604   3.168   7.970  0.1435  0.4111 -0.0013
24837SOL     OW75931   2.702   2.437   7.526 -0.4444  0.4163 -0.3635
24837SOL    HW175932   2.719   2.349   7.492  1.3137  1.0803 -1.3393
24837SOL    HW275933   2.663   2.484   7.452  0.0670  0.8733 -0.3487
24838SOL     OW75934   0.659   7.402   8.730  0.7267  0.0217 -0.2961
24838SOL    HW175935   0.695   7.399   8.642 -1.0685  0.3608 -1.0792
24838SOL    HW275936   0.617   7.487   8.736 -0.3083 -0.5188  0.4133
24839SOL     OW75937   2.727   3.776   7.044 -0.2134 -0.1548  0.0870
24839SOL    HW175938   2.645   3.821   7.065  1.5152  2.6157  1.4889
24839SOL    HW275939   2.794   3.845   7.048  2.2295 -2.3094 -0.8881
24840SOL     OW75940   7.800   6.682   2.318  0.0688  0.2174  0.3359
24840SOL    HW175941   7.817   6.769   2.354 -0.7030  0.0345  1.1691
24840SOL    HW275942   7.705   6.674   2.318 -0.0115  0.4324 -2.3326
24841SOL     OW75943   4.295   3.569   7.296 -0.3377 -0.4699  0.4688
24841SOL    HW175944   4.301   3.588   7.390 -0.0976  2.7832 -0.0839
24841SOL    HW275945   4.273   3.653   7.256 -0.6774 -1.8025 -2.4034
24842SOL     OW75946   4.864   7.992   7.736  0.2921 -0.1974 -0.3131
24842SOL    HW175947   4.855   7.909   7.689  0.0791  0.1952 -0.9984
24842SOL    HW275948   4.888   7.968   7.825 -0.0222 -1.0015 -0.4386
24843SOL     OW75949   6.712   0.869   0.780 -0.6556 -0.8772 -0.3634
24843SOL    HW175950   6.722   0.897   0.690 -0.4012 -2.3737 -0.8265
24843SOL    HW275951   6.636   0.810   0.779 -1.4474  0.0624  0.6513
24844SOL     OW75952   5.025   2.939   0.871  0.2947  0.1427 -0.2617
24844SOL    HW175953   5.044   2.963   0.961  1.5991 -0.4241 -0.3707
24844SOL    HW275954   5.085   2.867   0.851 -0.3901 -0.1511 -1.3907
24845SOL     OW75955   2.330   5.982   6.245  0.5589 -0.3701 -0.3082
24845SOL    HW175956   2.367   6.066   6.218  1.0427  0.0558  1.5101
24845SOL    HW275957   2.250   5.972   6.194  0.7979  0.9244 -0.9595
24846SOL     OW75958   0.425   5.730   5.662 -0.0399 -0.6758 -0.5319
24846SOL    HW175959   0.342   5.702   5.625 -1.1245  1.5394 -0.0015
24846SOL    HW275960   0.470   5.774   5.590  0.2077 -0.9862 -0.5651
24847SOL     OW75961   0.829   4.348   8.400 -0.2497 -0.7762 -0.5290
24847SOL    HW175962   0.867   4.379   8.318  1.1239 -0.0398  0.3526
24847SOL    HW275963   0.774   4.420   8.430 -0.6639 -1.0024 -0.7327
24848SOL     OW75964   0.449   2.907   6.348 -0.4271  0.0653 -0.2025
24848SOL    HW175965   0.440   2.833   6.287 -1.5788 -0.4229  0.5136
24848SOL    HW275966   0.526   2.885   6.400  1.7534  1.4211 -2.6645
24849SOL     OW75967   7.954   8.822   1.142 -0.2344 -0.5846 -0.1517
24849SOL    HW175968   8.029   8.803   1.198 -0.4510  1.2804  0.8289
24849SOL    HW275969   7.976   8.905   1.100 -0.7155 -1.2275 -1.7709
24850SOL     OW75970   3.327   2.929   4.162 -0.4380  0.3361  0.2541
24850SOL    HW175971   3.389   2.872   4.209 -0.5003  1.5177  1.8524
24850SOL    HW275972   3.323   3.009   4.215 -1.6719  1.1511 -1.0038
24851SOL     OW75973   4.737   6.163   7.293  0.9459 -0.7344  0.5125
24851SOL    HW175974   4.829   6.189   7.301  1.3594 -0.5501 -3.1388
24851SOL    HW275975   4.740   6.070   7.272  0.4331 -0.4778 -0.8031
24852SOL     OW75976   0.597   2.729   4.918  0.2312 -0.4630  0.4979
24852SOL    HW175977   0.664   2.670   4.884 -0.0817 -0.9541  0.7272
24852SOL    HW275978   0.581   2.699   5.007  1.1049  0.8622  1.1408
24853SOL     OW75979   7.767   0.255   5.076 -0.1459  0.1067 -0.1949
24853SOL    HW175980   7.763   0.285   5.167 -0.0248 -0.0178 -0.1478
24853SOL    HW275981   7.861   0.248   5.057 -0.1545  0.7789 -0.5433
24854SOL     OW75982   0.540   5.131   5.568  0.0500 -0.5136  0.5349
24854SOL    HW175983   0.552   5.226   5.559 -0.2454 -0.4777  0.5192
24854SOL    HW275984   0.446   5.120   5.582  0.0865 -0.8039  0.5542
24855SOL     OW75985   3.322   9.172   7.239  0.2382  0.2903  0.2544
24855SOL    HW175986   3.326   9.151   7.146  1.0979  1.0520  0.1019
24855SOL    HW275987   3.252   9.117   7.274 -1.4762  1.4346 -1.2266
24856SOL     OW75988   1.907   8.351   1.615 -0.1827  0.5863 -0.1716
24856SOL    HW175989   1.977   8.318   1.671  0.4767  1.5251 -0.4275
24856SOL    HW275990   1.908   8.292   1.539  1.0870  1.2315 -0.6925
24857SOL     OW75991   5.515   3.469   5.153 -0.4093  0.1261  0.2847
24857SOL    HW175992   5.512   3.524   5.075  0.4898  0.5255  0.5161
24857SOL    HW275993   5.504   3.380   5.121  0.5213  0.2309 -0.3775
24858SOL     OW75994   6.599   8.717   7.942  0.0842 -0.3595 -0.1787
24858SOL    HW175995   6.560   8.797   7.907  0.1564 -0.9724 -1.7267
24858SOL    HW275996   6.539   8.648   7.913  1.1342 -1.0756 -0.6760
24859SOL     OW75997   9.235   8.982   6.669 -0.3577 -0.4495  0.3027
24859SOL    HW175998   9.149   9.024   6.662 -0.6621 -1.2800 -1.4134
24859SOL    HW275999   9.253   8.981   6.763 -1.5378  1.0847  0.5867
24860SOL     OW76000   8.012   1.963   3.938  0.2408  0.1103  0.6798
24860SOL    HW176001   8.068   2.028   3.896  3.5685 -1.0989  2.8561
24860SOL    HW276002   8.025   1.883   3.887  1.6571 -0.5053  1.9263
24861SOL     OW76003   7.700   4.235   4.704 -0.5265  0.3339  0.2961
24861SOL    HW176004   7.761   4.254   4.776  1.7383 -0.8526 -1.1746
24861SOL    HW276005   7.698   4.317   4.653  2.0023 -0.3166 -1.0372
24862SOL     OW76006   7.014   5.394   0.411  0.1202  0.4827  0.0499
24862SOL    HW176007   6.956   5.468   0.431 -0.1785  0.2517  0.0434
24862SOL    HW276008   6.958   5.330   0.368  0.5821  0.6342 -0.7989
24863SOL     OW76009   6.758   7.098   2.343 -0.3223 -0.4446  0.0938
24863SOL    HW176010   6.754   7.003   2.331 -0.1763 -0.3973 -0.3190
24863SOL    HW276011   6.819   7.110   2.416 -1.6600 -0.7584  1.3279
24864SOL     OW76012   3.516   2.177   0.136 -0.4300 -0.3139 -0.2009
24864SOL    HW176013   3.477   2.206   0.054 -0.2209 -0.3033 -0.2956
24864SOL    HW276014   3.543   2.087   0.119  1.7627  0.4136 -0.9009
24865SOL     OW76015   6.638   8.895   5.674 -0.0045  0.0842 -0.7680
24865SOL    HW176016   6.657   8.815   5.721  1.3982  1.8673  1.9565
24865SOL    HW276017   6.703   8.898   5.603  0.2442 -0.9295 -0.5880
24866SOL     OW76018   1.445   3.841   1.449 -0.4827 -0.0303 -0.4739
24866SOL    HW176019   1.368   3.833   1.505 -0.8270 -1.6728 -1.1317
24866SOL    HW276020   1.501   3.768   1.474 -0.5808 -0.7235 -2.1348
24867SOL     OW76021   1.433   2.000   5.252  0.2024  0.2521  0.0001
24867SOL    HW176022   1.495   2.055   5.203  1.1032  0.0896  0.9423
24867SOL    HW276023   1.426   1.920   5.200  0.9536  0.1870 -0.0134
24868SOL     OW76024   5.986   3.242   0.596  0.8059 -0.0351 -0.5326
24868SOL    HW176025   6.074   3.264   0.625 -0.1292  1.1343  1.6011
24868SOL    HW276026   5.967   3.158   0.637  0.1532  0.7606  0.8593
24869SOL     OW76027   2.354   2.680   0.593 -0.0118  0.1200  0.6700
24869SOL    HW176028   2.325   2.597   0.554 -1.9466  0.6959  0.7700
24869SOL    HW276029   2.447   2.668   0.607 -0.2736 -2.1457  0.9277
24870SOL     OW76030   7.700   7.512   4.759  0.3714 -0.3931 -0.7658
24870SOL    HW176031   7.795   7.526   4.762  0.2340  0.3563  0.3367
24870SOL    HW276032   7.672   7.557   4.679  0.8774 -0.1994 -0.8376
24871SOL     OW76033   8.346   3.740   1.032  0.4970  0.4090  0.2915
24871SOL    HW176034   8.408   3.675   1.065 -2.1542 -2.0732  0.7908
24871SOL    HW276035   8.336   3.718   0.940 -0.7508 -0.2711  0.5643
24872SOL     OW76036   2.641   8.967   5.481  0.9073 -0.1288  0.3279
24872SOL    HW176037   2.637   9.050   5.434  1.3483  0.4226  1.2173
24872SOL    HW276038   2.714   8.920   5.441  0.6481 -0.0987 -0.1876
24873SOL     OW76039   6.276   0.516   8.040  0.1247  0.5485  0.3600
24873SOL    HW176040   6.250   0.424   8.042  1.0820  0.2198 -0.7366
24873SOL    HW276041   6.301   0.536   8.130  1.4481 -0.7540  0.3261
24874SOL     OW76042   2.554   3.617   2.435  0.0246  0.4570  0.3766
24874SOL    HW176043   2.572   3.692   2.377 -0.5530 -1.1898 -2.0821
24874SOL    HW276044   2.487   3.650   2.495  0.0534  2.0531 -0.3917
24875SOL     OW76045   6.906   1.632   4.459 -0.0881 -0.8714  0.4560
24875SOL    HW176046   6.974   1.646   4.394  0.1467 -1.3181  0.5942
24875SOL    HW276047   6.869   1.546   4.437 -2.4050  0.4543 -1.2087
24876SOL     OW76048   7.776   3.944   8.848 -0.3355  0.0427  0.4552
24876SOL    HW176049   7.762   3.902   8.762 -0.3507 -0.8918  0.9002
24876SOL    HW276050   7.867   3.926   8.869 -0.6089 -0.6425  1.1001
24877SOL     OW76051   1.227   0.562   7.370 -0.1371  0.0357 -0.1856
24877SOL    HW176052   1.267   0.535   7.287  0.4944 -1.7380  0.6523
24877SOL    HW276053   1.175   0.486   7.396  0.0494  0.3935  1.2657
24878SOL     OW76054   1.945   9.095   9.012 -0.3096 -0.0074  0.1787
24878SOL    HW176055   1.878   9.038   8.974 -0.2257  0.6959 -1.0821
24878SOL    HW276056   1.936   9.178   8.965  0.8321  0.4032  0.6336
24879SOL     OW76057   2.173   1.969   7.173 -0.7497  0.2904  0.0439
24879SOL    HW176058   2.175   1.918   7.255  0.0456 -1.7372 -1.1471
24879SOL    HW276059   2.100   1.931   7.124 -0.0661  0.2084 -0.9245
24880SOL     OW76060   4.849   4.702   8.047  0.0835  0.4371 -0.2284
24880SOL    HW176061   4.922   4.735   7.994  0.1952  2.6812  1.2004
24880SOL    HW276062   4.792   4.777   8.059 -1.7454 -0.9005 -0.0515
24881SOL     OW76063   1.127   8.514   4.695  0.2389  0.2510  0.4190
24881SOL    HW176064   1.096   8.573   4.764 -0.0567 -1.2298  1.6133
24881SOL    HW276065   1.205   8.473   4.733  1.2935  0.9113 -0.9566
24882SOL     OW76066   7.801   6.950   6.136  0.4504  0.0868  0.4263
24882SOL    HW176067   7.806   6.875   6.077  1.2566  0.3224  0.1866
24882SOL    HW276068   7.849   6.923   6.215 -0.1471 -0.0260  0.7548
24883SOL     OW76069   2.457   7.739   8.181 -0.2415  0.4482 -0.0660
24883SOL    HW176070   2.551   7.740   8.198  0.5741 -0.2323 -3.5926
24883SOL    HW276071   2.418   7.709   8.262  2.5296  1.1325  1.6578
24884SOL     OW76072   5.121   1.532   4.347 -0.1038 -0.3153 -0.4823
24884SOL    HW176073   5.160   1.448   4.371 -0.2090 -0.6384 -1.4096
24884SOL    HW276074   5.185   1.572   4.289  0.1735  0.4841  0.3464
24885SOL     OW76075   0.158   5.159   4.856 -0.1327  0.4227  0.1801
24885SOL    HW176076   0.137   5.242   4.899 -0.0351  0.8511 -0.5679
24885SOL    HW276077   0.183   5.185   4.767 -0.4388 -0.4374 -0.1661
24886SOL     OW76078   2.882   1.585   2.404 -0.0642  0.3731 -0.1546
24886SOL    HW176079   2.889   1.607   2.497  1.2479  1.4544 -0.4829
24886SOL    HW276080   2.967   1.607   2.367 -0.6348  0.1900 -1.6709
24887SOL     OW76081   5.289   6.519   3.371 -0.1657  0.4801 -0.1924
24887SOL    HW176082   5.354   6.519   3.442  0.1149  1.8758 -0.4149
24887SOL    HW276083   5.206   6.498   3.415  0.2249 -0.0167  0.3185
24888SOL     OW76084   6.447   5.568   7.905 -0.5907 -0.6139 -0.4204
24888SOL    HW176085   6.540   5.581   7.886 -0.0378 -2.9046  0.3857
24888SOL    HW276086   6.421   5.647   7.952  0.7235  0.4014 -1.3129
24889SOL     OW76087   3.249   5.938   1.030 -0.1409  0.1623 -0.1693
24889SOL    HW176088   3.223   5.993   0.956 -1.6226 -0.8534 -0.4457
24889SOL    HW276089   3.228   5.849   1.003 -1.0115 -0.2062  1.5896
24890SOL     OW76090   4.997   1.948   9.147 -0.0549  0.4671  0.0573
24890SOL    HW176091   4.985   2.039   9.119 -0.5045  0.7841  1.2055
24890SOL    HW276092   4.963   1.947   9.236  0.8869 -0.5988  0.4158
24891SOL     OW76093   8.909   0.321   4.861  0.0156  0.3072  0.1151
24891SOL    HW176094   8.969   0.363   4.923  0.6875 -0.5567  0.0607
24891SOL    HW276095   8.855   0.263   4.915 -0.2179  0.4598  0.0482
24892SOL     OW76096   2.559   1.762   0.242  0.1892  0.5297 -0.0436
24892SOL    HW176097   2.576   1.802   0.327  1.5143 -0.2332  0.0756
24892SOL    HW276098   2.580   1.669   0.254  2.2644  0.7098 -1.6728
24893SOL     OW76099   0.410   0.203   3.394  0.3519  0.0004 -0.3850
24893SOL    HW176100   0.392   0.139   3.325  0.2956 -1.9311  1.3315
24893SOL    HW276101   0.327   0.213   3.440  1.3845 -2.4057  2.2674
24894SOL     OW76102   6.587   2.052   7.113  0.6348  0.5577  0.6389
24894SOL    HW176103   6.675   2.053   7.074  0.5273  1.7686  0.4067
24894SOL    HW276104   6.600   2.081   7.203  0.3820  1.5294  0.3740
24895SOL     OW76105   1.360   8.770   2.014 -0.2915 -0.1785 -0.1892
24895SOL    HW176106   1.351   8.809   1.928 -2.3458  1.4621  0.6885
24895SOL    HW276107   1.447   8.795   2.043  0.6591 -1.2449 -1.9694
24896SOL     OW76108   8.184   5.218   4.263 -0.4397  0.2202  0.2987
24896SOL    HW176109   8.129   5.280   4.311 -1.5753  0.2060 -0.9304
24896SOL    HW276110   8.151   5.132   4.289 -2.6646  0.2085 -2.1595
24897SOL     OW76111   2.914   7.034   2.761  0.1184  0.4415 -0.1701
24897SOL    HW176112   2.989   6.999   2.713 -1.2001 -1.8194 -0.7105
24897SOL    HW276113   2.847   6.966   2.755 -1.2931  1.5167  2.0226
24898SOL     OW76114   6.215   2.957   1.576 -0.3319 -0.2689 -0.0178
24898SOL    HW176115   6.271   2.914   1.641  1.1263  2.5280  0.7239
24898SOL    HW276116   6.258   2.939   1.492  0.7829  0.4495  0.3783
24899SOL     OW76117   9.033   6.599   6.765  0.5729 -0.3177  0.8259
24899SOL    HW176118   9.056   6.582   6.856  0.4911  1.4333  1.2115
24899SOL    HW276119   8.938   6.611   6.766  0.6498  0.3253  0.6249
24900SOL     OW76120   0.980   0.168   0.742  0.4877 -0.3121  0.6547
24900SOL    HW176121   0.926   0.171   0.820  3.0123  1.5571  2.4875
24900SOL    HW276122   1.033   0.089   0.752 -0.5693 -1.1829 -0.2681
24901SOL     OW76123   7.819   4.317   3.945 -0.2337  0.1962  0.0289
24901SOL    HW176124   7.792   4.367   4.022  1.5825 -0.2654  1.0130
24901SOL    HW276125   7.901   4.275   3.970 -2.0726 -4.2104 -0.3358
24902SOL     OW76126   0.309   4.384   3.549 -0.1909  0.4411 -0.5538
24902SOL    HW176127   0.248   4.458   3.554  0.7790  1.2438 -0.4156
24902SOL    HW276128   0.394   4.423   3.532  0.4345 -0.6003  0.0364
24903SOL     OW76129   4.855   3.016   7.437  0.2064  0.1249  0.0116
24903SOL    HW176130   4.860   2.921   7.432 -0.6502 -0.0396  1.5832
24903SOL    HW276131   4.933   3.041   7.487 -0.7503 -0.0012  1.6315
24904SOL     OW76132   1.678   5.903   3.281  0.3183  0.4249  0.1007
24904SOL    HW176133   1.650   5.854   3.358 -0.4615 -0.4479 -0.7101
24904SOL    HW276134   1.597   5.925   3.235  0.7701  0.9406 -0.4635
24905SOL     OW76135   4.320   7.266   6.634  0.1331 -0.0420  0.0445
24905SOL    HW176136   4.230   7.273   6.667  0.0529  0.6116 -0.3092
24905SOL    HW276137   4.313   7.211   6.557 -0.1436  0.9242 -0.6375
24906SOL     OW76138   7.639   2.349   3.027 -0.0409  0.3061 -0.0056
24906SOL    HW176139   7.645   2.442   3.050 -1.3646  0.4438 -0.1500
24906SOL    HW276140   7.653   2.303   3.110 -0.2322  0.6725  0.2353
24907SOL     OW76141   4.528   5.893   3.707 -0.0061  0.4891 -0.0992
24907SOL    HW176142   4.605   5.853   3.666 -0.4894  0.8201 -1.3604
24907SOL    HW276143   4.565   5.957   3.768  0.7374 -0.6345  0.6740
24908SOL     OW76144   7.352   7.854   0.021 -0.3220 -0.5921 -0.6033
24908SOL    HW176145   7.335   7.931  -0.032 -1.5858 -0.6521 -0.3094
24908SOL    HW276146   7.356   7.782  -0.042  0.3318 -0.3732 -0.8225
24909SOL     OW76147   2.256   0.562   3.475  0.0644 -0.0023 -0.2779
24909SOL    HW176148   2.339   0.576   3.520  0.4809  0.3058 -1.1255
24909SOL    HW276149   2.199   0.632   3.508  0.4979  0.4824 -0.5424
24910SOL     OW76150   8.980   3.350   3.415 -0.4014 -0.2385  0.0011
24910SOL    HW176151   8.893   3.368   3.377 -2.0778 -1.0468  3.1064
24910SOL    HW276152   9.009   3.434   3.449 -0.9999 -0.3584  0.8385
24911SOL     OW76153   2.446   7.847   6.206  0.0171  0.3133 -0.4968
24911SOL    HW176154   2.385   7.818   6.274 -0.2048 -0.3215 -0.9662
24911SOL    HW276155   2.399   7.835   6.124  1.4089 -2.0428 -1.0494
24912SOL     OW76156   2.248   0.990   1.441  0.2209 -0.1475  0.3146
24912SOL    HW176157   2.300   1.061   1.479  0.5141  0.3916 -1.0449
24912SOL    HW276158   2.305   0.914   1.444  0.3839 -0.0152  0.5764
24913SOL     OW76159   7.004   5.164   5.078  0.3284  0.0973  1.0128
24913SOL    HW176160   7.074   5.138   5.019  2.2082  0.9201  2.7467
24913SOL    HW276161   6.986   5.086   5.131 -1.8788 -0.8750 -0.9850
24914SOL     OW76162   0.882   6.725   2.021 -0.5012 -0.5358 -0.3961
24914SOL    HW176163   0.861   6.633   2.010  0.6569 -0.6785 -1.5807
24914SOL    HW276164   0.975   6.732   2.002 -0.0519  0.5529  1.7694
24915SOL     OW76165   3.819   9.200   3.209  0.1677  0.1852 -0.2714
24915SOL    HW176166   3.745   9.208   3.269 -0.5103 -0.2985 -1.0162
24915SOL    HW276167   3.779   9.196   3.122  1.0272 -0.6890 -0.6470
24916SOL     OW76168   5.233   0.287   4.955 -0.3639 -0.0265 -0.3477
24916SOL    HW176169   5.143   0.293   4.924 -0.6927  0.2479  0.6136
24916SOL    HW276170   5.285   0.335   4.890 -1.0218  0.5461 -0.4561
24917SOL     OW76171   8.040   0.051   0.237 -0.2627 -0.2290  0.1447
24917SOL    HW176172   7.988   0.017   0.165 -0.7590  1.7479 -0.4936
24917SOL    HW276173   7.981   0.047   0.313 -0.8016  0.4619 -0.2219
24918SOL     OW76174   6.100   7.776   3.485  0.1612 -0.2824  0.3299
24918SOL    HW176175   6.160   7.809   3.418 -0.3740  1.0238  0.4508
24918SOL    HW276176   6.018   7.760   3.439 -0.0485  0.0978  0.5682
24919SOL     OW76177   1.359   2.563   5.561  0.4059  0.2479  0.4586
24919SOL    HW176178   1.393   2.574   5.650  0.9271  2.1894  0.0610
24919SOL    HW276179   1.273   2.523   5.572  0.3886  0.6368  1.8471
24920SOL     OW76180   0.058   3.468   1.762  0.2723  0.2447 -0.4468
24920SOL    HW176181   0.127   3.532   1.780 -0.0546  0.5512 -0.2693
24920SOL    HW276182   0.081   3.432   1.676 -0.0263  1.2569 -0.9708
24921SOL     OW76183   8.234   8.580   3.668  0.1416  0.1167  0.2418
24921SOL    HW176184   8.180   8.572   3.590 -0.4810  0.0184  0.6813
24921SOL    HW276185   8.276   8.494   3.676 -1.0608 -0.4332  0.9323
24922SOL     OW76186   2.448   7.898   7.101  0.3361  0.0445  0.4372
24922SOL    HW176187   2.506   7.823   7.090  0.5211  0.2930 -0.3291
24922SOL    HW276188   2.366   7.871   7.059 -0.0973 -0.2799  1.4563
24923SOL     OW76189   6.081   8.862   3.237 -0.1794 -0.3621 -0.1319
24923SOL    HW176190   6.110   8.844   3.327  1.7146  0.0500 -0.6290
24923SOL    HW276191   6.104   8.954   3.222  0.7469 -0.7895 -1.4775
24924SOL     OW76192   7.312   7.725   3.800 -0.1250 -0.7518  0.3522
24924SOL    HW176193   7.362   7.792   3.755  0.2738 -0.1344  1.6607
24924SOL    HW276194   7.247   7.696   3.736 -0.2193  0.7882 -0.2831
24925SOL     OW76195   6.326   3.629   3.482  0.1457  0.4639  0.9065
24925SOL    HW176196   6.236   3.644   3.511 -0.4492 -0.2135 -0.4833
24925SOL    HW276197   6.321   3.634   3.386  1.4792 -0.1192  0.7920
24926SOL     OW76198   2.892   3.218   0.296  0.2286  0.0385  0.2345
24926SOL    HW176199   2.818   3.236   0.353  0.4939  1.6035  0.1183
24926SOL    HW276200   2.855   3.165   0.225 -0.8889  1.1565 -0.0544
24927SOL     OW76201   5.789   1.941   4.641 -0.6376  0.9306 -0.1719
24927SOL    HW176202   5.778   2.036   4.652  1.7861  1.2888 -0.3337
24927SOL    HW276203   5.829   1.932   4.555 -0.6064 -0.2450 -0.0438
24928SOL     OW76204   9.010   4.178   1.454 -0.0855  0.5614 -0.3869
24928SOL    HW176205   9.069   4.209   1.523  0.4029  2.1298 -1.4456
24928SOL    HW276206   8.944   4.247   1.447 -0.0577  0.4929 -1.5383
24929SOL     OW76207   0.244   6.717   2.327  0.0444 -0.1282  0.0386
24929SOL    HW176208   0.261   6.684   2.239  0.7612 -1.5009  0.6549
24929SOL    HW276209   0.150   6.703   2.340 -0.3785  1.4936 -1.0361
24930SOL     OW76210   8.511   5.288   8.388  0.8191 -0.0574 -0.0708
24930SOL    HW176211   8.584   5.280   8.449  1.2939 -0.5539 -0.6851
24930SOL    HW276212   8.469   5.202   8.390 -0.5349  0.6068  1.2330
24931SOL     OW76213   7.897   4.786   1.847  0.2464 -0.1023 -0.6646
24931SOL    HW176214   7.888   4.729   1.770 -1.4027 -0.8002 -0.0157
24931SOL    HW276215   7.832   4.753   1.909 -1.5732  3.0944 -0.6406
24932SOL     OW76216   2.197   0.379   2.169  0.0212 -0.3672 -0.3137
24932SOL    HW176217   2.240   0.348   2.089  1.2785  0.0713  0.1631
24932SOL    HW276218   2.262   0.363   2.238 -0.6075  0.2943  0.4409
24933SOL     OW76219   2.996   6.440   0.503  0.2514 -0.5496  0.5309
24933SOL    HW176220   3.076   6.415   0.551 -0.1763 -0.6932  1.1898
24933SOL    HW276221   2.925   6.407   0.558 -0.2424 -1.7494 -0.7959
24934SOL     OW76222   1.852   3.424   7.884 -0.1676 -0.3048 -0.0236
24934SOL    HW176223   1.778   3.382   7.928  1.8899 -3.2946  0.9024
24934SOL    HW276224   1.838   3.407   7.791 -2.2326  2.1382 -0.2909
24935SOL     OW76225   3.941   0.104   1.429  0.0726  0.5190 -0.2183
24935SOL    HW176226   3.963   0.079   1.339  2.3699  0.1077  0.4143
24935SOL    HW276227   4.001   0.053   1.483 -0.7548  1.3374  1.5283
24936SOL     OW76228   5.939   6.832   9.257  0.2849  0.6088 -0.3067
24936SOL    HW176229   5.916   6.889   9.184 -0.2674  0.0654 -0.5684
24936SOL    HW276230   6.029   6.805   9.240  0.3942  1.0494 -0.4156
24937SOL     OW76231   6.721   8.606   4.890 -0.0963 -0.0895  0.1757
24937SOL    HW176232   6.738   8.576   4.801  3.9661  0.9868  0.4138
24937SOL    HW276233   6.741   8.700   4.887  0.7688 -0.1580  2.3225
24938SOL     OW76234   8.398   6.878   0.394  0.0650  0.1388  0.2251
24938SOL    HW176235   8.380   6.849   0.484 -0.5921 -0.2516 -0.0231
24938SOL    HW276236   8.339   6.953   0.381  0.0342  0.0864  0.0636
24939SOL     OW76237   5.000   8.835   3.169 -0.5231  0.4255 -0.2759
24939SOL    HW176238   4.954   8.892   3.107 -0.8748  1.3550  0.7886
24939SOL    HW276239   4.972   8.866   3.255  1.4259  0.4645  0.4076
24940SOL     OW76240   5.338   2.505   7.739  0.8262  0.8500 -0.1039
24940SOL    HW176241   5.351   2.506   7.644 -1.0639 -2.7131 -0.5742
24940SOL    HW276242   5.248   2.537   7.751  1.0027  1.1314  0.5138
24941SOL     OW76243   1.113   8.182   1.913  0.2984  0.5332  0.4864
24941SOL    HW176244   1.059   8.252   1.877 -0.4311 -0.3014 -0.0982
24941SOL    HW276245   1.165   8.151   1.839 -0.8855 -0.8979  0.2052
24942SOL     OW76246   6.059   5.087   2.584 -0.4307 -0.0811  0.0936
24942SOL    HW176247   6.144   5.125   2.608 -1.3330  1.1266  1.6416
24942SOL    HW276248   5.996   5.135   2.638 -2.2257 -0.2201 -1.7457
24943SOL     OW76249   3.745   4.680   2.029 -0.3010  0.2954 -0.0919
24943SOL    HW176250   3.667   4.730   2.005  1.2295  2.8964  0.0281
24943SOL    HW276251   3.773   4.638   1.947 -0.9408  0.6285 -0.4884
24944SOL     OW76252   3.030   6.184   1.341  0.1470 -0.7359  0.3859
24944SOL    HW176253   3.106   6.231   1.378  0.0174  1.1157 -1.4910
24944SOL    HW276254   3.067   6.103   1.307  1.3598  0.1372 -0.5050
24945SOL     OW76255   0.343   3.298   8.183 -0.9003 -0.3460  0.1787
24945SOL    HW176256   0.355   3.342   8.099  0.3263 -1.0915 -0.0622
24945SOL    HW276257   0.322   3.207   8.160  1.1980 -1.0106  0.6153
24946SOL     OW76258   4.433   6.761   5.330 -0.1029  0.1962  0.2999
24946SOL    HW176259   4.366   6.728   5.269  1.5032 -1.1961 -0.8019
24946SOL    HW276260   4.424   6.705   5.407  0.4990 -0.7559 -0.2986
24947SOL     OW76261   2.948   1.981   7.122 -0.2021  0.4483 -0.3409
24947SOL    HW176262   2.970   1.900   7.076 -1.1748 -0.3699  0.5838
24947SOL    HW276263   2.970   2.051   7.060 -1.2534 -0.6005 -1.9641
24948SOL     OW76264   1.675   1.127   3.510 -0.1048 -0.1122 -0.1079
24948SOL    HW176265   1.759   1.120   3.464 -1.6331 -0.1071 -3.1293
24948SOL    HW276266   1.627   1.048   3.485 -1.2310  0.1583  1.1032
24949SOL     OW76267   5.089   0.183   1.351 -0.6808  0.3200 -0.2386
24949SOL    HW176268   5.163   0.134   1.389 -0.6299  1.1806  0.8001
24949SOL    HW276269   5.079   0.259   1.408  0.0237  2.2056 -2.4904
24950SOL     OW76270   8.343   1.841   0.221  0.2137 -0.1007  0.2147
24950SOL    HW176271   8.335   1.754   0.183  1.2862 -1.4211  2.7569
24950SOL    HW276272   8.269   1.848   0.281  1.6886 -0.5374  2.1861
24951SOL     OW76273   5.792   5.360   8.506  0.3505  0.2905 -0.1830
24951SOL    HW176274   5.763   5.296   8.442 -1.7475  0.3646  0.6122
24951SOL    HW276275   5.813   5.438   8.455 -0.7606  0.1732 -0.8473
24952SOL     OW76276   7.841   2.574   7.411  0.5147 -0.3623  0.3559
24952SOL    HW176277   7.887   2.524   7.477 -0.5844 -0.3432  1.1672
24952SOL    HW276278   7.904   2.585   7.340  1.1320 -1.9040  0.6434
24953SOL     OW76279   8.992   8.115   7.652 -0.2721 -0.1735 -0.0295
24953SOL    HW176280   9.012   8.204   7.623  2.0559 -0.9494 -1.0473
24953SOL    HW276281   9.039   8.058   7.590 -2.5285 -2.1763 -0.0526
24954SOL     OW76282   6.839   9.041   4.623  0.4875 -0.5794  0.6280
24954SOL    HW176283   6.819   8.974   4.688 -3.3177 -0.2294  0.0471
24954SOL    HW276284   6.870   8.993   4.547 -0.7278 -1.6036  0.7447
24955SOL     OW76285   1.235   2.547   0.649 -0.9159 -0.3602  0.4717
24955SOL    HW176286   1.292   2.472   0.634 -0.7504 -0.2644  0.6354
24955SOL    HW276287   1.235   2.560   0.743 -0.6619  0.0718  0.4109
24956SOL     OW76288   1.482   5.491   4.558 -0.3198 -0.6646 -0.6132
24956SOL    HW176289   1.475   5.470   4.651 -0.4075  1.5814 -0.0410
24956SOL    HW276290   1.532   5.418   4.521  0.2579 -1.3257  1.3154
24957SOL     OW76291   5.579   0.691   8.585  0.6913 -0.2601 -0.3804
24957SOL    HW176292   5.592   0.785   8.574 -1.4405  0.0122 -1.1088
24957SOL    HW276293   5.639   0.651   8.522  1.0367  0.6363 -0.6344
24958SOL     OW76294   0.233   2.989   8.310  0.0940 -0.3863  0.0482
24958SOL    HW176295   0.270   2.931   8.377  0.3798 -2.1958 -1.6012
24958SOL    HW276296   0.210   3.069   8.358 -0.2780 -1.8233  2.4161
24959SOL     OW76297   2.617   8.654   6.411 -0.8147  0.5026 -0.4497
24959SOL    HW176298   2.590   8.720   6.347 -0.0976  1.3748  0.1267
24959SOL    HW276299   2.588   8.688   6.495 -0.5222  0.0352 -0.1521
24960SOL     OW76300   4.427   7.503   7.506  0.9134  0.5200  0.3352
24960SOL    HW176301   4.404   7.419   7.546  0.8630  0.1297 -0.4937
24960SOL    HW276302   4.354   7.522   7.446  1.0995  0.9741  0.2471
24961SOL     OW76303   7.333   1.355   1.432 -0.2706 -0.4035 -0.5256
24961SOL    HW176304   7.426   1.336   1.421  0.2635  1.4402  0.3614
24961SOL    HW276305   7.329   1.450   1.442 -1.9311 -0.6427  2.1221
24962SOL     OW76306   4.301   2.556   0.359  0.8209  0.4225 -0.4571
24962SOL    HW176307   4.268   2.575   0.271  0.9605  0.9915 -0.3899
24962SOL    HW276308   4.265   2.626   0.414  1.0547  0.2905 -0.1337
24963SOL     OW76309   8.695   7.480   1.522  0.2368  0.1553  0.3420
24963SOL    HW176310   8.655   7.421   1.458  0.4136  1.9748 -1.5390
24963SOL    HW276311   8.786   7.487   1.493 -0.1270  2.4811 -0.4071
24964SOL     OW76312   2.781   6.526   1.915  0.1112  0.4089  0.3805
24964SOL    HW176313   2.746   6.590   1.978 -0.5738 -0.1096  0.5430
24964SOL    HW276314   2.775   6.442   1.961  2.0095  0.3462  0.5702
24965SOL     OW76315   0.606   7.996   4.656  0.2600  0.5006  0.5265
24965SOL    HW176316   0.524   8.028   4.694 -0.0294 -0.8041  1.0535
24965SOL    HW276317   0.624   7.914   4.703  0.2595 -0.8239 -1.6337
24966SOL     OW76318   3.646   0.882   7.877  0.0073 -0.0539  0.3076
24966SOL    HW176319   3.725   0.835   7.903  1.3759  0.7091 -2.0719
24966SOL    HW276320   3.652   0.966   7.922 -0.9678 -1.0046  2.3252
24967SOL     OW76321   6.833   8.631   4.131  0.2000  0.3799 -0.0157
24967SOL    HW176322   6.838   8.536   4.120  1.9373  0.0601  2.7460
24967SOL    HW276323   6.747   8.654   4.094  0.5716 -1.8931 -2.6191
24968SOL     OW76324   8.686   5.353   8.992  0.1461 -0.1234  0.4844
24968SOL    HW176325   8.781   5.367   8.987  0.6159 -2.9826 -1.2785
24968SOL    HW276326   8.673   5.307   9.075  0.5761 -1.0294  0.0724
24969SOL     OW76327   0.785   4.765   0.681  0.4552 -0.3191 -0.3842
24969SOL    HW176328   0.804   4.741   0.590 -0.7150  1.1030 -1.0445
24969SOL    HW276329   0.771   4.682   0.725  1.6270 -1.0716 -1.3496
24970SOL     OW76330   0.930   1.413   3.535 -0.1844 -0.6159 -0.1636
24970SOL    HW176331   0.840   1.402   3.567 -0.1115 -0.7267  0.0034
24970SOL    HW276332   0.961   1.492   3.579 -0.6009  0.1057 -1.1227
24971SOL     OW76333   6.587   0.885   6.271  0.1763 -0.3247 -0.0309
24971SOL    HW176334   6.678   0.855   6.277  0.3072  0.2525  0.9406
24971SOL    HW276335   6.540   0.832   6.335  0.1405  0.4925  0.6358
24972SOL     OW76336   4.269   7.100   2.297 -0.2912 -0.6603  0.0585
24972SOL    HW176337   4.245   7.115   2.206  1.6433 -0.6187 -0.5078
24972SOL    HW276338   4.322   7.176   2.321 -0.4236 -0.8701  1.0783
24973SOL     OW76339   3.763   0.522   1.924  0.2214  0.3281  0.6012
24973SOL    HW176340   3.691   0.459   1.928  2.0881 -2.4097 -2.6068
24973SOL    HW276341   3.753   0.565   1.839  1.8237  0.4938  0.4569
24974SOL     OW76342   3.935   6.531   2.454 -0.2085  0.4932  0.1205
24974SOL    HW176343   3.965   6.622   2.452 -0.6966  0.6544 -0.1806
24974SOL    HW276344   3.922   6.513   2.547 -0.9898  1.0369  0.1275
24975SOL     OW76345   3.305   4.690   0.165  0.9404  0.5210  0.1358
24975SOL    HW176346   3.217   4.654   0.149  0.2887  1.9446  0.3525
24975SOL    HW276347   3.363   4.615   0.156 -0.2338 -0.3431 -0.6551
24976SOL     OW76348   6.676   4.297   7.805 -0.4500 -0.3693  0.5799
24976SOL    HW176349   6.676   4.245   7.724 -0.6183  1.9568 -0.9892
24976SOL    HW276350   6.590   4.280   7.843 -0.4930 -1.2476  0.1404
24977SOL     OW76351   6.468   2.116   2.930  0.2229  0.1987 -0.0414
24977SOL    HW176352   6.492   2.163   3.010  0.4339  0.0975 -0.0452
24977SOL    HW276353   6.517   2.160   2.860  1.1143 -0.5830  0.0767
24978SOL     OW76354   6.572   3.016   7.999  0.1258  0.0880 -0.2239
24978SOL    HW176355   6.477   3.010   8.002  0.1356  0.3967  0.7065
24978SOL    HW276356   6.600   3.013   8.090  1.0666 -0.8692 -0.5166
24979SOL     OW76357   8.643   5.904   5.211 -0.1443 -0.3698 -0.1997
24979SOL    HW176358   8.604   5.819   5.191 -0.8253 -0.0129 -0.4326
24979SOL    HW276359   8.594   5.935   5.288  0.3536 -0.3491  0.1160
24980SOL     OW76360   8.448   6.879   5.821  0.1652  0.3105  0.2978
24980SOL    HW176361   8.502   6.802   5.802  0.0848  0.2814  0.1895
24980SOL    HW276362   8.403   6.898   5.739  0.8734  1.0254  0.0646
24981SOL     OW76363   8.851   4.919   5.801 -0.3532  0.2094  0.1727
24981SOL    HW176364   8.807   4.837   5.780  1.6869 -1.5939  2.4712
24981SOL    HW276365   8.780   4.983   5.807 -2.3827 -1.9829  1.1626
24982SOL     OW76366   1.761   2.171   3.137 -0.2200  0.0805  1.0132
24982SOL    HW176367   1.833   2.134   3.085 -1.7417  0.3066 -1.3965
24982SOL    HW276368   1.805   2.223   3.204  1.8882 -1.9485  1.3274
24983SOL     OW76369   7.659   0.070   8.924  0.4177  0.9665 -0.3134
24983SOL    HW176370   7.616   0.148   8.890 -0.9916  0.4452  0.1815
24983SOL    HW276371   7.665   0.010   8.849  0.6605  1.1903 -0.4756
24984SOL     OW76372   3.606   1.787   4.569 -0.3533  0.3189 -0.1733
24984SOL    HW176373   3.514   1.787   4.596  0.1968 -2.8069  2.2242
24984SOL    HW276374   3.650   1.839   4.636 -0.1681  0.4894 -0.4263
24985SOL     OW76375   4.048   3.830   5.350 -0.1501 -0.4163  0.5777
24985SOL    HW176376   4.043   3.826   5.255  2.1521 -0.0012  0.3944
24985SOL    HW276377   4.024   3.920   5.372 -0.1887 -0.3713  0.3500
24986SOL     OW76378   3.090   8.326   5.046 -0.0599  0.4622  0.4182
24986SOL    HW176379   3.166   8.312   5.102 -0.7965 -1.5492  0.9997
24986SOL    HW276380   3.077   8.242   5.003 -0.1207  1.6561 -2.0720
24987SOL     OW76381   8.595   2.345   2.959  0.1315 -0.0019  0.1083
24987SOL    HW176382   8.506   2.326   2.989 -1.0280  0.1345 -2.9136
24987SOL    HW276383   8.635   2.259   2.946 -0.2633 -0.1019 -0.4400
24988SOL     OW76384   7.348   8.438   2.686  0.3619  0.1107 -0.4200
24988SOL    HW176385   7.434   8.433   2.728  0.1648 -0.6204 -0.0764
24988SOL    HW276386   7.287   8.452   2.759  0.3189  2.2749 -0.8105
24989SOL     OW76387   6.265   0.897   2.270  0.6765 -0.5456  0.2101
24989SOL    HW176388   6.360   0.888   2.273  0.6545 -1.3046 -0.8757
24989SOL    HW276389   6.232   0.816   2.310  0.4785 -0.2551  0.6469
24990SOL     OW76390   1.779   8.455   2.707  0.3338 -0.2235 -0.5403
24990SOL    HW176391   1.761   8.368   2.744  0.6285 -0.0276  0.0713
24990SOL    HW276392   1.756   8.516   2.776  0.9806  0.1456 -0.6462
24991SOL     OW76393   0.388   7.209   3.735  0.1382  0.3638 -0.6743
24991SOL    HW176394   0.417   7.298   3.753 -0.9171  0.6423 -0.3053
24991SOL    HW276395   0.304   7.201   3.780  0.8564 -1.2678  0.4549
24992SOL     OW76396   7.936   4.036   9.254  0.7844 -0.2827 -0.1704
24992SOL    HW176397   7.911   4.101   9.188  1.8943  0.5265  0.1918
24992SOL    HW276398   7.982   3.968   9.204  1.1521  0.0640 -0.3082
24993SOL     OW76399   7.262   9.075   6.376 -0.1490  0.4399  0.1147
24993SOL    HW176400   7.318   9.036   6.308  0.4435 -0.6932  1.2047
24993SOL    HW276401   7.210   9.001   6.409 -0.3431  0.9489  0.9667
24994SOL     OW76402   0.239   6.588   2.084 -0.4931 -0.2541 -0.2525
24994SOL    HW176403   0.302   6.613   2.016 -0.4205 -0.1797 -0.1596
24994SOL    HW276404   0.277   6.509   2.123 -1.5347 -1.4621 -1.6276
24995SOL     OW76405   8.951   0.064   8.559 -0.1792  0.2431 -0.2301
24995SOL    HW176406   8.901  -0.017   8.571  1.3463 -0.8045 -0.5765
24995SOL    HW276407   8.905   0.129   8.612 -1.5411 -0.7978 -0.0691
24996SOL     OW76408   5.836   3.103   8.157  0.0306  0.1460 -0.1791
24996SOL    HW176409   5.915   3.075   8.109  0.7145  3.1006 -0.9371
24996SOL    HW276410   5.775   3.131   8.089 -0.6873  0.2938  0.5144
24997SOL     OW76411   5.710   1.144   9.027  0.2671 -0.3967  0.1638
24997SOL    HW176412   5.632   1.098   9.058  1.0430 -0.8076  1.5903
24997SOL    HW276413   5.782   1.086   9.050  0.9859 -0.1657 -1.4294
24998SOL     OW76414   4.429   3.919   2.540  0.1924 -0.0085 -0.0172
24998SOL    HW176415   4.411   3.912   2.633 -1.1135  1.9948 -0.0654
24998SOL    HW276416   4.513   3.966   2.535  0.6374 -0.7812  0.1429
24999SOL     OW76417   7.610   7.295   6.380 -0.3494 -0.6126  0.0392
24999SOL    HW176418   7.668   7.252   6.443 -1.0046 -1.1439  0.2918
24999SOL    HW276419   7.658   7.373   6.353  0.8335 -1.4315 -0.3565
25000SOL     OW76420   5.201   3.511   1.035  0.0730 -0.2820 -0.1278
25000SOL    HW176421   5.164   3.558   0.960  2.2669  1.0047 -0.4709
25000SOL    HW276422   5.295   3.529   1.032  0.1989  0.3841  3.2896
25001SOL     OW76423   0.013   0.197   4.947 -0.0258 -0.1259  0.4914
25001SOL    HW176424   0.100   0.167   4.971 -0.3576  0.1054  2.0853
25001SOL    HW276425  -0.040   0.183   5.025 -1.2827  0.2912 -0.2514
25002SOL     OW76426   4.272   6.110   2.197  0.0702 -0.3112 -0.1840
25002SOL    HW176427   4.306   6.032   2.240 -0.8673 -0.4530  0.3458
25002SOL    HW276428   4.235   6.163   2.268 -2.5231 -1.0601 -0.8419
25003SOL     OW76429   8.316   9.158   6.605  0.3639 -0.3449 -0.0538
25003SOL    HW176430   8.269   9.195   6.530  0.9053  1.3615  0.3982
25003SOL    HW276431   8.408   9.180   6.589  0.3545  1.3331  1.7264
25004SOL     OW76432   3.576   3.221   0.338  0.0908 -0.5796  0.8573
25004SOL    HW176433   3.632   3.298   0.353 -1.0932 -0.1335  3.5237
25004SOL    HW276434   3.521   3.246   0.264  0.5745  0.6343  0.8752
25005SOL     OW76435   0.729   2.799   2.714  0.0513 -0.1538  0.4090
25005SOL    HW176436   0.764   2.729   2.659  1.2985  0.0557  0.8927
25005SOL    HW276437   0.765   2.780   2.801 -0.1941  0.6723  0.6956
25006SOL     OW76438   2.292   5.337   0.883 -0.1649 -0.1257  0.6207
25006SOL    HW176439   2.241   5.386   0.818  0.8418  0.6036  0.3569
25006SOL    HW276440   2.321   5.403   0.946  1.1869 -0.3543  0.2766
25007SOL     OW76441   6.537   3.874   0.149 -0.1935  0.5280 -0.2374
25007SOL    HW176442   6.518   3.804   0.212 -1.1796  1.3118  0.3659
25007SOL    HW276443   6.562   3.827   0.069 -0.4951 -0.5095  0.2513
25008SOL     OW76444   6.533   1.222   6.022  0.5899 -0.0590  0.1684
25008SOL    HW176445   6.567   1.267   5.944  0.7205 -0.1906  0.1485
25008SOL    HW276446   6.522   1.131   5.995  1.2584 -0.2473  0.4846
25009SOL     OW76447   2.443   6.846   5.768  0.5811 -0.0476  0.1518
25009SOL    HW176448   2.452   6.898   5.688  0.3162  0.8898  0.7157
25009SOL    HW276449   2.349   6.825   5.772  0.8470 -1.5066 -0.6297
25010SOL     OW76450   7.019   3.268   4.526 -0.5408 -0.1570  0.2669
25010SOL    HW176451   6.964   3.343   4.504 -2.0666 -1.5439 -0.8932
25010SOL    HW276452   7.074   3.255   4.450  0.4802  0.4077  0.8920
25011SOL     OW76453   0.039   2.571   7.747 -0.3879 -0.1702  0.0771
25011SOL    HW176454   0.066   2.638   7.685 -0.1885  0.1395  0.4879
25011SOL    HW276455  -0.033   2.525   7.703  0.3029 -0.5083 -0.7120
25012SOL     OW76456   0.465   4.295   7.758  1.2886 -0.1839  0.1959
25012SOL    HW176457   0.454   4.241   7.837 -1.3354  0.3366  0.2630
25012SOL    HW276458   0.491   4.232   7.690  0.2997 -1.2316  0.7376
25013SOL     OW76459   4.128   1.282   4.615  0.0139  0.5260  0.4314
25013SOL    HW176460   4.043   1.296   4.574  0.7996  0.9634 -1.1064
25013SOL    HW276461   4.126   1.336   4.694 -1.0729  0.6296  0.3416
25014SOL     OW76462   6.794   9.217   3.888  0.1974  0.4433 -0.3904
25014SOL    HW176463   6.789   9.188   3.980  0.4774  0.6832 -0.2960
25014SOL    HW276464   6.744   9.151   3.840  1.2665 -0.5162 -0.2511
25015SOL     OW76465   8.088   2.556   1.855  0.9477 -0.1689 -0.1754
25015SOL    HW176466   8.032   2.624   1.818  1.3216 -0.2046 -0.8298
25015SOL    HW276467   8.174   2.572   1.814  1.3322 -0.3100  0.5655
25016SOL     OW76468   2.529   1.340   2.130  0.1065 -0.2498  0.3798
25016SOL    HW176469   2.513   1.434   2.124 -1.8131 -0.4595  1.3265
25016SOL    HW276470   2.624   1.331   2.121  0.5855  1.9612  2.1300
25017SOL     OW76471   7.053   5.661   9.078 -0.0349 -0.1553  0.2925
25017SOL    HW176472   6.983   5.723   9.099 -0.8452 -1.0014  0.1762
25017SOL    HW276473   7.007   5.579   9.058  0.9998 -0.7515  0.2825
25018SOL     OW76474   6.192   5.748   6.566  0.1210  0.3927  0.0492
25018SOL    HW176475   6.235   5.736   6.482  0.8847  1.9766  0.1718
25018SOL    HW276476   6.176   5.659   6.598 -0.7626 -0.2544 -2.0183
25019SOL     OW76477   1.741   8.431   0.626  0.7027 -0.3977 -0.0430
25019SOL    HW176478   1.741   8.451   0.720 -1.7214 -1.8864  0.3698
25019SOL    HW276479   1.652   8.401   0.609  0.9252  0.3576 -2.9783
25020SOL     OW76480   0.851   7.462   4.655  0.0077  0.3533  0.4328
25020SOL    HW176481   0.778   7.401   4.649 -0.5434  1.0663 -0.3320
25020SOL    HW276482   0.857   7.484   4.748 -0.4811 -0.0124  0.5568
25021SOL     OW76483   2.557   8.150   1.014  0.2214  0.2116 -0.0675
25021SOL    HW176484   2.544   8.070   1.065  1.3570 -0.2991 -0.5494
25021SOL    HW276485   2.523   8.130   0.927 -2.6486  1.4099  0.6438
25022SOL     OW76486   8.836   5.425   4.708  0.2484  0.4166  0.1085
25022SOL    HW176487   8.900   5.463   4.648 -0.6515 -0.1747 -1.2987
25022SOL    HW276488   8.799   5.351   4.659  0.6445 -1.1401  2.0511
25023SOL     OW76489   3.906   6.585   5.842  0.0301 -0.6666  0.9338
25023SOL    HW176490   3.848   6.523   5.886 -0.1973 -0.3438  1.0953
25023SOL    HW276491   3.990   6.540   5.836 -0.2415 -1.1483  0.6754
25024SOL     OW76492   3.832   5.345   7.239  0.1018  0.3074 -0.0007
25024SOL    HW176493   3.904   5.409   7.241  0.7829 -0.4216  2.1586
25024SOL    HW276494   3.778   5.369   7.314  0.6920 -1.9495  1.2199
25025SOL     OW76495   1.078   3.772   5.404 -0.5455  0.0204 -0.0449
25025SOL    HW176496   0.997   3.812   5.373 -0.1789 -0.4903 -1.7157
25025SOL    HW276497   1.099   3.821   5.484 -2.9281 -0.3904  0.9224
25026SOL     OW76498   5.489   6.622   0.051 -0.0103 -0.0094 -0.3474
25026SOL    HW176499   5.552   6.677   0.003 -0.9918  0.9589 -0.5903
25026SOL    HW276500   5.408   6.630  -0.000 -0.7666  0.0862  0.8345
25027SOL     OW76501   2.481   2.107   8.123 -0.1374  0.0790  0.2324
25027SOL    HW176502   2.469   2.196   8.156 -2.0134 -0.1594  0.3019
25027SOL    HW276503   2.407   2.058   8.158 -1.3935 -0.5901 -3.0295
25028SOL     OW76504   6.114   3.579   7.300 -0.0154 -0.0986  0.0268
25028SOL    HW176505   6.074   3.529   7.372 -0.4415 -1.2257 -0.9692
25028SOL    HW276506   6.203   3.544   7.293 -0.4895 -1.1791 -1.0391
25029SOL     OW76507   8.406   6.437   5.696  0.0381 -0.2071 -0.4094
25029SOL    HW176508   8.446   6.462   5.779 -0.3604 -0.9474  0.0162
25029SOL    HW276509   8.480   6.412   5.641  0.3174  0.4335 -0.3364
25030SOL     OW76510   2.160   3.007   2.570  0.0856  0.4130  0.0611
25030SOL    HW176511   2.241   3.058   2.570  1.4182 -1.5755  0.6686
25030SOL    HW276512   2.114   3.034   2.650 -0.6660  2.6498 -1.0439
25031SOL     OW76513   8.584   2.257   0.794 -0.0889  0.4036 -0.5996
25031SOL    HW176514   8.525   2.209   0.852  0.1762  0.2345 -0.4647
25031SOL    HW276515   8.660   2.277   0.849  0.1371  0.3001 -0.8685
25032SOL     OW76516   2.312   8.830   1.265 -0.2805  0.3253 -0.1038
25032SOL    HW176517   2.248   8.896   1.239  0.1639  0.5516 -0.6369
25032SOL    HW276518   2.396   8.865   1.236 -0.2668 -1.5825 -2.6648
25033SOL     OW76519   9.104   4.783   6.744  0.2325 -0.2367 -0.2503
25033SOL    HW176520   9.190   4.742   6.741  0.2964 -0.1221  0.0050
25033SOL    HW276521   9.061   4.743   6.820  0.2124  0.0068 -0.1335
25034SOL     OW76522   9.105   3.686   8.641  1.1575  0.2621  0.6310
25034SOL    HW176523   9.200   3.675   8.648  1.4548  1.8309 -0.5410
25034SOL    HW276524   9.078   3.711   8.730  1.4771 -2.2112  1.5203
25035SOL     OW76525   6.795   7.152   8.406  0.7668  0.2815  0.3791
25035SOL    HW176526   6.725   7.153   8.340  0.6224 -0.3585  0.5134
25035SOL    HW276527   6.817   7.245   8.420 -0.6953  0.5657  0.9976
25036SOL     OW76528   6.402   1.718   4.251 -0.6430  0.1107 -0.2924
25036SOL    HW176529   6.446   1.635   4.269  2.0165  1.9353  2.3681
25036SOL    HW276530   6.432   1.743   4.164  1.4765 -0.0349  0.3581
25037SOL     OW76531   6.376   4.599   1.613 -0.4927 -0.1614  0.0021
25037SOL    HW176532   6.330   4.518   1.590 -0.6310  0.1841 -0.9743
25037SOL    HW276533   6.346   4.662   1.548 -0.8851  0.8547  1.1357
25038SOL     OW76534   7.305   2.306   8.288 -0.1812 -0.1139  0.3210
25038SOL    HW176535   7.364   2.270   8.222 -0.8684  0.4825 -0.6456
25038SOL    HW276536   7.350   2.291   8.371  1.3918  0.4314 -0.3866
25039SOL     OW76537   6.154   0.041   0.460  0.4406 -0.1363 -0.5655
25039SOL    HW176538   6.199   0.119   0.492 -0.5628  0.0905  0.3478
25039SOL    HW276539   6.210  -0.032   0.486  1.4543  0.2584 -1.5403
25040SOL     OW76540   7.379   3.756   5.050 -0.0125  0.4640  0.4792
25040SOL    HW176541   7.366   3.822   4.982 -0.1489  0.7175  0.7436
25040SOL    HW276542   7.458   3.784   5.096  0.7558 -0.3667 -0.3180
25041SOL     OW76543   1.570   6.803   5.133 -0.0090  0.6785 -0.3385
25041SOL    HW176544   1.564   6.892   5.099  0.9646  1.1025  0.5395
25041SOL    HW276545   1.521   6.750   5.070 -1.7428  1.9937 -0.1709
25042SOL     OW76546   1.638   2.847   5.964 -0.0666 -0.6100 -0.6898
25042SOL    HW176547   1.596   2.860   5.879 -0.0907  1.4300 -0.3967
25042SOL    HW276548   1.721   2.894   5.958  0.9527 -2.2619 -0.2906
25043SOL     OW76549   1.568   1.279   2.773  0.0027 -0.1007 -0.4801
25043SOL    HW176550   1.567   1.201   2.717 -3.6522 -0.7181  0.1938
25043SOL    HW276551   1.514   1.343   2.725 -0.5116  0.4943  0.8466
25044SOL     OW76552   0.549   8.319   5.528 -0.4774 -0.0216  0.0920
25044SOL    HW176553   0.533   8.306   5.435  0.4851  0.2153 -0.1227
25044SOL    HW276554   0.604   8.246   5.554 -0.9411 -0.2187  0.5395
25045SOL     OW76555   4.892   5.717   1.841 -0.1878  0.3469  0.1273
25045SOL    HW176556   4.845   5.800   1.846 -1.6204 -0.4065 -0.2320
25045SOL    HW276557   4.848   5.669   1.771  1.1742 -0.3779 -0.2552
25046SOL     OW76558   8.045   7.605   1.072 -0.1007  0.2164 -0.0655
25046SOL    HW176559   7.977   7.644   1.016 -0.7913 -0.1279  0.5197
25046SOL    HW276560   8.124   7.656   1.052 -0.9218  1.7792  0.4984
25047SOL     OW76561   9.158   3.262   5.828  0.1787  0.1236 -0.9201
25047SOL    HW176562   9.092   3.303   5.884 -0.5896 -0.0884 -1.6403
25047SOL    HW276563   9.220   3.332   5.809 -0.3296  0.5699 -0.9669
25048SOL     OW76564   9.212   5.065   5.012 -0.5795 -0.7230  0.0074
25048SOL    HW176565   9.297   5.099   5.041 -0.6508 -1.5091  1.2255
25048SOL    HW276566   9.207   5.087   4.919  0.5679  0.1192  0.1317
25049SOL     OW76567   3.523   3.735   0.084 -0.1062 -0.1343  0.3315
25049SOL    HW176568   3.599   3.738   0.142  0.9567 -1.4568 -0.9233
25049SOL    HW276569   3.499   3.643   0.082 -0.2683 -0.0756 -1.1190
25050SOL     OW76570   4.877   4.074   2.270 -0.5227 -0.1641 -0.4416
25050SOL    HW176571   4.900   4.107   2.183 -0.2443 -2.8674 -1.4873
25050SOL    HW276572   4.936   4.121   2.330  1.4502 -0.4397 -2.0644
25051SOL     OW76573   0.828   0.880   5.573  0.0925 -0.4422 -0.6756
25051SOL    HW176574   0.907   0.858   5.523  1.3606 -0.2484  1.1499
25051SOL    HW276575   0.806   0.798   5.619 -0.0645 -0.1795 -0.2757
25052SOL     OW76576   3.018   4.290   5.742  0.0104  0.2136  0.2040
25052SOL    HW176577   3.102   4.275   5.785  0.8434  0.6485 -1.2101
25052SOL    HW276578   2.985   4.202   5.724  0.8556  0.0273 -0.5005
25053SOL     OW76579   3.267   3.708   3.791 -0.4827  0.3039  0.1109
25053SOL    HW176580   3.229   3.688   3.706 -1.1040  0.1560  0.4158
25053SOL    HW276581   3.271   3.624   3.837  0.9107  0.1885 -0.1775
25054SOL     OW76582   6.535   3.906   7.327  0.1344 -0.6457  0.8428
25054SOL    HW176583   6.463   3.933   7.384 -0.3068  0.7753 -0.3374
25054SOL    HW276584   6.555   3.983   7.275  1.8601 -1.3159  0.4370
25055SOL     OW76585   4.513   2.314   9.275 -0.1471  0.0604 -0.8453
25055SOL    HW176586   4.464   2.387   9.239 -0.6157  0.0601 -0.2262
25055SOL    HW276587   4.490   2.313   9.368  1.6608  0.5756 -0.3483
25056SOL     OW76588   1.751   5.481   8.923 -0.2100 -0.2363 -0.2928
25056SOL    HW176589   1.763   5.515   9.011 -0.7776 -0.5455 -0.0857
25056SOL    HW276590   1.674   5.423   8.930 -0.0721 -0.5089 -0.9170
25057SOL     OW76591   5.405   8.389   0.374  0.3289 -0.9171 -0.1804
25057SOL    HW176592   5.393   8.472   0.327 -1.1836 -1.6954 -1.2609
25057SOL    HW276593   5.499   8.384   0.390  0.5099  0.7819 -0.4992
25058SOL     OW76594   8.659   9.177   4.501  0.5325 -0.0553 -0.5256
25058SOL    HW176595   8.659   9.211   4.590  1.9733  0.6760 -0.7895
25058SOL    HW276596   8.707   9.094   4.507 -0.2293 -0.5025 -0.4600
25059SOL     OW76597   2.628   2.454   6.480 -0.0085 -0.0538  0.0813
25059SOL    HW176598   2.603   2.546   6.490  1.5904  0.5863 -1.4023
25059SOL    HW276599   2.667   2.430   6.564 -2.4010 -0.0899  1.2531
25060SOL     OW76600   6.163   2.175   8.626  0.2109 -0.0244 -0.4244
25060SOL    HW176601   6.140   2.261   8.662 -2.3137 -1.3669  1.5262
25060SOL    HW276602   6.238   2.147   8.678  0.9742  0.9239 -0.9897
25061SOL     OW76603   4.856   5.220   8.812  0.1402 -0.1445 -0.2010
25061SOL    HW176604   4.865   5.171   8.893  0.4491 -0.3112 -0.3361
25061SOL    HW276605   4.905   5.301   8.827  1.0728 -0.6304 -0.5914
25062SOL     OW76606   7.349   0.723   2.564  0.2980  0.5062  0.0239
25062SOL    HW176607   7.282   0.774   2.609  0.7988  1.3572 -0.1510
25062SOL    HW276608   7.301   0.661   2.511 -0.3104 -0.1750  1.3345
25063SOL     OW76609   4.067   0.895   0.909 -0.4076  0.0070  0.3969
25063SOL    HW176610   4.091   0.987   0.898 -0.5744  0.1351  1.0597
25063SOL    HW276611   4.075   0.857   0.821  1.5669  0.1910  0.4635
25064SOL     OW76612   1.391   1.708   5.164 -0.2237 -0.0776  0.0915
25064SOL    HW176613   1.459   1.685   5.228  0.5020  0.3277 -0.5172
25064SOL    HW276614   1.311   1.718   5.217  0.0935 -0.9295  0.7665
25065SOL     OW76615   6.705   1.565   3.093  0.2143  0.3281  0.0687
25065SOL    HW176616   6.610   1.570   3.087 -0.0052 -2.1053  0.4704
25065SOL    HW276617   6.733   1.530   3.009  0.7232  0.6800  0.0871
25066SOL     OW76618   8.615   5.924   0.471 -0.6490 -0.1938 -0.5356
25066SOL    HW176619   8.585   5.836   0.494 -1.5018  0.5735  1.4909
25066SOL    HW276620   8.535   5.970   0.444 -1.3108  1.4181  3.4552
25067SOL     OW76621   6.664   0.866   9.075 -0.2608  0.2901 -0.4382
25067SOL    HW176622   6.692   0.899   9.160  0.0784  1.7649 -1.0779
25067SOL    HW276623   6.688   0.774   9.075  1.4817  0.7129  0.3591
25068SOL     OW76624   2.316   0.637   1.033 -0.2956  0.2852 -0.1558
25068SOL    HW176625   2.405   0.653   1.064 -0.4771  0.7464  0.1337
25068SOL    HW276626   2.305   0.542   1.040  0.3204  0.1744 -0.6047
25069SOL     OW76627   2.772   3.294   7.024 -0.1772  0.0335 -0.4126
25069SOL    HW176628   2.722   3.247   7.091  1.5332  0.5903  1.3527
25069SOL    HW276629   2.723   3.375   7.009 -0.7212 -0.2167 -0.0262
25070SOL     OW76630   6.551   7.803   6.619  0.3243  0.1833 -0.0043
25070SOL    HW176631   6.610   7.731   6.595  0.9248  0.5964  0.1989
25070SOL    HW276632   6.603   7.882   6.603 -0.1382  0.5495  0.2962
25071SOL     OW76633   2.728   2.053   2.062  0.0052  0.1161 -0.1895
25071SOL    HW176634   2.763   2.131   2.103  0.3054  0.3415 -0.8512
25071SOL    HW276635   2.772   1.980   2.106 -1.0000  0.2561  1.1108
25072SOL     OW76636   4.300   0.946   1.448  0.2105  0.0014  0.4522
25072SOL    HW176637   4.216   0.972   1.487  0.8527  1.9506  0.6140
25072SOL    HW276638   4.285   0.856   1.418 -1.8144  0.1702  0.8150
25073SOL     OW76639   7.166   6.731   3.130 -0.2522  0.1920  0.0496
25073SOL    HW176640   7.154   6.642   3.161 -1.1882  0.0380 -0.6755
25073SOL    HW276641   7.199   6.721   3.040 -2.0920  0.5078 -0.7072
25074SOL     OW76642   8.896   0.710   6.348 -0.6904 -0.0069  0.2690
25074SOL    HW176643   8.823   0.745   6.399 -0.5337 -2.3540  2.2384
25074SOL    HW276644   8.874   0.618   6.333  0.1340  0.1501 -2.4457
25075SOL     OW76645   7.469   1.554   4.567 -0.2884 -0.3822  0.2297
25075SOL    HW176646   7.376   1.576   4.558 -0.4190  0.0843  2.3596
25075SOL    HW276647   7.510   1.592   4.489 -1.4674  1.9617  0.6556
25076SOL     OW76648   0.537   6.257   0.779  0.1190 -0.1252 -0.0018
25076SOL    HW176649   0.557   6.249   0.686  0.6587 -1.3853  0.2050
25076SOL    HW276650   0.621   6.244   0.823  0.0158  1.2257  0.6562
25077SOL     OW76651   6.440   3.022   7.286 -0.4989  0.2455  0.4000
25077SOL    HW176652   6.369   2.979   7.334 -0.1589 -1.1718 -0.2935
25077SOL    HW276653   6.484   3.076   7.351 -2.1578  1.1050  0.8579
25078SOL     OW76654   2.427   5.856   0.898  0.3861 -0.0273 -0.0629
25078SOL    HW176655   2.504   5.829   0.948  2.6130  2.0896 -2.0993
25078SOL    HW276656   2.447   5.833   0.808 -0.5896  2.0697 -0.8818
25079SOL     OW76657   4.455   8.902   0.476  0.1494 -0.1617 -0.2467
25079SOL    HW176658   4.510   8.967   0.432 -1.7536  0.7992 -1.3574
25079SOL    HW276659   4.433   8.942   0.560  1.5905 -0.8168  0.4688
25080SOL     OW76660   0.652   1.893   7.963  0.7465 -0.1096  0.2200
25080SOL    HW176661   0.638   1.798   7.970  2.9203 -0.6776 -1.5548
25080SOL    HW276662   0.573   1.926   7.921  0.5997 -1.4453 -0.6201
25081SOL     OW76663   1.703   9.208   8.379 -0.2920  0.1947 -0.3624
25081SOL    HW176664   1.753   9.287   8.398  0.0665 -0.2716  0.6549
25081SOL    HW276665   1.722   9.149   8.451 -0.8760 -0.6791 -0.9045
25082SOL     OW76666   2.588   0.367   5.212  0.2610  0.0274  0.5460
25082SOL    HW176667   2.569   0.351   5.304 -0.2211 -0.0236  0.4422
25082SOL    HW276668   2.628   0.454   5.210  0.0271  0.1408  0.7749
25083SOL     OW76669   2.688   6.919   2.356 -0.1305  0.5406  0.5654
25083SOL    HW176670   2.661   6.838   2.399 -1.1232  0.6584  0.1948
25083SOL    HW276671   2.769   6.895   2.311 -1.0254 -0.6061 -0.5338
25084SOL     OW76672   3.748   1.379   1.675  0.1226  0.3232 -0.3648
25084SOL    HW176673   3.733   1.284   1.673  1.0307  0.1553  0.3624
25084SOL    HW276674   3.776   1.400   1.586 -0.7830  0.0422 -0.7328
25085SOL     OW76675   9.257   4.226   6.188  0.1867 -0.7815  0.0552
25085SOL    HW176676   9.335   4.177   6.163  1.6294  0.4955  1.8185
25085SOL    HW276677   9.283   4.318   6.183 -1.1340 -0.3285  0.8408
25086SOL     OW76678   9.035   5.556   2.678 -0.6669 -0.1700 -0.0807
25086SOL    HW176679   9.130   5.569   2.683 -0.8648  2.2657 -1.1709
25086SOL    HW276680   8.999   5.645   2.684 -2.7897 -0.8715 -1.5327
25087SOL     OW76681   5.172   1.480   1.825  0.3596  0.7641  0.0469
25087SOL    HW176682   5.249   1.487   1.768  1.2996 -1.4509  0.9203
25087SOL    HW276683   5.204   1.435   1.903 -1.3595  1.8380  1.4582
25088SOL     OW76684   0.625   1.588   8.480  0.6100  0.3836 -0.1725
25088SOL    HW176685   0.596   1.498   8.498  0.4271  0.2636 -1.0045
25088SOL    HW276686   0.700   1.577   8.421 -0.4608  0.7880 -1.6865
25089SOL     OW76687   0.703   5.336   1.581 -0.1310  0.1204 -0.3348
25089SOL    HW176688   0.634   5.369   1.639 -0.3355 -0.6400 -0.1382
25089SOL    HW276689   0.657   5.312   1.500 -0.5056 -2.4967  0.5692
25090SOL     OW76690   8.329   4.763   4.689  0.2196 -0.1522  0.3413
25090SOL    HW176691   8.405   4.821   4.685  0.1125 -0.0549 -0.2490
25090SOL    HW276692   8.259   4.817   4.726  0.0361  0.1861 -0.4942
25091SOL     OW76693   5.092   6.154   2.840 -0.7355  0.6887  0.0189
25091SOL    HW176694   5.089   6.226   2.777 -2.6406  0.0656 -0.6963
25091SOL    HW276695   5.011   6.163   2.890 -0.2836 -0.1079  0.9261
25092SOL     OW76696   7.709   6.780   0.171  0.1628  0.0215 -0.0961
25092SOL    HW176697   7.763   6.714   0.127 -0.0456 -1.2300  1.4528
25092SOL    HW276698   7.619   6.748   0.163 -0.2940  1.5335 -1.6869
25093SOL     OW76699   3.923   5.509   6.271 -0.1965  0.3161  0.8503
25093SOL    HW176700   3.827   5.505   6.272 -0.2613  0.4657 -1.1750
25093SOL    HW276701   3.945   5.576   6.336 -1.4642  0.5141  1.1046
25094SOL     OW76702   8.711   2.122   7.018 -0.3588  0.0656 -0.0982
25094SOL    HW176703   8.640   2.157   7.073  0.0988 -1.5029  1.5876
25094SOL    HW276704   8.741   2.044   7.064  0.9148 -0.6374 -1.9907
25095SOL     OW76705   2.199   5.995   8.948 -0.1351  0.7150 -0.6801
25095SOL    HW176706   2.265   5.971   8.883 -0.4231 -0.2115 -0.6482
25095SOL    HW276707   2.250   6.011   9.028  0.0236 -0.6499 -0.4777
25096SOL     OW76708   0.533   3.833   3.198  0.4037  0.2375 -0.1802
25096SOL    HW176709   0.525   3.870   3.286 -0.1946  1.4510 -0.7351
25096SOL    HW276710   0.453   3.782   3.187 -1.1218  2.6972 -1.2005
25097SOL     OW76711   6.041   8.499   0.741  0.6272 -0.1855  0.0894
25097SOL    HW176712   6.029   8.486   0.647  0.2130 -0.9643  0.2430
25097SOL    HW276713   6.059   8.593   0.750 -1.6177  0.3638 -0.5416
25098SOL     OW76714   0.443   1.766   0.258  0.3105  0.0610  0.2444
25098SOL    HW176715   0.385   1.699   0.222 -0.4704  0.4680  0.7202
25098SOL    HW276716   0.463   1.736   0.346 -0.5868  0.7608  0.7075
25099SOL     OW76717   0.230   0.544   6.146 -0.0372 -0.0643 -0.3326
25099SOL    HW176718   0.293   0.595   6.197 -0.2411  1.6300 -1.6822
25099SOL    HW276719   0.208   0.470   6.203 -0.0962  1.5953  1.9617
25100SOL     OW76720   0.819   8.800   6.031 -0.8355 -0.1845  0.6980
25100SOL    HW176721   0.876   8.780   6.105  1.5119  1.2682 -0.6024
25100SOL    HW276722   0.848   8.741   5.961 -2.6748 -1.1831  0.7133
25101SOL     OW76723   6.770   5.802   9.012  0.4928  0.1081 -0.6195
25101SOL    HW176724   6.725   5.752   8.944  0.0481 -1.2752  0.6392
25101SOL    HW276725   6.714   5.794   9.089  2.4868 -1.0527  0.8089
25102SOL     OW76726   7.026   1.904   5.428  0.0965 -0.5984 -0.6232
25102SOL    HW176727   7.081   1.901   5.507  0.7268 -0.1175 -1.0365
25102SOL    HW276728   7.036   1.818   5.389  1.0775 -0.3129 -1.0340
25103SOL     OW76729   8.697   8.749   2.154 -0.0221 -0.3564  0.5153
25103SOL    HW176730   8.763   8.805   2.112 -0.0169 -0.2776  0.6272
25103SOL    HW276731   8.621   8.755   2.096  0.0227 -0.3384  0.4580
25104SOL     OW76732   3.026   6.404   4.182 -0.7264 -0.4250 -0.1174
25104SOL    HW176733   2.958   6.434   4.122  0.1309 -0.4965 -1.1428
25104SOL    HW276734   3.102   6.387   4.127  0.5364  0.8451  1.1501
25105SOL     OW76735   5.884   0.834   3.178 -0.2713 -0.1964  0.7569
25105SOL    HW176736   5.959   0.778   3.195  0.1794  0.3001  0.4595
25105SOL    HW276737   5.903   0.915   3.225  0.9825  1.1817 -1.9064
25106SOL     OW76738   7.434   5.727   5.802 -0.1690  0.4304  0.5959
25106SOL    HW176739   7.448   5.701   5.711  1.6660 -1.0201  1.2244
25106SOL    HW276740   7.393   5.813   5.797 -1.7851 -0.3995 -1.5852
25107SOL     OW76741   6.147   7.636   1.295 -0.4355 -0.1046 -0.4968
25107SOL    HW176742   6.155   7.568   1.362 -1.6755 -0.4512 -0.6771
25107SOL    HW276743   6.189   7.713   1.334 -1.0204 -0.3348  0.6320
25108SOL     OW76744   1.070   9.017   2.298  0.0809 -0.8379 -0.4386
25108SOL    HW176745   1.088   9.075   2.223  2.1136 -2.1980 -1.0742
25108SOL    HW276746   1.035   9.076   2.365  0.3054  0.8016 -1.6846
25109SOL     OW76747   7.833   7.222   0.233 -0.3638 -0.2745  0.7263
25109SOL    HW176748   7.892   7.296   0.249 -1.5832  0.5580  1.6170
25109SOL    HW276749   7.757   7.261   0.189 -0.8475 -1.0688  0.8341
25110SOL     OW76750   7.904   7.881   3.278  0.1564  0.0580  0.4350
25110SOL    HW176751   7.925   7.964   3.235 -0.3891  0.3399  0.6953
25110SOL    HW276752   7.832   7.845   3.226 -1.1389  0.8466  1.6193
25111SOL     OW76753   1.486   9.143   4.776 -0.3587  0.3339  0.1807
25111SOL    HW176754   1.402   9.151   4.729  0.1565 -0.3478 -0.9007
25111SOL    HW276755   1.535   9.221   4.750 -0.4008  0.3880  0.2633
25112SOL     OW76756   7.612   8.975   0.058 -0.1468 -0.1584  0.2626
25112SOL    HW176757   7.703   8.968   0.084 -0.2149  0.3758  0.6518
25112SOL    HW276758   7.567   8.907   0.109 -0.1352  0.2853  0.8721
25113SOL     OW76759   6.546   2.567   3.880  0.2350 -0.7279 -0.6198
25113SOL    HW176760   6.558   2.473   3.864  0.4855 -0.8616  0.2811
25113SOL    HW276761   6.453   2.577   3.900  0.5137 -1.0885  1.0389
25114SOL     OW76762   3.195   0.049   5.426 -0.0434  0.0463  0.1442
25114SOL    HW176763   3.282   0.015   5.449 -0.1426 -1.5089 -1.5328
25114SOL    HW276764   3.134  -0.007   5.474 -0.2096  2.1804  2.6655
25115SOL     OW76765   3.130   5.581   2.425  0.1266 -0.4535  0.2608
25115SOL    HW176766   3.133   5.526   2.347  3.4381 -1.3805  0.8786
25115SOL    HW276767   3.101   5.667   2.393 -1.3694 -1.5067 -1.4149
25116SOL     OW76768   3.872   1.753   3.190 -0.0248 -0.2005  0.3911
25116SOL    HW176769   3.783   1.762   3.156  0.0482 -0.0271  0.2437
25116SOL    HW276770   3.897   1.842   3.216 -0.3757 -0.4504  1.6506
25117SOL     OW76771   1.926   1.861   1.820 -0.3486  0.3794  0.0298
25117SOL    HW176772   1.906   1.930   1.757 -0.1330  1.7479  1.3906
25117SOL    HW276773   1.982   1.903   1.885 -2.0983 -0.3798  2.1896
25118SOL     OW76774   0.589   8.855   8.305 -0.1810  0.6672  0.2487
25118SOL    HW176775   0.597   8.897   8.219 -1.4754 -0.1629 -0.3084
25118SOL    HW276776   0.669   8.880   8.351  1.3395 -0.1242 -1.7679
25119SOL     OW76777   0.882   0.070   5.150 -0.2573  0.4542  0.0930
25119SOL    HW176778   0.847   0.118   5.074  0.4300  1.8539  0.6354
25119SOL    HW276779   0.868  -0.022   5.128 -3.5965  0.8749 -0.0654
25120SOL     OW76780   5.171   4.754   6.411  0.0297  0.1935 -0.4085
25120SOL    HW176781   5.118   4.824   6.449  0.8950  0.8044 -0.3018
25120SOL    HW276782   5.250   4.798   6.378  0.9285 -0.8229  0.3135
25121SOL     OW76783   6.829   0.721   0.205 -0.1766 -0.2927  0.2334
25121SOL    HW176784   6.747   0.674   0.192  0.7531 -1.8877 -0.0865
25121SOL    HW276785   6.835   0.734   0.300  0.3103 -2.3109  0.5212
25122SOL     OW76786   4.456   5.851   1.752 -0.4263 -0.1709 -0.0694
25122SOL    HW176787   4.440   5.758   1.771  0.7142 -0.1839  0.9905
25122SOL    HW276788   4.414   5.897   1.825 -0.1152  0.0713 -0.0425
25123SOL     OW76789   9.214   3.902   7.280  0.1101  1.0535 -0.1275
25123SOL    HW176790   9.235   3.875   7.370 -1.2752 -2.3078 -0.6627
25123SOL    HW276791   9.298   3.899   7.234  0.3721 -0.2898  0.3900
25124SOL     OW76792   4.652   1.123   8.135  0.4362 -0.3015  0.4687
25124SOL    HW176793   4.716   1.177   8.180  0.0533  0.6068 -0.0462
25124SOL    HW276794   4.699   1.087   8.059 -0.2555  2.4446 -1.4130
25125SOL     OW76795   3.454   4.490   1.352 -0.2627  0.2921 -0.3694
25125SOL    HW176796   3.476   4.581   1.335 -0.3781  0.2341 -0.8278
25125SOL    HW276797   3.477   4.444   1.271  0.0759 -0.1336 -0.0375
25126SOL     OW76798   3.213   4.529   1.488  0.3700 -0.6616  0.0559
25126SOL    HW176799   3.148   4.459   1.494  0.1645 -0.3495  1.9799
25126SOL    HW276800   3.284   4.491   1.436 -0.6644 -1.5397 -0.7607
25127SOL     OW76801   6.394   8.211   9.041 -0.4604 -0.2778  0.0360
25127SOL    HW176802   6.455   8.191   9.112 -0.2872  0.1031 -0.0011
25127SOL    HW276803   6.361   8.298   9.061  1.0723  0.6854 -1.3630
25128SOL     OW76804   7.367   3.674   0.224  0.5836  0.3040 -0.9508
25128SOL    HW176805   7.273   3.660   0.221  0.4839  0.7953 -0.3300
25128SOL    HW276806   7.377   3.768   0.236  1.1355  0.1990 -0.5096
25129SOL     OW76807   8.216   8.792   2.939  0.3987 -0.3216  0.1984
25129SOL    HW176808   8.150   8.760   3.000 -0.3176  0.0935 -0.3438
25129SOL    HW276809   8.287   8.728   2.944 -1.0875 -2.1596 -1.0423
25130SOL     OW76810   5.011   1.474   2.549  0.3353  0.0403  0.3448
25130SOL    HW176811   4.942   1.480   2.483 -0.1605 -0.5119  0.8110
25130SOL    HW276812   5.090   1.504   2.503 -0.4751  2.1928  0.2436
25131SOL     OW76813   4.928   7.628   1.853 -0.0456 -0.0026 -0.2388
25131SOL    HW176814   4.849   7.578   1.832 -0.0388  0.5237 -1.6325
25131SOL    HW276815   4.922   7.645   1.947 -0.4194 -1.9644  0.1506
25132SOL     OW76816   8.145   0.559   9.254 -0.2839  0.1611 -0.0251
25132SOL    HW176817   8.141   0.468   9.283  1.4362 -0.4442 -1.4969
25132SOL    HW276818   8.138   0.610   9.335 -1.1429 -1.2614  0.8382
25133SOL     OW76819   2.015   8.436   4.305 -0.0285  0.3335  0.0944
25133SOL    HW176820   2.089   8.468   4.255  1.2009 -1.7818  0.4637
25133SOL    HW276821   1.972   8.372   4.248 -1.8599  1.7592 -0.2560
25134SOL     OW76822   8.035   5.890   0.422 -0.5838  0.5380  0.2725
25134SOL    HW176823   8.116   5.896   0.473  0.0750  3.2321 -0.9201
25134SOL    HW276824   7.975   5.840   0.478  1.3828 -0.1868  1.8574
25135SOL     OW76825   1.524   3.001   2.812  0.2998 -0.1062  0.4075
25135SOL    HW176826   1.600   2.955   2.776 -0.3644 -0.9573  0.0697
25135SOL    HW276827   1.527   2.981   2.906  0.9935  0.6063  0.5447
25136SOL     OW76828   5.012   7.087   5.205  0.8756  0.3370  0.5582
25136SOL    HW176829   4.952   7.025   5.164  0.1893  1.0210  0.4901
25136SOL    HW276830   5.048   7.041   5.280 -0.1164  0.0735  0.8831
25137SOL     OW76831   0.523   8.272   0.438 -0.4307  0.0691  0.0774
25137SOL    HW176832   0.557   8.359   0.461  1.6462 -0.8063  0.5389
25137SOL    HW276833   0.436   8.269   0.479 -1.8906  2.9751 -2.4134
25138SOL     OW76834   2.367   0.954   7.457  0.1137  0.5946 -0.4012
25138SOL    HW176835   2.333   1.011   7.388 -0.2209  0.7471 -0.1115
25138SOL    HW276836   2.311   0.972   7.533  0.6089  0.5835 -0.0250
25139SOL     OW76837   0.803   0.470   3.425 -0.0528 -0.8118 -0.3889
25139SOL    HW176838   0.710   0.451   3.408  0.4282 -3.2133 -0.6192
25139SOL    HW276839   0.810   0.468   3.521 -0.3247 -0.0820 -0.3480
25140SOL     OW76840   2.968   0.100   2.814 -0.3066  0.1003  0.0052
25140SOL    HW176841   2.902   0.032   2.799 -1.6219  1.5066 -0.8177
25140SOL    HW276842   2.936   0.148   2.891  1.2763 -0.9377  1.3860
25141SOL     OW76843   1.093   6.644   4.777  0.3775  0.8752 -0.2418
25141SOL    HW176844   1.044   6.579   4.726  0.6630  1.2818 -1.0570
25141SOL    HW276845   1.183   6.612   4.775  0.3093  0.6212  0.4617
25142SOL     OW76846   7.786   3.804   7.345 -0.4025 -0.5427 -0.6192
25142SOL    HW176847   7.737   3.722   7.343 -0.9233 -0.3227 -4.8147
25142SOL    HW276848   7.878   3.776   7.344 -0.5656 -1.2327 -2.8681
25143SOL     OW76849   2.489   7.971   2.648  0.0471 -0.5198  0.1323
25143SOL    HW176850   2.518   7.940   2.563 -1.5728  0.1228 -0.6943
25143SOL    HW276851   2.407   7.924   2.664  0.3478 -0.6647  1.3761
25144SOL     OW76852   5.227   7.827   8.389 -0.1404 -0.0422  0.3359
25144SOL    HW176853   5.179   7.814   8.471 -0.6732 -0.8430 -0.0856
25144SOL    HW276854   5.161   7.862   8.329  0.8959  3.3416  0.9890
25145SOL     OW76855   6.229   3.750   2.757 -0.0971  0.0712  0.1549
25145SOL    HW176856   6.212   3.660   2.785 -1.0399 -0.2138 -1.2671
25145SOL    HW276857   6.249   3.743   2.664 -0.3755  1.3611 -0.0190
25146SOL     OW76858   0.769   3.276   2.541  0.8156  0.2932 -0.8916
25146SOL    HW176859   0.700   3.276   2.474  0.2577 -1.5447 -0.3692
25146SOL    HW276860   0.792   3.184   2.552  1.4341  0.6237  0.9060
25147SOL     OW76861   4.722   5.200   0.289  0.1545  0.0716 -0.0622
25147SOL    HW176862   4.716   5.296   0.286 -0.4239  0.0471  0.1707
25147SOL    HW276863   4.643   5.173   0.337  1.0378 -0.4386  1.1475
25148SOL     OW76864   3.726   0.773   3.052 -0.3124 -0.2136  0.2078
25148SOL    HW176865   3.664   0.780   3.124 -0.5478 -0.1519 -0.0016
25148SOL    HW276866   3.807   0.741   3.093 -0.4012 -0.0362  0.5211
25149SOL     OW76867   0.865   8.238   5.177  0.5906 -0.1739  0.0371
25149SOL    HW176868   0.869   8.226   5.271 -0.2406 -1.4927 -0.0541
25149SOL    HW276869   0.848   8.331   5.164  0.3021 -0.0564  1.2017
25150SOL     OW76870   4.369   3.586   5.564  0.5975 -0.6786 -0.3799
25150SOL    HW176871   4.370   3.503   5.613  2.1697 -1.4729 -1.6857
25150SOL    HW276872   4.341   3.562   5.476 -3.2953  0.9055  0.2407
25151SOL     OW76873   5.419   8.655   9.260 -0.1107 -0.2571  0.2565
25151SOL    HW176874   5.433   8.732   9.316 -1.0085  0.6414 -0.6990
25151SOL    HW276875   5.409   8.692   9.172 -0.8742 -1.4527 -0.1771
25152SOL     OW76876   7.967   2.810   3.709  0.3986 -0.5575  0.3538
25152SOL    HW176877   7.906   2.780   3.642 -0.7326 -0.7800  1.4457
25152SOL    HW276878   7.928   2.889   3.744  0.1839 -1.2659  1.7805
25153SOL     OW76879   8.131   1.313   8.634 -0.2694 -0.4800  0.0475
25153SOL    HW176880   8.204   1.292   8.576 -0.5362 -1.9702  0.2087
25153SOL    HW276881   8.143   1.256   8.710 -0.2379  1.0265  1.2304
25154SOL     OW76882   6.103   0.436   8.610 -0.2371 -0.2231 -0.5622
25154SOL    HW176883   6.040   0.401   8.673 -0.8226  1.8437  0.0610
25154SOL    HW276884   6.072   0.402   8.525 -0.2313 -1.9052  0.0632
25155SOL     OW76885   7.602   0.722   2.031 -0.5352 -0.1935 -0.5541
25155SOL    HW176886   7.596   0.725   2.127 -0.8387 -0.1190 -0.5769
25155SOL    HW276887   7.559   0.802   2.002 -1.2025 -0.6388 -0.7940
25156SOL     OW76888   1.524   4.073   1.095 -0.6921 -0.2044 -0.7820
25156SOL    HW176889   1.558   4.088   1.007 -2.3787  2.2456 -1.1209
25156SOL    HW276890   1.454   4.137   1.105 -0.4601 -0.2781  2.4320
25157SOL     OW76891   4.835   0.364   4.121  0.2941 -0.0158 -0.0379
25157SOL    HW176892   4.748   0.386   4.087 -0.4368 -2.3217  0.1821
25157SOL    HW276893   4.842   0.413   4.203 -0.1575  1.3646 -0.7973
25158SOL     OW76894   0.535   1.865   7.243 -0.2675 -0.0275 -0.6976
25158SOL    HW176895   0.609   1.905   7.288 -0.3404  1.0504 -1.4931
25158SOL    HW276896   0.575   1.804   7.181 -0.0157  0.7608 -1.3262
25159SOL     OW76897   2.501   6.587   5.497  0.4246 -0.7834 -0.1749
25159SOL    HW176898   2.437   6.583   5.426 -0.0150  0.1495  0.1504
25159SOL    HW276899   2.586   6.594   5.454  0.2673 -1.4713 -0.6084
25160SOL     OW76900   5.094   7.627   3.446 -0.7517  0.0234  0.3370
25160SOL    HW176901   5.152   7.596   3.375 -0.4309  0.0924  0.5661
25160SOL    HW276902   5.088   7.552   3.505 -2.3871 -0.6289 -0.6015
25161SOL     OW76903   4.517   6.191   0.872  0.2953  0.5905 -0.1525
25161SOL    HW176904   4.599   6.143   0.886 -0.0332  0.0541 -0.0060
25161SOL    HW276905   4.499   6.180   0.779  1.3376  2.2858 -0.5958
25162SOL     OW76906   1.889   3.034   9.252  0.0704  0.2919 -0.6605
25162SOL    HW176907   1.891   3.129   9.257 -1.4160  0.3730 -1.0206
25162SOL    HW276908   1.809   3.015   9.202  0.5273 -1.1260 -0.8853
25163SOL     OW76909   3.242   4.311   7.737 -0.1550  0.2360  0.0041
25163SOL    HW176910   3.260   4.318   7.831 -0.5410 -1.1211  0.2053
25163SOL    HW276911   3.270   4.222   7.714 -0.0577  0.5620 -1.1683
25164SOL     OW76912   8.072   8.361   3.208 -0.1540  0.2292  0.1983
25164SOL    HW176913   8.029   8.426   3.153  1.0818  1.5851  0.7463
25164SOL    HW276914   8.003   8.329   3.266 -1.4457 -1.1264 -1.9450
25165SOL     OW76915   1.396   5.981   6.005 -0.1332  0.2243 -0.1257
25165SOL    HW176916   1.475   5.954   5.957 -1.5907  0.3062 -2.7505
25165SOL    HW276917   1.351   6.041   5.945 -2.4247 -0.1586  1.1124
25166SOL     OW76918   1.437   2.318   5.133  0.0813  0.4692 -0.1483
25166SOL    HW176919   1.531   2.321   5.153  0.0654  1.9951 -0.1760
25166SOL    HW276920   1.404   2.403   5.163 -0.8074  0.9796 -2.3856
25167SOL     OW76921   8.302   3.733   1.546 -0.0632 -0.4530 -0.2832
25167SOL    HW176922   8.339   3.736   1.634  3.0660 -1.3063 -1.4149
25167SOL    HW276923   8.256   3.816   1.536  3.4740  1.8174  0.6512
25168SOL     OW76924   5.517   6.096   0.056  0.0730 -0.1926  1.1228
25168SOL    HW176925   5.568   6.020   0.029 -1.0911 -0.3786 -0.7559
25168SOL    HW276926   5.577   6.147   0.111  2.5117 -0.1356 -1.3428
25169SOL     OW76927   4.936   0.340   1.016 -0.3198 -0.5732 -0.6579
25169SOL    HW176928   5.004   0.273   1.010 -0.1309 -0.5576  1.0105
25169SOL    HW276929   4.854   0.292   1.003 -0.0670 -0.6921 -2.0068
25170SOL     OW76930   2.199   4.782   0.987  0.3265  0.6110  0.8320
25170SOL    HW176931   2.134   4.839   1.028 -0.2415  0.3519  0.3097
25170SOL    HW276932   2.272   4.840   0.966 -0.2072  1.1296  0.3871
25171SOL     OW76933   0.574   6.357   2.043  0.0504  0.0491 -0.4912
25171SOL    HW176934   0.600   6.275   2.002  0.4777  0.7808 -1.7386
25171SOL    HW276935   0.548   6.413   1.970  0.6011  1.3133  0.2489
25172SOL     OW76936   6.466   1.686   1.213 -0.5785 -0.0483  0.2225
25172SOL    HW176937   6.518   1.609   1.192  0.2727  0.5355  0.1132
25172SOL    HW276938   6.413   1.660   1.288 -0.9817 -1.0220 -0.3940
25173SOL     OW76939   1.888   5.419   7.249  0.2900 -0.1807  0.4219
25173SOL    HW176940   1.930   5.366   7.180 -1.5223  0.0637 -0.9404
25173SOL    HW276941   1.962   5.457   7.297  1.6348 -1.9691 -0.0946
25174SOL     OW76942   3.986   3.545   6.003 -0.3387 -0.0693 -0.1292
25174SOL    HW176943   4.027   3.527   5.918  2.7710  1.8740  0.7736
25174SOL    HW276944   3.925   3.617   5.985 -0.9965 -0.8147 -0.9702
25175SOL     OW76945   2.567   5.659   3.736 -0.0435 -0.2462  0.2188
25175SOL    HW176946   2.567   5.670   3.831  1.2384 -0.6667  0.2854
25175SOL    HW276947   2.549   5.566   3.723 -0.2800 -0.1767  0.0499
25176SOL     OW76948   3.224   3.256   1.699 -0.5921  0.2845  0.3331
25176SOL    HW176949   3.166   3.333   1.701  0.8161  1.5900 -2.8801
25176SOL    HW276950   3.305   3.287   1.739 -0.8283 -0.3804  1.3636
25177SOL     OW76951   7.059   7.931   0.576 -0.0437 -0.2297  0.6634
25177SOL    HW176952   7.061   7.913   0.670 -1.1575 -2.2267  0.3628
25177SOL    HW276953   6.966   7.926   0.553  0.1987  0.4265 -0.5106
25178SOL     OW76954   5.234   1.012   3.925 -0.2937 -0.4118 -0.4103
25178SOL    HW176955   5.280   1.065   3.991  0.5525  0.1897 -1.4463
25178SOL    HW276956   5.166   0.967   3.974  1.0210 -0.8618  1.0891
25179SOL     OW76957   1.313   4.897   2.426  0.4088  0.2616 -0.3313
25179SOL    HW176958   1.280   4.850   2.350  1.1944 -0.5413 -0.1861
25179SOL    HW276959   1.240   4.898   2.487  0.6351 -1.5947  0.0330
25180SOL     OW76960   6.874   4.651   9.062 -0.0320  0.4117  0.2993
25180SOL    HW176961   6.919   4.725   9.100  1.3547  0.0977 -0.6345
25180SOL    HW276962   6.940   4.608   9.007 -1.1202 -0.8178 -0.1210
25181SOL     OW76963   5.676   8.158   7.594 -0.0981 -0.0832 -0.2507
25181SOL    HW176964   5.751   8.105   7.566  1.5651  0.1374  3.2667
25181SOL    HW276965   5.684   8.164   7.689 -2.0508  3.7838 -0.1120
25182SOL     OW76966   2.852   4.381   0.435  0.3156  0.1881 -0.4764
25182SOL    HW176967   2.863   4.317   0.505 -0.8196  0.2230 -0.2609
25182SOL    HW276968   2.758   4.397   0.431  0.3253 -0.0602 -2.2311
25183SOL     OW76969   0.566   5.194   1.978 -0.1899 -0.1703  0.1809
25183SOL    HW176970   0.513   5.207   2.057  1.9005  0.2362  1.6245
25183SOL    HW276971   0.606   5.107   1.990  0.3498  0.0064 -0.2864
25184SOL     OW76972   2.956   3.928   3.549 -0.7352 -0.0498 -0.0465
25184SOL    HW176973   3.032   3.969   3.507  0.5280 -0.4191  1.7505
25184SOL    HW276974   2.958   3.837   3.519 -0.2781 -0.1335  0.2296
25185SOL     OW76975   4.989   8.665   6.749 -0.4267 -0.3274 -0.3220
25185SOL    HW176976   5.002   8.733   6.816  1.9778 -1.2763  0.2703
25185SOL    HW276977   4.974   8.585   6.799  1.6744 -1.1022 -0.8085
25186SOL     OW76978   7.162   1.873   2.858  0.0906 -0.6722 -0.4607
25186SOL    HW176979   7.193   1.798   2.806 -0.4335 -0.4436 -1.1165
25186SOL    HW276980   7.068   1.876   2.842  0.4900  2.2223 -3.3028
25187SOL     OW76981   5.949   7.728   5.435  0.1384 -0.6241 -0.1996
25187SOL    HW176982   6.040   7.706   5.454  0.6616 -0.4628 -2.2588
25187SOL    HW276983   5.913   7.646   5.399 -0.2470 -0.4100 -0.2999
25188SOL     OW76984   2.270   4.831   8.144  0.3069 -0.1434 -0.0174
25188SOL    HW176985   2.272   4.738   8.163 -0.2189 -0.0466  0.5525
25188SOL    HW276986   2.346   4.868   8.188  0.1420 -0.2075  0.3248
25189SOL     OW76987   8.791   0.625   7.536  0.2598  0.2048 -0.7458
25189SOL    HW176988   8.750   0.550   7.580  0.4873  0.2623 -0.4280
25189SOL    HW276989   8.882   0.623   7.565 -0.3891  2.5043  1.9909
25190SOL     OW76990   1.570   3.748   3.596  0.6728 -0.0850 -0.3637
25190SOL    HW176991   1.546   3.740   3.689  3.0567 -0.4020  0.2739
25190SOL    HW276992   1.596   3.839   3.586  0.8093 -0.1541 -0.6318
25191SOL     OW76993   2.598   2.827   5.349 -0.4488  0.2508 -0.0021
25191SOL    HW176994   2.507   2.852   5.368  0.0233  1.9372  0.1885
25191SOL    HW276995   2.627   2.780   5.427 -0.6464  1.2077  0.6726
25192SOL     OW76996   0.219   7.671   3.941  0.2718 -0.4807 -0.0816
25192SOL    HW176997   0.170   7.630   4.013  0.2498 -0.1658  0.0849
25192SOL    HW276998   0.204   7.613   3.866 -1.0846  0.0620 -0.2685
25193SOL     OW76999   0.253   4.613   8.267  0.2130  0.5757 -0.0196
25193SOL    HW177000   0.294   4.642   8.186  0.6522  1.8420  0.6198
25193SOL    HW277001   0.309   4.542   8.298  1.8278  2.0577  0.6694
25194SOL     OW77002   4.108   7.525   6.936  0.2349 -0.4194  0.5262
25194SOL    HW177003   4.176   7.493   6.877 -0.5610 -1.4495  0.1376
25194SOL    HW277004   4.041   7.457   6.934 -1.7731  1.4788 -0.7072
25195SOL     OW77005   0.812   0.492   2.917 -0.0124 -0.4946 -0.4226
25195SOL    HW177006   0.758   0.531   2.848 -0.2068  0.4062  0.2250
25195SOL    HW277007   0.878   0.441   2.870  0.2961  0.6705 -1.3034
25196SOL     OW77008   8.358   1.092   5.521 -0.0645 -0.2818  0.5192
25196SOL    HW177009   8.345   1.029   5.450  0.1294 -0.0506  0.2758
25196SOL    HW277010   8.444   1.069   5.556 -0.1936 -0.4449  0.7298
25197SOL     OW77011   8.469   8.499   3.932 -0.0960  0.0921  0.1204
25197SOL    HW177012   8.397   8.437   3.924 -0.2989  0.3439 -0.0152
25197SOL    HW277013   8.516   8.491   3.849  0.5570 -0.7166  0.5497
25198SOL     OW77014   6.001   5.696   7.918  0.5813 -0.2451 -0.1540
25198SOL    HW177015   5.937   5.628   7.898  1.9110 -1.3405 -0.8354
25198SOL    HW277016   6.039   5.668   8.001  1.2634 -0.4628 -0.5303
25199SOL     OW77017   8.214   8.984   5.286 -0.7436  0.1730 -0.6061
25199SOL    HW177018   8.206   8.891   5.267  2.0335 -0.4916  0.9882
25199SOL    HW277019   8.214   9.026   5.199 -2.9385 -1.1052 -1.3257
25200SOL     OW77020   2.842   6.501   5.602 -0.1529  0.2482 -0.3915
25200SOL    HW177021   2.842   6.565   5.673 -0.6417 -0.0247 -0.1330
25200SOL    HW277022   2.863   6.552   5.524 -0.9003  0.8024 -0.2486
25201SOL     OW77023   1.138   4.886   2.212  0.2664 -0.2296 -0.2293
25201SOL    HW177024   1.191   4.951   2.168  3.1028 -3.1861 -1.5722
25201SOL    HW277025   1.060   4.877   2.157 -0.0032  1.6446 -0.2200
25202SOL     OW77026   0.368   1.326   7.478  0.3680  0.1895 -0.7138
25202SOL    HW177027   0.289   1.292   7.436  0.2224  1.6593 -1.7342
25202SOL    HW277028   0.415   1.370   7.407  0.8018  1.5748  0.3718
25203SOL     OW77029   2.907   3.284   1.666  0.6342 -0.0494 -0.6660
25203SOL    HW177030   2.895   3.378   1.652  2.2777  0.2473 -0.2938
25203SOL    HW277031   2.964   3.257   1.593  0.6480 -0.6253 -0.4418
25204SOL     OW77032   1.401   6.213   2.705 -0.1582  0.3449  0.1102
25204SOL    HW177033   1.455   6.172   2.773 -0.4491  1.4225  1.0153
25204SOL    HW277034   1.366   6.139   2.654 -0.4268 -0.5168  1.4990
25205SOL     OW77035   6.036   1.024   2.668  0.1762  0.0451 -0.1060
25205SOL    HW177036   6.130   1.012   2.651  0.0328 -1.6604  0.1618
25205SOL    HW277037   6.001   0.935   2.672 -1.7467  0.6820 -1.6678
25206SOL     OW77038   3.900   6.856   0.217  0.3771 -0.1836  0.1351
25206SOL    HW177039   3.935   6.797   0.151 -0.0099 -2.0916  1.5378
25206SOL    HW277040   3.939   6.825   0.299  0.4999  1.8233  0.8767
25207SOL     OW77041   6.450   4.356   3.254 -0.0235 -0.7468  0.6183
25207SOL    HW177042   6.399   4.305   3.190  0.8781 -0.1335 -0.6451
25207SOL    HW277043   6.410   4.443   3.252  1.5851  0.0295 -1.1281
25208SOL     OW77044   3.528   3.160   1.390  0.2772 -0.2844  0.1260
25208SOL    HW177045   3.467   3.087   1.388 -0.7180  0.3308  2.9128
25208SOL    HW277046   3.484   3.230   1.343 -0.2949 -0.4582  0.4012
25209SOL     OW77047   1.779   4.186   3.473 -0.2598  0.0732 -0.2532
25209SOL    HW177048   1.841   4.130   3.426 -1.0758  0.0508 -1.3318
25209SOL    HW277049   1.792   4.164   3.566  0.9337 -0.3347 -0.5007
25210SOL     OW77050   1.256   6.554   7.746  0.2130 -0.5307 -0.1356
25210SOL    HW177051   1.333   6.610   7.753  0.1961  0.0764 -3.2500
25210SOL    HW277052   1.280   6.474   7.794  1.1663  1.1178  2.3353
25211SOL     OW77053   9.158   9.000   5.920 -0.2770 -0.0139 -0.6142
25211SOL    HW177054   9.246   9.038   5.909  0.3992 -1.2851  0.2002
25211SOL    HW277055   9.101   9.060   5.872  1.0047  0.9448 -1.0216
25212SOL     OW77056   6.378   6.970   3.041  0.0939  0.2536 -0.0702
25212SOL    HW177057   6.460   6.922   3.029 -0.0998 -0.4288  1.1977
25212SOL    HW277058   6.398   7.039   3.104 -0.6486 -0.9577  1.5857
25213SOL     OW77059   5.586   2.465   2.483 -0.0914  0.0479  0.3864
25213SOL    HW177060   5.660   2.424   2.527  0.6538  1.3715  0.4146
25213SOL    HW277061   5.563   2.404   2.412  0.2746 -0.9144  1.0789
25214SOL     OW77062   4.976   0.625   7.535  0.0858 -0.3125 -0.1345
25214SOL    HW177063   5.024   0.549   7.503  2.9661  1.3936 -0.1659
25214SOL    HW277064   5.028   0.658   7.608 -2.2317  0.4371  1.2840
25215SOL     OW77065   8.323   4.849   0.525  0.0755  0.0076  0.2916
25215SOL    HW177066   8.349   4.904   0.452  1.3775 -1.3728 -0.3372
25215SOL    HW277067   8.299   4.765   0.485 -0.6075 -0.3121  1.3268
25216SOL     OW77068   0.537   4.149   7.540  0.5449  1.0801  0.0861
25216SOL    HW177069   0.612   4.120   7.488 -0.2273  0.8111 -0.8976
25216SOL    HW277070   0.461   4.120   7.491 -0.2883  4.1443 -0.6335
25217SOL     OW77071   7.849   4.648   7.077 -0.2590 -0.3072 -0.9749
25217SOL    HW177072   7.920   4.597   7.038  2.3397  1.3019  1.3403
25217SOL    HW277073   7.833   4.606   7.162  1.0548  1.8356  0.4239
25218SOL     OW77074   8.238   3.368   7.635  0.1020 -0.7001 -0.0834
25218SOL    HW177075   8.204   3.319   7.560  1.6882  0.1461 -1.4237
25218SOL    HW277076   8.332   3.350   7.635  0.2320 -0.1295  1.3081
25219SOL     OW77077   2.310   3.952   2.712 -0.0898 -0.1060 -0.6735
25219SOL    HW177078   2.217   3.932   2.708 -0.0013 -1.1779  1.3735
25219SOL    HW277079   2.323   4.022   2.648 -2.6235  1.2919  0.2180
25220SOL     OW77080   2.653   9.254   7.399 -0.0428 -0.0488  0.0763
25220SOL    HW177081   2.722   9.320   7.395  0.0507 -0.1729 -0.4235
25220SOL    HW277082   2.695   9.179   7.441 -0.0471  0.0789  0.3148
25221SOL     OW77083   1.010   7.681   0.752 -0.1586  0.1201  0.0489
25221SOL    HW177084   0.990   7.737   0.827 -1.4182 -0.1695 -0.0445
25221SOL    HW277085   0.970   7.597   0.773  0.9474 -0.4922 -0.2058
25222SOL     OW77086   8.531   4.799   4.183  0.5162 -0.4840 -0.4962
25222SOL    HW177087   8.593   4.789   4.255  0.6081  0.6972 -0.3939
25222SOL    HW277088   8.447   4.818   4.225  0.6751  0.7218 -0.6946
25223SOL     OW77089   1.041   3.089   7.784 -0.9444 -0.0685 -0.5461
25223SOL    HW177090   1.043   3.040   7.701 -0.8153 -0.8887 -0.0702
25223SOL    HW277091   1.130   3.124   7.793 -0.8095 -0.4150 -0.5041
25224SOL     OW77092   9.232   0.451   8.596 -0.0277 -0.4970  0.3206
25224SOL    HW177093   9.262   0.535   8.560  1.1173 -0.3377  1.5638
25224SOL    HW277094   9.269   0.385   8.537 -1.3540 -0.1346 -0.9514
25225SOL     OW77095   0.048   8.941   2.793  0.1341 -0.6643 -0.0485
25225SOL    HW177096   0.133   8.911   2.825  0.7118  2.2824  1.5723
25225SOL    HW277097  -0.016   8.888   2.841  1.0737 -0.5342  1.4264
25226SOL     OW77098   2.242   4.828   4.703  0.2206  0.8546  0.1034
25226SOL    HW177099   2.283   4.900   4.654 -0.6948  1.5949  0.4090
25226SOL    HW277100   2.156   4.818   4.663  0.9666 -1.3079 -1.1464
25227SOL     OW77101   8.865   6.306   1.321 -0.6528  0.2382  0.0622
25227SOL    HW177102   8.840   6.225   1.277 -1.4460 -0.1715  1.2193
25227SOL    HW277103   8.820   6.303   1.405  0.8888  0.9397  0.9727
25228SOL     OW77104   0.108   1.176   1.457  0.1770  0.5354  0.1858
25228SOL    HW177105   0.190   1.223   1.447 -0.3365  1.4988  0.3220
25228SOL    HW277106   0.088   1.141   1.370  1.1616 -0.4643  0.3480
25229SOL     OW77107   3.492   8.903   4.349 -0.1449 -0.3677 -0.1571
25229SOL    HW177108   3.494   8.961   4.272 -1.3616 -1.2691 -0.9165
25229SOL    HW277109   3.452   8.822   4.316 -0.0493 -1.0188  1.2777
25230SOL     OW77110   5.508   0.819   0.594  0.0133  0.7675 -0.5346
25230SOL    HW177111   5.455   0.804   0.517 -0.0347 -0.5404 -0.2628
25230SOL    HW277112   5.598   0.801   0.566 -0.1502 -1.1095  0.0445
25231SOL     OW77113   6.554   2.239   3.176  0.4309  0.1311 -0.1430
25231SOL    HW177114   6.568   2.283   3.260 -2.0632 -2.5492  1.8990
25231SOL    HW277115   6.595   2.153   3.188 -0.0864 -0.3489 -1.6474
25232SOL     OW77116   6.368   6.783   1.508 -0.0045 -0.3295  0.3807
25232SOL    HW177117   6.315   6.707   1.532 -0.9136 -0.5463 -2.0231
25232SOL    HW277118   6.305   6.846   1.473  0.9654  0.7001  0.4460
25233SOL     OW77119   2.422   0.515   7.047 -0.2035 -0.0224  0.5417
25233SOL    HW177120   2.388   0.603   7.065  0.0399  0.3063 -0.5627
25233SOL    HW277121   2.407   0.501   6.954  2.9530  0.2850 -0.1230
25234SOL     OW77122   8.223   1.031   3.419 -0.2405 -0.2526 -0.0451
25234SOL    HW177123   8.128   1.035   3.425 -0.1779 -0.1049  1.2210
25234SOL    HW277124   8.243   1.047   3.327 -1.3526  1.2812 -0.0477
25235SOL     OW77125   9.186   9.198   0.740 -0.5611 -0.4677 -0.6136
25235SOL    HW177126   9.203   9.188   0.646 -1.9651  2.2112 -1.2818
25235SOL    HW277127   9.267   9.235   0.775  0.3248 -2.3955 -0.4989
25236SOL     OW77128   1.932   7.279   7.198  0.7394  0.1440  0.8138
25236SOL    HW177129   1.976   7.340   7.257  0.5032  0.1702  0.9623
25236SOL    HW277130   1.962   7.193   7.227  1.0783  0.1876  0.5996
25237SOL     OW77131   1.560   0.357   7.959  0.7109  0.3390  0.2254
25237SOL    HW177132   1.535   0.440   7.998 -0.1955  0.4523 -0.5725
25237SOL    HW277133   1.579   0.300   8.034  0.0713  0.8727  0.8066
25238SOL     OW77134   1.475   7.877   2.701 -0.0855 -0.2254 -0.5750
25238SOL    HW177135   1.563   7.858   2.733  0.0478  1.1763 -0.0274
25238SOL    HW277136   1.480   7.865   2.606  1.4865  2.4969 -0.9382
25239SOL     OW77137   2.295   6.203   2.847  0.0696 -0.1713  0.3730
25239SOL    HW177138   2.351   6.131   2.875 -0.7935  0.2152  3.4178
25239SOL    HW277139   2.207   6.165   2.846 -0.2975  0.6521  1.2630
25240SOL     OW77140   1.387   4.254   6.591  0.5166  0.0163  0.0988
25240SOL    HW177141   1.472   4.285   6.559  0.4849  0.3590  0.3470
25240SOL    HW277142   1.379   4.165   6.556  1.1068 -0.1249  0.3242
25241SOL     OW77143   4.247   9.108   3.871 -0.1612  0.1548  0.1970
25241SOL    HW177144   4.183   9.070   3.811  1.8626 -1.9902 -0.7804
25241SOL    HW277145   4.266   9.038   3.933  1.2357  0.7207  0.4367
25242SOL     OW77146   8.555   3.956   2.393 -0.2786  0.2780  0.0869
25242SOL    HW177147   8.477   3.916   2.430 -0.8938  0.0275 -1.3909
25242SOL    HW277148   8.522   4.018   2.328  0.7117  1.7509  0.9141
25243SOL     OW77149   7.844   5.002   2.064 -0.7868 -0.2903 -0.5865
25243SOL    HW177150   7.814   4.912   2.069 -0.2661 -0.4953 -1.0207
25243SOL    HW277151   7.936   4.996   2.038  0.2784  0.2149  2.5339
25244SOL     OW77152   5.538   3.116   7.940 -0.2973  0.0739 -0.4857
25244SOL    HW177153   5.602   3.064   7.892  0.3346 -2.3734  2.6865
25244SOL    HW277154   5.532   3.198   7.891  2.2402 -1.1500 -3.1169
25245SOL     OW77155   2.589   6.872   3.591 -0.2736 -0.3723 -0.1361
25245SOL    HW177156   2.655   6.857   3.523 -1.4105  0.9420 -1.6104
25245SOL    HW277157   2.607   6.806   3.657  0.6359 -2.0172 -1.9274
25246SOL     OW77158   6.274   6.571   5.001  0.2534 -0.4872 -0.4068
25246SOL    HW177159   6.206   6.582   5.067 -0.4615  3.0626 -1.5545
25246SOL    HW277160   6.233   6.518   4.933 -2.5389  3.5769 -2.2651
25247SOL     OW77161   0.349   7.291   0.369  0.0339 -0.0249 -0.0656
25247SOL    HW177162   0.259   7.306   0.340  0.3205 -1.1052 -1.6521
25247SOL    HW277163   0.399   7.361   0.327  0.3322 -1.1348 -1.6516
25248SOL     OW77164   3.379   7.521   0.901 -0.4312  0.2999 -0.3247
25248SOL    HW177165   3.397   7.427   0.897  0.0868  0.4100 -0.7033
25248SOL    HW277166   3.437   7.559   0.836 -1.7827  0.7222 -1.3303
25249SOL     OW77167   8.430   6.116   1.372 -0.4637  0.0718 -0.0528
25249SOL    HW177168   8.403   6.158   1.453 -3.5966  1.6175 -1.7032
25249SOL    HW277169   8.469   6.033   1.399 -1.9171  0.2603  2.9965
25250SOL     OW77170   0.017   3.879   2.011 -0.0171  0.5615  0.0284
25250SOL    HW177171   0.055   3.894   1.924  1.4052 -0.5140  0.4092
25250SOL    HW277172  -0.077   3.870   1.996 -0.4313  4.6085 -0.8027
25251SOL     OW77173   3.186   0.674   3.815  0.0292 -0.3313  0.0201
25251SOL    HW177174   3.178   0.633   3.729 -0.4637  0.5695 -0.3695
25251SOL    HW277175   3.245   0.748   3.801  0.3955 -0.5065  0.5891
25252SOL     OW77176   8.809   8.966   5.142  0.7893 -0.3144 -0.3260
25252SOL    HW177177   8.838   8.968   5.051 -2.3635 -2.5244 -1.5266
25252SOL    HW277178   8.880   8.921   5.188  1.8168 -0.4497 -1.9516
25253SOL     OW77179   2.037   1.427   7.733 -0.8938  0.0949 -0.6466
25253SOL    HW177180   2.033   1.497   7.799  0.7221 -0.0253 -0.3617
25253SOL    HW277181   1.949   1.423   7.696 -1.6328  0.7190  0.9437
25254SOL     OW77182   6.778   1.014   6.498  0.1817 -0.5957  0.4593
25254SOL    HW177183   6.776   1.089   6.439 -2.4436 -1.4601 -0.7120
25254SOL    HW277184   6.817   0.944   6.447  1.2812 -0.4422  1.0558
25255SOL     OW77185   6.497   0.086   2.133  0.1246  0.8294 -0.2918
25255SOL    HW177186   6.438   0.012   2.138 -0.9882  1.1195 -4.8718
25255SOL    HW277187   6.585   0.047   2.140 -0.3984 -0.0722  2.7070
25256SOL     OW77188   4.775   7.694   2.868  0.3142  0.6664  0.0008
25256SOL    HW177189   4.855   7.708   2.818  0.1180  0.8497 -0.2674
25256SOL    HW277190   4.752   7.603   2.851  0.2926  0.7045 -0.1820
25257SOL     OW77191   8.539   3.349   4.450  0.9823  0.6064 -0.2338
25257SOL    HW177192   8.554   3.392   4.534 -0.2786 -0.8499  0.7707
25257SOL    HW277193   8.444   3.346   4.440  1.0517 -1.0484 -0.7357
25258SOL     OW77194   2.583   7.298   5.256  0.3038 -0.0297  0.0252
25258SOL    HW177195   2.575   7.270   5.165 -1.7781  3.6407 -1.1444
25258SOL    HW277196   2.649   7.368   5.254  0.6033 -0.2261  1.4732
25259SOL     OW77197   0.359   6.380   2.237  0.1179  0.0195  0.5845
25259SOL    HW177198   0.438   6.373   2.184  0.3126 -1.1742  1.0036
25259SOL    HW277199   0.390   6.371   2.328 -0.2407  1.7503  0.9140
25260SOL     OW77200   3.739   0.900   3.411 -0.1194  0.2422  0.2924
25260SOL    HW177201   3.662   0.872   3.361  0.3244  2.9990 -2.1594
25260SOL    HW277202   3.811   0.894   3.349  0.6746  2.6140  0.8983
25261SOL     OW77203   8.797   1.935   5.129  0.1394 -0.2271 -0.0089
25261SOL    HW177204   8.709   1.967   5.110 -0.3861 -1.2152  0.6850
25261SOL    HW277205   8.806   1.855   5.077  0.0839 -0.8978  0.9722
25262SOL     OW77206   5.609   5.809   3.454 -0.2028  0.0381  0.1266
25262SOL    HW177207   5.584   5.898   3.429  0.7542  0.0139 -0.9648
25262SOL    HW277208   5.646   5.818   3.542 -2.3925  0.3176  1.1101
25263SOL     OW77209   0.354   8.042   6.612 -0.1371 -0.5810 -0.3272
25263SOL    HW177210   0.279   8.101   6.602  0.1371 -0.1707  0.0013
25263SOL    HW277211   0.430   8.096   6.590  0.3153 -0.1745  1.9854
25264SOL     OW77212   1.873   9.114   6.482  0.0743  0.2678  0.2215
25264SOL    HW177213   1.900   9.065   6.560 -3.3371 -0.3625  1.1533
25264SOL    HW277214   1.854   9.202   6.514 -2.3142 -0.2596  0.3855
25265SOL     OW77215   2.444   0.640   3.845 -0.2185  0.4165 -0.2827
25265SOL    HW177216   2.427   0.732   3.826  1.6001  0.5823 -1.3225
25265SOL    HW277217   2.502   0.641   3.921 -0.0473  0.1539 -0.4056
25266SOL     OW77218   5.340   0.508   8.555 -0.7340 -0.4559  0.3659
25266SOL    HW177219   5.375   0.440   8.498 -0.1327 -1.1870  1.5812
25266SOL    HW277220   5.414   0.566   8.572 -1.1838  0.3983 -0.4695
25267SOL     OW77221   7.926   5.589   2.062  0.0804 -0.6277 -0.3499
25267SOL    HW177222   7.981   5.515   2.090  0.0730 -0.4507  0.1547
25267SOL    HW277223   7.836   5.560   2.082  0.1460 -0.0648  0.9031
25268SOL     OW77224   0.548   2.827   3.805  0.2892  0.0910 -0.8245
25268SOL    HW177225   0.545   2.823   3.901  2.4934 -0.0140 -0.7040
25268SOL    HW277226   0.574   2.917   3.785  3.4434 -0.7521 -1.0765
25269SOL     OW77227   3.010   8.595   5.451  0.3421  0.1300 -0.5261
25269SOL    HW177228   3.066   8.536   5.401 -0.5202 -0.1726 -1.1469
25269SOL    HW277229   2.995   8.550   5.534  1.0470  0.2357 -0.3346
25270SOL     OW77230   3.283   3.238   3.641 -0.0337 -0.1914  0.0965
25270SOL    HW177231   3.233   3.295   3.582  0.4450  0.2471  0.1052
25270SOL    HW277232   3.217   3.182   3.682 -0.3662 -0.6297 -0.9819
25271SOL     OW77233   8.231   5.047   6.947  0.1650 -0.3278 -0.3629
25271SOL    HW177234   8.142   5.015   6.963 -0.7830  2.6824  1.3201
25271SOL    HW277235   8.244   5.037   6.853 -2.3759  0.0250 -0.8279
25272SOL     OW77236   5.882   0.376   4.583 -0.4131 -0.3135 -0.7990
25272SOL    HW177237   5.965   0.392   4.627 -0.6056  0.0556 -0.5646
25272SOL    HW277238   5.904   0.320   4.509  0.3733  1.4634 -1.9701
25273SOL     OW77239   7.923   6.120   7.274 -0.2530  0.8722  0.6372
25273SOL    HW177240   7.889   6.143   7.187  0.0822  1.1882  0.5848
25273SOL    HW277241   7.915   6.025   7.279  1.0191  0.6823 -0.3058
25274SOL     OW77242   4.799   5.047   5.316  0.4276 -0.3645  0.6689
25274SOL    HW177243   4.775   4.958   5.344  2.0242 -1.7009 -1.9138
25274SOL    HW277244   4.894   5.045   5.308  0.4786  1.5500  0.3822
25275SOL     OW77245   3.523   8.359   2.642  0.5783 -0.3986  0.1446
25275SOL    HW177246   3.605   8.317   2.668  0.5392 -1.1101 -0.8048
25275SOL    HW277247   3.461   8.335   2.710  1.2478  0.5082  1.1011
25276SOL     OW77248   0.033   1.856   7.991  0.2745 -0.7564 -0.1619
25276SOL    HW177249  -0.043   1.897   8.033 -0.3708 -0.7804 -1.2705
25276SOL    HW277250   0.087   1.826   8.064 -1.3993 -1.8777  0.6900
25277SOL     OW77251   5.399   8.727   0.394  0.0543  0.1978  0.1371
25277SOL    HW177252   5.464   8.782   0.437  1.0428 -1.9163  1.5181
25277SOL    HW277253   5.333   8.709   0.461  1.1144 -2.3573  0.5884
25278SOL     OW77254   3.080   5.327   8.637 -0.4830  0.6238 -0.1140
25278SOL    HW177255   3.136   5.283   8.574  1.7889  1.6385  1.0931
25278SOL    HW277256   3.126   5.320   8.720 -0.9547  3.5188  0.5017
25279SOL     OW77257   5.196   6.998   3.438 -0.5204 -0.0966 -0.2835
25279SOL    HW177258   5.253   7.074   3.452  0.2228 -0.2575 -2.1373
25279SOL    HW277259   5.227   6.933   3.501  0.2790  0.3961 -0.1510
25280SOL     OW77260   7.307   3.889   7.544  0.2138  0.1904  0.3989
25280SOL    HW177261   7.244   3.825   7.510 -0.2776  2.0048 -2.4931
25280SOL    HW277262   7.252   3.962   7.574  0.7912  1.3666 -1.2238
25281SOL     OW77263   7.114   5.336   6.212 -0.5617  0.5223 -0.4115
25281SOL    HW177264   7.118   5.430   6.228  0.1683  0.5773 -0.8763
25281SOL    HW277265   7.049   5.327   6.142 -2.7882  0.3956  1.5404
25282SOL     OW77266   9.125   1.329   5.068  0.1429  0.7055  0.2332
25282SOL    HW177267   9.190   1.395   5.091  1.9791  0.1461 -2.7467
25282SOL    HW277268   9.072   1.370   5.000  0.3769 -0.3470 -0.6188
25283SOL     OW77269   1.115   8.887   9.227 -0.1447  0.2186 -0.0239
25283SOL    HW177270   1.166   8.816   9.266 -1.4437 -1.3085 -0.9671
25283SOL    HW277271   1.096   8.856   9.138 -1.4087  1.4210 -0.1979
25284SOL     OW77272   6.843   7.968   8.479 -0.1301  0.2983 -0.4512
25284SOL    HW177273   6.784   7.989   8.407 -0.1173  3.6632  0.3649
25284SOL    HW277274   6.917   7.923   8.437 -1.0665  0.3221 -2.1916
25285SOL     OW77275   7.439   7.415   7.871 -0.2460 -0.1234  0.6272
25285SOL    HW177276   7.506   7.347   7.876  0.9622  0.9261 -0.6294
25285SOL    HW277277   7.466   7.470   7.798 -0.7101  2.2259  2.1273
25286SOL     OW77278   6.848   6.689   1.108 -0.1787 -0.3807  0.2758
25286SOL    HW177279   6.921   6.737   1.068  0.7676  0.0007  2.3236
25286SOL    HW277280   6.843   6.723   1.197 -0.8725 -2.5784  1.1389
25287SOL     OW77281   4.851   8.562   6.550 -0.0542  0.3491  0.3873
25287SOL    HW177282   4.910   8.606   6.611  1.2639 -0.2113 -0.4427
25287SOL    HW277283   4.763   8.589   6.578  0.6089  1.7077  1.2602
25288SOL     OW77284   1.452   1.826   4.666  0.0638 -0.2412  0.1005
25288SOL    HW177285   1.416   1.912   4.643  0.2638  0.3352  1.7955
25288SOL    HW277286   1.517   1.845   4.733 -0.1482 -1.7584  0.7593
25289SOL     OW77287   7.886   8.898   3.929  0.4327 -0.6188 -0.5014
25289SOL    HW177288   7.978   8.922   3.939  0.2490  0.5509 -1.3204
25289SOL    HW277289   7.870   8.833   3.997  1.3230  0.6832  1.0250
25290SOL     OW77290   3.497   4.246   6.950 -0.0820 -0.1935 -0.1813
25290SOL    HW177291   3.461   4.277   7.032 -0.2596  0.5327 -0.5230
25290SOL    HW277292   3.586   4.220   6.971  0.3171  1.2092  0.0043
25291SOL     OW77293   7.566   8.703   0.201 -0.3625  0.5453  0.0229
25291SOL    HW177294   7.577   8.755   0.281 -0.1893 -1.2356  1.2153
25291SOL    HW277295   7.475   8.675   0.204 -0.4987  0.9018 -0.6969
25292SOL     OW77296   1.941   2.749   0.520  0.1219  0.2197 -0.0337
25292SOL    HW177297   1.924   2.661   0.485  1.9427 -0.2403  0.1132
25292SOL    HW277298   1.941   2.737   0.615  1.7667  0.0438 -0.0272
25293SOL     OW77299   9.052   8.081   6.462  0.1520 -0.2172  0.2613
25293SOL    HW177300   9.130   8.132   6.440 -0.7428  1.5648  1.0058
25293SOL    HW277301   9.008   8.067   6.378  0.0953  0.7940  0.1147
25294SOL     OW77302   6.458   1.700   4.506  0.8471 -0.1786 -0.4666
25294SOL    HW177303   6.539   1.743   4.534  1.4369 -1.9353  0.6397
25294SOL    HW277304   6.444   1.732   4.417  1.7420  1.5551 -0.0399
25295SOL     OW77305   1.391   2.160   0.085  0.2875  0.0265 -0.5282
25295SOL    HW177306   1.475   2.174   0.040  0.7219  0.9307  0.5093
25295SOL    HW277307   1.393   2.223   0.157 -0.6288 -1.0182  0.4234
25296SOL     OW77308   8.155   5.119   7.343 -0.5043  0.2406 -0.1704
25296SOL    HW177309   8.229   5.084   7.294 -0.3372  1.1173 -0.5730
25296SOL    HW277310   8.196   5.166   7.416 -0.7595 -1.3545  1.0505
25297SOL     OW77311   8.063   5.772   3.887 -0.4405  0.0035 -0.1395
25297SOL    HW177312   8.072   5.840   3.953 -1.9345  0.1002  0.0052
25297SOL    HW277313   7.998   5.806   3.826 -1.0850 -1.2062 -0.1562
25298SOL     OW77314   7.832   0.590   7.982  0.0597 -0.0261 -0.3180
25298SOL    HW177315   7.806   0.677   7.953  0.5925  1.8710  4.1393
25298SOL    HW277316   7.917   0.575   7.940 -0.3805  1.2189 -1.7458
25299SOL     OW77317   1.914   2.268   7.983 -0.2848 -0.2626 -0.0484
25299SOL    HW177318   1.925   2.358   8.013  0.1608 -0.3197 -0.0330
25299SOL    HW277319   1.823   2.246   8.005 -0.4401  0.2327 -0.1943
25300SOL     OW77320   7.009   0.225   6.354  0.5027  0.2578 -0.0708
25300SOL    HW177321   6.950   0.173   6.409 -1.0011  0.2397 -1.6299
25300SOL    HW277322   7.092   0.223   6.401 -0.2756 -1.1378  1.3656
25301SOL     OW77323   8.875   0.585   2.893 -0.2807  0.1084  0.6469
25301SOL    HW177324   8.952   0.615   2.845  0.6414 -1.3968  1.1203
25301SOL    HW277325   8.894   0.494   2.914 -2.2299 -0.3241  0.7269
25302SOL     OW77326   1.914   5.043   8.451  0.4210  0.0802  0.0961
25302SOL    HW177327   1.907   5.095   8.532  1.2113  1.2668 -0.5787
25302SOL    HW277328   1.846   4.976   8.461  0.0119  0.6453  1.4218
25303SOL     OW77329   1.171   4.156   0.979 -0.5760 -0.2376  0.3259
25303SOL    HW177330   1.093   4.175   0.928 -0.5564  1.5190  0.8860
25303SOL    HW277331   1.186   4.235   1.031 -0.2494 -1.6805  2.5992
25304SOL     OW77332   2.585   3.771   7.539  0.6856 -0.8247  0.2325
25304SOL    HW177333   2.519   3.831   7.505 -1.0403 -2.6584  0.1495
25304SOL    HW277334   2.651   3.766   7.470 -0.4235 -0.9403 -0.8575
25305SOL     OW77335   1.894   5.911   6.634 -0.4961 -0.2623 -0.0105
25305SOL    HW177336   1.848   5.980   6.586 -0.7605  0.1696  0.8479
25305SOL    HW277337   1.872   5.926   6.725 -0.3636 -1.3478  0.2167
25306SOL     OW77338   4.223   5.515   7.484  0.2028 -0.0121  0.3609
25306SOL    HW177339   4.190   5.603   7.505 -1.6041 -0.7033  0.5888
25306SOL    HW277340   4.290   5.530   7.419 -1.8296  1.4272 -1.5619
25307SOL     OW77341   0.198   2.021   0.847 -0.3411 -0.2086 -0.1464
25307SOL    HW177342   0.256   2.067   0.787 -1.7753  2.0616  0.0761
25307SOL    HW277343   0.239   2.032   0.933 -0.2385 -0.0506 -0.2143
25308SOL     OW77344   2.320   2.128   0.614  0.3399  0.0521 -0.2953
25308SOL    HW177345   2.260   2.121   0.688 -1.1635  2.1250 -1.1920
25308SOL    HW277346   2.297   2.054   0.557 -1.4407  0.7982 -0.6158
25309SOL     OW77347   2.403   3.675   9.024  0.2256  0.1151  0.7311
25309SOL    HW177348   2.342   3.748   9.019 -0.2739 -0.1235  2.5910
25309SOL    HW277349   2.429   3.671   9.116  0.8608 -1.5562  0.5241
25310SOL     OW77350   9.049   1.813   3.031  0.2503  0.1740 -0.4806
25310SOL    HW177351   9.127   1.855   3.069  0.7091 -0.8204 -0.2659
25310SOL    HW277352   8.985   1.812   3.102  0.9543 -1.2809  0.1906
25311SOL     OW77353   2.957   1.866   7.847  0.0729 -0.7753  0.1123
25311SOL    HW177354   2.885   1.919   7.813  0.9965 -0.7641 -1.9901
25311SOL    HW277355   2.926   1.833   7.931 -2.9479 -1.9477 -1.3436
25312SOL     OW77356   2.806   4.857   0.742  0.2626  0.0913  0.1465
25312SOL    HW177357   2.865   4.843   0.668  0.8479  0.0221  0.6127
25312SOL    HW277358   2.826   4.785   0.802  1.1662  1.1824  1.2173
25313SOL     OW77359   4.876   3.965   6.937  0.3702  0.1675 -0.1478
25313SOL    HW177360   4.870   3.876   6.972 -3.5046  0.5284  0.6265
25313SOL    HW277361   4.854   3.956   6.845  2.5101  0.1240 -0.6994
25314SOL     OW77362   7.630   6.701   0.767 -0.0119  0.3392 -0.2248
25314SOL    HW177363   7.700   6.650   0.728  0.0872  0.6486 -0.4577
25314SOL    HW277364   7.554   6.684   0.712 -0.0993  0.0711 -0.0229
25315SOL     OW77365   0.283   5.530   4.863  0.6794  0.3323  0.6347
25315SOL    HW177366   0.229   5.527   4.943  0.6439  1.5852  0.6761
25315SOL    HW277367   0.365   5.569   4.892  0.6011  0.9611  0.0274
25316SOL     OW77368   5.754   2.308   2.673 -0.0619 -0.1946  0.8787
25316SOL    HW177369   5.668   2.338   2.700 -0.1840  0.8740 -0.5698
25316SOL    HW277370   5.800   2.289   2.755 -1.5075 -0.3431  1.6778
25317SOL     OW77371   7.989   3.885   0.472  0.2276  0.7107 -0.0753
25317SOL    HW177372   8.060   3.931   0.515  0.7233 -0.1657  0.0626
25317SOL    HW277373   8.010   3.891   0.378 -0.5563  2.1284 -0.1853
25318SOL     OW77374   4.019   5.540   7.127  0.0264  0.1502  0.0225
25318SOL    HW177375   3.986   5.579   7.046  0.3207  0.6086  0.1192
25318SOL    HW277376   4.060   5.613   7.174 -0.1405 -0.1128  0.5839
25319SOL     OW77377   8.903   3.458   3.104  0.3475 -0.5211 -0.2242
25319SOL    HW177378   8.932   3.493   3.188  2.7772 -1.9428 -0.3715
25319SOL    HW277379   8.971   3.484   3.043 -1.6396  0.9531 -1.9629
25320SOL     OW77380   2.120   8.765   8.828  0.3591  0.1840 -0.0478
25320SOL    HW177381   2.175   8.711   8.771 -0.9783  1.3582 -2.6453
25320SOL    HW277382   2.036   8.771   8.782  0.0292  3.3830  0.7155
25321SOL     OW77383   1.959   7.376   1.103  0.5701  0.6163 -0.4699
25321SOL    HW177384   1.881   7.408   1.149  0.3843 -0.4206 -0.0405
25321SOL    HW277385   1.929   7.358   1.014  0.7240  1.7980 -0.7767
25322SOL     OW77386   2.439   1.529   5.271 -0.0673 -0.3819 -0.0098
25322SOL    HW177387   2.463   1.618   5.245 -0.4709 -0.5146 -0.8454
25322SOL    HW277388   2.519   1.477   5.257  0.0500 -0.2329  0.1019
25323SOL     OW77389   0.140   2.930   9.060 -0.5855  0.1998 -0.4309
25323SOL    HW177390   0.192   3.007   9.085 -0.5535 -0.0974  0.4458
25323SOL    HW277391   0.123   2.885   9.143 -0.3360 -0.9119 -0.9680
25324SOL     OW77392   8.955   7.164   9.132  0.8780  0.1175  0.3549
25324SOL    HW177393   8.969   7.151   9.038  0.2750  1.4018  0.0656
25324SOL    HW277394   9.038   7.142   9.172  1.0279 -0.8397 -0.4402
25325SOL     OW77395   1.366   3.361   5.032  0.3494 -0.3731  0.3449
25325SOL    HW177396   1.442   3.326   4.985 -0.2652  0.0319 -0.9635
25325SOL    HW277397   1.379   3.456   5.032 -0.1462 -0.3043  0.1485
25326SOL     OW77398   8.256   8.594   5.937  0.1840  0.6259  0.0314
25326SOL    HW177399   8.257   8.686   5.963  1.9328  0.6414 -0.0178
25326SOL    HW277400   8.343   8.577   5.902  0.0384 -1.1554  0.3992
25327SOL     OW77401   2.937   3.100   8.170  0.0887  0.5176  0.4578
25327SOL    HW177402   2.938   3.189   8.134 -0.3187  0.0111 -0.9009
25327SOL    HW277403   2.904   3.110   8.259 -1.1486  1.6223 -0.0792
25328SOL     OW77404   3.415   3.869   4.994  0.0841 -0.2872  0.7373
25328SOL    HW177405   3.343   3.927   4.967  0.4562  0.0806  0.5141
25328SOL    HW277406   3.424   3.885   5.088  1.2967  1.3218  0.3991
25329SOL     OW77407   0.156   1.757   8.772  0.3418  0.1413 -0.1188
25329SOL    HW177408   0.212   1.684   8.747  0.0954 -0.4369  0.9759
25329SOL    HW277409   0.196   1.792   8.851 -0.8331 -0.2858  0.6808
25330SOL     OW77410   2.877   6.571   6.869 -0.3711  0.0072 -0.6192
25330SOL    HW177411   2.840   6.593   6.784 -2.1392 -0.6147 -0.0531
25330SOL    HW277412   2.972   6.573   6.855 -0.6073  0.8598 -2.3432
25331SOL     OW77413   2.556   2.933   5.776 -0.0145 -0.2499  0.8098
25331SOL    HW177414   2.516   3.010   5.735  0.1506 -0.5849  0.0059
25331SOL    HW277415   2.484   2.890   5.822 -0.8071 -1.3236 -1.3311
25332SOL     OW77416   0.811   6.435   8.361 -0.1438  0.1478  0.4888
25332SOL    HW177417   0.837   6.502   8.298  1.0050 -1.0740 -0.4067
25332SOL    HW277418   0.790   6.483   8.441  0.5443  1.5715 -0.1605
25333SOL     OW77419   7.511   2.862   6.996 -0.7628 -0.1694  0.2417
25333SOL    HW177420   7.515   2.767   7.004  1.4224 -0.0291  1.7100
25333SOL    HW277421   7.451   2.889   7.065 -1.3448 -0.4581 -0.1408
25334SOL     OW77422   0.630   8.666   2.496 -0.4305  0.0649  0.1147
25334SOL    HW177423   0.701   8.656   2.559 -0.1298  0.7938 -0.1031
25334SOL    HW277424   0.673   8.677   2.412 -0.7674  0.9941  0.0424
25335SOL     OW77425   4.561   2.008   1.611  0.0028 -0.2711  0.3510
25335SOL    HW177426   4.468   2.028   1.614 -0.0672 -0.6067  0.4666
25335SOL    HW277427   4.602   2.085   1.572 -0.1829  0.3712  1.3984
25336SOL     OW77428   0.534   5.511   8.562  0.0722  0.4757  0.1608
25336SOL    HW177429   0.518   5.454   8.638  0.2079  0.5616  0.2540
25336SOL    HW277430   0.585   5.457   8.502  0.2550  0.5206  0.2759
25337SOL     OW77431   4.593   0.189   6.215  0.1384 -0.4352  0.4486
25337SOL    HW177432   4.526   0.131   6.179  0.4761 -0.4794 -0.1203
25337SOL    HW277433   4.672   0.169   6.164  0.7006 -0.6989  1.4089
25338SOL     OW77434   2.622   3.014   4.142  0.2002  0.1470  0.3460
25338SOL    HW177435   2.683   2.992   4.213  1.9200  1.3199 -0.7051
25338SOL    HW277436   2.564   2.938   4.137  0.9661 -0.6127  2.0103
25339SOL     OW77437   4.056   2.942   0.146  0.4407  0.7641 -0.6136
25339SOL    HW177438   4.125   3.008   0.149  1.6424 -0.4305 -1.0309
25339SOL    HW277439   4.011   2.958   0.063  1.1959  0.6215 -1.0626
25340SOL     OW77440   5.881   0.480   3.329  0.0667  0.2896  0.0285
25340SOL    HW177441   5.912   0.402   3.283  0.5720 -0.3245  1.3593
25340SOL    HW277442   5.921   0.553   3.283 -0.5143 -0.2113 -1.3209
25341SOL     OW77443   5.632   6.929   8.963 -0.3255  0.1744 -0.2354
25341SOL    HW177444   5.613   6.844   8.923 -0.1976  0.9043 -1.9402
25341SOL    HW277445   5.550   6.978   8.956  0.2794  1.0530 -1.6160
25342SOL     OW77446   4.504   4.347   7.163  0.6720 -0.3524 -0.3418
25342SOL    HW177447   4.580   4.314   7.116 -0.1230 -1.0917 -1.1457
25342SOL    HW277448   4.514   4.442   7.164  0.9425 -0.3524 -1.6123
25343SOL     OW77449   7.508   5.186   0.890  0.1341 -0.6267 -0.3994
25343SOL    HW177450   7.415   5.208   0.881  0.2673 -0.2628 -0.9362
25343SOL    HW277451   7.545   5.258   0.940  0.1941 -0.5995 -0.4831
25344SOL     OW77452   9.109   3.019   6.151  0.0182 -0.5474  0.3485
25344SOL    HW177453   9.096   2.936   6.198  0.3614 -0.3151  0.8566
25344SOL    HW277454   9.050   3.080   6.195  0.1528 -0.3904  0.3089
25345SOL     OW77455   6.790   2.504   7.588 -0.4626 -0.1889 -0.3913
25345SOL    HW177456   6.716   2.451   7.618 -0.2614 -0.1028  0.2738
25345SOL    HW277457   6.858   2.441   7.566 -0.8634 -0.2937 -1.4149
25346SOL     OW77458   5.668   3.903   6.246 -0.7986 -0.2930 -0.0170
25346SOL    HW177459   5.608   3.901   6.171  0.0323 -3.0720 -0.7208
25346SOL    HW277460   5.722   3.981   6.230 -2.0776  0.4261 -1.0910
25347SOL     OW77461   4.325   0.918   4.015 -0.1997  0.0436 -0.0306
25347SOL    HW177462   4.255   0.947   4.074  0.2831 -2.5345  1.9906
25347SOL    HW277463   4.404   0.960   4.048 -0.3365  0.8147 -0.6440
25348SOL     OW77464   7.363   2.067   7.078 -0.3472  0.6022 -0.0666
25348SOL    HW177465   7.313   2.148   7.077  0.0414  0.8648 -1.8565
25348SOL    HW277466   7.311   2.006   7.025 -0.4014 -0.1898  0.8610
25349SOL     OW77467   7.043   2.064   1.550 -0.0525 -0.3925  0.3139
25349SOL    HW177468   7.128   2.109   1.543 -1.0086  1.5691  0.4757
25349SOL    HW277469   6.991   2.102   1.478 -0.3435 -2.6977 -0.7692
25350SOL     OW77470   7.952   6.316   3.606 -0.2495  0.0814  0.1086
25350SOL    HW177471   7.911   6.241   3.649 -0.2200  1.1958  2.2011
25350SOL    HW277472   8.008   6.354   3.673 -0.1380  1.8801 -0.9588
25351SOL     OW77473   0.102   8.912   8.241  0.5948  0.4945  0.4473
25351SOL    HW177474   0.191   8.875   8.242  0.2740 -0.3730  2.3688
25351SOL    HW277475   0.053   8.855   8.300 -2.2554 -1.3544 -3.3273
25352SOL     OW77476   8.407   2.866   6.626 -0.5432  0.0480  0.1074
25352SOL    HW177477   8.432   2.855   6.534 -0.1808  0.2975  0.1746
25352SOL    HW277478   8.330   2.811   6.636 -1.3034  0.9294 -0.6506
25353SOL     OW77479   5.256   9.093   1.781  0.0255 -0.7601 -0.7358
25353SOL    HW177480   5.291   9.015   1.736  1.2458 -0.0341 -1.0951
25353SOL    HW277481   5.183   9.121   1.725  0.7400 -0.5930 -1.6069
25354SOL     OW77482   0.553   1.611   2.186 -0.0572 -0.2419  0.3097
25354SOL    HW177483   0.606   1.690   2.179  0.8455 -0.9523 -1.4040
25354SOL    HW277484   0.484   1.623   2.120  0.2572 -0.9853 -0.1701
25355SOL     OW77485   5.712   0.518   0.809  0.6436  0.2409  0.2764
25355SOL    HW177486   5.731   0.588   0.746 -2.7415 -0.5951 -1.9502
25355SOL    HW277487   5.683   0.563   0.888  0.9527  1.3529 -0.2352
25356SOL     OW77488   6.069   3.752   3.556 -0.1964 -0.2915  0.1008
25356SOL    HW177489   6.039   3.814   3.623  0.8391 -0.4941  0.7803
25356SOL    HW277490   5.992   3.736   3.501 -0.0446  3.0628 -1.3049
25357SOL     OW77491   3.768   4.124   6.601 -0.7087  0.3990 -0.0830
25357SOL    HW177492   3.808   4.180   6.668  0.6854  0.5669 -1.0162
25357SOL    HW277493   3.679   4.109   6.633 -0.6402  1.9114  0.9459
25358SOL     OW77494   4.418   4.712   1.238 -0.2320  0.0196 -0.4430
25358SOL    HW177495   4.455   4.777   1.298 -0.3300 -0.1941 -0.1520
25358SOL    HW277496   4.427   4.752   1.152  0.6953 -0.0220 -0.3860
25359SOL     OW77497   5.950   6.546   8.205 -0.0345 -0.5371  0.2033
25359SOL    HW177498   6.017   6.589   8.258  1.2660 -2.3261  0.0995
25359SOL    HW277499   5.869   6.593   8.226  1.0813  1.1707  0.9414
25360SOL     OW77500   3.641   2.858   4.606  0.4548 -0.0786  0.3370
25360SOL    HW177501   3.636   2.791   4.675 -0.9262 -0.4045 -0.0532
25360SOL    HW277502   3.551   2.888   4.595  0.8345  0.8071 -0.5267
25361SOL     OW77503   0.006   1.346   3.679 -0.1041  0.1826  0.5629
25361SOL    HW177504   0.010   1.283   3.607  1.6023  1.3751 -0.4567
25361SOL    HW277505  -0.021   1.294   3.755 -0.0979 -1.4839 -0.5292
25362SOL     OW77506   8.042   1.862   5.031 -0.2116 -0.3386  0.3161
25362SOL    HW177507   7.952   1.895   5.027 -0.4732 -0.2067  4.0609
25362SOL    HW277508   8.043   1.805   5.107  2.9146 -0.3069  0.4174
25363SOL     OW77509   0.611   3.596   2.633  0.2783 -0.1072 -0.5020
25363SOL    HW177510   0.610   3.687   2.662 -1.7022 -0.0674 -0.5173
25363SOL    HW277511   0.703   3.571   2.634  0.7450  1.4706  0.8233
25364SOL     OW77512   2.297   3.805   3.157  0.0493 -0.1636  0.4644
25364SOL    HW177513   2.287   3.843   3.244 -0.0208 -0.0321  0.3996
25364SOL    HW277514   2.374   3.848   3.121 -0.8272  0.9535 -0.1461
25365SOL     OW77515   3.345   8.827   1.163  0.2065  0.2203 -0.3771
25365SOL    HW177516   3.297   8.825   1.080  1.3553  0.8069 -1.0853
25365SOL    HW277517   3.392   8.911   1.161  0.6736 -0.0010  0.6209
25366SOL     OW77518   3.007   4.287   5.455 -0.8504 -0.2143 -0.1564
25366SOL    HW177519   3.003   4.349   5.383 -0.1736  0.7095  0.5795
25366SOL    HW277520   3.040   4.338   5.529 -0.9357 -1.2873  0.6450
25367SOL     OW77521   8.444   8.867   7.805  0.0320 -0.3074  0.1877
25367SOL    HW177522   8.417   8.783   7.770 -1.2170 -1.8649  4.3284
25367SOL    HW277523   8.366   8.922   7.798 -0.2329 -0.6306  0.5897
25368SOL     OW77524   7.534   6.333   4.476  0.8225 -0.1160 -0.6836
25368SOL    HW177525   7.560   6.415   4.517 -0.2873 -0.6396  1.1865
25368SOL    HW277526   7.479   6.359   4.403 -1.0197  0.8307  0.9635
25369SOL     OW77527   2.604   3.545   5.501 -0.4252 -0.0312 -0.6555
25369SOL    HW177528   2.552   3.590   5.435  0.8517 -0.8834 -2.3202
25369SOL    HW277529   2.656   3.482   5.452  0.7979 -0.5091  1.1400
25370SOL     OW77530   6.624   7.061   0.158 -0.6112  0.1952 -0.0656
25370SOL    HW177531   6.592   7.127   0.097 -2.4030 -1.2497 -0.7859
25370SOL    HW277532   6.719   7.072   0.158 -0.8473  2.6704 -0.2294
25371SOL     OW77533   6.051   6.862   8.864 -0.0339 -0.0606  0.4081
25371SOL    HW177534   5.987   6.916   8.911  0.3460  0.4145  0.3949
25371SOL    HW277535   6.132   6.874   8.913  0.3651  0.4364 -0.3507
25372SOL     OW77536   0.448   8.770   0.519 -0.4980  0.1002 -0.1314
25372SOL    HW177537   0.399   8.844   0.554 -0.2275  0.0259  0.4194
25372SOL    HW277538   0.494   8.805   0.442  0.7182  0.8745  0.9062
25373SOL     OW77539   4.446   7.294   3.525  0.1528 -0.3864  0.2654
25373SOL    HW177540   4.403   7.216   3.560  0.6001 -0.1699  1.3288
25373SOL    HW277541   4.472   7.344   3.602  2.1575 -0.4231 -0.3282
25374SOL     OW77542   3.045   5.334   9.164  0.0246 -0.0622 -0.4397
25374SOL    HW177543   2.967   5.382   9.191 -0.5192 -2.1939  2.2037
25374SOL    HW277544   3.057   5.267   9.231  3.0561 -1.0545 -1.7650
25375SOL     OW77545   6.183   8.328   4.865 -0.7137 -0.8208  0.5418
25375SOL    HW177546   6.231   8.256   4.907 -0.1084 -0.3445  0.6843
25375SOL    HW277547   6.152   8.291   4.782 -0.2878 -1.2042  0.5481
25376SOL     OW77548   1.059   3.244   9.185 -0.8491 -0.9678  0.0452
25376SOL    HW177549   1.120   3.226   9.257 -1.0096  0.1129  0.4627
25376SOL    HW277550   1.012   3.161   9.172  0.9208 -1.9228 -0.5149
25377SOL     OW77551   9.259   8.930   6.951  0.3853  0.5830 -0.9706
25377SOL    HW177552   9.340   8.932   7.002  1.0573  2.2540 -2.0282
25377SOL    HW277553   9.200   8.991   6.995  1.5353  3.3240 -2.9468
25378SOL     OW77554   7.796   6.730   3.040  0.7855  0.3314 -0.1976
25378SOL    HW177555   7.835   6.764   3.121  0.9439 -0.3434  0.0211
25378SOL    HW277556   7.797   6.635   3.052  1.4672  0.1851 -1.2981
25379SOL     OW77557   4.672   3.797   1.002  0.1984  0.5150 -0.2850
25379SOL    HW177558   4.635   3.849   0.930  1.7375  0.9286 -0.8165
25379SOL    HW277559   4.599   3.786   1.063 -0.4349  2.5619 -0.5744
25380SOL     OW77560   0.694   1.036   5.750 -0.6648  0.4347 -0.5043
25380SOL    HW177561   0.674   0.959   5.802  0.0620 -0.3519 -1.3579
25380SOL    HW277562   0.758   1.006   5.685 -1.5608  1.3545 -1.8887
25381SOL     OW77563   7.375   5.287   3.487  0.3439 -0.7008 -0.1309
25381SOL    HW177564   7.357   5.294   3.393 -0.3269  2.4668  0.1134
25381SOL    HW277565   7.457   5.334   3.499  0.1062 -0.5391  0.9496
25382SOL     OW77566   3.858   1.459   9.012  0.1464 -0.2528 -0.5064
25382SOL    HW177567   3.829   1.368   9.021 -0.1952 -0.1751 -0.7771
25382SOL    HW277568   3.784   1.504   8.970  0.6575 -0.0488 -1.2261
25383SOL     OW77569   7.542   7.067   4.538 -0.4448  0.1915  0.1603
25383SOL    HW177570   7.552   7.147   4.590  3.1007  1.2484 -1.8374
25383SOL    HW277571   7.497   7.095   4.459  2.4870  0.8057 -1.4123
25384SOL     OW77572   1.534   0.831   2.837  0.0433 -0.3618 -0.0902
25384SOL    HW177573   1.494   0.820   2.751 -1.6812  0.4106  0.5597
25384SOL    HW277574   1.461   0.821   2.898  0.5094  2.5041  1.0995
25385SOL     OW77575   6.412   1.987   3.882  0.0096 -0.0772  0.1943
25385SOL    HW177576   6.481   1.930   3.849  1.3567  0.8042  1.4056
25385SOL    HW277577   6.332   1.935   3.872  0.8879 -1.3099 -0.7712
25386SOL     OW77578   0.649   7.133   7.598  0.3352 -0.9978 -0.0487
25386SOL    HW177579   0.676   7.065   7.659 -1.4274 -2.3978 -0.7297
25386SOL    HW277580   0.576   7.177   7.642  1.4978  0.5434  0.4093
25387SOL     OW77581   2.540   4.895   6.080  0.3929  0.1306  0.3384
25387SOL    HW177582   2.564   4.832   6.149 -0.3395 -1.3099 -0.6741
25387SOL    HW277583   2.457   4.862   6.045  0.4533  1.1632 -0.8333
25388SOL     OW77584   1.727   6.279   5.883 -0.2087  0.5834 -0.2798
25388SOL    HW177585   1.641   6.318   5.898 -0.0044  0.9074  0.0680
25388SOL    HW277586   1.711   6.208   5.820 -1.1158 -0.8145  1.4151
25389SOL     OW77587   7.209   1.464   5.625 -0.3670  0.0152 -0.6864
25389SOL    HW177588   7.140   1.440   5.563  0.7566 -2.4528 -1.0879
25389SOL    HW277589   7.274   1.395   5.617  1.3854  1.3692  0.9080
25390SOL     OW77590   1.351   4.238   4.191  0.1893 -0.4882  0.7786
25390SOL    HW177591   1.287   4.309   4.186 -0.8268 -1.4562 -0.6462
25390SOL    HW277592   1.434   4.281   4.211 -0.4930  1.0409  0.3993
25391SOL     OW77593   8.282   6.006   1.817 -0.4780  0.1686  0.2155
25391SOL    HW177594   8.217   6.056   1.866 -1.0969  0.0274 -0.4644
25391SOL    HW277595   8.314   6.066   1.750 -0.6687 -0.0962 -0.1170
25392SOL     OW77596   1.443   8.858   3.755  0.0116  0.6657 -0.5783
25392SOL    HW177597   1.401   8.860   3.841 -1.9192  0.8617 -1.4746
25392SOL    HW277598   1.533   8.884   3.772 -0.7849  2.5585  1.1363
25393SOL     OW77599   3.784   1.498   0.381  0.1182  0.0854  0.1980
25393SOL    HW177600   3.861   1.535   0.339 -0.6496  1.6985  0.1160
25393SOL    HW277601   3.770   1.553   0.458 -2.0475  1.0936 -0.8308
25394SOL     OW77602   5.950   7.628   7.934 -0.5473 -0.0197 -0.1461
25394SOL    HW177603   5.857   7.651   7.945 -0.4495  1.2944 -1.7751
25394SOL    HW277604   5.948   7.540   7.898 -1.1041 -0.5486  1.1108
25395SOL     OW77605   0.907   6.223   1.433 -0.8386 -0.1297 -0.1080
25395SOL    HW177606   0.988   6.172   1.439 -0.7630 -0.1246 -0.9250
25395SOL    HW277607   0.879   6.212   1.342 -2.5767 -1.3877  0.5065
25396SOL     OW77608   8.860   7.285   2.776  0.0031 -0.0205 -0.5530
25396SOL    HW177609   8.817   7.338   2.708 -2.0931 -0.2627  0.4976
25396SOL    HW277610   8.933   7.244   2.731 -0.9411  0.3211 -2.5221
25397SOL     OW77611   8.670   1.630   2.189 -0.8862 -0.1971  0.2427
25397SOL    HW177612   8.712   1.555   2.230 -0.2872 -0.8206 -1.4445
25397SOL    HW277613   8.741   1.693   2.177 -1.4452  0.8499  1.9673
25398SOL     OW77614   0.061   7.108   3.580 -0.4994 -0.1742 -1.3752
25398SOL    HW177615   0.053   7.175   3.513 -0.5782  0.8393 -0.3942
25398SOL    HW277616   0.101   7.153   3.655  0.9032 -1.6053 -1.1969
25399SOL     OW77617   1.385   7.538   3.584  0.2690  0.5733  0.3446
25399SOL    HW177618   1.439   7.556   3.661  0.4548  2.4580 -0.1794
25399SOL    HW277619   1.442   7.556   3.509  0.5886 -2.7305 -0.3519
25400SOL     OW77620   2.283   6.335   4.028  0.3064  0.2934  0.1045
25400SOL    HW177621   2.270   6.424   3.995  0.6725 -0.0622 -1.0377
25400SOL    HW277622   2.217   6.283   3.981  1.4692 -0.3875 -0.8117
25401SOL     OW77623   3.436   2.083   2.909  0.1189 -0.2177 -0.4144
25401SOL    HW177624   3.522   2.115   2.884 -0.2582 -0.4883 -2.1686
25401SOL    HW277625   3.435   2.090   3.004  2.0045 -0.0646 -0.3702
25402SOL     OW77626   6.731   8.794   6.037  0.6671  0.3236  0.1200
25402SOL    HW177627   6.760   8.883   6.017  0.5270  0.2778 -0.2940
25402SOL    HW277628   6.723   8.752   5.952  0.1128  0.1065  0.2793
25403SOL     OW77629   7.053   1.569   3.166  0.0334 -0.1529 -0.4409
25403SOL    HW177630   7.008   1.485   3.175  1.3156 -0.6929  1.6378
25403SOL    HW277631   7.010   1.627   3.229 -0.1285  0.4307 -1.0774
25404SOL     OW77632   3.440   2.551   8.308  0.2502  0.3468 -0.1750
25404SOL    HW177633   3.487   2.473   8.339  0.7138  0.5513 -0.3546
25404SOL    HW277634   3.349   2.523   8.304  0.1460  0.3201  1.4255
25405SOL     OW77635   4.857   3.439   7.146  0.2604  0.1858  0.4119
25405SOL    HW177636   4.904   3.456   7.228  0.7983  0.1037  0.1215
25405SOL    HW277637   4.890   3.354   7.116 -0.7173 -0.2940  0.6522
25406SOL     OW77638   5.658   2.785   0.093 -0.0238 -0.4356  0.1354
25406SOL    HW177639   5.600   2.764   0.166  0.1150  0.4675  0.5138
25406SOL    HW277640   5.601   2.823   0.027  0.3128  1.8069  1.0721
25407SOL     OW77641   0.878   8.126   6.924 -0.3619  0.0072 -0.0008
25407SOL    HW177642   0.844   8.046   6.885 -1.5350  1.0903 -1.3078
25407SOL    HW277643   0.927   8.096   7.001  1.5472 -2.1865 -1.8820
25408SOL     OW77644   7.195   0.758   7.165 -0.0977 -0.1763  0.2441
25408SOL    HW177645   7.123   0.744   7.103  0.0954 -0.6094  0.1108
25408SOL    HW277646   7.154   0.757   7.251 -0.3514  0.2991  0.1302
25409SOL     OW77647   5.867   5.416   4.119  0.2459  0.3224  0.2383
25409SOL    HW177648   5.940   5.463   4.161 -0.7062  2.5256 -0.4071
25409SOL    HW277649   5.868   5.447   4.028 -0.9566 -0.2715  0.0100
25410SOL     OW77650   0.200   2.993   8.805  0.0518  0.0730  0.3921
25410SOL    HW177651   0.186   2.964   8.895 -1.7222  2.4918  1.0040
25410SOL    HW277652   0.213   3.088   8.813 -0.1523  0.3342 -1.9031
25411SOL     OW77653   6.550   1.657   8.331  0.3240  0.3761  0.2360
25411SOL    HW177654   6.463   1.616   8.333  0.6333 -0.3481  2.8764
25411SOL    HW277655   6.588   1.630   8.247 -1.0901 -1.2959  0.0896
25412SOL     OW77656   8.764   1.931   0.466 -0.3736  0.4350  0.0015
25412SOL    HW177657   8.808   1.873   0.529 -2.3959 -0.9903  0.2156
25412SOL    HW277658   8.676   1.893   0.456 -1.0963  2.3217 -1.4584
25413SOL     OW77659   0.379   6.136   8.081  0.0557  1.1139  0.3881
25413SOL    HW177660   0.436   6.197   8.128  1.9961 -0.7623  0.6233
25413SOL    HW277661   0.363   6.065   8.143  1.6487 -0.8015 -1.2560
25414SOL     OW77662   3.990   5.752   9.154 -0.1352  0.1473 -0.3790
25414SOL    HW177663   3.948   5.677   9.112  0.2267  0.0782 -0.6239
25414SOL    HW277664   4.048   5.714   9.219  0.2818  0.1969 -0.7165
25415SOL     OW77665   4.333   6.272   5.442 -0.8069  0.2292  0.2316
25415SOL    HW177666   4.387   6.224   5.506 -0.4992  3.3065  2.5521
25415SOL    HW277667   4.245   6.271   5.480 -1.3350 -0.5385 -0.9740
25416SOL     OW77668   0.715   2.109   4.721  0.5931  0.4863 -0.6452
25416SOL    HW177669   0.771   2.185   4.704  1.6209 -0.2143 -0.4436
25416SOL    HW277670   0.631   2.132   4.679  0.7208  1.9217 -0.1885
25417SOL     OW77671   3.474   3.672   7.785  0.5313 -0.1153 -0.1081
25417SOL    HW177672   3.448   3.719   7.865  1.3532 -0.9429  0.6656
25417SOL    HW277673   3.452   3.732   7.714 -2.0167 -0.1078  0.5776
25418SOL     OW77674   8.947   3.072   5.945 -0.5891  0.2883 -0.6185
25418SOL    HW177675   9.039   3.068   5.971 -0.7006 -1.5278 -0.4069
25418SOL    HW277676   8.927   2.984   5.914 -2.2699  0.6608 -0.6650
25419SOL     OW77677   3.113   2.830   3.673 -0.5274 -0.0263  0.3453
25419SOL    HW177678   3.165   2.802   3.598 -0.9021  0.0040  0.0715
25419SOL    HW277679   3.114   2.755   3.732 -1.1686 -0.4690 -0.1948
25420SOL     OW77680   1.974   4.915   1.625  0.2973 -0.1973 -0.5316
25420SOL    HW177681   2.046   4.889   1.568 -2.3450  1.2141 -5.1322
25420SOL    HW277682   1.907   4.848   1.611 -0.4491  0.1872  0.9987
25421SOL     OW77683   9.022   5.618   9.225  0.2676 -0.0002 -0.4455
25421SOL    HW177684   9.111   5.650   9.238 -0.3878  1.4817  0.5904
25421SOL    HW277685   8.981   5.627   9.310 -0.9243 -0.5574 -0.9411
25422SOL     OW77686   4.366   9.275   4.802 -0.1637  0.8358  0.1347
25422SOL    HW177687   4.284   9.239   4.768 -0.7868  0.9421  1.4738
25422SOL    HW277688   4.339   9.329   4.876  0.9654  2.2707 -0.4486
25423SOL     OW77689   0.361   2.924   5.426 -0.3034  0.4485  0.2011
25423SOL    HW177690   0.310   2.894   5.501 -0.9506  0.2227 -0.3289
25423SOL    HW277691   0.394   3.010   5.453  0.5287 -0.1610  1.2360
25424SOL     OW77692   6.369   7.528   2.908  0.1624  0.2225  0.2343
25424SOL    HW177693   6.277   7.501   2.914 -0.3243  1.8038  0.3981
25424SOL    HW277694   6.415   7.451   2.876 -1.4157 -0.2551 -0.9992
25425SOL     OW77695   4.764   7.317   2.060  0.0902 -0.3811  0.1660
25425SOL    HW177696   4.724   7.361   1.985  2.5485 -0.9804 -1.6491
25425SOL    HW277697   4.827   7.381   2.094  0.0307 -0.6511  0.7958
25426SOL     OW77698   7.052   0.081   5.119 -0.7913  0.0191 -0.1000
25426SOL    HW177699   6.994   0.157   5.125  0.2269  0.8447 -0.3904
25426SOL    HW277700   7.012   0.025   5.054 -1.2659  0.5763 -0.2978
25427SOL     OW77701   0.338   3.143   7.053  0.2016  0.0430 -0.2143
25427SOL    HW177702   0.356   3.141   6.959 -1.6541 -0.1141 -0.6058
25427SOL    HW277703   0.261   3.200   7.061 -0.0599 -0.4741  1.1378
25428SOL     OW77704   4.096   3.226   3.952  0.4891 -0.6594 -0.2795
25428SOL    HW177705   4.131   3.139   3.970  1.2288 -0.3799 -0.3300
25428SOL    HW277706   4.144   3.256   3.875  0.3035 -0.1738 -0.2124
25429SOL     OW77707   8.679   2.527   8.680  0.5519  0.3664 -0.4259
25429SOL    HW177708   8.635   2.541   8.764  0.3205  0.1273 -0.5107
25429SOL    HW277709   8.771   2.549   8.698  0.6192 -0.2801  0.0483
25430SOL     OW77710   3.391   4.706   4.300  0.5068 -0.1465 -0.4592
25430SOL    HW177711   3.359   4.617   4.315  0.3122 -0.6278 -3.2282
25430SOL    HW277712   3.314   4.762   4.312  0.8408 -0.1322  2.3185
25431SOL     OW77713   8.784   4.893   8.579  0.2977  0.3233  0.3035
25431SOL    HW177714   8.824   4.931   8.501  0.8096 -0.5432  0.1322
25431SOL    HW277715   8.840   4.818   8.601 -0.1333  0.2502  1.2008
25432SOL     OW77716   4.821   0.136   1.300 -0.6767  0.1111 -0.4758
25432SOL    HW177717   4.903   0.124   1.348  0.1660  1.5814 -1.4469
25432SOL    HW277718   4.831   0.083   1.221  0.2743  1.8261 -1.5883
25433SOL     OW77719   0.636   6.393   9.075 -0.4991 -0.3296 -0.1109
25433SOL    HW177720   0.573   6.321   9.072 -0.8785 -0.0776  1.3761
25433SOL    HW277721   0.662   6.405   8.983 -0.1560 -2.5704 -0.3709
25434SOL     OW77722   8.999   5.431   2.969 -0.2950 -0.0257  0.9293
25434SOL    HW177723   8.950   5.498   2.921 -1.5757 -0.1461  1.9991
25434SOL    HW277724   9.021   5.473   3.053  3.3607  0.7661 -0.2594
25435SOL     OW77725   8.347   0.903   5.272 -0.6225 -0.1435 -0.8641
25435SOL    HW177726   8.339   0.858   5.188  2.4644 -0.0694 -1.3047
25435SOL    HW277727   8.402   0.845   5.325 -2.0270  0.0862  0.9524
25436SOL     OW77728   2.673   8.849   2.347 -0.0045  0.4400  0.4436
25436SOL    HW177729   2.666   8.870   2.253 -2.5947 -0.1933  0.4217
25436SOL    HW277730   2.632   8.923   2.391 -3.2189 -1.3271  0.7198
25437SOL     OW77731   5.799   3.570   1.172  0.3969  0.7076 -0.1619
25437SOL    HW177732   5.745   3.546   1.248 -0.4005 -0.0829 -0.9631
25437SOL    HW277733   5.779   3.662   1.157  0.9866  1.0281  0.9223
25438SOL     OW77734   8.817   5.911   8.853 -0.3607 -0.3040  0.0730
25438SOL    HW177735   8.853   5.844   8.911  0.4178  0.8553  0.9811
25438SOL    HW277736   8.743   5.868   8.809  1.8291 -2.6638 -1.5940
25439SOL     OW77737   6.231   3.230   5.983  0.6330  0.4147  0.0774
25439SOL    HW177738   6.279   3.219   5.901 -0.3835 -1.0055 -0.3619
25439SOL    HW277739   6.277   3.173   6.045 -0.2235 -0.6786 -0.2553
25440SOL     OW77740   3.172   5.608   8.718  0.1200 -0.3143  0.2165
25440SOL    HW177741   3.190   5.578   8.629 -0.2232  0.6770 -0.2089
25440SOL    HW277742   3.091   5.565   8.743 -0.4235  0.3228 -0.4192
25441SOL     OW77743   2.963   5.290   1.286  0.2666 -0.7542  0.2380
25441SOL    HW177744   2.938   5.354   1.353 -0.0514 -0.3359 -0.2750
25441SOL    HW277745   2.882   5.245   1.265 -0.1386  0.6662 -1.4956
25442SOL     OW77746   2.322   9.073   9.157  0.0063  0.1624  0.7169
25442SOL    HW177747   2.312   9.055   9.064 -0.4484  2.9351  0.1529
25442SOL    HW277748   2.328   8.986   9.197  0.3897 -1.1145 -1.8744
25443SOL     OW77749   4.358   5.768   7.595  0.2246 -0.6926 -0.2819
25443SOL    HW177750   4.270   5.803   7.587 -0.4594 -2.5021 -1.2644
25443SOL    HW277751   4.357   5.720   7.678  0.3380 -0.5613 -0.2045
25444SOL     OW77752   5.336   3.399   0.521  0.0652  0.0041 -0.0764
25444SOL    HW177753   5.388   3.320   0.533 -0.6297 -0.4713 -0.1538
25444SOL    HW277754   5.260   3.387   0.577  0.2416  0.8889  0.3725
25445SOL     OW77755   1.601   3.469   4.026 -0.3918  0.3777 -0.7244
25445SOL    HW177756   1.694   3.444   4.033 -0.4804 -0.3244 -1.8035
25445SOL    HW277757   1.561   3.430   4.103 -0.0230 -0.5404 -0.9722
25446SOL     OW77758   1.790   8.738   0.489 -0.3426  0.3689  0.8727
25446SOL    HW177759   1.763   8.716   0.400 -1.6567 -0.0526  1.3434
25446SOL    HW277760   1.714   8.783   0.526 -0.3104 -0.5764  2.1653
25447SOL     OW77761   1.035   9.108   7.261 -0.3909  0.0090 -0.1133
25447SOL    HW177762   1.120   9.128   7.221 -0.5893 -1.8778 -1.6704
25447SOL    HW277763   0.980   9.182   7.237  0.9726  1.7162  1.6964
25448SOL     OW77764   8.721   3.988   3.623  0.1445  0.0523  0.2561
25448SOL    HW177765   8.681   4.052   3.682  1.3973  0.6396  0.4968
25448SOL    HW277766   8.795   4.034   3.584 -0.0065 -0.6821 -0.9591
25449SOL     OW77767   8.128   3.663   1.216  0.2669  0.4908 -0.3005
25449SOL    HW177768   8.105   3.570   1.212 -0.7556  0.6281  1.3716
25449SOL    HW277769   8.216   3.668   1.179  0.5243 -1.2259  0.0146
25450SOL     OW77770   5.670   5.933   0.583 -0.2192 -0.7482 -0.9346
25450SOL    HW177771   5.693   6.000   0.648 -1.4326 -1.6046  0.4355
25450SOL    HW277772   5.592   5.969   0.539  0.2506 -0.4333 -1.5193
25451SOL     OW77773   5.132   8.238   1.548 -0.3348 -0.1851 -0.2564
25451SOL    HW177774   5.218   8.254   1.587 -0.6156  0.6034  0.0594
25451SOL    HW277775   5.138   8.278   1.461 -0.4999  0.1897 -0.0957
25452SOL     OW77776   6.529   9.075   2.091  0.0407  0.4052  0.5026
25452SOL    HW177777   6.443   9.064   2.130  0.1034 -1.9010  0.1111
25452SOL    HW277778   6.590   9.043   2.158  0.6252  1.8850  0.7216
25453SOL     OW77779   4.863   2.987   2.171  0.2314  0.1549  0.6178
25453SOL    HW177780   4.909   3.014   2.092  0.3808 -1.2031  0.2055
25453SOL    HW277781   4.860   2.891   2.165  1.2510 -0.0750  2.8109
25454SOL     OW77782   8.800   2.821   1.485 -0.9292  0.1504 -0.4056
25454SOL    HW177783   8.856   2.750   1.454 -0.3219  0.6032 -0.3477
25454SOL    HW277784   8.790   2.879   1.409 -1.0601  0.2339 -0.3253
25455SOL     OW77785   6.914   9.054   1.177  0.0115  0.8036 -0.5942
25455SOL    HW177786   7.006   9.083   1.172 -0.3311  1.9863 -0.4816
25455SOL    HW277787   6.864   9.134   1.163 -1.0157  0.0464 -1.3239
25456SOL     OW77788   9.215   6.946   3.758  0.2550 -0.9016 -0.1471
25456SOL    HW177789   9.255   6.950   3.844 -0.0036 -0.8148 -0.0306
25456SOL    HW277790   9.277   6.990   3.700 -0.0326 -0.0708  0.1677
25457SOL     OW77791   2.909   0.920   4.754  0.1969 -0.1281 -0.3240
25457SOL    HW177792   2.963   0.853   4.797 -1.2314 -1.5824 -0.6848
25457SOL    HW277793   2.837   0.935   4.815 -0.4310 -0.2218 -1.0392
25458SOL     OW77794   1.784   3.598   7.461  0.3123 -0.4596  0.2702
25458SOL    HW177795   1.827   3.619   7.378 -0.5835  0.7175  0.0768
25458SOL    HW277796   1.760   3.683   7.498  0.0355 -1.0005  1.3864
25459SOL     OW77797   1.473   2.987   6.165  0.4408  0.0169  0.3289
25459SOL    HW177798   1.537   2.959   6.230  0.6568 -0.4387 -0.0696
25459SOL    HW277799   1.496   2.938   6.086 -0.6743 -0.5185  0.3041
25460SOL     OW77800   4.054   3.243   4.828 -0.1170  0.8291 -0.1548
25460SOL    HW177801   4.114   3.300   4.877 -0.5494  1.1148  0.0484
25460SOL    HW277802   4.099   3.159   4.823  0.2498  1.0080  0.1003
25461SOL     OW77803   7.508   7.521   6.638  0.0022 -0.4559 -0.4910
25461SOL    HW177804   7.548   7.485   6.716 -0.6374  0.6893  0.3933
25461SOL    HW277805   7.437   7.460   6.617  0.3980 -0.9543 -0.4108
25462SOL     OW77806   2.718   7.122   7.156  0.3662  0.5666  0.6666
25462SOL    HW177807   2.718   7.191   7.090  0.0882  0.5616  0.6613
25462SOL    HW277808   2.644   7.066   7.133  1.2912 -0.4095 -0.0133
25463SOL     OW77809   1.436   5.543   5.917 -0.2357 -0.1750 -0.3253
25463SOL    HW177810   1.344   5.568   5.924 -0.0014  0.8101 -0.5586
25463SOL    HW277811   1.466   5.584   5.836  0.4641 -0.2827 -0.1289
25464SOL     OW77812   6.743   0.132   4.862 -0.0825  0.1448  0.5735
25464SOL    HW177813   6.692   0.129   4.943  0.3820 -2.5001  0.8462
25464SOL    HW277814   6.677   0.132   4.793 -0.4965 -0.8668  0.9474
25465SOL     OW77815   6.621   8.195   7.906  0.0989  0.2747 -0.0514
25465SOL    HW177816   6.642   8.114   7.859  3.0721 -0.7039  2.6559
25465SOL    HW277817   6.551   8.171   7.966  1.2677 -0.4632  1.0466
25466SOL     OW77818   3.066   5.609   8.103 -0.0752 -0.0495 -0.3384
25466SOL    HW177819   2.973   5.588   8.092 -0.2426 -0.3936  1.4103
25466SOL    HW277820   3.078   5.691   8.054 -0.4395 -1.7512 -3.5503
25467SOL     OW77821   2.663   4.094   1.380  0.0677  0.0274 -0.0930
25467SOL    HW177822   2.583   4.090   1.432 -0.0240  0.5305 -0.1874
25467SOL    HW277823   2.639   4.147   1.304  0.2793 -0.4676 -0.5073
25468SOL     OW77824   9.254   6.884   7.922  0.6128  0.0366 -0.3465
25468SOL    HW177825   9.335   6.880   7.973 -0.7517  0.7134  2.0106
25468SOL    HW277826   9.217   6.970   7.943  0.0537  0.4448 -2.7015
25469SOL     OW77827   8.660   3.728   6.206  0.0576 -0.1637 -0.0312
25469SOL    HW177828   8.699   3.810   6.237 -0.4451 -0.1161  0.5027
25469SOL    HW277829   8.583   3.717   6.261  1.1785 -2.0112  1.2680
25470SOL     OW77830   4.261   7.535   2.228  0.7528 -0.0794 -0.8217
25470SOL    HW177831   4.238   7.504   2.316  0.9779 -0.5368 -0.9183
25470SOL    HW277832   4.276   7.629   2.239 -0.1329  0.0423 -0.5606
25471SOL     OW77833   7.279   3.269   2.582  0.0394  0.0951 -0.4185
25471SOL    HW177834   7.348   3.335   2.592 -0.1268  0.5066 -1.7048
25471SOL    HW277835   7.249   3.280   2.491 -2.5239  0.7346  0.4170
25472SOL     OW77836   4.346   4.503   3.997 -0.5137  0.3067  0.6575
25472SOL    HW177837   4.383   4.421   3.963 -0.9369  0.8242 -1.1490
25472SOL    HW277838   4.261   4.478   4.032 -0.5683 -0.0527  0.2783
25473SOL     OW77839   3.741   5.939   6.026  0.2031  0.3855 -0.1210
25473SOL    HW177840   3.651   5.912   6.045  0.4894 -1.8014 -1.5059
25473SOL    HW277841   3.792   5.858   6.030  1.8211  1.2947 -0.9982
25474SOL     OW77842   9.174   0.477   3.006  0.4943  0.0102 -0.8816
25474SOL    HW177843   9.167   0.544   3.074 -1.0765 -1.9816  1.0647
25474SOL    HW277844   9.118   0.509   2.935  0.4353  1.1396 -0.3410
25475SOL     OW77845   2.104   2.157   7.506 -0.1661 -0.0311 -1.3587
25475SOL    HW177846   2.050   2.204   7.441 -3.0091 -1.4426 -0.2038
25475SOL    HW277847   2.076   2.192   7.590 -0.5135 -1.9635 -0.6224
25476SOL     OW77848   3.294   3.702   0.765  0.1112  0.1498  0.2622
25476SOL    HW177849   3.203   3.729   0.776 -1.2179 -1.3055 -4.6070
25476SOL    HW277850   3.296   3.610   0.789  0.2921  0.1965  0.4264
25477SOL     OW77851   2.316   6.686   3.534  0.5012  0.2028 -0.1385
25477SOL    HW177852   2.279   6.604   3.568  1.3387 -0.5516 -0.9897
25477SOL    HW277853   2.362   6.724   3.609  0.0896 -0.0872  0.2699
25478SOL     OW77854   1.796   1.140   7.752  0.0626  0.3164 -0.3962
25478SOL    HW177855   1.782   1.213   7.692 -0.0484 -1.0642 -2.1104
25478SOL    HW277856   1.813   1.065   7.696 -2.1902 -1.5397  1.2031
25479SOL     OW77857   2.100   6.403   3.480  0.1422 -0.1464  0.4968
25479SOL    HW177858   2.156   6.418   3.556 -1.4258 -1.6077  2.0154
25479SOL    HW277859   2.097   6.308   3.471 -1.8252 -0.0931  0.2486
25480SOL     OW77860   1.297   5.407   4.310  0.0558 -0.3733 -0.4933
25480SOL    HW177861   1.348   5.473   4.264  0.1092 -1.2477 -1.7608
25480SOL    HW277862   1.317   5.420   4.403 -0.2501  1.6122 -0.6677
25481SOL     OW77863   6.659   7.526   8.788  0.1636 -0.1806 -0.0288
25481SOL    HW177864   6.656   7.585   8.713 -1.8904 -0.6004 -0.3301
25481SOL    HW277865   6.753   7.513   8.804  0.6553  1.1818 -1.4948
25482SOL     OW77866   6.222   6.868   3.457 -0.0101  0.3745  0.9260
25482SOL    HW177867   6.209   6.938   3.521  0.3555 -1.0165  2.6158
25482SOL    HW277868   6.294   6.815   3.494  0.6541 -0.1257 -0.9805
25483SOL     OW77869   5.886   4.161   7.083  0.6574 -0.3177 -0.4003
25483SOL    HW177870   5.852   4.166   6.994  1.7486 -0.3102 -0.8262
25483SOL    HW277871   5.884   4.068   7.105 -3.0745 -0.1009  0.9898
25484SOL     OW77872   2.901   1.451   0.912  0.0559 -0.5046 -0.4111
25484SOL    HW177873   2.979   1.505   0.896 -0.7138  0.6898 -0.3046
25484SOL    HW277874   2.934   1.361   0.913  1.4525 -0.0255 -0.2316
25485SOL     OW77875   5.681   9.169   3.226 -0.5072  0.1350  0.2225
25485SOL    HW177876   5.693   9.213   3.142 -1.3502  1.7031  0.8888
25485SOL    HW277877   5.707   9.233   3.291  2.3919 -1.8177  1.1912
25486SOL     OW77878   7.428   0.789   1.036 -0.0608  0.6735  0.1211
25486SOL    HW177879   7.396   0.757   1.120 -0.4921  1.8064  0.3979
25486SOL    HW277880   7.524   0.791   1.046 -0.0179 -0.4813  0.0951
25487SOL     OW77881   2.212   0.505   3.825 -0.1613 -0.1408  0.0650
25487SOL    HW177882   2.252   0.419   3.819  0.6459  0.3113 -1.5618
25487SOL    HW277883   2.281   0.566   3.801 -1.4854  0.7341 -1.8416
25488SOL     OW77884   6.836   3.513   4.906 -0.2857  0.4425  0.2743
25488SOL    HW177885   6.828   3.508   4.811  0.3549 -0.4220  0.2476
25488SOL    HW277886   6.834   3.606   4.926  2.1909  0.8149 -0.8611
25489SOL     OW77887   2.291   8.017   5.923  0.6422 -0.4988  0.2717
25489SOL    HW177888   2.255   7.979   6.003  1.0877  0.5584  0.9887
25489SOL    HW277889   2.293   7.944   5.861  0.1498 -1.2964  1.1682
25490SOL     OW77890   4.761   8.819   1.821 -0.4451  0.5548  0.0115
25490SOL    HW177891   4.676   8.778   1.806 -1.0921  1.2430  1.5308
25490SOL    HW277892   4.787   8.790   1.908  0.1175  1.5932  0.2105
25491SOL     OW77893   8.236   5.589   1.961 -0.1413  0.2243  0.0443
25491SOL    HW177894   8.280   5.556   2.040  1.5541 -0.1222 -0.9956
25491SOL    HW277895   8.215   5.680   1.982 -0.1548  0.0025  1.0622
25492SOL     OW77896   8.699   4.984   9.168  0.4855 -0.5125  0.7984
25492SOL    HW177897   8.767   4.924   9.140  0.5413 -0.5967  1.1153
25492SOL    HW277898   8.649   4.936   9.234  0.8951 -0.0079  1.4943
25493SOL     OW77899   3.507   5.503   8.108  0.0284  0.6331 -0.9603
25493SOL    HW177900   3.461   5.527   8.027  0.7701  0.9261 -1.3043
25493SOL    HW277901   3.515   5.586   8.156 -0.1497  0.5129 -0.7275
25494SOL     OW77902   3.432   3.472   2.037 -0.5182  0.1686 -0.2005
25494SOL    HW177903   3.501   3.456   2.102 -2.2635 -2.3718  1.1715
25494SOL    HW277904   3.402   3.561   2.056  3.0957  1.9081 -1.6786
25495SOL     OW77905   5.946   3.039   7.925 -0.0229  0.1628  0.2639
25495SOL    HW177906   5.992   2.988   7.858  0.8650  1.1567  0.0984
25495SOL    HW277907   5.859   2.999   7.929 -0.1980  0.2299 -1.6842
25496SOL     OW77908   5.956   9.115   8.251 -0.4592  0.2634  0.7306
25496SOL    HW177909   6.018   9.063   8.303 -2.9132 -1.4483  2.1368
25496SOL    HW277910   5.977   9.206   8.272  1.9626 -0.1986  0.6046
25497SOL     OW77911   4.850   5.437   3.308  1.0844  0.4328 -0.2448
25497SOL    HW177912   4.795   5.363   3.338  1.1102  0.0255 -1.1655
25497SOL    HW277913   4.856   5.494   3.384 -1.2497  0.8616 -0.3079
25498SOL     OW77914   1.490   5.445   2.751 -0.4492 -0.0942  0.0837
25498SOL    HW177915   1.432   5.385   2.704  0.2101 -0.4562 -0.2877
25498SOL    HW277916   1.506   5.516   2.690 -1.1718  0.4277  0.4976
25499SOL     OW77917   6.739   6.627   3.605  0.4364  0.6375 -0.4180
25499SOL    HW177918   6.767   6.684   3.677  0.3930  0.0002  0.1104
25499SOL    HW277919   6.730   6.541   3.645 -0.0702  0.3769 -1.0826
25500SOL     OW77920   2.595   2.884   8.475  0.0780 -0.3953  0.3100
25500SOL    HW177921   2.502   2.871   8.457  0.0339  0.4847 -0.1110
25500SOL    HW277922   2.632   2.796   8.472 -0.6632 -0.7039  0.0622
25501SOL     OW77923   4.564   4.345   1.551  0.2700  0.4608  0.2386
25501SOL    HW177924   4.654   4.313   1.543  0.7051  1.3284  1.4014
25501SOL    HW277925   4.546   4.386   1.466  1.2447  0.9282  0.2414
25502SOL     OW77926   3.071   6.590   3.358 -1.0000 -0.0461 -0.3315
25502SOL    HW177927   3.133   6.663   3.363  1.1302 -1.4864 -2.9956
25502SOL    HW277928   3.003   6.620   3.299  0.8569 -0.7169 -2.9785
25503SOL     OW77929   4.589   7.285   4.542  0.0879  0.5720  0.0966
25503SOL    HW177930   4.494   7.286   4.557 -0.0318  0.4714 -0.6004
25503SOL    HW277931   4.627   7.301   4.628 -0.5715  1.2738  0.2684
25504SOL     OW77932   9.174   3.334   1.377 -0.0048 -0.0633  0.3265
25504SOL    HW177933   9.258   3.323   1.332 -0.1783  0.2249 -0.0732
25504SOL    HW277934   9.188   3.296   1.464  0.4588 -0.2507  0.1716
25505SOL     OW77935   4.646   8.248   4.527  0.0237  0.4202 -0.2151
25505SOL    HW177936   4.644   8.237   4.432 -0.0097  1.3005 -0.3194
25505SOL    HW277937   4.737   8.229   4.551  0.1226  0.5776 -0.4682
25506SOL     OW77938   0.932   3.922   6.052  0.0956 -0.5453 -0.1320
25506SOL    HW177939   0.926   3.971   6.135 -1.7751  0.1531 -0.6427
25506SOL    HW277940   1.023   3.935   6.024  0.7713 -0.7891  1.7835
25507SOL     OW77941   0.695   2.896   8.844  0.1910  0.0213 -0.7661
25507SOL    HW177942   0.763   2.857   8.899 -1.4606  0.1057  1.4605
25507SOL    HW277943   0.702   2.990   8.862 -0.1912  0.0763 -0.9067
25508SOL     OW77944   8.526   4.147   3.753  0.3610  0.2125 -0.5845
25508SOL    HW177945   8.456   4.201   3.716  0.2592  0.3265 -0.2312
25508SOL    HW277946   8.481   4.068   3.785  0.3992  0.2612 -0.4083
25509SOL     OW77947   7.458   2.384   7.724 -0.2908 -0.1257  0.0413
25509SOL    HW177948   7.546   2.367   7.690 -0.8588 -1.2279 -0.9264
25509SOL    HW277949   7.458   2.344   7.811 -0.5251 -2.2267 -0.8621
25510SOL     OW77950   6.231   0.534   6.926  0.4405 -0.1549 -0.6522
25510SOL    HW177951   6.236   0.438   6.919  3.6377  0.0021 -2.9250
25510SOL    HW277952   6.139   0.552   6.945 -0.2285 -3.6489  0.2802
25511SOL     OW77953   1.063   5.671   4.336 -0.3670 -0.1613 -0.2039
25511SOL    HW177954   0.972   5.698   4.341 -0.3280 -0.1474  0.5421
25511SOL    HW277955   1.082   5.667   4.242 -0.6397  1.5012 -0.3637
25512SOL     OW77956   9.112   3.573   2.413  0.2085 -0.6220 -0.5193
25512SOL    HW177957   9.148   3.532   2.335 -0.4229 -0.5765 -0.8406
25512SOL    HW277958   9.019   3.586   2.393  0.2769  0.4663 -0.2160
25513SOL     OW77959   2.897   6.808   3.479 -0.1464  0.1849 -0.7873
25513SOL    HW177960   2.986   6.819   3.446 -0.2291  0.9793 -0.7648
25513SOL    HW277961   2.848   6.882   3.443 -0.3552  0.8022  0.6582
25514SOL     OW77962   3.164   8.109   4.660 -0.7798 -0.5622  0.0379
25514SOL    HW177963   3.225   8.146   4.724  0.7127  0.0982 -1.6396
25514SOL    HW277964   3.103   8.180   4.640 -1.0147 -0.6477  0.4535
25515SOL     OW77965   6.287   4.352   3.032  0.1731  0.1059 -0.4470
25515SOL    HW177966   6.301   4.265   2.994  1.4255  0.2846 -0.4406
25515SOL    HW277967   6.193   4.367   3.024  0.2179 -0.3467 -2.4683
25516SOL     OW77968   3.046   2.854   5.841 -0.5336  0.0953 -0.6851
25516SOL    HW177969   2.991   2.931   5.851 -1.8019 -0.8448 -0.1064
25516SOL    HW277970   3.131   2.880   5.874 -1.6235  0.4897  2.0727
25517SOL     OW77971   8.288   0.217   1.895 -0.1924  0.9016  0.6068
25517SOL    HW177972   8.368   0.248   1.852 -0.9902  0.9299 -0.9134
25517SOL    HW277973   8.308   0.220   1.989  1.9670 -0.1284  0.2390
25518SOL     OW77974   3.149   6.605   6.812  0.3296 -0.0089  0.1982
25518SOL    HW177975   3.188   6.668   6.873 -1.2495  1.2556 -0.0268
25518SOL    HW277976   3.154   6.649   6.727  0.1815 -0.6691 -0.1560
25519SOL     OW77977   4.632   5.565   7.085  0.1141 -0.0940 -0.0665
25519SOL    HW177978   4.700   5.503   7.061  1.4133  1.5270 -0.7843
25519SOL    HW277979   4.679   5.637   7.127 -1.1549  0.9947 -0.4284
25520SOL     OW77980   2.140   8.069   5.043  0.4317 -0.6259 -0.4109
25520SOL    HW177981   2.194   8.148   5.044 -0.9118  0.3270 -0.3355
25520SOL    HW277982   2.088   8.075   5.123 -0.4489 -1.0352 -0.9437
25521SOL     OW77983   1.634   6.475   4.512 -0.4378 -0.3139  0.2957
25521SOL    HW177984   1.713   6.446   4.466 -0.5018  1.1827 -0.8566
25521SOL    HW277985   1.664   6.548   4.567 -1.0414  0.4837 -0.4037
25522SOL     OW77986   8.801   0.146   0.964 -0.6683  0.2171 -0.4092
25522SOL    HW177987   8.797   0.118   1.056  0.9592  3.7670  0.9404
25522SOL    HW277988   8.710   0.163   0.940 -1.1205 -0.7389  0.5611
25523SOL     OW77989   8.200   4.186   2.266  0.8618 -0.0712  0.4185
25523SOL    HW177990   8.176   4.099   2.233  0.1946  0.4607 -0.5288
25523SOL    HW277991   8.120   4.217   2.309  0.8475  0.3858  0.0665
25524SOL     OW77992   2.099   5.418   4.336 -0.1070 -0.5200 -0.4787
25524SOL    HW177993   2.070   5.400   4.247 -0.1636 -0.4761 -0.4689
25524SOL    HW277994   2.179   5.470   4.326  0.8912 -1.9857 -0.5438
25525SOL     OW77995   0.144   4.759   4.906 -0.2729  0.3716 -0.3507
25525SOL    HW177996   0.234   4.737   4.930 -0.8085 -0.8878  0.6228
25525SOL    HW277997   0.099   4.771   4.989 -1.6088 -1.6469 -0.7052
25526SOL     OW77998   4.607   3.645   5.738 -0.4070  0.0014 -0.6380
25526SOL    HW177999   4.591   3.557   5.705  0.2122 -0.6185  0.6045
25526SOL    HW278000   4.537   3.660   5.802  0.7692 -0.5470  0.8370
25527SOL     OW78001   6.496   7.576   7.777  0.0498 -0.5270 -0.6732
25527SOL    HW178002   6.459   7.523   7.847 -0.6130  0.3523 -0.3441
25527SOL    HW278003   6.432   7.646   7.762  0.8264  0.1021 -1.1930
25528SOL     OW78004   4.473   8.410   7.921  0.6834  0.1749  0.7740
25528SOL    HW178005   4.563   8.441   7.909  1.5464 -2.9114 -2.4622
25528SOL    HW278006   4.424   8.449   7.849  0.0025 -0.1081  1.0704
25529SOL     OW78007   2.710   5.843   8.722 -0.4931 -0.3618 -0.4448
25529SOL    HW178008   2.693   5.929   8.760  0.0720 -0.5207  0.1943
25529SOL    HW278009   2.794   5.816   8.760 -2.4600 -2.9156  2.6194
25530SOL     OW78010   1.909   8.519   6.975  0.0171 -0.2027  0.0385
25530SOL    HW178011   1.931   8.473   7.056  1.5554 -0.8819 -0.7295
25530SOL    HW278012   1.882   8.450   6.914  0.5656  0.0854 -0.5537
25531SOL     OW78013   3.955   5.421   5.286  0.1324  0.3457 -0.5624
25531SOL    HW178014   3.958   5.506   5.329  0.6697 -0.5342  1.2070
25531SOL    HW278015   4.041   5.382   5.303 -1.2736 -2.0241  1.8591
25532SOL     OW78016   2.345   3.354   8.928  0.1428  0.1855  0.6579
25532SOL    HW178017   2.287   3.429   8.941 -0.4107 -0.1400  0.1460
25532SOL    HW278018   2.285   3.281   8.911  0.7159 -0.0238 -0.5622
25533SOL     OW78019   1.214   1.293   7.505 -0.3665  0.1845  0.3188
25533SOL    HW178020   1.167   1.308   7.423  0.1892 -1.8461 -0.4453
25533SOL    HW278021   1.175   1.355   7.567 -1.7132  0.8596 -1.1274
25534SOL     OW78022   3.971   3.731   7.971 -0.8083 -0.3330 -0.1667
25534SOL    HW178023   3.956   3.803   7.911  0.9076  0.7393  0.5998
25534SOL    HW278024   3.884   3.706   8.001 -1.5659  0.1917 -1.8212
25535SOL     OW78025   1.582   4.715   4.902  0.4283 -0.1285  0.3880
25535SOL    HW178026   1.580   4.767   4.822  2.8726 -1.5762 -0.7151
25535SOL    HW278027   1.558   4.626   4.875  0.3658 -0.4551  1.4310
25536SOL     OW78028   2.487   0.005   4.601  0.1264 -0.1901 -0.5219
25536SOL    HW178029   2.543   0.076   4.631 -0.0331  0.5729 -1.9283
25536SOL    HW278030   2.539  -0.074   4.612 -0.1320 -0.0820  2.2412
25537SOL     OW78031   1.578   4.787   3.596 -0.1045  0.8785  0.2242
25537SOL    HW178032   1.506   4.825   3.647 -1.2143 -0.1279 -0.5346
25537SOL    HW278033   1.585   4.698   3.628 -0.8912  0.1911 -1.3832
25538SOL     OW78034   5.575   4.190   0.293  0.1592 -0.1777  0.7200
25538SOL    HW178035   5.649   4.195   0.353 -0.2237  1.8811  1.0777
25538SOL    HW278036   5.561   4.096   0.281  2.6895 -0.6410  0.7600
25539SOL     OW78037   1.030   3.766   2.961 -0.4837 -0.4495  0.3441
25539SOL    HW178038   1.018   3.837   3.025 -0.1426  0.0115 -0.0986
25539SOL    HW278039   0.956   3.707   2.977 -0.9358  0.1535  0.5263
25540SOL     OW78040   1.243   8.622   7.548  0.1878 -0.1074  0.0311
25540SOL    HW178041   1.295   8.558   7.596  0.8884 -0.7142 -1.4837
25540SOL    HW278042   1.229   8.582   7.462 -0.2493  1.3382 -0.5997
25541SOL     OW78043   7.215   5.858   6.666 -0.5540  0.0594  0.8710
25541SOL    HW178044   7.226   5.894   6.753 -0.9474  1.3737  0.4041
25541SOL    HW278045   7.303   5.833   6.638 -0.1370  1.3521  0.9473
25542SOL     OW78046   6.518   5.471   1.306  0.1989  0.0109 -0.1542
25542SOL    HW178047   6.526   5.393   1.252  3.6338  0.5195 -0.6233
25542SOL    HW278048   6.561   5.448   1.389  1.3706  1.3824 -0.3434
25543SOL     OW78049   4.787   5.999   5.091  0.2371  0.2324  0.2812
25543SOL    HW178050   4.870   5.950   5.088  0.5048  0.7294 -0.6268
25543SOL    HW278051   4.725   5.938   5.131  0.4145 -1.0766 -1.3498
25544SOL     OW78052   6.522   5.838   0.911 -0.0607  0.3943 -0.1142
25544SOL    HW178053   6.571   5.836   0.829  0.8594 -1.6174  0.4319
25544SOL    HW278054   6.430   5.834   0.884 -0.0485  3.7247 -1.1218
25545SOL     OW78055   4.350   5.163   4.871 -0.5574 -0.1703 -0.2442
25545SOL    HW178056   4.443   5.155   4.890 -0.5723  0.9403  0.4430
25545SOL    HW278057   4.309   5.171   4.957 -1.2730 -0.5177 -0.5442
25546SOL     OW78058   6.235   3.444   1.092 -0.1252  0.2150 -0.4091
25546SOL    HW178059   6.168   3.468   1.156  0.9686  0.9493  0.5087
25546SOL    HW278060   6.289   3.523   1.084  0.2382 -0.1344 -1.6520
25547SOL     OW78061   8.155   8.035   5.755  0.0343 -0.6301  0.5061
25547SOL    HW178062   8.138   8.044   5.661  1.2136  0.6585  0.3868
25547SOL    HW278063   8.106   7.957   5.780  0.0483 -1.2694 -1.2704
25548SOL     OW78064   6.778   3.093   7.485  0.6502 -0.5755 -0.0982
25548SOL    HW178065   6.868   3.122   7.501  0.7016 -1.1119  0.6689
25548SOL    HW278066   6.745   3.069   7.572 -0.6851  0.8710 -0.1528
25549SOL     OW78067   7.611   7.677   2.305 -0.1089 -1.0408 -0.6198
25549SOL    HW178068   7.535   7.729   2.277  0.6777  0.3938 -0.1850
25549SOL    HW278069   7.627   7.617   2.232 -1.4557 -1.1425 -0.8507
25550SOL     OW78070   5.744   7.437   3.960 -0.0796  0.1431 -0.0288
25550SOL    HW178071   5.727   7.344   3.946  1.7509 -0.1338 -0.7233
25550SOL    HW278072   5.815   7.458   3.899  0.0710  1.8184  0.6559
25551SOL     OW78073   4.203   8.084   2.264  0.0565  0.4025 -0.1357
25551SOL    HW178074   4.262   8.086   2.339  1.8337  1.6574 -1.4899
25551SOL    HW278075   4.221   8.000   2.221 -0.8233 -0.2293  0.6861
25552SOL     OW78076   5.972   4.984   6.892 -0.1304  0.1412 -0.0684
25552SOL    HW178077   6.008   4.896   6.883 -0.0187  0.2574 -0.7887
25552SOL    HW278078   6.045   5.043   6.872 -0.0897  0.4084  0.8248
25553SOL     OW78079   6.519   2.049   7.807 -0.0263 -0.1109  0.3623
25553SOL    HW178080   6.540   2.044   7.900  0.3910 -0.8962  0.2393
25553SOL    HW278081   6.423   2.049   7.803 -0.0433 -0.5072  0.7766
25554SOL     OW78082   4.848   3.806   4.997  0.1361  0.0309 -0.0312
25554SOL    HW178083   4.941   3.826   4.986  0.2317 -0.3697  0.0657
25554SOL    HW278084   4.806   3.892   4.996  0.6835  0.3713  1.6935
25555SOL     OW78085   1.713   6.430   4.020 -0.0431  0.5363  0.2990
25555SOL    HW178086   1.729   6.343   3.983 -0.2297  0.3957  0.5480
25555SOL    HW278087   1.630   6.422   4.066  1.1773  0.1197  2.5504
25556SOL     OW78088   5.824   0.903   5.731  0.9245 -0.2048 -0.0928
25556SOL    HW178089   5.901   0.876   5.779  0.9492 -0.3315 -0.2029
25556SOL    HW278090   5.788   0.976   5.781 -0.5518 -1.9761  1.5907
25557SOL     OW78091   5.396   4.778   6.138  0.1545 -0.1919  0.1291
25557SOL    HW178092   5.415   4.766   6.231  2.1976  1.8934  0.0718
25557SOL    HW278093   5.482   4.771   6.095 -0.5284  0.3664 -1.3933
25558SOL     OW78094   2.948   4.020   6.057  0.4191 -0.0533  0.5226
25558SOL    HW178095   2.998   3.953   6.105  0.9659 -0.0302  0.0029
25558SOL    HW278096   2.973   4.006   5.965  0.2044  0.5844  0.3691
25559SOL     OW78097   0.687   0.295   5.918  0.4569  0.6078 -0.2099
25559SOL    HW178098   0.688   0.258   6.006 -0.9295  2.0658  0.4701
25559SOL    HW278099   0.758   0.360   5.919  1.0798 -0.0602 -0.4999
25560SOL     OW78100   2.444   6.580   6.836 -0.2527 -0.2799 -0.0726
25560SOL    HW178101   2.488   6.496   6.850  1.2199  0.5834  0.7465
25560SOL    HW278102   2.441   6.621   6.922  0.1108  1.0082 -0.6415
25561SOL     OW78103   1.370   5.443   7.837 -0.2537  0.5967  0.2814
25561SOL    HW178104   1.285   5.399   7.843 -0.0831  0.2296  0.0278
25561SOL    HW278105   1.408   5.434   7.925  0.0563 -0.3303  0.0596
25562SOL     OW78106   1.550   5.400   1.471 -0.5008 -0.0102  0.7282
25562SOL    HW178107   1.560   5.491   1.501  0.9444 -0.7510  2.7665
25562SOL    HW278108   1.626   5.386   1.414 -0.8350  0.1120  0.2502
25563SOL     OW78109   0.772   2.701   2.325  0.4629  0.1161  0.2674
25563SOL    HW178110   0.686   2.714   2.285  0.9456  1.1105 -0.4911
25563SOL    HW278111   0.753   2.661   2.410 -0.7405  0.2704  0.0888
25564SOL     OW78112   1.218   8.128   8.091  0.1073 -0.2943  0.5157
25564SOL    HW178113   1.307   8.161   8.103  1.2346 -2.0802 -2.0028
25564SOL    HW278114   1.205   8.067   8.164  0.9672 -0.0774  0.8637
25565SOL     OW78115   8.420   7.406   5.681  0.0994 -0.4095  0.3579
25565SOL    HW178116   8.442   7.384   5.772  1.4333  0.6410  0.3124
25565SOL    HW278117   8.363   7.483   5.689  0.2226 -0.3130  0.3017
25566SOL     OW78118   1.642   5.865   2.699 -0.6117 -0.2840  0.2095
25566SOL    HW178119   1.604   5.929   2.760 -1.5013 -0.8657  0.2749
25566SOL    HW278120   1.691   5.918   2.636  0.9704  0.3040  1.8316
25567SOL     OW78121   6.521   1.292   7.354 -0.6846 -0.5836  0.0625
25567SOL    HW178122   6.431   1.321   7.372 -0.9756 -2.0897  1.2577
25567SOL    HW278123   6.512   1.222   7.289 -0.3127 -0.3525 -0.2453
25568SOL     OW78124   9.097   6.152   5.112 -0.0737 -0.2143 -0.1467
25568SOL    HW178125   9.157   6.102   5.056 -0.3903 -0.3398 -0.3810
25568SOL    HW278126   9.012   6.144   5.068 -0.2335  0.0741  0.1088
25569SOL     OW78127   0.147   7.341   3.400 -0.3999 -0.2734 -0.2683
25569SOL    HW178128   0.210   7.401   3.440 -1.0547  0.9443 -1.0415
25569SOL    HW278129   0.165   7.345   3.307 -0.2449 -1.5472 -0.3181
25570SOL     OW78130   9.131   0.582   2.229  0.2140  0.2951  0.6515
25570SOL    HW178131   9.080   0.537   2.162 -1.0423  2.8759 -0.2753
25570SOL    HW278132   9.065   0.629   2.281  1.4728  2.1569  0.6653
25571SOL     OW78133   7.978   4.016   6.486 -1.1632  0.2924 -0.5765
25571SOL    HW178134   7.932   4.056   6.413 -2.1947  1.0933  0.4695
25571SOL    HW278135   7.908   3.981   6.542 -0.4140 -0.0947  0.1445
25572SOL     OW78136   8.112   4.105   1.929 -0.1343 -0.0705 -0.0135
25572SOL    HW178137   8.111   4.034   1.992  0.1195 -0.3105 -0.2747
25572SOL    HW278138   8.117   4.062   1.843 -1.9487  0.1986 -0.2912
25573SOL     OW78139   2.378   1.272   7.041  0.1287 -0.6711  0.3553
25573SOL    HW178140   2.374   1.365   7.021 -1.7274 -0.7942 -0.0212
25573SOL    HW278141   2.468   1.257   7.069  0.9947  0.8628 -1.3788
25574SOL     OW78142   0.806   2.324   0.257 -0.2375  0.4194 -0.2920
25574SOL    HW178143   0.849   2.346   0.175  0.3194  0.9889  0.1426
25574SOL    HW278144   0.720   2.367   0.252 -0.4454 -0.0612 -0.8312
25575SOL     OW78145   5.299   0.563   1.177  0.4329 -0.1281 -0.2648
25575SOL    HW178146   5.231   0.615   1.219  0.7569 -0.9545  1.3698
25575SOL    HW278147   5.378   0.617   1.183 -0.0802  0.9784 -2.4691
25576SOL     OW78148   5.101   1.690   3.287  0.4430 -0.3997 -0.1817
25576SOL    HW178149   5.162   1.624   3.321 -0.6098 -0.6661  1.2952
25576SOL    HW278150   5.074   1.655   3.202  0.3045 -1.6169  0.3408
25577SOL     OW78151   5.037   5.474   3.088  0.0405 -0.2247  0.3395
25577SOL    HW178152   4.975   5.441   3.153 -1.3594 -1.7971 -1.6784
25577SOL    HW278153   5.107   5.408   3.087  0.4851  0.2254  0.7849
25578SOL     OW78154   8.677   1.316   8.216 -0.5383 -0.0662 -0.4629
25578SOL    HW178155   8.607   1.358   8.266 -0.3248  0.3690 -0.5241
25578SOL    HW278156   8.675   1.225   8.244 -0.8938  0.0210 -0.1964
25579SOL     OW78157   7.369   6.274   5.364 -0.7427  0.0409 -0.1096
25579SOL    HW178158   7.406   6.189   5.341 -0.0236  0.6951 -1.5120
25579SOL    HW278159   7.297   6.254   5.423  1.2015 -1.3538  1.9842
25580SOL     OW78160   4.381   7.010   5.179 -0.2681  0.0011 -0.1170
25580SOL    HW178161   4.463   7.058   5.191 -0.4983 -0.0482  2.0303
25580SOL    HW278162   4.379   6.949   5.252 -1.2485 -1.4656 -1.3300
25581SOL     OW78163   5.779   8.330   8.003 -0.3042 -0.1023  0.1561
25581SOL    HW178164   5.791   8.256   7.943 -0.4595  0.7740 -1.0012
25581SOL    HW278165   5.807   8.297   8.088 -0.4174 -1.5002 -0.3270
25582SOL     OW78166   8.547   9.150   7.303  0.0173  0.0132  0.3771
25582SOL    HW178167   8.497   9.085   7.254 -0.5716  1.1602 -0.5853
25582SOL    HW278168   8.589   9.100   7.374  1.1701 -1.7568 -1.4532
25583SOL     OW78169   7.449   9.007   6.142  0.0054 -0.0338  0.2685
25583SOL    HW178170   7.523   8.951   6.164  0.6800  0.2084 -1.2761
25583SOL    HW278171   7.473   9.047   6.059 -1.3054  1.0630  0.3832
25584SOL     OW78172   2.170   6.041   7.118 -0.0135 -0.0300  0.2198
25584SOL    HW178173   2.263   6.056   7.101 -0.3358  0.1141 -1.6012
25584SOL    HW278174   2.140   5.989   7.044 -1.2914 -0.4950  1.0306
25585SOL     OW78175   8.526   8.151   1.980 -0.8713  0.1009  0.0270
25585SOL    HW178176   8.565   8.125   2.063 -0.8372 -0.0279 -0.0294
25585SOL    HW278177   8.590   8.125   1.914 -1.4492 -0.9382 -0.1414
25586SOL     OW78178   1.564   3.851   6.002  0.4077 -0.1352  0.3472
25586SOL    HW178179   1.561   3.851   6.097 -0.4962  1.0049  0.3345
25586SOL    HW278180   1.495   3.789   5.976  0.1306  0.1396  0.4259
25587SOL     OW78181   0.847   3.198   6.910 -0.5572 -0.3741 -0.0382
25587SOL    HW178182   0.888   3.218   6.994 -0.9308  1.0031 -0.1631
25587SOL    HW278183   0.892   3.253   6.847 -1.1766 -0.4104 -0.5244
25588SOL     OW78184   8.681   1.846   1.051  0.1985 -0.3242 -0.0989
25588SOL    HW178185   8.721   1.929   1.076 -0.9982  0.3555 -0.3374
25588SOL    HW278186   8.631   1.867   0.972 -0.4754 -1.1629  0.0907
25589SOL     OW78187   8.729   1.966   6.687  0.0893 -0.3296  0.0959
25589SOL    HW178188   8.769   1.919   6.615  2.3909 -1.5458  2.0261
25589SOL    HW278189   8.770   1.929   6.766 -2.0860  1.0974  2.0268
25590SOL     OW78190   0.817   0.479   6.597 -0.2405 -0.4286 -0.3861
25590SOL    HW178191   0.904   0.505   6.565 -0.1437  1.1235  1.0105
25590SOL    HW278192   0.756   0.535   6.549 -0.6451 -2.2796 -2.1964
25591SOL     OW78193   7.321   0.233   2.911  0.0757  0.0941  0.0415
25591SOL    HW178194   7.249   0.221   2.973  0.2271 -0.0315  0.1956
25591SOL    HW278195   7.296   0.309   2.859 -1.3475 -1.3619 -1.5528
25592SOL     OW78196   5.510   7.227   5.770  0.1198 -0.2937 -0.5774
25592SOL    HW178197   5.424   7.229   5.728 -0.2379 -0.7042  0.1046
25592SOL    HW278198   5.565   7.283   5.716 -1.0900  1.6206  0.0584
25593SOL     OW78199   3.452   1.499   0.698  0.2689 -0.2593 -0.6782
25593SOL    HW178200   3.389   1.506   0.627 -1.5372 -0.9532  0.7771
25593SOL    HW278201   3.480   1.408   0.697 -1.0244 -0.6998  0.4734
25594SOL     OW78202   7.195   6.252   1.843  0.0397  0.0005  0.3424
25594SOL    HW178203   7.269   6.215   1.890 -0.0321  0.0619  0.5024
25594SOL    HW278204   7.137   6.178   1.827  1.4643 -0.6732 -2.3545
25595SOL     OW78205   0.385   0.670   0.127 -1.0820  0.2458  0.0907
25595SOL    HW178206   0.391   0.754   0.079 -0.7569 -0.0253 -0.3560
25595SOL    HW278207   0.386   0.696   0.219 -0.9694  0.7408 -0.0406
25596SOL     OW78208   3.556   6.832   8.811 -0.2651 -0.1825 -0.2407
25596SOL    HW178209   3.507   6.809   8.732 -0.0558 -0.1740 -0.3725
25596SOL    HW278210   3.515   6.779   8.880 -1.1646  0.6108 -0.1414
25597SOL     OW78211   7.538   2.959   3.895 -0.0031 -0.6579  0.2715
25597SOL    HW178212   7.605   3.024   3.919  0.1083 -0.4960 -0.4542
25597SOL    HW278213   7.460   3.011   3.875  0.1570 -0.7087 -0.5534
25598SOL     OW78214   7.043   1.144   6.937 -0.3707  0.2117 -0.3628
25598SOL    HW178215   7.126   1.192   6.930  0.0746 -0.4046  0.5635
25598SOL    HW278216   7.033   1.102   6.852  0.2699  0.2862 -0.4826
25599SOL     OW78217   2.329   1.431   1.267 -0.1299  0.1804 -0.0625
25599SOL    HW178218   2.357   1.352   1.222  0.2591 -0.6445  1.5426
25599SOL    HW278219   2.405   1.490   1.261  0.5923 -0.6079  1.0179
25600SOL     OW78220   4.230   7.560   7.309  0.3746 -0.1860 -0.0292
25600SOL    HW178221   4.275   7.506   7.244 -0.6497 -0.8750 -0.1951
25600SOL    HW278222   4.242   7.650   7.278 -1.0331 -0.5587 -1.8307
25601SOL     OW78223   7.789   4.984   7.311 -0.3726 -0.6801  0.3010
25601SOL    HW178224   7.748   4.933   7.381  1.2978 -1.5917  0.6674
25601SOL    HW278225   7.881   4.960   7.315  0.5324  2.4290  0.5358
25602SOL     OW78226   3.380   2.213   9.163 -0.1653  0.0521  0.2805
25602SOL    HW178227   3.359   2.233   9.072  2.0600  0.2403 -0.2585
25602SOL    HW278228   3.400   2.119   9.162  2.5114  0.5513 -0.0694
25603SOL     OW78229   7.048   2.518   3.997  0.1569 -0.1648  0.3317
25603SOL    HW178230   6.993   2.588   4.032 -1.4336 -0.7976 -0.7871
25603SOL    HW278231   7.097   2.486   4.073  0.4462  1.7078  0.9819
25604SOL     OW78232   0.815   4.824   5.925 -0.5025 -0.1565  0.1401
25604SOL    HW178233   0.874   4.895   5.948  2.1583 -1.3125 -2.5355
25604SOL    HW278234   0.763   4.857   5.853 -1.2972 -0.0387  0.7494
25605SOL     OW78235   0.336   5.885   6.833 -0.1067  0.1594 -0.2179
25605SOL    HW178236   0.336   5.973   6.794  3.0064 -0.0529 -0.9784
25605SOL    HW278237   0.306   5.828   6.763 -2.7400  0.6074  0.4682
25606SOL     OW78238   6.748   8.883   2.445  0.2600 -0.2343  0.4935
25606SOL    HW178239   6.802   8.804   2.451  0.4733 -0.1079  0.2633
25606SOL    HW278240   6.755   8.910   2.353  0.3047  0.1341  0.6051
25607SOL     OW78241   0.937   7.723   8.718 -0.5206 -0.0873  0.4312
25607SOL    HW178242   0.951   7.641   8.670 -1.5279  0.8789 -1.6344
25607SOL    HW278243   0.843   7.740   8.710 -0.8873 -0.1971  3.4237
25608SOL     OW78244   1.773   6.164   1.943  0.3224 -0.1465  0.4133
25608SOL    HW178245   1.784   6.101   1.872 -0.6690  1.3097 -1.1158
25608SOL    HW278246   1.763   6.111   2.021  0.1648 -1.8512 -0.7156
25609SOL     OW78247   8.714   5.097   6.280  0.0065  0.1935 -0.1394
25609SOL    HW178248   8.792   5.107   6.225  0.0885  0.9729  0.1066
25609SOL    HW278249   8.701   5.183   6.319 -1.7303  0.4477 -1.1675
25610SOL     OW78250   6.235   7.427   6.788 -0.0806  0.3745  0.0875
25610SOL    HW178251   6.218   7.348   6.839 -1.2291  1.9593  2.3195
25610SOL    HW278252   6.156   7.437   6.734 -0.0959  0.2155  0.0777
25611SOL     OW78253   4.231   3.716   2.806 -0.6308  0.1542  0.1405
25611SOL    HW178254   4.140   3.690   2.792 -0.7223 -0.6307  1.9659
25611SOL    HW278255   4.282   3.659   2.748 -1.2614  0.4444 -0.7183
25612SOL     OW78256   2.451   6.288   5.840 -0.6128 -0.1046 -0.4784
25612SOL    HW178257   2.528   6.287   5.782  0.6685  0.4938  1.1406
25612SOL    HW278258   2.406   6.369   5.817 -1.1597 -0.7652 -1.8822
25613SOL     OW78259   4.623   9.192   2.918  0.2972  0.4503  0.1118
25613SOL    HW178260   4.626   9.098   2.937  1.1392  0.4139 -0.1516
25613SOL    HW278261   4.715   9.217   2.906  0.1121  1.3762  0.5049
25614SOL     OW78262   7.961   1.344   8.111  0.5038  0.1695 -0.0962
25614SOL    HW178263   7.987   1.343   8.203 -0.7252  0.2315  0.2781
25614SOL    HW278264   7.980   1.433   8.082  2.2026 -0.2379 -0.3245
25615SOL     OW78265   0.304   3.614   8.050 -0.2402 -0.1137  0.1669
25615SOL    HW178266   0.306   3.683   7.982  1.8435  1.2335  1.4751
25615SOL    HW278267   0.298   3.533   8.000  0.9660  0.8302 -1.6690
25616SOL     OW78268   7.663   5.935   8.289 -0.4071 -0.1091  0.1055
25616SOL    HW178269   7.618   5.958   8.208  2.0757 -1.1902 -1.7142
25616SOL    HW278270   7.634   5.846   8.309 -1.2146  0.2517  0.5793
25617SOL     OW78271   3.235   1.543   0.495  0.2620 -0.1143 -0.7690
25617SOL    HW178272   3.257   1.537   0.402  0.9739  2.4496 -0.8482
25617SOL    HW278273   3.139   1.549   0.497  0.2893  0.6351 -1.4180
25618SOL     OW78274   8.164   8.437   2.200 -0.8540 -0.4275 -0.0371
25618SOL    HW178275   8.106   8.390   2.141  0.3326 -1.6668 -0.2846
25618SOL    HW278276   8.222   8.369   2.236 -0.5085  0.5296  1.3226
25619SOL     OW78277   7.068   5.104   7.803  0.0302  0.2598  0.7737
25619SOL    HW178278   7.078   5.194   7.772  0.5274  0.1817  0.7088
25619SOL    HW278279   7.048   5.113   7.897 -2.9112  0.5710  0.2306
25620SOL     OW78280   7.356   9.055   4.666  0.2147  0.6079  0.2955
25620SOL    HW178281   7.356   8.970   4.711  0.2146 -0.1730 -1.1071
25620SOL    HW278282   7.263   9.077   4.658  0.1588  0.1620 -0.3545
25621SOL     OW78283   0.122   3.603   6.814  0.2147 -0.1690  0.1006
25621SOL    HW178284   0.046   3.546   6.820 -0.6417  0.7267 -1.4972
25621SOL    HW278285   0.088   3.685   6.777  1.1367  1.9671  3.5534
25622SOL     OW78286   3.248   9.009   4.123 -0.5396  0.0939 -0.4558
25622SOL    HW178287   3.200   9.003   4.205  1.0787  2.8100  0.8482
25622SOL    HW278288   3.216   9.089   4.082  0.6895  0.3431 -0.9940
25623SOL     OW78289   5.817   8.449   7.700 -0.7463  0.0015 -0.4073
25623SOL    HW178290   5.862   8.525   7.737 -1.5610  0.8366 -1.0899
25623SOL    HW278291   5.827   8.458   7.605  0.7504 -1.7580 -0.4856
25624SOL     OW78292   5.212   0.636   8.103 -0.1029  0.0533  0.2897
25624SOL    HW178293   5.197   0.728   8.084 -1.0057 -0.2022 -0.2999
25624SOL    HW278294   5.225   0.596   8.018  0.5354 -0.3283  0.5606
25625SOL     OW78295   5.841   2.791   8.601 -0.0842  0.6090 -0.1093
25625SOL    HW178296   5.765   2.845   8.623  0.1334  0.9024 -0.0667
25625SOL    HW278297   5.911   2.823   8.658 -0.3020 -0.6179  0.8802
25626SOL     OW78298   7.154   2.845   5.489 -0.0604  0.5472 -0.4436
25626SOL    HW178299   7.076   2.800   5.522  0.7761 -0.7883 -0.1860
25626SOL    HW278300   7.121   2.929   5.456 -1.4828  0.3411  0.3431
25627SOL     OW78301   4.891   3.588   2.389  0.1359  0.5136  0.0578
25627SOL    HW178302   4.969   3.535   2.409  0.4617 -0.1721 -2.6210
25627SOL    HW278303   4.926   3.665   2.343 -0.6443  1.0932  0.4246
25628SOL     OW78304   0.492   0.201   9.183 -0.3330 -0.2191  0.4023
25628SOL    HW178305   0.447   0.281   9.213 -0.6248 -1.0894  2.4694
25628SOL    HW278306   0.534   0.167   9.262  1.3705 -1.1435 -0.8285
25629SOL     OW78307   6.899   4.772   0.156  0.1901  0.6632  0.2116
25629SOL    HW178308   6.870   4.854   0.115  1.5345  0.6481 -0.8636
25629SOL    HW278309   6.994   4.774   0.147  0.3285 -0.4456  1.3080
25630SOL     OW78310   6.191   2.869   6.584 -0.4762  0.3481  0.4058
25630SOL    HW178311   6.270   2.847   6.633  1.2093  0.0758 -2.2756
25630SOL    HW278312   6.128   2.801   6.609  0.1814  0.3976  2.3602
25631SOL     OW78313   7.509   9.195   2.473 -0.2780  0.1573  0.2343
25631SOL    HW178314   7.451   9.119   2.474 -1.2376  0.8698 -0.1635
25631SOL    HW278315   7.490   9.240   2.391 -0.6958  1.5563  1.0568
25632SOL     OW78316   0.164   0.766   0.683 -0.9978  0.1348 -0.0773
25632SOL    HW178317   0.079   0.723   0.675 -0.5395 -0.5847 -1.2999
25632SOL    HW278318   0.203   0.759   0.596  0.1489  0.8180  0.3568
25633SOL     OW78319   4.157   1.950   2.069 -0.0047 -0.1615 -0.1050
25633SOL    HW178320   4.239   1.916   2.032 -0.6167 -3.2210  1.0385
25633SOL    HW278321   4.091   1.886   2.043 -1.7841  1.4281  0.3057
25634SOL     OW78322   0.954   4.870   3.543 -0.4403 -0.5140 -0.1128
25634SOL    HW178323   1.046   4.850   3.559 -0.9333 -0.8274  2.7908
25634SOL    HW278324   0.910   4.850   3.625 -3.0101  0.3596 -1.1687
25635SOL     OW78325   5.908   7.225   9.232  0.0014  0.3908  0.1583
25635SOL    HW178326   5.918   7.313   9.267  0.6235  0.4808 -0.2289
25635SOL    HW278327   5.956   7.169   9.293 -1.0152  0.2131  0.8134
25636SOL     OW78328   6.377   7.900   3.005  0.3328  0.1046  0.0698
25636SOL    HW178329   6.415   7.980   2.967 -0.6129  0.2488 -0.5814
25636SOL    HW278330   6.449   7.837   3.004  1.3438  1.1693  1.3325
25637SOL     OW78331   2.142   5.352   3.017  0.1519 -0.0134  0.0353
25637SOL    HW178332   2.103   5.353   2.930  0.3339 -0.1681 -0.0493
25637SOL    HW278333   2.219   5.408   3.010 -0.2410  0.5693  0.2932
25638SOL     OW78334   0.255   8.641   4.586  0.3688  0.0225 -0.0018
25638SOL    HW178335   0.225   8.550   4.582 -0.2086  0.2393 -2.5326
25638SOL    HW278336   0.290   8.658   4.499  1.5169  1.9061  0.7760
25639SOL     OW78337   8.961   8.890   7.091  0.2285  0.1429 -0.4763
25639SOL    HW178338   8.875   8.847   7.091  0.2624  0.0275  0.6591
25639SOL    HW278339   9.022   8.820   7.114  0.2766  0.7592  1.5065
25640SOL     OW78340   0.258   6.148   4.861  0.2398 -0.0303  0.0271
25640SOL    HW178341   0.347   6.179   4.878 -0.0999  0.7943  0.3670
25640SOL    HW278342   0.255   6.131   4.767  0.7358  0.0052  0.0064
25641SOL     OW78343   4.213   2.754   1.738  0.0538 -0.1214 -0.5946
25641SOL    HW178344   4.133   2.806   1.732  0.0736  0.0013  0.1375
25641SOL    HW278345   4.231   2.748   1.832  0.5895 -0.6294 -0.7240
25642SOL     OW78346   1.291   4.097   9.048 -0.2649  0.4755 -0.6358
25642SOL    HW178347   1.255   4.025   8.997  3.0744 -0.5154 -1.8311
25642SOL    HW278348   1.257   4.176   9.005 -0.8405 -0.3677 -1.7759
25643SOL     OW78349   6.553   9.181   8.834  0.2592 -0.3616  0.2773
25643SOL    HW178350   6.484   9.245   8.850  0.7540  0.1481  0.3845
25643SOL    HW278351   6.508   9.097   8.839 -0.1218 -0.1062  1.6259
25644SOL     OW78352   7.856   7.117   7.285  0.0588 -0.4890  0.5364
25644SOL    HW178353   7.939   7.090   7.248 -0.5746 -0.8539 -0.6742
25644SOL    HW278354   7.829   7.192   7.231 -0.3353 -0.2932  0.9991
25645SOL     OW78355   0.272   3.032   3.851  0.1363 -0.4666  0.2730
25645SOL    HW178356   0.334   3.055   3.782 -0.0238 -0.7305  0.0390
25645SOL    HW278357   0.298   3.085   3.926 -0.2525  0.5268 -0.2729
25646SOL     OW78358   7.190   3.301   8.101  0.1362 -0.1299  0.2581
25646SOL    HW178359   7.249   3.371   8.130 -1.2867  1.1363  0.2468
25646SOL    HW278360   7.231   3.267   8.021  0.5340  1.1700 -0.1279
25647SOL     OW78361   6.434   5.980   9.264 -0.0792  0.0233 -0.1277
25647SOL    HW178362   6.393   6.055   9.220 -0.2806 -0.2277 -0.3753
25647SOL    HW278363   6.496   6.019   9.325 -1.1164  0.4333  0.6998
25648SOL     OW78364   8.515   3.092   8.526 -0.4032  0.0608 -0.7089
25648SOL    HW178365   8.543   3.118   8.439  2.0545 -0.2092 -0.1001
25648SOL    HW278366   8.529   3.169   8.581  0.2725 -0.4334 -0.1618
25649SOL     OW78367   1.217   4.889   5.806  0.5284  0.3144  0.1471
25649SOL    HW178368   1.238   4.971   5.850  1.2081  0.4679 -0.4514
25649SOL    HW278369   1.147   4.911   5.745 -1.1250 -0.0953  1.7876
25650SOL     OW78370   4.491   9.200   3.760 -0.0445  0.4329  0.2055
25650SOL    HW178371   4.423   9.203   3.828  0.5845  0.2781  0.8616
25650SOL    HW278372   4.496   9.108   3.735 -0.2901  0.4933 -0.0637
25651SOL     OW78373   7.545   8.959   8.046  0.3225  0.1272  0.1733
25651SOL    HW178374   7.489   8.945   7.969  1.3389  0.4744 -0.6434
25651SOL    HW278375   7.632   8.933   8.017  1.0294  1.8407  0.6753
25652SOL     OW78376   7.895   6.877   7.568 -0.4506  0.3215 -0.3058
25652SOL    HW178377   7.932   6.958   7.604  0.0741  0.0802 -0.2880
25652SOL    HW278378   7.901   6.814   7.641 -0.8521  0.2648 -0.3205
25653SOL     OW78379   4.281   3.952   5.598 -0.1127 -0.2644 -0.3259
25653SOL    HW178380   4.356   3.907   5.558  1.5296  1.2258  0.8817
25653SOL    HW278381   4.260   4.023   5.538 -0.8883 -0.9356 -0.8757
25654SOL     OW78382   8.656   2.884   7.755 -0.2122  0.1365 -0.1381
25654SOL    HW178383   8.708   2.917   7.683 -0.0982  0.9660  0.3142
25654SOL    HW278384   8.570   2.924   7.743 -0.9080 -1.5482 -1.1191
25655SOL     OW78385   0.447   7.936   3.781 -0.1473 -0.5457  0.1072
25655SOL    HW178386   0.383   7.937   3.852 -0.1767 -0.2898  0.0753
25655SOL    HW278387   0.532   7.943   3.825 -0.1834 -0.0330  0.0931
25656SOL     OW78388   0.870   7.273   7.475  0.4380  0.4725 -0.2636
25656SOL    HW178389   0.781   7.243   7.494  0.1461  1.0213 -0.7450
25656SOL    HW278390   0.890   7.237   7.389  1.1844 -0.7336  0.3784
25657SOL     OW78391   1.204   5.580   3.999  0.0794  0.0333 -0.7214
25657SOL    HW178392   1.158   5.593   3.916  0.1167  0.1221 -0.7277
25657SOL    HW278393   1.204   5.485   4.011  0.2223  0.0094 -0.9063
25658SOL     OW78394   4.862   4.264   3.439  0.5631 -0.5387 -0.0856
25658SOL    HW178395   4.911   4.301   3.512  0.9137 -0.5846 -0.2958
25658SOL    HW278396   4.820   4.186   3.476 -0.4337  0.2194  0.4429
25659SOL     OW78397   4.099   5.418   0.818 -0.1227 -0.3622  0.5345
25659SOL    HW178398   4.074   5.327   0.830 -0.2343 -0.2303  1.3541
25659SOL    HW278399   4.111   5.427   0.724  0.1757 -1.2965  0.4735
25660SOL     OW78400   6.675   3.276   7.732  0.2501  0.4474 -0.1489
25660SOL    HW178401   6.644   3.188   7.752  0.0966  0.8751  1.7368
25660SOL    HW278402   6.716   3.306   7.814  1.4747  1.6401 -1.1453
25661SOL     OW78403   1.077   3.430   6.396  0.7775 -0.3480  0.3897
25661SOL    HW178404   1.082   3.469   6.483  0.4557 -0.4198  0.4408
25661SOL    HW278405   0.995   3.462   6.359  0.0491 -1.6533  0.7795
25662SOL     OW78406   4.790   7.460   8.508 -0.1790  0.2938 -0.2833
25662SOL    HW178407   4.830   7.464   8.595 -1.8970 -2.3501  0.7416
25662SOL    HW278408   4.714   7.518   8.514 -1.5268 -1.4941  0.7752
25663SOL     OW78409   8.979   4.452   3.626 -0.0950  0.1308  0.5845
25663SOL    HW178410   9.021   4.430   3.543 -1.5887  0.7616 -0.3989
25663SOL    HW278411   9.027   4.403   3.692  1.2395 -0.2569 -0.6369
25664SOL     OW78412   0.561   8.050   7.827  0.1716  0.1728 -0.7358
25664SOL    HW178413   0.613   7.984   7.782  0.1446  1.5158 -2.8959
25664SOL    HW278414   0.622   8.092   7.888  0.4464 -1.1074 -0.1034
25665SOL     OW78415   3.675   5.436   0.258 -0.0802  0.4474 -0.0227
25665SOL    HW178416   3.710   5.433   0.347 -0.8487 -0.7299  0.2618
25665SOL    HW278417   3.580   5.426   0.269 -0.2923  1.2490 -0.9235
25666SOL     OW78418   3.375   7.219   1.264  0.5919  0.3647 -0.3920
25666SOL    HW178419   3.466   7.216   1.233  1.1629  1.1612  1.0681
25666SOL    HW278420   3.346   7.128   1.260  0.3161  0.4909 -3.8906
25667SOL     OW78421   5.164   4.938   7.478  0.2875  0.1243  0.9139
25667SOL    HW178422   5.218   4.943   7.399 -2.7060 -0.4459 -1.3626
25667SOL    HW278423   5.144   5.029   7.500 -0.1217  0.2634  0.0160
25668SOL     OW78424   3.751   2.085   1.368  0.5480  0.1424 -0.6565
25668SOL    HW178425   3.706   2.161   1.331 -0.9541 -0.0018  0.7524
25668SOL    HW278426   3.718   2.011   1.318 -0.0925  0.1382 -0.2365
25669SOL     OW78427   8.932   9.013   0.687 -0.6829 -0.1358  0.1953
25669SOL    HW178428   9.008   8.993   0.741 -0.4702 -2.4053 -0.8492
25669SOL    HW278429   8.966   9.070   0.618  0.6928 -2.8948 -1.5760
25670SOL     OW78430   6.692   6.029   1.355 -0.2865  0.1729  0.3749
25670SOL    HW178431   6.716   5.954   1.409 -1.7375  0.3161  1.2699
25670SOL    HW278432   6.716   6.004   1.266 -0.6772 -1.3087  0.6707
25671SOL     OW78433   1.277   5.107   4.307 -0.3032 -0.1613 -0.5360
25671SOL    HW178434   1.286   5.202   4.321 -1.8838  0.0979 -1.1214
25671SOL    HW278435   1.316   5.092   4.220  1.3359 -0.3226  0.1957
25672SOL     OW78436   8.524   5.675   0.542  0.3193  0.4902 -0.1537
25672SOL    HW178437   8.577   5.640   0.614 -0.2026  0.1796  0.0807
25672SOL    HW278438   8.527   5.606   0.475 -0.7746 -0.0604  0.3395
25673SOL     OW78439   9.108   0.157   0.933 -0.1636  0.1366  0.7961
25673SOL    HW178440   9.024   0.185   0.970 -0.8393 -1.2483  0.4034
25673SOL    HW278441   9.109   0.062   0.946  2.8241  0.3538  3.7906
25674SOL     OW78442   0.794   4.345   5.640  0.6592  0.3303 -0.4452
25674SOL    HW178443   0.794   4.282   5.712  0.8236  0.2971 -0.4737
25674SOL    HW278444   0.795   4.292   5.561 -1.7631  0.3100 -0.5331
25675SOL     OW78445   0.979   5.143   0.638 -0.4495  0.5687  0.1300
25675SOL    HW178446   0.922   5.204   0.686 -1.1420 -0.9533  1.3697
25675SOL    HW278447   1.046   5.198   0.598 -0.7745  2.0907  1.5685
25676SOL     OW78448   9.106   0.658   2.773 -0.6545 -0.2223  0.5790
25676SOL    HW178449   9.104   0.598   2.698 -1.3459 -1.1287  1.2971
25676SOL    HW278450   9.184   0.711   2.760  0.8571 -2.3093  0.6922
25677SOL     OW78451   6.901   8.079   1.605 -0.1943  0.4846 -0.0099
25677SOL    HW178452   6.983   8.051   1.566 -0.4768 -2.6549  1.3700
25677SOL    HW278453   6.834   8.046   1.546 -0.5165 -1.1094  1.1761
25678SOL     OW78454   7.832   0.963   5.176 -0.3999  0.5022  0.4632
25678SOL    HW178455   7.852   0.938   5.266 -0.3936 -0.0794  0.3058
25678SOL    HW278456   7.907   0.932   5.125  0.6530  2.7489  0.5194
25679SOL     OW78457   7.477   6.377   0.227  0.1281  0.3169 -0.2891
25679SOL    HW178458   7.496   6.286   0.204  1.1368 -0.0986  1.9344
25679SOL    HW278459   7.404   6.372   0.288  0.6598  0.9282  0.4105
25680SOL     OW78460   0.870   3.481   2.695  0.5045  0.0011  0.1524
25680SOL    HW178461   0.962   3.474   2.723  0.5276  0.8818  0.3057
25680SOL    HW278462   0.861   3.413   2.629  2.0048  1.5674 -1.7933
25681SOL     OW78463   4.206   6.829   8.315 -0.4276  0.1242 -0.2692
25681SOL    HW178464   4.135   6.794   8.369 -0.2319 -0.7973 -0.5877
25681SOL    HW278465   4.284   6.781   8.344 -0.5013 -1.1839 -2.0670
25682SOL     OW78466   7.216   5.750   4.996  0.4579 -0.4352  0.0559
25682SOL    HW178467   7.232   5.656   4.985  2.1102 -0.2939  0.8981
25682SOL    HW278468   7.258   5.791   4.920 -0.4656 -0.3787 -0.4346
25683SOL     OW78469   5.387   8.374   7.536 -0.3821 -0.6575  0.3849
25683SOL    HW178470   5.433   8.442   7.488  0.0526 -1.9978 -1.2064
25683SOL    HW278471   5.417   8.384   7.626  0.4852  0.5725 -0.0156
25684SOL     OW78472   1.275   4.934   4.693 -0.2874  0.4225 -0.1018
25684SOL    HW178473   1.227   4.859   4.726  1.0383 -0.2302  0.4265
25684SOL    HW278474   1.212   4.982   4.638 -0.4757 -2.5853 -2.7988
25685SOL     OW78475   8.000   8.859   5.722  0.2494  0.0940  0.4112
25685SOL    HW178476   7.959   8.882   5.638  0.3544 -1.1361 -0.0001
25685SOL    HW278477   8.054   8.782   5.702  0.8977  0.2647  1.4500
25686SOL     OW78478   1.244   8.327   5.085  0.2098  0.0632 -0.4986
25686SOL    HW178479   1.190   8.404   5.066  0.2660  0.2107 -0.0684
25686SOL    HW278480   1.330   8.362   5.107  0.6968 -0.2060 -1.8820
25687SOL     OW78481   1.458   0.587   2.192 -0.2790  0.4786  0.5307
25687SOL    HW178482   1.481   0.556   2.104 -0.8747  1.2241  0.1004
25687SOL    HW278483   1.442   0.507   2.242 -0.4992  0.0552 -0.1969
25688SOL     OW78484   2.286   6.562   8.598 -0.1222 -0.3914 -0.1639
25688SOL    HW178485   2.250   6.579   8.511  1.0620 -0.9199 -0.7795
25688SOL    HW278486   2.367   6.613   8.601  0.4324 -1.2807  0.1901
25689SOL     OW78487   1.760   7.340   6.996 -0.0132  0.7792 -0.4467
25689SOL    HW178488   1.828   7.311   7.057 -2.1640 -1.6026  1.0252
25689SOL    HW278489   1.796   7.323   6.909  1.6341  0.5402  0.2491
25690SOL     OW78490   0.852   7.685   8.999 -0.0211  0.2593  0.5805
25690SOL    HW178491   0.823   7.677   8.908  2.3005  0.9879 -0.2852
25690SOL    HW278492   0.894   7.601   9.019 -0.3249  0.1836  0.9274
25691SOL     OW78493   3.753   2.458   3.117 -0.1165 -0.2054  0.3034
25691SOL    HW178494   3.665   2.465   3.079  0.1028  0.1735 -0.1367
25691SOL    HW278495   3.807   2.422   3.047  0.1412 -0.1694  0.4826
25692SOL     OW78496   0.031   7.913   5.609 -0.4765 -0.4708  0.1210
25692SOL    HW178497  -0.058   7.908   5.575 -0.0887 -0.5136 -0.9236
25692SOL    HW278498   0.080   7.848   5.559  0.2415 -0.1393  0.3757
25693SOL     OW78499   7.996   2.396   6.947 -0.5103  0.3253  0.1486
25693SOL    HW178500   8.090   2.387   6.929 -0.3405  3.2089 -0.8541
25693SOL    HW278501   7.973   2.482   6.912 -3.0629  0.6776  2.4113
25694SOL     OW78502   6.110   1.321   2.815 -0.2329 -0.2210  0.1163
25694SOL    HW178503   6.138   1.229   2.815 -0.7196 -0.3702 -0.0778
25694SOL    HW278504   6.035   1.323   2.756  0.8970  0.6442 -1.3724
25695SOL     OW78505   5.056   3.679   3.375  0.2086 -0.4675 -0.0583
25695SOL    HW178506   5.052   3.749   3.439  0.7826 -0.8607  0.4159
25695SOL    HW278507   5.129   3.703   3.318 -0.3425 -0.0838 -0.6188
25696SOL     OW78508   3.022   4.255   1.019  0.3427 -0.1577  0.7709
25696SOL    HW178509   3.017   4.178   1.075  1.4116 -0.5958  0.2910
25696SOL    HW278510   3.062   4.323   1.074 -2.0018  0.5785  1.6951
25697SOL     OW78511   1.727   0.802   6.895 -0.0964  0.3447  0.5073
25697SOL    HW178512   1.727   0.898   6.900 -1.4155  0.5797 -2.3195
25697SOL    HW278513   1.638   0.780   6.867 -0.4441 -1.9282  3.0137
25698SOL     OW78514   6.682   5.846   1.577  0.0983  0.0137 -0.0841
25698SOL    HW178515   6.723   5.778   1.524  0.3100 -0.0892  0.2100
25698SOL    HW278516   6.684   5.812   1.666  1.1341  0.8293  0.2238
25699SOL     OW78517   0.135   0.036   9.113 -0.9235 -0.3101 -0.3622
25699SOL    HW178518   0.051   0.074   9.086  0.3838  1.6597 -1.8496
25699SOL    HW278519   0.201   0.085   9.065  1.1891 -1.1332  1.5153
25700SOL     OW78520   5.649   6.156   8.520 -0.2087 -0.4870 -0.6519
25700SOL    HW178521   5.726   6.102   8.533 -0.1723  0.0361  1.8634
25700SOL    HW278522   5.581   6.113   8.572 -0.4946  1.1682  0.4273
25701SOL     OW78523   5.075   4.575   5.330  0.1644  0.8066 -0.6133
25701SOL    HW178524   5.063   4.661   5.290  3.0603  0.5396 -2.3239
25701SOL    HW278525   5.159   4.580   5.374  0.3321 -1.0895 -0.6134
25702SOL     OW78526   2.492   2.412   5.094 -0.3918 -0.2099  0.3848
25702SOL    HW178527   2.577   2.369   5.103 -0.2013 -0.2850 -1.3560
25702SOL    HW278528   2.513   2.505   5.088 -0.3555 -0.2662 -0.5705
25703SOL     OW78529   3.734   4.262   0.937  0.3940  0.2867  0.4377
25703SOL    HW178530   3.684   4.210   0.874 -1.4030  0.6998  1.4182
25703SOL    HW278531   3.754   4.201   1.008 -0.9411  0.6407  1.1753
25704SOL     OW78532   7.382   6.922   5.687  0.8224  0.2803 -0.4303
25704SOL    HW178533   7.297   6.893   5.720  1.4152 -1.4919 -0.4033
25704SOL    HW278534   7.363   7.006   5.644 -0.7186  0.5064  0.6004
25705SOL     OW78535   8.922   8.654   5.247  0.2493 -0.2347  0.1535
25705SOL    HW178536   8.940   8.572   5.201 -1.5313 -0.7094  0.2142
25705SOL    HW278537   8.978   8.719   5.204 -0.3169 -0.9496 -1.7874
25706SOL     OW78538   8.414   8.591   9.060  0.0557  0.3953 -0.1943
25706SOL    HW178539   8.506   8.570   9.078  0.2781  0.3992 -1.2969
25706SOL    HW278540   8.369   8.572   9.143  0.8965 -0.5318  0.0731
25707SOL     OW78541   7.385   1.672   8.730  0.1471 -0.0477 -1.0303
25707SOL    HW178542   7.475   1.641   8.721  0.2411 -0.0950 -0.0332
25707SOL    HW278543   7.392   1.768   8.729  0.4920 -0.0083  1.3196
25708SOL     OW78544   3.302   0.234   2.337  0.9561 -0.1678 -0.0475
25708SOL    HW178545   3.223   0.289   2.330  0.8371 -0.3752 -0.3733
25708SOL    HW278546   3.374   0.297   2.346  0.8078  0.0383 -0.2863
25709SOL     OW78547   7.001   6.491   4.731  0.5400  0.4840 -0.4160
25709SOL    HW178548   6.928   6.521   4.678  1.0639  0.2095 -1.3063
25709SOL    HW278549   6.977   6.401   4.756  1.8721 -0.7790 -3.2581
25710SOL     OW78550   9.090   0.836   2.060  0.7803 -0.3316 -0.8440
25710SOL    HW178551   9.028   0.795   2.000  0.0116 -0.9763  0.3704
25710SOL    HW278552   9.144   0.764   2.092 -0.3651 -0.4108  1.0520
25711SOL     OW78553   7.175   1.556   1.195  1.0618 -0.5205 -0.3791
25711SOL    HW178554   7.118   1.629   1.170 -1.5756 -1.8776  1.1728
25711SOL    HW278555   7.160   1.490   1.127 -0.0329 -1.2324  0.5130
25712SOL     OW78556   8.993   2.832   8.580 -0.4881 -0.1873 -0.1270
25712SOL    HW178557   9.075   2.844   8.628  0.2327 -0.0551 -1.3602
25712SOL    HW278558   8.939   2.908   8.605  0.4386  0.6610 -0.6382
25713SOL     OW78559   6.618   1.769   0.692 -0.2742 -0.0559  0.1566
25713SOL    HW178560   6.595   1.831   0.622 -0.1238 -0.8988 -0.6592
25713SOL    HW278561   6.679   1.817   0.747 -0.1121  0.5068 -0.4919
25714SOL     OW78562   4.754   3.991   8.466 -0.6117 -0.0287  0.8947
25714SOL    HW178563   4.678   3.952   8.510 -1.0174 -0.0161  0.2232
25714SOL    HW278564   4.829   3.943   8.500 -0.8353  0.4736  2.1557
25715SOL     OW78565   3.074   7.335   5.336  0.1484  0.0573  0.0747
25715SOL    HW178566   3.093   7.368   5.424  0.3523  0.4886 -0.1318
25715SOL    HW278567   3.160   7.313   5.300  0.2005  1.2849 -0.5763
25716SOL     OW78568   0.052   5.605   2.955 -0.1875 -0.1334  0.2876
25716SOL    HW178569   0.061   5.536   3.020 -2.2701 -0.8199 -0.1066
25716SOL    HW278570  -0.014   5.664   2.991 -0.0091  0.4967 -0.3832
25717SOL     OW78571   1.746   5.650   5.779 -0.2093 -0.2694 -0.7784
25717SOL    HW178572   1.688   5.575   5.766  0.3796 -0.6840 -1.0764
25717SOL    HW278573   1.834   5.615   5.765  0.3987 -0.3030  2.3745
25718SOL     OW78574   8.061   3.025   4.921  0.3304 -0.2751 -0.0579
25718SOL    HW178575   8.050   2.963   4.849 -1.0114 -2.4540  1.8859
25718SOL    HW278576   7.973   3.043   4.952  0.9213 -1.6714  2.7673
25719SOL     OW78577   3.988   0.452   7.870  0.2981  0.1202  0.1614
25719SOL    HW178578   4.046   0.376   7.861 -1.6181 -1.3784 -0.2291
25719SOL    HW278579   3.904   0.415   7.897 -1.9300  1.5327 -3.9411
25720SOL     OW78580   0.217   3.256   8.833 -0.0979  0.2374  0.0259
25720SOL    HW178581   0.148   3.309   8.794  1.4602  1.0439 -1.8361
25720SOL    HW278582   0.221   3.285   8.924 -1.0786  1.3803 -0.2658
25721SOL     OW78583   0.183   4.090   6.086 -0.7190 -0.1844  0.0357
25721SOL    HW178584   0.224   4.124   6.007 -3.2329  0.4799 -1.0860
25721SOL    HW278585   0.250   4.034   6.126  0.4689 -0.9947 -2.8391
25722SOL     OW78586   5.290   2.161   3.738 -0.1100 -0.4916  0.3962
25722SOL    HW178587   5.349   2.110   3.683  1.1585  0.1261  1.1425
25722SOL    HW278588   5.227   2.198   3.676  1.1321 -0.0142 -0.6400
25723SOL     OW78589   3.351   4.090   1.177  0.4763 -0.5897 -0.3386
25723SOL    HW178590   3.375   4.170   1.131  1.4953  0.3345  1.6582
25723SOL    HW278591   3.433   4.058   1.214  0.0454 -2.4728 -0.9309
25724SOL     OW78592   3.922   5.322   2.631  0.5553  0.0435 -0.6449
25724SOL    HW178593   3.920   5.254   2.564  0.0239  0.5852 -1.1874
25724SOL    HW278594   3.962   5.279   2.707 -1.1564 -1.3553 -0.4578
25725SOL     OW78595   7.817   1.212   0.958 -0.1127 -0.9339  0.3078
25725SOL    HW178596   7.801   1.202   1.052 -0.2367 -3.0704  0.0993
25725SOL    HW278597   7.879   1.142   0.937  0.2189 -0.2371 -1.1431
25726SOL     OW78598   5.760   2.428   0.827  0.2203 -0.0207 -0.1084
25726SOL    HW178599   5.793   2.424   0.917  1.6338  0.4115 -0.5698
25726SOL    HW278600   5.759   2.337   0.797  1.0237 -0.0484 -0.0737
25727SOL     OW78601   2.615   0.986   7.872  0.5898 -0.7218  1.0142
25727SOL    HW178602   2.558   1.060   7.849  0.7901 -0.0766  2.4721
25727SOL    HW278603   2.656   1.013   7.954  1.1293 -2.2188  1.2564
25728SOL     OW78604   6.875   2.730   5.058 -0.2812  0.2876  0.2810
25728SOL    HW178605   6.926   2.801   5.098  0.5739  0.8476 -1.6767
25728SOL    HW278606   6.892   2.738   4.965 -0.0508 -2.5989 -0.0196
25729SOL     OW78607   2.072   2.433   1.077  0.6937  0.3488 -0.4998
25729SOL    HW178608   1.991   2.412   1.123  1.7870 -1.3360  0.7805
25729SOL    HW278609   2.119   2.491   1.137  1.0757  0.1050 -0.5607
25730SOL     OW78610   3.965   8.577   4.171  0.6756  0.5401  0.1101
25730SOL    HW178611   3.954   8.521   4.095  1.1156  0.1022  0.3670
25730SOL    HW278612   3.916   8.657   4.149  0.2676  0.1651 -0.3597
25731SOL     OW78613   3.353   7.076   6.132 -0.2689 -0.5695  0.0762
25731SOL    HW178614   3.442   7.094   6.102  0.4603 -2.1605  1.1263
25731SOL    HW278615   3.313   7.027   6.060  0.5175 -1.8902  0.5030
25732SOL     OW78616   3.291   8.373   0.160 -0.3584  0.3056  0.0475
25732SOL    HW178617   3.365   8.433   0.165 -1.8394  2.1195  1.7924
25732SOL    HW278618   3.258   8.367   0.249 -2.6060 -0.0606 -0.7401
25733SOL     OW78619   5.477   7.227   6.659 -0.5760  0.1980  0.1284
25733SOL    HW178620   5.511   7.155   6.712  2.0268  0.7530 -0.6475
25733SOL    HW278621   5.382   7.216   6.661 -0.3743 -1.7627  2.0751
25734SOL     OW78622   3.290   5.228   6.790  1.3482  0.1948  0.2462
25734SOL    HW178623   3.274   5.253   6.699  2.3733  0.8783  0.2453
25734SOL    HW278624   3.222   5.273   6.840  1.9601  1.4129  0.0214
25735SOL     OW78625   6.533   1.893   6.022  0.1731  0.8605  0.0372
25735SOL    HW178626   6.503   1.823   6.079  0.6693  0.2001 -0.4818
25735SOL    HW278627   6.538   1.852   5.935  0.2971  1.5893 -0.3078
25736SOL     OW78628   8.183   2.692   7.032  0.5290  0.4812  0.2553
25736SOL    HW178629   8.112   2.680   6.969  1.6783 -0.9067 -0.8512
25736SOL    HW278630   8.251   2.738   6.984  0.1627  2.4795  1.5203
25737SOL     OW78631   2.906   7.424   7.037 -0.3812 -0.0954 -0.2126
25737SOL    HW178632   2.846   7.470   6.978  0.8183  0.7545 -0.7937
25737SOL    HW278633   2.955   7.365   6.980  1.5796  1.5403 -0.3001
25738SOL     OW78634   9.210   2.367   7.107  0.4342 -0.2112 -0.1228
25738SOL    HW178635   9.238   2.392   7.195 -0.9656  1.7792 -0.1632
25738SOL    HW278636   9.150   2.294   7.121 -0.3718  0.5748  0.6892
25739SOL     OW78637   3.174   0.592   8.819 -0.0222  0.5112 -0.3786
25739SOL    HW178638   3.146   0.612   8.730 -1.5456 -1.8732 -0.5409
25739SOL    HW278639   3.259   0.549   8.808  0.8108  2.1012 -0.4435
25740SOL     OW78640   6.880   3.255   0.550 -0.1351 -0.1721  0.0642
25740SOL    HW178641   6.893   3.163   0.526 -2.4652 -0.5743  0.0900
25740SOL    HW278642   6.801   3.254   0.604 -0.3863  1.8947 -0.2068
25741SOL     OW78643   0.684   0.618   4.151  0.0718 -0.1530 -0.2588
25741SOL    HW178644   0.645   0.680   4.212 -1.1131 -1.0312 -0.0810
25741SOL    HW278645   0.738   0.561   4.205  0.4746  0.1949 -0.2962
25742SOL     OW78646   7.058   2.553   8.724  0.5033  0.2652 -0.2827
25742SOL    HW178647   7.086   2.601   8.646 -0.3568  1.7405  0.2725
25742SOL    HW278648   6.987   2.497   8.693 -0.5562  1.6153 -0.4110
25743SOL     OW78649   2.008   2.102   4.671 -0.6448 -0.6421 -0.0758
25743SOL    HW178650   1.958   2.021   4.662 -1.7845 -0.5112  3.5297
25743SOL    HW278651   1.944   2.172   4.663 -0.6347 -0.3642  1.8348
25744SOL     OW78652   8.818   4.637   0.690  0.2413 -0.5452  0.3037
25744SOL    HW178653   8.891   4.591   0.730  2.6293  1.0773 -1.8967
25744SOL    HW278654   8.790   4.700   0.756  0.8103 -1.1812  1.1753
25745SOL     OW78655   4.766   7.745   0.471  0.0947  0.1116  0.2526
25745SOL    HW178656   4.788   7.735   0.378 -2.3167  2.2408 -0.6795
25745SOL    HW278657   4.694   7.684   0.485  0.1529  0.1238  0.6168
25746SOL     OW78658   3.538   6.415   9.011  0.1410  0.3519 -0.3144
25746SOL    HW178659   3.477   6.455   8.948 -0.0534  0.6262  0.0410
25746SOL    HW278660   3.527   6.321   8.999 -2.7465  0.2712  1.9200
25747SOL     OW78661   8.685   6.483   2.690  0.6164  0.3124 -0.0508
25747SOL    HW178662   8.644   6.398   2.708  1.8544 -0.2400  0.2844
25747SOL    HW278663   8.715   6.476   2.599  3.6016 -0.9356  0.8812
25748SOL     OW78664   7.506   4.154   6.015 -0.5167 -0.3975  0.2289
25748SOL    HW178665   7.441   4.174   6.082 -1.6966 -1.0867 -0.6577
25748SOL    HW278666   7.562   4.231   6.011 -0.9320 -0.0212  1.4230
25749SOL     OW78667   0.932   6.816   4.209  0.5010 -0.0572 -0.2375
25749SOL    HW178668   0.913   6.766   4.130  0.5847 -0.3954 -0.0466
25749SOL    HW278669   1.002   6.768   4.252  2.1750  1.4234 -1.1751
25750SOL     OW78670   1.825   4.030   2.102  0.4953 -0.8478 -0.3319
25750SOL    HW178671   1.762   4.021   2.174  1.4097  3.2550  1.2916
25750SOL    HW278672   1.892   3.965   2.121 -0.3693 -1.3433  1.2540
25751SOL     OW78673   4.725   4.355   7.025  0.1395 -0.0790 -0.0826
25751SOL    HW178674   4.765   4.441   7.013 -0.3430  0.6696  2.8485
25751SOL    HW278675   4.798   4.295   7.039  0.4095  0.0961 -0.6873
25752SOL     OW78676   8.147   7.215   7.391  0.2355  0.0924  0.2702
25752SOL    HW178677   8.148   7.123   7.418 -0.0794 -0.1044 -0.3569
25752SOL    HW278678   8.130   7.212   7.297  3.2629  0.6807 -0.3825
25753SOL     OW78679   9.162   7.001   5.640 -0.3123 -0.5563 -0.7649
25753SOL    HW178680   9.164   6.981   5.546  0.4004  0.6162 -1.0239
25753SOL    HW278681   9.074   6.977   5.668 -0.5719 -0.8143 -1.7580
25754SOL     OW78682   5.738   6.576   3.845 -0.0128 -0.7463 -0.5365
25754SOL    HW178683   5.690   6.513   3.791 -0.6997  0.6759 -1.6626
25754SOL    HW278684   5.681   6.593   3.920  0.6131 -2.1687  0.2935
25755SOL     OW78685   6.056   0.745   8.660  0.0950 -0.2319 -0.1560
25755SOL    HW178686   6.053   0.677   8.593  1.3450 -0.3375 -0.1151
25755SOL    HW278687   6.035   0.699   8.741  0.4487 -0.4655 -0.1988
25756SOL     OW78688   8.831   7.863   3.183  0.0120 -0.2093  0.7605
25756SOL    HW178689   8.884   7.838   3.259  0.1434  0.2922  0.8385
25756SOL    HW278690   8.752   7.809   3.190  0.1560 -0.3842  1.0841
25757SOL     OW78691   1.244   2.398   0.120  0.0221  0.3716  0.0384
25757SOL    HW178692   1.286   2.483   0.108  1.8212 -0.7340 -2.1638
25757SOL    HW278693   1.274   2.369   0.207 -0.1797  1.7098  0.5793
25758SOL     OW78694   5.013   2.706   6.114  0.3227 -0.3977  0.5385
25758SOL    HW178695   5.064   2.634   6.151 -0.0164 -0.4964  0.8147
25758SOL    HW278696   5.001   2.680   6.022 -0.1972 -0.9215  0.7496
25759SOL     OW78697   8.052   3.828   8.115  0.1161 -0.1345  0.1615
25759SOL    HW178698   7.958   3.817   8.102  0.0513 -0.6981  1.0255
25759SOL    HW278699   8.083   3.741   8.139  0.6075  0.3523  1.3486
25760SOL     OW78700   2.949   1.845   2.071 -1.2149  0.0143  0.3779
25760SOL    HW178701   3.004   1.922   2.058 -1.7547  0.1360 -1.4144
25760SOL    HW278702   2.981   1.781   2.007 -2.1656 -0.4513  0.3409
25761SOL     OW78703   5.664   4.084   0.660 -0.8572  0.5621 -0.4672
25761SOL    HW178704   5.684   4.133   0.580 -1.8449  1.7773 -0.0090
25761SOL    HW278705   5.709   4.132   0.729  0.4639 -0.8148 -0.3420
25762SOL     OW78706   8.716   3.183   5.870 -0.3839 -0.1219 -0.0863
25762SOL    HW178707   8.685   3.236   5.943 -0.2481 -2.6908  1.9795
25762SOL    HW278708   8.795   3.141   5.903 -0.1152 -1.0939 -1.8583
25763SOL     OW78709   7.155   1.893   6.298 -0.3258  0.0673 -0.0384
25763SOL    HW178710   7.062   1.883   6.278 -0.2108  0.1118 -0.6126
25763SOL    HW278711   7.180   1.973   6.253 -0.0581  0.1748  0.3008
25764SOL     OW78712   0.145   6.530   8.919 -0.1013 -0.3091  0.2517
25764SOL    HW178713   0.169   6.567   8.834  1.6205  1.6339  1.4651
25764SOL    HW278714   0.212   6.464   8.936 -0.0237 -0.1993  0.3792
25765SOL     OW78715   3.604   6.361   7.606 -0.0478  0.1107 -0.0000
25765SOL    HW178716   3.523   6.412   7.597 -0.3459  0.1212  2.2931
25765SOL    HW278717   3.672   6.427   7.623  0.4911  0.0906 -1.7853
25766SOL     OW78718   7.122   3.553   0.216  0.2945 -0.3121 -0.3219
25766SOL    HW178719   7.145   3.559   0.309 -0.1146  1.7698 -0.3072
25766SOL    HW278720   7.026   3.547   0.216  0.3122 -0.6603 -0.6193
25767SOL     OW78721   2.732   3.780   3.865  0.1815  0.0120 -0.1689
25767SOL    HW178722   2.671   3.847   3.835  1.0488  0.7684 -0.2583
25767SOL    HW278723   2.803   3.781   3.801 -0.1528 -1.5296 -0.6050
25768SOL     OW78724   3.605   5.951   0.029 -0.2721 -0.3325 -0.3664
25768SOL    HW178725   3.657   5.987  -0.043 -2.1827  1.6592 -0.8669
25768SOL    HW278726   3.624   5.857   0.027  2.6230  0.1663 -0.9885
25769SOL     OW78727   6.388   8.484   0.653  0.6704 -0.5134  0.1523
25769SOL    HW178728   6.299   8.480   0.619  0.3379 -0.5746  1.0133
25769SOL    HW278729   6.379   8.471   0.747  1.7435 -2.2728  0.0555
25770SOL     OW78730   7.732   8.584   4.200  0.3079 -0.2321 -0.0726
25770SOL    HW178731   7.748   8.517   4.133 -1.0339 -0.1580 -0.4990
25770SOL    HW278732   7.817   8.597   4.241  0.9430 -1.0345 -1.0676
25771SOL     OW78733   5.174   5.661   6.531 -0.3760  1.1540 -0.2933
25771SOL    HW178734   5.256   5.667   6.581 -1.3663 -0.5339  1.6655
25771SOL    HW278735   5.203   5.651   6.440  1.6302  0.4705  0.3513
25772SOL     OW78736   1.325   2.656   7.634  0.3232  0.3514 -0.4478
25772SOL    HW178737   1.363   2.709   7.705  1.0066 -0.5260 -0.1322
25772SOL    HW278738   1.269   2.716   7.586  1.2309  1.4063 -0.2192
25773SOL     OW78739   2.234   5.797   3.260 -0.2016  0.1451 -0.2152
25773SOL    HW178740   2.226   5.708   3.293  1.1787  0.0810  0.0211
25773SOL    HW278741   2.144   5.828   3.251 -0.6694 -0.3032  2.3401
25774SOL     OW78742   3.795   0.334   7.657 -0.8416  0.0738 -0.2060
25774SOL    HW178743   3.700   0.323   7.663 -0.9165  0.0371 -1.2477
25774SOL    HW278744   3.830   0.245   7.656 -0.6192  0.0809  2.2011
25775SOL     OW78745   4.673   0.396   3.131 -0.2110 -0.0274 -0.3888
25775SOL    HW178746   4.711   0.309   3.144  0.3642  0.2322 -0.3057
25775SOL    HW278747   4.579   0.380   3.120 -0.0958 -0.6648 -0.4596
25776SOL     OW78748   7.979   8.742   4.285 -0.0853  0.0583 -0.0012
25776SOL    HW178749   7.992   8.812   4.221 -1.2316  0.3566  0.0824
25776SOL    HW278750   7.964   8.787   4.368 -0.3133 -0.2983  0.1526
25777SOL     OW78751   1.409   5.860   8.846  0.3052 -0.2961 -0.2002
25777SOL    HW178752   1.447   5.906   8.921 -0.7821  0.0856  0.1526
25777SOL    HW278753   1.408   5.924   8.776 -0.1049 -0.1449 -0.0637
25778SOL     OW78754   4.417   1.240   7.976 -0.1400  0.0461 -0.0680
25778SOL    HW178755   4.493   1.213   8.027 -0.1698  1.5952  0.8616
25778SOL    HW278756   4.347   1.181   8.004  0.7722 -1.7185 -1.2848
25779SOL     OW78757   3.212   5.895   8.755  0.0051  0.1390  0.2728
25779SOL    HW178758   3.203   5.930   8.667  0.3068  1.8540  0.9025
25779SOL    HW278759   3.218   5.800   8.742  1.2393  0.4284 -1.6266
25780SOL     OW78760   1.671   6.201   3.288 -0.2363 -0.1908 -0.5366
25780SOL    HW178761   1.585   6.180   3.325  0.5420 -0.4202  1.2526
25780SOL    HW278762   1.686   6.133   3.222 -1.4256 -0.1318 -0.8910
25781SOL     OW78763   4.554   6.367   7.384 -0.6062 -0.5505  0.1133
25781SOL    HW178764   4.637   6.337   7.348  0.2678  0.6194  1.0675
25781SOL    HW278765   4.523   6.295   7.439 -0.6384 -1.2961 -0.8544
25782SOL     OW78766   7.275   3.883   8.616  0.0387  0.1405  0.7296
25782SOL    HW178767   7.366   3.909   8.633 -0.0537 -0.1714  1.7479
25782SOL    HW278768   7.234   3.881   8.703 -0.8926  0.0768  0.3002
25783SOL     OW78769   2.325   7.976   0.262  0.0643  0.3522 -0.1107
25783SOL    HW178770   2.257   8.025   0.215 -0.7537  0.2107  0.8999
25783SOL    HW278771   2.335   7.895   0.211 -1.6668 -0.3382  0.5647
25784SOL     OW78772   5.989   8.697   3.056 -0.1012 -0.6155 -0.4524
25784SOL    HW178773   6.002   8.750   3.134 -1.7300 -0.2620 -0.3887
25784SOL    HW278774   6.027   8.749   2.985 -3.7915  1.9741 -0.8128
25785SOL     OW78775   8.728   3.318   5.165 -0.2530 -0.5816  0.0215
25785SOL    HW178776   8.783   3.393   5.146 -0.0653 -0.6509  0.2845
25785SOL    HW278777   8.711   3.324   5.259  0.2623 -1.2039  0.1547
25786SOL     OW78778   5.448   6.278   4.156 -0.7420 -0.0098 -0.2219
25786SOL    HW178779   5.495   6.293   4.239 -0.0340 -0.4349 -0.5364
25786SOL    HW278780   5.393   6.355   4.146  1.0367  1.2954 -0.6056
25787SOL     OW78781   2.712   7.094   8.127  0.0673  0.2623  0.2513
25787SOL    HW178782   2.633   7.046   8.152 -0.7464  0.7700 -1.2245
25787SOL    HW278783   2.695   7.184   8.153  0.1434  0.3848 -0.1272
25788SOL     OW78784   2.718   2.121   5.463 -0.4142  0.0925 -0.4067
25788SOL    HW178785   2.777   2.127   5.539 -0.4902 -0.0239 -0.3377
25788SOL    HW278786   2.645   2.178   5.485 -0.2784  0.3180 -0.5374
25789SOL     OW78787   7.499   8.744   3.218 -0.5403  0.4570  0.0808
25789SOL    HW178788   7.461   8.731   3.305 -0.7929  2.9908  0.4130
25789SOL    HW278789   7.435   8.797   3.171 -0.2543 -0.5705 -1.5894
25790SOL     OW78790   4.809   3.689   3.640  0.1935  0.4076 -0.3334
25790SOL    HW178791   4.816   3.608   3.691 -0.0986 -1.4847 -3.1083
25790SOL    HW278792   4.814   3.661   3.549 -1.6555  3.3590 -1.4774
25791SOL     OW78793   5.506   7.010   5.899  0.4384 -0.3735  0.0470
25791SOL    HW178794   5.534   7.088   5.851 -0.0244 -1.1502 -1.5325
25791SOL    HW278795   5.587   6.973   5.935  0.7431  0.4191  0.2026
25792SOL     OW78796   3.968   5.803   8.038 -0.2803  0.2360  0.9626
25792SOL    HW178797   3.874   5.807   8.024 -0.4438 -0.0890  1.8613
25792SOL    HW278798   4.001   5.745   7.969 -0.5396  1.4109 -0.1721
25793SOL     OW78799   9.110   2.488   1.510  0.2944 -0.0931 -0.2195
25793SOL    HW178800   9.160   2.420   1.464 -0.2259 -0.4009 -0.3401
25793SOL    HW278801   9.059   2.440   1.575  1.5897  0.4111  1.2254
25794SOL     OW78802   2.562   6.024   2.153 -0.2731  0.0899  0.1784
25794SOL    HW178803   2.545   6.096   2.092 -1.4160 -1.2197 -1.1287
25794SOL    HW278804   2.481   6.016   2.204  0.4568  0.7799  1.5034
25795SOL     OW78805   6.624   6.556   6.277 -0.6844  0.2675 -0.0761
25795SOL    HW178806   6.664   6.566   6.363  1.0790  1.5019 -0.9695
25795SOL    HW278807   6.697   6.543   6.218 -1.7024  1.3444 -1.6468
25796SOL     OW78808   3.851   7.829   7.723  0.2914  0.2769  0.9910
25796SOL    HW178809   3.803   7.847   7.643 -0.3635 -0.7064  1.1448
25796SOL    HW278810   3.929   7.780   7.694 -0.1966 -0.5178  0.9810
25797SOL     OW78811   1.160   2.062   7.663  0.0576  0.4094 -0.5980
25797SOL    HW178812   1.207   2.001   7.606 -0.1474  1.0577 -1.4845
25797SOL    HW278813   1.228   2.121   7.696 -0.0056  0.8873 -1.2908
25798SOL     OW78814   4.438   8.061   7.021 -0.5070 -0.5118  0.4695
25798SOL    HW178815   4.407   8.103   7.101 -1.7397 -0.4338 -0.0230
25798SOL    HW278816   4.359   8.024   6.981  0.0964 -0.6298 -0.6566
25799SOL     OW78817   0.870   2.657   4.801 -0.0900  0.3286  0.1155
25799SOL    HW178818   0.885   2.576   4.849 -1.2475 -0.5961 -1.0028
25799SOL    HW278819   0.922   2.648   4.722 -0.6881  0.3934 -0.2936
25800SOL     OW78820   0.286   8.290   8.050 -0.4526  0.4528  0.4805
25800SOL    HW178821   0.371   8.333   8.049  0.0472 -0.4747  1.4473
25800SOL    HW278822   0.304   8.201   8.080 -1.8045  0.3306  1.0202
25801SOL     OW78823   8.707   2.701   2.003  0.3389 -0.5880 -0.3865
25801SOL    HW178824   8.685   2.775   1.947  0.6465  0.1246  0.4127
25801SOL    HW278825   8.800   2.710   2.020  0.1170 -0.3370  0.8415
25802SOL     OW78826   3.333   8.435   9.044 -0.0845 -0.4994  0.3689
25802SOL    HW178827   3.399   8.452   9.111 -1.1677  1.9729  0.9050
25802SOL    HW278828   3.357   8.492   8.971 -0.9110 -0.5092  0.0790
25803SOL     OW78829   8.008   6.626   4.325 -0.3046 -0.3316  0.1366
25803SOL    HW178830   7.931   6.593   4.277  0.1539  1.1834 -1.7614
25803SOL    HW278831   7.998   6.721   4.323  1.0123 -0.1633  0.9381
25804SOL     OW78832   2.410   7.399   8.519  0.1032  0.6074  0.2967
25804SOL    HW178833   2.506   7.396   8.521  0.2442  2.2081 -1.4742
25804SOL    HW278834   2.386   7.368   8.432 -1.0860 -0.7038  1.0477
25805SOL     OW78835   2.226   6.316   8.726  0.3501  0.1171 -0.1972
25805SOL    HW178836   2.270   6.294   8.808  2.0675 -1.0642 -1.3517
25805SOL    HW278837   2.240   6.410   8.716  1.8361 -0.0537 -0.0344
25806SOL     OW78838   5.936   7.194   1.244 -0.2562 -0.2917  0.1394
25806SOL    HW178839   5.890   7.158   1.169  1.3928  0.3139 -1.2338
25806SOL    HW278840   5.965   7.280   1.214 -0.2641  0.3113  1.7798
25807SOL     OW78841   7.968   2.139   3.041  0.8052 -0.4908 -0.2474
25807SOL    HW178842   7.881   2.108   3.068  0.5304  0.9178  0.5922
25807SOL    HW278843   7.950   2.196   2.966  0.6791  1.6705  1.3322
25808SOL     OW78844   7.590   6.410   3.061 -0.1381  0.3784 -0.2539
25808SOL    HW178845   7.655   6.436   3.126  1.8303  0.6079 -2.2230
25808SOL    HW278846   7.572   6.318   3.080 -0.6904  0.7958  1.4460
25809SOL     OW78847   1.191   3.837   6.803 -0.3228 -0.0590  0.2256
25809SOL    HW178848   1.254   3.882   6.858 -1.8128  1.2794  0.9085
25809SOL    HW278849   1.113   3.827   6.858 -0.5919 -2.1127 -0.4201
25810SOL     OW78850   2.945   3.635   1.545 -0.0999 -0.0501  0.0501
25810SOL    HW178851   2.884   3.688   1.494  1.2313  0.6867 -0.8281
25810SOL    HW278852   2.953   3.553   1.496 -1.0175 -0.5024  0.6259
25811SOL     OW78853   8.829   4.385   3.199 -0.7997  0.0981  0.6822
25811SOL    HW178854   8.773   4.455   3.164 -0.6657 -0.2560 -0.2758
25811SOL    HW278855   8.823   4.315   3.133 -1.8912 -1.2846  2.1850
25812SOL     OW78856   5.510   2.642   2.094 -0.3481 -0.4132 -0.3503
25812SOL    HW178857   5.582   2.581   2.084  0.4044  0.5280 -0.8886
25812SOL    HW278858   5.545   2.726   2.064 -1.8081 -0.0237 -1.0788
25813SOL     OW78859   8.454   7.910   5.225  0.2569 -0.0110 -0.3903
25813SOL    HW178860   8.548   7.928   5.234  0.0385  0.4055  1.4721
25813SOL    HW278861   8.448   7.849   5.152  2.0820 -0.8136  0.0879
25814SOL     OW78862   3.958   7.857   0.549  0.3624  0.6629  0.5606
25814SOL    HW178863   3.874   7.902   0.545 -0.3648 -0.7014 -0.4237
25814SOL    HW278864   3.940   7.778   0.600  1.3311  0.8804  1.2716
25815SOL     OW78865   2.932   7.403   2.375  0.1497  0.1003 -0.3439
25815SOL    HW178866   2.990   7.407   2.452 -1.1980  1.8882  0.6580
25815SOL    HW278867   2.915   7.310   2.362  0.5438 -0.2592  1.4368
25816SOL     OW78868   6.682   5.195   7.601  0.4085 -0.2056 -0.2571
25816SOL    HW178869   6.592   5.228   7.600  0.3273 -0.4082 -0.0190
25816SOL    HW278870   6.735   5.270   7.629  0.2147 -0.2971  0.3828
25817SOL     OW78871   2.214   4.655   6.988 -0.1378  0.6506  0.3890
25817SOL    HW178872   2.270   4.723   7.024 -1.5210  1.7321  0.5876
25817SOL    HW278873   2.175   4.613   7.065  1.5431 -1.1589  0.3204
25818SOL     OW78874   9.221   0.764   0.893 -0.5575  0.1198 -0.0632
25818SOL    HW178875   9.247   0.852   0.917 -0.7811 -0.1249  1.1709
25818SOL    HW278876   9.295   0.729   0.843  0.3043  0.3967  0.9762
25819SOL     OW78877   3.937   4.613   0.293 -0.7925  1.0277 -0.2094
25819SOL    HW178878   3.853   4.571   0.275 -0.8247  0.2418  1.5130
25819SOL    HW278879   3.998   4.540   0.308 -0.8826  1.4558  2.9628
25820SOL     OW78880   1.817   9.047   3.625 -0.7198  0.1050  0.1735
25820SOL    HW178881   1.829   8.994   3.703  0.5387  1.6969  1.1276
25820SOL    HW278882   1.787   9.132   3.659  0.7798  1.1380 -0.9460
25821SOL     OW78883   7.218   9.139   2.055  0.6272 -0.3864  0.2408
25821SOL    HW178884   7.199   9.229   2.032  0.8710 -0.7548 -1.5582
25821SOL    HW278885   7.302   9.120   2.013  0.1004 -1.7355 -0.2843
25822SOL     OW78886   6.309   5.176   7.024  0.0892  0.1481  0.3620
25822SOL    HW178887   6.383   5.236   7.017 -0.3968  0.6170 -1.2062
25822SOL    HW278888   6.306   5.131   6.939  0.4492 -2.1613  1.4854
25823SOL     OW78889   3.905   4.715   2.442 -0.0008  0.6253  0.5801
25823SOL    HW178890   3.937   4.638   2.488  0.5668  0.4780 -0.0493
25823SOL    HW278891   3.838   4.752   2.501  2.2599  1.7397  2.6271
25824SOL     OW78892   3.342   7.017   8.818 -0.0618  0.7218 -0.4530
25824SOL    HW178893   3.432   6.989   8.799 -0.3891 -0.6323 -0.0999
25824SOL    HW278894   3.345   7.112   8.809  0.8807  0.5617 -2.6473
25825SOL     OW78895   7.531   4.066   4.253  0.0035  0.1543 -0.1764
25825SOL    HW178896   7.566   4.146   4.291 -0.0412  0.4244 -0.7081
25825SOL    HW278897   7.549   4.072   4.160 -0.9335  0.0352 -0.3797
25826SOL     OW78898   5.334   3.759   5.925 -0.0116  0.3780  0.5403
25826SOL    HW178899   5.256   3.767   5.869 -2.0163  1.7588  3.2991
25826SOL    HW278900   5.328   3.833   5.985  2.6036 -0.4211  1.9351
25827SOL     OW78901   3.813   6.610   1.668 -0.5765  0.3769 -0.3425
25827SOL    HW178902   3.863   6.556   1.730  2.6313  1.8892 -1.4153
25827SOL    HW278903   3.784   6.685   1.720  0.9039  0.9523 -0.2999
25828SOL     OW78904   5.201   6.077   1.453 -0.0935 -0.1524  0.2499
25828SOL    HW178905   5.257   6.116   1.386  0.0169 -0.8829 -0.0981
25828SOL    HW278906   5.261   6.037   1.515 -0.2089 -1.6646 -0.5659
25829SOL     OW78907   5.577   1.749   2.182  0.1512 -0.1211 -0.2680
25829SOL    HW178908   5.634   1.722   2.109 -1.9122 -2.4123 -1.1613
25829SOL    HW278909   5.603   1.692   2.255 -0.6679 -0.9030 -0.5647
25830SOL     OW78910   7.529   6.298   1.636 -0.0469 -0.2632 -0.6331
25830SOL    HW178911   7.465   6.231   1.658  0.5052 -0.6526 -0.1590
25830SOL    HW278912   7.498   6.337   1.554  0.3061 -2.0037 -1.6510
25831SOL     OW78913   8.794   8.799   1.630  0.3889  0.3787  0.1659
25831SOL    HW178914   8.841   8.721   1.659  0.5464 -0.1168 -1.3508
25831SOL    HW278915   8.745   8.828   1.707  0.5157 -1.0678  0.8121
25832SOL     OW78916   5.964   6.895   2.405  0.4809  0.0749  0.3709
25832SOL    HW178917   5.983   6.850   2.488  2.2802  1.2963  0.6829
25832SOL    HW278918   5.957   6.988   2.429 -0.2238  0.3075 -0.6772
25833SOL     OW78919   1.775   0.559   4.570  0.3971 -0.4419 -0.2673
25833SOL    HW178920   1.782   0.464   4.580 -0.5193 -0.5349 -0.3961
25833SOL    HW278921   1.700   0.572   4.511  0.4183  0.3644 -0.1354
25834SOL     OW78922   5.891   3.167   5.278 -0.6074 -0.5178 -0.4675
25834SOL    HW178923   5.816   3.218   5.310  1.0832  1.5545  0.4284
25834SOL    HW278924   5.950   3.161   5.353  0.1632 -2.1091 -1.1556
25835SOL     OW78925   3.576   0.330   6.500 -0.2876  0.5119  0.5625
25835SOL    HW178926   3.530   0.253   6.535  1.2196 -0.6221  0.1741
25835SOL    HW278927   3.514   0.402   6.511 -0.9620 -0.3348  2.8701
25836SOL     OW78928   3.213   7.627   4.864 -0.3080 -0.3177  0.1393
25836SOL    HW178929   3.257   7.696   4.814 -0.5830  0.1477  0.5388
25836SOL    HW278930   3.124   7.660   4.877 -0.1600 -0.3130  1.1794
25837SOL     OW78931   6.204   6.851   9.182 -0.2364  0.2553  0.1933
25837SOL    HW178932   6.278   6.838   9.122 -0.3720  1.1177 -0.1784
25837SOL    HW278933   6.207   6.944   9.203 -1.2011  0.2919  0.1925
25838SOL     OW78934   3.647   7.734   2.256  0.5462 -0.2714  0.1038
25838SOL    HW178935   3.700   7.813   2.267 -0.4721  0.4808 -0.2928
25838SOL    HW278936   3.558   7.766   2.247 -0.2596 -1.5829  2.4254
25839SOL     OW78937   6.822   4.760   6.691 -0.7489 -0.2354  0.5363
25839SOL    HW178938   6.822   4.806   6.608 -1.3415 -1.2447 -0.0381
25839SOL    HW278939   6.808   4.668   6.668  0.1768 -0.6868  1.6650
25840SOL     OW78940   8.689   0.657   7.169 -0.1953 -0.2542  0.1001
25840SOL    HW178941   8.745   0.722   7.212 -0.4717  0.9056 -1.2259
25840SOL    HW278942   8.600   0.690   7.180 -0.3297 -0.3191 -0.6824
25841SOL     OW78943   8.894   4.044   8.719 -0.2179 -0.0662 -0.3341
25841SOL    HW178944   8.869   3.952   8.709  0.4689 -0.1604 -1.2809
25841SOL    HW278945   8.882   4.062   8.812 -0.7722 -0.9874 -0.2122
25842SOL     OW78946   0.512   4.650   7.193  0.3835 -0.0720 -0.3637
25842SOL    HW178947   0.577   4.623   7.258 -0.5298 -0.0147  0.5906
25842SOL    HW278948   0.444   4.583   7.196 -1.0058  1.3005  0.7236
25843SOL     OW78949   3.253   3.170   8.566  0.6012 -0.0155  0.5363
25843SOL    HW178950   3.256   3.266   8.568 -0.9477  0.2108 -2.1783
25843SOL    HW278951   3.177   3.148   8.621 -0.1038  0.4935 -0.1942
25844SOL     OW78952   5.138   1.027   8.835  0.7519  0.1059  0.1741
25844SOL    HW178953   5.110   1.115   8.809 -0.0080 -0.2729 -0.3085
25844SOL    HW278954   5.224   1.016   8.793  0.9867  0.7174  0.4739
25845SOL     OW78955   1.077   6.883   5.802 -0.0897 -0.1251  0.2871
25845SOL    HW178956   1.095   6.972   5.833 -0.0009 -0.6431  1.8436
25845SOL    HW278957   1.067   6.891   5.708  0.2716  1.4784  0.3643
25846SOL     OW78958   7.037   2.620   7.267  0.2184  0.5286 -0.2170
25846SOL    HW178959   7.045   2.672   7.347 -0.3657  1.1051 -0.5210
25846SOL    HW278960   6.950   2.580   7.273  0.6104 -0.3142 -0.0493
25847SOL     OW78961   8.574   2.228   5.427  0.6656 -0.1018 -0.8326
25847SOL    HW178962   8.606   2.242   5.516 -0.5828  0.5908 -0.4688
25847SOL    HW278963   8.643   2.178   5.384  2.0054  0.9481  0.0382
25848SOL     OW78964   0.655   6.996   9.021 -0.1169 -0.4914  0.4328
25848SOL    HW178965   0.718   7.068   9.023 -1.1191  0.4067  0.2797
25848SOL    HW278966   0.643   6.973   9.114 -0.4242  0.1002  0.5421
25849SOL     OW78967   8.850   7.384   5.381  0.0931  0.2261  0.0504
25849SOL    HW178968   8.797   7.385   5.461 -1.2554 -0.5257 -0.7978
25849SOL    HW278969   8.838   7.295   5.346  1.3627  0.2648 -0.5472
25850SOL     OW78970   6.249   7.668   0.758  0.4128 -0.0667  0.0335
25850SOL    HW178971   6.169   7.698   0.716  0.1649  0.9338  1.1760
25850SOL    HW278972   6.313   7.737   0.738  0.6382 -0.2279  0.2062
25851SOL     OW78973   5.527   3.342   8.985 -0.4397 -0.3439 -1.0229
25851SOL    HW178974   5.601   3.396   9.011 -0.8804 -0.5123  0.7255
25851SOL    HW278975   5.564   3.274   8.929  0.6817 -0.2374 -0.4364
25852SOL     OW78976   1.354   5.408   5.589  0.0776  0.7824 -0.6176
25852SOL    HW178977   1.382   5.421   5.498  1.5304  0.7178 -0.2017
25852SOL    HW278978   1.348   5.496   5.625  1.0803  0.7553 -0.3445
25853SOL     OW78979   0.225   7.728   9.275 -0.0117 -0.6230 -0.3725
25853SOL    HW178980   0.135   7.703   9.293 -0.1797  0.3820  0.2601
25853SOL    HW278981   0.277   7.678   9.338 -0.3927  0.9844  1.3042
25854SOL     OW78982   8.052   4.104   8.157  0.1634 -0.4510  0.8383
25854SOL    HW178983   8.050   4.159   8.079 -2.4913  0.1387  1.2308
25854SOL    HW278984   8.019   4.019   8.128  4.2315 -2.1039  0.2348
25855SOL     OW78985   0.455   7.327   0.083 -0.1788  0.3036  0.1366
25855SOL    HW178986   0.476   7.334  -0.010  1.5621  1.4316  0.5604
25855SOL    HW278987   0.432   7.235   0.095  0.4999 -0.0776 -1.2340
25856SOL     OW78988   7.615   3.872   6.376 -0.0535  0.6322  0.4959
25856SOL    HW178989   7.542   3.812   6.363  0.0955  0.4594  0.4442
25856SOL    HW278990   7.627   3.875   6.470  1.0932 -0.8339  0.4310
25857SOL     OW78991   3.955   9.096   7.570  0.7407 -0.1389 -0.3884
25857SOL    HW178992   4.030   9.049   7.533  1.2418 -0.0664  0.4938
25857SOL    HW278993   3.879   9.047   7.539  1.2669 -1.9521  1.0000
25858SOL     OW78994   8.702   7.334   7.493  0.4122  0.1630  0.4267
25858SOL    HW178995   8.657   7.340   7.577 -0.2531 -0.3592  0.1193
25858SOL    HW278996   8.766   7.264   7.505 -1.3807 -1.6889 -0.2224
25859SOL     OW78997   0.855   7.513   0.975  0.0539 -0.0367  0.2396
25859SOL    HW178998   0.929   7.519   1.036  0.0039 -1.2444  0.4330
25859SOL    HW278999   0.804   7.439   1.006 -0.5224 -0.0402 -0.6802
25860SOL     OW79000   4.291   3.790   8.455 -0.3606 -0.2677 -0.2360
25860SOL    HW179001   4.277   3.774   8.362  0.4804 -0.6481 -0.3006
25860SOL    HW279002   4.204   3.815   8.488 -1.4732 -3.4340 -0.4373
25861SOL     OW79003   6.465   6.560   6.783 -0.2659 -0.4669  0.3361
25861SOL    HW179004   6.398   6.584   6.719 -1.2290 -0.3844  1.3344
25861SOL    HW279005   6.469   6.464   6.779  0.4315 -0.4103 -0.5656
25862SOL     OW79006   6.846   5.097   7.240  0.3394 -0.6784  0.2470
25862SOL    HW179007   6.898   5.100   7.160 -0.9803  1.0359 -0.5908
25862SOL    HW279008   6.872   5.175   7.288 -0.0096 -0.8788  0.7722
25863SOL     OW79009   7.326   0.966   5.319 -0.3928 -0.3008 -0.5921
25863SOL    HW179010   7.294   0.878   5.339 -1.8438  0.3855  0.3390
25863SOL    HW279011   7.284   0.988   5.235 -1.3557  0.1016 -0.0183
25864SOL     OW79012   2.217   4.462   4.522  0.3108 -0.0363  0.8176
25864SOL    HW179013   2.231   4.454   4.428  0.1369  0.4937  0.7412
25864SOL    HW279014   2.298   4.501   4.555 -0.2663  1.3905  0.6285
25865SOL     OW79015   8.130   3.082   1.537 -0.2307 -0.0079 -0.4216
25865SOL    HW179016   8.050   3.053   1.579 -1.2215  0.2102 -2.0872
25865SOL    HW279017   8.183   3.003   1.527 -0.2919 -0.1759  0.5510
25866SOL     OW79018   8.019   2.013   8.507 -0.3598  0.2231 -0.1416
25866SOL    HW179019   8.039   2.104   8.486 -1.1234  1.0321  2.2959
25866SOL    HW279020   8.028   2.008   8.602  0.7589 -2.5598 -0.3138
25867SOL     OW79021   6.004   3.143   1.011  0.1201 -0.1949 -0.4329
25867SOL    HW179022   5.945   3.217   1.004  0.3519  0.0910  0.5888
25867SOL    HW279023   5.981   3.100   1.093  2.4552  0.9371  0.9012
25868SOL     OW79024   8.270   7.638   5.747  0.4420 -0.2181 -0.6051
25868SOL    HW179025   8.205   7.653   5.816 -0.3170  1.1985 -1.5692
25868SOL    HW279026   8.336   7.705   5.762  0.2531  0.1259 -1.2502
25869SOL     OW79027   6.321   7.409   8.024  0.2511  0.1120  0.3375
25869SOL    HW179028   6.237   7.367   8.008 -0.1086  0.6568  0.7561
25869SOL    HW279029   6.299   7.500   8.046  1.0183  0.5452 -0.6253
25870SOL     OW79030   4.139   6.270   1.555  0.0505  0.2386 -0.4851
25870SOL    HW179031   4.181   6.235   1.476 -0.0998  1.4557 -1.1257
25870SOL    HW279032   4.153   6.203   1.622  1.4472 -0.1654 -1.1598
25871SOL     OW79033   1.914   4.306   4.802  0.4507 -0.0195  0.0530
25871SOL    HW179034   1.930   4.283   4.711  0.8826 -0.3305  0.2049
25871SOL    HW279035   1.971   4.380   4.819  0.3035  0.0967  0.0485
25872SOL     OW79036   8.174   4.403   2.565  0.3808  0.1317  0.1053
25872SOL    HW179037   8.148   4.473   2.504  1.7433  0.7035  0.1448
25872SOL    HW279038   8.122   4.327   2.538  0.0547  0.7172 -0.9706
25873SOL     OW79039   4.989   1.705   6.613  0.4359 -0.0631 -0.1652
25873SOL    HW179040   4.992   1.634   6.550  0.8727  1.2217 -1.6404
25873SOL    HW279041   5.031   1.670   6.691 -0.5258 -1.8332 -0.3962
25874SOL     OW79042   2.912   7.521   3.274 -0.1195 -0.2509  0.1930
25874SOL    HW179043   2.840   7.558   3.222  0.8759  0.2404 -0.8803
25874SOL    HW279044   2.922   7.432   3.241 -0.8449 -0.6536  1.0144
25875SOL     OW79045   0.879   4.995   2.047 -0.4402  0.1787  0.3670
25875SOL    HW179046   0.956   5.003   1.991  0.3840 -4.1431  0.5516
25875SOL    HW279047   0.813   4.953   1.991 -0.1866 -2.5949  1.9844
25876SOL     OW79048   6.060   5.669   0.093  0.5864  0.6706 -0.3182
25876SOL    HW179049   6.118   5.613   0.041  1.3294  1.3551 -0.2428
25876SOL    HW279050   6.113   5.745   0.114 -0.1590  1.0376  0.2684
25877SOL     OW79051   2.572   8.440   0.853 -0.0682  0.2001 -0.5917
25877SOL    HW179052   2.490   8.490   0.853 -0.2741 -0.1314 -0.2290
25877SOL    HW279053   2.633   8.496   0.901 -0.4437 -0.1112  0.2751
25878SOL     OW79054   7.481   3.180   1.548 -0.5828 -0.0208  0.3163
25878SOL    HW179055   7.406   3.161   1.604 -0.8080  0.1883  0.0839
25878SOL    HW279056   7.446   3.233   1.477  0.0358  1.3600  0.9897
25879SOL     OW79057   3.785   5.706   5.184  0.0798  0.0406 -0.0230
25879SOL    HW179058   3.824   5.762   5.251  2.9648 -0.9549 -0.7293
25879SOL    HW279059   3.836   5.723   5.105 -1.5403 -0.7171 -1.3045
25880SOL     OW79060   5.192   2.761   3.106 -0.0564  0.3147 -0.5315
25880SOL    HW179061   5.274   2.785   3.064 -0.4535 -1.1708 -2.3139
25880SOL    HW279062   5.198   2.796   3.195  0.4597  4.4197 -2.0008
25881SOL     OW79063   1.105   2.005   6.957 -0.0338  0.5550  0.3161
25881SOL    HW179064   1.163   1.983   7.029 -1.2210 -0.9225  0.8873
25881SOL    HW279065   1.078   2.095   6.974  1.3224  0.9309  0.5527
25882SOL     OW79066   6.607   8.515   2.282  0.1188 -0.0081 -0.1490
25882SOL    HW179067   6.693   8.511   2.239  1.0700  3.2368  1.1939
25882SOL    HW279068   6.558   8.580   2.232 -0.8730 -0.4172  0.2694
25883SOL     OW79069   4.128   7.123   2.038  0.1931 -0.3897  0.3749
25883SOL    HW179070   4.045   7.152   1.999  1.8764  0.0999 -3.1973
25883SOL    HW279071   4.139   7.033   2.008  2.1467  0.4130 -1.5926
25884SOL     OW79072   5.220   6.334   1.720  0.1171  0.3559  0.5050
25884SOL    HW179073   5.281   6.407   1.719 -0.5586  0.9190 -0.1854
25884SOL    HW279074   5.265   6.265   1.670 -0.7676  1.5825 -2.1009
25885SOL     OW79075   1.479   6.725   1.819 -0.1155  0.0064 -0.1712
25885SOL    HW179076   1.449   6.641   1.853  0.0420  0.5404  1.3173
25885SOL    HW279077   1.569   6.708   1.791 -0.7421 -0.8261 -1.8465
25886SOL     OW79078   0.623   2.245   7.176  0.0011 -0.0142  0.1114
25886SOL    HW179079   0.536   2.283   7.175  0.0323  0.1072  0.9691
25886SOL    HW279080   0.681   2.319   7.194  0.4721  0.2149 -2.0548
25887SOL     OW79081   3.986   1.219   3.255 -0.1670  0.1002  0.8518
25887SOL    HW179082   3.981   1.202   3.161  1.3594  0.0155  0.7626
25887SOL    HW279083   3.951   1.308   3.265 -0.7594 -0.0585  0.2807
25888SOL     OW79084   2.452   1.262   8.142 -0.0158 -0.2687  1.0279
25888SOL    HW179085   2.366   1.306   8.145 -0.6238 -1.3346 -0.0212
25888SOL    HW279086   2.484   1.279   8.054  0.1279 -1.2287  0.8941
25889SOL     OW79087   0.485   0.297   0.321  0.3527  0.2867 -0.5049
25889SOL    HW179088   0.393   0.324   0.316 -0.1046 -0.6057  1.7839
25889SOL    HW279089   0.531   0.358   0.264 -1.5332  1.4289 -0.8891
25890SOL     OW79090   2.395   6.081   7.888  0.4561  0.7229 -0.0706
25890SOL    HW179091   2.368   6.147   7.824  0.4064  0.2317 -0.5709
25890SOL    HW279092   2.334   6.008   7.873  1.1882  0.1466 -0.2652
25891SOL     OW79093   7.390   1.465   8.524 -0.2543 -0.4335  0.0684
25891SOL    HW179094   7.406   1.401   8.593  1.3088  0.2267  0.3475
25891SOL    HW279095   7.332   1.529   8.565 -1.0425 -1.1359  0.0861
25892SOL     OW79096   6.014   5.500   3.055 -0.0800 -0.2796 -0.1391
25892SOL    HW179097   6.029   5.502   2.961  0.1770  2.4033 -0.1154
25892SOL    HW279098   6.100   5.481   3.093  0.1761  0.2647 -0.4306
25893SOL     OW79099   3.068   6.396   7.861 -0.2000 -0.0685 -0.2118
25893SOL    HW179100   2.976   6.378   7.879 -0.0496 -0.5035  0.1508
25893SOL    HW279101   3.070   6.487   7.832 -1.0794 -0.7346 -2.6855
25894SOL     OW79102   4.001   6.429   3.821 -0.6101  0.1829  0.4773
25894SOL    HW179103   4.051   6.349   3.838 -0.8262 -0.0232  0.1365
25894SOL    HW279104   4.006   6.441   3.726  0.3468  1.1773  0.6342
25895SOL     OW79105   0.800   0.235   4.908  0.4118  0.6075 -0.1167
25895SOL    HW179106   0.886   0.273   4.887 -0.4413  0.8752 -3.9900
25895SOL    HW279107   0.746   0.311   4.932  0.7771  0.6829  0.4848
25896SOL     OW79108   8.687   1.299   5.716 -0.3192 -0.3145  0.1357
25896SOL    HW179109   8.615   1.322   5.775 -0.5869  0.8974 -0.6376
25896SOL    HW279110   8.652   1.315   5.629  1.1858  1.2481 -0.2301
25897SOL     OW79111   7.298   6.947   8.900 -0.1524  0.4320 -0.0983
25897SOL    HW179112   7.344   7.028   8.878 -0.0781  0.1375 -1.0799
25897SOL    HW279113   7.315   6.889   8.826 -1.0936 -0.1113  0.0928
25898SOL     OW79114   3.146   2.158   1.289 -0.3487  0.0403 -0.1994
25898SOL    HW179115   3.106   2.238   1.255 -0.4959 -0.3362 -0.9230
25898SOL    HW279116   3.101   2.144   1.373  1.1812  1.8744  1.0174
25899SOL     OW79117   9.131   0.552   5.186  0.1797  0.1046  0.3155
25899SOL    HW179118   9.169   0.579   5.269 -0.6408  1.3880  0.2898
25899SOL    HW279119   9.051   0.506   5.210  0.3233 -0.1756  0.2615
25900SOL     OW79120   1.819   1.924   8.120 -0.0175 -0.4873  0.0112
25900SOL    HW179121   1.800   1.994   8.183  0.2538 -0.7762  0.4213
25900SOL    HW279122   1.755   1.856   8.141 -0.7037 -0.1136 -0.8088
25901SOL     OW79123   4.307   3.997   7.053 -0.5398 -1.0968  0.0542
25901SOL    HW179124   4.385   4.011   7.000 -0.3998 -1.3755  0.1853
25901SOL    HW279125   4.236   3.986   6.990 -0.7850  0.8544 -0.0702
25902SOL     OW79126   8.026   7.527   9.060  0.1708 -0.2626 -0.2317
25902SOL    HW179127   8.088   7.560   8.994 -1.6586  1.8509 -1.0257
25902SOL    HW279128   8.002   7.605   9.111  0.7013 -1.6541  2.2815
25903SOL     OW79129   6.252   7.183   6.085  0.0452 -0.5380  0.9281
25903SOL    HW179130   6.181   7.189   6.149 -0.5235  1.0060  0.2251
25903SOL    HW279131   6.216   7.224   6.006  2.7191  3.4953  1.5063
25904SOL     OW79132   6.533   4.239   2.692 -0.3947 -0.2987  0.0153
25904SOL    HW179133   6.517   4.173   2.760 -0.4399 -0.5991 -0.2835
25904SOL    HW279134   6.449   4.246   2.645 -0.5673  0.4035  0.4163
25905SOL     OW79135   7.053   4.038   8.266 -0.2689 -0.3094  0.4006
25905SOL    HW179136   7.140   4.057   8.302  0.1698  0.0050 -0.7540
25905SOL    HW279137   6.997   4.025   8.342  1.1623 -2.3076  1.2016
25906SOL     OW79138   5.591   6.637   7.721  0.0181  0.2617 -0.5142
25906SOL    HW179139   5.581   6.650   7.815  0.4860 -1.2184 -0.2415
25906SOL    HW279140   5.514   6.587   7.694  0.3319 -0.1030 -0.7488
25907SOL     OW79141   8.158   0.649   7.380  0.3205  0.6704 -0.1550
25907SOL    HW179142   8.161   0.689   7.467 -0.0381  1.9986 -0.7259
25907SOL    HW279143   8.151   0.555   7.397 -4.1110  1.0634  1.3755
25908SOL     OW79144   2.857   6.253   2.047 -0.2163 -0.3440 -0.3798
25908SOL    HW179145   2.824   6.293   2.127 -1.3030 -1.4534 -0.2512
25908SOL    HW279146   2.952   6.267   2.051 -0.2926 -0.1026  0.9357
25909SOL     OW79147   0.382   5.619   6.324 -0.6361  0.1546 -0.1783
25909SOL    HW179148   0.389   5.651   6.234 -0.3448  0.0049 -0.2107
25909SOL    HW279149   0.468   5.635   6.361 -1.0738  1.2382  0.4196
25910SOL     OW79150   8.921   0.061   0.731  0.0159 -0.0785  0.3831
25910SOL    HW179151   9.010   0.028   0.742  1.0151  1.6748 -1.7670
25910SOL    HW279152   8.902   0.105   0.814  1.0902 -0.6275  0.9418
25911SOL     OW79153   2.604   4.731   8.854  0.3500  0.0181  0.1285
25911SOL    HW179154   2.523   4.717   8.806  0.6011 -1.2379  0.0461
25911SOL    HW279155   2.673   4.720   8.789  0.6355 -0.1926  0.4651
25912SOL     OW79156   3.880   4.274   8.404  0.1764  0.1677 -0.0753
25912SOL    HW179157   3.813   4.310   8.346 -0.9434  0.7775  1.5188
25912SOL    HW279158   3.834   4.207   8.455  1.6353 -1.8691 -1.2661
25913SOL     OW79159   3.817   5.691   2.996  0.1373 -0.1045 -0.1705
25913SOL    HW179160   3.836   5.770   3.046  0.4041 -0.7812  0.8246
25913SOL    HW279161   3.806   5.622   3.062  0.5794 -1.0396 -1.0310
25914SOL     OW79162   2.991   3.937   4.164 -0.0686  0.7358  0.3581
25914SOL    HW179163   3.069   3.940   4.108  0.8045  0.3698  1.5330
25914SOL    HW279164   3.018   3.981   4.245 -1.3987  1.4835  0.4136
25915SOL     OW79165   8.851   0.670   2.257  0.3111  0.0417  0.1196
25915SOL    HW179166   8.807   0.752   2.234 -3.0083 -1.1244  1.6697
25915SOL    HW279167   8.888   0.686   2.344  2.5334  0.7970 -0.8926
25916SOL     OW79168   2.635   6.848   8.001  0.5685 -0.3999  0.4002
25916SOL    HW179169   2.638   6.822   7.909 -0.8782 -0.3225  0.3145
25916SOL    HW279170   2.726   6.868   8.023  0.7298  1.2381 -1.4725
25917SOL     OW79171   4.050   8.470   5.399  0.4973  0.2524  0.0196
25917SOL    HW179172   4.130   8.425   5.372  0.7717  0.7362  0.0165
25917SOL    HW279173   3.984   8.401   5.403  0.8290 -0.0897 -0.3314
25918SOL     OW79174   3.169   4.596   4.677  0.3264 -0.1616 -0.0637
25918SOL    HW179175   3.195   4.661   4.612 -1.0122  0.7206  0.2471
25918SOL    HW279176   3.114   4.534   4.629  0.8387 -0.5524 -0.1558
25919SOL     OW79177   9.224   5.137   6.425 -0.0984  0.0252 -0.1469
25919SOL    HW179178   9.219   5.060   6.481 -0.1161 -1.9897 -2.7213
25919SOL    HW279179   9.309   5.176   6.444 -0.4953  0.0145  1.8961
25920SOL     OW79180   7.367   9.235   4.107 -0.1056  0.2152 -0.1806
25920SOL    HW179181   7.403   9.291   4.039  0.7215  0.2252  0.2591
25920SOL    HW279182   7.282   9.208   4.072 -0.0231  0.8191 -0.8878
25921SOL     OW79183   6.799   3.657   1.066 -0.0702  0.2915  0.7172
25921SOL    HW179184   6.853   3.591   1.108 -0.4499 -0.3530  0.2062
25921SOL    HW279185   6.859   3.705   1.009  0.1917  0.3365  1.0331
25922SOL     OW79186   3.998   8.617   3.645 -0.4006 -0.3885  0.0330
25922SOL    HW179187   3.968   8.708   3.638 -0.1285 -0.1485  1.4925
25922SOL    HW279188   4.061   8.619   3.717  1.8306 -1.2157 -1.7990
25923SOL     OW79189   7.626   9.133   4.120 -0.5513  0.0627 -0.7188
25923SOL    HW179190   7.534   9.156   4.135 -0.9232 -1.0943 -1.1472
25923SOL    HW279191   7.638   9.051   4.168 -0.2467 -0.7403 -2.1151
25924SOL     OW79192   1.725   8.541   0.283  0.3419  0.1042 -0.1240
25924SOL    HW179193   1.680   8.496   0.354  0.1953 -0.0085 -0.2894
25924SOL    HW279194   1.794   8.481   0.256 -0.1055 -0.1942 -0.6143
25925SOL     OW79195   5.299   6.643   2.166  0.4308  0.1519 -0.0441
25925SOL    HW179196   5.267   6.685   2.086 -0.7089 -1.2463 -0.3536
25925SOL    HW279197   5.361   6.706   2.203 -0.4898  1.6702 -0.9950
25926SOL     OW79198   0.024   5.823   8.949  0.3488 -0.5756 -0.6224
25926SOL    HW179199   0.109   5.787   8.975  0.0234 -1.0215 -0.1572
25926SOL    HW279200   0.017   5.806   8.856  0.7596 -0.5569 -0.6578
25927SOL     OW79201   6.203   1.337   5.854 -0.0248 -0.3737  0.3422
25927SOL    HW179202   6.144   1.331   5.779 -0.4209  0.1934  0.6028
25927SOL    HW279203   6.288   1.310   5.820  0.2199  1.6651 -0.7885
25928SOL     OW79204   2.020   7.652   0.271  0.2058 -0.1542  0.7333
25928SOL    HW179205   2.047   7.625   0.183  0.2995  0.6969  0.4899
25928SOL    HW279206   1.958   7.724   0.256 -0.4892 -0.6171  1.3417
25929SOL     OW79207   4.286   3.476   2.679  0.6749 -0.1081 -0.0680
25929SOL    HW179208   4.310   3.390   2.714  0.4447  0.3342  1.2449
25929SOL    HW279209   4.191   3.479   2.686  0.7631  0.7323  1.1420
25930SOL     OW79210   6.050   2.969   1.293  0.4735  0.3058 -0.1200
25930SOL    HW179211   6.066   3.053   1.335 -0.0358 -0.3121  1.3596
25930SOL    HW279212   6.137   2.940   1.263  0.7872  0.9193  0.1936
25931SOL     OW79213   8.982   0.278   7.730 -0.7442  0.1859  0.3255
25931SOL    HW179214   8.976   0.336   7.806  0.9904 -0.3306  0.9061
25931SOL    HW279215   9.024   0.331   7.662 -1.4068  0.3498  0.0387
25932SOL     OW79216   8.607   3.393   3.486 -0.4939 -0.7836  0.6788
25932SOL    HW179217   8.661   3.402   3.565  1.5446  0.2316 -0.7486
25932SOL    HW279218   8.647   3.322   3.437 -0.7259 -0.3266 -0.1941
25933SOL     OW79219   4.915   9.232   0.041  0.2481 -0.1793  0.1025
25933SOL    HW179220   4.928   9.204  -0.050  0.5308  0.0069  0.0856
25933SOL    HW279221   4.995   9.206   0.086  0.3033  0.1432  0.1971
25934SOL     OW79222   3.669   4.396   0.513 -0.7753  0.1584  0.4188
25934SOL    HW179223   3.647   4.338   0.440  0.3408  0.0770  0.1311
25934SOL    HW279224   3.591   4.394   0.569 -1.2840 -0.5240 -0.2883
25935SOL     OW79225   3.289   5.379   1.739  0.0236 -0.6845 -0.1015
25935SOL    HW179226   3.285   5.413   1.829  1.4123 -0.9852  0.1018
25935SOL    HW279227   3.276   5.456   1.684 -1.5735 -0.6017  0.3264
25936SOL     OW79228   8.498   3.391   8.124  0.3919  0.2768  0.1311
25936SOL    HW179229   8.543   3.462   8.078  2.8271 -0.9821  0.4073
25936SOL    HW279230   8.502   3.417   8.217  0.0616  0.3965  0.1151
25937NA      NA79231   4.288   0.532   6.420  0.0160 -0.6986  0.7787
25938NA      NA79232   1.958   4.417   0.918 -0.2056  0.3689  0.0605
25939NA      NA79233   6.534   0.946   8.924  0.1793  0.0095 -0.0288
25940NA      NA79234   3.605   2.964   3.808 -0.4966 -0.4063  0.4701
25941NA      NA79235   5.149   2.117   6.155  0.3772  0.4289 -0.5867
25942NA      NA79236   0.779   6.213   7.127  0.0370  0.0199 -0.0221
25943NA      NA79237   8.580   4.826   8.676  0.1467  0.0110 -0.1298
25944NA      NA79238   5.146   7.074   1.092 -0.1822 -0.0727 -0.0049
25945NA      NA79239   0.352   8.908   7.364 -0.5237 -0.0168 -0.1898
25946NA      NA79240   8.692   3.331   4.294 -0.3923 -0.0873 -0.4896
25947NA      NA79241   7.328   1.996   2.255  0.1352 -0.0509  0.0107
25948NA      NA79242   0.154   0.690   5.975  0.3904  0.6825 -0.3459
25949NA      NA79243   1.847   1.477   3.996 -0.6649 -0.0811  0.4987
25950NA      NA79244   7.865   3.550   3.494  0.0197 -0.5132  0.0358
25951NA      NA79245   0.278   5.775   3.516  0.2270 -0.0795  0.0835
25952NA      NA79246   5.515   0.942   7.186  0.0004  0.0594  0.0035
25953NA      NA79247   2.632   5.445   8.533 -0.1054 -0.8970  0.1211
25954NA      NA79248   7.760   3.937   0.478  0.2255  0.2841  0.4684
25955NA      NA79249   0.463   7.075   7.003 -0.3132 -0.0759 -0.0143
25956NA      NA79250   2.261   0.057   3.120 -0.0095 -0.1304  0.1573
25957NA      NA79251   1.391   4.174   0.222  0.2643  0.1037  0.1291
25958NA      NA79252   7.695   7.495   3.467  0.7231 -0.2304 -0.2964
25959NA      NA79253   8.724   3.407   2.383  0.3460 -0.5751  0.3343
25960NA      NA79254   7.692   9.251   2.571 -0.5566  0.2749  0.0661
25961NA      NA79255   3.780   8.244   8.650  0.0127 -0.3123 -0.5844
25962NA      NA79256   3.872   0.721   9.272 -0.2610  0.0397  0.0166
25963NA      NA79257   6.218   5.971   6.550 -0.1072  0.2163  0.0959
25964NA      NA79258   3.762   8.879   7.353  0.1050  0.4112 -0.6271
25965NA      NA79259   1.484   0.181   7.342  0.2870 -0.0410  0.0391
25966NA      NA79260   8.382   7.199   1.855  0.0527  0.0903 -0.1390
25967NA      NA79261   3.190   2.790   7.055  0.0812  0.0390  0.0940
25968NA      NA79262   0.351   7.782   9.086 -0.4562 -0.4737 -0.1931
25969NA      NA79263   2.720   5.659   4.799  0.1386  0.1002  0.2355
25970NA      NA79264   9.110   1.072   2.940 -0.4086  0.2967  0.2086
25971NA      NA79265   2.004   2.311   5.879 -0.6142 -0.2206 -0.8463
25972NA      NA79266   7.897   2.457   6.372  0.1083  0.0583  0.1310
25973NA      NA79267   4.319   6.343   3.014  0.1929 -0.3377  0.0813
25974NA      NA79268   8.434   0.670   1.723 -0.3957  0.0849  0.0864
25975NA      NA79269   2.254   4.319   7.691 -0.0169 -0.3847 -0.2619
25976NA      NA79270   5.020   4.414   5.208  0.0633  0.0922 -0.4812
25977NA      NA79271   8.561   1.757   8.872  0.0724  0.1339 -0.2621
25978NA      NA79272   4.563   9.228   4.863  0.0517 -0.4419 -0.4706
25979NA      NA79273   5.421   4.719   0.644  0.1932  0.3046 -0.0061
25980NA      NA79274   8.718   8.978   0.686 -0.6141  0.1592 -0.1920
25981NA      NA79275   2.165   3.069   6.192 -0.1134  0.3929  0.0854
25982NA      NA79276   5.429   7.131   7.282  0.1254 -0.0704  0.2716
25983NA      NA79277   0.042   0.326   3.007 -0.4513 -0.0055 -0.0745
25984NA      NA79278   8.030   6.720   1.310 -0.0579  0.0093 -0.3204
25985NA      NA79279   0.556   0.172   5.808 -0.1843  0.1675 -0.1569
25986NA      NA79280   4.569   3.829   2.363 -0.2057  0.0667  0.0475
25987NA      NA79281   7.142   2.891   1.227  0.0509  0.0687  0.4297
25988NA      NA79282   4.633   2.121   0.001  0.2597 -0.0868 -0.2740
25989NA      NA79283   0.371   7.871   6.733 -0.5071  0.1397  0.2752
25990NA      NA79284   4.952   0.271   6.037  0.0597  0.0715  0.0825
25991NA      NA79285   0.356   2.297   7.569 -0.2877 -0.3470 -0.0037
25992NA      NA79286   8.004   1.078   4.370  0.4173  0.8682  0.1091
25993NA      NA79287   2.156   8.918   6.397 -0.6442 -0.5377 -0.3250
25994NA      NA79288   2.990   8.496   5.007  0.1010  0.0932 -0.5015
25995NA      NA79289   7.871   2.388   2.680  0.0794 -0.2780  0.0060
25996NA      NA79290   5.054   5.668   1.984 -0.1366  0.1781 -0.0167
25997NA      NA79291   5.646   5.838   2.798  0.0388 -0.2763 -0.2279
25998NA      NA79292   1.217   2.259   9.239  0.2399 -0.0465 -0.4289
25999NA      NA79293   9.256   0.881   5.514 -0.0221 -0.1726  0.1390
26000NA      NA79294   1.585   8.110   5.848 -0.4177  0.0545 -0.0477
26001NA      NA79295   0.380   6.082   7.868 -0.0950  0.2797  0.2534
26002NA      NA79296   7.789   6.830   5.493 -0.9342  0.3779 -0.4330
26003NA      NA79297   8.873   6.176   6.894  0.0263 -0.0291 -0.1708
26004NA      NA79298   3.267   4.670   6.273 -0.4147  0.0571 -0.0850
26005NA      NA79299   6.747   4.384   1.476 -0.1926 -0.0495 -0.2570
26006NA      NA79300   4.709   4.590   6.565 -0.2473 -0.6704  0.0084
26007NA      NA79301   8.467   0.291   7.137  0.0141 -0.0920 -0.3429
26008NA      NA79302   4.901   2.922   0.717 -0.0658 -0.0177  0.2312
26009NA      NA79303   9.213   2.830   4.716  0.2814  0.1018  0.1169
26010NA      NA79304   5.598   4.411   5.266 -0.1427  0.8712 -0.2402
26011CL      CL79305   5.317   8.942   6.647 -0.4951  0.2303  0.1858
26012CL      CL79306   2.881   0.341   0.578 -0.4755  0.0806  0.1353
26013CL      CL79307   7.564   7.346   6.955  0.1679 -0.1439  0.5043
26014CL      CL79308   1.372   1.501   5.935 -0.2439 -0.3231 -0.0610
26015CL      CL79309   3.048   5.293   2.296 -0.0174  0.2509 -0.0313
26016CL      CL79310   1.382   6.911   6.539 -0.2439  0.0414 -0.0306
26017CL      CL79311   2.355   4.356   7.256 -0.1559 -0.1612  0.3607
26018CL      CL79312   0.799   7.816   6.872 -0.1730  0.2220  0.0315
26019CL      CL79313   6.498   9.276   3.391  0.1355 -0.2831 -0.4009
26020CL      CL79314   0.011   8.977   5.378 -0.2250 -0.2933 -0.1489
26021CL      CL79315   3.993   7.256   6.682 -0.3801 -0.3220  0.0754
26022CL      CL79316   3.837   6.113   5.599 -0.0128 -0.3350 -0.1971
26023CL      CL79317   0.330   0.764   5.816 -0.0006 -0.4110 -0.0467
26024CL      CL79318   0.144   6.122   7.809  0.2906 -0.1057  0.1571
26025CL      CL79319   6.266   6.905   4.454  0.0922  0.0555 -0.0877
26026CL      CL79320   5.409   0.999   8.671  0.2703  0.2277  0.3563
26027CL      CL79321   4.274   5.796   6.447  0.1438 -0.1732 -0.3355
26028CL      CL79322   5.515   2.244   2.278 -0.1008  0.1300  0.0522
26029CL      CL79323   3.046   8.645   4.831 -0.4515 -0.0461 -0.1514
26030CL      CL79324   1.726   5.553   7.830  0.1570 -0.0164 -0.0355
26031CL      CL79325   0.456   5.873   5.359  0.0285 -0.1666  0.2496
26032CL      CL79326   0.593   0.094   6.719  0.0060 -0.5653  0.1647
26033CL      CL79327   0.320   1.182   0.556  0.1428 -0.4053  0.2381
26034CL      CL79328   7.922   8.893   0.011 -0.2123 -0.6223  0.5337
26035CL      CL79329   5.434   2.612   7.478 -0.2381  0.0021  0.2896
26036CL      CL79330   2.426   1.149   4.405  0.0494 -0.0016 -0.4530
26037CL      CL79331   7.387   1.174   5.695 -0.1537 -0.1538 -0.4385
26038CL      CL79332   1.077   2.722   6.899 -0.0997  0.1934  0.1164
26039CL      CL79333   3.821   5.806   4.290  0.7189  0.0266  0.4348
26040CL      CL79334   6.825   8.903   4.889  0.1001 -0.2588  0.3986
26041CL      CL79335   1.965   6.871   7.581  0.3043 -0.1527  0.1152
26042CL      CL79336   8.337   3.607   3.240 -0.3391  0.0904 -0.1605
26043CL      CL79337   3.067   1.799   4.625 -0.0421  0.2840 -0.1796
26044CL      CL79338   6.889   1.812   2.701 -0.0760 -0.1843 -0.0387
26045CL      CL79339   5.018   3.125   1.957  0.7238  0.1289  0.4397
26046CL      CL79340   0.159   3.733   4.641 -0.1583 -0.4725  0.0688
26047CL      CL79341   8.998   0.431   5.580 -0.2108 -0.4571 -0.0910
26048CL      CL79342   5.675   4.410   6.201  0.0051  0.2420 -0.1011
26049CL      CL79343   6.143   8.530   0.440  0.1288  0.2556  0.5126
26050CL      CL79344   8.607   2.499   9.260 -0.1754  0.0279  0.3426
26051CL      CL79345   3.200   0.625   3.488 -0.2802  0.3813 -0.6168
26052CL      CL79346   0.122   1.327   2.455 -0.1509 -0.1014 -0.5209
26053CL      CL79347   1.840   0.044   8.870  0.1552  0.1244  0.4384
26054CL      CL79348   7.664   4.513   5.052 -0.2054  0.3504 -0.1256
26055CL      CL79349   0.112   1.712   3.875  0.0569 -0.5216  0.1702
26056CL      CL79350   0.807   5.007   3.100 -0.5112  0.4785 -0.1924
26057CL      CL79351   8.541   7.730   3.240  0.0125 -0.0273 -0.0307
26058CL      CL79352   8.500   0.249   0.863  0.0892  0.2200 -0.2939
26059CL      CL79353   4.724   0.183   2.554 -0.1615 -0.1023 -0.1990
26060CL      CL79354   6.327   0.819   9.005  0.4946  0.2444 -0.3369
26061CL      CL79355   2.418   4.860   7.101  0.2772 -0.1678  0.2964
26062CL      CL79356   5.525   5.416   6.896 -0.1041 -0.1854  0.1800
26063CL      CL79357   7.801   4.540   8.689  0.0222 -0.1400 -0.1621
26064CL      CL79358   7.335   4.920   9.182 -0.1692  0.0890 -0.2648
26065CL      CL79359   1.261   3.592   8.106  0.0980 -0.0407  0.0050
26066CL      CL79360   7.661   2.813   1.671  0.3240 -0.0925 -0.3823
26067CL      CL79361   4.836   8.424   6.123 -0.3341  0.5128  0.0519
26068CL      CL79362   7.739   6.613   3.975 -0.1165  0.0432 -0.5161
26069CL      CL79363   7.021   3.707   1.861  0.2393 -0.1902  0.2622
26070CL      CL79364   0.181   7.384   8.747 -0.1401 -0.3316  0.1138
26071CL      CL79365   2.879   8.906   5.185 -0.0223  0.1599 -0.2764
26072CL      CL79366   2.429   4.921   0.350  0.0194 -0.2207  0.1564
26073CL      CL79367   0.923   2.231   4.292 -0.2717  0.0183 -0.0854
26074CL      CL79368   2.596   9.022   4.766 -0.1079 -0.0583  0.1824
26075CL      CL79369   7.988   0.667   6.565 -0.2112 -0.4228 -0.1401
26076CL      CL79370   7.184   0.266   1.700  0.3088  0.1557 -0.3872
26077CL      CL79371   8.429   7.570   8.508 -0.3432 -0.3023  0.0690
26078CL      CL79372   1.675   1.486   6.632  0.1470 -0.2833 -0.2588
26079CL      CL79373   1.037   5.615   3.723  0.4471  0.1054 -0.4248
26080CL      CL79374   6.515   5.143   3.133 -0.3202  0.2368  0.1374
26081CL      CL79375   6.215   5.469   3.775  0.2771  0.1071  0.2883
26082CL      CL79376   0.618   1.232   0.167 -0.1668  0.1191 -0.1246
26083CL      CL79377   4.720   4.091   5.061  0.0540 -0.2344 -0.4188
26084CL      CL79378   4.487   5.912   8.316 -0.0371 -0.1578  0.0922
   9.27799   9.27799   9.27799
