;
;   File g2npocore_petim.itp  was generated
;   By user: sairam (1000)
;   On host: sairam
;   At date: Thu. August  4 10:55:38 2023
;
;   This is a standalone topology file
;
;   Created by:
;   ParmEd:       amb2gro_top_gro.py, VERSION 3.4.1
;   Executable:   amb2gro_top_gro.py
;   Library dir:  /usr/local/gromacs/share/gromacs/top
;   Command line:
;     ./amb2gro_top_gro.py -p g2npocore_petim.prmtop -c g2npocore_petim.inpcrd -t g2npocore_petim.itp -g g2npocore_petim.gro -b g2npocore_petim.pdb
;

;[ defaults ]
;; nbfunc        comb-rule       gen-pairs       fudgeLJ fudgeQQ
;1               2               yes             0.5          0.83333333  
;
;[ atomtypes ]
;; name    at.num    mass    charge ptype  sigma      epsilon
;os             8  16.000000  0.00000000  A     0.30000123        0.71128
;c3             6  12.010000  0.00000000  A     0.33996695      0.4577296
;h1             1   1.008000  0.00000000  A      0.2471353      0.0656888
;hc             1   1.008000  0.00000000  A     0.26495328      0.0656888
;n3             7  14.010000  0.00000000  A     0.32499985        0.71128
;hn             1   1.008000  0.00000000  A     0.10690785      0.0656888


[ moleculetype ]
; Name            nrexcl
g2npocore_petim       3

[ atoms ]
;   nr       type  resnr residue  atom   cgnr    charge       mass  typeB    chargeB      massB
; residue    1 aaa rtp aaa q -0.0
    1         os      1    aaa     O1      1 -0.43807400  16.000000   ; qtot -0.438074
    2         c3      1    aaa     C1      2 0.04509800  12.010000   ; qtot -0.392976
    3         h1      1    aaa     H1      3 0.04771700   1.008000   ; qtot -0.345259
    4         h1      1    aaa     H2      4 0.04771700   1.008000   ; qtot -0.297542
    5         c3      1    aaa     C2      5 0.04509800  12.010000   ; qtot -0.252444
    6         h1      1    aaa     H3      6 0.04771700   1.008000   ; qtot -0.204727
    7         h1      1    aaa     H4      7 0.04771700   1.008000   ; qtot -0.157010
    8         c3      1    aaa     C3      8 0.05658600  12.010000   ; qtot -0.100424
    9         hc      1    aaa     H5      9 0.04933800   1.008000   ; qtot -0.051086
   10         hc      1    aaa     H6     10 0.04933800   1.008000   ; qtot -0.001748
   11         c3      1    aaa     C4     11 0.05658600  12.010000   ; qtot 0.054838
   12         hc      1    aaa     H7     12 0.04933800   1.008000   ; qtot 0.104176
   13         hc      1    aaa     H8     13 0.04933800   1.008000   ; qtot 0.153514
   14         c3      1    aaa     C5     14 0.00989700  12.010000   ; qtot 0.163411
   15         h1      1    aaa     H9     15 0.04845500   1.008000   ; qtot 0.211866
   16         h1      1    aaa    H10     16 0.04845500   1.008000   ; qtot 0.260321
   17         c3      1    aaa     C6     17 0.00989700  12.010000   ; qtot 0.270218
   18         h1      1    aaa    H11     18 0.04845500   1.008000   ; qtot 0.318673
   19         h1      1    aaa    H12     19 0.04845500   1.008000   ; qtot 0.367128
   20         n3      1    aaa     N1     20 -0.59936800  14.010000   ; qtot -0.232240
   21         n3      1    aaa     N2     21 -0.59936800  14.010000   ; qtot -0.831608
   22         c3      1    aaa     C7     22 0.08030200  12.010000   ; qtot -0.751306
   23         h1      1    aaa    H13     23 0.05071600   1.008000   ; qtot -0.700590
   24         h1      1    aaa    H14     24 0.05071600   1.008000   ; qtot -0.649874
   25         c3      1    aaa     C8     25 0.08030200  12.010000   ; qtot -0.569572
   26         h1      1    aaa    H15     26 0.05071600   1.008000   ; qtot -0.518856
   27         h1      1    aaa    H16     27 0.05071600   1.008000   ; qtot -0.468140
   28         c3      1    aaa     C9     28 0.08030200  12.010000   ; qtot -0.387838
   29         h1      1    aaa    H17     29 0.05071600   1.008000   ; qtot -0.337122
   30         h1      1    aaa    H18     30 0.05071600   1.008000   ; qtot -0.286406
   31         c3      1    aaa    C10     31 0.08030200  12.010000   ; qtot -0.206104
   32         h1      1    aaa    H19     32 0.05071600   1.008000   ; qtot -0.155388
   33         h1      1    aaa    H20     33 0.05071600   1.008000   ; qtot -0.104672
   34         c3      1    aaa    C11     34 0.10287800  12.010000   ; qtot -0.001794
   35         hc      1    aaa    H21     35 0.06787400   1.008000   ; qtot 0.066080
   36         hc      1    aaa    H22     36 0.06787400   1.008000   ; qtot 0.133954
   37         c3      1    aaa    C12     37 0.10287800  12.010000   ; qtot 0.236832
   38         hc      1    aaa    H23     38 0.06787400   1.008000   ; qtot 0.304706
   39         hc      1    aaa    H24     39 0.06787400   1.008000   ; qtot 0.372580
   40         c3      1    aaa    C13     40 0.10287800  12.010000   ; qtot 0.475458
   41         hc      1    aaa    H25     41 0.06787400   1.008000   ; qtot 0.543332
   42         hc      1    aaa    H26     42 0.06787400   1.008000   ; qtot 0.611206
   43         c3      1    aaa    C14     43 0.10287800  12.010000   ; qtot 0.714084
   44         hc      1    aaa    H27     44 0.06787400   1.008000   ; qtot 0.781958
   45         hc      1    aaa    H28     45 0.06787400   1.008000   ; qtot 0.849832
   46         c3      1    aaa    C15     46 -0.72585200  12.010000   ; qtot 0.123980
   47         h1      1    aaa    H29     47 0.25669700   1.008000   ; qtot 0.380677
   48         h1      1    aaa    H30     48 0.25669700   1.008000   ; qtot 0.637374
   49         c3      1    aaa    C16     49 -0.72585200  12.010000   ; qtot -0.088478
   50         h1      1    aaa    H31     50 0.25669700   1.008000   ; qtot 0.168219
   51         h1      1    aaa    H32     51 0.25669700   1.008000   ; qtot 0.424916
   52         c3      1    aaa    C17     52 -0.72585200  12.010000   ; qtot -0.300936
   53         h1      1    aaa    H33     53 0.25669700   1.008000   ; qtot -0.044239
   54         h1      1    aaa    H34     54 0.25669700   1.008000   ; qtot 0.212458
   55         c3      1    aaa    C18     55 -0.72585200  12.010000   ; qtot -0.513394
   56         h1      1    aaa    H35     56 0.25669700   1.008000   ; qtot -0.256697
   57         h1      1    aaa    H36     57 0.25669700   1.008000   ; qtot -0.000000
; residue    2 bbb rtp bbb q -0.0
   58         n3      2    bbb     N1     58 -0.59685800  14.010000   ; qtot -0.596858
   59         c3      2    bbb     C1     59 0.10137000  12.010000   ; qtot -0.495488
   60         h1      2    bbb     H1     60 0.04411300   1.008000   ; qtot -0.451375
   61         h1      2    bbb     H2     61 0.04411300   1.008000   ; qtot -0.407262
   62         c3      2    bbb     C2     62 0.10137000  12.010000   ; qtot -0.305892
   63         h1      2    bbb     H3     63 0.04411300   1.008000   ; qtot -0.261779
   64         h1      2    bbb     H4     64 0.04411300   1.008000   ; qtot -0.217666
   65         c3      2    bbb     C3     65 -0.00195300  12.010000   ; qtot -0.219619
   66         h1      2    bbb     H5     66 0.05064400   1.008000   ; qtot -0.168975
   67         h1      2    bbb     H6     67 0.05064400   1.008000   ; qtot -0.118331
   68         c3      2    bbb     C4     68 -0.01612100  12.010000   ; qtot -0.134452
   69         hc      2    bbb     H7     69 0.04936100   1.008000   ; qtot -0.085091
   70         hc      2    bbb     H8     70 0.04936100   1.008000   ; qtot -0.035730
   71         c3      2    bbb     C5     71 0.11363000  12.010000   ; qtot 0.077900
   72         hc      2    bbb     H9     72 0.06265900   1.008000   ; qtot 0.140559
   73         hc      2    bbb    H10     73 0.06265900   1.008000   ; qtot 0.203218
   74         c3      2    bbb     C6     74 0.11363000  12.010000   ; qtot 0.316848
   75         hc      2    bbb    H11     75 0.06265900   1.008000   ; qtot 0.379507
   76         hc      2    bbb    H12     76 0.06265900   1.008000   ; qtot 0.442166
   77         c3      2    bbb     C7     77 0.05858200  12.010000   ; qtot 0.500748
   78         h1      2    bbb    H13     78 0.06123400   1.008000   ; qtot 0.561982
   79         h1      2    bbb    H14     79 0.06123400   1.008000   ; qtot 0.623216
   80         c3      2    bbb     C8     80 -0.72423400  12.010000   ; qtot -0.101018
   81         h1      2    bbb    H15     81 0.25637600   1.008000   ; qtot 0.155358
   82         h1      2    bbb    H16     82 0.25637600   1.008000   ; qtot 0.411734
   83         c3      2    bbb     C9     83 -0.72423400  12.010000   ; qtot -0.312500
   84         h1      2    bbb    H17     84 0.25637600   1.008000   ; qtot -0.056124
   85         h1      2    bbb    H18     85 0.25637600   1.008000   ; qtot 0.200252
   86         os      2    bbb     O1     86 -0.20025300  16.000000   ; qtot -0.000001
; residue    3 bbb rtp bbb q -0.0
   87         n3      3    bbb     N1     87 -0.59685800  14.010000   ; qtot -0.596859
   88         c3      3    bbb     C1     88 0.10137000  12.010000   ; qtot -0.495489
   89         h1      3    bbb     H1     89 0.04411300   1.008000   ; qtot -0.451376
   90         h1      3    bbb     H2     90 0.04411300   1.008000   ; qtot -0.407263
   91         c3      3    bbb     C2     91 0.10137000  12.010000   ; qtot -0.305893
   92         h1      3    bbb     H3     92 0.04411300   1.008000   ; qtot -0.261780
   93         h1      3    bbb     H4     93 0.04411300   1.008000   ; qtot -0.217667
   94         c3      3    bbb     C3     94 -0.00195300  12.010000   ; qtot -0.219620
   95         h1      3    bbb     H5     95 0.05064400   1.008000   ; qtot -0.168976
   96         h1      3    bbb     H6     96 0.05064400   1.008000   ; qtot -0.118332
   97         c3      3    bbb     C4     97 -0.01612100  12.010000   ; qtot -0.134453
   98         hc      3    bbb     H7     98 0.04936100   1.008000   ; qtot -0.085092
   99         hc      3    bbb     H8     99 0.04936100   1.008000   ; qtot -0.035731
  100         c3      3    bbb     C5    100 0.11363000  12.010000   ; qtot 0.077899
  101         hc      3    bbb     H9    101 0.06265900   1.008000   ; qtot 0.140558
  102         hc      3    bbb    H10    102 0.06265900   1.008000   ; qtot 0.203217
  103         c3      3    bbb     C6    103 0.11363000  12.010000   ; qtot 0.316847
  104         hc      3    bbb    H11    104 0.06265900   1.008000   ; qtot 0.379506
  105         hc      3    bbb    H12    105 0.06265900   1.008000   ; qtot 0.442165
  106         c3      3    bbb     C7    106 0.05858200  12.010000   ; qtot 0.500747
  107         h1      3    bbb    H13    107 0.06123400   1.008000   ; qtot 0.561981
  108         h1      3    bbb    H14    108 0.06123400   1.008000   ; qtot 0.623215
  109         c3      3    bbb     C8    109 -0.72423400  12.010000   ; qtot -0.101019
  110         h1      3    bbb    H15    110 0.25637600   1.008000   ; qtot 0.155357
  111         h1      3    bbb    H16    111 0.25637600   1.008000   ; qtot 0.411733
  112         c3      3    bbb     C9    112 -0.72423400  12.010000   ; qtot -0.312501
  113         h1      3    bbb    H17    113 0.25637600   1.008000   ; qtot -0.056125
  114         h1      3    bbb    H18    114 0.25637600   1.008000   ; qtot 0.200251
  115         os      3    bbb     O1    115 -0.20025300  16.000000   ; qtot -0.000002
; residue    4 bbb rtp bbb q -0.0
  116         n3      4    bbb     N1    116 -0.59685800  14.010000   ; qtot -0.596860
  117         c3      4    bbb     C1    117 0.10137000  12.010000   ; qtot -0.495490
  118         h1      4    bbb     H1    118 0.04411300   1.008000   ; qtot -0.451377
  119         h1      4    bbb     H2    119 0.04411300   1.008000   ; qtot -0.407264
  120         c3      4    bbb     C2    120 0.10137000  12.010000   ; qtot -0.305894
  121         h1      4    bbb     H3    121 0.04411300   1.008000   ; qtot -0.261781
  122         h1      4    bbb     H4    122 0.04411300   1.008000   ; qtot -0.217668
  123         c3      4    bbb     C3    123 -0.00195300  12.010000   ; qtot -0.219621
  124         h1      4    bbb     H5    124 0.05064400   1.008000   ; qtot -0.168977
  125         h1      4    bbb     H6    125 0.05064400   1.008000   ; qtot -0.118333
  126         c3      4    bbb     C4    126 -0.01612100  12.010000   ; qtot -0.134454
  127         hc      4    bbb     H7    127 0.04936100   1.008000   ; qtot -0.085093
  128         hc      4    bbb     H8    128 0.04936100   1.008000   ; qtot -0.035732
  129         c3      4    bbb     C5    129 0.11363000  12.010000   ; qtot 0.077898
  130         hc      4    bbb     H9    130 0.06265900   1.008000   ; qtot 0.140557
  131         hc      4    bbb    H10    131 0.06265900   1.008000   ; qtot 0.203216
  132         c3      4    bbb     C6    132 0.11363000  12.010000   ; qtot 0.316846
  133         hc      4    bbb    H11    133 0.06265900   1.008000   ; qtot 0.379505
  134         hc      4    bbb    H12    134 0.06265900   1.008000   ; qtot 0.442164
  135         c3      4    bbb     C7    135 0.05858200  12.010000   ; qtot 0.500746
  136         h1      4    bbb    H13    136 0.06123400   1.008000   ; qtot 0.561980
  137         h1      4    bbb    H14    137 0.06123400   1.008000   ; qtot 0.623214
  138         c3      4    bbb     C8    138 -0.72423400  12.010000   ; qtot -0.101020
  139         h1      4    bbb    H15    139 0.25637600   1.008000   ; qtot 0.155356
  140         h1      4    bbb    H16    140 0.25637600   1.008000   ; qtot 0.411732
  141         c3      4    bbb     C9    141 -0.72423400  12.010000   ; qtot -0.312502
  142         h1      4    bbb    H17    142 0.25637600   1.008000   ; qtot -0.056126
  143         h1      4    bbb    H18    143 0.25637600   1.008000   ; qtot 0.200250
  144         os      4    bbb     O1    144 -0.20025300  16.000000   ; qtot -0.000003
; residue    5 bbb rtp bbb q -0.0
  145         n3      5    bbb     N1    145 -0.59685800  14.010000   ; qtot -0.596861
  146         c3      5    bbb     C1    146 0.10137000  12.010000   ; qtot -0.495491
  147         h1      5    bbb     H1    147 0.04411300   1.008000   ; qtot -0.451378
  148         h1      5    bbb     H2    148 0.04411300   1.008000   ; qtot -0.407265
  149         c3      5    bbb     C2    149 0.10137000  12.010000   ; qtot -0.305895
  150         h1      5    bbb     H3    150 0.04411300   1.008000   ; qtot -0.261782
  151         h1      5    bbb     H4    151 0.04411300   1.008000   ; qtot -0.217669
  152         c3      5    bbb     C3    152 -0.00195300  12.010000   ; qtot -0.219622
  153         h1      5    bbb     H5    153 0.05064400   1.008000   ; qtot -0.168978
  154         h1      5    bbb     H6    154 0.05064400   1.008000   ; qtot -0.118334
  155         c3      5    bbb     C4    155 -0.01612100  12.010000   ; qtot -0.134455
  156         hc      5    bbb     H7    156 0.04936100   1.008000   ; qtot -0.085094
  157         hc      5    bbb     H8    157 0.04936100   1.008000   ; qtot -0.035733
  158         c3      5    bbb     C5    158 0.11363000  12.010000   ; qtot 0.077897
  159         hc      5    bbb     H9    159 0.06265900   1.008000   ; qtot 0.140556
  160         hc      5    bbb    H10    160 0.06265900   1.008000   ; qtot 0.203215
  161         c3      5    bbb     C6    161 0.11363000  12.010000   ; qtot 0.316845
  162         hc      5    bbb    H11    162 0.06265900   1.008000   ; qtot 0.379504
  163         hc      5    bbb    H12    163 0.06265900   1.008000   ; qtot 0.442163
  164         c3      5    bbb     C7    164 0.05858200  12.010000   ; qtot 0.500745
  165         h1      5    bbb    H13    165 0.06123400   1.008000   ; qtot 0.561979
  166         h1      5    bbb    H14    166 0.06123400   1.008000   ; qtot 0.623213
  167         c3      5    bbb     C8    167 -0.72423400  12.010000   ; qtot -0.101021
  168         h1      5    bbb    H15    168 0.25637600   1.008000   ; qtot 0.155355
  169         h1      5    bbb    H16    169 0.25637600   1.008000   ; qtot 0.411731
  170         c3      5    bbb     C9    170 -0.72423400  12.010000   ; qtot -0.312503
  171         h1      5    bbb    H17    171 0.25637600   1.008000   ; qtot -0.056127
  172         h1      5    bbb    H18    172 0.25637600   1.008000   ; qtot 0.200249
  173         os      5    bbb     O1    173 -0.20025300  16.000000   ; qtot -0.000004
; residue    6 ccc rtp ccc q -0.0
  174         c3      6    ccc     C1    174 0.60214900  12.010000   ; qtot 0.602145
  175         h1      6    ccc     H1    175 -0.09246700   1.008000   ; qtot 0.509678
  176         h1      6    ccc     H2    176 -0.09246700   1.008000   ; qtot 0.417211
  177         c3      6    ccc     C2    177 -0.02543800  12.010000   ; qtot 0.391773
  178         hc      6    ccc     H3    178 0.00853100   1.008000   ; qtot 0.400304
  179         hc      6    ccc     H4    179 0.00853100   1.008000   ; qtot 0.408835
  180         c3      6    ccc     C3    180 -0.04070000  12.010000   ; qtot 0.368135
  181         h1      6    ccc     H5    181 0.04605500   1.008000   ; qtot 0.414190
  182         h1      6    ccc     H6    182 0.04605500   1.008000   ; qtot 0.460245
  183         n3      6    ccc     N1    183 -1.11801800  14.010000   ; qtot -0.657773
  184         hn      6    ccc     H7    184 0.38419200   1.008000   ; qtot -0.273581
  185         hn      6    ccc     H8    185 0.38419200   1.008000   ; qtot 0.110611
  186         os      6    ccc     O1    186 -0.11061500  16.000000   ; qtot -0.000004
; residue    7 ccc rtp ccc q -0.0
  187         c3      7    ccc     C1    187 0.60214900  12.010000   ; qtot 0.602145
  188         h1      7    ccc     H1    188 -0.09246700   1.008000   ; qtot 0.509678
  189         h1      7    ccc     H2    189 -0.09246700   1.008000   ; qtot 0.417211
  190         c3      7    ccc     C2    190 -0.02543800  12.010000   ; qtot 0.391773
  191         hc      7    ccc     H3    191 0.00853100   1.008000   ; qtot 0.400304
  192         hc      7    ccc     H4    192 0.00853100   1.008000   ; qtot 0.408835
  193         c3      7    ccc     C3    193 -0.04070000  12.010000   ; qtot 0.368135
  194         h1      7    ccc     H5    194 0.04605500   1.008000   ; qtot 0.414190
  195         h1      7    ccc     H6    195 0.04605500   1.008000   ; qtot 0.460245
  196         n3      7    ccc     N1    196 -1.11801800  14.010000   ; qtot -0.657773
  197         hn      7    ccc     H7    197 0.38419200   1.008000   ; qtot -0.273581
  198         hn      7    ccc     H8    198 0.38419200   1.008000   ; qtot 0.110611
  199         os      7    ccc     O1    199 -0.11061500  16.000000   ; qtot -0.000004
; residue    8 ccc rtp ccc q -0.0
  200         c3      8    ccc     C1    200 0.60214900  12.010000   ; qtot 0.602145
  201         h1      8    ccc     H1    201 -0.09246700   1.008000   ; qtot 0.509678
  202         h1      8    ccc     H2    202 -0.09246700   1.008000   ; qtot 0.417211
  203         c3      8    ccc     C2    203 -0.02543800  12.010000   ; qtot 0.391773
  204         hc      8    ccc     H3    204 0.00853100   1.008000   ; qtot 0.400304
  205         hc      8    ccc     H4    205 0.00853100   1.008000   ; qtot 0.408835
  206         c3      8    ccc     C3    206 -0.04070000  12.010000   ; qtot 0.368135
  207         h1      8    ccc     H5    207 0.04605500   1.008000   ; qtot 0.414190
  208         h1      8    ccc     H6    208 0.04605500   1.008000   ; qtot 0.460245
  209         n3      8    ccc     N1    209 -1.11801800  14.010000   ; qtot -0.657773
  210         hn      8    ccc     H7    210 0.38419200   1.008000   ; qtot -0.273581
  211         hn      8    ccc     H8    211 0.38419200   1.008000   ; qtot 0.110611
  212         os      8    ccc     O1    212 -0.11061500  16.000000   ; qtot -0.000004
; residue    9 ccc rtp ccc q -0.0
  213         c3      9    ccc     C1    213 0.60214900  12.010000   ; qtot 0.602145
  214         h1      9    ccc     H1    214 -0.09246700   1.008000   ; qtot 0.509678
  215         h1      9    ccc     H2    215 -0.09246700   1.008000   ; qtot 0.417211
  216         c3      9    ccc     C2    216 -0.02543800  12.010000   ; qtot 0.391773
  217         hc      9    ccc     H3    217 0.00853100   1.008000   ; qtot 0.400304
  218         hc      9    ccc     H4    218 0.00853100   1.008000   ; qtot 0.408835
  219         c3      9    ccc     C3    219 -0.04070000  12.010000   ; qtot 0.368135
  220         h1      9    ccc     H5    220 0.04605500   1.008000   ; qtot 0.414190
  221         h1      9    ccc     H6    221 0.04605500   1.008000   ; qtot 0.460245
  222         n3      9    ccc     N1    222 -1.11801800  14.010000   ; qtot -0.657773
  223         hn      9    ccc     H7    223 0.38419200   1.008000   ; qtot -0.273581
  224         hn      9    ccc     H8    224 0.38419200   1.008000   ; qtot 0.110611
  225         os      9    ccc     O1    225 -0.11061500  16.000000   ; qtot -0.000004
; residue   10 ccc rtp ccc q -0.0
  226         c3     10    ccc     C1    226 0.60214900  12.010000   ; qtot 0.602145
  227         h1     10    ccc     H1    227 -0.09246700   1.008000   ; qtot 0.509678
  228         h1     10    ccc     H2    228 -0.09246700   1.008000   ; qtot 0.417211
  229         c3     10    ccc     C2    229 -0.02543800  12.010000   ; qtot 0.391773
  230         hc     10    ccc     H3    230 0.00853100   1.008000   ; qtot 0.400304
  231         hc     10    ccc     H4    231 0.00853100   1.008000   ; qtot 0.408835
  232         c3     10    ccc     C3    232 -0.04070000  12.010000   ; qtot 0.368135
  233         h1     10    ccc     H5    233 0.04605500   1.008000   ; qtot 0.414190
  234         h1     10    ccc     H6    234 0.04605500   1.008000   ; qtot 0.460245
  235         n3     10    ccc     N1    235 -1.11801800  14.010000   ; qtot -0.657773
  236         hn     10    ccc     H7    236 0.38419200   1.008000   ; qtot -0.273581
  237         hn     10    ccc     H8    237 0.38419200   1.008000   ; qtot 0.110611
  238         os     10    ccc     O1    238 -0.11061500  16.000000   ; qtot -0.000004
; residue   11 ccc rtp ccc q -0.0
  239         c3     11    ccc     C1    239 0.60214900  12.010000   ; qtot 0.602145
  240         h1     11    ccc     H1    240 -0.09246700   1.008000   ; qtot 0.509678
  241         h1     11    ccc     H2    241 -0.09246700   1.008000   ; qtot 0.417211
  242         c3     11    ccc     C2    242 -0.02543800  12.010000   ; qtot 0.391773
  243         hc     11    ccc     H3    243 0.00853100   1.008000   ; qtot 0.400304
  244         hc     11    ccc     H4    244 0.00853100   1.008000   ; qtot 0.408835
  245         c3     11    ccc     C3    245 -0.04070000  12.010000   ; qtot 0.368135
  246         h1     11    ccc     H5    246 0.04605500   1.008000   ; qtot 0.414190
  247         h1     11    ccc     H6    247 0.04605500   1.008000   ; qtot 0.460245
  248         n3     11    ccc     N1    248 -1.11801800  14.010000   ; qtot -0.657773
  249         hn     11    ccc     H7    249 0.38419200   1.008000   ; qtot -0.273581
  250         hn     11    ccc     H8    250 0.38419200   1.008000   ; qtot 0.110611
  251         os     11    ccc     O1    251 -0.11061500  16.000000   ; qtot -0.000004
; residue   12 ccc rtp ccc q -0.0
  252         c3     12    ccc     C1    252 0.60214900  12.010000   ; qtot 0.602145
  253         h1     12    ccc     H1    253 -0.09246700   1.008000   ; qtot 0.509678
  254         h1     12    ccc     H2    254 -0.09246700   1.008000   ; qtot 0.417211
  255         c3     12    ccc     C2    255 -0.02543800  12.010000   ; qtot 0.391773
  256         hc     12    ccc     H3    256 0.00853100   1.008000   ; qtot 0.400304
  257         hc     12    ccc     H4    257 0.00853100   1.008000   ; qtot 0.408835
  258         c3     12    ccc     C3    258 -0.04070000  12.010000   ; qtot 0.368135
  259         h1     12    ccc     H5    259 0.04605500   1.008000   ; qtot 0.414190
  260         h1     12    ccc     H6    260 0.04605500   1.008000   ; qtot 0.460245
  261         n3     12    ccc     N1    261 -1.11801800  14.010000   ; qtot -0.657773
  262         hn     12    ccc     H7    262 0.38419200   1.008000   ; qtot -0.273581
  263         hn     12    ccc     H8    263 0.38419200   1.008000   ; qtot 0.110611
  264         os     12    ccc     O1    264 -0.11061500  16.000000   ; qtot -0.000004
; residue   13 ccc rtp ccc q -0.0
  265         c3     13    ccc     C1    265 0.60214900  12.010000   ; qtot 0.602145
  266         h1     13    ccc     H1    266 -0.09246700   1.008000   ; qtot 0.509678
  267         h1     13    ccc     H2    267 -0.09246700   1.008000   ; qtot 0.417211
  268         c3     13    ccc     C2    268 -0.02543800  12.010000   ; qtot 0.391773
  269         hc     13    ccc     H3    269 0.00853100   1.008000   ; qtot 0.400304
  270         hc     13    ccc     H4    270 0.00853100   1.008000   ; qtot 0.408835
  271         c3     13    ccc     C3    271 -0.04070000  12.010000   ; qtot 0.368135
  272         h1     13    ccc     H5    272 0.04605500   1.008000   ; qtot 0.414190
  273         h1     13    ccc     H6    273 0.04605500   1.008000   ; qtot 0.460245
  274         n3     13    ccc     N1    274 -1.11801800  14.010000   ; qtot -0.657773
  275         hn     13    ccc     H7    275 0.38419200   1.008000   ; qtot -0.273581
  276         hn     13    ccc     H8    276 0.38419200   1.008000   ; qtot 0.110611
  277         os     13    ccc     O1    277 -0.11061500  16.000000   ; qtot -0.000004

[ bonds ]
;    ai     aj funct         c0         c1         c2         c3
      1      2     1   0.14316 258236.480000
      1      5     1   0.14316 258236.480000
      2      8     1   0.15375 251793.120000
      5     11     1   0.15375 251793.120000
      8     14     1   0.15375 251793.120000
     11     17     1   0.15375 251793.120000
     14     20     1   0.14647 272713.120000
     17     21     1   0.14647 272713.120000
     20     28     1   0.14647 272713.120000
     20     31     1   0.14647 272713.120000
     21     22     1   0.14647 272713.120000
     21     25     1   0.14647 272713.120000
     22     34     1   0.15375 251793.120000
     25     37     1   0.15375 251793.120000
     28     40     1   0.15375 251793.120000
     31     43     1   0.15375 251793.120000
     34     55     1   0.15375 251793.120000
     37     52     1   0.15375 251793.120000
     40     49     1   0.15375 251793.120000
     43     46     1   0.15375 251793.120000
     46     86     1   0.14316 258236.480000
     49    115     1   0.14316 258236.480000
     52    144     1   0.14316 258236.480000
     55    173     1   0.14316 258236.480000
     58     59     1   0.14647 272713.120000
     58     62     1   0.14647 272713.120000
     58     65     1   0.14647 272713.120000
     59     71     1   0.15375 251793.120000
     62     74     1   0.15375 251793.120000
     65     68     1   0.15375 251793.120000
     68     77     1   0.15375 251793.120000
     71     83     1   0.15375 251793.120000
     74     80     1   0.15375 251793.120000
     77     86     1   0.14316 258236.480000
     80    186     1   0.14316 258236.480000
     83    199     1   0.14316 258236.480000
     87     88     1   0.14647 272713.120000
     87     91     1   0.14647 272713.120000
     87     94     1   0.14647 272713.120000
     88    100     1   0.15375 251793.120000
     91    103     1   0.15375 251793.120000
     94     97     1   0.15375 251793.120000
     97    106     1   0.15375 251793.120000
    100    112     1   0.15375 251793.120000
    103    109     1   0.15375 251793.120000
    106    115     1   0.14316 258236.480000
    109    212     1   0.14316 258236.480000
    112    225     1   0.14316 258236.480000
    116    117     1   0.14647 272713.120000
    116    120     1   0.14647 272713.120000
    116    123     1   0.14647 272713.120000
    117    129     1   0.15375 251793.120000
    120    132     1   0.15375 251793.120000
    123    126     1   0.15375 251793.120000
    126    135     1   0.15375 251793.120000
    129    141     1   0.15375 251793.120000
    132    138     1   0.15375 251793.120000
    135    144     1   0.14316 258236.480000
    138    238     1   0.14316 258236.480000
    141    251     1   0.14316 258236.480000
    145    146     1   0.14647 272713.120000
    145    149     1   0.14647 272713.120000
    145    152     1   0.14647 272713.120000
    146    158     1   0.15375 251793.120000
    149    161     1   0.15375 251793.120000
    152    155     1   0.15375 251793.120000
    155    164     1   0.15375 251793.120000
    158    170     1   0.15375 251793.120000
    161    167     1   0.15375 251793.120000
    164    173     1   0.14316 258236.480000
    167    264     1   0.14316 258236.480000
    170    277     1   0.14316 258236.480000
    174    177     1   0.15375 251793.120000
    174    183     1   0.14647 272713.120000
    177    180     1   0.15375 251793.120000
    180    186     1   0.14316 258236.480000
    187    190     1   0.15375 251793.120000
    187    196     1   0.14647 272713.120000
    190    193     1   0.15375 251793.120000
    193    199     1   0.14316 258236.480000
    200    203     1   0.15375 251793.120000
    200    209     1   0.14647 272713.120000
    203    206     1   0.15375 251793.120000
    206    212     1   0.14316 258236.480000
    213    216     1   0.15375 251793.120000
    213    222     1   0.14647 272713.120000
    216    219     1   0.15375 251793.120000
    219    225     1   0.14316 258236.480000
    226    229     1   0.15375 251793.120000
    226    235     1   0.14647 272713.120000
    229    232     1   0.15375 251793.120000
    232    238     1   0.14316 258236.480000
    239    242     1   0.15375 251793.120000
    239    248     1   0.14647 272713.120000
    242    245     1   0.15375 251793.120000
    245    251     1   0.14316 258236.480000
    252    255     1   0.15375 251793.120000
    252    261     1   0.14647 272713.120000
    255    258     1   0.15375 251793.120000
    258    264     1   0.14316 258236.480000
    265    268     1   0.15375 251793.120000
    265    274     1   0.14647 272713.120000
    268    271     1   0.15375 251793.120000
    271    277     1   0.14316 258236.480000
      2      3     1   0.10969 276646.080000
      2      4     1   0.10969 276646.080000
      5      6     1   0.10969 276646.080000
      5      7     1   0.10969 276646.080000
      8      9     1   0.10969 276646.080000
      8     10     1   0.10969 276646.080000
     11     12     1   0.10969 276646.080000
     11     13     1   0.10969 276646.080000
     14     15     1   0.10969 276646.080000
     14     16     1   0.10969 276646.080000
     17     18     1   0.10969 276646.080000
     17     19     1   0.10969 276646.080000
     22     23     1   0.10969 276646.080000
     22     24     1   0.10969 276646.080000
     25     26     1   0.10969 276646.080000
     25     27     1   0.10969 276646.080000
     28     29     1   0.10969 276646.080000
     28     30     1   0.10969 276646.080000
     31     32     1   0.10969 276646.080000
     31     33     1   0.10969 276646.080000
     34     35     1   0.10969 276646.080000
     34     36     1   0.10969 276646.080000
     37     38     1   0.10969 276646.080000
     37     39     1   0.10969 276646.080000
     40     41     1   0.10969 276646.080000
     40     42     1   0.10969 276646.080000
     43     44     1   0.10969 276646.080000
     43     45     1   0.10969 276646.080000
     46     47     1   0.10969 276646.080000
     46     48     1   0.10969 276646.080000
     49     50     1   0.10969 276646.080000
     49     51     1   0.10969 276646.080000
     52     53     1   0.10969 276646.080000
     52     54     1   0.10969 276646.080000
     55     56     1   0.10969 276646.080000
     55     57     1   0.10969 276646.080000
     59     60     1   0.10969 276646.080000
     59     61     1   0.10969 276646.080000
     62     63     1   0.10969 276646.080000
     62     64     1   0.10969 276646.080000
     65     66     1   0.10969 276646.080000
     65     67     1   0.10969 276646.080000
     68     69     1   0.10969 276646.080000
     68     70     1   0.10969 276646.080000
     71     72     1   0.10969 276646.080000
     71     73     1   0.10969 276646.080000
     74     75     1   0.10969 276646.080000
     74     76     1   0.10969 276646.080000
     77     78     1   0.10969 276646.080000
     77     79     1   0.10969 276646.080000
     80     81     1   0.10969 276646.080000
     80     82     1   0.10969 276646.080000
     83     84     1   0.10969 276646.080000
     83     85     1   0.10969 276646.080000
     88     89     1   0.10969 276646.080000
     88     90     1   0.10969 276646.080000
     91     92     1   0.10969 276646.080000
     91     93     1   0.10969 276646.080000
     94     95     1   0.10969 276646.080000
     94     96     1   0.10969 276646.080000
     97     98     1   0.10969 276646.080000
     97     99     1   0.10969 276646.080000
    100    101     1   0.10969 276646.080000
    100    102     1   0.10969 276646.080000
    103    104     1   0.10969 276646.080000
    103    105     1   0.10969 276646.080000
    106    107     1   0.10969 276646.080000
    106    108     1   0.10969 276646.080000
    109    110     1   0.10969 276646.080000
    109    111     1   0.10969 276646.080000
    112    113     1   0.10969 276646.080000
    112    114     1   0.10969 276646.080000
    117    118     1   0.10969 276646.080000
    117    119     1   0.10969 276646.080000
    120    121     1   0.10969 276646.080000
    120    122     1   0.10969 276646.080000
    123    124     1   0.10969 276646.080000
    123    125     1   0.10969 276646.080000
    126    127     1   0.10969 276646.080000
    126    128     1   0.10969 276646.080000
    129    130     1   0.10969 276646.080000
    129    131     1   0.10969 276646.080000
    132    133     1   0.10969 276646.080000
    132    134     1   0.10969 276646.080000
    135    136     1   0.10969 276646.080000
    135    137     1   0.10969 276646.080000
    138    139     1   0.10969 276646.080000
    138    140     1   0.10969 276646.080000
    141    142     1   0.10969 276646.080000
    141    143     1   0.10969 276646.080000
    146    147     1   0.10969 276646.080000
    146    148     1   0.10969 276646.080000
    149    150     1   0.10969 276646.080000
    149    151     1   0.10969 276646.080000
    152    153     1   0.10969 276646.080000
    152    154     1   0.10969 276646.080000
    155    156     1   0.10969 276646.080000
    155    157     1   0.10969 276646.080000
    158    159     1   0.10969 276646.080000
    158    160     1   0.10969 276646.080000
    161    162     1   0.10969 276646.080000
    161    163     1   0.10969 276646.080000
    164    165     1   0.10969 276646.080000
    164    166     1   0.10969 276646.080000
    167    168     1   0.10969 276646.080000
    167    169     1   0.10969 276646.080000
    170    171     1   0.10969 276646.080000
    170    172     1   0.10969 276646.080000
    174    175     1   0.10969 276646.080000
    174    176     1   0.10969 276646.080000
    177    178     1   0.10969 276646.080000
    177    179     1   0.10969 276646.080000
    180    181     1   0.10969 276646.080000
    180    182     1   0.10969 276646.080000
    183    184     1   0.10190 328360.320000
    183    185     1   0.10190 328360.320000
    187    188     1   0.10969 276646.080000
    187    189     1   0.10969 276646.080000
    190    191     1   0.10969 276646.080000
    190    192     1   0.10969 276646.080000
    193    194     1   0.10969 276646.080000
    193    195     1   0.10969 276646.080000
    196    197     1   0.10190 328360.320000
    196    198     1   0.10190 328360.320000
    200    201     1   0.10969 276646.080000
    200    202     1   0.10969 276646.080000
    203    204     1   0.10969 276646.080000
    203    205     1   0.10969 276646.080000
    206    207     1   0.10969 276646.080000
    206    208     1   0.10969 276646.080000
    209    210     1   0.10190 328360.320000
    209    211     1   0.10190 328360.320000
    213    214     1   0.10969 276646.080000
    213    215     1   0.10969 276646.080000
    216    217     1   0.10969 276646.080000
    216    218     1   0.10969 276646.080000
    219    220     1   0.10969 276646.080000
    219    221     1   0.10969 276646.080000
    222    223     1   0.10190 328360.320000
    222    224     1   0.10190 328360.320000
    226    227     1   0.10969 276646.080000
    226    228     1   0.10969 276646.080000
    229    230     1   0.10969 276646.080000
    229    231     1   0.10969 276646.080000
    232    233     1   0.10969 276646.080000
    232    234     1   0.10969 276646.080000
    235    236     1   0.10190 328360.320000
    235    237     1   0.10190 328360.320000
    239    240     1   0.10969 276646.080000
    239    241     1   0.10969 276646.080000
    242    243     1   0.10969 276646.080000
    242    244     1   0.10969 276646.080000
    245    246     1   0.10969 276646.080000
    245    247     1   0.10969 276646.080000
    248    249     1   0.10190 328360.320000
    248    250     1   0.10190 328360.320000
    252    253     1   0.10969 276646.080000
    252    254     1   0.10969 276646.080000
    255    256     1   0.10969 276646.080000
    255    257     1   0.10969 276646.080000
    258    259     1   0.10969 276646.080000
    258    260     1   0.10969 276646.080000
    261    262     1   0.10190 328360.320000
    261    263     1   0.10190 328360.320000
    265    266     1   0.10969 276646.080000
    265    267     1   0.10969 276646.080000
    268    269     1   0.10969 276646.080000
    268    270     1   0.10969 276646.080000
    271    272     1   0.10969 276646.080000
    271    273     1   0.10969 276646.080000
    274    275     1   0.10190 328360.320000
    274    276     1   0.10190 328360.320000

[ pairs ]
;    ai     aj funct         c0         c1         c2         c3
      1     14     1
      1     17     1
      2     11     1
      2     20     1
      5      8     1
      5     21     1
      8     28     1
      8     31     1
     11     22     1
     11     25     1
     14     40     1
     14     43     1
     17     34     1
     17     37     1
     20     49     1
     20     46     1
     21     55     1
     21     52     1
     22     37     1
     22    173     1
     25     34     1
     25    144     1
     28     43     1
     28    115     1
     31     40     1
     31     86     1
     34    164     1
     37    135     1
     40    106     1
     43     77     1
     46     68     1
     49     97     1
     52    126     1
     55    155     1
     58     83     1
     58     80     1
     58     77     1
     59     74     1
     59     68     1
     59    199     1
     62     71     1
     62     68     1
     62    186     1
     65     71     1
     65     74     1
     65     86     1
     71    193     1
     74    180     1
     80    177     1
     83    190     1
     87    112     1
     87    109     1
     87    106     1
     88    103     1
     88     97     1
     88    225     1
     91    100     1
     91     97     1
     91    212     1
     94    100     1
     94    103     1
     94    115     1
    100    219     1
    103    206     1
    109    203     1
    112    216     1
    116    141     1
    116    138     1
    116    135     1
    117    132     1
    117    126     1
    117    251     1
    120    129     1
    120    126     1
    120    238     1
    123    129     1
    123    132     1
    123    144     1
    129    245     1
    132    232     1
    138    229     1
    141    242     1
    145    170     1
    145    167     1
    145    164     1
    146    161     1
    146    155     1
    146    277     1
    149    158     1
    149    155     1
    149    264     1
    152    158     1
    152    161     1
    152    173     1
    158    271     1
    161    258     1
    167    255     1
    170    268     1
    174    186     1
    180    183     1
    187    199     1
    193    196     1
    200    212     1
    206    209     1
    213    225     1
    219    222     1
    226    238     1
    232    235     1
    239    251     1
    245    248     1
    252    264     1
    258    261     1
    265    277     1
    271    274     1
      1      9     1
      1     10     1
      1     12     1
      1     13     1
      2      6     1
      2      7     1
      2     15     1
      2     16     1
      5      3     1
      3     14     1
      3      9     1
      3     10     1
      5      4     1
      4     14     1
      4      9     1
      4     10     1
      5     18     1
      5     19     1
      6     17     1
      6     12     1
      6     13     1
      7     17     1
      7     12     1
      7     13     1
      9     20     1
      9     15     1
      9     16     1
     10     20     1
     10     15     1
     10     16     1
     12     21     1
     12     18     1
     12     19     1
     13     21     1
     13     18     1
     13     19     1
     14     29     1
     14     30     1
     14     32     1
     14     33     1
     15     28     1
     15     31     1
     16     28     1
     16     31     1
     17     23     1
     17     24     1
     17     26     1
     17     27     1
     18     22     1
     18     25     1
     19     22     1
     19     25     1
     20     41     1
     20     42     1
     20     44     1
     20     45     1
     21     35     1
     21     36     1
     21     38     1
     21     39     1
     22     26     1
     22     27     1
     22     56     1
     22     57     1
     23     25     1
     23     55     1
     23     35     1
     23     36     1
     24     25     1
     24     55     1
     24     35     1
     24     36     1
     25     53     1
     25     54     1
     26     52     1
     26     38     1
     26     39     1
     27     52     1
     27     38     1
     27     39     1
     28     32     1
     28     33     1
     28     50     1
     28     51     1
     29     31     1
     29     49     1
     29     41     1
     29     42     1
     30     31     1
     30     49     1
     30     41     1
     30     42     1
     31     47     1
     31     48     1
     32     46     1
     32     44     1
     32     45     1
     33     46     1
     33     44     1
     33     45     1
     35    173     1
     35     56     1
     35     57     1
     36    173     1
     36     56     1
     36     57     1
     38    144     1
     38     53     1
     38     54     1
     39    144     1
     39     53     1
     39     54     1
     41    115     1
     41     50     1
     41     51     1
     42    115     1
     42     50     1
     42     51     1
     44     86     1
     44     47     1
     44     48     1
     45     86     1
     45     47     1
     45     48     1
     46     78     1
     46     79     1
     47     77     1
     48     77     1
     49    107     1
     49    108     1
     50    106     1
     51    106     1
     52    136     1
     52    137     1
     53    135     1
     54    135     1
     55    165     1
     55    166     1
     56    164     1
     57    164     1
     58     72     1
     58     73     1
     58     75     1
     58     76     1
     58     69     1
     58     70     1
     59     63     1
     59     64     1
     59     66     1
     59     67     1
     59     84     1
     59     85     1
     60     62     1
     60     65     1
     60     83     1
     60     72     1
     60     73     1
     61     62     1
     61     65     1
     61     83     1
     61     72     1
     61     73     1
     62     66     1
     62     67     1
     62     81     1
     62     82     1
     63     65     1
     63     80     1
     63     75     1
     63     76     1
     64     65     1
     64     80     1
     64     75     1
     64     76     1
     65     78     1
     65     79     1
     66     77     1
     66     69     1
     66     70     1
     67     77     1
     67     69     1
     67     70     1
     69     86     1
     69     78     1
     69     79     1
     70     86     1
     70     78     1
     70     79     1
     72    199     1
     72     84     1
     72     85     1
     73    199     1
     73     84     1
     73     85     1
     75    186     1
     75     81     1
     75     82     1
     76    186     1
     76     81     1
     76     82     1
     80    181     1
     80    182     1
     81    180     1
     82    180     1
     83    194     1
     83    195     1
     84    193     1
     85    193     1
     87    101     1
     87    102     1
     87    104     1
     87    105     1
     87     98     1
     87     99     1
     88     92     1
     88     93     1
     88     95     1
     88     96     1
     88    113     1
     88    114     1
     89     91     1
     89     94     1
     89    112     1
     89    101     1
     89    102     1
     90     91     1
     90     94     1
     90    112     1
     90    101     1
     90    102     1
     91     95     1
     91     96     1
     91    110     1
     91    111     1
     92     94     1
     92    109     1
     92    104     1
     92    105     1
     93     94     1
     93    109     1
     93    104     1
     93    105     1
     94    107     1
     94    108     1
     95    106     1
     95     98     1
     95     99     1
     96    106     1
     96     98     1
     96     99     1
     98    115     1
     98    107     1
     98    108     1
     99    115     1
     99    107     1
     99    108     1
    101    225     1
    101    113     1
    101    114     1
    102    225     1
    102    113     1
    102    114     1
    104    212     1
    104    110     1
    104    111     1
    105    212     1
    105    110     1
    105    111     1
    109    207     1
    109    208     1
    110    206     1
    111    206     1
    112    220     1
    112    221     1
    113    219     1
    114    219     1
    116    130     1
    116    131     1
    116    133     1
    116    134     1
    116    127     1
    116    128     1
    117    121     1
    117    122     1
    117    124     1
    117    125     1
    117    142     1
    117    143     1
    118    120     1
    118    123     1
    118    141     1
    118    130     1
    118    131     1
    119    120     1
    119    123     1
    119    141     1
    119    130     1
    119    131     1
    120    124     1
    120    125     1
    120    139     1
    120    140     1
    121    123     1
    121    138     1
    121    133     1
    121    134     1
    122    123     1
    122    138     1
    122    133     1
    122    134     1
    123    136     1
    123    137     1
    124    135     1
    124    127     1
    124    128     1
    125    135     1
    125    127     1
    125    128     1
    127    144     1
    127    136     1
    127    137     1
    128    144     1
    128    136     1
    128    137     1
    130    251     1
    130    142     1
    130    143     1
    131    251     1
    131    142     1
    131    143     1
    133    238     1
    133    139     1
    133    140     1
    134    238     1
    134    139     1
    134    140     1
    138    233     1
    138    234     1
    139    232     1
    140    232     1
    141    246     1
    141    247     1
    142    245     1
    143    245     1
    145    159     1
    145    160     1
    145    162     1
    145    163     1
    145    156     1
    145    157     1
    146    150     1
    146    151     1
    146    153     1
    146    154     1
    146    171     1
    146    172     1
    147    149     1
    147    152     1
    147    170     1
    147    159     1
    147    160     1
    148    149     1
    148    152     1
    148    170     1
    148    159     1
    148    160     1
    149    153     1
    149    154     1
    149    168     1
    149    169     1
    150    152     1
    150    167     1
    150    162     1
    150    163     1
    151    152     1
    151    167     1
    151    162     1
    151    163     1
    152    165     1
    152    166     1
    153    164     1
    153    156     1
    153    157     1
    154    164     1
    154    156     1
    154    157     1
    156    173     1
    156    165     1
    156    166     1
    157    173     1
    157    165     1
    157    166     1
    159    277     1
    159    171     1
    159    172     1
    160    277     1
    160    171     1
    160    172     1
    162    264     1
    162    168     1
    162    169     1
    163    264     1
    163    168     1
    163    169     1
    167    259     1
    167    260     1
    168    258     1
    169    258     1
    170    272     1
    170    273     1
    171    271     1
    172    271     1
    174    181     1
    174    182     1
    175    180     1
    175    178     1
    175    179     1
    175    184     1
    175    185     1
    176    180     1
    176    178     1
    176    179     1
    176    184     1
    176    185     1
    177    184     1
    177    185     1
    178    183     1
    178    186     1
    178    181     1
    178    182     1
    179    183     1
    179    186     1
    179    181     1
    179    182     1
    187    194     1
    187    195     1
    188    193     1
    188    191     1
    188    192     1
    188    197     1
    188    198     1
    189    193     1
    189    191     1
    189    192     1
    189    197     1
    189    198     1
    190    197     1
    190    198     1
    191    199     1
    191    194     1
    191    195     1
    191    196     1
    192    199     1
    192    194     1
    192    195     1
    192    196     1
    200    207     1
    200    208     1
    201    206     1
    201    204     1
    201    205     1
    201    210     1
    201    211     1
    202    206     1
    202    204     1
    202    205     1
    202    210     1
    202    211     1
    203    210     1
    203    211     1
    204    209     1
    204    212     1
    204    207     1
    204    208     1
    205    209     1
    205    212     1
    205    207     1
    205    208     1
    213    220     1
    213    221     1
    214    219     1
    214    217     1
    214    218     1
    214    223     1
    214    224     1
    215    219     1
    215    217     1
    215    218     1
    215    223     1
    215    224     1
    216    223     1
    216    224     1
    217    225     1
    217    220     1
    217    221     1
    217    222     1
    218    225     1
    218    220     1
    218    221     1
    218    222     1
    226    233     1
    226    234     1
    227    232     1
    227    230     1
    227    231     1
    227    236     1
    227    237     1
    228    232     1
    228    230     1
    228    231     1
    228    236     1
    228    237     1
    229    236     1
    229    237     1
    230    235     1
    230    238     1
    230    233     1
    230    234     1
    231    235     1
    231    238     1
    231    233     1
    231    234     1
    239    246     1
    239    247     1
    240    245     1
    240    243     1
    240    244     1
    240    249     1
    240    250     1
    241    245     1
    241    243     1
    241    244     1
    241    249     1
    241    250     1
    242    249     1
    242    250     1
    243    251     1
    243    246     1
    243    247     1
    243    248     1
    244    251     1
    244    246     1
    244    247     1
    244    248     1
    252    259     1
    252    260     1
    253    258     1
    253    256     1
    253    257     1
    253    262     1
    253    263     1
    254    258     1
    254    256     1
    254    257     1
    254    262     1
    254    263     1
    255    262     1
    255    263     1
    256    261     1
    256    264     1
    256    259     1
    256    260     1
    257    261     1
    257    264     1
    257    259     1
    257    260     1
    265    272     1
    265    273     1
    266    271     1
    266    269     1
    266    270     1
    266    275     1
    266    276     1
    267    271     1
    267    269     1
    267    270     1
    267    275     1
    267    276     1
    268    275     1
    268    276     1
    269    277     1
    269    272     1
    269    273     1
    269    274     1
    270    277     1
    270    272     1
    270    273     1
    270    274     1

[ angles ]
;    ai     aj     ak funct         c0         c1         c2         c3
      1      2      8     1   107.9700462 569.024000
      1      5     11     1   107.9700462 569.024000
      2      1      5     1   112.4800480 524.673600
      2      8     14     1   111.5100476 526.347200
      5     11     17     1   111.5100476 526.347200
      8     14     20     1   111.0400475 552.288000
     11     17     21     1   111.0400475 552.288000
     14     20     28     1   112.3500484 533.878400
     14     20     31     1   112.3500484 533.878400
     17     21     22     1   112.3500484 533.878400
     17     21     25     1   112.3500484 533.878400
     20     28     40     1   111.0400475 552.288000
     20     31     43     1   111.0400475 552.288000
     21     22     34     1   111.0400475 552.288000
     21     25     37     1   111.0400475 552.288000
     22     21     25     1   112.3500484 533.878400
     22     34     55     1   111.5100476 526.347200
     25     37     52     1   111.5100476 526.347200
     28     20     31     1   112.3500484 533.878400
     28     40     49     1   111.5100476 526.347200
     31     43     46     1   111.5100476 526.347200
     34     55    173     1   107.9700462 569.024000
     37     52    144     1   107.9700462 569.024000
     40     49    115     1   107.9700462 569.024000
     43     46     86     1   107.9700462 569.024000
     46     86     77     1   112.4800480 524.673600
     49    115    106     1   112.4800480 524.673600
     52    144    135     1   112.4800480 524.673600
     55    173    164     1   112.4800480 524.673600
     58     59     71     1   111.0400475 552.288000
     58     62     74     1   111.0400475 552.288000
     58     65     68     1   111.0400475 552.288000
     59     58     62     1   112.3500484 533.878400
     59     58     65     1   112.3500484 533.878400
     59     71     83     1   111.5100476 526.347200
     62     58     65     1   112.3500484 533.878400
     62     74     80     1   111.5100476 526.347200
     65     68     77     1   111.5100476 526.347200
     68     77     86     1   107.9700462 569.024000
     71     83    199     1   107.9700462 569.024000
     74     80    186     1   107.9700462 569.024000
     80    186    180     1   112.4800480 524.673600
     83    199    193     1   112.4800480 524.673600
     87     88    100     1   111.0400475 552.288000
     87     91    103     1   111.0400475 552.288000
     87     94     97     1   111.0400475 552.288000
     88     87     91     1   112.3500484 533.878400
     88     87     94     1   112.3500484 533.878400
     88    100    112     1   111.5100476 526.347200
     91     87     94     1   112.3500484 533.878400
     91    103    109     1   111.5100476 526.347200
     94     97    106     1   111.5100476 526.347200
     97    106    115     1   107.9700462 569.024000
    100    112    225     1   107.9700462 569.024000
    103    109    212     1   107.9700462 569.024000
    109    212    206     1   112.4800480 524.673600
    112    225    219     1   112.4800480 524.673600
    116    117    129     1   111.0400475 552.288000
    116    120    132     1   111.0400475 552.288000
    116    123    126     1   111.0400475 552.288000
    117    116    120     1   112.3500484 533.878400
    117    116    123     1   112.3500484 533.878400
    117    129    141     1   111.5100476 526.347200
    120    116    123     1   112.3500484 533.878400
    120    132    138     1   111.5100476 526.347200
    123    126    135     1   111.5100476 526.347200
    126    135    144     1   107.9700462 569.024000
    129    141    251     1   107.9700462 569.024000
    132    138    238     1   107.9700462 569.024000
    138    238    232     1   112.4800480 524.673600
    141    251    245     1   112.4800480 524.673600
    145    146    158     1   111.0400475 552.288000
    145    149    161     1   111.0400475 552.288000
    145    152    155     1   111.0400475 552.288000
    146    145    149     1   112.3500484 533.878400
    146    145    152     1   112.3500484 533.878400
    146    158    170     1   111.5100476 526.347200
    149    145    152     1   112.3500484 533.878400
    149    161    167     1   111.5100476 526.347200
    152    155    164     1   111.5100476 526.347200
    155    164    173     1   107.9700462 569.024000
    158    170    277     1   107.9700462 569.024000
    161    167    264     1   107.9700462 569.024000
    167    264    258     1   112.4800480 524.673600
    170    277    271     1   112.4800480 524.673600
    174    177    180     1   111.5100476 526.347200
    177    174    183     1   111.0400475 552.288000
    177    180    186     1   107.9700462 569.024000
    187    190    193     1   111.5100476 526.347200
    190    193    199     1   107.9700462 569.024000
    190    187    196     1   111.0400475 552.288000
    200    203    206     1   111.5100476 526.347200
    203    200    209     1   111.0400475 552.288000
    203    206    212     1   107.9700462 569.024000
    213    216    219     1   111.5100476 526.347200
    216    219    225     1   107.9700462 569.024000
    216    213    222     1   111.0400475 552.288000
    226    229    232     1   111.5100476 526.347200
    229    226    235     1   111.0400475 552.288000
    229    232    238     1   107.9700462 569.024000
    239    242    245     1   111.5100476 526.347200
    242    245    251     1   107.9700462 569.024000
    242    239    248     1   111.0400475 552.288000
    252    255    258     1   111.5100476 526.347200
    255    252    261     1   111.0400475 552.288000
    255    258    264     1   107.9700462 569.024000
    265    268    271     1   111.5100476 526.347200
    268    271    277     1   107.9700462 569.024000
    268    265    274     1   111.0400475 552.288000
      1      2      3     1   109.7800468 425.094400
      1      2      4     1   109.7800468 425.094400
      1      5      6     1   109.7800468 425.094400
      1      5      7     1   109.7800468 425.094400
      2      8      9     1   109.8000471 387.438400
      2      8     10     1   109.8000471 387.438400
      3      2      8     1   109.5600471 388.275200
      3      2      4     1   108.4600466 328.025600
      4      2      8     1   109.5600471 388.275200
      5     11     12     1   109.8000471 387.438400
      5     11     13     1   109.8000471 387.438400
      6      5     11     1   109.5600471 388.275200
      6      5      7     1   108.4600466 328.025600
      7      5     11     1   109.5600471 388.275200
      8     14     15     1   109.5600471 388.275200
      8     14     16     1   109.5600471 388.275200
      9      8     14     1   109.8000471 387.438400
      9      8     10     1   107.5800459 329.699200
     10      8     14     1   109.8000471 387.438400
     11     17     18     1   109.5600471 388.275200
     11     17     19     1   109.5600471 388.275200
     12     11     17     1   109.8000471 387.438400
     12     11     13     1   107.5800459 329.699200
     13     11     17     1   109.8000471 387.438400
     15     14     20     1   109.8800469 414.216000
     15     14     16     1   108.4600466 328.025600
     16     14     20     1   109.8800469 414.216000
     18     17     21     1   109.8800469 414.216000
     18     17     19     1   108.4600466 328.025600
     19     17     21     1   109.8800469 414.216000
     20     28     29     1   109.8800469 414.216000
     20     28     30     1   109.8800469 414.216000
     20     31     32     1   109.8800469 414.216000
     20     31     33     1   109.8800469 414.216000
     21     22     23     1   109.8800469 414.216000
     21     22     24     1   109.8800469 414.216000
     21     25     26     1   109.8800469 414.216000
     21     25     27     1   109.8800469 414.216000
     22     34     35     1   109.8000471 387.438400
     22     34     36     1   109.8000471 387.438400
     23     22     34     1   109.5600471 388.275200
     23     22     24     1   108.4600466 328.025600
     24     22     34     1   109.5600471 388.275200
     25     37     38     1   109.8000471 387.438400
     25     37     39     1   109.8000471 387.438400
     26     25     37     1   109.5600471 388.275200
     26     25     27     1   108.4600466 328.025600
     27     25     37     1   109.5600471 388.275200
     28     40     41     1   109.8000471 387.438400
     28     40     42     1   109.8000471 387.438400
     29     28     40     1   109.5600471 388.275200
     29     28     30     1   108.4600466 328.025600
     30     28     40     1   109.5600471 388.275200
     31     43     44     1   109.8000471 387.438400
     31     43     45     1   109.8000471 387.438400
     32     31     43     1   109.5600471 388.275200
     32     31     33     1   108.4600466 328.025600
     33     31     43     1   109.5600471 388.275200
     34     55     56     1   109.5600471 388.275200
     34     55     57     1   109.5600471 388.275200
     35     34     55     1   109.8000471 387.438400
     35     34     36     1   107.5800459 329.699200
     36     34     55     1   109.8000471 387.438400
     37     52     53     1   109.5600471 388.275200
     37     52     54     1   109.5600471 388.275200
     38     37     52     1   109.8000471 387.438400
     38     37     39     1   107.5800459 329.699200
     39     37     52     1   109.8000471 387.438400
     40     49     50     1   109.5600471 388.275200
     40     49     51     1   109.5600471 388.275200
     41     40     49     1   109.8000471 387.438400
     41     40     42     1   107.5800459 329.699200
     42     40     49     1   109.8000471 387.438400
     43     46     47     1   109.5600471 388.275200
     43     46     48     1   109.5600471 388.275200
     44     43     46     1   109.8000471 387.438400
     44     43     45     1   107.5800459 329.699200
     45     43     46     1   109.8000471 387.438400
     47     46     86     1   109.7800468 425.094400
     47     46     48     1   108.4600466 328.025600
     48     46     86     1   109.7800468 425.094400
     50     49    115     1   109.7800468 425.094400
     50     49     51     1   108.4600466 328.025600
     51     49    115     1   109.7800468 425.094400
     53     52    144     1   109.7800468 425.094400
     53     52     54     1   108.4600466 328.025600
     54     52    144     1   109.7800468 425.094400
     56     55    173     1   109.7800468 425.094400
     56     55     57     1   108.4600466 328.025600
     57     55    173     1   109.7800468 425.094400
     58     59     60     1   109.8800469 414.216000
     58     59     61     1   109.8800469 414.216000
     58     62     63     1   109.8800469 414.216000
     58     62     64     1   109.8800469 414.216000
     58     65     66     1   109.8800469 414.216000
     58     65     67     1   109.8800469 414.216000
     59     71     72     1   109.8000471 387.438400
     59     71     73     1   109.8000471 387.438400
     60     59     71     1   109.5600471 388.275200
     60     59     61     1   108.4600466 328.025600
     61     59     71     1   109.5600471 388.275200
     62     74     75     1   109.8000471 387.438400
     62     74     76     1   109.8000471 387.438400
     63     62     74     1   109.5600471 388.275200
     63     62     64     1   108.4600466 328.025600
     64     62     74     1   109.5600471 388.275200
     65     68     69     1   109.8000471 387.438400
     65     68     70     1   109.8000471 387.438400
     66     65     68     1   109.5600471 388.275200
     66     65     67     1   108.4600466 328.025600
     67     65     68     1   109.5600471 388.275200
     68     77     78     1   109.5600471 388.275200
     68     77     79     1   109.5600471 388.275200
     69     68     77     1   109.8000471 387.438400
     69     68     70     1   107.5800459 329.699200
     70     68     77     1   109.8000471 387.438400
     71     83     84     1   109.5600471 388.275200
     71     83     85     1   109.5600471 388.275200
     72     71     83     1   109.8000471 387.438400
     72     71     73     1   107.5800459 329.699200
     73     71     83     1   109.8000471 387.438400
     74     80     81     1   109.5600471 388.275200
     74     80     82     1   109.5600471 388.275200
     75     74     80     1   109.8000471 387.438400
     75     74     76     1   107.5800459 329.699200
     76     74     80     1   109.8000471 387.438400
     78     77     86     1   109.7800468 425.094400
     78     77     79     1   108.4600466 328.025600
     79     77     86     1   109.7800468 425.094400
     81     80    186     1   109.7800468 425.094400
     81     80     82     1   108.4600466 328.025600
     82     80    186     1   109.7800468 425.094400
     84     83    199     1   109.7800468 425.094400
     84     83     85     1   108.4600466 328.025600
     85     83    199     1   109.7800468 425.094400
     87     88     89     1   109.8800469 414.216000
     87     88     90     1   109.8800469 414.216000
     87     91     92     1   109.8800469 414.216000
     87     91     93     1   109.8800469 414.216000
     87     94     95     1   109.8800469 414.216000
     87     94     96     1   109.8800469 414.216000
     88    100    101     1   109.8000471 387.438400
     88    100    102     1   109.8000471 387.438400
     89     88    100     1   109.5600471 388.275200
     89     88     90     1   108.4600466 328.025600
     90     88    100     1   109.5600471 388.275200
     91    103    104     1   109.8000471 387.438400
     91    103    105     1   109.8000471 387.438400
     92     91    103     1   109.5600471 388.275200
     92     91     93     1   108.4600466 328.025600
     93     91    103     1   109.5600471 388.275200
     94     97     98     1   109.8000471 387.438400
     94     97     99     1   109.8000471 387.438400
     95     94     97     1   109.5600471 388.275200
     95     94     96     1   108.4600466 328.025600
     96     94     97     1   109.5600471 388.275200
     97    106    107     1   109.5600471 388.275200
     97    106    108     1   109.5600471 388.275200
     98     97    106     1   109.8000471 387.438400
     98     97     99     1   107.5800459 329.699200
     99     97    106     1   109.8000471 387.438400
    100    112    113     1   109.5600471 388.275200
    100    112    114     1   109.5600471 388.275200
    101    100    112     1   109.8000471 387.438400
    101    100    102     1   107.5800459 329.699200
    102    100    112     1   109.8000471 387.438400
    103    109    110     1   109.5600471 388.275200
    103    109    111     1   109.5600471 388.275200
    104    103    109     1   109.8000471 387.438400
    104    103    105     1   107.5800459 329.699200
    105    103    109     1   109.8000471 387.438400
    107    106    115     1   109.7800468 425.094400
    107    106    108     1   108.4600466 328.025600
    108    106    115     1   109.7800468 425.094400
    110    109    212     1   109.7800468 425.094400
    110    109    111     1   108.4600466 328.025600
    111    109    212     1   109.7800468 425.094400
    113    112    225     1   109.7800468 425.094400
    113    112    114     1   108.4600466 328.025600
    114    112    225     1   109.7800468 425.094400
    116    117    118     1   109.8800469 414.216000
    116    117    119     1   109.8800469 414.216000
    116    120    121     1   109.8800469 414.216000
    116    120    122     1   109.8800469 414.216000
    116    123    124     1   109.8800469 414.216000
    116    123    125     1   109.8800469 414.216000
    117    129    130     1   109.8000471 387.438400
    117    129    131     1   109.8000471 387.438400
    118    117    129     1   109.5600471 388.275200
    118    117    119     1   108.4600466 328.025600
    119    117    129     1   109.5600471 388.275200
    120    132    133     1   109.8000471 387.438400
    120    132    134     1   109.8000471 387.438400
    121    120    132     1   109.5600471 388.275200
    121    120    122     1   108.4600466 328.025600
    122    120    132     1   109.5600471 388.275200
    123    126    127     1   109.8000471 387.438400
    123    126    128     1   109.8000471 387.438400
    124    123    126     1   109.5600471 388.275200
    124    123    125     1   108.4600466 328.025600
    125    123    126     1   109.5600471 388.275200
    126    135    136     1   109.5600471 388.275200
    126    135    137     1   109.5600471 388.275200
    127    126    135     1   109.8000471 387.438400
    127    126    128     1   107.5800459 329.699200
    128    126    135     1   109.8000471 387.438400
    129    141    142     1   109.5600471 388.275200
    129    141    143     1   109.5600471 388.275200
    130    129    141     1   109.8000471 387.438400
    130    129    131     1   107.5800459 329.699200
    131    129    141     1   109.8000471 387.438400
    132    138    139     1   109.5600471 388.275200
    132    138    140     1   109.5600471 388.275200
    133    132    138     1   109.8000471 387.438400
    133    132    134     1   107.5800459 329.699200
    134    132    138     1   109.8000471 387.438400
    136    135    144     1   109.7800468 425.094400
    136    135    137     1   108.4600466 328.025600
    137    135    144     1   109.7800468 425.094400
    139    138    238     1   109.7800468 425.094400
    139    138    140     1   108.4600466 328.025600
    140    138    238     1   109.7800468 425.094400
    142    141    251     1   109.7800468 425.094400
    142    141    143     1   108.4600466 328.025600
    143    141    251     1   109.7800468 425.094400
    145    146    147     1   109.8800469 414.216000
    145    146    148     1   109.8800469 414.216000
    145    149    150     1   109.8800469 414.216000
    145    149    151     1   109.8800469 414.216000
    145    152    153     1   109.8800469 414.216000
    145    152    154     1   109.8800469 414.216000
    146    158    159     1   109.8000471 387.438400
    146    158    160     1   109.8000471 387.438400
    147    146    158     1   109.5600471 388.275200
    147    146    148     1   108.4600466 328.025600
    148    146    158     1   109.5600471 388.275200
    149    161    162     1   109.8000471 387.438400
    149    161    163     1   109.8000471 387.438400
    150    149    161     1   109.5600471 388.275200
    150    149    151     1   108.4600466 328.025600
    151    149    161     1   109.5600471 388.275200
    152    155    156     1   109.8000471 387.438400
    152    155    157     1   109.8000471 387.438400
    153    152    155     1   109.5600471 388.275200
    153    152    154     1   108.4600466 328.025600
    154    152    155     1   109.5600471 388.275200
    155    164    165     1   109.5600471 388.275200
    155    164    166     1   109.5600471 388.275200
    156    155    164     1   109.8000471 387.438400
    156    155    157     1   107.5800459 329.699200
    157    155    164     1   109.8000471 387.438400
    158    170    171     1   109.5600471 388.275200
    158    170    172     1   109.5600471 388.275200
    159    158    170     1   109.8000471 387.438400
    159    158    160     1   107.5800459 329.699200
    160    158    170     1   109.8000471 387.438400
    161    167    168     1   109.5600471 388.275200
    161    167    169     1   109.5600471 388.275200
    162    161    167     1   109.8000471 387.438400
    162    161    163     1   107.5800459 329.699200
    163    161    167     1   109.8000471 387.438400
    165    164    173     1   109.7800468 425.094400
    165    164    166     1   108.4600466 328.025600
    166    164    173     1   109.7800468 425.094400
    168    167    264     1   109.7800468 425.094400
    168    167    169     1   108.4600466 328.025600
    169    167    264     1   109.7800468 425.094400
    171    170    277     1   109.7800468 425.094400
    171    170    172     1   108.4600466 328.025600
    172    170    277     1   109.7800468 425.094400
    174    177    178     1   109.8000471 387.438400
    174    177    179     1   109.8000471 387.438400
    174    183    184     1   109.2900470 396.643200
    174    183    185     1   109.2900470 396.643200
    175    174    177     1   109.5600471 388.275200
    175    174    183     1   109.8800469 414.216000
    175    174    176     1   108.4600466 328.025600
    176    174    177     1   109.5600471 388.275200
    176    174    183     1   109.8800469 414.216000
    177    180    181     1   109.5600471 388.275200
    177    180    182     1   109.5600471 388.275200
    178    177    180     1   109.8000471 387.438400
    178    177    179     1   107.5800459 329.699200
    179    177    180     1   109.8000471 387.438400
    181    180    186     1   109.7800468 425.094400
    181    180    182     1   108.4600466 328.025600
    182    180    186     1   109.7800468 425.094400
    184    183    185     1   106.4000456 346.435200
    187    190    191     1   109.8000471 387.438400
    187    190    192     1   109.8000471 387.438400
    187    196    197     1   109.2900470 396.643200
    187    196    198     1   109.2900470 396.643200
    188    187    190     1   109.5600471 388.275200
    188    187    196     1   109.8800469 414.216000
    188    187    189     1   108.4600466 328.025600
    189    187    190     1   109.5600471 388.275200
    189    187    196     1   109.8800469 414.216000
    190    193    194     1   109.5600471 388.275200
    190    193    195     1   109.5600471 388.275200
    191    190    193     1   109.8000471 387.438400
    191    190    192     1   107.5800459 329.699200
    192    190    193     1   109.8000471 387.438400
    194    193    199     1   109.7800468 425.094400
    194    193    195     1   108.4600466 328.025600
    195    193    199     1   109.7800468 425.094400
    197    196    198     1   106.4000456 346.435200
    200    203    204     1   109.8000471 387.438400
    200    203    205     1   109.8000471 387.438400
    200    209    210     1   109.2900470 396.643200
    200    209    211     1   109.2900470 396.643200
    201    200    203     1   109.5600471 388.275200
    201    200    209     1   109.8800469 414.216000
    201    200    202     1   108.4600466 328.025600
    202    200    203     1   109.5600471 388.275200
    202    200    209     1   109.8800469 414.216000
    203    206    207     1   109.5600471 388.275200
    203    206    208     1   109.5600471 388.275200
    204    203    206     1   109.8000471 387.438400
    204    203    205     1   107.5800459 329.699200
    205    203    206     1   109.8000471 387.438400
    207    206    212     1   109.7800468 425.094400
    207    206    208     1   108.4600466 328.025600
    208    206    212     1   109.7800468 425.094400
    210    209    211     1   106.4000456 346.435200
    213    216    217     1   109.8000471 387.438400
    213    216    218     1   109.8000471 387.438400
    213    222    223     1   109.2900470 396.643200
    213    222    224     1   109.2900470 396.643200
    214    213    216     1   109.5600471 388.275200
    214    213    222     1   109.8800469 414.216000
    214    213    215     1   108.4600466 328.025600
    215    213    216     1   109.5600471 388.275200
    215    213    222     1   109.8800469 414.216000
    216    219    220     1   109.5600471 388.275200
    216    219    221     1   109.5600471 388.275200
    217    216    219     1   109.8000471 387.438400
    217    216    218     1   107.5800459 329.699200
    218    216    219     1   109.8000471 387.438400
    220    219    225     1   109.7800468 425.094400
    220    219    221     1   108.4600466 328.025600
    221    219    225     1   109.7800468 425.094400
    223    222    224     1   106.4000456 346.435200
    226    229    230     1   109.8000471 387.438400
    226    229    231     1   109.8000471 387.438400
    226    235    236     1   109.2900470 396.643200
    226    235    237     1   109.2900470 396.643200
    227    226    229     1   109.5600471 388.275200
    227    226    235     1   109.8800469 414.216000
    227    226    228     1   108.4600466 328.025600
    228    226    229     1   109.5600471 388.275200
    228    226    235     1   109.8800469 414.216000
    229    232    233     1   109.5600471 388.275200
    229    232    234     1   109.5600471 388.275200
    230    229    232     1   109.8000471 387.438400
    230    229    231     1   107.5800459 329.699200
    231    229    232     1   109.8000471 387.438400
    233    232    238     1   109.7800468 425.094400
    233    232    234     1   108.4600466 328.025600
    234    232    238     1   109.7800468 425.094400
    236    235    237     1   106.4000456 346.435200
    239    242    243     1   109.8000471 387.438400
    239    242    244     1   109.8000471 387.438400
    239    248    249     1   109.2900470 396.643200
    239    248    250     1   109.2900470 396.643200
    240    239    242     1   109.5600471 388.275200
    240    239    248     1   109.8800469 414.216000
    240    239    241     1   108.4600466 328.025600
    241    239    242     1   109.5600471 388.275200
    241    239    248     1   109.8800469 414.216000
    242    245    246     1   109.5600471 388.275200
    242    245    247     1   109.5600471 388.275200
    243    242    245     1   109.8000471 387.438400
    243    242    244     1   107.5800459 329.699200
    244    242    245     1   109.8000471 387.438400
    246    245    251     1   109.7800468 425.094400
    246    245    247     1   108.4600466 328.025600
    247    245    251     1   109.7800468 425.094400
    249    248    250     1   106.4000456 346.435200
    252    255    256     1   109.8000471 387.438400
    252    255    257     1   109.8000471 387.438400
    252    261    262     1   109.2900470 396.643200
    252    261    263     1   109.2900470 396.643200
    253    252    255     1   109.5600471 388.275200
    253    252    261     1   109.8800469 414.216000
    253    252    254     1   108.4600466 328.025600
    254    252    255     1   109.5600471 388.275200
    254    252    261     1   109.8800469 414.216000
    255    258    259     1   109.5600471 388.275200
    255    258    260     1   109.5600471 388.275200
    256    255    258     1   109.8000471 387.438400
    256    255    257     1   107.5800459 329.699200
    257    255    258     1   109.8000471 387.438400
    259    258    264     1   109.7800468 425.094400
    259    258    260     1   108.4600466 328.025600
    260    258    264     1   109.7800468 425.094400
    262    261    263     1   106.4000456 346.435200
    265    268    269     1   109.8000471 387.438400
    265    268    270     1   109.8000471 387.438400
    265    274    275     1   109.2900470 396.643200
    265    274    276     1   109.2900470 396.643200
    266    265    268     1   109.5600471 388.275200
    266    265    274     1   109.8800469 414.216000
    266    265    267     1   108.4600466 328.025600
    267    265    268     1   109.5600471 388.275200
    267    265    274     1   109.8800469 414.216000
    268    271    272     1   109.5600471 388.275200
    268    271    273     1   109.5600471 388.275200
    269    268    271     1   109.8000471 387.438400
    269    268    270     1   107.5800459 329.699200
    270    268    271     1   109.8000471 387.438400
    272    271    277     1   109.7800468 425.094400
    272    271    273     1   108.4600466 328.025600
    273    271    277     1   109.7800468 425.094400
    275    274    276     1   106.4000456 346.435200

[ dihedrals ]
;    ai     aj     ak     al funct         c0         c1         c2         c3         c4         c5
      1      2      8     14     1  0.0000000  0.6508444  3
      1      5     11     17     1  0.0000000  0.6508444  3
      2      1      5     11     1  180.0000771  0.4184000  2
      2      1      5     11     1  0.0000000  1.6024720  3
      2      8     14     20     1  0.0000000  0.6508444  3
      5      1      2      8     1  180.0000771  0.4184000  2
      5      1      2      8     1  0.0000000  1.6024720  3
      5     11     17     21     1  0.0000000  0.6508444  3
      8     14     20     28     1  180.0000771  2.0083200  2
      8     14     20     28     1  0.0000000  1.2552000  3
      8     14     20     31     1  180.0000771  2.0083200  2
      8     14     20     31     1  0.0000000  1.2552000  3
     11     17     21     22     1  180.0000771  2.0083200  2
     11     17     21     22     1  0.0000000  1.2552000  3
     11     17     21     25     1  180.0000771  2.0083200  2
     11     17     21     25     1  0.0000000  1.2552000  3
     14     20     28     40     1  180.0000771  2.0083200  2
     14     20     28     40     1  0.0000000  1.2552000  3
     14     20     31     43     1  180.0000771  2.0083200  2
     14     20     31     43     1  0.0000000  1.2552000  3
     17     21     22     34     1  180.0000771  2.0083200  2
     17     21     22     34     1  0.0000000  1.2552000  3
     17     21     25     37     1  180.0000771  2.0083200  2
     17     21     25     37     1  0.0000000  1.2552000  3
     20     28     40     49     1  0.0000000  0.6508444  3
     20     31     43     46     1  0.0000000  0.6508444  3
     21     22     34     55     1  0.0000000  0.6508444  3
     21     25     37     52     1  0.0000000  0.6508444  3
     22     21     25     37     1  180.0000771  2.0083200  2
     22     21     25     37     1  0.0000000  1.2552000  3
     22     34     55    173     1  0.0000000  0.6508444  3
     25     21     22     34     1  180.0000771  2.0083200  2
     25     21     22     34     1  0.0000000  1.2552000  3
     25     37     52    144     1  0.0000000  0.6508444  3
     28     20     31     43     1  180.0000771  2.0083200  2
     28     20     31     43     1  0.0000000  1.2552000  3
     28     40     49    115     1  0.0000000  0.6508444  3
     31     20     28     40     1  180.0000771  2.0083200  2
     31     20     28     40     1  0.0000000  1.2552000  3
     31     43     46     86     1  0.0000000  0.6508444  3
     34     55    173    164     1  180.0000771  0.4184000  2
     34     55    173    164     1  0.0000000  1.6024720  3
     37     52    144    135     1  180.0000771  0.4184000  2
     37     52    144    135     1  0.0000000  1.6024720  3
     40     49    115    106     1  180.0000771  0.4184000  2
     40     49    115    106     1  0.0000000  1.6024720  3
     43     46     86     77     1  180.0000771  0.4184000  2
     43     46     86     77     1  0.0000000  1.6024720  3
     46     86     77     68     1  180.0000771  0.4184000  2
     46     86     77     68     1  0.0000000  1.6024720  3
     49    115    106     97     1  180.0000771  0.4184000  2
     49    115    106     97     1  0.0000000  1.6024720  3
     52    144    135    126     1  180.0000771  0.4184000  2
     52    144    135    126     1  0.0000000  1.6024720  3
     55    173    164    155     1  180.0000771  0.4184000  2
     55    173    164    155     1  0.0000000  1.6024720  3
     58     59     71     83     1  0.0000000  0.6508444  3
     58     62     74     80     1  0.0000000  0.6508444  3
     58     65     68     77     1  0.0000000  0.6508444  3
     59     58     62     74     1  180.0000771  2.0083200  2
     59     58     62     74     1  0.0000000  1.2552000  3
     59     58     65     68     1  180.0000771  2.0083200  2
     59     58     65     68     1  0.0000000  1.2552000  3
     59     71     83    199     1  0.0000000  0.6508444  3
     62     58     59     71     1  180.0000771  2.0083200  2
     62     58     59     71     1  0.0000000  1.2552000  3
     62     58     65     68     1  180.0000771  2.0083200  2
     62     58     65     68     1  0.0000000  1.2552000  3
     62     74     80    186     1  0.0000000  0.6508444  3
     65     58     59     71     1  180.0000771  2.0083200  2
     65     58     59     71     1  0.0000000  1.2552000  3
     65     58     62     74     1  180.0000771  2.0083200  2
     65     58     62     74     1  0.0000000  1.2552000  3
     65     68     77     86     1  0.0000000  0.6508444  3
     71     83    199    193     1  180.0000771  0.4184000  2
     71     83    199    193     1  0.0000000  1.6024720  3
     74     80    186    180     1  180.0000771  0.4184000  2
     74     80    186    180     1  0.0000000  1.6024720  3
     80    186    180    177     1  180.0000771  0.4184000  2
     80    186    180    177     1  0.0000000  1.6024720  3
     83    199    193    190     1  180.0000771  0.4184000  2
     83    199    193    190     1  0.0000000  1.6024720  3
     87     88    100    112     1  0.0000000  0.6508444  3
     87     91    103    109     1  0.0000000  0.6508444  3
     87     94     97    106     1  0.0000000  0.6508444  3
     88     87     91    103     1  180.0000771  2.0083200  2
     88     87     91    103     1  0.0000000  1.2552000  3
     88     87     94     97     1  180.0000771  2.0083200  2
     88     87     94     97     1  0.0000000  1.2552000  3
     88    100    112    225     1  0.0000000  0.6508444  3
     91     87     88    100     1  180.0000771  2.0083200  2
     91     87     88    100     1  0.0000000  1.2552000  3
     91     87     94     97     1  180.0000771  2.0083200  2
     91     87     94     97     1  0.0000000  1.2552000  3
     91    103    109    212     1  0.0000000  0.6508444  3
     94     87     88    100     1  180.0000771  2.0083200  2
     94     87     88    100     1  0.0000000  1.2552000  3
     94     87     91    103     1  180.0000771  2.0083200  2
     94     87     91    103     1  0.0000000  1.2552000  3
     94     97    106    115     1  0.0000000  0.6508444  3
    100    112    225    219     1  180.0000771  0.4184000  2
    100    112    225    219     1  0.0000000  1.6024720  3
    103    109    212    206     1  180.0000771  0.4184000  2
    103    109    212    206     1  0.0000000  1.6024720  3
    109    212    206    203     1  180.0000771  0.4184000  2
    109    212    206    203     1  0.0000000  1.6024720  3
    112    225    219    216     1  180.0000771  0.4184000  2
    112    225    219    216     1  0.0000000  1.6024720  3
    116    117    129    141     1  0.0000000  0.6508444  3
    116    120    132    138     1  0.0000000  0.6508444  3
    116    123    126    135     1  0.0000000  0.6508444  3
    117    116    120    132     1  180.0000771  2.0083200  2
    117    116    120    132     1  0.0000000  1.2552000  3
    117    116    123    126     1  180.0000771  2.0083200  2
    117    116    123    126     1  0.0000000  1.2552000  3
    117    129    141    251     1  0.0000000  0.6508444  3
    120    116    117    129     1  180.0000771  2.0083200  2
    120    116    117    129     1  0.0000000  1.2552000  3
    120    116    123    126     1  180.0000771  2.0083200  2
    120    116    123    126     1  0.0000000  1.2552000  3
    120    132    138    238     1  0.0000000  0.6508444  3
    123    116    117    129     1  180.0000771  2.0083200  2
    123    116    117    129     1  0.0000000  1.2552000  3
    123    116    120    132     1  180.0000771  2.0083200  2
    123    116    120    132     1  0.0000000  1.2552000  3
    123    126    135    144     1  0.0000000  0.6508444  3
    129    141    251    245     1  180.0000771  0.4184000  2
    129    141    251    245     1  0.0000000  1.6024720  3
    132    138    238    232     1  180.0000771  0.4184000  2
    132    138    238    232     1  0.0000000  1.6024720  3
    138    238    232    229     1  180.0000771  0.4184000  2
    138    238    232    229     1  0.0000000  1.6024720  3
    141    251    245    242     1  180.0000771  0.4184000  2
    141    251    245    242     1  0.0000000  1.6024720  3
    145    146    158    170     1  0.0000000  0.6508444  3
    145    149    161    167     1  0.0000000  0.6508444  3
    145    152    155    164     1  0.0000000  0.6508444  3
    146    145    149    161     1  180.0000771  2.0083200  2
    146    145    149    161     1  0.0000000  1.2552000  3
    146    145    152    155     1  180.0000771  2.0083200  2
    146    145    152    155     1  0.0000000  1.2552000  3
    146    158    170    277     1  0.0000000  0.6508444  3
    149    145    146    158     1  180.0000771  2.0083200  2
    149    145    146    158     1  0.0000000  1.2552000  3
    149    145    152    155     1  180.0000771  2.0083200  2
    149    145    152    155     1  0.0000000  1.2552000  3
    149    161    167    264     1  0.0000000  0.6508444  3
    152    145    146    158     1  180.0000771  2.0083200  2
    152    145    146    158     1  0.0000000  1.2552000  3
    152    145    149    161     1  180.0000771  2.0083200  2
    152    145    149    161     1  0.0000000  1.2552000  3
    152    155    164    173     1  0.0000000  0.6508444  3
    158    170    277    271     1  180.0000771  0.4184000  2
    158    170    277    271     1  0.0000000  1.6024720  3
    161    167    264    258     1  180.0000771  0.4184000  2
    161    167    264    258     1  0.0000000  1.6024720  3
    167    264    258    255     1  180.0000771  0.4184000  2
    167    264    258    255     1  0.0000000  1.6024720  3
    170    277    271    268     1  180.0000771  0.4184000  2
    170    277    271    268     1  0.0000000  1.6024720  3
    174    177    180    186     1  0.0000000  0.6508444  3
    180    177    174    183     1  0.0000000  0.6508444  3
    187    190    193    199     1  0.0000000  0.6508444  3
    193    190    187    196     1  0.0000000  0.6508444  3
    200    203    206    212     1  0.0000000  0.6508444  3
    206    203    200    209     1  0.0000000  0.6508444  3
    213    216    219    225     1  0.0000000  0.6508444  3
    219    216    213    222     1  0.0000000  0.6508444  3
    226    229    232    238     1  0.0000000  0.6508444  3
    232    229    226    235     1  0.0000000  0.6508444  3
    239    242    245    251     1  0.0000000  0.6508444  3
    245    242    239    248     1  0.0000000  0.6508444  3
    252    255    258    264     1  0.0000000  0.6508444  3
    258    255    252    261     1  0.0000000  0.6508444  3
    265    268    271    277     1  0.0000000  0.6508444  3
    271    268    265    274     1  0.0000000  0.6508444  3
      1      2      8      9     1  0.0000000  1.0460000  1
      1      2      8      9     1  0.0000000  0.0000000  3
      1      2      8     10     1  0.0000000  1.0460000  1
      1      2      8     10     1  0.0000000  0.0000000  3
      1      5     11     12     1  0.0000000  1.0460000  1
      1      5     11     12     1  0.0000000  0.0000000  3
      1      5     11     13     1  0.0000000  1.0460000  1
      1      5     11     13     1  0.0000000  0.0000000  3
      2      1      5      6     1  0.0000000  1.6038667  3
      2      1      5      7     1  0.0000000  1.6038667  3
      2      8     14     15     1  0.0000000  0.6508444  3
      2      8     14     16     1  0.0000000  0.6508444  3
      5      1      2      3     1  0.0000000  1.6038667  3
      3      2      8     14     1  0.0000000  0.6508444  3
      3      2      8      9     1  0.0000000  0.6508444  3
      3      2      8     10     1  0.0000000  0.6508444  3
      5      1      2      4     1  0.0000000  1.6038667  3
      4      2      8     14     1  0.0000000  0.6508444  3
      4      2      8      9     1  0.0000000  0.6508444  3
      4      2      8     10     1  0.0000000  0.6508444  3
      5     11     17     18     1  0.0000000  0.6508444  3
      5     11     17     19     1  0.0000000  0.6508444  3
      6      5     11     17     1  0.0000000  0.6508444  3
      6      5     11     12     1  0.0000000  0.6508444  3
      6      5     11     13     1  0.0000000  0.6508444  3
      7      5     11     17     1  0.0000000  0.6508444  3
      7      5     11     12     1  0.0000000  0.6508444  3
      7      5     11     13     1  0.0000000  0.6508444  3
      9      8     14     20     1  0.0000000  0.6508444  3
      9      8     14     15     1  0.0000000  0.6508444  3
      9      8     14     16     1  0.0000000  0.6508444  3
     10      8     14     20     1  0.0000000  0.6508444  3
     10      8     14     15     1  0.0000000  0.6508444  3
     10      8     14     16     1  0.0000000  0.6508444  3
     12     11     17     21     1  0.0000000  0.6508444  3
     12     11     17     18     1  0.0000000  0.6508444  3
     12     11     17     19     1  0.0000000  0.6508444  3
     13     11     17     21     1  0.0000000  0.6508444  3
     13     11     17     18     1  0.0000000  0.6508444  3
     13     11     17     19     1  0.0000000  0.6508444  3
     14     20     28     29     1  0.0000000  1.2552000  3
     14     20     28     30     1  0.0000000  1.2552000  3
     14     20     31     32     1  0.0000000  1.2552000  3
     14     20     31     33     1  0.0000000  1.2552000  3
     15     14     20     28     1  0.0000000  1.2552000  3
     15     14     20     31     1  0.0000000  1.2552000  3
     16     14     20     28     1  0.0000000  1.2552000  3
     16     14     20     31     1  0.0000000  1.2552000  3
     17     21     22     23     1  0.0000000  1.2552000  3
     17     21     22     24     1  0.0000000  1.2552000  3
     17     21     25     26     1  0.0000000  1.2552000  3
     17     21     25     27     1  0.0000000  1.2552000  3
     18     17     21     22     1  0.0000000  1.2552000  3
     18     17     21     25     1  0.0000000  1.2552000  3
     19     17     21     22     1  0.0000000  1.2552000  3
     19     17     21     25     1  0.0000000  1.2552000  3
     20     28     40     41     1  0.0000000  0.6508444  3
     20     28     40     42     1  0.0000000  0.6508444  3
     20     31     43     44     1  0.0000000  0.6508444  3
     20     31     43     45     1  0.0000000  0.6508444  3
     21     22     34     35     1  0.0000000  0.6508444  3
     21     22     34     36     1  0.0000000  0.6508444  3
     21     25     37     38     1  0.0000000  0.6508444  3
     21     25     37     39     1  0.0000000  0.6508444  3
     22     21     25     26     1  0.0000000  1.2552000  3
     22     21     25     27     1  0.0000000  1.2552000  3
     22     34     55     56     1  0.0000000  0.6508444  3
     22     34     55     57     1  0.0000000  0.6508444  3
     23     22     21     25     1  0.0000000  1.2552000  3
     23     22     34     55     1  0.0000000  0.6508444  3
     23     22     34     35     1  0.0000000  0.6508444  3
     23     22     34     36     1  0.0000000  0.6508444  3
     24     22     21     25     1  0.0000000  1.2552000  3
     24     22     34     55     1  0.0000000  0.6508444  3
     24     22     34     35     1  0.0000000  0.6508444  3
     24     22     34     36     1  0.0000000  0.6508444  3
     25     37     52     53     1  0.0000000  0.6508444  3
     25     37     52     54     1  0.0000000  0.6508444  3
     26     25     37     52     1  0.0000000  0.6508444  3
     26     25     37     38     1  0.0000000  0.6508444  3
     26     25     37     39     1  0.0000000  0.6508444  3
     27     25     37     52     1  0.0000000  0.6508444  3
     27     25     37     38     1  0.0000000  0.6508444  3
     27     25     37     39     1  0.0000000  0.6508444  3
     28     20     31     32     1  0.0000000  1.2552000  3
     28     20     31     33     1  0.0000000  1.2552000  3
     28     40     49     50     1  0.0000000  0.6508444  3
     28     40     49     51     1  0.0000000  0.6508444  3
     29     28     20     31     1  0.0000000  1.2552000  3
     29     28     40     49     1  0.0000000  0.6508444  3
     29     28     40     41     1  0.0000000  0.6508444  3
     29     28     40     42     1  0.0000000  0.6508444  3
     30     28     20     31     1  0.0000000  1.2552000  3
     30     28     40     49     1  0.0000000  0.6508444  3
     30     28     40     41     1  0.0000000  0.6508444  3
     30     28     40     42     1  0.0000000  0.6508444  3
     31     43     46     47     1  0.0000000  0.6508444  3
     31     43     46     48     1  0.0000000  0.6508444  3
     32     31     43     46     1  0.0000000  0.6508444  3
     32     31     43     44     1  0.0000000  0.6508444  3
     32     31     43     45     1  0.0000000  0.6508444  3
     33     31     43     46     1  0.0000000  0.6508444  3
     33     31     43     44     1  0.0000000  0.6508444  3
     33     31     43     45     1  0.0000000  0.6508444  3
     35     34     55    173     1  0.0000000  1.0460000  1
     35     34     55    173     1  0.0000000  0.0000000  3
     35     34     55     56     1  0.0000000  0.6508444  3
     35     34     55     57     1  0.0000000  0.6508444  3
     36     34     55    173     1  0.0000000  1.0460000  1
     36     34     55    173     1  0.0000000  0.0000000  3
     36     34     55     56     1  0.0000000  0.6508444  3
     36     34     55     57     1  0.0000000  0.6508444  3
     38     37     52    144     1  0.0000000  1.0460000  1
     38     37     52    144     1  0.0000000  0.0000000  3
     38     37     52     53     1  0.0000000  0.6508444  3
     38     37     52     54     1  0.0000000  0.6508444  3
     39     37     52    144     1  0.0000000  1.0460000  1
     39     37     52    144     1  0.0000000  0.0000000  3
     39     37     52     53     1  0.0000000  0.6508444  3
     39     37     52     54     1  0.0000000  0.6508444  3
     41     40     49    115     1  0.0000000  1.0460000  1
     41     40     49    115     1  0.0000000  0.0000000  3
     41     40     49     50     1  0.0000000  0.6508444  3
     41     40     49     51     1  0.0000000  0.6508444  3
     42     40     49    115     1  0.0000000  1.0460000  1
     42     40     49    115     1  0.0000000  0.0000000  3
     42     40     49     50     1  0.0000000  0.6508444  3
     42     40     49     51     1  0.0000000  0.6508444  3
     44     43     46     86     1  0.0000000  1.0460000  1
     44     43     46     86     1  0.0000000  0.0000000  3
     44     43     46     47     1  0.0000000  0.6508444  3
     44     43     46     48     1  0.0000000  0.6508444  3
     45     43     46     86     1  0.0000000  1.0460000  1
     45     43     46     86     1  0.0000000  0.0000000  3
     45     43     46     47     1  0.0000000  0.6508444  3
     45     43     46     48     1  0.0000000  0.6508444  3
     46     86     77     78     1  0.0000000  1.6038667  3
     46     86     77     79     1  0.0000000  1.6038667  3
     47     46     86     77     1  0.0000000  1.6038667  3
     48     46     86     77     1  0.0000000  1.6038667  3
     49    115    106    107     1  0.0000000  1.6038667  3
     49    115    106    108     1  0.0000000  1.6038667  3
     50     49    115    106     1  0.0000000  1.6038667  3
     51     49    115    106     1  0.0000000  1.6038667  3
     52    144    135    136     1  0.0000000  1.6038667  3
     52    144    135    137     1  0.0000000  1.6038667  3
     53     52    144    135     1  0.0000000  1.6038667  3
     54     52    144    135     1  0.0000000  1.6038667  3
     55    173    164    165     1  0.0000000  1.6038667  3
     55    173    164    166     1  0.0000000  1.6038667  3
     56     55    173    164     1  0.0000000  1.6038667  3
     57     55    173    164     1  0.0000000  1.6038667  3
     58     59     71     72     1  0.0000000  0.6508444  3
     58     59     71     73     1  0.0000000  0.6508444  3
     58     62     74     75     1  0.0000000  0.6508444  3
     58     62     74     76     1  0.0000000  0.6508444  3
     58     65     68     69     1  0.0000000  0.6508444  3
     58     65     68     70     1  0.0000000  0.6508444  3
     59     58     62     63     1  0.0000000  1.2552000  3
     59     58     62     64     1  0.0000000  1.2552000  3
     59     58     65     66     1  0.0000000  1.2552000  3
     59     58     65     67     1  0.0000000  1.2552000  3
     59     71     83     84     1  0.0000000  0.6508444  3
     59     71     83     85     1  0.0000000  0.6508444  3
     60     59     58     62     1  0.0000000  1.2552000  3
     60     59     58     65     1  0.0000000  1.2552000  3
     60     59     71     83     1  0.0000000  0.6508444  3
     60     59     71     72     1  0.0000000  0.6508444  3
     60     59     71     73     1  0.0000000  0.6508444  3
     61     59     58     62     1  0.0000000  1.2552000  3
     61     59     58     65     1  0.0000000  1.2552000  3
     61     59     71     83     1  0.0000000  0.6508444  3
     61     59     71     72     1  0.0000000  0.6508444  3
     61     59     71     73     1  0.0000000  0.6508444  3
     62     58     65     66     1  0.0000000  1.2552000  3
     62     58     65     67     1  0.0000000  1.2552000  3
     62     74     80     81     1  0.0000000  0.6508444  3
     62     74     80     82     1  0.0000000  0.6508444  3
     63     62     58     65     1  0.0000000  1.2552000  3
     63     62     74     80     1  0.0000000  0.6508444  3
     63     62     74     75     1  0.0000000  0.6508444  3
     63     62     74     76     1  0.0000000  0.6508444  3
     64     62     58     65     1  0.0000000  1.2552000  3
     64     62     74     80     1  0.0000000  0.6508444  3
     64     62     74     75     1  0.0000000  0.6508444  3
     64     62     74     76     1  0.0000000  0.6508444  3
     65     68     77     78     1  0.0000000  0.6508444  3
     65     68     77     79     1  0.0000000  0.6508444  3
     66     65     68     77     1  0.0000000  0.6508444  3
     66     65     68     69     1  0.0000000  0.6508444  3
     66     65     68     70     1  0.0000000  0.6508444  3
     67     65     68     77     1  0.0000000  0.6508444  3
     67     65     68     69     1  0.0000000  0.6508444  3
     67     65     68     70     1  0.0000000  0.6508444  3
     69     68     77     86     1  0.0000000  1.0460000  1
     69     68     77     86     1  0.0000000  0.0000000  3
     69     68     77     78     1  0.0000000  0.6508444  3
     69     68     77     79     1  0.0000000  0.6508444  3
     70     68     77     86     1  0.0000000  1.0460000  1
     70     68     77     86     1  0.0000000  0.0000000  3
     70     68     77     78     1  0.0000000  0.6508444  3
     70     68     77     79     1  0.0000000  0.6508444  3
     72     71     83    199     1  0.0000000  1.0460000  1
     72     71     83    199     1  0.0000000  0.0000000  3
     72     71     83     84     1  0.0000000  0.6508444  3
     72     71     83     85     1  0.0000000  0.6508444  3
     73     71     83    199     1  0.0000000  1.0460000  1
     73     71     83    199     1  0.0000000  0.0000000  3
     73     71     83     84     1  0.0000000  0.6508444  3
     73     71     83     85     1  0.0000000  0.6508444  3
     75     74     80    186     1  0.0000000  1.0460000  1
     75     74     80    186     1  0.0000000  0.0000000  3
     75     74     80     81     1  0.0000000  0.6508444  3
     75     74     80     82     1  0.0000000  0.6508444  3
     76     74     80    186     1  0.0000000  1.0460000  1
     76     74     80    186     1  0.0000000  0.0000000  3
     76     74     80     81     1  0.0000000  0.6508444  3
     76     74     80     82     1  0.0000000  0.6508444  3
     80    186    180    181     1  0.0000000  1.6038667  3
     80    186    180    182     1  0.0000000  1.6038667  3
     81     80    186    180     1  0.0000000  1.6038667  3
     82     80    186    180     1  0.0000000  1.6038667  3
     83    199    193    194     1  0.0000000  1.6038667  3
     83    199    193    195     1  0.0000000  1.6038667  3
     84     83    199    193     1  0.0000000  1.6038667  3
     85     83    199    193     1  0.0000000  1.6038667  3
     87     88    100    101     1  0.0000000  0.6508444  3
     87     88    100    102     1  0.0000000  0.6508444  3
     87     91    103    104     1  0.0000000  0.6508444  3
     87     91    103    105     1  0.0000000  0.6508444  3
     87     94     97     98     1  0.0000000  0.6508444  3
     87     94     97     99     1  0.0000000  0.6508444  3
     88     87     91     92     1  0.0000000  1.2552000  3
     88     87     91     93     1  0.0000000  1.2552000  3
     88     87     94     95     1  0.0000000  1.2552000  3
     88     87     94     96     1  0.0000000  1.2552000  3
     88    100    112    113     1  0.0000000  0.6508444  3
     88    100    112    114     1  0.0000000  0.6508444  3
     89     88     87     91     1  0.0000000  1.2552000  3
     89     88     87     94     1  0.0000000  1.2552000  3
     89     88    100    112     1  0.0000000  0.6508444  3
     89     88    100    101     1  0.0000000  0.6508444  3
     89     88    100    102     1  0.0000000  0.6508444  3
     90     88     87     91     1  0.0000000  1.2552000  3
     90     88     87     94     1  0.0000000  1.2552000  3
     90     88    100    112     1  0.0000000  0.6508444  3
     90     88    100    101     1  0.0000000  0.6508444  3
     90     88    100    102     1  0.0000000  0.6508444  3
     91     87     94     95     1  0.0000000  1.2552000  3
     91     87     94     96     1  0.0000000  1.2552000  3
     91    103    109    110     1  0.0000000  0.6508444  3
     91    103    109    111     1  0.0000000  0.6508444  3
     92     91     87     94     1  0.0000000  1.2552000  3
     92     91    103    109     1  0.0000000  0.6508444  3
     92     91    103    104     1  0.0000000  0.6508444  3
     92     91    103    105     1  0.0000000  0.6508444  3
     93     91     87     94     1  0.0000000  1.2552000  3
     93     91    103    109     1  0.0000000  0.6508444  3
     93     91    103    104     1  0.0000000  0.6508444  3
     93     91    103    105     1  0.0000000  0.6508444  3
     94     97    106    107     1  0.0000000  0.6508444  3
     94     97    106    108     1  0.0000000  0.6508444  3
     95     94     97    106     1  0.0000000  0.6508444  3
     95     94     97     98     1  0.0000000  0.6508444  3
     95     94     97     99     1  0.0000000  0.6508444  3
     96     94     97    106     1  0.0000000  0.6508444  3
     96     94     97     98     1  0.0000000  0.6508444  3
     96     94     97     99     1  0.0000000  0.6508444  3
     98     97    106    115     1  0.0000000  1.0460000  1
     98     97    106    115     1  0.0000000  0.0000000  3
     98     97    106    107     1  0.0000000  0.6508444  3
     98     97    106    108     1  0.0000000  0.6508444  3
     99     97    106    115     1  0.0000000  1.0460000  1
     99     97    106    115     1  0.0000000  0.0000000  3
     99     97    106    107     1  0.0000000  0.6508444  3
     99     97    106    108     1  0.0000000  0.6508444  3
    101    100    112    225     1  0.0000000  1.0460000  1
    101    100    112    225     1  0.0000000  0.0000000  3
    101    100    112    113     1  0.0000000  0.6508444  3
    101    100    112    114     1  0.0000000  0.6508444  3
    102    100    112    225     1  0.0000000  1.0460000  1
    102    100    112    225     1  0.0000000  0.0000000  3
    102    100    112    113     1  0.0000000  0.6508444  3
    102    100    112    114     1  0.0000000  0.6508444  3
    104    103    109    212     1  0.0000000  1.0460000  1
    104    103    109    212     1  0.0000000  0.0000000  3
    104    103    109    110     1  0.0000000  0.6508444  3
    104    103    109    111     1  0.0000000  0.6508444  3
    105    103    109    212     1  0.0000000  1.0460000  1
    105    103    109    212     1  0.0000000  0.0000000  3
    105    103    109    110     1  0.0000000  0.6508444  3
    105    103    109    111     1  0.0000000  0.6508444  3
    109    212    206    207     1  0.0000000  1.6038667  3
    109    212    206    208     1  0.0000000  1.6038667  3
    110    109    212    206     1  0.0000000  1.6038667  3
    111    109    212    206     1  0.0000000  1.6038667  3
    112    225    219    220     1  0.0000000  1.6038667  3
    112    225    219    221     1  0.0000000  1.6038667  3
    113    112    225    219     1  0.0000000  1.6038667  3
    114    112    225    219     1  0.0000000  1.6038667  3
    116    117    129    130     1  0.0000000  0.6508444  3
    116    117    129    131     1  0.0000000  0.6508444  3
    116    120    132    133     1  0.0000000  0.6508444  3
    116    120    132    134     1  0.0000000  0.6508444  3
    116    123    126    127     1  0.0000000  0.6508444  3
    116    123    126    128     1  0.0000000  0.6508444  3
    117    116    120    121     1  0.0000000  1.2552000  3
    117    116    120    122     1  0.0000000  1.2552000  3
    117    116    123    124     1  0.0000000  1.2552000  3
    117    116    123    125     1  0.0000000  1.2552000  3
    117    129    141    142     1  0.0000000  0.6508444  3
    117    129    141    143     1  0.0000000  0.6508444  3
    118    117    116    120     1  0.0000000  1.2552000  3
    118    117    116    123     1  0.0000000  1.2552000  3
    118    117    129    141     1  0.0000000  0.6508444  3
    118    117    129    130     1  0.0000000  0.6508444  3
    118    117    129    131     1  0.0000000  0.6508444  3
    119    117    116    120     1  0.0000000  1.2552000  3
    119    117    116    123     1  0.0000000  1.2552000  3
    119    117    129    141     1  0.0000000  0.6508444  3
    119    117    129    130     1  0.0000000  0.6508444  3
    119    117    129    131     1  0.0000000  0.6508444  3
    120    116    123    124     1  0.0000000  1.2552000  3
    120    116    123    125     1  0.0000000  1.2552000  3
    120    132    138    139     1  0.0000000  0.6508444  3
    120    132    138    140     1  0.0000000  0.6508444  3
    121    120    116    123     1  0.0000000  1.2552000  3
    121    120    132    138     1  0.0000000  0.6508444  3
    121    120    132    133     1  0.0000000  0.6508444  3
    121    120    132    134     1  0.0000000  0.6508444  3
    122    120    116    123     1  0.0000000  1.2552000  3
    122    120    132    138     1  0.0000000  0.6508444  3
    122    120    132    133     1  0.0000000  0.6508444  3
    122    120    132    134     1  0.0000000  0.6508444  3
    123    126    135    136     1  0.0000000  0.6508444  3
    123    126    135    137     1  0.0000000  0.6508444  3
    124    123    126    135     1  0.0000000  0.6508444  3
    124    123    126    127     1  0.0000000  0.6508444  3
    124    123    126    128     1  0.0000000  0.6508444  3
    125    123    126    135     1  0.0000000  0.6508444  3
    125    123    126    127     1  0.0000000  0.6508444  3
    125    123    126    128     1  0.0000000  0.6508444  3
    127    126    135    144     1  0.0000000  1.0460000  1
    127    126    135    144     1  0.0000000  0.0000000  3
    127    126    135    136     1  0.0000000  0.6508444  3
    127    126    135    137     1  0.0000000  0.6508444  3
    128    126    135    144     1  0.0000000  1.0460000  1
    128    126    135    144     1  0.0000000  0.0000000  3
    128    126    135    136     1  0.0000000  0.6508444  3
    128    126    135    137     1  0.0000000  0.6508444  3
    130    129    141    251     1  0.0000000  1.0460000  1
    130    129    141    251     1  0.0000000  0.0000000  3
    130    129    141    142     1  0.0000000  0.6508444  3
    130    129    141    143     1  0.0000000  0.6508444  3
    131    129    141    251     1  0.0000000  1.0460000  1
    131    129    141    251     1  0.0000000  0.0000000  3
    131    129    141    142     1  0.0000000  0.6508444  3
    131    129    141    143     1  0.0000000  0.6508444  3
    133    132    138    238     1  0.0000000  1.0460000  1
    133    132    138    238     1  0.0000000  0.0000000  3
    133    132    138    139     1  0.0000000  0.6508444  3
    133    132    138    140     1  0.0000000  0.6508444  3
    134    132    138    238     1  0.0000000  1.0460000  1
    134    132    138    238     1  0.0000000  0.0000000  3
    134    132    138    139     1  0.0000000  0.6508444  3
    134    132    138    140     1  0.0000000  0.6508444  3
    138    238    232    233     1  0.0000000  1.6038667  3
    138    238    232    234     1  0.0000000  1.6038667  3
    139    138    238    232     1  0.0000000  1.6038667  3
    140    138    238    232     1  0.0000000  1.6038667  3
    141    251    245    246     1  0.0000000  1.6038667  3
    141    251    245    247     1  0.0000000  1.6038667  3
    142    141    251    245     1  0.0000000  1.6038667  3
    143    141    251    245     1  0.0000000  1.6038667  3
    145    146    158    159     1  0.0000000  0.6508444  3
    145    146    158    160     1  0.0000000  0.6508444  3
    145    149    161    162     1  0.0000000  0.6508444  3
    145    149    161    163     1  0.0000000  0.6508444  3
    145    152    155    156     1  0.0000000  0.6508444  3
    145    152    155    157     1  0.0000000  0.6508444  3
    146    145    149    150     1  0.0000000  1.2552000  3
    146    145    149    151     1  0.0000000  1.2552000  3
    146    145    152    153     1  0.0000000  1.2552000  3
    146    145    152    154     1  0.0000000  1.2552000  3
    146    158    170    171     1  0.0000000  0.6508444  3
    146    158    170    172     1  0.0000000  0.6508444  3
    147    146    145    149     1  0.0000000  1.2552000  3
    147    146    145    152     1  0.0000000  1.2552000  3
    147    146    158    170     1  0.0000000  0.6508444  3
    147    146    158    159     1  0.0000000  0.6508444  3
    147    146    158    160     1  0.0000000  0.6508444  3
    148    146    145    149     1  0.0000000  1.2552000  3
    148    146    145    152     1  0.0000000  1.2552000  3
    148    146    158    170     1  0.0000000  0.6508444  3
    148    146    158    159     1  0.0000000  0.6508444  3
    148    146    158    160     1  0.0000000  0.6508444  3
    149    145    152    153     1  0.0000000  1.2552000  3
    149    145    152    154     1  0.0000000  1.2552000  3
    149    161    167    168     1  0.0000000  0.6508444  3
    149    161    167    169     1  0.0000000  0.6508444  3
    150    149    145    152     1  0.0000000  1.2552000  3
    150    149    161    167     1  0.0000000  0.6508444  3
    150    149    161    162     1  0.0000000  0.6508444  3
    150    149    161    163     1  0.0000000  0.6508444  3
    151    149    145    152     1  0.0000000  1.2552000  3
    151    149    161    167     1  0.0000000  0.6508444  3
    151    149    161    162     1  0.0000000  0.6508444  3
    151    149    161    163     1  0.0000000  0.6508444  3
    152    155    164    165     1  0.0000000  0.6508444  3
    152    155    164    166     1  0.0000000  0.6508444  3
    153    152    155    164     1  0.0000000  0.6508444  3
    153    152    155    156     1  0.0000000  0.6508444  3
    153    152    155    157     1  0.0000000  0.6508444  3
    154    152    155    164     1  0.0000000  0.6508444  3
    154    152    155    156     1  0.0000000  0.6508444  3
    154    152    155    157     1  0.0000000  0.6508444  3
    156    155    164    173     1  0.0000000  1.0460000  1
    156    155    164    173     1  0.0000000  0.0000000  3
    156    155    164    165     1  0.0000000  0.6508444  3
    156    155    164    166     1  0.0000000  0.6508444  3
    157    155    164    173     1  0.0000000  1.0460000  1
    157    155    164    173     1  0.0000000  0.0000000  3
    157    155    164    165     1  0.0000000  0.6508444  3
    157    155    164    166     1  0.0000000  0.6508444  3
    159    158    170    277     1  0.0000000  1.0460000  1
    159    158    170    277     1  0.0000000  0.0000000  3
    159    158    170    171     1  0.0000000  0.6508444  3
    159    158    170    172     1  0.0000000  0.6508444  3
    160    158    170    277     1  0.0000000  1.0460000  1
    160    158    170    277     1  0.0000000  0.0000000  3
    160    158    170    171     1  0.0000000  0.6508444  3
    160    158    170    172     1  0.0000000  0.6508444  3
    162    161    167    264     1  0.0000000  1.0460000  1
    162    161    167    264     1  0.0000000  0.0000000  3
    162    161    167    168     1  0.0000000  0.6508444  3
    162    161    167    169     1  0.0000000  0.6508444  3
    163    161    167    264     1  0.0000000  1.0460000  1
    163    161    167    264     1  0.0000000  0.0000000  3
    163    161    167    168     1  0.0000000  0.6508444  3
    163    161    167    169     1  0.0000000  0.6508444  3
    167    264    258    259     1  0.0000000  1.6038667  3
    167    264    258    260     1  0.0000000  1.6038667  3
    168    167    264    258     1  0.0000000  1.6038667  3
    169    167    264    258     1  0.0000000  1.6038667  3
    170    277    271    272     1  0.0000000  1.6038667  3
    170    277    271    273     1  0.0000000  1.6038667  3
    171    170    277    271     1  0.0000000  1.6038667  3
    172    170    277    271     1  0.0000000  1.6038667  3
    174    177    180    181     1  0.0000000  0.6508444  3
    174    177    180    182     1  0.0000000  0.6508444  3
    175    174    177    180     1  0.0000000  0.6508444  3
    175    174    177    178     1  0.0000000  0.6508444  3
    175    174    177    179     1  0.0000000  0.6508444  3
    175    174    183    184     1  0.0000000  1.2552000  3
    175    174    183    185     1  0.0000000  1.2552000  3
    176    174    177    180     1  0.0000000  0.6508444  3
    176    174    177    178     1  0.0000000  0.6508444  3
    176    174    177    179     1  0.0000000  0.6508444  3
    176    174    183    184     1  0.0000000  1.2552000  3
    176    174    183    185     1  0.0000000  1.2552000  3
    177    174    183    184     1  0.0000000  1.2552000  3
    177    174    183    185     1  0.0000000  1.2552000  3
    178    177    174    183     1  0.0000000  0.6508444  3
    178    177    180    186     1  0.0000000  1.0460000  1
    178    177    180    186     1  0.0000000  0.0000000  3
    178    177    180    181     1  0.0000000  0.6508444  3
    178    177    180    182     1  0.0000000  0.6508444  3
    179    177    174    183     1  0.0000000  0.6508444  3
    179    177    180    186     1  0.0000000  1.0460000  1
    179    177    180    186     1  0.0000000  0.0000000  3
    179    177    180    181     1  0.0000000  0.6508444  3
    179    177    180    182     1  0.0000000  0.6508444  3
    187    190    193    194     1  0.0000000  0.6508444  3
    187    190    193    195     1  0.0000000  0.6508444  3
    188    187    190    193     1  0.0000000  0.6508444  3
    188    187    190    191     1  0.0000000  0.6508444  3
    188    187    190    192     1  0.0000000  0.6508444  3
    188    187    196    197     1  0.0000000  1.2552000  3
    188    187    196    198     1  0.0000000  1.2552000  3
    189    187    190    193     1  0.0000000  0.6508444  3
    189    187    190    191     1  0.0000000  0.6508444  3
    189    187    190    192     1  0.0000000  0.6508444  3
    189    187    196    197     1  0.0000000  1.2552000  3
    189    187    196    198     1  0.0000000  1.2552000  3
    190    187    196    197     1  0.0000000  1.2552000  3
    190    187    196    198     1  0.0000000  1.2552000  3
    191    190    193    199     1  0.0000000  1.0460000  1
    191    190    193    199     1  0.0000000  0.0000000  3
    191    190    193    194     1  0.0000000  0.6508444  3
    191    190    193    195     1  0.0000000  0.6508444  3
    191    190    187    196     1  0.0000000  0.6508444  3
    192    190    193    199     1  0.0000000  1.0460000  1
    192    190    193    199     1  0.0000000  0.0000000  3
    192    190    193    194     1  0.0000000  0.6508444  3
    192    190    193    195     1  0.0000000  0.6508444  3
    192    190    187    196     1  0.0000000  0.6508444  3
    200    203    206    207     1  0.0000000  0.6508444  3
    200    203    206    208     1  0.0000000  0.6508444  3
    201    200    203    206     1  0.0000000  0.6508444  3
    201    200    203    204     1  0.0000000  0.6508444  3
    201    200    203    205     1  0.0000000  0.6508444  3
    201    200    209    210     1  0.0000000  1.2552000  3
    201    200    209    211     1  0.0000000  1.2552000  3
    202    200    203    206     1  0.0000000  0.6508444  3
    202    200    203    204     1  0.0000000  0.6508444  3
    202    200    203    205     1  0.0000000  0.6508444  3
    202    200    209    210     1  0.0000000  1.2552000  3
    202    200    209    211     1  0.0000000  1.2552000  3
    203    200    209    210     1  0.0000000  1.2552000  3
    203    200    209    211     1  0.0000000  1.2552000  3
    204    203    200    209     1  0.0000000  0.6508444  3
    204    203    206    212     1  0.0000000  1.0460000  1
    204    203    206    212     1  0.0000000  0.0000000  3
    204    203    206    207     1  0.0000000  0.6508444  3
    204    203    206    208     1  0.0000000  0.6508444  3
    205    203    200    209     1  0.0000000  0.6508444  3
    205    203    206    212     1  0.0000000  1.0460000  1
    205    203    206    212     1  0.0000000  0.0000000  3
    205    203    206    207     1  0.0000000  0.6508444  3
    205    203    206    208     1  0.0000000  0.6508444  3
    213    216    219    220     1  0.0000000  0.6508444  3
    213    216    219    221     1  0.0000000  0.6508444  3
    214    213    216    219     1  0.0000000  0.6508444  3
    214    213    216    217     1  0.0000000  0.6508444  3
    214    213    216    218     1  0.0000000  0.6508444  3
    214    213    222    223     1  0.0000000  1.2552000  3
    214    213    222    224     1  0.0000000  1.2552000  3
    215    213    216    219     1  0.0000000  0.6508444  3
    215    213    216    217     1  0.0000000  0.6508444  3
    215    213    216    218     1  0.0000000  0.6508444  3
    215    213    222    223     1  0.0000000  1.2552000  3
    215    213    222    224     1  0.0000000  1.2552000  3
    216    213    222    223     1  0.0000000  1.2552000  3
    216    213    222    224     1  0.0000000  1.2552000  3
    217    216    219    225     1  0.0000000  1.0460000  1
    217    216    219    225     1  0.0000000  0.0000000  3
    217    216    219    220     1  0.0000000  0.6508444  3
    217    216    219    221     1  0.0000000  0.6508444  3
    217    216    213    222     1  0.0000000  0.6508444  3
    218    216    219    225     1  0.0000000  1.0460000  1
    218    216    219    225     1  0.0000000  0.0000000  3
    218    216    219    220     1  0.0000000  0.6508444  3
    218    216    219    221     1  0.0000000  0.6508444  3
    218    216    213    222     1  0.0000000  0.6508444  3
    226    229    232    233     1  0.0000000  0.6508444  3
    226    229    232    234     1  0.0000000  0.6508444  3
    227    226    229    232     1  0.0000000  0.6508444  3
    227    226    229    230     1  0.0000000  0.6508444  3
    227    226    229    231     1  0.0000000  0.6508444  3
    227    226    235    236     1  0.0000000  1.2552000  3
    227    226    235    237     1  0.0000000  1.2552000  3
    228    226    229    232     1  0.0000000  0.6508444  3
    228    226    229    230     1  0.0000000  0.6508444  3
    228    226    229    231     1  0.0000000  0.6508444  3
    228    226    235    236     1  0.0000000  1.2552000  3
    228    226    235    237     1  0.0000000  1.2552000  3
    229    226    235    236     1  0.0000000  1.2552000  3
    229    226    235    237     1  0.0000000  1.2552000  3
    230    229    226    235     1  0.0000000  0.6508444  3
    230    229    232    238     1  0.0000000  1.0460000  1
    230    229    232    238     1  0.0000000  0.0000000  3
    230    229    232    233     1  0.0000000  0.6508444  3
    230    229    232    234     1  0.0000000  0.6508444  3
    231    229    226    235     1  0.0000000  0.6508444  3
    231    229    232    238     1  0.0000000  1.0460000  1
    231    229    232    238     1  0.0000000  0.0000000  3
    231    229    232    233     1  0.0000000  0.6508444  3
    231    229    232    234     1  0.0000000  0.6508444  3
    239    242    245    246     1  0.0000000  0.6508444  3
    239    242    245    247     1  0.0000000  0.6508444  3
    240    239    242    245     1  0.0000000  0.6508444  3
    240    239    242    243     1  0.0000000  0.6508444  3
    240    239    242    244     1  0.0000000  0.6508444  3
    240    239    248    249     1  0.0000000  1.2552000  3
    240    239    248    250     1  0.0000000  1.2552000  3
    241    239    242    245     1  0.0000000  0.6508444  3
    241    239    242    243     1  0.0000000  0.6508444  3
    241    239    242    244     1  0.0000000  0.6508444  3
    241    239    248    249     1  0.0000000  1.2552000  3
    241    239    248    250     1  0.0000000  1.2552000  3
    242    239    248    249     1  0.0000000  1.2552000  3
    242    239    248    250     1  0.0000000  1.2552000  3
    243    242    245    251     1  0.0000000  1.0460000  1
    243    242    245    251     1  0.0000000  0.0000000  3
    243    242    245    246     1  0.0000000  0.6508444  3
    243    242    245    247     1  0.0000000  0.6508444  3
    243    242    239    248     1  0.0000000  0.6508444  3
    244    242    245    251     1  0.0000000  1.0460000  1
    244    242    245    251     1  0.0000000  0.0000000  3
    244    242    245    246     1  0.0000000  0.6508444  3
    244    242    245    247     1  0.0000000  0.6508444  3
    244    242    239    248     1  0.0000000  0.6508444  3
    252    255    258    259     1  0.0000000  0.6508444  3
    252    255    258    260     1  0.0000000  0.6508444  3
    253    252    255    258     1  0.0000000  0.6508444  3
    253    252    255    256     1  0.0000000  0.6508444  3
    253    252    255    257     1  0.0000000  0.6508444  3
    253    252    261    262     1  0.0000000  1.2552000  3
    253    252    261    263     1  0.0000000  1.2552000  3
    254    252    255    258     1  0.0000000  0.6508444  3
    254    252    255    256     1  0.0000000  0.6508444  3
    254    252    255    257     1  0.0000000  0.6508444  3
    254    252    261    262     1  0.0000000  1.2552000  3
    254    252    261    263     1  0.0000000  1.2552000  3
    255    252    261    262     1  0.0000000  1.2552000  3
    255    252    261    263     1  0.0000000  1.2552000  3
    256    255    252    261     1  0.0000000  0.6508444  3
    256    255    258    264     1  0.0000000  1.0460000  1
    256    255    258    264     1  0.0000000  0.0000000  3
    256    255    258    259     1  0.0000000  0.6508444  3
    256    255    258    260     1  0.0000000  0.6508444  3
    257    255    252    261     1  0.0000000  0.6508444  3
    257    255    258    264     1  0.0000000  1.0460000  1
    257    255    258    264     1  0.0000000  0.0000000  3
    257    255    258    259     1  0.0000000  0.6508444  3
    257    255    258    260     1  0.0000000  0.6508444  3
    265    268    271    272     1  0.0000000  0.6508444  3
    265    268    271    273     1  0.0000000  0.6508444  3
    266    265    268    271     1  0.0000000  0.6508444  3
    266    265    268    269     1  0.0000000  0.6508444  3
    266    265    268    270     1  0.0000000  0.6508444  3
    266    265    274    275     1  0.0000000  1.2552000  3
    266    265    274    276     1  0.0000000  1.2552000  3
    267    265    268    271     1  0.0000000  0.6508444  3
    267    265    268    269     1  0.0000000  0.6508444  3
    267    265    268    270     1  0.0000000  0.6508444  3
    267    265    274    275     1  0.0000000  1.2552000  3
    267    265    274    276     1  0.0000000  1.2552000  3
    268    265    274    275     1  0.0000000  1.2552000  3
    268    265    274    276     1  0.0000000  1.2552000  3
    269    268    271    277     1  0.0000000  1.0460000  1
    269    268    271    277     1  0.0000000  0.0000000  3
    269    268    271    272     1  0.0000000  0.6508444  3
    269    268    271    273     1  0.0000000  0.6508444  3
    269    268    265    274     1  0.0000000  0.6508444  3
    270    268    271    277     1  0.0000000  1.0460000  1
    270    268    271    277     1  0.0000000  0.0000000  3
    270    268    271    272     1  0.0000000  0.6508444  3
    270    268    271    273     1  0.0000000  0.6508444  3
    270    268    265    274     1  0.0000000  0.6508444  3

;[ system ]
;; Name
;Generic title
;
;[ molecules ]
;; Compound       #mols
;g2npocore_petim    1
