G2NPNcore-PETIM in water
22963
    1aaa     O1    1   5.724   2.836   0.905 -0.3356 -0.5221  0.0341
    1aaa     C1    2   5.817   2.732   0.863 -0.3922  0.1427 -0.8189
    1aaa     H1    3   5.901   2.778   0.810  1.4296 -1.1560  0.8028
    1aaa     H2    4   5.757   2.660   0.807 -1.7151  0.0471  0.6367
    1aaa     C2    5   5.650   2.887   0.783  0.7209  0.5954  0.4279
    1aaa     H3    6   5.683   2.842   0.689 -0.2818  3.0247 -1.1880
    1aaa     H4    7   5.668   2.994   0.769 -0.9055  0.8641  0.2270
    1aaa     C3    8   5.880   2.667   0.990  0.4757  0.3107  0.2588
    1aaa     H5    9   5.893   2.747   1.064  1.0582 -0.0027  0.5000
    1aaa     H6   10   5.979   2.628   0.967  0.7951 -0.8299  3.2531
    1aaa     C4   11   5.498   2.871   0.809  1.3374  0.0114 -1.0704
    1aaa     H7   12   5.485   2.769   0.849  1.4452  0.1099 -0.7768
    1aaa     H8   13   5.451   2.879   0.711  1.8481 -1.0707 -1.4151
    1aaa     C5   14   5.774   2.572   1.067 -0.1361  0.0413 -0.0952
    1aaa     H9   15   5.708   2.621   1.139  1.0119 -0.9362  1.7200
    1aaa    H10   16   5.705   2.539   0.988  0.4000  2.1114 -1.5027
    1aaa     C6   17   5.441   2.972   0.915  0.2800 -0.4354 -0.0760
    1aaa    H11   18   5.462   3.073   0.878 -1.0873  0.3823  1.3179
    1aaa    H12   19   5.509   2.968   1.001 -0.1136  1.4861  0.3522
    1aaa     N1   20   5.834   2.450   1.125  0.0113 -0.5652  0.1348
    1aaa     N2   21   5.308   2.953   0.970 -0.3926  0.1327  0.1181
    1aaa     C7   22   5.269   2.821   1.024  0.6099  0.0000  0.1310
    1aaa    H13   23   5.160   2.818   1.025  0.3471  1.4336 -4.0091
    1aaa    H14   24   5.310   2.747   0.954  1.7068  1.2758 -0.6307
    1aaa     C8   25   5.260   3.066   1.050  0.1668 -1.1417 -0.2301
    1aaa    H15   26   5.313   3.064   1.145  1.4622 -0.5839 -0.9212
    1aaa    H16   27   5.288   3.152   0.988 -2.8367  0.7317  0.8015
    1aaa     C9   28   5.742   2.334   1.137 -0.2359  0.4584  0.4149
    1aaa    H17   29   5.780   2.263   1.211 -0.8718 -0.1912  0.1283
    1aaa    H18   30   5.653   2.367   1.191 -0.8953  1.4288 -1.1704
    1aaa    C10   31   5.915   2.477   1.251  0.0891  0.3862 -0.1817
    1aaa    H19   32   5.981   2.391   1.268 -0.7050 -0.7998 -2.5749
    1aaa    H20   33   5.984   2.562   1.240 -0.4283  0.7446 -0.6955
    1aaa    C11   34   5.334   2.794   1.161 -0.5095 -0.5382  0.4960
    1aaa    H21   35   5.442   2.810   1.151 -0.5962 -0.6762 -0.8142
    1aaa    H22   36   5.303   2.864   1.239 -0.4023 -0.4967  0.5015
    1aaa    C12   37   5.112   3.076   1.077 -0.0690  0.6295  0.0776
    1aaa    H23   38   5.052   3.086   0.986 -0.4385  2.5430  0.4813
    1aaa    H24   39   5.083   2.985   1.131 -1.0445 -0.0009 -1.4374
    1aaa    C13   40   5.694   2.266   1.010 -0.3786 -0.3060  0.2095
    1aaa    H25   41   5.664   2.343   0.938  0.8798 -0.5961 -0.6709
    1aaa    H26   42   5.781   2.210   0.972  0.5257  0.7085  0.7650
    1aaa    C14   43   5.844   2.490   1.378 -0.2681 -0.3961 -0.5409
    1aaa    H27   44   5.755   2.553   1.365 -1.4830 -1.5450  1.5935
    1aaa    H28   45   5.801   2.389   1.384  1.0887 -1.1335 -2.1255
    1aaa    C15   46   5.942   2.508   1.501  0.3000  1.0284  0.6009
    1aaa    H29   47   5.974   2.406   1.529  0.1024  1.1756  1.3964
    1aaa    H30   48   6.030   2.570   1.480  2.4923 -1.7242  1.1099
    1aaa    C16   49   5.577   2.167   1.024 -0.0952  0.1754  0.8329
    1aaa    H31   50   5.553   2.138   0.921 -0.4325 -2.3929  1.5619
    1aaa    H32   51   5.612   2.073   1.069 -0.6754 -0.7993 -0.6746
    1aaa    C17   52   5.071   3.186   1.184 -0.8195 -0.1759 -1.1489
    1aaa    H33   53   5.101   3.281   1.138  1.5398 -0.4469 -0.2948
    1aaa    H34   54   4.964   3.189   1.208 -0.4339  0.9979  0.5770
    1aaa    C18   55   5.309   2.654   1.209 -0.2070 -0.1483 -0.7580
    1aaa    H35   56   5.205   2.636   1.239  0.0187  0.2663  0.3090
    1aaa    H36   57   5.334   2.577   1.135 -2.9625 -0.7619 -1.1727
    2bbb     N1   58   5.732   2.834   1.950  0.2067 -0.1245 -0.8099
    2bbb     C1   59   5.655   2.952   1.933  1.1987  0.3938 -0.8935
    2bbb     H1   60   5.558   2.923   1.891  0.7936  0.9253 -0.3327
    2bbb     H2   61   5.709   3.012   1.858  2.7882 -1.4638 -1.3015
    2bbb     C2   62   5.663   2.729   2.034 -0.1335 -0.7697  0.3901
    2bbb     H3   63   5.635   2.776   2.129 -0.8981 -1.1646  0.3673
    2bbb     H4   64   5.736   2.655   2.069  1.7517  1.1683  0.7772
    2bbb     C3   65   5.791   2.786   1.821 -0.6007  0.8021 -0.1274
    2bbb     H5   66   5.846   2.862   1.765  0.7973 -0.1917 -0.1396
    2bbb     H6   67   5.710   2.749   1.756 -0.5811  1.8187 -0.7586
    2bbb     C4   68   5.891   2.668   1.842 -0.3153 -0.0340  0.1901
    2bbb     H7   69   5.845   2.578   1.883 -1.3954  0.6536  0.5299
    2bbb     H8   70   5.973   2.709   1.902  0.6248  2.4185 -2.4995
    2bbb     C5   71   5.633   3.041   2.057  0.4574 -0.0402 -0.4164
    2bbb     H9   72   5.728   3.060   2.109  0.5544 -2.7011  0.5550
    2bbb    H10   73   5.574   2.992   2.135 -0.4757  1.0269 -0.4309
    2bbb     C6   74   5.539   2.656   1.967  0.2300  0.1480  0.2667
    2bbb    H11   75   5.572   2.612   1.873 -0.5142 -1.4635  0.7267
    2bbb    H12   76   5.455   2.721   1.938 -0.6628 -1.1854 -0.2563
    2bbb     C7   77   5.955   2.627   1.707 -0.0299  0.3323 -0.9297
    2bbb    H13   78   6.029   2.552   1.738 -0.1514  1.5119  2.6895
    2bbb    H14   79   6.004   2.717   1.666  2.0869  0.0381  0.7338
    2bbb     C8   80   5.484   2.531   2.046 -0.1266 -0.3868  1.1419
    2bbb    H15   81   5.565   2.458   2.049 -0.3057 -0.6503 -0.1639
    2bbb    H16   82   5.400   2.482   1.996  0.5083  0.7750 -1.1941
    2bbb     C9   83   5.555   3.175   2.024 -0.2137  0.6651  1.0045
    2bbb    H17   84   5.566   3.247   2.106  1.6775  1.8682 -0.2214
    2bbb    H18   85   5.448   3.152   2.019  0.0725 -0.5021 -2.1222
    2bbb     O1   86   5.863   2.565   1.610  0.2168  0.2699  0.1637
    3bbb     N1   87   5.028   2.157   1.303 -0.1656  0.0156  0.8178
    3bbb     C1   88   4.998   2.306   1.305  0.1468  0.2549  0.0371
    3bbb     H1   89   4.939   2.340   1.219  3.4043  1.6255 -1.8838
    3bbb     H2   90   5.088   2.369   1.297  0.9878 -1.0624 -1.5331
    3bbb     C2   91   4.895   2.083   1.297 -0.1303  0.2137 -1.1029
    3bbb     H3   92   4.853   2.089   1.195 -0.7721 -1.0507 -0.9386
    3bbb     H4   93   4.821   2.117   1.370  0.4783  0.2943 -0.5118
    3bbb     C3   94   5.118   2.117   1.195 -0.0440 -0.4695  0.6559
    3bbb     H5   95   5.066   2.117   1.099  0.0529  0.9331  0.5795
    3bbb     H6   96   5.150   2.013   1.207  1.2617 -0.0097  1.3515
    3bbb     C4   97   5.243   2.210   1.184 -0.4693 -0.1033 -0.4022
    3bbb     H7   98   5.289   2.241   1.279 -2.6211  2.1566 -0.0253
    3bbb     H8   99   5.221   2.305   1.134 -0.9875  1.1261  1.9966
    3bbb     C5  100   4.923   2.354   1.434 -0.3201  0.1372 -0.1019
    3bbb     H9  101   4.992   2.357   1.519  1.1180  1.9552 -1.2425
    3bbb    H10  102   4.847   2.280   1.461 -0.4200  0.1853 -0.2466
    3bbb     C6  103   4.911   1.930   1.325 -0.5787  0.7483 -0.4894
    3bbb    H11  104   4.962   1.883   1.239 -0.2317  0.5514 -0.1776
    3bbb    H12  105   4.810   1.891   1.340  0.5460 -1.8844  0.7520
    3bbb     C7  106   5.348   2.140   1.098  0.0379  0.3578 -0.9598
    3bbb    H13  107   5.314   2.114   0.997  1.2910 -2.4561 -0.7598
    3bbb    H14  108   5.377   2.045   1.145 -2.5208  0.1802  0.4064
    3bbb     C8  109   5.001   1.904   1.452 -0.4989  0.4884  0.4690
    3bbb    H15  110   4.947   1.915   1.547 -1.1438 -0.3361  0.2183
    3bbb    H16  111   5.086   1.973   1.445 -1.7747  2.0974  0.2194
    3bbb     C9  112   4.836   2.488   1.421 -0.1071  0.9875  0.4399
    3bbb    H17  113   4.760   2.468   1.344  1.0196 -3.3139  0.1937
    3bbb    H18  114   4.899   2.571   1.387  0.1498  0.6432  0.0615
    3bbb     O1  115   5.464   2.226   1.087  0.2773 -0.3635 -0.5922
    4bbb     N1  116   5.201   2.984   1.677 -1.0563 -0.1157  0.0240
    4bbb     C1  117   5.171   2.876   1.776  0.3479  0.2678 -0.0963
    4bbb     H1  118   5.140   2.918   1.873  0.2934 -0.9797  0.4428
    4bbb     H2  119   5.257   2.810   1.793  1.4674  1.6197 -0.3520
    4bbb     C2  120   5.336   3.036   1.702 -0.3175 -0.2806  0.3778
    4bbb     H3  121   5.359   3.038   1.810 -1.1216  1.0713  0.5406
    4bbb     H4  122   5.356   3.136   1.662  2.8804 -0.8254  0.3183
    4bbb     C3  123   5.102   3.089   1.673 -0.2068  0.5857 -0.0436
    4bbb     H5  124   5.108   3.153   1.762 -0.4038  0.7054 -0.1160
    4bbb     H6  125   5.005   3.037   1.678  1.4192 -2.7003 -0.3960
    4bbb     C4  126   5.104   3.173   1.544  0.9186 -0.2979  0.1491
    4bbb     H7  127   5.198   3.229   1.544  0.6583  0.1451  0.3609
    4bbb     H8  128   5.025   3.250   1.545  2.5340  1.4615 -0.6593
    4bbb     C5  129   5.052   2.785   1.720  0.1453  0.1922  0.3358
    4bbb     H9  130   5.074   2.762   1.615 -0.3111  1.0870  0.0350
    4bbb    H10  131   4.954   2.834   1.718 -0.1527 -0.3917 -0.8180
    4bbb     C6  132   5.451   2.955   1.633  0.2525 -0.8622 -0.1059
    4bbb    H11  133   5.445   2.854   1.675 -1.4037 -0.6502  0.2341
    4bbb    H12  134   5.546   3.000   1.663 -0.8014  1.1374  0.3947
    4bbb     C7  135   5.080   3.093   1.411 -0.9011  0.3097 -0.1923
    4bbb    H13  136   4.978   3.058   1.397 -1.6406  1.4031  1.9542
    4bbb    H14  137   5.134   2.998   1.421  0.6503  1.1522 -0.2494
    4bbb     C8  138   5.435   2.947   1.481  0.5996  0.1522  0.1421
    4bbb    H15  139   5.371   3.031   1.452 -0.5277 -0.9167 -0.5814
    4bbb    H16  140   5.378   2.858   1.450 -0.3759  1.1077 -0.8836
    4bbb     C9  141   5.029   2.651   1.799 -0.1361  0.0883 -0.1966
    4bbb    H17  142   5.120   2.590   1.797  0.1211  0.4709 -1.7752
    4bbb    H18  143   4.959   2.587   1.744 -0.4494  1.0079 -0.8852
    4bbb     O1  144   5.141   3.170   1.306 -0.1534 -0.5499  0.3690
    5bbb     N1  145   5.399   2.220   1.553  0.3750 -0.1744 -0.2091
    5bbb     C1  146   5.384   2.127   1.670  0.5310  0.2454  0.6547
    5bbb     H1  147   5.481   2.112   1.718  1.6214  0.9793 -1.2206
    5bbb     H2  148   5.353   2.030   1.630  0.1438  0.0515  1.3929
    5bbb     C2  149   5.475   2.162   1.445 -0.2493  0.2119 -0.1007
    5bbb     H3  150   5.504   2.243   1.376  0.9627 -1.1719 -1.2886
    5bbb     H4  151   5.420   2.093   1.380  1.4781  1.1459 -2.7183
    5bbb     C3  152   5.452   2.355   1.596  0.3048 -0.3217 -0.0701
    5bbb     H5  153   5.549   2.351   1.647  0.7394  0.8761 -0.7693
    5bbb     H6  154   5.368   2.406   1.645  1.0321  0.3507  0.4907
    5bbb     C4  155   5.485   2.460   1.490  0.2243  0.7369 -0.1644
    5bbb     H7  156   5.585   2.435   1.453  0.3482 -0.9795  1.1868
    5bbb     H8  157   5.489   2.553   1.547  2.8076 -1.0206  2.8785
    5bbb     C5  158   5.273   2.166   1.771 -0.2252 -0.1895  0.2920
    5bbb     H9  159   5.270   2.275   1.786 -0.3805 -0.4208  2.2470
    5bbb    H10  160   5.290   2.131   1.874 -1.8555 -1.8706  0.0244
    5bbb     C6  161   5.613   2.113   1.488  0.7083  0.0587  0.0605
    5bbb    H11  162   5.617   2.057   1.583 -0.5259  0.9359  0.6691
    5bbb    H12  163   5.672   2.202   1.513 -0.2463  0.0974  2.5133
    5bbb     C7  164   5.381   2.480   1.374  0.4479  0.0083  0.7227
    5bbb    H13  165   5.280   2.447   1.401 -0.9979  2.6557 -0.9766
    5bbb    H14  166   5.415   2.418   1.290  1.1989  0.2080  0.8697
    5bbb     C8  167   5.675   2.027   1.371  0.0148  0.4507 -0.1226
    5bbb    H15  168   5.773   1.996   1.409  0.2058 -0.0825 -1.0279
    5bbb    H16  169   5.666   2.080   1.275 -0.7259 -0.0832 -0.3557
    5bbb     C9  170   5.136   2.116   1.714  0.0281 -0.4065  0.5495
    5bbb    H17  171   5.132   2.007   1.732  0.6123 -0.0545  3.3910
    5bbb    H18  172   5.138   2.124   1.605 -0.1427 -2.2887  0.3615
    5bbb     O1  173   5.390   2.620   1.324  0.2881  0.5974 -0.2020
    6ccc     C1  174   5.250   2.776   2.426 -0.1124  0.2372  0.0155
    6ccc     H1  175   5.234   2.751   2.532  3.0929 -0.7014  0.3723
    6ccc     H2  176   5.332   2.849   2.428  1.4210 -1.2308 -3.2881
    6ccc     C2  177   5.295   2.643   2.360  0.1999  0.5609 -0.5097
    6ccc     H3  178   5.377   2.599   2.418  0.3551  0.4626 -0.7996
    6ccc     H4  179   5.213   2.571   2.373  0.6930  0.4141  2.3826
    6ccc     C3  180   5.346   2.656   2.212  0.2617 -0.3699  0.3438
    6ccc     H5  181   5.380   2.760   2.200 -0.7803  0.0268  0.7188
    6ccc     H6  182   5.269   2.644   2.135  1.4625 -1.0824 -0.7779
    6ccc     N1  183   5.128   2.825   2.385  0.6126  0.1740 -0.0709
    6ccc     H7  184   5.073   2.744   2.415  0.2865  0.2710 -0.3981
    6ccc     H8  185   5.097   2.879   2.465  1.2210  0.6361 -0.1399
    6ccc     O1  186   5.450   2.557   2.184 -0.1329 -0.3593  0.1015
    7ccc     C1  187   5.595   3.312   1.603  0.6269  0.1806 -0.0789
    7ccc     H1  188   5.599   3.204   1.625 -2.8731 -0.3210 -1.2907
    7ccc     H2  189   5.489   3.334   1.584  0.1509  2.1074  3.8400
    7ccc     C2  190   5.643   3.398   1.723 -0.6360  0.2131 -0.8242
    7ccc     H3  191   5.746   3.377   1.755  0.0882 -2.9116 -4.4879
    7ccc     H4  192   5.631   3.501   1.688  0.3023  0.4080 -0.6103
    7ccc     C3  193   5.559   3.351   1.853 -0.7612 -0.0780  0.6093
    7ccc     H5  194   5.454   3.353   1.821 -0.3569  2.8030 -0.9479
    7ccc     H6  195   5.579   3.427   1.930 -1.7599  0.0178  0.7880
    7ccc     N1  196   5.676   3.339   1.485 -0.3620  0.5402 -0.6234
    7ccc     H7  197   5.668   3.255   1.428 -0.3511 -1.5244  2.2580
    7ccc     H8  198   5.610   3.403   1.440 -1.5633  0.8610  1.4732
    7ccc     O1  199   5.606   3.222   1.896 -0.1223  0.8484  0.2567
    8ccc     C1  200   5.046   1.524   1.301 -0.7705 -0.0576  0.7435
    8ccc     H1  201   4.957   1.522   1.364 -0.8516 -0.0480  0.6300
    8ccc     H2  202   5.033   1.578   1.206  3.9225  4.0301  2.0317
    8ccc     C2  203   5.166   1.585   1.368  0.1522 -0.2751 -0.9253
    8ccc     H3  204   5.195   1.529   1.458  0.2657 -1.0352 -1.4260
    8ccc     H4  205   5.248   1.551   1.304 -0.5861 -2.7642 -0.6598
    8ccc     C3  206   5.168   1.733   1.386 -0.2536  0.2194  0.1751
    8ccc     H5  207   5.169   1.780   1.286 -0.2579  1.0652  0.5593
    8ccc     H6  208   5.258   1.772   1.436 -0.7506  0.8046  0.6205
    8ccc     N1  209   5.071   1.386   1.265  0.5286 -0.0455 -0.3809
    8ccc     H7  210   4.995   1.356   1.204  2.9383 -0.7454 -3.2048
    8ccc     H8  211   5.153   1.387   1.206  0.9515 -0.0281  0.1974
    8ccc     O1  212   5.049   1.773   1.463  0.4398  0.5283  0.0874
    9ccc     C1  213   4.660   2.844   1.674  0.4504 -0.2215 -0.1372
    9ccc     H1  214   4.633   2.883   1.773 -2.1734  1.4127 -1.3754
    9ccc     H2  215   4.751   2.894   1.639  1.2353 -1.1097  0.5685
    9ccc     C2  216   4.677   2.696   1.675 -0.5024 -1.2073 -0.5212
    9ccc     H3  217   4.766   2.657   1.727  0.9743 -0.7270 -2.5686
    9ccc     H4  218   4.594   2.643   1.723 -1.1173  1.1270  1.1239
    9ccc     C3  219   4.693   2.633   1.534  0.1822  0.3431  0.6194
    9ccc     H5  220   4.742   2.703   1.465 -0.3549  1.4653  1.3353
    9ccc     H6  221   4.599   2.604   1.485  0.4283 -0.7664  0.7828
    9ccc     N1  222   4.535   2.879   1.598  0.6396 -0.0424  0.1245
    9ccc     H7  223   4.553   2.860   1.500 -1.4597 -3.5258  0.2529
    9ccc     H8  224   4.460   2.813   1.616 -1.0412  0.9321 -2.6882
    9ccc     O1  225   4.777   2.517   1.545 -0.3307 -0.3841 -0.1894
   10ccc     C1  226   5.842   3.035   1.522 -0.1598 -0.9023  0.1580
   10ccc     H1  227   5.789   3.123   1.482  0.6398 -0.2602  0.4841
   10ccc     H2  228   5.823   3.018   1.629  2.0569 -1.6543  0.4721
   10ccc     C2  229   5.802   2.916   1.427 -0.0015  0.0127  0.6945
   10ccc     H3  230   5.812   2.942   1.321  1.9267  1.1297  1.1063
   10ccc     H4  231   5.858   2.825   1.453 -0.3875 -0.2873  0.4857
   10ccc     C3  232   5.658   2.864   1.448 -0.5426  0.8312  1.0013
   10ccc     H5  233   5.638   2.816   1.545 -1.0809  0.8652  0.9056
   10ccc     H6  234   5.652   2.782   1.374 -0.0176  0.8468  0.9380
   10ccc     N1  235   5.994   3.059   1.517 -0.0363  0.8973  0.0901
   10ccc     H7  236   6.020   3.094   1.424 -0.8935 -0.8926 -0.8736
   10ccc     H8  237   6.023   3.137   1.576  0.3414 -0.0523  1.1944
   10ccc     O1  238   5.561   2.959   1.412  0.0621 -0.0775  0.2355
   11ccc     C1  239   4.783   2.714   2.131 -0.2782 -0.6863 -0.1673
   11ccc     H1  240   4.728   2.744   2.222  0.1451 -1.2506  0.2872
   11ccc     H2  241   4.820   2.808   2.088  3.0974 -1.7156  0.1895
   11ccc     C2  242   4.903   2.620   2.155 -0.0014  0.2419 -0.3152
   11ccc     H3  243   4.974   2.677   2.215  0.3764 -0.0399 -0.4880
   11ccc     H4  244   4.872   2.540   2.224 -1.4286  0.2854 -0.8594
   11ccc     C3  245   4.977   2.571   2.023  0.3459  0.5562  0.0058
   11ccc     H5  246   4.913   2.500   1.968  2.3402 -0.5896 -0.9186
   11ccc     H6  247   5.069   2.518   2.047  0.6413  1.3975  0.7977
   11ccc     N1  248   4.688   2.672   2.032 -0.0977  0.5345  0.1996
   11ccc     H7  249   4.745   2.637   1.956 -1.3705 -0.3075 -0.4000
   11ccc     H8  250   4.642   2.587   2.066  0.7365  0.1735  0.4671
   11ccc     O1  251   5.002   2.683   1.934 -0.4942 -0.7888  0.0397
   12ccc     C1  252   5.519   1.612   1.441 -0.2483 -0.5226  0.0665
   12ccc     H1  253   5.495   1.700   1.501 -0.7550  0.6902 -1.8632
   12ccc     H2  254   5.432   1.545   1.435  0.7197 -1.9620  1.2570
   12ccc     C2  255   5.546   1.671   1.303 -0.0103  0.4601  0.2315
   12ccc     H3  256   5.582   1.590   1.238 -1.9823 -1.3308  1.2202
   12ccc     H4  257   5.450   1.701   1.261 -0.0791  0.7755  0.6087
   12ccc     C3  258   5.639   1.792   1.298  0.8586  0.7834  0.1059
   12ccc     H5  259   5.650   1.810   1.190 -0.8838  0.9979 -0.0675
   12ccc     H6  260   5.736   1.766   1.342  1.4674  0.8394 -1.1571
   12ccc     N1  261   5.624   1.525   1.491 -0.3251  0.0746 -0.0167
   12ccc     H7  262   5.695   1.586   1.531 -0.4212 -1.2369  2.3211
   12ccc     H8  263   5.585   1.484   1.576  1.6062 -2.7848 -0.3964
   12ccc     O1  264   5.598   1.901   1.372 -0.0804  0.3522  0.6292
   13ccc     C1  265   4.746   2.246   1.903 -0.5302 -0.1289  0.0429
   13ccc     H1  266   4.819   2.300   1.964  0.9002 -1.0346 -0.8180
   13ccc     H2  267   4.647   2.293   1.897 -0.7562 -0.4789  0.8652
   13ccc     C2  268   4.797   2.241   1.754  0.3012 -0.3986  0.4450
   13ccc     H3  269   4.704   2.219   1.699 -0.3288  0.9368  0.9431
   13ccc     H4  270   4.837   2.343   1.746  0.6205 -0.6721 -3.1808
   13ccc     C3  271   4.905   2.138   1.722  0.5557 -0.4809  0.2545
   13ccc     H5  272   4.906   2.114   1.615 -1.9850  0.4835 -0.0579
   13ccc     H6  273   4.880   2.046   1.775 -2.7127  0.3080  0.3100
   13ccc     N1  274   4.723   2.112   1.963  0.0277 -0.8750 -0.2902
   13ccc     H7  275   4.809   2.058   1.953  0.3253 -0.1376 -2.0540
   13ccc     H8  276   4.723   2.133   2.063 -2.0884 -0.2069 -0.3825
   13ccc     O1  277   5.025   2.186   1.772 -0.6042 -0.6889 -0.3498
   14SOL     OW  278   0.557   5.938   5.408  0.4825 -0.3230  0.4400
   14SOL    HW1  279   0.505   5.921   5.330 -0.1777 -1.6768  1.1407
   14SOL    HW2  280   0.576   6.031   5.404 -2.3268  0.3179  0.3550
   15SOL     OW  281   0.976   3.565   3.274  0.1016 -0.6431  1.1115
   15SOL    HW1  282   1.034   3.520   3.336 -0.9851 -3.5590  0.2117
   15SOL    HW2  283   0.888   3.541   3.304 -0.4661 -1.0665 -0.7659
   16SOL     OW  284   3.089   2.383   4.509 -0.1501  0.2332 -0.1066
   16SOL    HW1  285   3.010   2.422   4.546 -0.6666 -2.8057  2.3590
   16SOL    HW2  286   3.150   2.375   4.583  1.0204 -0.8651 -1.1266
   17SOL     OW  287   1.635   2.640   3.516  0.1374 -0.0032  0.0308
   17SOL    HW1  288   1.613   2.574   3.583  0.5891  1.8293  2.0817
   17SOL    HW2  289   1.664   2.716   3.566  1.8779  0.9928 -2.3229
   18SOL     OW  290   1.272   4.132   1.050 -0.2387  0.3148 -0.2970
   18SOL    HW1  291   1.350   4.076   1.061 -0.0643  0.4729 -0.7042
   18SOL    HW2  292   1.220   4.087   0.983 -0.8449 -0.1596  0.4746
   19SOL     OW  293   0.749   5.805   5.922  1.0038 -0.3202  0.3781
   19SOL    HW1  294   0.736   5.721   5.966 -0.2457 -0.9212 -1.0244
   19SOL    HW2  295   0.675   5.858   5.952  1.2304 -0.0719  0.4915
   20SOL     OW  296   1.909   0.412   4.457 -0.2576 -0.6623 -0.0974
   20SOL    HW1  297   1.831   0.357   4.448 -1.0428  0.4531 -0.3166
   20SOL    HW2  298   1.916   0.457   4.373  1.2476 -1.5064 -0.4692
   21SOL     OW  299   5.332   0.471   2.454 -0.0389 -0.7187  0.0924
   21SOL    HW1  300   5.402   0.529   2.482 -1.1274  0.9360 -0.4309
   21SOL    HW2  301   5.334   0.475   2.358 -1.9331  0.8265  0.0536
   22SOL     OW  302   3.446   5.093   3.782  0.3481 -0.2017  0.2864
   22SOL    HW1  303   3.531   5.132   3.800  0.2426  0.2223 -0.1062
   22SOL    HW2  304   3.397   5.102   3.863  0.2162  0.7760  0.1054
   23SOL     OW  305   3.647   0.088   5.260  0.1355 -0.4279  0.2954
   23SOL    HW1  306   3.618   0.179   5.254  2.0918  0.2472  0.4869
   23SOL    HW2  307   3.613   0.046   5.182  0.9458  1.0032 -0.8654
   24SOL     OW  308   2.325   0.905   0.368 -0.4064 -0.2049  0.2714
   24SOL    HW1  309   2.394   0.930   0.307  0.8054 -0.5600  1.4442
   24SOL    HW2  310   2.357   0.824   0.409 -2.0944 -1.1009 -0.0453
   25SOL     OW  311   1.291   3.098   4.761  0.5553 -0.5267  0.1105
   25SOL    HW1  312   1.335   3.014   4.777  0.8055 -0.5109 -0.4750
   25SOL    HW2  313   1.287   3.139   4.848  1.6604 -0.5490  0.1883
   26SOL     OW  314   0.059   2.800   1.323 -0.2340  0.3252  0.7378
   26SOL    HW1  315   0.043   2.821   1.415 -0.9922 -0.6333  0.8446
   26SOL    HW2  316   0.027   2.876   1.275 -1.2826  0.1855  1.1966
   27SOL     OW  317   1.847   4.147   2.909  0.5107  0.5900 -0.2018
   27SOL    HW1  318   1.870   4.054   2.912  0.5112  0.6100  0.6559
   27SOL    HW2  319   1.795   4.161   2.989  0.3692  1.2878 -0.4113
   28SOL     OW  320   0.754   1.189   2.668  0.1815 -0.3938  0.4325
   28SOL    HW1  321   0.707   1.218   2.747  0.5112  0.2355  0.4078
   28SOL    HW2  322   0.707   1.232   2.596  0.3949 -0.2857  0.3574
   29SOL     OW  323   4.974   4.965   1.762  0.3471 -0.2196 -0.1304
   29SOL    HW1  324   5.006   5.053   1.779 -1.0295  0.0998  0.9759
   29SOL    HW2  325   5.054   4.913   1.745  1.2120  1.0740 -0.1481
   30SOL     OW  326   3.338   1.741   1.107  0.1476  0.1498  0.1171
   30SOL    HW1  327   3.298   1.807   1.164  0.3808 -1.5286  2.3249
   30SOL    HW2  328   3.297   1.757   1.021 -2.0726  1.2248  1.2692
   31SOL     OW  329   4.057   5.225   4.761  0.6885  0.3841 -0.4621
   31SOL    HW1  330   4.110   5.303   4.778  0.8856 -0.1020  1.3773
   31SOL    HW2  331   4.024   5.237   4.672  1.8689  1.8757 -0.7403
   32SOL     OW  332   0.550   2.147   2.904 -0.3303 -0.1852 -0.1338
   32SOL    HW1  333   0.478   2.208   2.919 -1.8323 -1.5427 -1.5755
   32SOL    HW2  334   0.529   2.071   2.958  0.2627 -0.4253 -0.2285
   33SOL     OW  335   5.112   0.308   5.583 -0.0833  0.2540 -0.5258
   33SOL    HW1  336   5.196   0.264   5.570  0.1789  0.9083 -1.1484
   33SOL    HW2  337   5.114   0.336   5.675  0.5449  0.5866 -0.6359
   34SOL     OW  338   6.112   1.523   3.552 -0.3504  0.5307  0.2860
   34SOL    HW1  339   6.026   1.528   3.511 -0.1171 -0.7795 -0.4392
   34SOL    HW2  340   6.163   1.593   3.511 -0.9895  1.1681  0.5588
   35SOL     OW  341   0.878   0.147   4.466 -0.0216 -0.8874  0.2342
   35SOL    HW1  342   0.882   0.186   4.553  0.3959 -0.1976 -0.0800
   35SOL    HW2  343   0.933   0.069   4.472  0.3332 -0.6243  0.4861
   36SOL     OW  344   0.741   2.120   5.510  0.3830  0.4202 -0.3617
   36SOL    HW1  345   0.742   2.206   5.469  0.0792 -0.2050 -1.7567
   36SOL    HW2  346   0.648   2.102   5.525  0.5416  1.0516  1.5669
   37SOL     OW  347   6.062   4.685   4.451 -0.0747 -0.5081  0.2225
   37SOL    HW1  348   6.147   4.659   4.486 -1.1188 -3.7397  0.7449
   37SOL    HW2  349   6.000   4.663   4.520 -1.3786  2.2941  0.0699
   38SOL     OW  350   3.775   4.484   3.666  0.2621  0.0502 -0.4099
   38SOL    HW1  351   3.870   4.493   3.668  0.3328  0.6348  3.9046
   38SOL    HW2  352   3.743   4.574   3.674 -0.4402 -0.3467  1.8432
   39SOL     OW  353   4.812   5.913   5.786 -0.0057 -0.5397  0.4981
   39SOL    HW1  354   4.766   5.904   5.702  2.0051 -0.4137 -0.6877
   39SOL    HW2  355   4.791   6.001   5.815  1.5696  0.5524 -1.4078
   40SOL     OW  356   0.739   3.162   5.095 -0.4535 -0.2501 -0.3589
   40SOL    HW1  357   0.699   3.075   5.089  0.9581 -0.9281 -0.3563
   40SOL    HW2  358   0.769   3.182   5.007 -0.1431 -0.0872 -0.2207
   41SOL     OW  359   3.456   5.107   0.355  0.3648 -0.7947 -0.4919
   41SOL    HW1  360   3.453   5.129   0.261 -0.0682 -2.9263 -1.0336
   41SOL    HW2  361   3.537   5.147   0.387  1.6260 -1.7625 -2.2860
   42SOL     OW  362   4.916   2.224   4.187  0.1036  0.7179 -0.3069
   42SOL    HW1  363   4.897   2.131   4.175  0.7677  0.6036 -0.5118
   42SOL    HW2  364   4.841   2.258   4.235 -0.2889  0.1400 -0.5008
   43SOL     OW  365   1.269   4.164   3.953  0.0296  0.0733  0.0655
   43SOL    HW1  366   1.290   4.236   4.012 -0.7756  1.7393 -1.5488
   43SOL    HW2  367   1.275   4.086   4.007  2.7970  1.1105  1.4797
   44SOL     OW  368   5.645   5.946   1.246  0.3116 -0.5210  0.3736
   44SOL    HW1  369   5.630   5.911   1.158  0.5244 -1.8706  0.8568
   44SOL    HW2  370   5.732   5.915   1.270  1.1534  1.5828  0.2672
   45SOL     OW  371   2.916   2.099   0.806  0.0155 -0.1988  0.3620
   45SOL    HW1  372   2.876   2.112   0.892 -1.4673 -1.2794 -0.1268
   45SOL    HW2  373   2.870   2.161   0.749  0.2965 -0.1853  0.1473
   46SOL     OW  374   4.920   4.875   4.877 -0.2165  0.1596  0.2681
   46SOL    HW1  375   4.878   4.897   4.960 -0.2693  1.5651 -0.0941
   46SOL    HW2  376   4.851   4.884   4.811  0.2047  0.6814 -0.1114
   47SOL     OW  377   4.945   0.376   1.291  0.4676  0.3120  0.2241
   47SOL    HW1  378   4.949   0.280   1.298  1.3135  0.3791  0.8343
   47SOL    HW2  379   4.990   0.407   1.370  1.7876  1.1997 -0.8214
   48SOL     OW  380   3.713   0.881   2.041 -0.4397 -0.0060  0.0598
   48SOL    HW1  381   3.791   0.919   2.080  0.8341 -1.0921 -1.3070
   48SOL    HW2  382   3.654   0.955   2.028 -0.3424  0.6187  2.5544
   49SOL     OW  383   2.020   4.607   1.464  0.1875  0.5062  0.4039
   49SOL    HW1  384   2.046   4.519   1.436  0.7584  0.7892  0.0067
   49SOL    HW2  385   1.967   4.640   1.391  0.1486  0.5696  0.4614
   50SOL     OW  386   0.577   1.435   2.722  0.0013  0.5212 -0.2926
   50SOL    HW1  387   0.526   1.399   2.794  0.3179  0.7763  0.0612
   50SOL    HW2  388   0.563   1.373   2.650 -2.4688  1.6420 -0.8746
   51SOL     OW  389   6.099   5.201   1.342  0.5163  0.3332 -0.0355
   51SOL    HW1  390   6.120   5.166   1.255 -1.2689 -1.5180  0.2188
   51SOL    HW2  391   6.004   5.199   1.347  0.5450  1.2496  1.6611
   52SOL     OW  392   0.566   0.929   1.379  0.1759 -0.3194 -0.0595
   52SOL    HW1  393   0.632   0.954   1.314  0.1996  1.4635  0.5939
   52SOL    HW2  394   0.584   0.837   1.397  2.4787  0.0792  0.0421
   53SOL     OW  395   4.885   0.457   3.987  0.2019  0.4389  0.0063
   53SOL    HW1  396   4.851   0.547   3.986 -1.4682 -0.1399  0.3402
   53SOL    HW2  397   4.833   0.411   3.921  1.9803  0.0009 -1.1458
   54SOL     OW  398   4.265   0.459   1.013  0.6509 -0.7349  0.1814
   54SOL    HW1  399   4.263   0.373   1.055  0.3861 -1.1052 -0.5755
   54SOL    HW2  400   4.210   0.449   0.936 -0.9858  0.6624  1.1099
   55SOL     OW  401   0.513   1.618   5.748 -0.3391  0.1917  0.4136
   55SOL    HW1  402   0.518   1.611   5.653  0.0632 -0.2730  0.4653
   55SOL    HW2  403   0.420   1.617   5.768 -0.4172  0.0567  0.0445
   56SOL     OW  404   2.997   0.359   3.748 -0.3174 -0.3295  0.0805
   56SOL    HW1  405   3.078   0.366   3.697  0.2903 -2.5747  0.6264
   56SOL    HW2  406   2.927   0.382   3.687  0.6503  0.6429 -0.6860
   57SOL     OW  407   0.661   2.783   0.863  0.1340  0.5234  0.3204
   57SOL    HW1  408   0.729   2.720   0.889 -0.2600  0.4073  1.0907
   57SOL    HW2  409   0.637   2.756   0.775  1.0860  0.5633  0.0348
   58SOL     OW  410   4.875   1.268   5.436 -0.0110 -0.3937 -0.1831
   58SOL    HW1  411   4.882   1.297   5.527 -2.1934 -2.2801  0.7097
   58SOL    HW2  412   4.921   1.184   5.435 -0.8114 -0.8470 -0.5185
   59SOL     OW  413   1.109   5.160   2.907 -0.0735  0.0959 -0.5289
   59SOL    HW1  414   1.166   5.190   2.837  0.4408  1.8090  0.5578
   59SOL    HW2  415   1.072   5.077   2.875  2.3181 -0.6249 -1.6130
   60SOL     OW  416   4.423   0.532   2.625 -0.4806 -0.5395  0.2264
   60SOL    HW1  417   4.377   0.596   2.570 -0.2524 -0.3956  0.2003
   60SOL    HW2  418   4.450   0.582   2.702 -1.1070 -0.8208  0.6394
   61SOL     OW  419   3.485   6.071   5.996 -0.2448 -0.5323  0.5199
   61SOL    HW1  420   3.420   6.139   5.975 -1.3163 -1.4187  0.8291
   61SOL    HW2  421   3.438   5.989   5.983  0.7844 -1.2036  0.9180
   62SOL     OW  422   3.022   4.372   6.079 -0.3237 -0.2971  0.5099
   62SOL    HW1  423   2.969   4.305   6.123 -0.4423 -0.2650  0.4164
   62SOL    HW2  424   3.002   4.453   6.126 -0.1965 -0.3229  0.6086
   63SOL     OW  425   3.762   3.328   1.211  0.4704  0.4264 -0.0242
   63SOL    HW1  426   3.785   3.404   1.157  3.2776 -1.3466 -1.6215
   63SOL    HW2  427   3.799   3.347   1.297  1.8440  0.6197 -0.6244
   64SOL     OW  428   5.910   5.049   3.692 -0.4681  0.3004  0.1088
   64SOL    HW1  429   5.974   5.114   3.666  0.0337  0.7153  2.1595
   64SOL    HW2  430   5.958   4.988   3.748 -1.6855  0.2288  1.1371
   65SOL     OW  431   2.381   2.076   0.664 -0.2813  0.4653  0.2317
   65SOL    HW1  432   2.346   2.151   0.617 -1.5866  0.6501  1.4546
   65SOL    HW2  433   2.408   2.110   0.749  0.8415 -0.1114  0.1325
   66SOL     OW  434   1.322   5.411   0.632  0.5948 -0.6291 -0.2081
   66SOL    HW1  435   1.307   5.343   0.566 -2.2749 -1.4736  1.1420
   66SOL    HW2  436   1.304   5.493   0.586 -0.1063 -1.1094 -0.8324
   67SOL     OW  437   3.078   4.011   2.418 -0.3910 -0.2695 -0.1301
   67SOL    HW1  438   3.145   4.050   2.362  1.0359 -1.7032  0.4802
   67SOL    HW2  439   3.063   3.924   2.380 -3.1817  0.5734 -1.2162
   68SOL     OW  440   3.444   3.138   0.093 -0.1844  0.4744  0.3663
   68SOL    HW1  441   3.406   3.172   0.012 -0.5412  1.3719  0.8938
   68SOL    HW2  442   3.517   3.085   0.064 -0.8631  0.0277 -0.5937
   69SOL     OW  443   2.329   4.711   6.068 -0.2429  0.0060  0.1498
   69SOL    HW1  444   2.321   4.634   6.010  0.1223  0.3374 -0.3485
   69SOL    HW2  445   2.239   4.742   6.079 -0.3655 -0.3428  0.1494
   70SOL     OW  446   2.165   1.940   2.061 -0.2228  0.2743 -0.4839
   70SOL    HW1  447   2.209   2.017   2.027 -2.9212  1.9083 -0.5561
   70SOL    HW2  448   2.091   1.974   2.111 -1.3801 -2.2496 -0.2893
   71SOL     OW  449   0.222   4.444   3.905 -0.0836 -0.4842 -0.1930
   71SOL    HW1  450   0.300   4.411   3.863  0.1167  0.6882 -0.7765
   71SOL    HW2  451   0.173   4.487   3.835 -0.4941  0.1354  0.4611
   72SOL     OW  452   2.127   0.423   2.601  0.1509  0.8230 -0.0617
   72SOL    HW1  453   2.081   0.348   2.563  1.6699  0.7624 -1.9367
   72SOL    HW2  454   2.078   0.499   2.572 -1.7597  0.6378  2.3539
   73SOL     OW  455   4.954   0.491   0.769  0.5018  0.0422 -0.0481
   73SOL    HW1  456   5.027   0.443   0.729  0.5247  0.1439 -0.1269
   73SOL    HW2  457   4.988   0.579   0.784  1.0244 -0.3937  1.6511
   74SOL     OW  458   0.997   0.309   1.008  0.5295 -0.3442  0.1944
   74SOL    HW1  459   1.006   0.403   0.995 -0.4834 -0.4249 -1.3400
   74SOL    HW2  460   0.993   0.298   1.103 -0.3062  1.2472  0.3791
   75SOL     OW  461   3.092   0.450   6.051  0.5872  0.3730 -0.4493
   75SOL    HW1  462   3.102   0.524   6.111 -2.9500 -0.5933  1.6692
   75SOL    HW2  463   3.136   0.377   6.096  1.9268  0.6141 -1.3338
   76SOL     OW  464   0.430   4.318   2.688 -0.6164 -0.1635 -0.6068
   76SOL    HW1  465   0.518   4.280   2.695 -0.5923 -0.1596 -0.8966
   76SOL    HW2  466   0.391   4.276   2.612 -0.3059  0.9374 -1.4117
   77SOL     OW  467   1.940   1.114   3.060  0.2687  0.6567 -0.3154
   77SOL    HW1  468   1.872   1.048   3.071  1.8525 -1.6044 -2.7954
   77SOL    HW2  469   1.899   1.182   3.007 -0.4055 -0.1211 -0.8134
   78SOL     OW  470   6.081   0.642   5.810  1.1341  0.4441  0.0070
   78SOL    HW1  471   6.171   0.639   5.777  1.6476 -2.9378  1.3465
   78SOL    HW2  472   6.033   0.580   5.755  0.2493  0.3421  0.8688
   79SOL     OW  473   4.887   4.914   4.118 -0.1674 -0.0213 -0.2818
   79SOL    HW1  474   4.904   4.861   4.196 -2.0668 -0.4849 -0.1236
   79SOL    HW2  475   4.815   4.972   4.145 -0.1234  0.5530 -1.3733
   80SOL     OW  476   2.922   3.651   0.225 -1.1263 -0.2648 -0.0455
   80SOL    HW1  477   2.873   3.728   0.254 -0.0518  0.3463  0.1852
   80SOL    HW2  478   3.013   3.680   0.223 -0.5214 -1.8881  1.3246
   81SOL     OW  479   1.485   5.239   3.168  0.1397  0.6710  0.3570
   81SOL    HW1  480   1.580   5.248   3.163  0.0927  0.7332 -0.5833
   81SOL    HW2  481   1.466   5.244   3.261  1.1976 -0.7069  0.6950
   82SOL     OW  482   3.840   5.184   3.720  0.3982  0.0526 -0.6589
   82SOL    HW1  483   3.887   5.129   3.657 -0.0533 -0.0102 -0.9485
   82SOL    HW2  484   3.908   5.214   3.781  1.4654  2.6775 -2.9363
   83SOL     OW  485   6.037   0.231   4.322  0.2640 -0.4292  0.1888
   83SOL    HW1  486   6.063   0.197   4.237 -0.9859 -0.4814 -0.1894
   83SOL    HW2  487   6.025   0.325   4.307  0.4058 -0.3753  0.4051
   84SOL     OW  488   1.740   2.773   2.334  0.4865 -0.6061 -0.0925
   84SOL    HW1  489   1.735   2.712   2.407  0.2789 -1.1189 -0.5313
   84SOL    HW2  490   1.825   2.816   2.343 -0.2631  0.6758  1.5106
   85SOL     OW  491   3.696   4.783   5.691  0.0765  0.1524  0.2258
   85SOL    HW1  492   3.725   4.747   5.607 -1.0719  1.0425 -0.5862
   85SOL    HW2  493   3.602   4.799   5.679 -0.0805  0.4074  1.6409
   86SOL     OW  494   4.964   5.202   1.253 -0.1825  0.0793 -0.8830
   86SOL    HW1  495   5.056   5.182   1.268  0.1143  0.6735 -1.8570
   86SOL    HW2  496   4.922   5.116   1.240  0.4379 -0.1290 -1.5620
   87SOL     OW  497   4.499   4.168   2.953  0.1643  0.0486  0.2430
   87SOL    HW1  498   4.411   4.176   2.918 -0.3324 -0.5186  1.3448
   87SOL    HW2  499   4.505   4.078   2.986  1.2166  0.0149  0.0287
   88SOL     OW  500   5.500   5.897   3.621  0.1937 -0.0809 -0.2255
   88SOL    HW1  501   5.442   5.857   3.556 -0.4727  0.2670  0.1430
   88SOL    HW2  502   5.531   5.977   3.580 -2.6714  1.8075  0.9494
   89SOL     OW  503   1.134   3.779   5.922  0.2842  0.1034  0.4266
   89SOL    HW1  504   1.198   3.709   5.936 -0.5828 -0.8474 -0.2029
   89SOL    HW2  505   1.186   3.859   5.917  1.6861 -0.8592 -2.1483
   90SOL     OW  506   5.608   1.726   2.040 -0.1854  0.2836  0.5165
   90SOL    HW1  507   5.574   1.731   1.950  0.9219  1.9993  0.1629
   90SOL    HW2  508   5.603   1.815   2.073 -0.6003 -0.3271  2.2175
   91SOL     OW  509   3.074   5.351   4.830  0.7110  0.2256 -0.0076
   91SOL    HW1  510   3.127   5.419   4.872  1.1185 -0.1998  0.1789
   91SOL    HW2  511   2.994   5.396   4.803  0.8353  0.7031  0.4083
   92SOL     OW  512   4.919   4.642   4.023 -0.7454  0.4823  0.4728
   92SOL    HW1  513   4.918   4.601   4.109  0.4537  0.8113  0.6679
   92SOL    HW2  514   4.890   4.732   4.039 -2.0001  0.1267  0.2738
   93SOL     OW  515   4.903   2.548   4.287  0.3168 -0.0003 -0.2254
   93SOL    HW1  516   4.867   2.578   4.203  0.5979  2.0298  0.3138
   93SOL    HW2  517   4.995   2.531   4.269  0.5913  1.3066 -0.1697
   94SOL     OW  518   2.336   3.102   5.182  0.4016  0.1915  0.2181
   94SOL    HW1  519   2.404   3.088   5.248  0.5193  0.9399  0.2590
   94SOL    HW2  520   2.372   3.169   5.124  0.0390 -0.0079 -0.2449
   95SOL     OW  521   6.074   3.045   1.206  0.5471  0.2709  0.2533
   95SOL    HW1  522   6.077   3.138   1.230  0.0382  0.1290  0.8786
   95SOL    HW2  523   5.982   3.027   1.188  0.9277  0.4463 -2.2064
   96SOL     OW  524   4.413   5.072   2.636  0.0416  0.2284  0.3128
   96SOL    HW1  525   4.422   4.994   2.691  3.4198  0.9131  0.9472
   96SOL    HW2  526   4.408   5.037   2.547  1.5678 -0.7844  0.5793
   97SOL     OW  527   2.014   5.109   2.157 -0.2976 -0.4356 -0.2076
   97SOL    HW1  528   2.078   5.164   2.111 -0.0297 -0.8285 -0.3054
   97SOL    HW2  529   2.005   5.150   2.243 -0.9234  0.4015 -0.6466
   98SOL     OW  530   3.996   0.138   3.581  0.3664  0.5095  0.1747
   98SOL    HW1  531   4.072   0.135   3.639  0.3147 -0.8900  0.2234
   98SOL    HW2  532   4.032   0.128   3.493  0.1753 -2.8108  0.3345
   99SOL     OW  533   2.603   1.572   5.435  0.2376  0.2430 -0.7654
   99SOL    HW1  534   2.552   1.629   5.378  1.7099  0.6143 -1.7861
   99SOL    HW2  535   2.601   1.486   5.392 -0.2823  0.0209 -0.3111
  100SOL     OW  536   1.387   4.599   4.175  0.2472  0.4015 -0.1524
  100SOL    HW1  537   1.432   4.576   4.256  2.7854 -0.1570 -1.6129
  100SOL    HW2  538   1.381   4.517   4.126  0.7798  1.0880 -1.4259
  101SOL     OW  539   2.232   1.589   0.630  0.0182 -0.1879 -0.5297
  101SOL    HW1  540   2.171   1.630   0.569 -0.5389  0.5702  0.5148
  101SOL    HW2  541   2.305   1.650   0.637  1.4570 -1.5215 -2.5291
  102SOL     OW  542   0.745   5.509   5.745 -0.0633  0.0797  0.7060
  102SOL    HW1  543   0.657   5.539   5.769 -0.3576 -0.2535  0.0855
  102SOL    HW2  544   0.758   5.544   5.657 -1.2276 -3.1577 -0.8967
  103SOL     OW  545   0.021   5.014   1.943 -0.1691 -0.6561 -0.2731
  103SOL    HW1  546   0.023   5.107   1.920  0.8582 -0.1860  1.5105
  103SOL    HW2  547   0.073   4.971   1.875 -1.3513 -0.0865 -1.5999
  104SOL     OW  548   2.414   3.410   4.718 -0.4413  0.2027  0.0774
  104SOL    HW1  549   2.410   3.400   4.623 -1.0011 -1.4672  0.2500
  104SOL    HW2  550   2.398   3.503   4.733 -1.4857  0.2899 -1.4017
  105SOL     OW  551   3.394   1.319   4.089  0.4021  0.9716 -0.3495
  105SOL    HW1  552   3.387   1.384   4.159 -0.5097  0.0762  0.4128
  105SOL    HW2  553   3.309   1.277   4.086  1.2740 -0.8988 -0.1438
  106SOL     OW  554   5.341   3.918   2.836 -0.0749 -0.1525  0.1211
  106SOL    HW1  555   5.261   3.942   2.884 -0.1262  2.3391 -1.0740
  106SOL    HW2  556   5.313   3.914   2.745  0.6303 -2.0706 -0.0547
  107SOL     OW  557   1.392   5.159   2.300  0.1592  0.2831  0.3978
  107SOL    HW1  558   1.420   5.156   2.208 -1.3935 -0.1735 -0.0837
  107SOL    HW2  559   1.342   5.078   2.312 -1.1752  1.1873  1.1256
  108SOL     OW  560   2.380   0.608   4.930  0.3018  0.0988 -0.2587
  108SOL    HW1  561   2.458   0.652   4.966  0.2756  0.6984 -0.9061
  108SOL    HW2  562   2.398   0.515   4.941  1.3040  0.2132 -0.7718
  109SOL     OW  563   5.541   4.573   2.070  0.3836 -0.0727  0.5187
  109SOL    HW1  564   5.575   4.631   2.003  0.2889 -2.0026 -1.3076
  109SOL    HW2  565   5.615   4.561   2.130  1.3658 -0.3402 -0.6909
  110SOL     OW  566   3.952   4.563   0.669 -0.1625 -0.1623 -0.4477
  110SOL    HW1  567   3.989   4.636   0.620 -1.4864  0.3899 -0.6368
  110SOL    HW2  568   3.919   4.503   0.601  1.1887 -1.1143 -0.3087
  111SOL     OW  569   1.216   4.535   1.889  0.7621  0.0969 -0.1412
  111SOL    HW1  570   1.161   4.606   1.920  1.7938  0.3439  1.2181
  111SOL    HW2  571   1.266   4.572   1.816  1.1497  0.7163  0.4343
  112SOL     OW  572   1.369   1.714   3.763  0.0955  0.0204 -0.4296
  112SOL    HW1  573   1.436   1.710   3.831 -1.5971 -1.4110  1.2686
  112SOL    HW2  574   1.318   1.792   3.783  0.5255  0.4616 -1.0200
  113SOL     OW  575   1.710   5.142   4.969  0.0006 -0.4509  0.1818
  113SOL    HW1  576   1.784   5.107   5.019 -1.3827 -1.9707  1.2589
  113SOL    HW2  577   1.717   5.100   4.883 -0.1749 -1.4074  0.6222
  114SOL     OW  578   1.055   2.318   5.673 -0.0956  0.4769 -0.0486
  114SOL    HW1  579   1.062   2.241   5.730 -0.2321  0.2695 -0.3122
  114SOL    HW2  580   0.969   2.355   5.695 -0.9068 -0.5605 -1.3083
  115SOL     OW  581   4.299   1.379   4.019  0.1859  0.1786 -0.2858
  115SOL    HW1  582   4.355   1.380   3.942  2.1055 -0.0090  1.0352
  115SOL    HW2  583   4.253   1.463   4.017 -1.0401 -0.4726 -2.4348
  116SOL     OW  584   1.988   5.225   4.820 -0.2208 -0.8284 -0.1566
  116SOL    HW1  585   1.988   5.298   4.881  0.1156  0.1450 -1.2682
  116SOL    HW2  586   1.915   5.243   4.761  0.9578 -0.3775 -1.5508
  117SOL     OW  587   0.913   2.798   5.983 -0.5870 -0.2891 -0.3507
  117SOL    HW1  588   0.868   2.842   6.055 -0.1800 -0.7805  0.2090
  117SOL    HW2  589   0.909   2.705   6.005  0.7718 -0.3368 -0.2501
  118SOL     OW  590   1.793   4.472   0.039 -0.1502 -0.0418 -0.3473
  118SOL    HW1  591   1.813   4.559   0.004  0.4888 -0.3543 -0.7667
  118SOL    HW2  592   1.733   4.489   0.112  0.0067  0.7515 -0.3956
  119SOL     OW  593   4.260   4.925   2.348  0.3371  1.1972 -0.5831
  119SOL    HW1  594   4.199   4.996   2.326 -1.0186 -0.0448 -0.9781
  119SOL    HW2  595   4.203   4.853   2.377  1.6114 -0.0668 -1.1346
  120SOL     OW  596   2.654   6.146   4.783  0.2788  0.3285 -0.2132
  120SOL    HW1  597   2.728   6.172   4.839  0.1569 -1.2468  0.7601
  120SOL    HW2  598   2.683   6.168   4.695  2.2545 -0.8583  0.0590
  121SOL     OW  599   3.245   3.608   5.227  0.0628  0.3374  0.0663
  121SOL    HW1  600   3.295   3.683   5.194  0.2685  0.2018  0.0703
  121SOL    HW2  601   3.159   3.645   5.248  0.2416  0.6240  0.3080
  122SOL     OW  602   4.937   4.390   0.114 -0.1872 -0.0761 -0.1737
  122SOL    HW1  603   4.940   4.368   0.021 -0.6319  0.5632 -0.3435
  122SOL    HW2  604   4.946   4.306   0.159 -0.8303 -0.4957 -0.8082
  123SOL     OW  605   0.073   4.893   0.267  0.1196  0.2663 -0.4323
  123SOL    HW1  606   0.047   4.900   0.175  0.2845  0.9923 -0.4355
  123SOL    HW2  607   0.161   4.854   0.264 -0.2147 -0.4966 -0.5257
  124SOL     OW  608   4.010   4.261   0.187 -0.5319  0.2870 -0.4469
  124SOL    HW1  609   3.970   4.291   0.105  0.2915  1.4001 -0.4710
  124SOL    HW2  610   4.047   4.340   0.225  0.4561 -0.4842  0.2333
  125SOL     OW  611   4.839   3.655   1.970  0.4266 -0.1850  0.5388
  125SOL    HW1  612   4.925   3.650   2.012 -0.6021 -1.9754  2.6635
  125SOL    HW2  613   4.850   3.607   1.888  1.0912 -2.0353  1.6266
  126SOL     OW  614   0.235   3.423   0.594  0.0618 -0.0187 -0.0573
  126SOL    HW1  615   0.188   3.340   0.598 -1.5449  0.8784  0.9438
  126SOL    HW2  616   0.324   3.399   0.566 -0.2450 -2.1032  0.5393
  127SOL     OW  617   5.003   5.705   1.084 -0.1958 -0.3407  0.0693
  127SOL    HW1  618   5.059   5.640   1.042 -0.5978 -0.4401 -0.3287
  127SOL    HW2  619   4.952   5.742   1.012 -0.7676 -0.3837  0.4474
  128SOL     OW  620   0.598   2.664   3.309  0.0250  0.1169  0.9197
  128SOL    HW1  621   0.572   2.727   3.241 -0.5925 -0.2379  0.8204
  128SOL    HW2  622   0.555   2.582   3.284 -1.4029  0.3293  2.4920
  129SOL     OW  623   5.289   6.037   3.875  0.2870  0.2013  0.1545
  129SOL    HW1  624   5.379   6.029   3.907  0.6379  0.8826 -0.6507
  129SOL    HW2  625   5.283   6.125   3.839 -1.0973  0.6596  1.3679
  130SOL     OW  626   0.512   4.216   1.936  0.3902 -0.2675 -0.4108
  130SOL    HW1  627   0.492   4.308   1.921  0.3366 -0.1574  0.3053
  130SOL    HW2  628   0.596   4.203   1.892  1.9046  0.8893  1.9051
  131SOL     OW  629   4.957   1.519   0.476  0.2269  0.6607 -0.1675
  131SOL    HW1  630   4.938   1.430   0.446  1.3489  0.2999  0.1497
  131SOL    HW2  631   4.940   1.515   0.571  2.3762  0.1428  0.2517
  132SOL     OW  632   5.104   0.752   3.213  0.3707 -0.6321  0.7671
  132SOL    HW1  633   5.146   0.797   3.286  0.5266  2.9531 -1.2829
  132SOL    HW2  634   5.176   0.732   3.153  0.0237 -1.8094  0.7153
  133SOL     OW  635   5.568   1.100   3.246  0.2226  0.1141 -0.2080
  133SOL    HW1  636   5.478   1.072   3.230 -0.2355  0.8650  0.9693
  133SOL    HW2  637   5.618   1.019   3.250 -0.7769 -0.4624  1.3468
  134SOL     OW  638   5.921   3.298   0.149  0.0770 -0.4711 -0.3015
  134SOL    HW1  639   5.832   3.267   0.133 -0.1406 -0.5725  0.9753
  134SOL    HW2  640   5.916   3.345   0.232  1.0780  0.1248 -0.5557
  135SOL     OW  641   5.787   6.074   2.655  0.2310 -0.3877 -0.5063
  135SOL    HW1  642   5.747   5.987   2.647  2.2161 -1.5525  1.1323
  135SOL    HW2  643   5.816   6.095   2.566  0.3562 -1.7525 -0.8158
  136SOL     OW  644   2.213   0.062   4.532 -0.4403 -0.0451  0.3852
  136SOL    HW1  645   2.262   0.012   4.466 -0.2605 -1.2808  1.4163
  136SOL    HW2  646   2.265   0.054   4.612  0.1277  2.7167  0.3803
  137SOL     OW  647   2.156   3.274   3.388  0.0919  0.0506  0.2038
  137SOL    HW1  648   2.069   3.239   3.368 -0.4731  0.4778  1.7590
  137SOL    HW2  649   2.195   3.209   3.447  0.7298 -0.0157 -0.2843
  138SOL     OW  650   1.950   3.897   2.922  0.4139  0.6841  0.6725
  138SOL    HW1  651   2.043   3.883   2.907  0.3137  1.5844 -1.0930
  138SOL    HW2  652   1.907   3.841   2.856 -0.2748  0.6776  1.1189
  139SOL     OW  653   3.208   4.809   5.747  0.1220  0.2194  0.4861
  139SOL    HW1  654   3.156   4.848   5.817  0.4505  0.5858  0.5326
  139SOL    HW2  655   3.144   4.770   5.687 -0.1200 -1.0035  1.5101
  140SOL     OW  656   3.061   0.531   2.967 -0.3390  0.5898  0.2293
  140SOL    HW1  657   3.041   0.439   2.986 -1.0924  0.4941 -0.9077
  140SOL    HW2  658   2.997   0.556   2.901  0.3183  1.7312 -0.0013
  141SOL     OW  659   0.951   0.674   0.313  0.1632 -0.2457  0.4509
  141SOL    HW1  660   0.985   0.598   0.359  0.1064 -0.0064  0.8909
  141SOL    HW2  661   0.907   0.726   0.381 -0.7026 -0.3319 -0.0238
  142SOL     OW  662   0.142   3.243   4.064 -0.2114 -0.1079  0.0776
  142SOL    HW1  663   0.068   3.193   4.029 -0.0959  0.4368 -1.0123
  142SOL    HW2  664   0.217   3.213   4.012  0.5362 -1.3178  1.7751
  143SOL     OW  665   5.141   3.677   3.470 -0.2065  0.0305 -0.2482
  143SOL    HW1  666   5.153   3.761   3.426  1.1315 -0.5108 -0.9901
  143SOL    HW2  667   5.184   3.689   3.555  0.6761 -0.1164 -0.6573
  144SOL     OW  668   3.655   2.387   0.523  0.4500 -0.6685  0.2904
  144SOL    HW1  669   3.678   2.361   0.434 -1.4023 -0.5414 -0.2712
  144SOL    HW2  670   3.689   2.316   0.578 -0.6204 -2.0898 -0.7936
  145SOL     OW  671   0.482   3.621   3.470  0.0952 -0.3413  0.6110
  145SOL    HW1  672   0.398   3.664   3.453  0.7260  1.1651  1.1311
  145SOL    HW2  673   0.504   3.578   3.387 -0.8614 -0.1812  0.2592
  146SOL     OW  674   5.245   1.310   3.581 -0.6041 -0.4033  0.1743
  146SOL    HW1  675   5.178   1.257   3.537  0.2241 -1.9373  0.6878
  146SOL    HW2  676   5.328   1.281   3.543 -0.1210  0.6754  0.3514
  147SOL     OW  677   4.177   3.465   2.320 -0.4131 -0.1324 -0.1355
  147SOL    HW1  678   4.237   3.419   2.377 -0.3358 -2.0117 -1.6520
  147SOL    HW2  679   4.221   3.547   2.299  0.7201 -0.5981  0.3766
  148SOL     OW  680   3.597   0.629   5.492 -0.1158 -0.3424 -0.3613
  148SOL    HW1  681   3.564   0.654   5.578 -0.9782  0.5111 -0.9179
  148SOL    HW2  682   3.683   0.671   5.487  1.2640 -2.7618  1.1815
  149SOL     OW  683   1.240   1.424   3.544 -0.0201 -0.2074 -0.4189
  149SOL    HW1  684   1.189   1.347   3.569  0.4434 -0.1492  0.7732
  149SOL    HW2  685   1.292   1.395   3.469 -0.7116 -0.7015 -0.7182
  150SOL     OW  686   4.184   5.701   0.610  0.2247  0.3719 -0.5862
  150SOL    HW1  687   4.160   5.782   0.564  0.6624  1.1723  0.5249
  150SOL    HW2  688   4.109   5.682   0.666 -0.6202 -1.0136 -2.0912
  151SOL     OW  689   1.955   5.113   5.689  0.4518 -0.3694 -0.0353
  151SOL    HW1  690   1.969   5.204   5.664 -0.6498  0.0056  0.6656
  151SOL    HW2  691   1.915   5.117   5.775  1.4731 -1.5606  0.5324
  152SOL     OW  692   3.387   5.697   4.825  0.3255  0.0005 -0.3599
  152SOL    HW1  693   3.389   5.669   4.733  3.1679  0.1958 -0.4534
  152SOL    HW2  694   3.479   5.700   4.851 -0.2997  1.7558  1.9703
  153SOL     OW  695   2.927   5.144   4.935  0.5618 -0.2934 -0.2669
  153SOL    HW1  696   2.993   5.206   4.904 -0.2982  0.4820 -0.6333
  153SOL    HW2  697   2.949   5.061   4.893  1.9143 -0.3351  0.4635
  154SOL     OW  698   5.908   3.432   1.450  0.5980 -0.0398 -0.6542
  154SOL    HW1  699   5.822   3.408   1.485  0.0498  2.5800  0.0149
  154SOL    HW2  700   5.967   3.425   1.525  0.0509  2.3813  0.0971
  155SOL     OW  701   0.790   0.260   0.600  0.2550 -0.3006  0.3624
  155SOL    HW1  702   0.730   0.334   0.605  0.7605  0.1588 -0.2460
  155SOL    HW2  703   0.790   0.236   0.507 -0.9907 -1.9790  0.7488
  156SOL     OW  704   5.035   1.422   4.816  0.2607  0.2477 -0.1655
  156SOL    HW1  705   5.011   1.436   4.725 -0.4695 -0.7212 -0.1303
  156SOL    HW2  706   5.128   1.446   4.820 -0.0952  1.8983 -0.7828
  157SOL     OW  707   4.442   1.558   3.499  0.4487  0.3976  0.0034
  157SOL    HW1  708   4.374   1.518   3.445  1.2187 -1.5297  0.3645
  157SOL    HW2  709   4.515   1.496   3.495  1.1565  1.0325  1.8504
  158SOL     OW  710   4.373   2.622   0.445 -0.1913  0.2327 -0.2162
  158SOL    HW1  711   4.316   2.649   0.517  1.6680  1.4350  0.8895
  158SOL    HW2  712   4.338   2.538   0.417 -0.4552 -0.7668  2.7430
  159SOL     OW  713   1.028   2.323   3.421  1.0412  0.1909 -0.1641
  159SOL    HW1  714   1.018   2.322   3.516  0.8455  1.6725 -0.1470
  159SOL    HW2  715   1.039   2.415   3.399  1.6494 -0.1796 -1.5280
  160SOL     OW  716   4.084   2.218   6.091  0.0191  0.0489 -0.2800
  160SOL    HW1  717   4.098   2.203   5.997  0.0926 -0.0079 -0.2594
  160SOL    HW2  718   3.995   2.187   6.107 -0.0675  0.2449 -0.3724
  161SOL     OW  719   4.739   1.390   1.526  0.1498  0.2323  0.2574
  161SOL    HW1  720   4.761   1.482   1.541 -0.2908  0.0534  2.2201
  161SOL    HW2  721   4.799   1.342   1.583  0.2497 -0.7055 -0.6118
  162SOL     OW  722   3.643   1.611   5.743 -0.1034  0.5937 -0.2034
  162SOL    HW1  723   3.700   1.545   5.782 -0.9657 -0.1253 -0.1539
  162SOL    HW2  724   3.634   1.678   5.811  0.7499  0.7732 -0.2459
  163SOL     OW  725   0.312   1.086   5.704  0.1352 -0.2865 -0.7996
  163SOL    HW1  726   0.315   1.046   5.617 -1.3466  0.2613 -1.1386
  163SOL    HW2  727   0.328   1.179   5.688 -0.2233 -0.1712 -0.5139
  164SOL     OW  728   1.919   0.993   5.949  0.8245 -0.0121  0.1951
  164SOL    HW1  729   1.889   1.084   5.952  0.7400 -0.0381  0.1637
  164SOL    HW2  730   1.962   0.979   6.033 -0.5933 -0.4195  0.8853
  165SOL     OW  731   5.129   0.606   5.597  0.1252 -0.3845 -0.2476
  165SOL    HW1  732   5.087   0.687   5.569 -0.0126  0.4084  2.0826
  165SOL    HW2  733   5.057   0.542   5.600  0.0656 -0.3739 -1.2096
  166SOL     OW  734   0.904   3.509   0.946  0.2634  0.3126  0.4916
  166SOL    HW1  735   0.809   3.508   0.954 -0.2852 -1.4896 -3.8511
  166SOL    HW2  736   0.926   3.601   0.930 -1.0490  0.4682 -0.5395
  167SOL     OW  737   5.453   3.345   1.011 -0.2710  0.7288 -0.5823
  167SOL    HW1  738   5.496   3.325   1.094  0.3357  0.6235 -0.9144
  167SOL    HW2  739   5.376   3.397   1.036  1.6770  3.6898 -0.1212
  168SOL     OW  740   4.958   4.918   1.302 -0.9295  1.2984  0.4820
  168SOL    HW1  741   4.965   4.840   1.247 -0.9284  2.6797 -1.6100
  168SOL    HW2  742   4.882   4.901   1.358 -2.2462  0.6203 -1.4015
  169SOL     OW  743   3.746   2.235   0.942 -0.0803  0.0809 -0.2102
  169SOL    HW1  744   3.675   2.207   1.000  0.2912  0.8088  0.6183
  169SOL    HW2  745   3.772   2.321   0.975  1.0253 -0.0685 -0.6479
  170SOL     OW  746   1.167   6.058   5.785  0.0022  0.6481 -0.2142
  170SOL    HW1  747   1.108   6.128   5.814 -2.0366 -0.8925 -0.4340
  170SOL    HW2  748   1.172   5.999   5.860 -0.4513 -0.3077 -0.9280
  171SOL     OW  749   2.099   1.111   3.292  0.3277  0.1061 -0.0282
  171SOL    HW1  750   2.065   1.068   3.214  2.2432 -1.2502 -0.1769
  171SOL    HW2  751   2.194   1.109   3.282  0.6293  0.1352  2.2109
  172SOL     OW  752   4.313   3.417   4.934 -0.0015 -0.2600 -0.0235
  172SOL    HW1  753   4.403   3.384   4.935 -0.3630 -1.3579 -1.1500
  172SOL    HW2  754   4.314   3.491   4.994  0.8734 -2.2691  2.6413
  173SOL     OW  755   0.919   4.829   1.393 -0.2928 -0.2607  0.7316
  173SOL    HW1  756   0.943   4.749   1.345 -1.0480  0.4378 -0.9134
  173SOL    HW2  757   0.918   4.897   1.325  1.2229  1.3469  2.2460
  174SOL     OW  758   3.662   4.278   3.050 -0.5601  0.4510  0.2116
  174SOL    HW1  759   3.622   4.266   3.136  0.0494 -0.8243  0.3452
  174SOL    HW2  760   3.722   4.352   3.062 -0.1788  0.0333  1.0105
  175SOL     OW  761   2.931   1.599   0.338  0.0281 -0.1343 -0.5600
  175SOL    HW1  762   2.870   1.670   0.316  2.9244  2.2731 -1.4831
  175SOL    HW2  763   2.922   1.588   0.432 -0.9590  1.0511 -0.4868
  176SOL     OW  764   3.182   3.477   3.126 -0.3979 -0.5275 -0.3515
  176SOL    HW1  765   3.131   3.438   3.198 -0.7630 -0.4586 -0.5693
  176SOL    HW2  766   3.264   3.503   3.167 -0.5440 -0.6245  0.0133
  177SOL     OW  767   5.451   1.297   0.902  0.6217  0.5664  0.5646
  177SOL    HW1  768   5.380   1.312   0.964 -0.5457  2.5505 -1.1209
  177SOL    HW2  769   5.530   1.319   0.952 -0.0587 -0.0162  1.9623
  178SOL     OW  770   5.194   3.517   5.233 -0.6512  0.0007 -0.0215
  178SOL    HW1  771   5.252   3.589   5.255  0.0011  0.0011 -1.6023
  178SOL    HW2  772   5.219   3.447   5.294 -0.4105  0.6748  0.6710
  179SOL     OW  773   2.750   3.324   1.317 -0.0763  0.9820  0.0502
  179SOL    HW1  774   2.761   3.332   1.412 -0.5733  0.4621  0.1534
  179SOL    HW2  775   2.838   3.305   1.284 -0.1862 -0.6357  0.6033
  180SOL     OW  776   1.829   4.511   4.265 -0.1341  0.0058 -0.0014
  180SOL    HW1  777   1.814   4.594   4.218 -1.4448 -0.0897  0.2193
  180SOL    HW2  778   1.909   4.476   4.226 -0.0186  0.9704 -0.6731
  181SOL     OW  779   5.495   4.744   4.235 -0.3019 -0.2166 -0.3396
  181SOL    HW1  780   5.435   4.698   4.295  1.1247  0.7211  1.9514
  181SOL    HW2  781   5.578   4.698   4.245  0.5373  1.3436  0.1941
  182SOL     OW  782   5.362   3.742   5.281  0.6856 -0.1423 -0.3108
  182SOL    HW1  783   5.306   3.798   5.227 -0.1334 -2.2151 -1.7686
  182SOL    HW2  784   5.401   3.801   5.345 -1.2237  1.8207 -0.8301
  183SOL     OW  785   2.074   4.462   2.160  0.4986  0.2565  0.0435
  183SOL    HW1  786   2.140   4.439   2.225 -2.5552 -1.5460  2.8099
  183SOL    HW2  787   2.080   4.394   2.093  1.7371  0.4302 -0.0413
  184SOL     OW  788   1.874   1.169   2.393  0.2177 -0.2402  0.2651
  184SOL    HW1  789   1.829   1.108   2.334 -0.8647  1.1261 -0.3812
  184SOL    HW2  790   1.913   1.113   2.460  0.7926 -1.7807 -1.2761
  185SOL     OW  791   2.593   6.055   0.233  0.3583 -0.5703  0.2727
  185SOL    HW1  792   2.603   6.037   0.326 -0.6732 -0.5403  0.4015
  185SOL    HW2  793   2.499   6.067   0.221  0.4348 -1.0321 -0.8617
  186SOL     OW  794   5.151   2.998   3.211  0.1863  0.2901  0.7734
  186SOL    HW1  795   5.175   2.979   3.121  2.8751  0.5915  1.3472
  186SOL    HW2  796   5.111   3.085   3.208 -0.2904  0.0468 -0.1749
  187SOL     OW  797   0.446   1.486   0.185 -0.2850 -0.6840 -0.3383
  187SOL    HW1  798   0.539   1.493   0.208 -0.1540 -0.2608 -0.9804
  187SOL    HW2  799   0.400   1.513   0.264  0.1300 -1.2603  0.1120
  188SOL     OW  800   1.252   2.593   4.788  0.0400 -0.3248  0.0013
  188SOL    HW1  801   1.235   2.574   4.696 -0.3720 -0.4770  0.1098
  188SOL    HW2  802   1.278   2.686   4.789  0.1957 -0.3629 -0.2833
  189SOL     OW  803   5.324   2.634   2.744 -0.3126 -0.3136  0.1654
  189SOL    HW1  804   5.239   2.630   2.787 -1.1778  0.0035 -1.4215
  189SOL    HW2  805   5.332   2.725   2.714 -0.2743 -0.7697 -1.2923
  190SOL     OW  806   4.091   5.993   1.680 -0.4325  0.5769 -0.2635
  190SOL    HW1  807   4.006   5.949   1.675 -0.4428  0.4855  0.6246
  190SOL    HW2  808   4.142   5.954   1.609 -0.5058 -0.7244  0.3662
  191SOL     OW  809   1.249   1.344   5.320 -0.0175  0.8177  0.1285
  191SOL    HW1  810   1.230   1.252   5.301 -0.9632  0.9887  0.1968
  191SOL    HW2  811   1.177   1.392   5.279  2.0093  1.7878 -2.5325
  192SOL     OW  812   5.993   3.889   5.214 -0.4981 -0.3611  0.1370
  192SOL    HW1  813   6.000   3.960   5.278 -0.8680  0.3964 -0.6468
  192SOL    HW2  814   6.082   3.856   5.205 -0.4787 -0.6685  1.2380
  193SOL     OW  815   1.919   4.333   1.683  0.1869 -0.0925  0.2674
  193SOL    HW1  816   1.936   4.378   1.600  0.4563 -1.7581 -0.6193
  193SOL    HW2  817   1.830   4.299   1.674 -0.4640  1.2052  1.4067
  194SOL     OW  818   4.184   3.394   0.772 -0.2399 -0.1859 -0.5072
  194SOL    HW1  819   4.143   3.422   0.690  0.2254 -1.0996 -1.0663
  194SOL    HW2  820   4.277   3.391   0.753 -0.0991 -0.1336  0.1419
  195SOL     OW  821   2.875   2.131   5.998  1.0342  0.1174 -0.1842
  195SOL    HW1  822   2.815   2.201   6.027 -0.6387 -1.0005 -0.7608
  195SOL    HW2  823   2.904   2.159   5.911  1.9292  0.9977  0.3815
  196SOL     OW  824   5.799   2.770   5.828 -0.0794  0.7405 -0.2143
  196SOL    HW1  825   5.733   2.723   5.878  1.2059  0.5004  1.3597
  196SOL    HW2  826   5.818   2.847   5.881  1.1575  0.5921 -0.4108
  197SOL     OW  827   2.050   1.389   4.065 -0.4008  0.1722  0.2885
  197SOL    HW1  828   2.009   1.459   4.015  0.0530  1.0879  1.1523
  197SOL    HW2  829   1.996   1.379   4.143 -0.5340 -0.5342  0.1116
  198SOL     OW  830   4.653   4.011   2.636 -0.1263 -0.1147  0.0452
  198SOL    HW1  831   4.573   4.063   2.630  0.0806  0.2494  0.4230
  198SOL    HW2  832   4.712   4.051   2.572 -0.4355 -0.7398 -0.6523
  199SOL     OW  833   5.877   3.037   6.026 -0.2178 -0.4715  0.1327
  199SOL    HW1  834   5.806   3.096   6.002  0.7457  0.0089 -1.7857
  199SOL    HW2  835   5.915   3.077   6.104 -1.1010  0.1002  0.2860
  200SOL     OW  836   4.485   1.313   1.088  0.1851 -0.7100  0.5434
  200SOL    HW1  837   4.418   1.251   1.118  0.5045 -2.5043 -2.1726
  200SOL    HW2  838   4.451   1.347   1.005  2.2998 -1.1454 -0.5611
  201SOL     OW  839   4.049   4.421   0.895 -0.3473  0.5758 -0.4826
  201SOL    HW1  840   3.996   4.380   0.963  0.4145 -1.3679 -0.9928
  201SOL    HW2  841   3.985   4.449   0.829 -0.8380 -1.5443 -0.9938
  202SOL     OW  842   3.280   3.827   4.525 -0.6112 -0.5887  0.0629
  202SOL    HW1  843   3.240   3.755   4.475 -0.4917 -0.7155  0.1476
  202SOL    HW2  844   3.372   3.802   4.533 -0.1812  0.4207 -1.4290
  203SOL     OW  845   0.668   3.564   0.611  0.0960 -0.1124 -0.0368
  203SOL    HW1  846   0.712   3.649   0.624  1.0413 -0.7057  0.8076
  203SOL    HW2  847   0.599   3.563   0.677 -0.3063  0.2478 -0.4485
  204SOL     OW  848   3.273   5.083   4.030 -0.1333 -0.1902 -0.1947
  204SOL    HW1  849   3.207   5.014   4.036 -0.1490 -0.2334 -0.8240
  204SOL    HW2  850   3.227   5.157   3.991  0.1805 -0.2071 -0.6018
  205SOL     OW  851   5.090   5.481   1.958 -0.5598 -0.2466 -0.1152
  205SOL    HW1  852   5.141   5.492   1.877 -1.5876 -1.9848 -1.0533
  205SOL    HW2  853   5.156   5.477   2.027  0.3210  1.8152 -0.7487
  206SOL     OW  854   4.509   4.140   6.039  0.2138 -0.0465  0.1007
  206SOL    HW1  855   4.438   4.147   5.976  0.1913  0.4166  0.1735
  206SOL    HW2  856   4.501   4.052   6.076  0.8192 -0.7057 -1.2495
  207SOL     OW  857   4.823   2.216   0.221 -0.5049  0.1092 -0.0252
  207SOL    HW1  858   4.814   2.230   0.316  1.4671  0.4584  0.1575
  207SOL    HW2  859   4.824   2.304   0.184 -0.5381 -0.0063 -0.2995
  208SOL     OW  860   4.422   1.485   3.752  0.4545  0.2300  0.2378
  208SOL    HW1  861   4.403   1.506   3.661  0.4459 -0.4664  0.0709
  208SOL    HW2  862   4.422   1.569   3.797 -1.1746  0.4449 -0.0952
  209SOL     OW  863   5.233   1.547   4.122  0.1096 -0.1583  0.4526
  209SOL    HW1  864   5.185   1.628   4.102 -0.0343 -0.5082 -0.6823
  209SOL    HW2  865   5.309   1.549   4.064 -0.3278 -1.2171 -0.1964
  210SOL     OW  866   1.194   0.992   6.136 -0.4512  0.0821  0.8925
  210SOL    HW1  867   1.122   1.011   6.075 -1.5269  1.0570  2.3995
  210SOL    HW2  868   1.240   1.076   6.145  0.7801 -0.4805  0.1090
  211SOL     OW  869   5.028   4.000   0.866 -0.0654 -0.5740 -0.1638
  211SOL    HW1  870   4.979   3.931   0.910  2.3777 -0.8612  2.4083
  211SOL    HW2  871   5.106   3.957   0.832  1.7757  0.8197  1.9378
  212SOL     OW  872   3.394   0.849   4.402 -0.1889  0.6434 -0.5344
  212SOL    HW1  873   3.385   0.756   4.382  0.1863  0.8158 -1.5369
  212SOL    HW2  874   3.375   0.855   4.496 -0.8634 -0.3462 -0.5954
  213SOL     OW  875   1.286   3.806   3.085  0.2235  0.9249 -0.1037
  213SOL    HW1  876   1.197   3.791   3.118  1.0818 -0.4614  1.8238
  213SOL    HW2  877   1.315   3.720   3.055  0.1391  1.8099 -2.9713
  214SOL     OW  878   5.292   0.645   4.556 -0.2362  0.2681  0.0695
  214SOL    HW1  879   5.307   0.575   4.619 -1.4795 -0.3418 -0.2767
  214SOL    HW2  880   5.288   0.601   4.471 -1.5235  0.6549 -0.0995
  215SOL     OW  881   3.997   2.971   1.523 -0.2087 -0.0175  0.1940
  215SOL    HW1  882   4.000   2.885   1.565  0.0421 -0.4954 -0.7648
  215SOL    HW2  883   3.932   2.961   1.453  1.0244  0.0484 -1.0097
  216SOL     OW  884   0.507   5.862   5.668 -0.0833  0.4419  0.8830
  216SOL    HW1  885   0.520   5.893   5.579  0.4049 -1.1952  0.3552
  216SOL    HW2  886   0.586   5.813   5.688 -1.6100 -2.1973  0.8924
  217SOL     OW  887   2.152   4.988   4.342 -0.2730  0.3810  0.2404
  217SOL    HW1  888   2.056   4.995   4.338 -0.5269 -2.3561 -0.9718
  217SOL    HW2  889   2.183   5.076   4.323 -2.5719  0.7557 -2.5152
  218SOL     OW  890   0.234   5.028   2.242 -0.1661  0.2081 -0.2637
  218SOL    HW1  891   0.231   5.087   2.166  0.2154  1.4241  0.6222
  218SOL    HW2  892   0.194   4.947   2.211  0.5401  0.4543 -1.9492
  219SOL     OW  893   2.956   3.805   3.209  0.4304 -0.3436 -0.1325
  219SOL    HW1  894   2.958   3.900   3.198  0.3817 -0.3245  0.0238
  219SOL    HW2  895   3.038   3.774   3.171  0.5375 -0.2207 -0.0006
  220SOL     OW  896   4.212   0.796   0.426  0.0510  0.6746  0.0067
  220SOL    HW1  897   4.149   0.778   0.497  0.6054 -1.1275  0.0814
  220SOL    HW2  898   4.157   0.806   0.348 -0.4754  1.4620  0.4570
  221SOL     OW  899   5.178   2.206   5.819  0.2463 -0.5498 -0.0765
  221SOL    HW1  900   5.216   2.282   5.864  2.2701 -0.0286 -2.4194
  221SOL    HW2  901   5.201   2.131   5.874 -1.0214  0.3584  1.8272
  222SOL     OW  902   6.092   0.680   5.295  0.5351  0.2104  0.0766
  222SOL    HW1  903   6.182   0.651   5.307  0.3007 -1.1471 -1.2019
  222SOL    HW2  904   6.068   0.649   5.208 -0.9526  1.1405  0.1247
  223SOL     OW  905   3.735   5.924   5.348 -0.0842  0.5549  0.9664
  223SOL    HW1  906   3.793   5.958   5.417  1.3898 -0.8469  0.4769
  223SOL    HW2  907   3.751   5.830   5.347 -0.7288  0.4306 -0.6943
  224SOL     OW  908   4.503   0.851   4.191 -0.1351 -0.4898  0.5162
  224SOL    HW1  909   4.503   0.776   4.133  1.1098 -1.2354  1.4197
  224SOL    HW2  910   4.423   0.842   4.243 -0.7836 -0.3170 -0.4453
  225SOL     OW  911   5.563   5.550   4.540  0.0766  0.0056 -0.5609
  225SOL    HW1  912   5.612   5.536   4.460  0.0952 -0.7184 -0.4282
  225SOL    HW2  913   5.603   5.628   4.579  2.5799 -1.7388  0.6178
  226SOL     OW  914   3.308   5.913   2.257  0.1699  0.2069 -0.0363
  226SOL    HW1  915   3.314   5.860   2.178 -1.4547  0.3144 -0.2614
  226SOL    HW2  916   3.287   6.001   2.226 -0.3259  0.2834  0.4895
  227SOL     OW  917   4.608   1.322   0.538  0.6327  0.2969 -0.1923
  227SOL    HW1  918   4.637   1.353   0.453  2.8239  0.4559  0.5403
  227SOL    HW2  919   4.636   1.391   0.599  1.6546 -1.0591  0.9493
  228SOL     OW  920   1.980   4.275   3.247  0.4479 -0.1232  0.7202
  228SOL    HW1  921   2.002   4.330   3.323 -1.0404  0.9407  0.4234
  228SOL    HW2  922   1.915   4.213   3.280 -1.0083  1.0264  0.1208
  229SOL     OW  923   0.689   0.170   3.094 -0.1502  1.0927  0.0751
  229SOL    HW1  924   0.748   0.095   3.095 -1.3645  0.0901 -0.3098
  229SOL    HW2  925   0.746   0.246   3.085  0.9986  0.0760 -1.6671
  230SOL     OW  926   3.830   3.103   2.420  0.9639  0.0903 -0.0986
  230SOL    HW1  927   3.802   3.012   2.407  0.9242  0.1081 -0.1376
  230SOL    HW2  928   3.925   3.100   2.407  1.2455 -0.2867  1.7175
  231SOL     OW  929   1.476   3.373   0.341  0.2768  0.3285  0.1650
  231SOL    HW1  930   1.409   3.331   0.287  0.9345 -0.2806 -0.2086
  231SOL    HW2  931   1.557   3.325   0.320  1.1240  1.9430 -0.4567
  232SOL     OW  932   3.254   4.838   5.421  0.2002  0.1553 -0.1760
  232SOL    HW1  933   3.208   4.861   5.340  1.3612  1.9299 -0.3951
  232SOL    HW2  934   3.201   4.878   5.490 -1.0760 -1.8011  0.0443
  233SOL     OW  935   0.904   0.712   1.393 -0.0962 -0.4889 -0.1742
  233SOL    HW1  936   0.915   0.799   1.355  0.4705  0.7028  2.5367
  233SOL    HW2  937   0.866   0.727   1.479  0.9628 -2.8457  0.8078
  234SOL     OW  938   1.504   1.760   3.468 -0.5761  0.7971 -0.1107
  234SOL    HW1  939   1.495   1.670   3.438  0.7682  0.3464  0.7717
  234SOL    HW2  940   1.497   1.754   3.564  1.4482  1.3420  0.1060
  235SOL     OW  941   1.067   1.912   4.235  0.1339  0.5200  0.0133
  235SOL    HW1  942   1.115   1.962   4.301 -1.2461 -0.1527  1.5953
  235SOL    HW2  943   1.071   1.821   4.267 -1.2775  0.3091 -0.3492
  236SOL     OW  944   3.155   4.590   1.002  0.0623  0.2869 -0.6443
  236SOL    HW1  945   3.128   4.624   1.087 -0.4370 -1.2861 -0.1457
  236SOL    HW2  946   3.218   4.522   1.023  0.8942  0.7360 -1.6106
  237SOL     OW  947   4.839   5.856   0.917  0.0025  0.7283 -0.1874
  237SOL    HW1  948   4.849   5.951   0.923 -1.9373  0.9020  1.4014
  237SOL    HW2  949   4.751   5.839   0.950  0.3115 -1.6461 -0.4042
  238SOL     OW  950   5.657   0.419   1.820  0.2388  0.2342  0.6347
  238SOL    HW1  951   5.577   0.384   1.779  1.3452 -0.4841 -1.0162
  238SOL    HW2  952   5.719   0.346   1.817  0.7415  0.5387  2.6111
  239SOL     OW  953   2.704   2.647   4.924  0.3729  0.4701 -0.0666
  239SOL    HW1  954   2.691   2.579   4.990  3.6444 -0.2784 -0.0609
  239SOL    HW2  955   2.705   2.729   4.975 -4.2961  0.8565 -0.1496
  240SOL     OW  956   3.484   6.074   5.430  0.5964 -0.1181 -0.2273
  240SOL    HW1  957   3.517   6.148   5.379  0.6778  1.3959  1.8798
  240SOL    HW2  958   3.532   5.998   5.396  1.7525  1.0520 -1.3300
  241SOL     OW  959   4.741   1.290   3.129  0.3294  0.0652 -0.1011
  241SOL    HW1  960   4.710   1.369   3.174  2.2569  1.2931 -0.7698
  241SOL    HW2  961   4.686   1.283   3.052  0.9337  1.5378 -0.6965
  242SOL     OW  962   5.475   5.311   4.277 -0.0546  0.5307 -0.7699
  242SOL    HW1  963   5.535   5.383   4.298 -0.3413  1.1322 -1.9338
  242SOL    HW2  964   5.529   5.233   4.275  0.2249  0.6518  0.7623
  243SOL     OW  965   3.524   5.369   2.586 -0.1942  0.2998  0.1782
  243SOL    HW1  966   3.461   5.344   2.654 -0.6443 -0.1512 -0.4000
  243SOL    HW2  967   3.470   5.391   2.510  0.2880  1.1262  0.0574
  244SOL     OW  968   2.761   5.694   1.932 -0.4783  0.1389  0.2216
  244SOL    HW1  969   2.723   5.612   1.963  2.1241 -0.9540  0.6989
  244SOL    HW2  970   2.828   5.668   1.870 -0.3267  1.9809 -0.4375
  245SOL     OW  971   3.812   5.629   2.892 -0.3514  0.7674  0.6716
  245SOL    HW1  972   3.726   5.654   2.928 -0.7904  1.5727 -0.8459
  245SOL    HW2  973   3.792   5.598   2.804  0.9949  1.5544  0.0745
  246SOL     OW  974   5.682   4.882   5.717 -0.4272  0.2283  0.7257
  246SOL    HW1  975   5.721   4.960   5.677  1.5147 -0.7328  0.6265
  246SOL    HW2  976   5.588   4.891   5.701 -0.1810  2.2322  0.1785
  247SOL     OW  977   2.544   1.016   4.722  0.3683  0.6949 -0.0789
  247SOL    HW1  978   2.503   0.966   4.651  2.9454  0.8407 -1.8305
  247SOL    HW2  979   2.613   0.959   4.755  0.9953  1.6971  0.4037
  248SOL     OW  980   0.403   5.666   4.900  0.2466  0.2281  0.2347
  248SOL    HW1  981   0.380   5.634   4.987 -0.6760  2.0813  0.7055
  248SOL    HW2  982   0.488   5.624   4.881  0.0200 -0.9205  1.5982
  249SOL     OW  983   2.321   3.122   5.681  0.1174  0.0934  0.5605
  249SOL    HW1  984   2.336   3.090   5.770 -1.9927 -0.5213  0.7694
  249SOL    HW2  985   2.311   3.042   5.629 -1.3640  0.3945  0.3395
  250SOL     OW  986   1.715   0.936   3.072 -0.5130 -0.5414 -0.3457
  250SOL    HW1  987   1.625   0.939   3.037 -1.4445 -0.4890  1.8972
  250SOL    HW2  988   1.722   0.851   3.114  0.8698 -0.9475 -1.3334
  251SOL     OW  989   1.907   5.012   3.214  0.1380 -0.1991 -0.2706
  251SOL    HW1  990   1.989   5.040   3.175 -0.7087  2.6777 -0.1830
  251SOL    HW2  991   1.905   5.055   3.300 -1.2432 -0.5831 -0.0862
  252SOL     OW  992   1.410   1.390   0.235 -0.1400  0.3581 -0.1281
  252SOL    HW1  993   1.505   1.403   0.235 -0.0746 -0.1020  0.8241
  252SOL    HW2  994   1.398   1.296   0.246 -0.7125  0.3466 -0.7571
  253SOL     OW  995   5.417   2.753   5.666  0.5674 -0.0215 -0.4759
  253SOL    HW1  996   5.327   2.738   5.638  0.4801  0.8451 -0.6986
  253SOL    HW2  997   5.470   2.733   5.588  0.5610 -0.4154 -0.3805
  254SOL     OW  998   3.533   4.677   0.103 -0.0226 -0.4188 -0.0792
  254SOL    HW1  999   3.469   4.748   0.103 -0.1950 -0.5760  0.4229
  254SOL    HW2 1000   3.527   4.640   0.014 -0.5554 -0.3668 -0.0709
  255SOL     OW 1001   1.625   1.275   4.146  0.0479 -0.0858  0.6906
  255SOL    HW1 1002   1.717   1.262   4.169  1.0021 -3.9962 -3.7508
  255SOL    HW2 1003   1.577   1.228   4.213  1.2201  1.5707  2.8006
  256SOL     OW 1004   5.541   3.423   3.970 -0.2221 -0.0683 -0.8337
  256SOL    HW1 1005   5.630   3.386   3.968  0.3294  1.1968 -0.7021
  256SOL    HW2 1006   5.484   3.347   3.969  0.8290 -0.9082 -2.8969
  257SOL     OW 1007   5.568   3.190   5.395 -0.1061 -0.5129  0.0031
  257SOL    HW1 1008   5.620   3.219   5.470 -0.8226 -0.4395  0.4776
  257SOL    HW2 1009   5.626   3.129   5.348  1.4168  1.5659 -0.9782
  258SOL     OW 1010   2.705   0.827   0.404  0.1529 -0.4371  0.2849
  258SOL    HW1 1011   2.691   0.893   0.472  3.3138  1.3289 -0.5701
  258SOL    HW2 1012   2.724   0.747   0.453  1.7422  0.6482  1.5938
  259SOL     OW 1013   0.447   0.815   0.199  0.2694  0.2201 -0.5654
  259SOL    HW1 1014   0.485   0.893   0.238  0.6506  0.2608 -1.0127
  259SOL    HW2 1015   0.394   0.847   0.126 -0.3212  0.1325 -0.1837
  260SOL     OW 1016   0.775   5.974   4.018 -0.2179 -0.0483  0.1045
  260SOL    HW1 1017   0.726   5.916   4.076  0.8730  0.4622  1.6175
  260SOL    HW2 1018   0.814   5.916   3.953 -1.3033 -0.6716 -0.0080
  261SOL     OW 1019   3.641   3.368   3.481  0.2319  0.3055  0.5469
  261SOL    HW1 1020   3.713   3.364   3.543 -0.0436 -2.7745  0.8232
  261SOL    HW2 1021   3.584   3.437   3.514  0.2749 -0.9912  3.5923
  262SOL     OW 1022   3.475   3.808   0.850 -0.0024 -0.5492 -0.2011
  262SOL    HW1 1023   3.457   3.724   0.808 -1.0141  0.2248 -1.3866
  262SOL    HW2 1024   3.467   3.790   0.944 -0.4793 -1.7134 -0.4415
  263SOL     OW 1025   4.661   3.206   2.246  0.0199  0.2841  0.0533
  263SOL    HW1 1026   4.735   3.150   2.273 -0.6208  0.7683  3.0807
  263SOL    HW2 1027   4.593   3.144   2.221 -0.9359 -0.5006  4.0630
  264SOL     OW 1028   4.026   5.137   1.053  0.1613  0.1217  0.1666
  264SOL    HW1 1029   4.014   5.232   1.046 -0.7953  0.3051  2.7845
  264SOL    HW2 1030   4.040   5.123   1.147  0.8854 -2.2799 -0.2509
  265SOL     OW 1031   5.140   1.856   6.114  0.0744 -0.2645 -0.3801
  265SOL    HW1 1032   5.144   1.938   6.164 -0.9084 -0.1386 -0.4941
  265SOL    HW2 1033   5.088   1.797   6.169  0.1476 -0.5716 -0.6355
  266SOL     OW 1034   2.449   3.847   3.962 -0.2362 -0.2884 -0.5323
  266SOL    HW1 1035   2.458   3.760   4.001 -1.5114 -0.7024 -1.0897
  266SOL    HW2 1036   2.371   3.884   4.004  1.0535  1.1592  0.6947
  267SOL     OW 1037   4.175   5.799   0.877 -0.1427 -0.4703  0.1233
  267SOL    HW1 1038   4.229   5.873   0.848 -1.0020  0.7078  1.4041
  267SOL    HW2 1039   4.238   5.727   0.890  0.7297  0.0682 -0.9912
  268SOL     OW 1040   1.911   1.562   4.878 -0.5030  0.2431  0.6141
  268SOL    HW1 1041   1.908   1.490   4.942  0.3563 -0.1946  0.1860
  268SOL    HW2 1042   1.949   1.522   4.799 -0.8452  0.9589  0.0796
  269SOL     OW 1043   1.799   0.440   2.273 -0.1083  0.3171 -0.3397
  269SOL    HW1 1044   1.723   0.382   2.271 -0.3109  0.5999 -1.2024
  269SOL    HW2 1045   1.816   0.453   2.366 -0.3527 -0.7371 -0.1291
  270SOL     OW 1046   2.848   3.917   1.618 -0.4437 -0.8297  0.6508
  270SOL    HW1 1047   2.918   3.852   1.631 -0.3708 -0.9922 -0.4558
  270SOL    HW2 1048   2.778   3.868   1.575 -0.3409 -0.1558 -0.3110
  271SOL     OW 1049   5.578   1.810   3.652 -0.2780 -0.4764  0.9931
  271SOL    HW1 1050   5.627   1.733   3.681 -2.0490 -1.6097  1.1322
  271SOL    HW2 1051   5.487   1.779   3.643 -0.7741  1.2130 -0.4385
  272SOL     OW 1052   4.792   2.606   3.081  0.3026  0.0676  0.2096
  272SOL    HW1 1053   4.738   2.557   3.019  0.5731  0.0940 -0.0552
  272SOL    HW2 1054   4.779   2.698   3.056 -0.4697  0.1591  0.9241
  273SOL     OW 1055   1.959   5.809   2.810  0.4246 -0.0254  0.0227
  273SOL    HW1 1056   1.892   5.847   2.867 -0.5094 -1.5336 -0.0186
  273SOL    HW2 1057   1.958   5.715   2.830  0.8481 -0.4288 -1.6766
  274SOL     OW 1058   4.063   2.135   0.671  0.1042 -0.3477  0.1751
  274SOL    HW1 1059   4.117   2.091   0.735  0.0128 -0.7177  0.0009
  274SOL    HW2 1060   4.113   2.131   0.589 -1.1856 -2.8585 -0.5942
  275SOL     OW 1061   1.079   3.033   5.900 -0.1190 -0.4364  0.1147
  275SOL    HW1 1062   0.993   3.043   5.858  0.4421 -0.1071 -0.9882
  275SOL    HW2 1063   1.109   2.946   5.873 -0.0908 -0.5570  0.5129
  276SOL     OW 1064   4.403   3.461   5.885 -0.8063  0.3364  0.6460
  276SOL    HW1 1065   4.397   3.438   5.793 -0.7170 -0.1330  0.7581
  276SOL    HW2 1066   4.368   3.550   5.890  0.7584  1.0262 -0.1005
  277SOL     OW 1067   6.111   1.895   3.703 -0.2385 -0.2444 -0.2651
  277SOL    HW1 1068   6.196   1.893   3.748  0.1052  1.7286 -0.7288
  277SOL    HW2 1069   6.066   1.971   3.740 -0.9315 -0.0095 -1.5371
  278SOL     OW 1070   3.079   0.410   5.024 -0.2969  0.6592 -0.1329
  278SOL    HW1 1071   3.091   0.419   5.119  0.2527  1.2544 -0.2548
  278SOL    HW2 1072   2.989   0.436   5.009 -0.2413  1.0388  0.1695
  279SOL     OW 1073   5.168   2.929   5.306  0.0238 -0.2799 -0.2030
  279SOL    HW1 1074   5.241   2.927   5.369 -0.6544 -0.7928  0.5794
  279SOL    HW2 1075   5.201   2.881   5.230  1.2258  1.2117 -0.6792
  280SOL     OW 1076   5.975   0.439   5.641  0.2182 -0.0595 -0.0493
  280SOL    HW1 1077   6.001   0.440   5.549  0.7186 -1.9272  0.0419
  280SOL    HW2 1078   5.880   0.445   5.640  0.1000 -1.7173 -0.7853
  281SOL     OW 1079   3.328   3.095   0.350 -0.2642  0.4580 -0.6100
  281SOL    HW1 1080   3.387   3.025   0.378  0.0004  0.6330 -0.7318
  281SOL    HW2 1081   3.371   3.133   0.274  0.0552  1.3597  0.0066
  282SOL     OW 1082   4.044   1.837   2.980 -0.1297 -0.2339 -0.5490
  282SOL    HW1 1083   4.135   1.835   2.950  0.0280  0.5469 -0.1282
  282SOL    HW2 1084   4.034   1.758   3.032  0.2163 -0.4799 -0.8495
  283SOL     OW 1085   5.817   5.115   2.221 -0.1318  0.0055  0.5521
  283SOL    HW1 1086   5.840   5.184   2.159 -1.4548  2.6502  2.7851
  283SOL    HW2 1087   5.721   5.115   2.223 -0.1745 -2.0243  0.5754
  284SOL     OW 1088   2.134   3.264   5.544  0.1259  0.2478  0.7565
  284SOL    HW1 1089   2.182   3.232   5.620  0.2516 -1.0472  0.1674
  284SOL    HW2 1090   2.122   3.186   5.489 -0.8768  0.9454 -0.0549
  285SOL     OW 1091   5.681   1.562   3.764 -0.4794  0.1203 -0.0043
  285SOL    HW1 1092   5.758   1.579   3.710 -1.8639 -0.7345 -2.3698
  285SOL    HW2 1093   5.712   1.574   3.854  1.9016  1.6734 -0.9490
  286SOL     OW 1094   2.845   0.761   2.827 -0.3493 -0.1569  0.2836
  286SOL    HW1 1095   2.859   0.818   2.902 -1.5711 -1.1954  1.3620
  286SOL    HW2 1096   2.908   0.790   2.761  2.5131 -0.7448  2.5776
  287SOL     OW 1097   3.740   2.297   3.221  0.4127  0.2306  0.1518
  287SOL    HW1 1098   3.733   2.338   3.134 -0.5495  1.3137  0.7152
  287SOL    HW2 1099   3.723   2.368   3.283  1.0770 -0.5296  1.2417
  288SOL     OW 1100   0.405   2.854   0.940 -0.2330 -0.4860 -0.3418
  288SOL    HW1 1101   0.475   2.810   0.892 -1.3890  0.0427 -2.6726
  288SOL    HW2 1102   0.418   2.947   0.921  0.5165 -0.0083  2.1979
  289SOL     OW 1103   3.375   2.600   5.175  0.3668 -0.0407 -0.5067
  289SOL    HW1 1104   3.366   2.547   5.254 -0.2641 -0.9069 -1.1420
  289SOL    HW2 1105   3.397   2.687   5.207 -2.3694  0.2736  0.7822
  290SOL     OW 1106   2.975   1.161   3.813  0.0062 -0.5390 -0.0902
  290SOL    HW1 1107   2.965   1.251   3.783  0.1023 -0.5523 -0.1653
  290SOL    HW2 1108   2.886   1.130   3.827 -0.0042 -0.0774  0.9991
  291SOL     OW 1109   4.780   4.751   3.103 -0.2446  0.7787  0.0972
  291SOL    HW1 1110   4.874   4.763   3.094 -0.0925 -0.3345  0.1024
  291SOL    HW2 1111   4.770   4.693   3.178 -0.8861  0.2536 -0.3812
  292SOL     OW 1112   3.058   2.547   1.641 -0.7005  0.4748  0.6191
  292SOL    HW1 1113   2.987   2.537   1.705  0.2051 -0.8588  1.4859
  292SOL    HW2 1114   3.106   2.464   1.646  2.1166  2.0061  1.5883
  293SOL     OW 1115   4.064   4.346   2.881 -0.5471 -0.1252 -0.5892
  293SOL    HW1 1116   4.138   4.406   2.870 -0.5776  0.0161 -0.0624
  293SOL    HW2 1117   3.992   4.387   2.834  0.0490 -0.9275 -2.2825
  294SOL     OW 1118   1.132   1.068   0.497  0.8434 -0.4130 -0.4703
  294SOL    HW1 1119   1.139   1.009   0.422  0.0641  1.0426 -1.7503
  294SOL    HW2 1120   1.223   1.091   0.517  1.1265 -1.6459 -0.2561
  295SOL     OW 1121   2.125   5.659   0.789 -0.1162 -0.2354  0.2336
  295SOL    HW1 1122   2.097   5.603   0.862  2.8671 -0.7965  1.1179
  295SOL    HW2 1123   2.199   5.708   0.825  1.7532 -0.8552 -2.4923
  296SOL     OW 1124   0.591   0.622   4.486  0.1318 -0.0963 -0.2854
  296SOL    HW1 1125   0.602   0.554   4.420 -1.8289 -1.6080  0.8313
  296SOL    HW2 1126   0.503   0.657   4.469  0.9224  1.9295 -0.5618
  297SOL     OW 1127   2.889   0.760   4.299  0.7137  0.4332  0.6349
  297SOL    HW1 1128   2.800   0.790   4.278  1.3611  1.9020 -0.1207
  297SOL    HW2 1129   2.890   0.668   4.272 -0.4748  0.4780  0.3663
  298SOL     OW 1130   0.559   4.603   1.122  0.0713 -0.2457 -0.4034
  298SOL    HW1 1131   0.566   4.572   1.032 -1.6030 -1.8543 -0.0403
  298SOL    HW2 1132   0.556   4.698   1.114 -2.1683 -0.3754 -2.2791
  299SOL     OW 1133   1.321   6.119   6.045 -0.0368  0.6649  0.2874
  299SOL    HW1 1134   1.228   6.113   6.065 -0.1978  1.0114 -0.3412
  299SOL    HW2 1135   1.329   6.198   5.992  0.6823  0.8812  0.7108
  300SOL     OW 1136   2.211   0.047   5.459  0.5176 -0.2196  0.3609
  300SOL    HW1 1137   2.141   0.077   5.401  2.3899 -0.7825 -2.3717
  300SOL    HW2 1138   2.261   0.126   5.478  0.4541 -0.1968  0.4357
  301SOL     OW 1139   4.642   4.684   1.156 -0.1342 -0.1664 -0.3766
  301SOL    HW1 1140   4.569   4.663   1.214  1.0266 -0.8419  0.8936
  301SOL    HW2 1141   4.716   4.633   1.190  1.4064  1.8271 -0.5497
  302SOL     OW 1142   3.202   1.581   4.517  0.0745  0.1678 -0.7124
  302SOL    HW1 1143   3.235   1.555   4.603 -0.6711  0.8293 -0.2133
  302SOL    HW2 1144   3.113   1.610   4.534 -0.0084  0.4971 -1.6816
  303SOL     OW 1145   3.980   1.506   0.117 -0.0266  0.1304  0.2462
  303SOL    HW1 1146   3.914   1.458   0.067  1.0320 -0.2891 -0.8104
  303SOL    HW2 1147   3.952   1.498   0.208 -0.8703 -0.9207 -0.0826
  304SOL     OW 1148   4.723   2.942   5.943  0.6765  0.3331 -0.2383
  304SOL    HW1 1149   4.697   3.033   5.926  0.2574  0.5017  1.1967
  304SOL    HW2 1150   4.758   2.911   5.859 -2.5842  0.6273 -1.8873
  305SOL     OW 1151   3.451   3.442   5.047  0.5171  0.1637 -0.2649
  305SOL    HW1 1152   3.504   3.440   4.967 -0.6604  0.3456 -1.0665
  305SOL    HW2 1153   3.361   3.428   5.017 -0.2259  2.2284  0.7829
  306SOL     OW 1154   1.052   2.083   2.654  0.2152  0.6857 -0.1886
  306SOL    HW1 1155   1.017   2.009   2.604  0.5131 -0.0554  0.6755
  306SOL    HW2 1156   1.033   2.159   2.599  1.5852 -0.1940 -1.9962
  307SOL     OW 1157   2.409   5.700   4.351 -0.5888  0.4733 -0.4597
  307SOL    HW1 1158   2.409   5.606   4.334  1.8291  0.6121 -1.7616
  307SOL    HW2 1159   2.499   5.720   4.377 -1.0804  2.4256 -0.0379
  308SOL     OW 1160   3.437   4.903   5.612 -0.2843  0.2069  0.1762
  308SOL    HW1 1161   3.404   4.872   5.527  1.3939  0.3701 -0.5660
  308SOL    HW2 1162   3.364   4.889   5.672 -0.5179 -2.7195 -0.6451
  309SOL     OW 1163   4.534   2.795   4.955 -0.9685  0.2381  0.4339
  309SOL    HW1 1164   4.518   2.813   5.048  1.1482 -0.7642  1.0508
  309SOL    HW2 1165   4.493   2.711   4.939 -2.7358  1.1347 -0.0119
  310SOL     OW 1166   5.490   4.790   0.428  0.1209  0.6181 -0.0127
  310SOL    HW1 1167   5.558   4.851   0.454  0.6941 -0.4614  1.1535
  310SOL    HW2 1168   5.444   4.769   0.510 -1.4130  1.0646 -0.7154
  311SOL     OW 1169   5.893   2.418   2.122 -0.0698 -0.1103  0.2969
  311SOL    HW1 1170   5.981   2.436   2.088  0.1459 -0.4428  0.6694
  311SOL    HW2 1171   5.908   2.362   2.198 -0.6602 -1.0876 -0.2806
  312SOL     OW 1172   5.554   1.101   6.072  0.0439  0.5755 -0.2496
  312SOL    HW1 1173   5.556   1.160   5.997  0.3496 -1.1313 -1.6512
  312SOL    HW2 1174   5.516   1.020   6.038  2.1034 -0.9561  0.8520
  313SOL     OW 1175   1.307   5.655   3.163 -0.2141  0.3540  0.4071
  313SOL    HW1 1176   1.332   5.652   3.071 -0.8685  1.4565  0.1851
  313SOL    HW2 1177   1.331   5.742   3.192 -1.9424  0.7689  0.7029
  314SOL     OW 1178   1.125   4.495   4.595 -0.4837 -0.4551  0.1985
  314SOL    HW1 1179   1.148   4.534   4.510  2.0141  1.0935  1.4502
  314SOL    HW2 1180   1.030   4.482   4.590 -0.7015  1.2057 -2.1865
  315SOL     OW 1181   5.497   0.613   1.949  0.6198  0.2521  0.3178
  315SOL    HW1 1182   5.571   0.554   1.930  1.4804  1.2077  0.5875
  315SOL    HW2 1183   5.477   0.654   1.865 -0.1861 -0.6183  0.0621
  316SOL     OW 1184   0.623   0.552   2.762 -0.4500 -0.3020  0.0777
  316SOL    HW1 1185   0.561   0.605   2.712  0.1391  0.7805  0.4429
  316SOL    HW2 1186   0.588   0.553   2.851 -0.5068 -0.6372  0.0580
  317SOL     OW 1187   2.157   1.522   1.712  0.1104 -0.1411  0.0818
  317SOL    HW1 1188   2.128   1.479   1.632  0.7773 -1.0274  0.3018
  317SOL    HW2 1189   2.120   1.610   1.707 -1.4473 -0.7917 -0.2861
  318SOL     OW 1190   2.123   1.657   4.370  0.3960 -0.1674 -0.1676
  318SOL    HW1 1191   2.197   1.606   4.337 -0.7954 -2.1455  0.0524
  318SOL    HW2 1192   2.060   1.657   4.298 -0.1714 -0.1466  0.3217
  319SOL     OW 1193   5.130   3.299   2.295 -0.3033  0.1764  0.0602
  319SOL    HW1 1194   5.197   3.248   2.342 -0.4447  0.4886  0.6181
  319SOL    HW2 1195   5.090   3.354   2.363 -1.1742 -0.0557 -0.2548
  320SOL     OW 1196   1.767   4.212   5.662 -0.3232  0.3722 -0.5058
  320SOL    HW1 1197   1.809   4.183   5.743 -1.0783  1.1352  0.1722
  320SOL    HW2 1198   1.817   4.169   5.592  0.9285  0.4474  0.3188
  321SOL     OW 1199   3.035   3.275   5.748 -0.3430  0.3272  0.1550
  321SOL    HW1 1200   3.032   3.364   5.716 -1.6948  1.1505  2.3340
  321SOL    HW2 1201   3.059   3.283   5.841 -0.6086 -1.5532  0.4412
  322SOL     OW 1202   4.761   1.608   5.917  0.0718 -0.1160  0.4714
  322SOL    HW1 1203   4.676   1.601   5.874  0.8802 -1.3328 -1.0364
  322SOL    HW2 1204   4.742   1.647   6.002 -1.9298 -0.0190  0.0264
  323SOL     OW 1205   2.313   0.624   5.679  0.2466  0.4965 -0.2127
  323SOL    HW1 1206   2.404   0.596   5.689 -0.5866 -2.2761  0.5824
  323SOL    HW2 1207   2.265   0.542   5.662 -2.1069  1.8708 -0.6319
  324SOL     OW 1208   0.675   0.778   3.939 -0.2093  0.2170  0.0944
  324SOL    HW1 1209   0.619   0.709   3.976 -0.5863  1.0949  1.2224
  324SOL    HW2 1210   0.680   0.844   4.009  1.7323  0.4405 -0.2103
  325SOL     OW 1211   3.167   1.126   6.061 -0.0387  0.0960  0.1253
  325SOL    HW1 1212   3.235   1.134   6.128  0.5871 -0.3673 -0.4352
  325SOL    HW2 1213   3.209   1.077   5.991 -0.7583  0.3775 -0.5112
  326SOL     OW 1214   4.176   2.692   3.360 -0.0833  0.7925 -0.6698
  326SOL    HW1 1215   4.219   2.708   3.276 -1.9691  2.0392 -1.4671
  326SOL    HW2 1216   4.089   2.658   3.336 -0.4401  0.5953  0.8024
  327SOL     OW 1217   1.208   2.588   2.987  0.6979  0.2659 -0.1154
  327SOL    HW1 1218   1.204   2.537   2.906 -0.3695  0.6820 -0.3460
  327SOL    HW2 1219   1.190   2.525   3.057 -1.9791  0.4871 -0.4919
  328SOL     OW 1220   1.104   5.702   3.606  0.0312  0.4874 -0.4646
  328SOL    HW1 1221   1.057   5.699   3.689  0.4934  0.0871 -0.2082
  328SOL    HW2 1222   1.111   5.796   3.586  3.3237  0.9836  1.9747
  329SOL     OW 1223   2.225   1.328   0.560 -0.2569 -0.7876 -0.4935
  329SOL    HW1 1224   2.213   1.420   0.586  0.9726 -1.1832  1.7091
  329SOL    HW2 1225   2.150   1.309   0.504 -0.6160  1.5188 -0.8894
  330SOL     OW 1226   0.871   0.214   1.745 -0.1747  0.2833 -0.3110
  330SOL    HW1 1227   0.897   0.139   1.798 -0.8235 -0.9471 -1.6838
  330SOL    HW2 1228   0.954   0.259   1.725  0.4728 -1.1690 -1.0715
  331SOL     OW 1229   3.285   2.120   2.387  0.0060 -0.1178 -0.1689
  331SOL    HW1 1230   3.233   2.052   2.428 -1.2721  1.0368  0.2195
  331SOL    HW2 1231   3.225   2.195   2.379  1.5352  1.2089  0.1085
  332SOL     OW 1232   1.240   5.538   3.408 -0.6455 -0.0194  0.0016
  332SOL    HW1 1233   1.206   5.607   3.466  1.7362  1.0903  0.2029
  332SOL    HW2 1234   1.249   5.581   3.323 -0.3082 -0.4594 -0.1865
  333SOL     OW 1235   3.315   3.088   4.143  0.3335  0.2701  0.3159
  333SOL    HW1 1236   3.365   3.137   4.077 -0.6305  0.1240 -0.5507
  333SOL    HW2 1237   3.254   3.152   4.179 -0.1616 -0.0146 -0.0094
  334SOL     OW 1238   1.299   0.098   5.266 -0.1471 -0.2078  0.0629
  334SOL    HW1 1239   1.208   0.109   5.239  0.4609 -0.1880 -2.1215
  334SOL    HW2 1240   1.300   0.014   5.312 -1.0122 -0.9485 -1.2070
  335SOL     OW 1241   2.752   0.470   5.500 -0.2191  0.0436  0.3520
  335SOL    HW1 1242   2.839   0.441   5.527  0.1140  0.2448 -0.4617
  335SOL    HW2 1243   2.758   0.477   5.405 -0.4282  2.2259  0.4355
  336SOL     OW 1244   3.914   5.861   2.295 -0.3227 -0.7716  0.4842
  336SOL    HW1 1245   3.992   5.848   2.348 -0.2195 -0.0517  0.5192
  336SOL    HW2 1246   3.928   5.944   2.251 -1.2425 -0.4228  0.8148
  337SOL     OW 1247   1.745   2.416   5.276  0.0685 -0.0194  0.6994
  337SOL    HW1 1248   1.801   2.396   5.352  2.4252 -0.4598 -1.0317
  337SOL    HW2 1249   1.680   2.345   5.276  1.6272 -1.5378  0.8728
  338SOL     OW 1250   3.615   2.936   4.672 -0.6773  0.1992  0.0541
  338SOL    HW1 1251   3.565   2.861   4.641 -2.8497  1.4133  0.4009
  338SOL    HW2 1252   3.681   2.951   4.604 -2.0896 -0.2320 -1.4705
  339SOL     OW 1253   6.035   3.770   0.526  0.4179 -0.1240  0.5419
  339SOL    HW1 1254   5.976   3.728   0.465 -0.2357  1.1573  0.2591
  339SOL    HW2 1255   6.076   3.841   0.476  0.5719  0.3602  1.3207
  340SOL     OW 1256   2.626   3.540   3.494  0.0846 -0.1589  0.0481
  340SOL    HW1 1257   2.629   3.484   3.417  1.9371  0.1068 -0.1273
  340SOL    HW2 1258   2.570   3.613   3.469 -0.3462 -0.7092 -0.5988
  341SOL     OW 1259   2.236   3.789   5.837  0.0841  0.1931 -0.2712
  341SOL    HW1 1260   2.188   3.826   5.763 -0.5043 -0.5754 -0.2944
  341SOL    HW2 1261   2.191   3.824   5.914 -0.8765 -0.8968 -0.2881
  342SOL     OW 1262   4.240   5.457   2.636 -0.2486  0.1508 -0.3016
  342SOL    HW1 1263   4.240   5.545   2.674  1.8337  0.7481 -1.5335
  342SOL    HW2 1264   4.304   5.408   2.688  0.5465  0.1650 -1.2382
  343SOL     OW 1265   1.349   1.131   0.271 -0.4918 -0.1463 -0.2826
  343SOL    HW1 1266   1.406   1.090   0.336  2.0184  0.3632 -2.0425
  343SOL    HW2 1267   1.277   1.070   0.260 -1.5530  0.1672  3.5865
  344SOL     OW 1268   4.707   1.939   5.603 -0.2226  0.3312  0.1152
  344SOL    HW1 1269   4.783   1.906   5.555 -0.5914  1.0570 -0.9939
  344SOL    HW2 1270   4.643   1.868   5.599 -1.1517  1.2043 -2.5703
  345SOL     OW 1271   0.078   2.029   2.008 -0.0140 -0.0600  0.1279
  345SOL    HW1 1272   0.124   2.105   1.970 -0.3950  0.1832  0.1497
  345SOL    HW2 1273   0.045   1.981   1.933 -1.9398  1.1389  0.1268
  346SOL     OW 1274   3.683   1.220   5.164  1.1899  0.3919 -0.3010
  346SOL    HW1 1275   3.719   1.304   5.137  1.4586  1.1501  2.1305
  346SOL    HW2 1276   3.616   1.242   5.228 -0.6369 -1.1909 -1.5804
  347SOL     OW 1277   5.092   2.952   3.599 -0.4835  0.0378  0.3851
  347SOL    HW1 1278   5.016   2.978   3.547 -1.0297 -0.6214  0.8359
  347SOL    HW2 1279   5.149   2.905   3.538 -1.3002 -1.0672  0.4521
  348SOL     OW 1280   4.168   1.922   1.517 -0.1149 -0.2618  0.2024
  348SOL    HW1 1281   4.127   1.883   1.594 -0.2364  2.0380  1.3874
  348SOL    HW2 1282   4.261   1.903   1.526 -0.2567 -0.9096  0.3362
  349SOL     OW 1283   0.917   2.834   1.038 -0.3304  0.4985 -0.4737
  349SOL    HW1 1284   0.882   2.746   1.054  4.3529 -1.4477  0.7115
  349SOL    HW2 1285   0.850   2.893   1.073 -2.5266 -2.6888  1.2043
  350SOL     OW 1286   0.898   2.295   1.072  0.0297  0.1495 -0.0174
  350SOL    HW1 1287   0.879   2.235   1.145 -1.6702  1.1210  0.3857
  350SOL    HW2 1288   0.886   2.383   1.110  0.7046  0.7114 -1.0658
  351SOL     OW 1289   4.086   2.617   5.655  0.1706 -0.0683 -0.3926
  351SOL    HW1 1290   4.089   2.659   5.741  0.8748 -0.0525 -0.4190
  351SOL    HW2 1291   4.003   2.568   5.656  0.4733 -0.6044  0.5503
  352SOL     OW 1292   4.905   3.392   5.073 -0.1210  0.4013 -0.0204
  352SOL    HW1 1293   4.949   3.313   5.102 -0.0607  0.1642 -0.7418
  352SOL    HW2 1294   4.933   3.403   4.982 -0.5333  0.9656 -0.0834
  353SOL     OW 1295   6.104   3.417   1.637  0.7598 -0.3353 -0.5954
  353SOL    HW1 1296   6.193   3.451   1.637  0.6706 -0.0486  0.9462
  353SOL    HW2 1297   6.069   3.439   1.724 -1.3320  0.9555 -1.6623
  354SOL     OW 1298   4.366   0.599   3.425 -0.0694 -0.3819 -0.2997
  354SOL    HW1 1299   4.329   0.683   3.453  0.7515  0.5501 -1.8686
  354SOL    HW2 1300   4.461   0.610   3.436  0.0039 -1.4283  0.2493
  355SOL     OW 1301   2.349   1.534   0.083  0.4161  0.0351  0.3574
  355SOL    HW1 1302   2.383   1.548  -0.005  3.4725  0.1161  1.4321
  355SOL    HW2 1303   2.311   1.446   0.080  2.0150 -0.6586 -0.6368
  356SOL     OW 1304   2.150   1.089   1.560 -0.1752  0.1989  0.1192
  356SOL    HW1 1305   2.212   1.087   1.633 -0.1933 -0.0709  0.1261
  356SOL    HW2 1306   2.203   1.071   1.483 -0.6379 -2.7617  0.3830
  357SOL     OW 1307   3.142   5.322   3.972 -0.1168  0.0010 -0.0177
  357SOL    HW1 1308   3.172   5.390   3.912 -0.3792 -0.2425 -0.4250
  357SOL    HW2 1309   3.046   5.327   3.968 -0.2061 -1.8296 -1.7275
  358SOL     OW 1310   5.449   5.760   3.131 -0.2408 -0.4610 -0.1776
  358SOL    HW1 1311   5.497   5.808   3.063  0.4809 -2.5890 -1.2838
  358SOL    HW2 1312   5.445   5.670   3.097 -2.2705 -1.0124  1.3808
  359SOL     OW 1313   1.123   5.975   4.842 -0.4447 -0.4263 -0.6042
  359SOL    HW1 1314   1.121   6.062   4.802 -3.5682 -0.0073  0.2412
  359SOL    HW2 1315   1.170   5.987   4.924  0.3326  0.1166 -1.1136
  360SOL     OW 1316   5.684   3.322   5.118  0.0696 -0.7052  0.6677
  360SOL    HW1 1317   5.656   3.409   5.146  0.9938  0.2209 -1.0852
  360SOL    HW2 1318   5.603   3.279   5.090 -0.0608  1.1349 -2.2667
  361SOL     OW 1319   4.396   4.335   2.285 -0.1736 -0.2264  0.4021
  361SOL    HW1 1320   4.328   4.398   2.261  0.3368  0.2998  0.3358
  361SOL    HW2 1321   4.390   4.267   2.219  1.6436  1.5113 -1.6943
  362SOL     OW 1322   2.727   3.144   5.695  0.4994  0.2647 -0.2369
  362SOL    HW1 1323   2.662   3.091   5.741  0.8253  0.6583  0.6871
  362SOL    HW2 1324   2.809   3.128   5.740  1.3874 -1.2699 -2.2136
  363SOL     OW 1325   4.051   2.755   1.743  0.2267  0.1644  0.0592
  363SOL    HW1 1326   4.007   2.690   1.797 -0.8244 -0.4074 -1.4009
  363SOL    HW2 1327   4.021   2.839   1.776 -1.2961 -0.2020 -0.3240
  364SOL     OW 1328   2.919   1.673   4.522  0.3157  0.4528 -0.7510
  364SOL    HW1 1329   2.830   1.689   4.489  0.0144  1.3671  0.3932
  364SOL    HW2 1330   2.926   1.578   4.528 -0.5784  0.3680 -0.8920
  365SOL     OW 1331   0.044   4.761   4.008 -0.0029 -0.8114  0.6846
  365SOL    HW1 1332  -0.016   4.765   4.083 -1.0775 -0.0382 -0.1710
  365SOL    HW2 1333   0.057   4.668   3.993 -2.5635 -1.1145 -0.2527
  366SOL     OW 1334   1.231   3.020   3.045 -0.2125  0.0212 -0.3545
  366SOL    HW1 1335   1.259   2.932   3.019 -0.0450 -0.1267  0.3051
  366SOL    HW2 1336   1.137   3.011   3.061 -0.4560  0.2747 -1.5552
  367SOL     OW 1337   5.299   3.061   3.751 -0.3243 -0.2535  0.3928
  367SOL    HW1 1338   5.231   2.995   3.736  0.1318 -1.0066  1.5884
  367SOL    HW2 1339   5.381   3.014   3.741  0.0113  0.2755  0.6618
  368SOL     OW 1340   5.394   4.550   1.706  0.0397  0.2476  0.2713
  368SOL    HW1 1341   5.462   4.617   1.712 -1.2082  1.5510  0.4598
  368SOL    HW2 1342   5.427   4.477   1.758  2.1981 -0.0169 -1.3292
  369SOL     OW 1343   2.028   0.271   3.714 -0.1720  0.6318  0.1407
  369SOL    HW1 1344   2.116   0.286   3.679 -0.4414 -0.7146 -1.2192
  369SOL    HW2 1345   2.042   0.234   3.801  0.5302  3.1835  1.2133
  370SOL     OW 1346   0.763   5.736   1.423  0.2437  0.1494 -0.2989
  370SOL    HW1 1347   0.759   5.641   1.412 -0.4875  0.0913  0.3523
  370SOL    HW2 1348   0.799   5.769   1.340  1.8694 -0.7913 -0.0021
  371SOL     OW 1349   1.368   5.412   1.731  0.6277 -0.1708 -0.5214
  371SOL    HW1 1350   1.440   5.459   1.773  1.4787 -1.7314 -0.1437
  371SOL    HW2 1351   1.306   5.395   1.802 -0.1326  1.1309 -0.8373
  372SOL     OW 1352   4.133   2.845   5.219 -0.3561  0.1675 -0.4585
  372SOL    HW1 1353   4.074   2.905   5.174  0.8714  0.4075 -1.8065
  372SOL    HW2 1354   4.136   2.767   5.163  0.9934  0.3705 -0.7128
  373SOL     OW 1355   1.898   5.880   0.926  0.0146 -0.7602  0.5760
  373SOL    HW1 1356   1.987   5.910   0.943 -0.6274  3.3441 -1.8195
  373SOL    HW2 1357   1.845   5.920   0.995 -0.3786  0.5433 -0.4220
  374SOL     OW 1358   0.117   5.867   1.373 -0.2685  0.0289 -0.0214
  374SOL    HW1 1359   0.156   5.948   1.406  0.4939 -0.3732  0.1032
  374SOL    HW2 1360   0.118   5.876   1.278  0.8291 -0.2713 -0.0525
  375SOL     OW 1361   2.882   5.076   4.187  0.4735 -0.5392  0.0366
  375SOL    HW1 1362   2.832   5.093   4.108  0.8848 -0.3258 -0.1799
  375SOL    HW2 1363   2.817   5.047   4.251  0.0437 -0.0396 -0.1707
  376SOL     OW 1364   3.840   4.609   5.871 -0.1920 -0.3525  0.8618
  376SOL    HW1 1365   3.769   4.635   5.930 -0.6711  0.3215  0.0084
  376SOL    HW2 1366   3.810   4.637   5.784  0.5484 -1.2365  0.3145
  377SOL     OW 1367   3.796   0.361   2.395  0.1891  0.4337 -0.2376
  377SOL    HW1 1368   3.701   0.360   2.390  0.0651  3.1246  0.2766
  377SOL    HW2 1369   3.815   0.363   2.489  0.6377  1.9656 -0.3343
  378SOL     OW 1370   5.259   1.063   5.649  0.4843 -0.3028  0.1978
  378SOL    HW1 1371   5.325   1.122   5.614  0.4687 -0.2882  0.1932
  378SOL    HW2 1372   5.280   0.978   5.611  1.0754 -0.5006  0.9245
  379SOL     OW 1373   4.235   4.124   4.197  0.2687 -0.4343  0.0430
  379SOL    HW1 1374   4.209   4.118   4.106  1.6530  2.2479 -0.6351
  379SOL    HW2 1375   4.330   4.108   4.196  0.8540  2.4028  0.4710
  380SOL     OW 1376   5.654   3.931   0.890  0.4303  0.3000  0.8153
  380SOL    HW1 1377   5.709   3.905   0.816 -1.1736  1.1840 -0.7788
  380SOL    HW2 1378   5.662   3.859   0.953  0.9295 -1.0587 -0.7342
  381SOL     OW 1379   4.207   2.622   0.930 -0.5032  0.7585 -0.2341
  381SOL    HW1 1380   4.167   2.536   0.919  0.0123  0.5323 -0.4246
  381SOL    HW2 1381   4.161   2.661   1.003 -0.2486  0.0122  0.3448
  382SOL     OW 1382   3.258   1.036   0.918  0.1015 -0.4649  0.3592
  382SOL    HW1 1383   3.278   1.128   0.933  0.6919 -0.6956  1.1153
  382SOL    HW2 1384   3.195   1.013   0.987  0.1995 -0.6983  0.3738
  383SOL     OW 1385   1.169   3.090   4.497  0.1224  0.2532  0.0625
  383SOL    HW1 1386   1.215   3.078   4.581  0.4378  1.2592  0.0513
  383SOL    HW2 1387   1.116   3.168   4.511  0.5242  0.6910 -0.8231
  384SOL     OW 1388   0.515   0.610   4.144  0.4601 -0.2230 -0.4008
  384SOL    HW1 1389   0.528   0.579   4.055  0.4567 -1.4265 -0.0024
  384SOL    HW2 1390   0.555   0.543   4.199  0.7413  0.6552  0.4968
  385SOL     OW 1391   2.287   2.050   1.587  0.1050 -0.0479 -0.3045
  385SOL    HW1 1392   2.320   2.114   1.525  1.9946 -0.6004  0.0736
  385SOL    HW2 1393   2.281   1.968   1.537  0.1831 -0.1516 -0.1462
  386SOL     OW 1394   0.724   3.910   2.813  0.6258 -0.1668 -0.4372
  386SOL    HW1 1395   0.644   3.920   2.761 -0.0098  0.2460  0.5764
  386SOL    HW2 1396   0.770   3.993   2.801 -0.5211  0.7629  1.2445
  387SOL     OW 1397   0.754   2.998   5.442 -0.5454  0.6525  0.0208
  387SOL    HW1 1398   0.830   3.042   5.405 -0.8775  0.5609 -0.7832
  387SOL    HW2 1399   0.707   3.068   5.488 -0.3512  0.8533 -0.0853
  388SOL     OW 1400   1.852   4.151   4.796  0.0278  0.2181 -0.0073
  388SOL    HW1 1401   1.921   4.085   4.807 -0.9114 -0.7654  0.2377
  388SOL    HW2 1402   1.851   4.169   4.702  0.2030 -0.2334 -0.0998
  389SOL     OW 1403   5.569   1.171   2.590 -0.0080 -0.5402  0.2654
  389SOL    HW1 1404   5.625   1.220   2.651 -1.6519  0.4537  1.0408
  389SOL    HW2 1405   5.560   1.229   2.514  0.1207 -0.7644  0.0764
  390SOL     OW 1406   1.118   1.960   1.837 -0.7019 -0.0901 -0.2671
  390SOL    HW1 1407   1.101   2.036   1.781  0.8808  0.9592  0.6118
  390SOL    HW2 1408   1.159   1.996   1.915 -0.6229 -1.7842  0.5161
  391SOL     OW 1409   2.233   2.639   0.902  1.0674  0.5554  0.5970
  391SOL    HW1 1410   2.174   2.564   0.893 -2.7289  3.4051 -2.6257
  391SOL    HW2 1411   2.185   2.701   0.958 -0.1510  3.5386 -3.2286
  392SOL     OW 1412   0.050   3.310   0.289 -0.8833 -0.3179 -0.1404
  392SOL    HW1 1413   0.100   3.228   0.292 -2.8342 -1.5707 -0.2446
  392SOL    HW2 1414   0.113   3.375   0.258  0.2311 -2.1831 -2.0884
  393SOL     OW 1415   0.654   3.904   0.408  0.0008  0.5400  0.4627
  393SOL    HW1 1416   0.692   3.854   0.480 -0.4801 -0.9857 -0.2898
  393SOL    HW2 1417   0.701   3.873   0.330 -1.7223 -0.2828 -0.2894
  394SOL     OW 1418   2.538   1.648   5.696  0.2534  0.0334 -1.0079
  394SOL    HW1 1419   2.580   1.608   5.620  1.0171  1.6516 -1.4902
  394SOL    HW2 1420   2.449   1.615   5.695  0.6111 -0.9566 -1.8685
  395SOL     OW 1421   2.096   0.816   1.645  0.6389  0.1686  0.0165
  395SOL    HW1 1422   2.107   0.810   1.550  2.0447  1.3096  0.0781
  395SOL    HW2 1423   2.180   0.847   1.677  0.9649 -2.3520  1.9072
  396SOL     OW 1424   0.748   1.455   4.105 -0.0403 -0.4130 -0.7585
  396SOL    HW1 1425   0.799   1.482   4.029 -1.3902  1.7374 -0.9559
  396SOL    HW2 1426   0.798   1.488   4.180  0.1711 -0.6166 -0.8064
  397SOL     OW 1427   5.252   0.301   1.992  0.1994  0.1257  0.0573
  397SOL    HW1 1428   5.184   0.325   2.055 -0.2499  0.3227 -0.4867
  397SOL    HW2 1429   5.323   0.266   2.045 -0.4134 -0.2832  0.6248
  398SOL     OW 1430   1.924   2.985   3.520 -0.1570  0.0393 -0.6130
  398SOL    HW1 1431   1.901   3.037   3.442 -0.9836  2.6024  1.2114
  398SOL    HW2 1432   1.887   3.034   3.593  1.7341 -1.5697  1.5490
  399SOL     OW 1433   2.983   0.214   1.597 -0.0805  0.6411 -0.0132
  399SOL    HW1 1434   2.925   0.282   1.564 -0.3254  1.2597  1.5844
  399SOL    HW2 1435   3.070   0.253   1.594 -0.0172  0.4685 -0.4884
  400SOL     OW 1436   3.828   5.970   3.650  0.3492  0.3144  0.0593
  400SOL    HW1 1437   3.821   6.063   3.627 -0.8991  0.3838  0.6899
  400SOL    HW2 1438   3.821   5.924   3.566 -1.9522  0.6725  0.0019
  401SOL     OW 1439   4.117   5.356   1.563 -0.1884  0.7957 -0.5614
  401SOL    HW1 1440   4.026   5.331   1.572  0.2695 -0.5635  0.6931
  401SOL    HW2 1441   4.117   5.452   1.568 -1.5804  0.8481 -1.2160
  402SOL     OW 1442   4.292   4.951   0.346 -0.0262 -0.2746  0.3482
  402SOL    HW1 1443   4.325   5.040   0.356 -1.5624  0.2773  0.6623
  402SOL    HW2 1444   4.357   4.896   0.391 -0.6184  0.9708  2.8866
  403SOL     OW 1445   5.269   0.171   3.314  0.0976  0.0141  0.0731
  403SOL    HW1 1446   5.288   0.258   3.349  1.0906  0.7914 -2.1862
  403SOL    HW2 1447   5.345   0.149   3.260  0.5210 -2.9227  1.6451
  404SOL     OW 1448   3.672   0.433   0.724  0.5038  0.0328  0.2408
  404SOL    HW1 1449   3.678   0.358   0.665  0.3543  0.5646 -0.4680
  404SOL    HW2 1450   3.589   0.421   0.770  0.5817 -0.3445  0.2824
  405SOL     OW 1451   5.028   1.147   4.865 -0.1428  0.5031 -0.3846
  405SOL    HW1 1452   5.044   1.235   4.831 -0.7728  0.3867 -1.0150
  405SOL    HW2 1453   4.984   1.102   4.793 -0.0410 -0.2543  0.0232
  406SOL     OW 1454   5.021   5.439   3.310 -0.2783  0.0892  0.0510
  406SOL    HW1 1455   4.960   5.511   3.326 -2.0598 -1.2096 -0.4980
  406SOL    HW2 1456   5.002   5.377   3.380  0.3021 -0.4020 -0.2254
  407SOL     OW 1457   1.726   2.347   6.151  0.2458  0.0959  0.4202
  407SOL    HW1 1458   1.725   2.415   6.084 -2.0611  0.7527  1.0096
  407SOL    HW2 1459   1.644   2.299   6.137  0.5524 -0.8534  1.6738
  408SOL     OW 1460   5.239   6.031   1.964 -0.2400 -0.3153 -0.0853
  408SOL    HW1 1461   5.264   5.991   2.047  0.4327  0.6980  0.2262
  408SOL    HW2 1462   5.167   6.090   1.987 -0.4182 -0.4446 -0.3149
  409SOL     OW 1463   5.933   0.867   4.507  0.0778 -0.2114  0.5118
  409SOL    HW1 1464   6.004   0.913   4.552 -0.2797  0.4663  0.3976
  409SOL    HW2 1465   5.855   0.920   4.524 -0.2814 -0.5899  0.0852
  410SOL     OW 1466   1.267   4.562   2.151 -0.0376  0.2124 -0.3851
  410SOL    HW1 1467   1.359   4.583   2.163  0.2274 -1.0251 -0.0693
  410SOL    HW2 1468   1.254   4.564   2.056  0.0405  1.4227 -0.3824
  411SOL     OW 1469   2.751   1.890   0.266  0.0524 -0.3266  0.0584
  411SOL    HW1 1470   2.799   1.966   0.231 -0.2405 -0.4127 -0.5607
  411SOL    HW2 1471   2.687   1.870   0.197  1.0153 -1.9791 -0.4033
  412SOL     OW 1472   0.183   4.937   1.698 -0.1739  0.4133 -0.2165
  412SOL    HW1 1473   0.139   5.015   1.663  1.4579  1.0424 -0.9274
  412SOL    HW2 1474   0.206   4.886   1.620 -0.0436 -0.1307  0.1739
  413SOL     OW 1475   2.468   4.446   0.660 -0.6318 -0.3588 -0.1799
  413SOL    HW1 1476   2.494   4.412   0.575 -2.3115 -1.1463 -0.4219
  413SOL    HW2 1477   2.495   4.379   0.723 -1.5683 -0.9467 -0.3796
  414SOL     OW 1478   5.030   5.512   0.199 -0.1299 -0.2168  0.6181
  414SOL    HW1 1479   5.071   5.492   0.284 -0.0603  1.3742  1.0049
  414SOL    HW2 1480   4.940   5.536   0.221  0.5064  2.4908  0.5930
  415SOL     OW 1481   3.140   5.128   4.470  0.1922  0.0260  0.1834
  415SOL    HW1 1482   3.116   5.199   4.410 -0.7267  0.0540  0.5737
  415SOL    HW2 1483   3.173   5.059   4.414 -0.9989 -0.0904 -0.3987
  416SOL     OW 1484   2.520   1.411   3.051 -0.2803 -0.0685 -0.2329
  416SOL    HW1 1485   2.480   1.348   3.111 -0.9670  1.3353  0.8357
  416SOL    HW2 1486   2.599   1.368   3.020 -1.8548 -2.3932 -1.3359
  417SOL     OW 1487   1.550   1.214   2.198  0.5007 -0.8884 -0.4857
  417SOL    HW1 1488   1.592   1.129   2.211  0.3311 -1.1691 -1.6166
  417SOL    HW2 1489   1.495   1.227   2.276 -1.0923 -2.8008 -1.2179
  418SOL     OW 1490   1.664   0.755   1.713  0.0040 -0.5257 -0.0382
  418SOL    HW1 1491   1.684   0.699   1.788  2.9478  1.0309  0.5111
  418SOL    HW2 1492   1.598   0.816   1.745  0.1890 -0.7729  0.8227
  419SOL     OW 1493   3.133   4.794   1.260 -0.2345  0.1461 -0.0079
  419SOL    HW1 1494   3.222   4.816   1.235 -0.2228 -0.4687 -0.5559
  419SOL    HW2 1495   3.128   4.811   1.354  0.2463  0.8517 -0.1071
  420SOL     OW 1496   4.207   2.699   4.661  0.4496  0.3797  0.2794
  420SOL    HW1 1497   4.282   2.742   4.702  0.2849  0.0798  0.9118
  420SOL    HW2 1498   4.175   2.762   4.597  0.9210  0.7192  0.3713
  421SOL     OW 1499   1.436   0.108   0.204  0.3126  0.5762  0.5223
  421SOL    HW1 1500   1.508   0.081   0.260  0.2082 -2.1364 -0.4933
  421SOL    HW2 1501   1.458   0.074   0.118 -2.4950 -1.1038  0.3456
  422SOL     OW 1502   1.370   4.345   2.487  0.1714 -0.5274  0.0893
  422SOL    HW1 1503   1.442   4.282   2.484 -0.1269 -0.8206 -1.5048
  422SOL    HW2 1504   1.344   4.347   2.580 -0.5023 -3.5611  0.0698
  423SOL     OW 1505   0.812   2.568   3.459  0.0519 -0.1698  0.1393
  423SOL    HW1 1506   0.741   2.609   3.408 -0.0259  1.7284  1.6621
  423SOL    HW2 1507   0.892   2.612   3.427  0.3061 -0.7756 -0.0750
  424SOL     OW 1508   2.030   3.112   5.032 -0.3985 -0.1138  0.0905
  424SOL    HW1 1509   2.117   3.142   5.057  1.4590 -1.8755 -3.5760
  424SOL    HW2 1510   2.017   3.031   5.082  0.6565 -0.5430 -0.3078
  425SOL     OW 1511   0.015   4.161   3.550 -0.4298  0.5748 -0.4989
  425SOL    HW1 1512  -0.001   4.192   3.461 -0.7736  2.3928  0.1434
  425SOL    HW2 1513   0.013   4.241   3.604 -2.7902 -0.6661  1.4859
  426SOL     OW 1514   3.271   4.673   5.053 -0.2685  0.3215  0.6035
  426SOL    HW1 1515   3.241   4.762   5.070  0.5465  0.6896  0.1454
  426SOL    HW2 1516   3.208   4.617   5.099 -1.1405  1.1039  0.3761
  427SOL     OW 1517   5.476   4.109   1.368 -0.2192 -0.2250  0.4295
  427SOL    HW1 1518   5.545   4.175   1.379 -1.0171  0.7046 -0.0152
  427SOL    HW2 1519   5.521   4.035   1.325  0.6658  0.0537  0.8561
  428SOL     OW 1520   2.096   5.749   4.082 -1.2392  0.2437 -0.0516
  428SOL    HW1 1521   2.063   5.713   3.999  1.4053  0.9919 -1.5451
  428SOL    HW2 1522   2.124   5.838   4.060  0.7975 -0.0156  1.2566
  429SOL     OW 1523   3.675   3.594   3.182  0.6234 -0.7938 -0.2259
  429SOL    HW1 1524   3.591   3.572   3.221  0.5343 -1.3051 -0.6838
  429SOL    HW2 1525   3.657   3.604   3.089  1.0796 -0.9853 -0.3410
  430SOL     OW 1526   1.452   1.755   1.549  0.1887  0.1787 -0.0785
  430SOL    HW1 1527   1.475   1.724   1.461 -0.0651  2.1476 -0.8816
  430SOL    HW2 1528   1.535   1.768   1.593  0.3156 -2.9041  0.8231
  431SOL     OW 1529   4.878   0.344   3.652  0.3827  0.0318 -0.1799
  431SOL    HW1 1530   4.952   0.287   3.671  0.5508 -0.1619 -1.3756
  431SOL    HW2 1531   4.803   0.302   3.694  0.6844 -0.5404 -0.2153
  432SOL     OW 1532   1.797   1.798   5.534  0.1685 -0.1227  0.2263
  432SOL    HW1 1533   1.764   1.768   5.449 -0.2175 -1.0604  0.6874
  432SOL    HW2 1534   1.812   1.717   5.583 -1.0709  0.4347  1.5921
  433SOL     OW 1535   0.066   0.251   4.554  0.0944 -0.0940 -0.2123
  433SOL    HW1 1536   0.063   0.155   4.550  0.2260 -0.0725 -0.9634
  433SOL    HW2 1537   0.012   0.279   4.480  0.8842  0.4055 -0.6123
  434SOL     OW 1538   2.370   0.888   4.260  0.2647 -0.0025  0.2940
  434SOL    HW1 1539   2.389   0.977   4.231  3.1309 -0.6764 -0.2615
  434SOL    HW2 1540   2.315   0.851   4.190 -2.4134  1.7377  1.3390
  435SOL     OW 1541   0.125   3.880   5.472 -0.5616 -0.2119 -0.2948
  435SOL    HW1 1542   0.185   3.899   5.399 -1.4743  1.5604 -0.6581
  435SOL    HW2 1543   0.118   3.785   5.473  2.6380 -0.5775  0.1215
  436SOL     OW 1544   3.047   1.277   1.690 -0.3280 -0.0999 -0.2823
  436SOL    HW1 1545   3.048   1.232   1.606 -0.1196  0.0233 -0.3489
  436SOL    HW2 1546   2.967   1.329   1.689  0.1303  0.6107 -0.7904
  437SOL     OW 1547   0.870   0.222   4.790  0.1409  0.1563  0.4577
  437SOL    HW1 1548   0.844   0.311   4.765 -0.2355  0.6725  2.5094
  437SOL    HW2 1549   0.901   0.230   4.880  1.1126 -1.6287  0.3235
  438SOL     OW 1550   6.073   0.709   0.232  0.6574 -0.4110 -0.9436
  438SOL    HW1 1551   6.085   0.691   0.325  1.4689  1.3053 -0.6632
  438SOL    HW2 1552   6.124   0.642   0.187  2.3870  0.2336 -0.0408
  439SOL     OW 1553   1.636   2.352   3.874 -0.0932 -0.4153  0.1087
  439SOL    HW1 1554   1.682   2.269   3.887  0.2583 -0.1310  0.7343
  439SOL    HW2 1555   1.578   2.359   3.950 -0.3881 -0.2548 -0.1292
  440SOL     OW 1556   3.633   3.275   3.010 -0.4385  0.7332 -0.2659
  440SOL    HW1 1557   3.701   3.297   3.074 -0.1170 -2.6999  0.8139
  440SOL    HW2 1558   3.552   3.268   3.062 -0.4111 -0.8829 -0.3822
  441SOL     OW 1559   1.699   2.648   2.806 -0.3704  0.2873  0.0675
  441SOL    HW1 1560   1.630   2.581   2.805  0.3615 -0.4907 -0.2547
  441SOL    HW2 1561   1.665   2.717   2.862 -0.3819 -1.1872  1.9782
  442SOL     OW 1562   5.842   5.380   2.470  0.0089  0.2367  0.7079
  442SOL    HW1 1563   5.752   5.347   2.467 -0.6410  1.8991  1.0429
  442SOL    HW2 1564   5.887   5.332   2.401 -1.4067  0.1334 -0.1832
  443SOL     OW 1565   0.428   3.924   1.804  0.7415  0.0823 -0.9006
  443SOL    HW1 1566   0.370   3.999   1.786  0.8471  0.5549  0.5679
  443SOL    HW2 1567   0.370   3.849   1.807  0.1524  0.5510  0.5366
  444SOL     OW 1568   3.771   0.798   0.333 -0.1650 -0.0795 -0.1865
  444SOL    HW1 1569   3.852   0.796   0.384  0.9683 -0.1538 -1.9485
  444SOL    HW2 1570   3.706   0.834   0.394  1.6893  2.2730  0.5544
  445SOL     OW 1571   1.620   4.034   5.289  0.2914  0.1409  0.6255
  445SOL    HW1 1572   1.714   4.016   5.292 -0.1384 -3.2995 -1.1722
  445SOL    HW2 1573   1.605   4.066   5.200 -0.3219  0.0518  0.6942
  446SOL     OW 1574   1.945   2.035   1.046  0.0240 -0.2644  0.1084
  446SOL    HW1 1575   1.964   1.943   1.063  0.0314  0.1082  2.4749
  446SOL    HW2 1576   1.856   2.034   1.009  0.4180 -1.2477 -0.8975
  447SOL     OW 1577   0.742   3.387   3.654  0.1192 -0.3343 -0.7184
  447SOL    HW1 1578   0.758   3.309   3.602 -0.1144 -0.0905 -1.1640
  447SOL    HW2 1579   0.803   3.380   3.727  0.3238 -0.7724 -0.9272
  448SOL     OW 1580   2.251   2.550   3.203 -0.5664  0.1399  0.5873
  448SOL    HW1 1581   2.255   2.552   3.299 -0.5191 -1.2791  0.6350
  448SOL    HW2 1582   2.200   2.471   3.183 -0.6082  0.4412 -0.5568
  449SOL     OW 1583   5.797   1.335   3.237  0.9465 -0.2701 -0.3855
  449SOL    HW1 1584   5.882   1.309   3.203  0.7274 -0.4920 -0.7758
  449SOL    HW2 1585   5.745   1.255   3.234  0.2988  0.1768 -1.4737
  450SOL     OW 1586   0.205   4.747   2.946  0.0284 -0.7458  0.4273
  450SOL    HW1 1587   0.265   4.688   2.992 -0.5723  0.2597  2.6237
  450SOL    HW2 1588   0.255   4.828   2.934 -1.2440  0.7271  3.8326
  451SOL     OW 1589   3.652   1.820   1.768  0.2196 -0.7025  0.0929
  451SOL    HW1 1590   3.626   1.867   1.847 -0.6096 -1.0801  0.0615
  451SOL    HW2 1591   3.646   1.886   1.698  1.2612 -0.2878  0.3811
  452SOL     OW 1592   4.358   5.907   3.036 -0.3308  0.1279 -0.8355
  452SOL    HW1 1593   4.420   5.848   2.994  0.6369  1.7076 -1.6942
  452SOL    HW2 1594   4.320   5.854   3.107  1.8300 -0.9636 -0.4042
  453SOL     OW 1595   1.937   1.667   4.178  0.2676  0.0451 -0.3952
  453SOL    HW1 1596   1.887   1.748   4.179 -0.2488 -0.2553 -1.0580
  453SOL    HW2 1597   1.904   1.619   4.102  1.6693 -0.1011 -0.9438
  454SOL     OW 1598   5.127   1.088   1.058  0.4012  0.2606 -0.5546
  454SOL    HW1 1599   5.139   1.001   1.021 -0.4531 -0.2666  0.3595
  454SOL    HW2 1600   5.117   1.146   0.982  2.6304 -0.1467 -1.2168
  455SOL     OW 1601   2.095   1.845   0.045  0.3427  0.5017  0.3565
  455SOL    HW1 1602   2.019   1.901   0.062 -0.0605  0.0866 -0.0167
  455SOL    HW2 1603   2.170   1.894   0.079 -0.0995  0.8972  0.7747
  456SOL     OW 1604   0.975   3.834   3.762  0.2003 -0.6821 -0.2025
  456SOL    HW1 1605   1.004   3.768   3.700 -0.1280  0.8262 -2.0607
  456SOL    HW2 1606   1.030   3.910   3.744 -1.0911  0.3672  0.1153
  457SOL     OW 1607   3.896   2.708   2.025  0.3008 -0.2337 -0.0770
  457SOL    HW1 1608   3.835   2.773   2.060  1.1633  0.7071 -0.2499
  457SOL    HW2 1609   3.946   2.679   2.101  1.0501  0.5815 -0.2315
  458SOL     OW 1610   4.389   0.333   4.888  0.3564  0.4400 -0.1212
  458SOL    HW1 1611   4.357   0.316   4.800  0.0110 -0.3365  0.1371
  458SOL    HW2 1612   4.484   0.317   4.883  0.2974  0.1344 -0.2897
  459SOL     OW 1613   1.883   4.127   5.918 -0.0399 -0.5662  0.5614
  459SOL    HW1 1614   1.973   4.144   5.891 -0.5170 -0.1933 -0.9443
  459SOL    HW2 1615   1.888   4.109   6.011  1.3182  1.7580  1.0313
  460SOL     OW 1616   5.432   0.463   0.713 -0.7285  0.2266  0.3202
  460SOL    HW1 1617   5.518   0.443   0.676 -0.9032 -0.7002  0.3691
  460SOL    HW2 1618   5.428   0.558   0.716  0.4798  0.2821  0.7522
  461SOL     OW 1619   1.248   5.700   4.224  0.3198 -0.9917 -0.0305
  461SOL    HW1 1620   1.241   5.605   4.217 -0.0533 -1.0242  0.6188
  461SOL    HW2 1621   1.315   5.714   4.291 -0.4912 -0.8291  0.7707
  462SOL     OW 1622   1.979   2.719   3.065  0.7564  0.0890  0.4954
  462SOL    HW1 1623   1.920   2.644   3.076 -0.3795  0.8922  0.0251
  462SOL    HW2 1624   2.058   2.694   3.113  0.0531 -1.0297  1.1187
  463SOL     OW 1625   6.077   2.081   1.114  0.0516 -0.0531  0.8494
  463SOL    HW1 1626   6.007   2.024   1.084 -0.5113  0.2992  1.4575
  463SOL    HW2 1627   6.097   2.136   1.037  0.4518 -0.9095  0.3317
  464SOL     OW 1628   4.353   1.739   3.815 -0.0794 -0.3897  0.6371
  464SOL    HW1 1629   4.304   1.808   3.769  0.2932 -1.3874 -1.3840
  464SOL    HW2 1630   4.437   1.779   3.835  0.4594 -0.4550 -1.2977
  465SOL     OW 1631   2.433   5.052   3.211  0.0155  0.3911 -0.2555
  465SOL    HW1 1632   2.446   4.967   3.170 -1.7571  0.0538 -0.2211
  465SOL    HW2 1633   2.444   5.115   3.139 -3.7101 -0.2275 -1.6301
  466SOL     OW 1634   2.699   2.840   5.155  0.1415  0.5950  0.0240
  466SOL    HW1 1635   2.711   2.799   5.241  0.5130  1.0433  0.1888
  466SOL    HW2 1636   2.777   2.893   5.142  0.3672  0.0628 -0.8607
  467SOL     OW 1637   2.982   2.371   5.799 -0.1663 -0.1386 -0.4175
  467SOL    HW1 1638   2.984   2.332   5.711  1.6976  2.6030 -1.7482
  467SOL    HW2 1639   2.895   2.411   5.805 -1.2031 -2.3278  0.0247
  468SOL     OW 1640   4.325   2.463   5.199 -0.7731 -0.8048  0.3955
  468SOL    HW1 1641   4.395   2.481   5.136 -0.2180 -2.1503  0.5895
  468SOL    HW2 1642   4.309   2.547   5.241 -0.9742  0.0587 -1.3416
  469SOL     OW 1643   5.594   5.291   5.685  0.7345 -0.8680  0.0849
  469SOL    HW1 1644   5.577   5.222   5.620  0.7466  0.1772 -1.0790
  469SOL    HW2 1645   5.654   5.351   5.640 -0.0468  0.4143  0.6992
  470SOL     OW 1646   5.698   2.977   3.519 -0.3939  0.0126 -0.0676
  470SOL    HW1 1647   5.781   3.010   3.487  0.0913  0.1526  1.2959
  470SOL    HW2 1648   5.636   2.996   3.448  0.9736 -1.3835 -1.7099
  471SOL     OW 1649   1.063   2.109   5.850  0.4024 -0.0246  0.4531
  471SOL    HW1 1650   1.143   2.057   5.854  0.9275  0.7263 -0.1534
  471SOL    HW2 1651   0.993   2.045   5.862  1.0841 -0.6630  1.1727
  472SOL     OW 1652   2.090   4.359   1.418  0.0741  0.8408  0.1761
  472SOL    HW1 1653   2.035   4.352   1.340 -0.8495 -0.5216  0.9151
  472SOL    HW2 1654   2.163   4.299   1.401 -0.6150 -0.1841  0.7169
  473SOL     OW 1655   1.728   2.880   3.207  0.1568 -0.0228  0.1764
  473SOL    HW1 1656   1.805   2.829   3.231 -0.9453 -2.6528 -1.4032
  473SOL    HW2 1657   1.654   2.830   3.242 -0.9364  2.2549  1.3758
  474SOL     OW 1658   2.215   0.058   1.543 -0.6000 -0.0851 -0.4866
  474SOL    HW1 1659   2.263   0.062   1.626 -0.9403 -2.2054 -0.1183
  474SOL    HW2 1660   2.180   0.146   1.531  0.4444  0.5807  1.0126
  475SOL     OW 1661   3.432   4.411   1.704 -0.1668  0.2268 -0.1461
  475SOL    HW1 1662   3.446   4.441   1.794  1.3824  0.6001 -0.4805
  475SOL    HW2 1663   3.501   4.454   1.654 -1.2057  0.2852 -1.5916
  476SOL     OW 1664   4.609   4.384   5.940  0.2340 -0.2283  0.9693
  476SOL    HW1 1665   4.623   4.427   6.025 -0.0658  1.1314  0.3600
  476SOL    HW2 1666   4.584   4.295   5.963 -0.3818  0.2584  2.3568
  477SOL     OW 1667   4.808   5.705   3.844 -0.2383 -0.0609  0.3168
  477SOL    HW1 1668   4.730   5.676   3.891 -0.1717 -0.0299  0.4460
  477SOL    HW2 1669   4.837   5.784   3.890 -0.7111  0.5097 -0.3436
  478SOL     OW 1670   3.161   3.009   5.110  0.0887 -0.2594  0.3054
  478SOL    HW1 1671   3.156   2.996   5.205 -0.6606 -0.5664  0.2312
  478SOL    HW2 1672   3.164   2.921   5.074 -1.3735 -0.2070 -0.0287
  479SOL     OW 1673   5.184   2.251   2.561  0.2722 -0.2146 -0.5995
  479SOL    HW1 1674   5.157   2.246   2.469 -1.0885 -1.4999 -0.1817
  479SOL    HW2 1675   5.259   2.191   2.567 -1.7665 -2.9555 -0.2680
  480SOL     OW 1676   2.793   2.146   0.157 -0.2027 -0.2144 -0.6702
  480SOL    HW1 1677   2.843   2.168   0.078  0.3415  1.2677  0.0547
  480SOL    HW2 1678   2.848   2.176   0.229 -2.3265  1.9787  0.1525
  481SOL     OW 1679   4.180   5.742   4.078 -0.6167  0.2664 -0.0377
  481SOL    HW1 1680   4.130   5.820   4.054 -0.5825  0.5946  0.9225
  481SOL    HW2 1681   4.148   5.718   4.165  0.2367 -0.0562  0.2045
  482SOL     OW 1682   4.876   4.044   0.319 -0.1251 -0.4723  0.8232
  482SOL    HW1 1683   4.967   4.063   0.340 -0.3899  1.7174  0.1806
  482SOL    HW2 1684   4.880   3.968   0.260  1.2949 -0.1973  0.5409
  483SOL     OW 1685   0.356   2.088   3.566  0.5238  0.2512 -0.2626
  483SOL    HW1 1686   0.368   1.994   3.576  0.0416  0.3399  1.4922
  483SOL    HW2 1687   0.375   2.105   3.474  0.3432 -1.5945 -0.6770
  484SOL     OW 1688   3.720   1.570   3.062 -0.4693  0.0321  0.0861
  484SOL    HW1 1689   3.706   1.650   3.011 -1.8846  0.2717  0.7716
  484SOL    HW2 1690   3.753   1.602   3.146 -0.7724 -0.1118  0.2627
  485SOL     OW 1691   4.578   5.804   4.867  0.2405  0.0893 -0.6167
  485SOL    HW1 1692   4.543   5.850   4.790 -0.1079 -0.0432 -0.5377
  485SOL    HW2 1693   4.673   5.803   4.853  0.4745  2.5614  0.3107
  486SOL     OW 1694   2.086   1.330   3.676 -0.3283  0.4158  0.4914
  486SOL    HW1 1695   2.152   1.265   3.701  0.0230  0.7398  0.4034
  486SOL    HW2 1696   2.104   1.349   3.584 -0.4104  0.6670  0.5268
  487SOL     OW 1697   5.157   3.070   2.940 -0.2076 -0.8437  0.2679
  487SOL    HW1 1698   5.079   3.085   2.994  0.5087 -1.2344  1.4512
  487SOL    HW2 1699   5.203   3.154   2.939 -1.1361 -0.3193 -1.2930
  488SOL     OW 1700   0.685   4.248   0.063 -0.0605 -0.3617  0.5002
  488SOL    HW1 1701   0.769   4.245   0.108 -0.0256  0.2116  0.4739
  488SOL    HW2 1702   0.697   4.193  -0.014  0.7629  0.9128 -0.3074
  489SOL     OW 1703   4.988   2.099   0.527 -0.1203 -0.1756  0.0060
  489SOL    HW1 1704   4.895   2.079   0.519 -0.3959  0.5771  1.2039
  489SOL    HW2 1705   4.994   2.192   0.506  0.4343 -0.3201 -0.5013
  490SOL     OW 1706   2.680   5.374   4.429  0.0204 -0.1036  0.4957
  490SOL    HW1 1707   2.768   5.400   4.404 -0.2636  0.0257 -0.4174
  490SOL    HW2 1708   2.691   5.324   4.509  1.0287 -1.0331 -0.2056
  491SOL     OW 1709   2.464   0.990   1.106 -0.1391  0.0217 -0.9692
  491SOL    HW1 1710   2.540   0.942   1.072  0.5471 -0.9412  1.6537
  491SOL    HW2 1711   2.485   1.082   1.089  1.4388 -0.2483 -0.6733
  492SOL     OW 1712   5.109   2.365   3.968  0.2784 -0.2811 -0.1378
  492SOL    HW1 1713   5.181   2.329   3.916  1.7772 -0.5047  1.9906
  492SOL    HW2 1714   5.047   2.293   3.978 -0.1034 -0.1988 -1.6576
  493SOL     OW 1715   5.132   4.019   5.311  0.1842  0.1885  0.2441
  493SOL    HW1 1716   5.039   4.027   5.291 -0.2931 -0.8909  1.9070
  493SOL    HW2 1717   5.171   4.098   5.274 -1.3414  0.5431 -0.6813
  494SOL     OW 1718   1.617   4.631   3.632 -0.3855 -0.3611  0.0600
  494SOL    HW1 1719   1.572   4.617   3.548 -0.0243  0.8327 -0.3514
  494SOL    HW2 1720   1.636   4.725   3.633 -1.9325 -0.0042  2.2742
  495SOL     OW 1721   1.791   1.771   6.020 -0.6928  0.4927 -0.5790
  495SOL    HW1 1722   1.763   1.714   5.949 -1.7703 -2.0560  1.7069
  495SOL    HW2 1723   1.883   1.792   6.000 -0.1633 -2.2879 -1.4480
  496SOL     OW 1724   1.239   2.727   1.683  0.5029  0.1528  0.0436
  496SOL    HW1 1725   1.226   2.816   1.649  0.2082 -0.1401 -0.6110
  496SOL    HW2 1726   1.259   2.740   1.776 -2.3059  0.7582  0.6456
  497SOL     OW 1727   0.882   2.664   4.587 -0.8167 -0.0865  0.4239
  497SOL    HW1 1728   0.884   2.710   4.671  2.2050 -0.1175  0.4660
  497SOL    HW2 1729   0.873   2.733   4.522  1.7594  0.5190  0.5959
  498SOL     OW 1730   1.398   0.716   5.146  0.4950 -0.2195  0.1278
  498SOL    HW1 1731   1.380   0.629   5.109  2.3781 -0.7954  0.4646
  498SOL    HW2 1732   1.424   0.698   5.236 -0.3875  0.8333  0.5999
  499SOL     OW 1733   0.535   2.319   4.105  0.3417 -0.7717 -0.1651
  499SOL    HW1 1734   0.532   2.339   4.198 -0.1619 -1.0850 -0.1101
  499SOL    HW2 1735   0.574   2.231   4.101  0.3073 -0.7830 -0.2493
  500SOL     OW 1736   6.017   5.274   2.066 -0.0156 -0.9238  0.2133
  500SOL    HW1 1737   6.074   5.345   2.035 -0.0271 -0.9059  0.2337
  500SOL    HW2 1738   6.058   5.245   2.147  0.8985 -2.0233 -0.6126
  501SOL     OW 1739   5.195   0.390   2.962  0.4414 -0.5870  0.1218
  501SOL    HW1 1740   5.273   0.445   2.955 -0.1780  0.3163  0.2175
  501SOL    HW2 1741   5.127   0.438   2.914 -0.6171 -0.3098  1.8178
  502SOL     OW 1742   2.925   3.162   5.328  0.1319 -0.0018  0.0964
  502SOL    HW1 1743   2.932   3.070   5.354  0.3477 -0.2091 -0.6900
  502SOL    HW2 1744   2.848   3.194   5.375 -2.5658 -1.6994 -2.7857
  503SOL     OW 1745   0.642   3.842   3.085  0.0316 -0.5302  0.6562
  503SOL    HW1 1746   0.622   3.884   3.002  1.8585  0.4770  0.6644
  503SOL    HW2 1747   0.696   3.767   3.062  0.6748 -0.1609  0.9107
  504SOL     OW 1748   3.183   2.731   2.631  0.5232  0.3212  0.2234
  504SOL    HW1 1749   3.203   2.652   2.682  0.8119  0.1706 -0.1185
  504SOL    HW2 1750   3.261   2.744   2.576 -0.0785  0.0701 -0.6996
  505SOL     OW 1751   0.371   2.732   0.375  0.5972  0.2955 -0.4514
  505SOL    HW1 1752   0.285   2.765   0.347  0.3886 -0.6472 -0.9680
  505SOL    HW2 1753   0.422   2.724   0.294  0.9698  0.2976 -0.2196
  506SOL     OW 1754   2.482   1.012   5.399 -0.1800 -0.4907 -0.4970
  506SOL    HW1 1755   2.458   0.957   5.324 -0.8158 -0.2146 -0.5037
  506SOL    HW2 1756   2.442   0.969   5.474 -2.0707  0.8112 -0.7112
  507SOL     OW 1757   4.692   5.476   2.323  0.5053 -0.1012  0.3596
  507SOL    HW1 1758   4.688   5.406   2.387  1.5739 -1.3294 -0.8570
  507SOL    HW2 1759   4.609   5.470   2.275  0.0595  0.3013  1.0552
  508SOL     OW 1760   3.734   3.842   0.503  0.1667 -0.1730  0.5714
  508SOL    HW1 1761   3.721   3.900   0.428  0.3168 -0.0675  0.6267
  508SOL    HW2 1762   3.790   3.891   0.562  0.2981 -0.3750  0.6165
  509SOL     OW 1763   5.827   5.241   1.266 -0.6297 -0.1818  1.0759
  509SOL    HW1 1764   5.801   5.277   1.351 -0.4918  1.6133  0.3855
  509SOL    HW2 1765   5.796   5.304   1.202  1.3546 -0.2695 -0.0626
  510SOL     OW 1766   4.969   2.334   4.501  0.5525  0.1429 -0.3793
  510SOL    HW1 1767   4.934   2.342   4.412  0.2735 -0.1264 -0.2983
  510SOL    HW2 1768   4.977   2.425   4.532  2.0426  0.3203 -1.1919
  511SOL     OW 1769   4.788   3.616   3.535 -0.2812 -0.1296  0.1580
  511SOL    HW1 1770   4.846   3.686   3.504 -0.9631  0.3927  0.0403
  511SOL    HW2 1771   4.747   3.653   3.614 -1.7780  0.1983 -0.7337
  512SOL     OW 1772   3.252   3.291   4.710  0.3019 -0.0214  0.1748
  512SOL    HW1 1773   3.299   3.344   4.645  0.0595 -0.5728 -0.4644
  512SOL    HW2 1774   3.227   3.353   4.778  1.2921  0.4208  0.1557
  513SOL     OW 1775   4.744   5.923   0.363  0.0220  0.3689 -0.0344
  513SOL    HW1 1776   4.653   5.902   0.342  0.4924 -0.1602 -1.6619
  513SOL    HW2 1777   4.761   5.877   0.445 -1.1483  0.4564  0.2804
  514SOL     OW 1778   4.877   5.389   5.977  0.0012  0.0196 -0.5031
  514SOL    HW1 1779   4.966   5.367   6.003  0.0824 -0.3463 -1.0889
  514SOL    HW2 1780   4.822   5.324   6.022  0.0015  0.4132  0.0755
  515SOL     OW 1781   0.237   4.753   4.726  0.3364  0.4331  0.2116
  515SOL    HW1 1782   0.167   4.818   4.714 -0.9976 -1.1406 -0.9486
  515SOL    HW2 1783   0.316   4.806   4.739 -0.7179  2.2924 -0.4474
  516SOL     OW 1784   4.575   2.252   5.227  0.2763  0.5665 -0.5408
  516SOL    HW1 1785   4.607   2.332   5.185 -1.1979  0.7981 -1.3047
  516SOL    HW2 1786   4.573   2.187   5.156  1.4247 -0.1496  0.0623
  517SOL     OW 1787   0.288   1.697   2.528  0.3409 -0.7835  0.5661
  517SOL    HW1 1788   0.329   1.684   2.443 -0.6232 -0.6573  0.0699
  517SOL    HW2 1789   0.341   1.764   2.570  0.4480 -0.3717 -0.2046
  518SOL     OW 1790   5.141   3.396   3.735  0.0615  0.1876  0.1663
  518SOL    HW1 1791   5.195   3.327   3.698  1.0374  0.3364  1.2790
  518SOL    HW2 1792   5.181   3.477   3.704  0.6492  0.3038  1.1970
  519SOL     OW 1793   3.110   4.387   4.502  0.2740 -0.1372  0.6929
  519SOL    HW1 1794   3.021   4.359   4.523 -0.2779  1.1577  0.2031
  519SOL    HW2 1795   3.123   4.466   4.556  0.6129  0.4581 -0.2428
  520SOL     OW 1796   3.349   1.707   3.078  0.3239  0.2249 -0.2222
  520SOL    HW1 1797   3.290   1.714   3.003  1.6874 -1.1509 -1.4984
  520SOL    HW2 1798   3.436   1.726   3.042  1.2773 -2.3236  0.4966
  521SOL     OW 1799   1.992   0.239   3.031  0.7189  0.3022 -0.0274
  521SOL    HW1 1800   1.989   0.184   3.110  0.1056  2.4931  1.5597
  521SOL    HW2 1801   2.086   0.251   3.015  1.0057  2.7718  2.6566
  522SOL     OW 1802   5.226   4.241   0.560 -0.0440  0.0273 -0.5179
  522SOL    HW1 1803   5.213   4.331   0.529  1.2728  0.7203  0.8079
  522SOL    HW2 1804   5.222   4.248   0.656  0.3115 -1.2956 -0.3877
  523SOL     OW 1805   5.418   3.532   2.967  0.0242 -0.1325 -0.2471
  523SOL    HW1 1806   5.385   3.614   3.004 -0.4255 -0.2841 -0.3006
  523SOL    HW2 1807   5.507   3.552   2.938 -0.1374  0.3734 -0.3938
  524SOL     OW 1808   1.988   4.301   1.158  0.5933 -0.3291 -0.0625
  524SOL    HW1 1809   1.993   4.236   1.088  2.2549 -0.1685 -0.1296
  524SOL    HW2 1810   1.930   4.262   1.223 -3.8932  0.8917 -2.8881
  525SOL     OW 1811   3.481   4.511   2.008 -0.6881 -0.5095  0.3353
  525SOL    HW1 1812   3.567   4.552   1.995 -0.6794 -0.7699 -0.4621
  525SOL    HW2 1813   3.501   4.431   2.057 -0.6731  0.2449  1.6325
  526SOL     OW 1814   2.138   6.113   2.591  0.0690  0.6250  0.1279
  526SOL    HW1 1815   2.055   6.069   2.568  0.7830  0.2272 -1.8429
  526SOL    HW2 1816   2.182   6.050   2.649  0.5166 -0.7704 -1.6493
  527SOL     OW 1817   6.103   0.162   4.935  0.1515 -0.1708  0.5169
  527SOL    HW1 1818   6.143   0.248   4.949  1.3962 -0.9350  2.0121
  527SOL    HW2 1819   6.075   0.135   5.022 -1.3589 -0.7726 -0.1323
  528SOL     OW 1820   4.280   4.858   1.257  0.3720 -0.1705  0.3040
  528SOL    HW1 1821   4.280   4.773   1.212  2.7386 -0.4256  0.6933
  528SOL    HW2 1822   4.339   4.847   1.331  0.2441  1.6570  0.7284
  529SOL     OW 1823   5.277   3.815   2.255 -0.0109  0.2746 -0.0383
  529SOL    HW1 1824   5.198   3.762   2.242  0.6095 -0.7600  0.4201
  529SOL    HW2 1825   5.261   3.893   2.200 -0.2930 -1.0280 -1.9047
  530SOL     OW 1826   0.811   5.950   5.686 -0.5245 -0.0839 -0.3682
  530SOL    HW1 1827   0.862   5.885   5.637  0.1307  0.7486 -0.8227
  530SOL    HW2 1828   0.767   5.899   5.755 -0.4332 -1.0748 -1.0208
  531SOL     OW 1829   5.723   4.611   4.292 -0.5108  0.3872  0.2631
  531SOL    HW1 1830   5.737   4.655   4.377  0.9853 -1.8425  1.2627
  531SOL    HW2 1831   5.805   4.625   4.245  0.6907 -2.5593  1.2682
  532SOL     OW 1832   0.423   3.394   4.500  0.0123 -0.6022 -0.1719
  532SOL    HW1 1833   0.457   3.314   4.459  2.3952  0.1726  0.1495
  532SOL    HW2 1834   0.472   3.465   4.459 -0.8266  0.5598  0.7680
  533SOL     OW 1835   1.538   3.248   5.746  0.4023 -0.0067  0.0739
  533SOL    HW1 1836   1.451   3.225   5.778  0.8388 -1.6667  0.1972
  533SOL    HW2 1837   1.588   3.271   5.824 -0.0728  1.5580 -0.0614
  534SOL     OW 1838   1.981   2.040   5.550 -0.4802 -0.3134  0.4255
  534SOL    HW1 1839   2.013   2.060   5.462 -1.5625 -0.3325  0.0099
  534SOL    HW2 1840   1.910   1.978   5.536 -2.5545  1.7797  1.0484
  535SOL     OW 1841   2.722   3.276   5.471  0.0639  0.8907  0.2700
  535SOL    HW1 1842   2.720   3.226   5.552  0.9423 -1.8531 -1.2511
  535SOL    HW2 1843   2.714   3.368   5.498 -1.8039 -0.0138  3.2447
  536SOL     OW 1844   4.169   3.850   5.118 -0.2414 -0.1500 -0.0934
  536SOL    HW1 1845   4.141   3.932   5.077  2.5037  1.1085  0.3077
  536SOL    HW2 1846   4.125   3.850   5.204 -1.0009  0.4128 -0.4672
  537SOL     OW 1847   6.145   4.233   2.887 -1.0948 -0.2844 -0.6617
  537SOL    HW1 1848   6.209   4.212   2.956  1.3872 -1.4398 -3.1193
  537SOL    HW2 1849   6.141   4.329   2.888 -1.4885 -0.2623  1.3158
  538SOL     OW 1850   1.705   2.445   4.238 -0.2860 -0.1708 -0.0190
  538SOL    HW1 1851   1.785   2.394   4.249 -0.1555  0.0772  0.1891
  538SOL    HW2 1852   1.732   2.522   4.188 -0.2718  0.2054  0.5544
  539SOL     OW 1853   3.100   0.007   1.721 -0.3808  0.4078  0.3006
  539SOL    HW1 1854   3.027   0.055   1.682  0.0165  0.1715 -0.7694
  539SOL    HW2 1855   3.174   0.068   1.716 -0.7819  1.1729  2.6498
  540SOL     OW 1856   0.873   6.041   2.447  0.1658 -0.2991  0.2948
  540SOL    HW1 1857   0.888   6.121   2.499  0.7625 -0.5351  0.4970
  540SOL    HW2 1858   0.822   5.985   2.505 -1.9180  0.6514 -0.5285
  541SOL     OW 1859   4.901   3.574   0.828 -0.1519  0.3908  0.3369
  541SOL    HW1 1860   4.928   3.482   0.823  1.1773  0.8213 -1.2764
  541SOL    HW2 1861   4.917   3.608   0.740  0.4867  2.4767  1.2140
  542SOL     OW 1862   1.472   5.560   5.424 -0.3095  0.0980 -0.0388
  542SOL    HW1 1863   1.519   5.630   5.379  1.4583 -1.4929 -0.7557
  542SOL    HW2 1864   1.535   5.524   5.486 -0.8876 -1.4646 -0.3224
  543SOL     OW 1865   4.473   2.921   0.165 -0.2081 -0.0055 -0.1136
  543SOL    HW1 1866   4.397   2.973   0.137  0.1575  0.5723 -0.0564
  543SOL    HW2 1867   4.536   2.930   0.094  0.2730  0.5157  0.3675
  544SOL     OW 1868   0.526   5.878   1.470 -0.0375 -0.4731  0.0347
  544SOL    HW1 1869   0.618   5.854   1.479  0.7901  2.4299  0.5084
  544SOL    HW2 1870   0.510   5.874   1.376  1.3730  1.2989 -0.3460
  545SOL     OW 1871   5.733   4.386   1.057 -0.5803 -0.3774 -0.4101
  545SOL    HW1 1872   5.769   4.305   1.021 -0.9138 -1.2367  1.0838
  545SOL    HW2 1873   5.658   4.357   1.109 -1.0141  0.9544 -0.2731
  546SOL     OW 1874   0.135   0.337   0.495  0.3369 -0.2441 -0.2536
  546SOL    HW1 1875   0.094   0.252   0.477  0.8191 -0.5674  0.1536
  546SOL    HW2 1876   0.203   0.318   0.559 -0.6525  0.7184  1.1607
  547SOL     OW 1877   5.263   1.235   1.479 -0.0468  0.5312 -0.1784
  547SOL    HW1 1878   5.332   1.211   1.417 -2.9415 -2.7519 -2.5306
  547SOL    HW2 1879   5.190   1.263   1.424 -1.5126  1.3377  2.0184
  548SOL     OW 1880   3.914   1.271   3.321 -0.6045  0.0701 -0.2681
  548SOL    HW1 1881   3.840   1.330   3.339  0.2024  1.1285 -0.3235
  548SOL    HW2 1882   3.930   1.279   3.227  1.1490  1.8105  0.1121
  549SOL     OW 1883   2.229   5.094   5.670 -0.2483 -0.3557  0.1532
  549SOL    HW1 1884   2.258   5.003   5.677  1.3388  0.1622  0.9823
  549SOL    HW2 1885   2.135   5.091   5.686 -0.5464 -2.0336 -1.6241
  550SOL     OW 1886   0.775   2.858   2.414 -0.3152 -0.0260 -0.4381
  550SOL    HW1 1887   0.865   2.891   2.414  0.4576 -1.9437  0.4854
  550SOL    HW2 1888   0.771   2.799   2.339 -1.0576  0.5833 -0.9002
  551SOL     OW 1889   2.238   3.094   3.596  0.4891  0.0744 -0.8170
  551SOL    HW1 1890   2.149   3.088   3.631  0.6298  0.1549 -0.4503
  551SOL    HW2 1891   2.289   3.032   3.648  0.6971  0.1922 -0.8779
  552SOL     OW 1892   6.052   4.839   4.229  0.7303  0.1658 -0.6457
  552SOL    HW1 1893   5.976   4.806   4.181  2.1973 -0.7228 -2.5045
  552SOL    HW2 1894   6.057   4.785   4.308  0.2778 -0.7606 -1.2311
  553SOL     OW 1895   4.172   3.893   1.192  0.3298 -0.0948  0.2640
  553SOL    HW1 1896   4.208   3.973   1.154 -1.0674  0.5253  0.2174
  553SOL    HW2 1897   4.146   3.841   1.116  0.3152 -0.1607  0.3141
  554SOL     OW 1898   3.300   1.488   6.064 -0.0929  0.2477 -0.7222
  554SOL    HW1 1899   3.217   1.461   6.025 -0.6997  1.0221 -0.0190
  554SOL    HW2 1900   3.315   1.576   6.030 -1.4383  1.5996  1.8871
  555SOL     OW 1901   5.113   5.272   0.706 -0.5874  0.1598  0.1646
  555SOL    HW1 1902   5.158   5.281   0.622  0.8852  0.1643  0.9244
  555SOL    HW2 1903   5.087   5.180   0.711 -0.3249  0.0732 -0.1184
  556SOL     OW 1904   1.984   5.698   1.683  0.1241  0.5006  0.4636
  556SOL    HW1 1905   2.018   5.738   1.763  2.5393  0.1095 -0.2834
  556SOL    HW2 1906   2.060   5.688   1.627 -0.7830 -2.7376 -0.4183
  557SOL     OW 1907   5.354   1.097   3.760  0.0992 -0.1100  0.2127
  557SOL    HW1 1908   5.444   1.082   3.734  0.1463  1.1136 -0.3616
  557SOL    HW2 1909   5.301   1.055   3.692  0.2151 -0.6358  0.4365
  558SOL     OW 1910   4.597   3.067   3.805 -0.3724 -0.4108 -0.5715
  558SOL    HW1 1911   4.634   2.989   3.762  1.2197  0.2771 -0.5346
  558SOL    HW2 1912   4.502   3.056   3.797 -0.2472 -2.8773  0.3781
  559SOL     OW 1913   5.467   2.198   2.120 -0.3423 -0.2704  0.2406
  559SOL    HW1 1914   5.528   2.250   2.068 -3.0704  2.1642 -0.7955
  559SOL    HW2 1915   5.501   2.203   2.209  1.0232  0.8701 -0.3102
  560SOL     OW 1916   2.721   4.507   0.361  0.3449  0.6218 -0.2097
  560SOL    HW1 1917   2.660   4.449   0.406 -2.1454  2.1229 -1.4621
  560SOL    HW2 1918   2.806   4.464   0.372 -0.9106 -1.7218  1.3680
  561SOL     OW 1919   2.602   0.857   3.264  0.4936  0.3452 -0.1865
  561SOL    HW1 1920   2.631   0.943   3.295 -0.4502  1.0445 -1.1608
  561SOL    HW2 1921   2.630   0.854   3.173 -1.2713  0.5015 -0.7667
  562SOL     OW 1922   1.474   3.460   5.397  0.0473  0.0682 -0.1321
  562SOL    HW1 1923   1.431   3.525   5.342 -0.6668  0.6024  1.0407
  562SOL    HW2 1924   1.409   3.391   5.408 -0.1114  0.3454  0.7092
  563SOL     OW 1925   4.500   1.231   5.427 -0.2681 -0.1251 -0.4535
  563SOL    HW1 1926   4.557   1.253   5.354  0.7354  1.6591  0.7949
  563SOL    HW2 1927   4.534   1.147   5.460 -0.6011 -0.8320 -1.8436
  564SOL     OW 1928   6.078   3.274   0.524 -0.1819 -0.1172  0.4963
  564SOL    HW1 1929   6.116   3.286   0.437 -1.6264  0.1271 -0.1377
  564SOL    HW2 1930   6.076   3.179   0.536  1.6102 -0.1312  1.0400
  565SOL     OW 1931   3.812   2.406   3.893 -0.6462 -0.3294 -0.3677
  565SOL    HW1 1932   3.836   2.324   3.849  0.0169 -0.0809 -0.4700
  565SOL    HW2 1933   3.893   2.436   3.935 -0.9358  0.1677 -0.1541
  566SOL     OW 1934   0.704   1.656   5.251  0.2366  0.4695 -0.0891
  566SOL    HW1 1935   0.644   1.730   5.248  0.7192  0.8266 -1.0790
  566SOL    HW2 1936   0.767   1.680   5.319  0.3146  0.8973 -0.3122
  567SOL     OW 1937   1.376   4.090   1.486  0.0488 -0.1914 -0.6959
  567SOL    HW1 1938   1.388   4.151   1.559 -2.6832 -1.0047  0.5537
  567SOL    HW2 1939   1.382   4.144   1.408  1.2465  1.0240  0.2055
  568SOL     OW 1940   4.259   1.591   5.590  0.5355  0.2943  0.4570
  568SOL    HW1 1941   4.189   1.554   5.643 -0.6126  0.4664 -0.8685
  568SOL    HW2 1942   4.276   1.677   5.628  0.0286  0.2475  0.7917
  569SOL     OW 1943   6.100   1.562   2.693  0.5320  0.1555  0.0289
  569SOL    HW1 1944   6.169   1.514   2.646 -1.3394 -2.7094  0.0192
  569SOL    HW2 1945   6.091   1.516   2.776 -0.5491  1.2662  0.5587
  570SOL     OW 1946   4.534   2.548   5.453 -0.5141 -0.1772 -0.3522
  570SOL    HW1 1947   4.441   2.565   5.466 -0.4483  0.7323 -0.9666
  570SOL    HW2 1948   4.538   2.456   5.427 -1.4821  0.2835 -2.3715
  571SOL     OW 1949   3.241   0.096   5.073 -0.0809  0.6245 -0.4324
  571SOL    HW1 1950   3.173   0.162   5.058 -0.4664  0.7727  1.6757
  571SOL    HW2 1951   3.205   0.039   5.141  1.1660 -0.4222 -0.6079
  572SOL     OW 1952   4.952   4.401   3.109  0.0762 -1.0999  0.1517
  572SOL    HW1 1953   4.974   4.494   3.106  1.3759 -1.4067 -1.0292
  572SOL    HW2 1954   4.871   4.393   3.060  0.8618 -0.7882 -1.2529
  573SOL     OW 1955   4.964   2.288   2.317 -0.5882 -0.3064 -0.0825
  573SOL    HW1 1956   5.004   2.202   2.330  0.5913  0.3560  0.9308
  573SOL    HW2 1957   5.038   2.346   2.298 -1.2443  0.6747  0.2661
  574SOL     OW 1958   0.386   0.353   0.987 -0.5622  0.0090  0.1476
  574SOL    HW1 1959   0.375   0.439   1.027  2.9987  0.9541 -0.5550
  574SOL    HW2 1960   0.434   0.302   1.052  1.4474  0.1539 -1.1293
  575SOL     OW 1961   3.255   5.718   2.933  0.1027 -0.6892  0.4245
  575SOL    HW1 1962   3.261   5.685   2.843 -3.8133 -1.4096  0.2215
  575SOL    HW2 1963   3.240   5.812   2.924 -0.9991 -0.8708  0.2321
  576SOL     OW 1964   6.020   2.746   3.621 -0.4707  0.0330 -0.3516
  576SOL    HW1 1965   6.021   2.839   3.644  1.9100  0.4936 -1.8745
  576SOL    HW2 1966   6.062   2.702   3.696 -1.1279  0.2328  0.1409
  577SOL     OW 1967   4.411   3.864   4.879  0.4643  0.1732 -0.2610
  577SOL    HW1 1968   4.385   3.858   4.788  1.1196  0.9548 -0.5091
  577SOL    HW2 1969   4.341   3.820   4.927  0.3449 -0.6712 -1.1665
  578SOL     OW 1970   5.387   4.617   2.655  0.8001  0.5375  0.2660
  578SOL    HW1 1971   5.399   4.696   2.707 -0.2067  1.2400 -0.5408
  578SOL    HW2 1972   5.475   4.589   2.632  1.1461  1.5743  0.3188
  579SOL     OW 1973   2.469   4.747   4.234  0.1745 -0.3131  0.3971
  579SOL    HW1 1974   2.396   4.701   4.193 -0.0543 -0.5241  1.0304
  579SOL    HW2 1975   2.539   4.681   4.236  0.7996  0.2359 -1.2845
  580SOL     OW 1976   1.693   5.552   4.225 -0.4896  0.2936  0.4706
  580SOL    HW1 1977   1.602   5.532   4.201 -0.1371 -0.2968 -0.4046
  580SOL    HW2 1978   1.685   5.627   4.284 -1.5239  0.5428  0.0488
  581SOL     OW 1979   4.407   0.565   5.284  0.3466 -0.4724 -0.3485
  581SOL    HW1 1980   4.497   0.586   5.309  0.1904 -0.2882  0.0705
  581SOL    HW2 1981   4.374   0.645   5.243  0.2617 -0.4243 -0.1867
  582SOL     OW 1982   3.497   0.707   0.861 -0.3765 -0.2204  0.3595
  582SOL    HW1 1983   3.517   0.676   0.949 -1.0100 -0.5077  0.4087
  582SOL    HW2 1984   3.465   0.796   0.873  0.2972  0.0316  0.3355
  583SOL     OW 1985   2.917   4.751   4.715 -0.0453  0.2218 -0.7887
  583SOL    HW1 1986   2.842   4.703   4.750  0.1701  0.7822  0.5154
  583SOL    HW2 1987   2.894   4.770   4.624 -1.3105  0.0283 -0.5230
  584SOL     OW 1988   0.970   1.280   0.491 -0.5552  0.3246  0.1726
  584SOL    HW1 1989   1.017   1.202   0.460 -1.1205  0.1500 -0.2586
  584SOL    HW2 1990   1.039   1.337   0.525  0.0347  0.3091 -0.9649
  585SOL     OW 1991   1.206   1.463   6.039 -0.4796  0.2243 -0.0990
  585SOL    HW1 1992   1.197   1.428   6.128 -0.2864 -0.5168 -0.3626
  585SOL    HW2 1993   1.206   1.386   5.983 -1.4676  0.7305 -0.8243
  586SOL     OW 1994   2.182   2.889   4.892 -0.3119  0.0786 -0.0653
  586SOL    HW1 1995   2.188   2.954   4.821 -3.2819  1.1745  0.5654
  586SOL    HW2 1996   2.128   2.931   4.958  0.2520 -1.9209  1.7733
  587SOL     OW 1997   6.050   4.681   2.036  0.8296 -0.5758 -0.6238
  587SOL    HW1 1998   5.999   4.751   2.078 -0.2142 -1.4954 -0.2894
  587SOL    HW2 1999   6.012   4.673   1.949  0.5542 -1.0982 -0.4607
  588SOL     OW 2000   6.027   4.176   5.252 -0.7154  0.1147 -0.0179
  588SOL    HW1 2001   6.040   4.248   5.190  0.0976 -0.5122 -0.5961
  588SOL    HW2 2002   6.028   4.218   5.338 -0.4585  0.8206 -0.3569
  589SOL     OW 2003   3.619   4.473   1.467 -0.2636 -0.4867  0.0093
  589SOL    HW1 2004   3.690   4.410   1.473 -0.7607 -1.0050  0.6989
  589SOL    HW2 2005   3.654   4.544   1.413  0.3800 -1.2384 -0.5865
  590SOL     OW 2006   2.705   0.968   3.816  0.2398 -0.4086 -0.3513
  590SOL    HW1 2007   2.622   0.976   3.769  0.4304  0.4059 -0.5590
  590SOL    HW2 2008   2.681   0.974   3.909  0.1415  0.5920 -0.4341
  591SOL     OW 2009   0.042   5.394   4.043  0.3524 -0.0418 -0.0888
  591SOL    HW1 2010  -0.052   5.386   4.027  0.0136  0.7602  1.3364
  591SOL    HW2 2011   0.070   5.305   4.065  0.0377 -0.3700 -0.9752
  592SOL     OW 2012   4.533   2.717   1.257 -0.1372  0.0644 -0.0550
  592SOL    HW1 2013   4.451   2.685   1.295 -0.3385 -0.4020 -0.8585
  592SOL    HW2 2014   4.571   2.641   1.215  0.4565  0.4042 -0.1389
  593SOL     OW 2015   4.938   2.819   3.842 -0.1681  0.6288  0.7935
  593SOL    HW1 2016   5.012   2.864   3.802 -1.2113  0.8953 -0.9118
  593SOL    HW2 2017   4.957   2.726   3.830  0.2447  0.6798  1.0387
  594SOL     OW 2018   0.319   4.913   1.944  0.0027 -0.2359 -0.2342
  594SOL    HW1 2019   0.271   4.909   1.862  0.8082  1.6794 -0.8617
  594SOL    HW2 2020   0.261   4.873   2.009 -1.1760 -0.5991 -1.4853
  595SOL     OW 2021   4.276   4.548   4.333  0.5929  0.7322 -0.0106
  595SOL    HW1 2022   4.362   4.561   4.375  1.1388  0.1931 -0.9322
  595SOL    HW2 2023   4.289   4.574   4.242  0.2720 -0.9980 -0.5926
  596SOL     OW 2024   1.887   0.239   2.697 -0.2042 -0.0634  0.3327
  596SOL    HW1 2025   1.936   0.217   2.777  1.4272  1.9927 -0.0278
  596SOL    HW2 2026   1.949   0.224   2.626 -0.5263  1.3325 -0.2648
  597SOL     OW 2027   5.139   5.251   2.359 -0.6296 -0.1390  0.2396
  597SOL    HW1 2028   5.170   5.327   2.309 -0.8681 -2.3028 -3.6364
  597SOL    HW2 2029   5.212   5.189   2.357 -1.5959 -1.3138  0.2458
  598SOL     OW 2030   5.779   2.802   4.457  0.2772  0.5983 -0.2042
  598SOL    HW1 2031   5.719   2.798   4.531  0.2601  1.6317 -0.1595
  598SOL    HW2 2032   5.861   2.834   4.494  0.5532  0.1970 -0.4596
  599SOL     OW 2033   2.741   5.176   3.955 -0.2441  0.1249  0.0257
  599SOL    HW1 2034   2.787   5.259   3.962 -0.5163  0.1953  1.1522
  599SOL    HW2 2035   2.652   5.196   3.986 -0.7499 -0.2420 -1.1379
  600SOL     OW 2036   1.984   0.406   2.084  0.1812 -0.3828  0.1766
  600SOL    HW1 2037   1.918   0.385   2.019 -1.3064  1.7419  0.8613
  600SOL    HW2 2038   1.938   0.400   2.168  1.1126  0.2354  0.7565
  601SOL     OW 2039   5.421   5.190   1.016 -0.7816 -0.2144 -0.2356
  601SOL    HW1 2040   5.412   5.222   0.927  1.1637  1.9722  0.2438
  601SOL    HW2 2041   5.483   5.117   1.010  1.4901  1.6065 -0.4823
  602SOL     OW 2042   1.995   2.597   5.503 -0.0475  0.0823  0.3139
  602SOL    HW1 2043   2.056   2.660   5.542  0.7831 -0.5672  0.0869
  602SOL    HW2 2044   1.961   2.547   5.578  1.6831 -1.2860  0.2181
  603SOL     OW 2045   0.585   4.352   5.579  0.2084 -0.2043 -0.5861
  603SOL    HW1 2046   0.632   4.350   5.495  1.6662  0.1037  0.1938
  603SOL    HW2 2047   0.653   4.351   5.645 -0.9351 -0.9550  0.6343
  604SOL     OW 2048   4.495   0.932   1.750 -0.0304 -0.3217 -0.0279
  604SOL    HW1 2049   4.513   1.024   1.729 -2.0740  0.2083  0.2816
  604SOL    HW2 2050   4.512   0.885   1.668 -0.0524  0.5070 -0.5238
  605SOL     OW 2051   4.852   1.959   2.852  0.3606  0.4196 -0.0691
  605SOL    HW1 2052   4.828   2.049   2.875  0.5059 -0.0363  2.0567
  605SOL    HW2 2053   4.946   1.962   2.839  0.1151  0.9435 -2.1131
  606SOL     OW 2054   4.508   4.644   2.705 -0.5557  0.2616 -1.0366
  606SOL    HW1 2055   4.510   4.557   2.746 -0.1026  0.1349 -1.3204
  606SOL    HW2 2056   4.596   4.656   2.669  0.3867  2.0980  1.5775
  607SOL     OW 2057   1.703   0.229   4.003 -0.5404 -0.6975  0.5698
  607SOL    HW1 2058   1.777   0.210   4.061  0.6755 -2.7106 -1.4686
  607SOL    HW2 2059   1.662   0.143   3.988 -1.9495  0.0524 -0.0999
  608SOL     OW 2060   2.366   4.063   3.784  0.2860  0.0337  0.1304
  608SOL    HW1 2061   2.395   3.979   3.820  0.9554  1.1140  2.2615
  608SOL    HW2 2062   2.270   4.059   3.788  0.2322 -1.3454 -1.6205
  609SOL     OW 2063   0.866   1.982   0.633 -0.3291 -0.3839 -0.0843
  609SOL    HW1 2064   0.902   1.989   0.545  1.9989 -0.6472  0.7803
  609SOL    HW2 2065   0.895   2.063   0.677  0.1895 -1.1029  0.9578
  610SOL     OW 2066   4.238   2.142   0.175  0.0071  1.0165  0.4802
  610SOL    HW1 2067   4.176   2.162   0.105 -1.3846  0.9229  1.6395
  610SOL    HW2 2068   4.324   2.165   0.139 -0.5125 -0.2901 -1.7063
  611SOL     OW 2069   3.231   2.854   3.542 -0.5360 -0.0340  0.5717
  611SOL    HW1 2070   3.135   2.857   3.551 -0.5679 -0.0132  0.2362
  611SOL    HW2 2071   3.263   2.869   3.631 -0.8723 -3.2529  1.3798
  612SOL     OW 2072   0.446   5.230   5.683  0.7624  0.1533  0.0297
  612SOL    HW1 2073   0.440   5.221   5.588 -0.7122 -1.1558  0.2243
  612SOL    HW2 2074   0.534   5.199   5.704  1.1164  0.4855 -0.8847
  613SOL     OW 2075   1.614   4.321   0.863 -0.1555  1.2813  0.4297
  613SOL    HW1 2076   1.663   4.390   0.820 -0.0224  0.6113 -0.5019
  613SOL    HW2 2077   1.532   4.315   0.814  1.6196 -2.3429 -2.6214
  614SOL     OW 2078   2.554   5.563   0.926  0.0075  0.5843  0.2238
  614SOL    HW1 2079   2.522   5.540   0.839  2.2997  1.6978 -1.0026
  614SOL    HW2 2080   2.579   5.479   0.965 -0.9598  0.0823 -0.1978
  615SOL     OW 2081   3.276   2.978   5.378 -0.0729 -0.6420 -0.3189
  615SOL    HW1 2082   3.330   2.899   5.385 -0.2943 -0.7332  0.4547
  615SOL    HW2 2083   3.212   2.969   5.448 -0.1128  0.2204 -0.2390
  616SOL     OW 2084   2.433   4.075   2.321  0.3048 -0.2509  0.0311
  616SOL    HW1 2085   2.388   4.157   2.300 -0.0327 -0.4852 -0.1597
  616SOL    HW2 2086   2.363   4.010   2.326  0.6863 -0.7358 -0.8418
  617SOL     OW 2087   0.764   0.487   1.735  0.0078  0.1230 -0.6563
  617SOL    HW1 2088   0.725   0.482   1.822 -0.5209  2.8113 -0.6710
  617SOL    HW2 2089   0.763   0.397   1.703 -0.6462 -0.7828  1.7241
  618SOL     OW 2090   1.991   0.663   5.915  0.4887 -0.0112 -0.1731
  618SOL    HW1 2091   2.028   0.663   5.827 -1.8438 -0.1201 -1.2278
  618SOL    HW2 2092   2.005   0.752   5.947  0.1421  0.4320 -1.2231
  619SOL     OW 2093   3.244   3.072   2.522 -0.1461  0.9042 -0.9610
  619SOL    HW1 2094   3.223   3.076   2.615 -0.1142  1.8261 -0.9793
  619SOL    HW2 2095   3.186   3.004   2.486  0.8490 -0.4653 -0.0234
  620SOL     OW 2096   4.455   5.533   2.172  0.1062 -0.0342  0.4357
  620SOL    HW1 2097   4.392   5.468   2.204  1.9100 -1.1722  1.8314
  620SOL    HW2 2098   4.400   5.604   2.139 -1.9449 -1.9510 -0.5831
  621SOL     OW 2099   1.198   1.806   5.161 -0.6440  0.1296  0.1724
  621SOL    HW1 2100   1.185   1.711   5.159 -0.2168  0.0045  1.6972
  621SOL    HW2 2101   1.162   1.833   5.246 -2.0694  1.5617 -0.8341
  622SOL     OW 2102   3.166   4.381   4.795 -0.1261  0.2671 -0.7320
  622SOL    HW1 2103   3.183   4.471   4.767  1.8769  0.1856  0.0630
  622SOL    HW2 2104   3.078   4.384   4.832 -0.6822  1.5519 -2.0648
  623SOL     OW 2105   0.139   3.148   0.870 -0.1871  0.2374 -1.1185
  623SOL    HW1 2106   0.134   3.075   0.932 -2.5231 -1.1939 -2.8040
  623SOL    HW2 2107   0.119   3.225   0.922  1.4752 -0.3825  0.5511
  624SOL     OW 2108   0.869   3.450   0.112 -0.1375  0.2551  0.9744
  624SOL    HW1 2109   0.788   3.499   0.127  1.5014  2.7057  2.5045
  624SOL    HW2 2110   0.927   3.513   0.068  1.2628 -1.1230  0.7715
  625SOL     OW 2111   5.015   4.691   0.398  0.3393 -0.5823  0.2703
  625SOL    HW1 2112   5.078   4.650   0.339  0.1682  0.2767 -0.5399
  625SOL    HW2 2113   4.948   4.728   0.340  0.5227  0.8817  0.9477
  626SOL     OW 2114   0.845   2.492   2.721  0.5747 -0.1743 -0.5246
  626SOL    HW1 2115   0.830   2.404   2.757 -0.2731  1.0431  2.3768
  626SOL    HW2 2116   0.937   2.492   2.697  0.6718 -1.7634 -0.2649
  627SOL     OW 2117   5.928   3.962   4.699 -0.2234  0.4630 -0.5892
  627SOL    HW1 2118   5.973   3.905   4.763  0.0550  0.8889 -0.4003
  627SOL    HW2 2119   5.988   3.966   4.625  0.0015  0.9309 -0.3881
  628SOL     OW 2120   2.327   5.650   2.204  0.1747  0.3143  0.3638
  628SOL    HW1 2121   2.249   5.648   2.149 -0.2245  2.2221  0.7979
  628SOL    HW2 2122   2.321   5.571   2.258 -2.8900  1.6820  2.2730
  629SOL     OW 2123   1.753   5.770   4.386 -0.2143 -0.2032 -0.5931
  629SOL    HW1 2124   1.803   5.843   4.421  0.8710 -0.6100 -1.2474
  629SOL    HW2 2125   1.725   5.720   4.463  0.1166  0.2136 -0.2016
  630SOL     OW 2126   3.194   2.665   3.045  0.5258 -0.3361  0.1034
  630SOL    HW1 2127   3.148   2.680   3.128 -0.6940 -3.1524  0.0648
  630SOL    HW2 2128   3.286   2.656   3.070  0.6231  1.8559  0.6793
  631SOL     OW 2129   4.913   5.548   4.577  0.0613 -0.1392 -0.4339
  631SOL    HW1 2130   4.931   5.618   4.514 -1.4368 -2.2108 -3.3908
  631SOL    HW2 2131   4.829   5.512   4.550 -0.8687 -0.9889  3.0680
  632SOL     OW 2132   1.802   5.443   0.656 -0.2562 -0.4391  0.1935
  632SOL    HW1 2133   1.729   5.500   0.678  0.2359  0.0402  0.6275
  632SOL    HW2 2134   1.766   5.354   0.660 -0.3444 -0.3531  2.4549
  633SOL     OW 2135   5.475   2.223   4.293 -0.1216 -0.3928  0.3202
  633SOL    HW1 2136   5.458   2.311   4.260 -0.9142 -0.8776 -0.6326
  633SOL    HW2 2137   5.561   2.200   4.258  0.6834  0.4753  1.6524
  634SOL     OW 2138   0.785   0.744   1.641  0.5115  0.4468 -0.0818
  634SOL    HW1 2139   0.796   0.820   1.698  0.4359  1.0652 -0.8715
  634SOL    HW2 2140   0.793   0.669   1.699  1.0412  1.0482  0.6440
  635SOL     OW 2141   5.193   2.091   4.914  0.0093  0.0999 -0.3759
  635SOL    HW1 2142   5.161   2.113   4.827  1.9966  0.7986 -0.9853
  635SOL    HW2 2143   5.209   2.176   4.955  0.9233 -0.2031 -0.0692
  636SOL     OW 2144   5.163   4.276   3.013  0.6214  0.2615 -0.1417
  636SOL    HW1 2145   5.194   4.342   2.952 -0.7322  0.3982 -0.7332
  636SOL    HW2 2146   5.076   4.306   3.039  0.2532 -0.9320  0.0993
  637SOL     OW 2147   3.388   5.378   3.623  0.0447  0.4848  0.3815
  637SOL    HW1 2148   3.452   5.422   3.679 -0.4164 -0.6278  1.8519
  637SOL    HW2 2149   3.431   5.296   3.597  0.2063  0.9391 -0.8045
  638SOL     OW 2150   0.148   4.174   4.318 -0.5594 -0.3068  0.2192
  638SOL    HW1 2151   0.140   4.081   4.343  0.9357 -1.2866 -2.5048
  638SOL    HW2 2152   0.064   4.212   4.340 -1.9547 -2.8327 -0.3462
  639SOL     OW 2153   4.229   1.283   4.805  0.0257  0.0568  0.5293
  639SOL    HW1 2154   4.137   1.281   4.829 -0.1758  0.2509 -0.2084
  639SOL    HW2 2155   4.273   1.321   4.882 -0.7664  1.8918  0.1195
  640SOL     OW 2156   1.631   2.833   5.803  0.2686  0.0651 -0.0810
  640SOL    HW1 2157   1.623   2.919   5.844 -1.3676  0.2743 -0.7833
  640SOL    HW2 2158   1.565   2.779   5.846  0.8596 -0.6870 -0.0863
  641SOL     OW 2159   2.800   3.202   2.268 -0.5011  0.1434  0.1694
  641SOL    HW1 2160   2.839   3.124   2.230  0.3801  0.9783 -0.6984
  641SOL    HW2 2161   2.790   3.181   2.361 -2.6712 -1.9201 -0.4594
  642SOL     OW 2162   4.738   5.375   1.237 -0.7170  0.4103 -0.6984
  642SOL    HW1 2163   4.755   5.467   1.259 -2.9870  0.1635  2.9441
  642SOL    HW2 2164   4.817   5.329   1.263 -0.9644  0.9762  1.2163
  643SOL     OW 2165   0.382   5.081   3.991  0.2507  0.1044 -0.0870
  643SOL    HW1 2166   0.378   4.986   3.993  2.8779 -0.0710  0.4406
  643SOL    HW2 2167   0.396   5.103   3.898 -1.2428  0.0845 -0.3441
  644SOL     OW 2168   0.234   5.348   4.599  0.0048 -0.0351  0.2875
  644SOL    HW1 2169   0.250   5.440   4.618  0.4371  0.2586 -1.3695
  644SOL    HW2 2170   0.149   5.330   4.640 -0.1620  1.1420  0.4880
  645SOL     OW 2171   2.922   4.756   0.853 -0.0799 -0.1137  0.4555
  645SOL    HW1 2172   2.849   4.706   0.816  0.6746  0.3801 -1.8803
  645SOL    HW2 2173   2.950   4.705   0.929  0.3708 -3.0370 -1.5167
  646SOL     OW 2174   0.624   0.461   3.937  0.8322 -0.6434 -0.6615
  646SOL    HW1 2175   0.602   0.376   3.976  1.2409 -0.5372 -0.1940
  646SOL    HW2 2176   0.642   0.441   3.845  1.9700 -1.2337 -0.3280
  647SOL     OW 2177   1.823   2.298   0.915  0.4372 -0.1031  0.7427
  647SOL    HW1 2178   1.894   2.339   0.866 -0.3733  0.9557  0.4004
  647SOL    HW2 2179   1.763   2.265   0.848 -1.3749  2.5624  0.8644
  648SOL     OW 2180   3.843   5.410   6.013 -0.5761 -0.3033  0.2599
  648SOL    HW1 2181   3.793   5.491   6.026 -0.2184  0.0457 -0.4583
  648SOL    HW2 2182   3.934   5.436   6.020 -0.4653 -0.7183  0.4063
  649SOL     OW 2183   1.660   0.517   5.066  0.3719 -0.0360 -0.1208
  649SOL    HW1 2184   1.632   0.519   5.157 -0.7355  2.0595 -0.4413
  649SOL    HW2 2185   1.627   0.434   5.032  1.7445 -1.3585  1.6145
  650SOL     OW 2186   2.761   2.372   2.696 -0.2129 -0.3904 -0.3796
  650SOL    HW1 2187   2.834   2.406   2.645 -0.9653  0.9028 -0.6202
  650SOL    HW2 2188   2.699   2.444   2.702 -1.5998 -1.5267 -0.3992
  651SOL     OW 2189   1.369   5.715   2.680  0.2726 -0.1692 -0.3328
  651SOL    HW1 2190   1.401   5.702   2.769  2.2341  0.3638 -0.9246
  651SOL    HW2 2191   1.431   5.775   2.640  0.7563 -2.0939 -2.7448
  652SOL     OW 2192   0.259   3.754   0.892 -0.2613 -0.8017 -0.2838
  652SOL    HW1 2193   0.172   3.731   0.858 -0.7435 -0.5611  0.7400
  652SOL    HW2 2194   0.244   3.834   0.943  0.6242 -0.5771 -0.3579
  653SOL     OW 2195   5.449   1.216   5.557 -0.1284  0.0134 -0.6074
  653SOL    HW1 2196   5.447   1.304   5.593 -0.4316 -0.7131  1.2925
  653SOL    HW2 2197   5.511   1.221   5.484 -0.4249  1.8589 -0.7652
  654SOL     OW 2198   5.480   2.487   4.199  0.2531  0.7087 -0.2444
  654SOL    HW1 2199   5.493   2.527   4.113  1.0929  0.6449 -0.1594
  654SOL    HW2 2200   5.564   2.499   4.244 -0.3670  1.2837  0.7929
  655SOL     OW 2201   5.224   3.787   1.121  0.0587  0.8440 -0.4324
  655SOL    HW1 2202   5.172   3.720   1.165 -2.3965  1.2523 -2.5249
  655SOL    HW2 2203   5.221   3.863   1.180 -2.9594  1.3072 -1.0335
  656SOL     OW 2204   5.020   4.322   4.942 -0.2852 -0.3053 -0.0010
  656SOL    HW1 2205   5.095   4.302   4.885  0.2878 -1.7337  1.1760
  656SOL    HW2 2206   5.032   4.413   4.967  0.4797 -0.2106 -0.6717
  657SOL     OW 2207   4.494   0.277   0.921  0.6432  0.2268  0.0863
  657SOL    HW1 2208   4.534   0.364   0.917  0.5196  0.2434 -1.6850
  657SOL    HW2 2209   4.421   0.288   0.981 -0.0522  1.6813 -0.9449
  658SOL     OW 2210   6.004   0.663   2.071  0.0850 -0.9325 -0.0099
  658SOL    HW1 2211   6.065   0.646   1.999 -0.3659  0.0498 -0.6363
  658SOL    HW2 2212   6.017   0.755   2.092 -1.9541 -0.3952 -0.9060
  659SOL     OW 2213   4.449   1.916   1.527 -0.1915  0.2016 -0.6874
  659SOL    HW1 2214   4.471   1.910   1.620  0.3809  0.7205 -0.7828
  659SOL    HW2 2215   4.486   2.000   1.499 -0.3309  0.0329 -1.3914
  660SOL     OW 2216   4.522   4.119   1.927 -0.1190  0.0638 -0.0723
  660SOL    HW1 2217   4.521   4.192   1.866  0.6176  0.1406 -0.0054
  660SOL    HW2 2218   4.506   4.042   1.872  0.9249  0.0890 -0.4378
  661SOL     OW 2219   0.050   0.488   3.574  0.3354  0.0035 -0.6335
  661SOL    HW1 2220   0.094   0.520   3.652  0.2719 -1.7676  0.1834
  661SOL    HW2 2221  -0.035   0.533   3.574  1.5912  2.5943 -1.6211
  662SOL     OW 2222   3.101   4.145   4.095  0.4727 -0.3914  0.1173
  662SOL    HW1 2223   3.111   4.051   4.080  3.4800 -0.2020  0.3072
  662SOL    HW2 2224   3.064   4.151   4.183 -0.1320 -1.3693 -0.0458
  663SOL     OW 2225   2.364   3.072   1.582  0.0434  0.0142 -0.2733
  663SOL    HW1 2226   2.458   3.066   1.566 -0.0689 -0.3539 -0.8093
  663SOL    HW2 2227   2.339   2.987   1.617  0.0103  0.3087  0.4430
  664SOL     OW 2228   3.747   4.193   2.686  0.2250 -0.2245  0.4447
  664SOL    HW1 2229   3.767   4.178   2.593  0.9718  0.7979  0.4251
  664SOL    HW2 2230   3.739   4.288   2.694 -0.8067 -0.3553  1.2526
  665SOL     OW 2231   4.830   3.929   1.947 -0.5966  0.7024 -0.3381
  665SOL    HW1 2232   4.783   3.914   1.866  1.0212  0.2750 -1.2374
  665SOL    HW2 2233   4.818   3.849   1.998  1.4807 -0.6357 -1.7955
  666SOL     OW 2234   3.228   2.527   2.800  0.5486  0.8805  0.3885
  666SOL    HW1 2235   3.304   2.471   2.816 -0.5199 -0.6756  0.2415
  666SOL    HW2 2236   3.196   2.551   2.887  0.6003  0.6614  0.4691
  667SOL     OW 2237   3.046   2.960   0.125 -0.4925 -0.1212  0.8785
  667SOL    HW1 2238   3.014   2.927   0.209 -2.0388 -1.0788 -0.0565
  667SOL    HW2 2239   3.002   2.907   0.059 -0.0984  1.2878 -0.5925
  668SOL     OW 2240   2.547   4.978   3.863  0.1487 -0.0657  0.8673
  668SOL    HW1 2241   2.641   4.989   3.872  0.1091 -0.2448  1.5376
  668SOL    HW2 2242   2.509   5.033   3.931 -0.2621  0.5698  0.1411
  669SOL     OW 2243   2.398   5.538   5.257 -0.3576  0.2650  0.0486
  669SOL    HW1 2244   2.479   5.557   5.208 -0.5301  0.4048 -0.1874
  669SOL    HW2 2245   2.328   5.570   5.199 -0.7417 -1.9857 -0.8079
  670SOL     OW 2246   1.789   0.075   0.962  0.0663  0.2725  0.0148
  670SOL    HW1 2247   1.826   0.032   0.885  0.0507 -0.7357  0.5501
  670SOL    HW2 2248   1.802   0.012   1.033 -0.4526  0.9344  0.7150
  671SOL     OW 2249   0.943   1.403   3.147 -0.1300 -0.3038  0.5425
  671SOL    HW1 2250   0.965   1.334   3.085 -1.1271  0.2629 -0.4720
  671SOL    HW2 2251   1.014   1.467   3.139  0.8231 -1.1875  1.5225
  672SOL     OW 2252   3.375   4.450   4.408 -0.3574  0.0105  0.0217
  672SOL    HW1 2253   3.288   4.421   4.434  0.3332 -2.2086  0.0481
  672SOL    HW2 2254   3.418   4.475   4.490 -0.3258 -0.7693  0.2457
  673SOL     OW 2255   0.535   1.298   2.496 -0.6927  0.1225  0.4769
  673SOL    HW1 2256   0.537   1.366   2.429  0.8680  0.9236  1.2840
  673SOL    HW2 2257   0.546   1.216   2.447  0.9268  0.7343 -0.2559
  674SOL     OW 2258   4.611   0.848   4.837 -0.0467  0.0327  0.2045
  674SOL    HW1 2259   4.689   0.794   4.842 -0.4158 -0.5081  0.2138
  674SOL    HW2 2260   4.540   0.791   4.868 -0.5599  0.2601 -0.5173
  675SOL     OW 2261   3.288   3.641   2.650  0.3769  0.3383 -0.6561
  675SOL    HW1 2262   3.252   3.568   2.700  1.6703  0.1275  0.0220
  675SOL    HW2 2263   3.371   3.608   2.616  0.5667  1.2090 -1.0826
  676SOL     OW 2264   0.687   3.834   2.186  0.2411 -0.1619  0.0893
  676SOL    HW1 2265   0.606   3.874   2.153 -0.3639 -1.1200  0.3413
  676SOL    HW2 2266   0.745   3.830   2.110 -1.1200 -2.3094 -0.9599
  677SOL     OW 2267   2.119   0.118   5.937  0.0298  0.2185  0.4875
  677SOL    HW1 2268   2.211   0.117   5.911  0.5192  0.7825  2.0625
  677SOL    HW2 2269   2.070   0.108   5.855  1.4872 -3.0634 -0.1236
  678SOL     OW 2270   2.232   3.091   3.889  0.3072  0.3376 -0.8887
  678SOL    HW1 2271   2.270   3.010   3.922 -2.2074 -0.0994  1.3429
  678SOL    HW2 2272   2.142   3.068   3.866 -0.3235  2.3701 -0.7134
  679SOL     OW 2273   0.414   1.917   2.587  0.1760  0.1627 -1.0124
  679SOL    HW1 2274   0.459   1.961   2.514 -2.6494  2.5482 -1.4925
  679SOL    HW2 2275   0.345   1.978   2.613 -2.3584 -2.9216  0.1097
  680SOL     OW 2276   2.575   1.342   1.794 -0.0257  0.1029 -0.1343
  680SOL    HW1 2277   2.512   1.414   1.796 -0.5162 -0.2188 -2.1366
  680SOL    HW2 2278   2.647   1.375   1.741 -0.2612 -0.8469 -1.0803
  681SOL     OW 2279   0.571   0.230   4.487 -0.3836  0.1134  0.1132
  681SOL    HW1 2280   0.656   0.187   4.490 -0.3411  0.1234 -0.7489
  681SOL    HW2 2281   0.548   0.244   4.579  0.5932  0.2115  0.3518
  682SOL     OW 2282   3.787   3.559   3.708 -0.5606  0.2291 -0.6414
  682SOL    HW1 2283   3.879   3.537   3.698  0.4687  3.4718  0.6262
  682SOL    HW2 2284   3.765   3.533   3.797 -0.1200  1.7318 -0.0789
  683SOL     OW 2285   5.742   0.092   1.230  0.0323  0.0301 -1.1475
  683SOL    HW1 2286   5.831   0.056   1.224 -0.0440 -0.1117 -1.4340
  683SOL    HW2 2287   5.744   0.145   1.310  0.0392 -0.9187 -0.4932
  684SOL     OW 2288   5.886   1.608   0.184 -0.3821  0.3442  0.1300
  684SOL    HW1 2289   5.945   1.555   0.238 -0.0070 -0.3898 -0.9738
  684SOL    HW2 2290   5.798   1.587   0.217 -0.2392 -0.9545 -0.2770
  685SOL     OW 2291   2.107   4.392   4.956 -0.3783 -0.5530  0.9662
  685SOL    HW1 2292   2.179   4.331   4.970 -1.0897 -1.4664  0.7528
  685SOL    HW2 2293   2.041   4.365   5.020 -1.3361 -1.0401 -0.1877
  686SOL     OW 2294   1.355   1.387   4.004  0.0929 -0.5809 -0.2435
  686SOL    HW1 2295   1.429   1.389   3.943 -0.1990 -1.6711 -0.6559
  686SOL    HW2 2296   1.394   1.365   4.088  0.1192 -2.2971 -0.6837
  687SOL     OW 2297   4.666   4.606   0.902  0.8874 -0.0601 -0.1670
  687SOL    HW1 2298   4.647   4.628   0.994  0.7702  0.0085 -0.2078
  687SOL    HW2 2299   4.613   4.528   0.886 -0.5157  0.9522 -0.7152
  688SOL     OW 2300   3.315   2.522   0.814  0.5757 -0.4608  0.5289
  688SOL    HW1 2301   3.330   2.530   0.720  0.9388 -2.2695  0.4095
  688SOL    HW2 2302   3.235   2.573   0.830 -0.1162 -1.0326 -0.9469
  689SOL     OW 2303   4.624   5.772   2.245  0.1814  0.0253 -0.6413
  689SOL    HW1 2304   4.716   5.772   2.274  0.0548  0.4429 -0.2313
  689SOL    HW2 2305   4.604   5.679   2.230  0.1920 -0.2270  0.7965
  690SOL     OW 2306   5.291   4.379   0.111 -0.2347 -0.0267 -0.0617
  690SOL    HW1 2307   5.230   4.384   0.037 -0.8527 -0.6905  0.3912
  690SOL    HW2 2308   5.306   4.285   0.124  0.3728  0.1057  0.2572
  691SOL     OW 2309   5.165   0.484   6.092 -0.2258  0.0081 -0.3110
  691SOL    HW1 2310   5.098   0.533   6.140  0.1964  0.1337  0.1468
  691SOL    HW2 2311   5.248   0.517   6.125  0.1159  1.1016 -2.0932
  692SOL     OW 2312   5.182   0.012   0.176  0.1032 -0.3997 -0.1835
  692SOL    HW1 2313   5.089  -0.004   0.161  0.5583 -1.5192 -2.1722
  692SOL    HW2 2314   5.227  -0.052   0.121  2.0652  0.3345  0.4598
  693SOL     OW 2315   0.098   0.447   3.316 -0.3258 -0.0832  0.2677
  693SOL    HW1 2316   0.110   0.476   3.406  2.0775  0.7590 -0.2329
  693SOL    HW2 2317   0.010   0.476   3.293 -0.7631  0.2092  2.1418
  694SOL     OW 2318   1.505   0.783   2.672 -0.3593  0.3208 -0.0695
  694SOL    HW1 2319   1.556   0.776   2.591 -0.6283  1.2508 -0.3278
  694SOL    HW2 2320   1.418   0.751   2.649 -0.4493  0.6307 -0.1645
  695SOL     OW 2321   4.717   1.004   3.992  0.0650  0.2712 -0.3484
  695SOL    HW1 2322   4.658   1.067   3.951 -1.2528  0.9252  2.3393
  695SOL    HW2 2323   4.689   1.001   4.084  1.5362 -2.5737  0.1115
  696SOL     OW 2324   5.504   2.026   0.632  0.7692 -0.0568  0.5678
  696SOL    HW1 2325   5.443   2.100   0.640  0.2301 -0.6298  2.1702
  696SOL    HW2 2326   5.451   1.949   0.653  1.7615 -0.6932  0.7927
  697SOL     OW 2327   2.639   5.263   5.924 -0.3680 -0.2158  0.2735
  697SOL    HW1 2328   2.609   5.220   5.844 -0.2907  0.5564 -0.1837
  697SOL    HW2 2329   2.560   5.268   5.978 -0.4665 -0.5620  0.1686
  698SOL     OW 2330   5.550   3.004   2.413  0.2400 -0.6329 -0.2809
  698SOL    HW1 2331   5.622   2.943   2.396  1.7882  0.9921  0.2167
  698SOL    HW2 2332   5.550   3.015   2.508 -0.3268 -0.2054 -0.3280
  699SOL     OW 2333   1.166   5.010   4.094  0.4326  0.0211 -0.0633
  699SOL    HW1 2334   1.108   5.042   4.026  2.2800  1.0183 -1.2549
  699SOL    HW2 2335   1.126   5.040   4.176 -0.5664  0.9252 -0.8547
  700SOL     OW 2336   0.458   3.969   2.101  0.4163 -0.8532  0.0653
  700SOL    HW1 2337   0.470   4.036   2.168 -2.3647 -0.4734  0.3018
  700SOL    HW2 2338   0.476   4.014   2.018  0.4039 -0.3362  0.3417
  701SOL     OW 2339   2.942   5.403   0.578 -0.1195 -0.4818  0.1456
  701SOL    HW1 2340   3.036   5.385   0.587 -0.0283 -0.9004 -1.2970
  701SOL    HW2 2341   2.915   5.437   0.663  0.9441 -2.1403  1.1948
  702SOL     OW 2342   1.004   1.164   4.502 -0.0132 -0.0416 -0.0774
  702SOL    HW1 2343   1.042   1.230   4.561  2.4261 -0.8996 -0.5737
  702SOL    HW2 2344   0.941   1.212   4.450  1.8169  2.0017 -0.5626
  703SOL     OW 2345   2.568   0.716   5.447 -0.2809  0.0160 -0.6552
  703SOL    HW1 2346   2.648   0.663   5.449 -1.2847 -1.5552  0.0865
  703SOL    HW2 2347   2.598   0.806   5.463  1.3919 -0.4293 -1.1111
  704SOL     OW 2348   2.908   0.808   0.246 -0.0872  0.0718  0.0032
  704SOL    HW1 2349   2.927   0.880   0.185 -0.2373  0.6644  0.6476
  704SOL    HW2 2350   2.819   0.825   0.276 -0.5641 -1.0287 -0.7068
  705SOL     OW 2351   0.954   2.473   0.425  0.6147  0.0721  0.0566
  705SOL    HW1 2352   0.971   2.403   0.488 -0.6705 -0.4538 -0.1399
  705SOL    HW2 2353   0.980   2.553   0.471 -0.1657 -0.3097  1.2325
  706SOL     OW 2354   0.590   4.535   0.844  0.1109  0.2757  0.2487
  706SOL    HW1 2355   0.685   4.540   0.856  0.3140  2.0254 -1.5851
  706SOL    HW2 2356   0.580   4.497   0.756 -0.8617  0.8861  0.0957
  707SOL     OW 2357   3.829   5.834   4.124  1.1977  0.0248 -0.7975
  707SOL    HW1 2358   3.773   5.764   4.092 -1.9534  2.1911 -0.4478
  707SOL    HW2 2359   3.814   5.907   4.064  1.0158  1.7352  1.1897
  708SOL     OW 2360   2.920   5.491   4.410 -0.4975 -0.2440  0.3909
  708SOL    HW1 2361   2.905   5.562   4.347  1.3355  0.1057  0.3042
  708SOL    HW2 2362   2.983   5.434   4.367 -3.3124 -3.0815 -0.3592
  709SOL     OW 2363   2.743   0.134   6.089  0.6317 -0.1871 -0.5386
  709SOL    HW1 2364   2.799   0.164   6.160  0.9377  0.3176 -0.9848
  709SOL    HW2 2365   2.796   0.147   6.010 -0.5237  1.4155 -1.0970
  710SOL     OW 2366   0.539   1.791   2.811 -0.1397 -0.5205 -0.0521
  710SOL    HW1 2367   0.476   1.748   2.869 -0.7022 -1.4036 -1.2804
  710SOL    HW2 2368   0.485   1.838   2.748  0.4671  0.3434  0.0482
  711SOL     OW 2369   2.423   6.002   1.477 -0.4058 -0.3368 -0.1755
  711SOL    HW1 2370   2.343   6.054   1.483 -0.7935 -1.0557  1.2266
  711SOL    HW2 2371   2.444   6.002   1.384 -0.1770  2.6197 -0.2057
  712SOL     OW 2372   4.066   0.047   0.877  0.0994  0.1857 -0.0117
  712SOL    HW1 2373   4.014   0.008   0.948  1.8748 -0.1794  1.1338
  712SOL    HW2 2374   4.019   0.128   0.856 -0.5626  0.2254  1.4671
  713SOL     OW 2375   3.908   4.873   3.876 -0.5180 -0.1845 -0.0941
  713SOL    HW1 2376   3.859   4.952   3.900 -1.9218 -0.0998 -2.9461
  713SOL    HW2 2377   3.862   4.802   3.921  0.2063  0.4479  1.7504
  714SOL     OW 2378   0.423   3.879   0.709  0.2237  0.1912 -0.7105
  714SOL    HW1 2379   0.383   3.830   0.637 -0.0929 -1.4380  0.5275
  714SOL    HW2 2380   0.384   3.842   0.788  2.3240  0.2546  0.4256
  715SOL     OW 2381   4.796   6.084   4.860 -0.1295  0.1734  0.5612
  715SOL    HW1 2382   4.831   5.995   4.865  0.5622  0.3857 -0.3149
  715SOL    HW2 2383   4.797   6.115   4.951  0.9042 -0.2255  0.7033
  716SOL     OW 2384   6.035   2.505   4.520 -0.1150  0.3267 -0.2528
  716SOL    HW1 2385   6.082   2.483   4.600 -0.7633  0.1726  0.0965
  716SOL    HW2 2386   5.944   2.514   4.548 -0.8283 -2.3209 -1.3993
  717SOL     OW 2387   4.662   5.130   5.661 -0.1769 -0.2927  0.3726
  717SOL    HW1 2388   4.581   5.132   5.713 -2.0051 -1.2151 -2.2101
  717SOL    HW2 2389   4.729   5.101   5.722 -2.2504 -1.6905  2.1652
  718SOL     OW 2390   4.924   2.360   3.246 -0.2234  0.1541  0.6346
  718SOL    HW1 2391   4.838   2.389   3.216 -0.1645 -0.0452  0.2637
  718SOL    HW2 2392   4.964   2.439   3.282  0.3372  0.8127 -1.2875
  719SOL     OW 2393   2.082   5.555   0.325 -0.3679 -0.0776  0.9491
  719SOL    HW1 2394   2.123   5.632   0.284 -1.0783  0.0687  0.5034
  719SOL    HW2 2395   2.061   5.584   0.414  0.9446 -0.3141  1.3596
  720SOL     OW 2396   0.557   0.063   5.356 -0.2514  0.6244 -0.0476
  720SOL    HW1 2397   0.522   0.118   5.286 -1.5065  1.4522  1.1832
  720SOL    HW2 2398   0.619   0.119   5.402  1.9390 -0.4688 -1.4984
  721SOL     OW 2399   2.431   2.721   0.144 -0.4535 -0.7167  0.6235
  721SOL    HW1 2400   2.344   2.682   0.132 -0.2669 -1.4523  1.5238
  721SOL    HW2 2401   2.492   2.652   0.117 -0.1406 -0.5236  0.8296
  722SOL     OW 2402   5.453   1.889   4.114  0.0669 -0.0480 -1.0457
  722SOL    HW1 2403   5.479   1.893   4.022  0.5894  1.5112 -0.8615
  722SOL    HW2 2404   5.381   1.952   4.121 -0.4645 -0.6966 -0.5215
  723SOL     OW 2405   3.143   5.404   0.270  0.2875  0.4968 -0.5089
  723SOL    HW1 2406   3.188   5.457   0.335 -0.9418  0.6797  0.2189
  723SOL    HW2 2407   3.080   5.464   0.230 -0.5951 -0.2034 -0.2001
  724SOL     OW 2408   4.815   0.881   0.990 -0.1821 -0.0115  0.0269
  724SOL    HW1 2409   4.775   0.851   1.072  0.4270  2.4990  1.3228
  724SOL    HW2 2410   4.743   0.884   0.928 -0.7843 -1.2949  0.6163
  725SOL     OW 2411   2.742   5.408   1.315 -0.1965  0.4074  0.5814
  725SOL    HW1 2412   2.814   5.357   1.351 -1.2564 -0.2005  1.9156
  725SOL    HW2 2413   2.737   5.381   1.223  1.7775  1.0977  0.2285
  726SOL     OW 2414   5.976   1.069   3.512 -0.2213  0.0574 -0.6099
  726SOL    HW1 2415   6.061   1.024   3.523 -0.4245 -0.2947 -0.4440
  726SOL    HW2 2416   5.961   1.068   3.418 -0.2753 -0.3227 -0.5985
  727SOL     OW 2417   2.363   0.843   2.927 -0.5995  0.7901  0.0622
  727SOL    HW1 2418   2.449   0.817   2.962 -0.4240  0.9956 -0.2093
  727SOL    HW2 2419   2.303   0.830   3.000 -0.9616 -2.6008 -0.7064
  728SOL     OW 2420   2.254   1.906   3.491 -0.1359 -0.1848  0.6501
  728SOL    HW1 2421   2.300   1.823   3.485  0.1203 -0.0280  0.4159
  728SOL    HW2 2422   2.175   1.886   3.541 -0.4726 -0.7365 -0.0773
  729SOL     OW 2423   0.983   3.320   2.543 -0.6387  0.2616 -0.0347
  729SOL    HW1 2424   1.055   3.299   2.484 -2.1057  1.3458 -2.3748
  729SOL    HW2 2425   1.012   3.398   2.590  0.2752 -0.1727  0.1394
  730SOL     OW 2426   3.183   1.567   0.536 -0.3771 -0.2538  0.2110
  730SOL    HW1 2427   3.092   1.570   0.507 -0.0904 -0.4621 -0.7587
  730SOL    HW2 2428   3.200   1.474   0.554 -0.2275 -0.2867 -0.0803
  731SOL     OW 2429   4.083   1.507   1.563  0.3757 -0.3911 -0.1847
  731SOL    HW1 2430   4.006   1.561   1.546 -1.9970 -3.4820 -0.1295
  731SOL    HW2 2431   4.145   1.530   1.493 -1.9309 -0.0774 -2.2446
  732SOL     OW 2432   5.144   0.150   4.315 -0.5360 -0.0006  0.4145
  732SOL    HW1 2433   5.155   0.056   4.326  1.8359  0.2535  0.6765
  732SOL    HW2 2434   5.111   0.161   4.226  0.7358 -1.0272 -0.2146
  733SOL     OW 2435   1.781   4.637   2.389  0.5540 -0.2136  0.2871
  733SOL    HW1 2436   1.836   4.616   2.465  2.0530  1.3805 -0.2977
  733SOL    HW2 2437   1.753   4.727   2.404 -1.6170 -0.8360  0.3431
  734SOL     OW 2438   1.480   1.707   5.136  0.2576  0.2664 -0.0225
  734SOL    HW1 2439   1.457   1.654   5.060  0.1437  0.7905 -0.3582
  734SOL    HW2 2440   1.397   1.719   5.182 -0.0341  1.5141 -0.8241
  735SOL     OW 2441   4.395   6.138   3.178  0.1215  0.1476  0.0741
  735SOL    HW1 2442   4.399   6.213   3.119  1.4574  1.2730  1.5318
  735SOL    HW2 2443   4.386   6.062   3.120 -1.1210  1.3780 -1.4423
  736SOL     OW 2444   5.397   3.902   4.758 -0.3651  0.2336 -0.2381
  736SOL    HW1 2445   5.394   3.810   4.735  0.4850  0.3805 -0.9935
  736SOL    HW2 2446   5.489   3.920   4.777 -0.4440  1.0136 -0.5271
  737SOL     OW 2447   4.333   0.326   5.166  0.1545  0.2839 -0.0220
  737SOL    HW1 2448   4.357   0.405   5.214  1.0019  0.2066 -0.3067
  737SOL    HW2 2449   4.353   0.346   5.075 -0.5885  0.1007 -0.2331
  738SOL     OW 2450   4.261   4.714   3.465 -0.4336 -0.1961  0.2881
  738SOL    HW1 2451   4.269   4.782   3.533 -0.4816 -0.5750  0.6798
  738SOL    HW2 2452   4.206   4.753   3.398  0.0859  0.3978  0.1951
  739SOL     OW 2453   1.637   0.710   2.387  0.0781 -0.2429 -0.6968
  739SOL    HW1 2454   1.730   0.693   2.396 -0.4233 -2.4796  1.2226
  739SOL    HW2 2455   1.607   0.647   2.321  0.0347  1.2818 -2.2338
  740SOL     OW 2456   0.403   0.166   5.073  0.5418  0.2575  1.0966
  740SOL    HW1 2457   0.334   0.129   5.018  1.3764  0.1749  0.0789
  740SOL    HW2 2458   0.482   0.158   5.021  0.7832  3.6125  0.7303
  741SOL     OW 2459   1.642   3.473   2.965 -0.3058  0.0260 -0.3356
  741SOL    HW1 2460   1.702   3.546   2.951  0.8372  0.0038  3.4713
  741SOL    HW2 2461   1.671   3.406   2.903  0.5178  1.6940 -1.8395
  742SOL     OW 2462   0.204   4.101   6.133 -0.3020  0.0738  0.0400
  742SOL    HW1 2463   0.224   4.029   6.193  1.9126 -0.8121 -1.6505
  742SOL    HW2 2464   0.159   4.058   6.059  0.3337  0.5366 -0.6208
  743SOL     OW 2465   2.036   2.147   3.883  0.1551  0.2889 -0.3340
  743SOL    HW1 2466   2.004   2.058   3.895  1.7060 -0.3221 -0.4296
  743SOL    HW2 2467   2.058   2.177   3.971 -0.3239  0.5705 -0.3066
  744SOL     OW 2468   5.805   1.750   1.606  0.2705  0.4603  0.1109
  744SOL    HW1 2469   5.807   1.845   1.597 -1.0987  0.4781 -0.1338
  744SOL    HW2 2470   5.897   1.725   1.616  0.6700  1.7714 -0.1557
  745SOL     OW 2471   3.941   1.105   5.118  0.8280  0.0890 -0.1479
  745SOL    HW1 2472   3.958   1.141   5.031 -0.2847  0.6051 -0.1731
  745SOL    HW2 2473   3.877   1.164   5.156 -0.3362 -1.3246  0.1896
  746SOL     OW 2474   0.694   4.686   1.493  0.2541 -0.4194  0.5919
  746SOL    HW1 2475   0.670   4.613   1.438 -1.7786  0.8463 -0.3132
  746SOL    HW2 2476   0.770   4.726   1.450 -0.4802 -0.2465 -0.5667
  747SOL     OW 2477   1.479   1.743   0.853  0.1074 -0.2508 -0.1735
  747SOL    HW1 2478   1.527   1.800   0.793 -0.4226  0.0998 -0.2681
  747SOL    HW2 2479   1.454   1.667   0.800 -0.6131  0.1923 -0.4805
  748SOL     OW 2480   4.151   1.908   3.697 -0.4429  0.4759  0.3722
  748SOL    HW1 2481   4.106   1.827   3.675  0.0436  0.2471  0.2081
  748SOL    HW2 2482   4.143   1.962   3.618  0.2211  0.1375  0.0590
  749SOL     OW 2483   4.644   5.332   2.579  0.0286  0.1042 -0.1721
  749SOL    HW1 2484   4.574   5.299   2.637  1.0322 -0.5870  0.6855
  749SOL    HW2 2485   4.723   5.330   2.634  0.9368 -0.1708 -1.4513
  750SOL     OW 2486   1.098   5.015   1.908  0.1267  0.1803 -0.3186
  750SOL    HW1 2487   1.025   5.067   1.940  0.9784  1.5981 -0.6127
  750SOL    HW2 2488   1.141   5.070   1.843  1.1428 -0.8440 -0.5514
  751SOL     OW 2489   4.984   5.855   5.029  0.1882 -0.0086  0.1603
  751SOL    HW1 2490   5.011   5.910   5.103  1.6815  1.0046 -1.0649
  751SOL    HW2 2491   5.022   5.769   5.049 -0.2254 -0.0063  1.0098
  752SOL     OW 2492   6.134   5.272   0.988 -0.1982 -0.2462  0.3260
  752SOL    HW1 2493   6.074   5.336   1.027  0.4183 -0.4504  1.6627
  752SOL    HW2 2494   6.117   5.278   0.894 -0.1065  1.9460  0.3883
  753SOL     OW 2495   2.389   2.738   3.071  0.1049 -0.3238 -0.9267
  753SOL    HW1 2496   2.450   2.758   3.142  0.7132 -1.9890 -0.9467
  753SOL    HW2 2497   2.329   2.673   3.107  1.3029 -2.3132 -2.2849
  754SOL     OW 2498   4.688   1.607   3.929 -0.0700 -0.5254 -0.0052
  754SOL    HW1 2499   4.747   1.533   3.911 -0.6202 -0.6351 -1.4699
  754SOL    HW2 2500   4.655   1.632   3.844 -1.6989 -0.0680  0.7296
  755SOL     OW 2501   5.615   5.766   3.366  0.5123  0.0030  0.3791
  755SOL    HW1 2502   5.675   5.696   3.342 -0.7150 -0.9697  0.0704
  755SOL    HW2 2503   5.539   5.753   3.311  0.2915  1.6657  0.2368
  756SOL     OW 2504   3.783   2.986   3.214 -0.2906  0.3367  0.6629
  756SOL    HW1 2505   3.798   3.076   3.186  1.4948 -0.6803 -2.0277
  756SOL    HW2 2506   3.688   2.975   3.210 -0.5429  2.0891  1.1076
  757SOL     OW 2507   3.947   0.963   2.156  0.3187 -0.6762  0.1884
  757SOL    HW1 2508   3.934   0.879   2.200  1.9826 -1.3674 -0.5445
  757SOL    HW2 2509   3.933   1.028   2.224  4.2354 -1.7272  2.3080
  758SOL     OW 2510   0.390   3.964   2.880  0.3736  0.4123  0.1333
  758SOL    HW1 2511   0.356   3.924   2.960  0.0992  0.4695  0.0488
  758SOL    HW2 2512   0.358   3.908   2.809 -0.4351  1.0318 -0.0228
  759SOL     OW 2513   2.470   5.262   2.976 -0.4302 -0.5742 -0.6026
  759SOL    HW1 2514   2.484   5.296   2.887  1.5393  0.8495  0.1563
  759SOL    HW2 2515   2.445   5.339   3.027 -2.1505 -1.4839  0.0032
  760SOL     OW 2516   4.443   1.108   4.630  0.4687 -0.2154 -1.1268
  760SOL    HW1 2517   4.528   1.102   4.672  0.3679  1.7086 -0.5681
  760SOL    HW2 2518   4.413   1.018   4.624  1.7270 -0.7711  0.3397
  761SOL     OW 2519   5.219   4.968   1.533  0.0853  0.0099  0.0404
  761SOL    HW1 2520   5.191   5.046   1.581 -1.0309 -0.2116 -0.2157
  761SOL    HW2 2521   5.144   4.947   1.478  0.7297 -0.7112 -0.5654
  762SOL     OW 2522   1.675   4.357   4.734  0.1075  0.6132 -0.0302
  762SOL    HW1 2523   1.724   4.283   4.771  1.8520  1.3130 -0.8532
  762SOL    HW2 2524   1.627   4.319   4.660 -0.7182 -0.1004  0.8428
  763SOL     OW 2525   5.985   4.469   1.562  0.4350  0.1499 -0.2838
  763SOL    HW1 2526   5.933   4.396   1.595 -0.5510  1.2671  0.7354
  763SOL    HW2 2527   5.990   4.455   1.468 -0.5914 -0.6899 -0.2204
  764SOL     OW 2528   3.694   3.228   5.462  0.2167 -0.2352 -0.1174
  764SOL    HW1 2529   3.703   3.249   5.555  1.2075 -0.2351 -0.1972
  764SOL    HW2 2530   3.602   3.246   5.442  0.1918  0.6091  0.6575
  765SOL     OW 2531   4.414   1.690   0.539  0.2772  0.4899  0.2233
  765SOL    HW1 2532   4.366   1.642   0.472 -0.0382  0.2010  0.6497
  765SOL    HW2 2533   4.424   1.778   0.503 -2.8064  1.3326  1.1431
  766SOL     OW 2534   0.431   3.563   4.793  0.5626 -0.4800 -0.4139
  766SOL    HW1 2535   0.492   3.601   4.730  2.2465  0.0287  1.4124
  766SOL    HW2 2536   0.485   3.545   4.870 -1.3855 -1.1725  0.8550
  767SOL     OW 2537   6.094   6.117   1.536 -0.5498  0.4529 -0.2295
  767SOL    HW1 2538   6.183   6.084   1.522 -1.0147  0.0788 -2.7068
  767SOL    HW2 2539   6.105   6.212   1.544  0.2088  0.2741  1.2861
  768SOL     OW 2540   3.150   3.284   5.222  0.1381 -0.8307  0.0549
  768SOL    HW1 2541   3.070   3.244   5.256  0.7794 -1.6629  0.6356
  768SOL    HW2 2542   3.209   3.210   5.208  0.9251 -0.1945 -0.0348
  769SOL     OW 2543   3.471   1.829   0.711 -0.0585  0.1208 -0.7051
  769SOL    HW1 2544   3.477   1.917   0.748 -1.8239 -0.0980  0.2105
  769SOL    HW2 2545   3.403   1.786   0.763  0.8062 -1.8092 -1.1021
  770SOL     OW 2546   3.553   5.289   5.960 -0.2538 -0.1147 -0.3330
  770SOL    HW1 2547   3.608   5.231   6.013 -2.4679 -1.4881  0.5686
  770SOL    HW2 2548   3.526   5.236   5.885  0.2533  0.8159 -1.2115
  771SOL     OW 2549   0.914   0.321   3.085  0.0528 -0.4148 -0.3327
  771SOL    HW1 2550   0.923   0.417   3.082  0.2702 -0.2324  2.9775
  771SOL    HW2 2551   0.961   0.291   3.008  1.8050  2.0611 -0.3610
  772SOL     OW 2552   1.566   3.985   2.638 -0.2254  0.5253  0.2132
  772SOL    HW1 2553   1.558   3.995   2.543  0.3739 -0.3219  0.0641
  772SOL    HW2 2554   1.591   4.072   2.669 -0.5841  0.8489 -0.3836
  773SOL     OW 2555   5.562   0.956   4.678  0.0183 -0.2933  0.5057
  773SOL    HW1 2556   5.636   0.991   4.629 -0.1569  0.9972  1.0952
  773SOL    HW2 2557   5.586   0.866   4.697  1.3605  0.0408  0.5255
  774SOL     OW 2558   2.110   2.487   1.987  0.0992  0.6702  0.2727
  774SOL    HW1 2559   2.125   2.460   2.078 -1.5765  1.2356  0.7627
  774SOL    HW2 2560   2.058   2.567   1.994 -0.7779  0.2698 -1.1833
  775SOL     OW 2561   4.764   4.235   0.463 -0.2506 -0.1254  0.1440
  775SOL    HW1 2562   4.791   4.207   0.551 -0.6173  0.7347  0.5406
  775SOL    HW2 2563   4.782   4.159   0.408  0.4905 -0.4951  0.8646
  776SOL     OW 2564   3.805   4.740   4.092  0.3081  0.0388 -0.2689
  776SOL    HW1 2565   3.713   4.723   4.116  0.2594 -0.4516 -0.7778
  776SOL    HW2 2566   3.839   4.654   4.066  0.6726  0.3631 -0.8895
  777SOL     OW 2567   4.548   3.869   6.096  0.5795 -0.4492  0.3403
  777SOL    HW1 2568   4.524   3.780   6.069 -0.4630 -0.2613  0.5884
  777SOL    HW2 2569   4.575   3.860   6.187 -0.4181 -0.3889  0.6565
  778SOL     OW 2570   4.035   1.004   4.078 -0.2266  0.1389  0.6124
  778SOL    HW1 2571   4.084   1.082   4.052  1.3586 -0.7207  0.8579
  778SOL    HW2 2572   4.054   0.994   4.171  1.8585 -1.9787  0.0667
  779SOL     OW 2573   1.224   2.434   5.914  0.8291 -0.4899  0.1845
  779SOL    HW1 2574   1.180   2.349   5.915  0.8434 -0.5390 -1.6218
  779SOL    HW2 2575   1.228   2.458   5.822 -0.1765  2.0033  0.7262
  780SOL     OW 2576   4.090   1.759   4.348  0.1364 -0.1287 -0.1250
  780SOL    HW1 2577   4.044   1.843   4.337  0.4437 -0.1117 -1.4707
  780SOL    HW2 2578   4.096   1.747   4.443  0.3087  1.5014  0.1045
  781SOL     OW 2579   2.825   2.776   0.534  0.7511  0.2251  0.0542
  781SOL    HW1 2580   2.789   2.849   0.584  0.7380  0.4285 -0.2539
  781SOL    HW2 2581   2.758   2.707   0.542 -0.0417  0.8326 -1.0806
  782SOL     OW 2582   3.876   2.734   3.310  0.7438  0.3266 -1.2332
  782SOL    HW1 2583   3.901   2.773   3.393  0.5628  0.6863 -1.3456
  782SOL    HW2 2584   3.861   2.808   3.252  0.5795  0.0867 -1.5014
  783SOL     OW 2585   1.281   1.912   1.154 -0.1962 -0.1989 -0.1129
  783SOL    HW1 2586   1.243   1.973   1.218  1.3264 -0.5708  1.1934
  783SOL    HW2 2587   1.326   1.968   1.091 -0.0080  0.0814  0.2727
  784SOL     OW 2588   1.949   3.117   2.169 -0.1182 -0.2893  0.8146
  784SOL    HW1 2589   1.933   3.155   2.256  0.3740 -0.7510  1.1160
  784SOL    HW2 2590   2.017   3.172   2.131 -1.5829  1.0152 -0.0288
  785SOL     OW 2591   5.610   3.887   1.648  0.3656 -0.0652 -0.2699
  785SOL    HW1 2592   5.668   3.955   1.683  2.4309 -0.1029 -3.1763
  785SOL    HW2 2593   5.667   3.836   1.590 -1.6564 -2.9007  0.0524
  786SOL     OW 2594   1.615   1.329   4.749 -0.5637 -0.2421  0.1380
  786SOL    HW1 2595   1.562   1.332   4.829  0.9489  1.0350  1.1707
  786SOL    HW2 2596   1.620   1.235   4.728 -2.1250 -0.4923  0.7242
  787SOL     OW 2597   4.176   3.396   4.057  0.1017  0.2376  0.2948
  787SOL    HW1 2598   4.254   3.446   4.033  1.5795 -2.1027 -0.1457
  787SOL    HW2 2599   4.176   3.396   4.152  1.2315 -0.5060  0.3204
  788SOL     OW 2600   3.640   0.784   6.135 -0.3810  0.9479  0.2869
  788SOL    HW1 2601   3.658   0.774   6.041  0.1743  0.1639  0.4654
  788SOL    HW2 2602   3.598   0.701   6.160  0.9468  0.4759  1.0588
  789SOL     OW 2603   3.544   2.856   0.786 -0.2356  0.1194  0.0813
  789SOL    HW1 2604   3.577   2.767   0.783  1.1105  0.5970 -0.1960
  789SOL    HW2 2605   3.598   2.899   0.853  1.7346  1.6696 -2.3535
  790SOL     OW 2606   2.312   0.425   2.829 -0.3619  0.1633 -0.0228
  790SOL    HW1 2607   2.396   0.379   2.826 -0.0543  0.7437 -0.6191
  790SOL    HW2 2608   2.260   0.385   2.760 -0.1331  0.6259 -0.4688
  791SOL     OW 2609   0.161   1.456   4.073 -0.0889 -0.1320 -0.1564
  791SOL    HW1 2610   0.197   1.472   4.160 -0.7982  0.5267  0.0282
  791SOL    HW2 2611   0.109   1.534   4.054 -0.2219 -0.4218 -1.0259
  792SOL     OW 2612   4.718   4.476   2.947 -0.7349 -0.2645  0.0314
  792SOL    HW1 2613   4.652   4.434   2.891 -1.2182  0.0665  0.3442
  792SOL    HW2 2614   4.669   4.508   3.022 -0.3310  0.5905 -0.0517
  793SOL     OW 2615   3.704   0.673   4.133 -0.7352 -0.3910  0.2596
  793SOL    HW1 2616   3.776   0.611   4.130 -0.6663 -0.3678 -3.5808
  793SOL    HW2 2617   3.743   0.757   4.109 -1.9989 -0.5109 -2.6328
  794SOL     OW 2618   5.955   4.099   1.304 -0.5156  0.5302 -0.5069
  794SOL    HW1 2619   5.972   4.083   1.397 -2.7046  1.0403  0.0464
  794SOL    HW2 2620   5.916   4.017   1.273 -2.5409  1.2898 -0.1602
  795SOL     OW 2621   1.005   1.168   2.778 -0.1122 -0.1493  0.1879
  795SOL    HW1 2622   0.983   1.199   2.866 -0.0444  0.9333 -0.1715
  795SOL    HW2 2623   0.922   1.165   2.731  0.0770  0.9742 -0.2365
  796SOL     OW 2624   4.530   3.232   0.982  0.0783  0.3246 -0.7157
  796SOL    HW1 2625   4.519   3.138   0.998 -0.1350  0.4914  0.1830
  796SOL    HW2 2626   4.581   3.237   0.901  2.0830 -0.5973  0.4242
  797SOL     OW 2627   1.969   5.210   3.975  0.8195 -0.0107 -0.2615
  797SOL    HW1 2628   1.928   5.296   3.983 -0.2545 -0.3972 -1.2907
  797SOL    HW2 2629   1.948   5.166   4.057 -0.6133 -0.0845 -0.6408
  798SOL     OW 2630   2.709   2.799   0.862  0.3229 -0.0147  0.3531
  798SOL    HW1 2631   2.644   2.732   0.839  0.3640 -0.0451  0.3248
  798SOL    HW2 2632   2.660   2.881   0.863  0.2919 -0.0321  0.2920
  799SOL     OW 2633   5.554   4.089   3.078 -0.3620 -0.2581 -0.4027
  799SOL    HW1 2634   5.592   4.037   3.148  0.8058  0.6457 -0.3441
  799SOL    HW2 2635   5.625   4.103   3.016 -0.8875  0.5321 -0.8506
  800SOL     OW 2636   3.627   5.890   3.371 -0.0865 -0.0407 -0.3218
  800SOL    HW1 2637   3.546   5.899   3.322 -0.1666  2.4030  0.1097
  800SOL    HW2 2638   3.601   5.845   3.452 -0.0249 -3.6755 -2.1189
  801SOL     OW 2639   6.025   1.225   0.149  0.4952 -0.4357 -0.1981
  801SOL    HW1 2640   6.064   1.140   0.132  1.8301  0.4343 -1.7366
  801SOL    HW2 2641   6.018   1.230   0.245  1.8612 -1.6266 -0.0187
  802SOL     OW 2642   3.476   2.689   0.323  0.0077 -0.1601  0.0352
  802SOL    HW1 2643   3.490   2.759   0.386  0.8418  0.1521 -0.4703
  802SOL    HW2 2644   3.555   2.691   0.268  0.6195 -2.2693  0.7457
  803SOL     OW 2645   3.883   0.346   4.875 -0.0753 -0.0666  0.3058
  803SOL    HW1 2646   3.883   0.373   4.967 -0.9227  0.6969  0.0940
  803SOL    HW2 2647   3.828   0.411   4.830  2.0699  0.8772 -1.1309
  804SOL     OW 2648   4.267   5.399   4.465  0.0224  0.0129  0.3697
  804SOL    HW1 2649   4.346   5.450   4.479 -0.0903  0.3083 -0.0519
  804SOL    HW2 2650   4.217   5.410   4.545 -0.7382  1.9006 -0.3070
  805SOL     OW 2651   1.906   2.599   5.842 -0.2292  0.0787 -0.2108
  805SOL    HW1 2652   1.849   2.674   5.826 -0.7006 -0.5524 -1.7204
  805SOL    HW2 2653   1.849   2.533   5.880 -0.2111 -0.1091 -0.5085
  806SOL     OW 2654   4.108   4.045   3.950 -0.1421  0.2187 -0.4842
  806SOL    HW1 2655   4.024   4.003   3.965 -0.3670  0.6301 -0.5786
  806SOL    HW2 2656   4.173   3.979   3.976 -0.4991  0.2336  0.5031
  807SOL     OW 2657   0.123   0.859   4.036 -0.2639  0.2224 -0.2435
  807SOL    HW1 2658   0.038   0.821   4.010 -0.0870 -0.1311 -0.3110
  807SOL    HW2 2659   0.100   0.945   4.072 -0.7157 -0.1339  0.3359
  808SOL     OW 2660   1.103   2.265   1.708 -0.1879 -0.0613  0.6143
  808SOL    HW1 2661   1.010   2.243   1.712 -0.1056 -1.3150 -2.0393
  808SOL    HW2 2662   1.108   2.338   1.646  0.5775  0.1249  0.8889
  809SOL     OW 2663   2.993   1.344   4.823  0.3183 -0.3091  0.3898
  809SOL    HW1 2664   3.030   1.431   4.832  0.0897  0.1274 -2.1199
  809SOL    HW2 2665   2.900   1.355   4.846  0.8258 -0.5827  2.8737
  810SOL     OW 2666   2.008   4.293   3.777  0.4061 -0.2331 -0.3868
  810SOL    HW1 2667   1.927   4.343   3.772  0.4903 -0.1557 -1.0426
  810SOL    HW2 2668   2.065   4.344   3.835  0.5308  0.4854 -1.1335
  811SOL     OW 2669   0.609   4.054   2.536  0.3376  0.1601 -0.2557
  811SOL    HW1 2670   0.604   3.972   2.488  0.5796  1.4014 -2.5427
  811SOL    HW2 2671   0.700   4.081   2.529  0.3781  0.4042  0.9245
  812SOL     OW 2672   0.927   5.771   3.330 -0.1890 -0.1240 -0.3965
  812SOL    HW1 2673   0.885   5.727   3.405  0.1808 -1.9340 -1.1890
  812SOL    HW2 2674   1.001   5.818   3.368  0.4908 -1.6958  0.3123
  813SOL     OW 2675   2.743   4.941   1.474  0.2500 -0.2173 -0.3098
  813SOL    HW1 2676   2.692   4.865   1.500  0.2254 -0.5552 -1.3180
  813SOL    HW2 2677   2.801   4.909   1.405 -0.8015  0.9904 -1.8148
  814SOL     OW 2678   2.200   2.851   5.641 -0.4774 -0.2524  0.1776
  814SOL    HW1 2679   2.115   2.884   5.613 -0.0395  0.1016 -0.7629
  814SOL    HW2 2680   2.245   2.828   5.560 -0.0903 -1.4926  0.7141
  815SOL     OW 2681   2.391   1.215   4.545  0.2859  0.4411  0.4930
  815SOL    HW1 2682   2.395   1.125   4.515  0.3310  0.5591  0.1368
  815SOL    HW2 2683   2.364   1.209   4.637  0.4801  0.0593  0.5256
  816SOL     OW 2684   3.329   1.176   0.533 -0.4341 -0.0371 -0.1028
  816SOL    HW1 2685   3.312   1.120   0.609  0.6312  0.6130  0.6399
  816SOL    HW2 2686   3.256   1.237   0.532  0.2702  0.8793  1.2978
  817SOL     OW 2687   5.138   1.175   1.971 -0.0390  0.2505 -0.2424
  817SOL    HW1 2688   5.072   1.148   2.035  1.0296 -1.3758  0.2325
  817SOL    HW2 2689   5.116   1.126   1.892  1.5841 -1.7936  0.4604
  818SOL     OW 2690   6.047   3.453   6.123 -0.6361  0.1971  0.1624
  818SOL    HW1 2691   6.033   3.542   6.155 -1.3591  0.7307 -1.5000
  818SOL    HW2 2692   5.978   3.402   6.166 -0.1322  0.3947  1.2341
  819SOL     OW 2693   0.899   5.801   3.861  0.5264  0.5138  0.0965
  819SOL    HW1 2694   0.896   5.713   3.897  0.2361  0.7001  0.5434
  819SOL    HW2 2695   0.991   5.817   3.843  0.4739 -0.2812 -1.0211
  820SOL     OW 2696   3.882   4.225   5.941  0.0619 -0.0843 -0.1109
  820SOL    HW1 2697   3.860   4.283   5.868 -1.0970 -0.7535 -0.3195
  820SOL    HW2 2698   3.962   4.263   5.978  0.7863  0.1829 -1.8190
  821SOL     OW 2699   4.019   2.991   2.780 -0.3364  0.2765  0.2784
  821SOL    HW1 2700   3.997   3.036   2.861 -1.7522 -2.6278  1.6529
  821SOL    HW2 2701   3.951   2.924   2.770  0.9471 -0.8106 -2.2448
  822SOL     OW 2702   5.006   4.442   1.761  0.3369  0.2591  0.9774
  822SOL    HW1 2703   4.932   4.457   1.820 -0.6676 -0.5596 -0.0360
  822SOL    HW2 2704   5.062   4.380   1.808  0.2175  0.6121  1.6033
  823SOL     OW 2705   3.581   0.167   3.469 -0.1838  0.4285  0.3008
  823SOL    HW1 2706   3.632   0.088   3.453  0.9430  0.6274  2.5096
  823SOL    HW2 2707   3.494   0.147   3.436  0.6593 -0.8704 -1.2480
  824SOL     OW 2708   0.717   5.060   0.309 -0.1636  0.0516 -0.1464
  824SOL    HW1 2709   0.640   5.104   0.346  0.5148  0.1490  1.2376
  824SOL    HW2 2710   0.700   4.967   0.320  0.8671  0.0735  2.4001
  825SOL     OW 2711   1.212   0.276   0.300  0.1205  0.2394 -0.0386
  825SOL    HW1 2712   1.157   0.240   0.231 -0.5311 -0.9690  1.0810
  825SOL    HW2 2713   1.301   0.254   0.274  0.2327  2.6394 -2.1224
  826SOL     OW 2714   4.991   0.696   1.354  0.4944 -0.0210  0.5572
  826SOL    HW1 2715   4.992   0.627   1.420  1.5429  0.3794  0.9725
  826SOL    HW2 2716   5.072   0.745   1.368 -0.2922  1.3822  0.3519
  827SOL     OW 2717   5.221   0.121   0.433 -0.7046 -0.0298  0.2133
  827SOL    HW1 2718   5.196   0.083   0.349  3.4992 -2.9927 -0.0394
  827SOL    HW2 2719   5.190   0.057   0.498  0.0483 -0.1495  0.4669
  828SOL     OW 2720   4.184   4.363   5.139 -0.6059 -0.2190 -0.2701
  828SOL    HW1 2721   4.240   4.307   5.086  0.4302  0.7048 -0.1878
  828SOL    HW2 2722   4.106   4.377   5.086 -0.1850 -0.4468 -0.9614
  829SOL     OW 2723   4.654   0.563   6.031 -0.4388  0.0853 -0.1352
  829SOL    HW1 2724   4.668   0.613   6.112 -1.2141 -1.1384  0.7897
  829SOL    HW2 2725   4.690   0.619   5.962  1.1764  0.7087  1.1510
  830SOL     OW 2726   0.112   2.530   1.350 -0.2227 -0.1932  0.2950
  830SOL    HW1 2727   0.195   2.542   1.397 -0.3250  1.5558  0.0880
  830SOL    HW2 2728   0.090   2.617   1.318 -2.4924 -0.4930  0.8992
  831SOL     OW 2729   2.645   5.792   1.012 -0.6240 -0.3530  0.0506
  831SOL    HW1 2730   2.692   5.758   1.087 -1.3094 -1.0816  0.1657
  831SOL    HW2 2731   2.621   5.715   0.961 -0.5282  0.1021 -0.7036
  832SOL     OW 2732   5.888   5.966   3.097  0.9083  0.2841  0.6266
  832SOL    HW1 2733   5.825   6.013   3.042  1.1183  0.6376  0.6919
  832SOL    HW2 2734   5.841   5.952   3.180 -0.1787 -2.0445 -0.2891
  833SOL     OW 2735   3.745   0.856   4.527 -0.7346 -0.2208  0.2162
  833SOL    HW1 2736   3.728   0.880   4.436  0.0255  0.7400  0.3061
  833SOL    HW2 2737   3.805   0.782   4.522  0.4000  0.6808 -0.0926
  834SOL     OW 2738   2.103   2.551   0.600 -0.0721 -0.2845 -0.0624
  834SOL    HW1 2739   2.012   2.541   0.573 -0.7666 -0.0525  2.0149
  834SOL    HW2 2740   2.110   2.641   0.631  0.6259 -0.5367  0.5750
  835SOL     OW 2741   5.821   5.504   4.804  0.0134  0.4982 -0.3930
  835SOL    HW1 2742   5.872   5.515   4.885 -0.4801 -0.7488  0.1132
  835SOL    HW2 2743   5.883   5.524   4.734  0.8367  0.2730  0.2500
  836SOL     OW 2744   5.271   1.447   6.040 -0.3539  0.0639 -0.1898
  836SOL    HW1 2745   5.260   1.528   6.089 -2.1775 -0.1679 -0.1341
  836SOL    HW2 2746   5.265   1.377   6.105  1.2388 -0.1385 -0.2320
  837SOL     OW 2747   4.423   2.109   2.672  0.3196  0.3632  0.2919
  837SOL    HW1 2748   4.331   2.131   2.686  0.2171  1.3628 -1.5836
  837SOL    HW2 2749   4.428   2.014   2.682 -0.9456  0.2833  0.2658
  838SOL     OW 2750   1.922   1.264   5.857 -0.2752  0.0966  0.4384
  838SOL    HW1 2751   1.999   1.321   5.857  0.2810 -0.6419  0.8931
  838SOL    HW2 2752   1.886   1.271   5.769 -0.5012  1.5300  0.6245
  839SOL     OW 2753   2.262   4.444   1.668  0.5603 -0.6204  0.6017
  839SOL    HW1 2754   2.197   4.374   1.677  1.9344 -2.0559 -0.2573
  839SOL    HW2 2755   2.331   4.420   1.730  0.9943  0.0439  0.3812
  840SOL     OW 2756   4.692   4.770   0.251  0.1492  0.2932  0.2401
  840SOL    HW1 2757   4.694   4.865   0.239  0.1283  0.2916  0.2217
  840SOL    HW2 2758   4.770   4.739   0.204  0.4008  0.3422  0.6274
  841SOL     OW 2759   5.201   5.403   2.611  0.0475 -0.6575  0.1326
  841SOL    HW1 2760   5.214   5.347   2.534 -1.2544 -1.0478  0.1783
  841SOL    HW2 2761   5.106   5.403   2.625 -0.0787  2.1845 -0.3222
  842SOL     OW 2762   3.119   5.512   3.728  0.1865 -0.0848  0.3388
  842SOL    HW1 2763   3.156   5.463   3.654 -1.0370 -0.3615 -0.1031
  842SOL    HW2 2764   3.101   5.599   3.693 -2.0197 -0.7093 -0.2352
  843SOL     OW 2765   1.068   5.782   2.923  0.2389  0.0028 -0.7759
  843SOL    HW1 2766   1.048   5.740   3.007  0.7837  1.4210  0.0804
  843SOL    HW2 2767   0.983   5.811   2.890  0.1559  0.4426 -0.1749
  844SOL     OW 2768   2.764   6.095   5.369  0.4600 -0.0856 -0.1554
  844SOL    HW1 2769   2.720   6.179   5.359  0.4111  0.0128  0.7759
  844SOL    HW2 2770   2.694   6.033   5.389  0.7956  0.2855  2.5079
  845SOL     OW 2771   4.473   4.073   2.222  0.8551  0.8089 -0.5147
  845SOL    HW1 2772   4.481   3.978   2.236  0.9708  0.9065  0.0977
  845SOL    HW2 2773   4.535   4.091   2.152  2.3226  0.7265  0.6989
  846SOL     OW 2774   5.943   3.312   5.284 -0.3742 -0.1600  0.1665
  846SOL    HW1 2775   5.859   3.288   5.246 -1.1887 -2.9843  3.2627
  846SOL    HW2 2776   5.941   3.274   5.372  4.7497 -1.8213 -0.1158
  847SOL     OW 2777   5.964   4.316   0.049  0.3669  0.6203  0.0562
  847SOL    HW1 2778   5.991   4.383  -0.015 -1.1961  0.4470 -0.8190
  847SOL    HW2 2779   5.871   4.333   0.064  0.3528 -0.3091  1.1344
  848SOL     OW 2780   6.068   6.014   0.270 -0.0135 -0.0171  0.4323
  848SOL    HW1 2781   6.018   6.018   0.189 -0.7304 -1.8239  0.7368
  848SOL    HW2 2782   6.007   5.976   0.334  1.0742 -0.2477  1.3605
  849SOL     OW 2783   3.088   2.056   3.637 -0.5564 -0.0709 -0.6372
  849SOL    HW1 2784   3.018   1.995   3.659 -0.8700  0.6056  0.2950
  849SOL    HW2 2785   3.050   2.112   3.568 -0.6776 -0.1657 -0.6477
  850SOL     OW 2786   3.733   3.980   4.204 -0.1447 -0.1486 -0.4124
  850SOL    HW1 2787   3.757   4.073   4.208  1.0529 -0.4948  1.2270
  850SOL    HW2 2788   3.808   3.938   4.162  0.1024 -0.6076  0.4720
  851SOL     OW 2789   5.976   0.092   3.034 -0.1369 -0.3648  0.5718
  851SOL    HW1 2790   5.951   0.003   3.058  3.2876 -1.1249  1.9301
  851SOL    HW2 2791   6.005   0.131   3.116 -1.1485  1.9014 -0.0864
  852SOL     OW 2792   5.930   5.460   1.046 -0.4142  0.1619  0.0151
  852SOL    HW1 2793   5.845   5.418   1.035 -0.0563 -0.7860  0.7192
  852SOL    HW2 2794   5.922   5.544   0.999 -0.9051 -0.9831 -2.0691
  853SOL     OW 2795   1.388   6.142   0.520 -0.0541  0.0097 -0.1169
  853SOL    HW1 2796   1.396   6.061   0.470  0.7230  0.5565 -0.9252
  853SOL    HW2 2797   1.317   6.190   0.476  1.9101  1.3573 -2.0526
  854SOL     OW 2798   0.178   5.818   1.832  0.1327 -0.4521  0.5578
  854SOL    HW1 2799   0.270   5.841   1.849 -0.0921  0.5597  0.4773
  854SOL    HW2 2800   0.162   5.740   1.886  0.7269  0.0039  1.4221
  855SOL     OW 2801   2.619   1.574   1.059  0.5256 -1.1942 -0.3100
  855SOL    HW1 2802   2.540   1.622   1.033  1.4287  1.1198  0.9002
  855SOL    HW2 2803   2.683   1.593   0.990  1.1357  0.1329  0.5667
  856SOL     OW 2804   1.479   5.847   2.982 -0.1249  0.1110 -0.1106
  856SOL    HW1 2805   1.533   5.917   3.018  1.7076 -0.7432 -1.0322
  856SOL    HW2 2806   1.539   5.798   2.924 -1.8648 -0.9918 -1.0695
  857SOL     OW 2807   4.290   4.674   1.975  0.3654 -0.3266  0.1925
  857SOL    HW1 2808   4.354   4.657   2.044  0.0992 -0.9411  0.2979
  857SOL    HW2 2809   4.211   4.702   2.023 -0.0998 -1.5943  0.2212
  858SOL     OW 2810   4.476   5.867   0.255 -0.8825  0.2506 -0.1405
  858SOL    HW1 2811   4.393   5.908   0.279 -0.1514  0.5423  2.1328
  858SOL    HW2 2812   4.466   5.775   0.279 -0.0386  0.6030  1.7569
  859SOL     OW 2813   5.616   4.574   3.761 -0.1721 -0.0690  0.4285
  859SOL    HW1 2814   5.665   4.609   3.835  0.7787  0.1843 -0.3103
  859SOL    HW2 2815   5.530   4.551   3.798 -0.1870  1.3240  1.3038
  860SOL     OW 2816   2.258   5.501   4.934 -0.1298  0.0967 -0.2074
  860SOL    HW1 2817   2.171   5.471   4.961  0.1097  0.7210  1.3845
  860SOL    HW2 2818   2.246   5.592   4.909  0.1371  0.3144  0.4431
  861SOL     OW 2819   4.238   1.501   0.377  0.0691  0.1954  0.1578
  861SOL    HW1 2820   4.274   1.465   0.295 -0.7894  1.2589 -0.7070
  861SOL    HW2 2821   4.174   1.435   0.405  1.2414 -0.7665  0.6586
  862SOL     OW 2822   0.429   5.889   2.355  0.2005 -0.0996  0.5346
  862SOL    HW1 2823   0.422   5.934   2.271 -1.8803  0.6591  1.0515
  862SOL    HW2 2824   0.341   5.855   2.372 -0.0641  1.6508  3.3881
  863SOL     OW 2825   3.917   0.354   2.142 -0.4523 -0.2332 -0.6674
  863SOL    HW1 2826   4.004   0.331   2.172 -0.5769 -0.1167 -0.2169
  863SOL    HW2 2827   3.865   0.364   2.222 -1.8806 -4.0672 -0.8679
  864SOL     OW 2828   2.228   2.933   1.910 -0.0651  0.3498  0.2130
  864SOL    HW1 2829   2.258   2.915   1.999 -0.5484 -0.3276  0.2522
  864SOL    HW2 2830   2.280   3.008   1.882  2.0518 -1.0793  0.0706
  865SOL     OW 2831   5.303   6.002   4.996  0.6881  0.0195 -0.2905
  865SOL    HW1 2832   5.292   5.907   5.002 -0.0122  0.0818 -0.4636
  865SOL    HW2 2833   5.215   6.035   4.978  0.5750  0.8594  1.5426
  866SOL     OW 2834   1.305   3.051   2.237 -0.2447  0.5963  0.3785
  866SOL    HW1 2835   1.315   3.078   2.329  1.3792  0.8291  0.1527
  866SOL    HW2 2836   1.362   3.110   2.188  1.2018 -1.4007 -0.4605
  867SOL     OW 2837   0.425   1.953   4.342 -0.1089  0.2805  0.1545
  867SOL    HW1 2838   0.454   1.886   4.404 -1.0011  0.1356  0.4274
  867SOL    HW2 2839   0.403   2.028   4.396 -1.9787 -0.2265  0.1438
  868SOL     OW 2840   1.762   3.584   4.737 -0.0145 -0.3417  0.7912
  868SOL    HW1 2841   1.813   3.552   4.662  0.9825 -1.0218  1.7237
  868SOL    HW2 2842   1.743   3.675   4.715 -0.0740 -0.6268 -0.4512
  869SOL     OW 2843   5.030   2.186   0.878 -0.1958 -0.0633  0.0827
  869SOL    HW1 2844   4.996   2.117   0.935 -1.0165  0.6574  0.4879
  869SOL    HW2 2845   4.963   2.195   0.810  0.0194  0.1787 -0.0973
  870SOL     OW 2846   5.702   2.252   0.006 -0.1857 -0.7720  0.0711
  870SOL    HW1 2847   5.713   2.160  -0.018 -0.9087 -0.9885  0.5547
  870SOL    HW2 2848   5.631   2.284  -0.050 -0.7624 -0.8400  0.7526
  871SOL     OW 2849   1.763   1.353   0.531 -0.2980  0.2358 -0.0626
  871SOL    HW1 2850   1.736   1.362   0.440 -0.4496 -1.9481 -0.2734
  871SOL    HW2 2851   1.756   1.442   0.567  0.3409  1.2679 -2.3036
  872SOL     OW 2852   0.794   2.946   4.132  0.4854 -0.0139  0.2140
  872SOL    HW1 2853   0.785   3.038   4.109 -1.1372 -0.1351  0.2466
  872SOL    HW2 2854   0.788   2.900   4.048 -0.9040 -0.1994  0.3999
  873SOL     OW 2855   4.943   1.414   4.524  0.1650  0.3430  0.0733
  873SOL    HW1 2856   4.985   1.336   4.489  0.1565  0.5682 -0.4523
  873SOL    HW2 2857   4.992   1.487   4.485 -0.5585  0.6075 -0.3439
  874SOL     OW 2858   4.532   0.105   4.630 -0.5686  0.1565 -0.7232
  874SOL    HW1 2859   4.625   0.114   4.611 -0.9228  0.9003 -2.2663
  874SOL    HW2 2860   4.529   0.081   4.723  1.1249  0.7494 -0.4751
  875SOL     OW 2861   3.137   4.018   4.838 -0.0433 -0.1266 -0.5652
  875SOL    HW1 2862   3.227   4.047   4.857 -0.8779  1.6470  1.0504
  875SOL    HW2 2863   3.142   3.922   4.838  1.4211 -0.1644  2.1781
  876SOL     OW 2864   1.311   2.045   4.123  0.0831  0.3054 -0.4753
  876SOL    HW1 2865   1.232   1.991   4.133  1.3447 -1.4063  0.6455
  876SOL    HW2 2866   1.297   2.118   4.183 -0.9484  0.4481 -0.8481
  877SOL     OW 2867   2.117   4.156   2.812 -0.6537  0.1627 -0.1548
  877SOL    HW1 2868   2.153   4.125   2.895  1.6889  1.5461 -0.5783
  877SOL    HW2 2869   2.024   4.169   2.829 -0.1810  0.6504  2.3294
  878SOL     OW 2870   1.350   1.427   1.179  0.2542  0.6336  0.2349
  878SOL    HW1 2871   1.391   1.349   1.144 -1.4108  0.3070 -1.1221
  878SOL    HW2 2872   1.389   1.499   1.130 -1.9653  0.1892 -2.4200
  879SOL     OW 2873   1.081   5.677   5.130 -0.6933  0.1561  0.7952
  879SOL    HW1 2874   1.171   5.670   5.160  0.2631 -1.9218 -2.1019
  879SOL    HW2 2875   1.062   5.771   5.132  1.7085  0.6878  1.0827
  880SOL     OW 2876   6.020   5.778   1.815  0.3646  0.1199  0.9247
  880SOL    HW1 2877   6.057   5.861   1.846  2.5102 -0.6734  0.6689
  880SOL    HW2 2878   6.068   5.759   1.735 -1.2618 -0.5822  0.0781
  881SOL     OW 2879   1.140   6.145   2.751 -0.1645  0.2602  0.0787
  881SOL    HW1 2880   1.188   6.088   2.811 -1.1338 -1.5424 -0.7558
  881SOL    HW2 2881   1.080   6.194   2.807 -0.0021 -0.2656  0.7311
  882SOL     OW 2882   2.626   0.042   4.398  0.1384 -0.0444  0.0877
  882SOL    HW1 2883   2.646  -0.017   4.471 -0.0566 -0.4796 -0.2053
  882SOL    HW2 2884   2.603   0.125   4.440 -0.2383 -0.3674  0.5357
  883SOL     OW 2885   2.859   0.975   2.987  0.2680 -0.0921  0.6135
  883SOL    HW1 2886   2.773   1.007   3.013  0.1590 -2.0121  2.9222
  883SOL    HW2 2887   2.904   1.052   2.951 -1.7996  1.3156  0.9153
  884SOL     OW 2888   6.078   1.956   2.429 -0.1561 -0.4200 -0.2545
  884SOL    HW1 2889   5.984   1.974   2.425 -0.0851 -0.3150 -2.1571
  884SOL    HW2 2890   6.092   1.926   2.519 -1.6732  1.3293  0.6362
  885SOL     OW 2891   4.164   0.740   5.580  0.4640 -0.0358 -0.0539
  885SOL    HW1 2892   4.115   0.661   5.557  0.6749 -0.3638  0.5787
  885SOL    HW2 2893   4.195   0.723   5.669  2.5742 -0.2909 -0.7693
  886SOL     OW 2894   2.831   2.598   4.219  0.5417 -0.5203  0.1093
  886SOL    HW1 2895   2.807   2.525   4.277  0.8252  0.7198  1.8734
  886SOL    HW2 2896   2.927   2.597   4.219  0.5542 -0.8227 -0.8144
  887SOL     OW 2897   2.785   2.011   2.553 -0.0462 -0.4216 -0.1174
  887SOL    HW1 2898   2.824   2.045   2.473 -1.4264 -0.4935 -0.8283
  887SOL    HW2 2899   2.779   1.917   2.539 -3.5317 -0.1087 -1.4400
  888SOL     OW 2900   2.818   4.840   3.826  0.5142 -0.1102  0.1947
  888SOL    HW1 2901   2.881   4.811   3.760  0.5750 -1.1917  0.7067
  888SOL    HW2 2902   2.760   4.764   3.839 -1.4224  1.0918 -0.8488
  889SOL     OW 2903   1.018   6.045   1.095 -0.1527  0.3552  0.3697
  889SOL    HW1 2904   0.931   6.055   1.134 -0.1862  1.2376  0.0929
  889SOL    HW2 2905   1.050   5.961   1.128 -1.1490 -0.0307  0.3980
  890SOL     OW 2906   3.772   3.352   4.647 -0.5052  0.1544 -0.5546
  890SOL    HW1 2907   3.793   3.421   4.584 -1.4600  0.1186 -0.9238
  890SOL    HW2 2908   3.822   3.376   4.725  1.8191 -0.5611 -1.7449
  891SOL     OW 2909   3.936   0.649   4.594 -0.4545  0.3212 -0.1719
  891SOL    HW1 2910   3.990   0.709   4.645 -1.5392  0.7123  0.5684
  891SOL    HW2 2911   3.998   0.596   4.545  0.5634  1.5138 -0.2397
  892SOL     OW 2912   2.132   5.344   1.987 -0.2333 -0.7190  0.2383
  892SOL    HW1 2913   2.165   5.422   1.942 -1.1807 -0.3315  0.1866
  892SOL    HW2 2914   2.052   5.373   2.030 -0.1665 -1.4726  0.8991
  893SOL     OW 2915   5.303   0.308   5.191 -0.0384  0.1824  0.3131
  893SOL    HW1 2916   5.335   0.223   5.163 -0.3655 -0.4399  1.7453
  893SOL    HW2 2917   5.381   0.364   5.191  0.6419 -0.7185  1.5616
  894SOL     OW 2918   3.096   3.732   1.555 -0.2427  0.1839 -0.5061
  894SOL    HW1 2919   3.160   3.735   1.626  0.0691  1.3396 -0.8129
  894SOL    HW2 2920   3.055   3.646   1.562  1.9134 -0.9186 -0.7923
  895SOL     OW 2921   0.186   4.262   3.124 -0.2488  0.2229  0.3489
  895SOL    HW1 2922   0.267   4.230   3.164  0.4019  3.0707  1.6035
  895SOL    HW2 2923   0.116   4.222   3.175  0.5308  1.5080  2.5979
  896SOL     OW 2924   0.876   0.501   5.501 -0.3559 -0.4218  0.2363
  896SOL    HW1 2925   0.936   0.527   5.572  0.4339 -0.6036 -0.3495
  896SOL    HW2 2926   0.836   0.583   5.473 -1.8759 -0.5287  1.9229
  897SOL     OW 2927   2.343   2.760   5.910  1.2137  0.1155  0.1484
  897SOL    HW1 2928   2.304   2.786   5.827 -1.3593  0.7664  1.4326
  897SOL    HW2 2929   2.417   2.704   5.886 -0.5976 -1.3561 -2.5740
  898SOL     OW 2930   3.278   1.402   5.247 -0.3618 -0.2256  0.4275
  898SOL    HW1 2931   3.349   1.413   5.184 -0.4956 -1.0726  0.1112
  898SOL    HW2 2932   3.198   1.410   5.194 -0.5434  1.5674  0.9173
  899SOL     OW 2933   6.140   3.009   3.992 -0.1188  0.4398  0.3231
  899SOL    HW1 2934   6.077   3.024   4.063 -0.3219  0.7535  0.0791
  899SOL    HW2 2935   6.088   2.966   3.924  0.0252  0.3368  0.2797
  900SOL     OW 2936   4.280   1.543   5.313 -0.5808  0.1293 -0.0418
  900SOL    HW1 2937   4.347   1.593   5.267 -1.7756  1.1268 -0.7550
  900SOL    HW2 2938   4.277   1.581   5.401  0.7741 -0.8972  0.4858
  901SOL     OW 2939   3.201   5.026   2.050  0.0512 -0.0398 -0.5472
  901SOL    HW1 2940   3.151   5.002   2.128 -2.6732  3.1237 -1.0962
  901SOL    HW2 2941   3.274   5.078   2.083  0.5685 -1.0868  0.0084
  902SOL     OW 2942   4.533   2.611   6.105  0.5197  0.3496 -0.0841
  902SOL    HW1 2943   4.617   2.564   6.110  0.0383 -0.6749 -1.0699
  902SOL    HW2 2944   4.519   2.623   6.011 -0.1817  0.9829  0.0982
  903SOL     OW 2945   3.136   5.222   0.952  0.1243  0.0229 -0.2466
  903SOL    HW1 2946   3.104   5.171   1.026 -0.6873  1.3283  0.3487
  903SOL    HW2 2947   3.070   5.209   0.884  1.1790 -1.6724 -1.0168
  904SOL     OW 2948   1.549   1.545   2.674  0.1828  0.5014 -0.0214
  904SOL    HW1 2949   1.514   1.521   2.759  0.9307  1.0299  0.4457
  904SOL    HW2 2950   1.552   1.463   2.625 -0.5319  0.2476  0.3552
  905SOL     OW 2951   1.662   2.840   1.791 -0.3615  0.0911 -0.5116
  905SOL    HW1 2952   1.746   2.872   1.821 -0.1418 -1.1683  0.2885
  905SOL    HW2 2953   1.683   2.770   1.730 -0.8034 -1.0324  0.5852
  906SOL     OW 2954   5.481   3.160   5.782  0.0651  0.4434  0.5164
  906SOL    HW1 2955   5.571   3.149   5.753 -0.0656  1.7458 -0.4697
  906SOL    HW2 2956   5.442   3.073   5.774  1.0170  0.0363  0.2121
  907SOL     OW 2957   4.154   1.466   2.486  0.2957  0.2425 -0.2221
  907SOL    HW1 2958   4.183   1.433   2.570  2.1205  1.8679 -0.1447
  907SOL    HW2 2959   4.127   1.556   2.503 -1.2107 -0.0051 -1.0500
  908SOL     OW 2960   5.339   3.468   2.034  0.3589  0.6899  0.0128
  908SOL    HW1 2961   5.392   3.389   2.041 -2.9472 -1.8700 -1.0165
  908SOL    HW2 2962   5.357   3.517   2.114  0.4755 -2.5487  2.1544
  909SOL     OW 2963   4.687   2.990   5.669 -0.0314  0.1784 -0.1758
  909SOL    HW1 2964   4.746   2.916   5.654  0.7213  0.5105  0.9815
  909SOL    HW2 2965   4.741   3.067   5.654 -0.3767  0.4938  0.1793
  910SOL     OW 2966   5.194   3.517   0.994 -0.4075 -0.4029 -0.2338
  910SOL    HW1 2967   5.204   3.612   1.004  0.8066 -0.6158  0.9876
  910SOL    HW2 2968   5.112   3.506   0.945 -0.4157  1.2710 -0.6643
  911SOL     OW 2969   1.341   3.537   3.035 -0.4097  0.4346  0.3270
  911SOL    HW1 2970   1.428   3.518   3.069 -0.3461 -1.2819 -0.6652
  911SOL    HW2 2971   1.291   3.457   3.049 -0.4254 -0.3628 -3.2589
  912SOL     OW 2972   4.863   5.652   1.643 -0.1261 -0.7648  0.1295
  912SOL    HW1 2973   4.944   5.631   1.689 -1.3993 -1.4443  2.1939
  912SOL    HW2 2974   4.804   5.581   1.664 -1.5420  0.1290 -0.6617
  913SOL     OW 2975   5.535   5.890   3.883 -0.7784  0.3604  0.0300
  913SOL    HW1 2976   5.513   5.810   3.930  2.1669 -0.4361  0.2804
  913SOL    HW2 2977   5.493   5.881   3.798 -2.3197 -0.3836  0.8349
  914SOL     OW 2978   0.713   4.048   3.261  0.5322  0.3548  0.3541
  914SOL    HW1 2979   0.664   4.004   3.192 -0.9697  0.3001  1.4236
  914SOL    HW2 2980   0.763   3.978   3.304  2.2499  0.5290 -1.2429
  915SOL     OW 2981   0.964   4.785   3.781  0.7701 -0.0130  0.2154
  915SOL    HW1 2982   0.896   4.851   3.793 -0.4516 -0.7477 -1.9689
  915SOL    HW2 2983   0.956   4.728   3.858 -0.2504  0.6390  0.6129
  916SOL     OW 2984   1.136   4.021   5.416  0.2861  0.1723  0.0056
  916SOL    HW1 2985   1.222   4.062   5.421  1.8432 -2.7761 -0.5083
  916SOL    HW2 2986   1.094   4.063   5.341  2.0417  0.3970 -0.9080
  917SOL     OW 2987   5.444   0.287   0.910 -0.5080 -0.5184 -0.0809
  917SOL    HW1 2988   5.433   0.354   0.842 -1.3559  1.1196  1.5889
  917SOL    HW2 2989   5.539   0.271   0.911 -0.4515 -0.4575 -1.4905
  918SOL     OW 2990   1.316   5.621   0.391  0.2182  0.3127  0.3743
  918SOL    HW1 2991   1.259   5.692   0.419  0.6623  0.8885 -0.1514
  918SOL    HW2 2992   1.260   5.562   0.341 -0.6047 -0.7584  2.4193
  919SOL     OW 2993   5.099   3.450   1.329  0.0734  0.2100  0.1809
  919SOL    HW1 2994   5.077   3.446   1.422  1.4504 -2.4744  0.4787
  919SOL    HW2 2995   5.096   3.359   1.299  0.2038  0.9355 -2.3010
  920SOL     OW 2996   5.814   5.282   5.484  0.3656 -0.3239 -0.0635
  920SOL    HW1 2997   5.858   5.265   5.400 -0.8836 -0.7476 -0.6490
  920SOL    HW2 2998   5.846   5.214   5.542  0.0221 -1.0176 -0.6668
  921SOL     OW 2999   1.426   5.401   4.664  0.0457  0.4570 -0.6111
  921SOL    HW1 3000   1.381   5.444   4.737  1.1756  2.0513 -0.7910
  921SOL    HW2 3001   1.509   5.372   4.700  0.1925  0.3562 -1.0208
  922SOL     OW 3002   0.719   4.082   4.638 -0.3030  0.0937  0.3378
  922SOL    HW1 3003   0.702   4.042   4.552  0.0678  0.2322  0.1964
  922SOL    HW2 3004   0.724   4.008   4.698 -0.2260 -0.0295  0.1824
  923SOL     OW 3005   2.107   0.769   1.358 -0.0414 -0.4725 -0.2345
  923SOL    HW1 3006   2.042   0.733   1.298  0.2279 -2.5504  0.6410
  923SOL    HW2 3007   2.150   0.839   1.308 -0.0749 -1.8789 -2.3532
  924SOL     OW 3008   5.429   5.438   1.643  0.1273 -0.0040  0.3806
  924SOL    HW1 3009   5.520   5.466   1.629 -0.1216  0.8401  0.3777
  924SOL    HW2 3010   5.434   5.378   1.717  0.5089  1.2809  1.4430
  925SOL     OW 3011   2.220   1.701   3.711  0.2591 -0.0812 -0.4483
  925SOL    HW1 3012   2.301   1.649   3.718  0.5871  0.6290  1.8776
  925SOL    HW2 3013   2.203   1.730   3.800 -1.6750  1.1906 -1.1781
  926SOL     OW 3014   1.695   6.086   4.031 -0.0477 -0.4493  0.3889
  926SOL    HW1 3015   1.643   6.122   4.103  0.7667 -0.3648  0.9474
  926SOL    HW2 3016   1.721   5.999   4.061  2.4045  0.4992  1.3293
  927SOL     OW 3017   1.500   0.790   3.177 -0.6336  0.1369 -0.2438
  927SOL    HW1 3018   1.555   0.711   3.170  2.8682  2.1955  1.5017
  927SOL    HW2 3019   1.469   0.804   3.088  3.8563  0.1224 -2.1050
  928SOL     OW 3020   1.173   1.488   0.304 -0.1749  0.1447 -0.1184
  928SOL    HW1 3021   1.259   1.451   0.285 -0.7301 -0.5346 -1.4443
  928SOL    HW2 3022   1.158   1.552   0.235 -0.1874  1.2372  0.8752
  929SOL     OW 3023   2.441   5.501   2.773  0.6941  0.5569 -0.1025
  929SOL    HW1 3024   2.486   5.561   2.833  0.2860  1.6788 -0.8855
  929SOL    HW2 3025   2.489   5.509   2.691 -1.0907  2.0842 -1.0796
  930SOL     OW 3026   4.656   3.357   0.500 -0.4442 -0.1640 -0.3191
  930SOL    HW1 3027   4.637   3.437   0.549  1.7889 -0.6046  1.4494
  930SOL    HW2 3028   4.710   3.304   0.560  1.4322 -1.3014 -2.7927
  931SOL     OW 3029   5.557   2.210   0.368  0.2883 -0.0563 -0.0999
  931SOL    HW1 3030   5.525   2.128   0.329  1.1200  0.0015 -0.9175
  931SOL    HW2 3031   5.504   2.220   0.448 -0.2166 -1.0900 -0.2848
  932SOL     OW 3032   4.963   3.310   0.791 -0.4965 -0.5286  0.8906
  932SOL    HW1 3033   5.007   3.233   0.828 -1.7936 -2.2892 -0.9971
  932SOL    HW2 3034   5.001   3.319   0.703 -1.3491  0.1321  0.5707
  933SOL     OW 3035   2.650   5.427   2.057 -0.0734 -0.1395  0.3508
  933SOL    HW1 3036   2.558   5.405   2.074  0.1572 -1.8926 -0.5211
  933SOL    HW2 3037   2.693   5.417   2.142 -0.4513 -0.5869  0.4929
  934SOL     OW 3038   3.206   0.290   5.829 -0.0426  0.2034 -0.0331
  934SOL    HW1 3039   3.158   0.346   5.890  0.2581  0.8383 -0.3737
  934SOL    HW2 3040   3.265   0.349   5.783  0.0980 -0.3518 -0.5819
  935SOL     OW 3041   1.486   3.824   3.893 -0.0287  0.3896  0.4529
  935SOL    HW1 3042   1.455   3.910   3.920  0.0231  0.6201 -0.1972
  935SOL    HW2 3043   1.405   3.772   3.883 -0.1586  0.7615 -0.4752
  936SOL     OW 3044   3.125   5.199   6.057  0.7114  0.3294 -0.2297
  936SOL    HW1 3045   3.057   5.141   6.022 -2.2077  2.3622  1.5948
  936SOL    HW2 3046   3.128   5.272   5.996  0.5518  0.6765  0.1710
  937SOL     OW 3047   1.257   2.899   6.108 -0.3155 -0.2756  0.2006
  937SOL    HW1 3048   1.285   2.830   6.168 -1.8045 -0.5042  0.6855
  937SOL    HW2 3049   1.171   2.871   6.078 -1.0645  1.4637  0.5935
  938SOL     OW 3050   4.217   4.075   3.688 -0.2263  0.3796 -0.3660
  938SOL    HW1 3051   4.147   4.078   3.754 -0.5750 -1.1532 -0.6342
  938SOL    HW2 3052   4.297   4.079   3.739 -0.4955  1.0347  0.0224
  939SOL     OW 3053   1.173   4.897   2.491 -0.3954 -0.1890  0.1555
  939SOL    HW1 3054   1.178   4.884   2.396 -0.8577  1.5449 -0.1266
  939SOL    HW2 3055   1.092   4.853   2.517 -0.1318 -0.8998 -0.2033
  940SOL     OW 3056   2.821   4.562   2.106  0.3778 -0.1404 -0.5565
  940SOL    HW1 3057   2.856   4.579   2.018  2.2809 -0.4217  0.1056
  940SOL    HW2 3058   2.810   4.649   2.144  1.2680 -0.0625 -0.4547
  941SOL     OW 3059   0.661   1.053   1.652 -0.7601 -0.2183 -0.3664
  941SOL    HW1 3060   0.595   1.018   1.593  0.5052 -1.6802 -0.9826
  941SOL    HW2 3061   0.731   1.083   1.594 -0.3708  0.1963  0.3108
  942SOL     OW 3062   2.765   5.627   4.133 -0.8347 -0.3377 -0.5136
  942SOL    HW1 3063   2.809   5.680   4.199 -1.8508  1.1813 -0.9951
  942SOL    HW2 3064   2.675   5.618   4.166 -1.7602  1.6369 -2.2526
  943SOL     OW 3065   5.853   1.932   5.209 -0.0516 -0.0854  0.4080
  943SOL    HW1 3066   5.838   2.026   5.219  0.0886 -0.2434  2.6706
  943SOL    HW2 3067   5.765   1.894   5.206 -0.1329  0.0059  1.2337
  944SOL     OW 3068   5.506   3.229   4.538 -0.2558  0.1443 -0.3029
  944SOL    HW1 3069   5.483   3.185   4.456  0.9275  0.6136 -0.9100
  944SOL    HW2 3070   5.422   3.255   4.575 -1.0170 -2.3856 -0.0195
  945SOL     OW 3071   2.246   2.218   0.197  0.0093 -0.0965  0.1465
  945SOL    HW1 3072   2.224   2.237   0.106  1.7527 -3.0509 -1.0639
  945SOL    HW2 3073   2.294   2.295   0.227 -1.6184  1.4397 -0.9638
  946SOL     OW 3074   4.745   0.762   5.509  0.0546 -0.1900  0.0472
  946SOL    HW1 3075   4.764   0.677   5.551  0.7802 -0.0219  0.0768
  946SOL    HW2 3076   4.830   0.805   5.503 -0.3335  0.6093  0.1722
  947SOL     OW 3077   1.137   3.932   2.541 -0.0628 -0.2258  0.7000
  947SOL    HW1 3078   1.167   3.987   2.469  0.6998 -0.3748  0.8973
  947SOL    HW2 3079   1.100   3.855   2.498  0.4919 -0.3652  0.4609
  948SOL     OW 3080   0.144   4.418   5.421  0.3993  0.1336 -0.2105
  948SOL    HW1 3081   0.051   4.426   5.398  0.1940  1.1679  0.8357
  948SOL    HW2 3082   0.154   4.327   5.449 -0.9163  0.5902  2.0138
  949SOL     OW 3083   3.683   4.517   4.468 -0.1822 -0.6353  0.6531
  949SOL    HW1 3084   3.764   4.501   4.419  0.0036  0.8382  0.4329
  949SOL    HW2 3085   3.662   4.433   4.508  0.6297 -1.4321 -0.5221
  950SOL     OW 3086   3.807   4.842   4.841  0.0602 -0.0687 -0.6429
  950SOL    HW1 3087   3.885   4.804   4.880 -1.0127 -0.5975  1.1029
  950SOL    HW2 3088   3.785   4.784   4.769  0.4477 -0.7694 -0.2072
  951SOL     OW 3089   1.925   5.174   5.252 -0.0232 -0.4672 -0.2863
  951SOL    HW1 3090   1.927   5.125   5.170 -0.9367  0.1850 -0.7110
  951SOL    HW2 3091   1.857   5.240   5.239 -0.4242 -0.5789  1.1275
  952SOL     OW 3092   1.977   3.933   0.139 -0.4253 -0.3218  0.0888
  952SOL    HW1 3093   1.889   3.946   0.104 -1.0561  1.0772  2.0393
  952SOL    HW2 3094   1.965   3.874   0.213  0.2810 -0.1351  0.3604
  953SOL     OW 3095   1.114   0.072   3.697 -0.0774 -0.1997  0.3715
  953SOL    HW1 3096   1.105   0.057   3.791 -1.3838  3.4492  0.9967
  953SOL    HW2 3097   1.034   0.036   3.659 -0.7565  0.5087  1.0697
  954SOL     OW 3098   3.382   3.989   5.813 -0.2252 -0.9336 -0.1659
  954SOL    HW1 3099   3.352   4.072   5.776  0.6950 -0.5896 -0.1631
  954SOL    HW2 3100   3.318   3.969   5.881 -0.0576  0.1572  0.3425
  955SOL     OW 3101   2.717   5.360   0.416 -0.1206 -0.5667  0.3763
  955SOL    HW1 3102   2.651   5.429   0.412 -0.3972 -0.8006  0.8351
  955SOL    HW2 3103   2.795   5.403   0.451 -0.3827 -0.5552  0.9494
  956SOL     OW 3104   3.969   4.444   3.345  0.1639 -0.1564 -0.2578
  956SOL    HW1 3105   4.037   4.413   3.404 -0.7929  2.6854  2.5990
  956SOL    HW2 3106   3.985   4.538   3.338 -0.2932 -0.2073 -4.0059
  957SOL     OW 3107   3.933   5.886   4.523 -0.1222 -0.1157 -0.1623
  957SOL    HW1 3108   3.981   5.955   4.570  0.2021 -0.8527  0.6209
  957SOL    HW2 3109   3.968   5.804   4.559 -0.7861 -0.6858 -0.7884
  958SOL     OW 3110   0.419   4.276   4.513  0.4331  0.3724  0.5057
  958SOL    HW1 3111   0.376   4.321   4.441  0.1034 -1.9347 -0.8261
  958SOL    HW2 3112   0.352   4.269   4.581 -0.3343 -0.3753 -0.3021
  959SOL     OW 3113   0.621   4.819   0.458  0.0049 -0.2812  0.5275
  959SOL    HW1 3114   0.616   4.837   0.552  0.3234  1.0531  0.3052
  959SOL    HW2 3115   0.707   4.778   0.445 -1.0333 -2.8850  1.1514
  960SOL     OW 3116   2.873   1.898   3.776  1.0039 -0.3893  0.2024
  960SOL    HW1 3117   2.836   1.922   3.691 -0.1818  0.3451  0.8995
  960SOL    HW2 3118   2.856   1.973   3.832  2.6853 -0.4473  0.8420
  961SOL     OW 3119   0.306   1.364   1.663 -0.1829  0.0978  0.0608
  961SOL    HW1 3120   0.378   1.397   1.716  0.2938 -0.8590  0.0457
  961SOL    HW2 3121   0.343   1.357   1.574 -0.3254 -0.2613  0.0253
  962SOL     OW 3122   4.697   4.220   5.670  0.1366  0.2681  0.0939
  962SOL    HW1 3123   4.665   4.132   5.649 -1.1404  0.7021  0.1370
  962SOL    HW2 3124   4.788   4.206   5.696  0.3769 -0.8603 -1.2136
  963SOL     OW 3125   3.878   3.243   3.677  0.5096 -0.5279 -0.0194
  963SOL    HW1 3126   3.938   3.289   3.618 -1.0810  1.2601 -0.3283
  963SOL    HW2 3127   3.892   3.285   3.762 -0.9612  0.6178 -0.3050
  964SOL     OW 3128   2.323   3.707   0.046  0.4599  0.6576 -0.6940
  964SOL    HW1 3129   2.412   3.704   0.083 -0.1174  3.1583  1.1722
  964SOL    HW2 3130   2.309   3.799   0.026 -3.0266  1.1511  2.8163
  965SOL     OW 3131   0.863   1.179   3.003 -0.6913  0.8453 -0.2278
  965SOL    HW1 3132   0.780   1.226   2.994 -1.0215  0.5309  1.0225
  965SOL    HW2 3133   0.855   1.131   3.085  0.2003 -0.2829 -0.7695
  966SOL     OW 3134   4.769   2.946   2.419  0.3606 -0.2184  0.2245
  966SOL    HW1 3135   4.841   2.968   2.478  0.7893  2.3533 -1.1150
  966SOL    HW2 3136   4.807   2.953   2.331 -1.0528 -0.7867 -0.4692
  967SOL     OW 3137   5.724   4.434   5.251 -0.4398 -0.0743  0.4293
  967SOL    HW1 3138   5.648   4.462   5.302 -0.8234  0.0308 -0.1882
  967SOL    HW2 3139   5.756   4.515   5.211  0.5448  0.0374  1.3776
  968SOL     OW 3140   5.575   1.578   2.831 -0.3484  0.6179 -0.1316
  968SOL    HW1 3141   5.506   1.609   2.889  1.0609  0.1648  1.8865
  968SOL    HW2 3142   5.529   1.531   2.761 -2.0660  0.4004  1.1026
  969SOL     OW 3143   3.034   1.950   4.391 -0.0812  0.1300  0.1810
  969SOL    HW1 3144   3.037   1.920   4.300  0.3758  1.7922 -0.3901
  969SOL    HW2 3145   2.991   1.879   4.439 -1.2874 -0.3385 -1.5232
  970SOL     OW 3146   2.869   2.875   6.017 -0.3418 -0.5490  0.1370
  970SOL    HW1 3147   2.867   2.971   6.017  0.3574 -0.5280 -0.1511
  970SOL    HW2 3148   2.864   2.851   5.925 -3.5812 -0.8976  0.3121
  971SOL     OW 3149   2.329   4.249   1.034 -0.2777 -0.0147  0.4166
  971SOL    HW1 3150   2.340   4.337   1.069  0.7341 -0.0724  0.2779
  971SOL    HW2 3151   2.249   4.254   0.981 -0.0370  0.8999  0.1264
  972SOL     OW 3152   3.163   1.982   6.091 -0.0456 -0.2792  0.3240
  972SOL    HW1 3153   3.069   2.000   6.101  0.0382 -0.3860  1.3832
  972SOL    HW2 3154   3.206   2.066   6.111  0.1083 -0.3330  0.2214
  973SOL     OW 3155   6.006   4.277   5.516  0.0755 -0.7869  0.1305
  973SOL    HW1 3156   6.014   4.186   5.542  3.8467 -0.2970  1.2229
  973SOL    HW2 3157   6.005   4.326   5.599 -0.6511  0.2579 -0.4602
  974SOL     OW 3158   5.454   4.015   4.432 -0.1642 -0.4023  0.1475
  974SOL    HW1 3159   5.395   4.038   4.504 -1.3171 -0.9356 -0.5993
  974SOL    HW2 3160   5.508   4.093   4.419  0.7215 -0.6030  2.1798
  975SOL     OW 3161   0.381   5.407   1.654 -0.1522 -0.1963  0.7371
  975SOL    HW1 3162   0.306   5.465   1.642 -1.3957 -1.7557  0.6247
  975SOL    HW2 3163   0.457   5.465   1.656 -1.3548  1.4253  0.8271
  976SOL     OW 3164   1.635   3.142   3.212 -0.3226  0.4515 -0.0574
  976SOL    HW1 3165   1.545   3.150   3.244 -0.1980  0.0636  0.3908
  976SOL    HW2 3166   1.660   3.052   3.230  0.4484  0.7829  0.5950
  977SOL     OW 3167   5.635   1.505   0.216  0.8656  0.1358  0.3792
  977SOL    HW1 3168   5.598   1.558   0.287 -0.3260  1.2411 -1.0189
  977SOL    HW2 3169   5.565   1.497   0.152  1.4082 -2.1387 -0.0437
  978SOL     OW 3170   3.599   1.944   5.795 -0.1627 -0.1025 -0.3737
  978SOL    HW1 3171   3.513   1.930   5.756 -0.2279 -0.6114 -0.0492
  978SOL    HW2 3172   3.604   1.882   5.868  0.7083 -0.5116 -0.7581
  979SOL     OW 3173   0.778   2.837   4.393 -0.3473 -0.2108 -0.7372
  979SOL    HW1 3174   0.716   2.898   4.432  1.2006  0.6679  0.4450
  979SOL    HW2 3175   0.790   2.869   4.304 -0.3535  0.5927 -0.4598
  980SOL     OW 3176   4.291   2.880   5.519 -0.1578 -0.4522  0.8611
  980SOL    HW1 3177   4.333   2.861   5.603 -0.0583  0.0413  0.9279
  980SOL    HW2 3178   4.315   2.971   5.501 -0.5624 -0.4114  0.5207
  981SOL     OW 3179   1.577   1.140   1.669 -0.0201 -0.7267  0.0204
  981SOL    HW1 3180   1.530   1.223   1.671 -0.9874 -1.1567 -2.3163
  981SOL    HW2 3181   1.669   1.165   1.661 -0.3655  0.1870 -1.6259
  982SOL     OW 3182   5.786   0.140   4.284 -0.1033 -0.4730  0.3524
  982SOL    HW1 3183   5.751   0.151   4.373  1.0069  0.4751  0.7029
  982SOL    HW2 3184   5.868   0.189   4.285  0.0282 -0.6305 -1.1513
  983SOL     OW 3185   0.509   4.717   5.534 -0.2353  0.2216 -0.2168
  983SOL    HW1 3186   0.450   4.642   5.536 -1.5935  1.1630 -1.9622
  983SOL    HW2 3187   0.500   4.756   5.621 -1.3609 -0.2865 -0.0873
  984SOL     OW 3188   5.938   0.973   1.517  0.2891  0.3784  0.2568
  984SOL    HW1 3189   5.911   0.926   1.596  0.1499 -0.1643 -0.1082
  984SOL    HW2 3190   5.955   1.062   1.547 -0.5100  0.3755  0.7677
  985SOL     OW 3191   0.851   3.197   1.195  0.0540  0.1236  0.0998
  985SOL    HW1 3192   0.790   3.250   1.246  0.1894  1.4519 -1.0722
  985SOL    HW2 3193   0.912   3.161   1.260  0.9618  2.7501  0.7951
  986SOL     OW 3194   5.680   0.425   0.637  0.2532  0.0390 -0.3416
  986SOL    HW1 3195   5.709   0.486   0.705  0.6471  1.0083 -1.3365
  986SOL    HW2 3196   5.738   0.443   0.563 -1.7169  0.8101 -1.7927
  987SOL     OW 3197   1.713   0.726   1.354 -0.2830  0.1885  0.0896
  987SOL    HW1 3198   1.693   0.636   1.326 -0.4108  0.5976 -1.1995
  987SOL    HW2 3199   1.807   0.723   1.376  0.4943  0.3607 -2.7845
  988SOL     OW 3200   0.357   4.460   3.393 -0.0619  0.0292  0.0753
  988SOL    HW1 3201   0.268   4.438   3.421  0.5187 -1.9054  0.5782
  988SOL    HW2 3202   0.392   4.377   3.360  1.4636  0.8289 -0.3971
  989SOL     OW 3203   2.585   0.632   5.858 -0.2572  0.4971 -1.0536
  989SOL    HW1 3204   2.660   0.592   5.901 -1.0167 -0.3244 -0.4470
  989SOL    HW2 3205   2.551   0.694   5.922 -1.0339 -0.2965 -0.6672
  990SOL     OW 3206   6.099   1.026   5.303  0.7323 -0.4894  0.3652
  990SOL    HW1 3207   6.029   0.962   5.290  1.3164 -1.0332 -0.1805
  990SOL    HW2 3208   6.097   1.080   5.224 -0.7043  1.1351  1.4417
  991SOL     OW 3209   0.649   3.085   2.436  0.2088 -0.2729 -0.1041
  991SOL    HW1 3210   0.696   3.002   2.433  1.2035  0.2125  1.0985
  991SOL    HW2 3211   0.687   3.131   2.511 -0.2328  1.3280 -0.8235
  992SOL     OW 3212   3.111   1.775   3.389  0.2633 -0.0584  0.1365
  992SOL    HW1 3213   3.139   1.822   3.467  1.1132  0.4804 -0.4876
  992SOL    HW2 3214   3.181   1.712   3.372 -0.4321 -0.9321  0.4320
  993SOL     OW 3215   3.437   3.387   5.627 -0.2952 -0.0210  0.4796
  993SOL    HW1 3216   3.526   3.409   5.598 -0.2038 -0.8706  0.0987
  993SOL    HW2 3217   3.388   3.469   5.616  0.0077 -0.0236 -1.0294
  994SOL     OW 3218   5.831   2.015   3.720  0.6492 -0.1819 -0.1467
  994SOL    HW1 3219   5.744   1.979   3.699  0.3419  0.7046 -0.4375
  994SOL    HW2 3220   5.868   2.039   3.634  0.8513  0.1764  0.0374
  995SOL     OW 3221   0.401   6.036   2.981 -0.0714 -0.2988 -0.1458
  995SOL    HW1 3222   0.455   6.000   3.052  0.7369 -0.4618 -0.8217
  995SOL    HW2 3223   0.452   6.110   2.948 -1.9013  1.8050  1.5069
  996SOL     OW 3224   1.156   3.330   5.365 -0.4556 -0.4057  0.9713
  996SOL    HW1 3225   1.138   3.347   5.272 -2.7344  2.4608  1.7928
  996SOL    HW2 3226   1.234   3.275   5.364  0.2456  0.3666 -2.6234
  997SOL     OW 3227   1.792   6.018   1.132 -0.3440  0.1259 -0.0647
  997SOL    HW1 3228   1.869   6.018   1.190  0.4412  2.8597 -0.9431
  997SOL    HW2 3229   1.724   6.061   1.184 -1.2057 -1.8360  0.5234
  998SOL     OW 3230   0.697   3.964   1.746  0.6251  0.3918 -0.2409
  998SOL    HW1 3231   0.708   4.055   1.774 -0.6478  0.7801 -0.9319
  998SOL    HW2 3232   0.606   3.944   1.766  0.0099  0.2685 -2.8160
  999SOL     OW 3233   5.571   3.576   5.750 -0.2982  0.1249 -0.2285
  999SOL    HW1 3234   5.618   3.658   5.767  1.6106 -0.5843 -1.7357
  999SOL    HW2 3235   5.507   3.598   5.683  1.1285  0.1673 -1.6427
 1000SOL     OW 3236   0.642   5.149   5.006  0.6138  0.0497  0.0281
 1000SOL    HW1 3237   0.703   5.178   5.073  0.9249 -3.1049  1.2894
 1000SOL    HW2 3238   0.573   5.103   5.054 -0.2346 -0.5748 -1.6875
 1001SOL     OW 3239   2.496   2.650   3.571 -0.2117  0.7240  0.4714
 1001SOL    HW1 3240   2.576   2.676   3.527 -0.4493  0.0499 -0.3803
 1001SOL    HW2 3241   2.525   2.606   3.651  0.3066 -0.4430 -0.3388
 1002SOL     OW 3242   2.689   0.058   1.184 -0.3963 -0.1417 -0.2379
 1002SOL    HW1 3243   2.698   0.115   1.107 -1.5275  0.1355 -0.1870
 1002SOL    HW2 3244   2.732  -0.024   1.158 -0.1417  0.1904 -0.9045
 1003SOL     OW 3245   0.308   1.101   3.855 -0.0575 -0.2136 -0.1458
 1003SOL    HW1 3246   0.366   1.152   3.912  0.6617 -2.1424  0.9507
 1003SOL    HW2 3247   0.357   1.022   3.835 -1.8245 -1.3477 -0.2414
 1004SOL     OW 3248   4.569   3.709   5.055 -0.1655 -0.4628 -0.0520
 1004SOL    HW1 3249   4.533   3.747   4.975  0.0974 -0.4812 -0.1784
 1004SOL    HW2 3250   4.656   3.677   5.030  0.1159 -0.0347  0.3517
 1005SOL     OW 3251   1.952   5.971   3.825 -0.0594 -0.7592 -0.3884
 1005SOL    HW1 3252   1.887   6.041   3.825 -1.3705 -1.8509  2.3257
 1005SOL    HW2 3253   2.019   6.000   3.887  0.1720 -1.2450 -0.4087
 1006SOL     OW 3254   1.404   4.522   2.994 -0.4539 -0.3061 -0.0188
 1006SOL    HW1 3255   1.384   4.616   2.998  0.2499 -0.1958  1.3316
 1006SOL    HW2 3256   1.373   4.495   2.908 -0.1588  1.2835 -0.6541
 1007SOL     OW 3257   2.398   1.507   3.837 -0.7468  0.3779  0.2499
 1007SOL    HW1 3258   2.397   1.422   3.881 -0.0629 -0.1974 -0.8094
 1007SOL    HW2 3259   2.326   1.555   3.877 -1.8019 -1.0654  0.1779
 1008SOL     OW 3260   4.802   3.800   0.228  0.1171 -0.5578  0.1335
 1008SOL    HW1 3261   4.882   3.749   0.220  0.0894 -0.8522  1.4612
 1008SOL    HW2 3262   4.772   3.784   0.318 -1.2624 -0.2082 -0.2328
 1009SOL     OW 3263   1.121   0.177   0.717 -0.1178 -0.4555  0.2115
 1009SOL    HW1 3264   1.123   0.270   0.692  0.6597 -0.9118 -1.6110
 1009SOL    HW2 3265   1.129   0.177   0.812  2.5032  1.2964  0.0898
 1010SOL     OW 3266   3.663   1.397   1.475  0.5110 -0.1457 -0.3475
 1010SOL    HW1 3267   3.683   1.396   1.569 -0.0680 -0.8311 -0.2248
 1010SOL    HW2 3268   3.678   1.488   1.449  1.7375 -0.1796  0.1660
 1011SOL     OW 3269   3.414   3.208   5.306 -0.2556 -0.3551 -0.2045
 1011SOL    HW1 3270   3.460   3.154   5.242 -0.6543  0.3709 -1.1309
 1011SOL    HW2 3271   3.346   3.151   5.341 -0.2520 -0.6598 -0.6856
 1012SOL     OW 3272   5.103   1.200   0.780 -0.7660 -0.1494  0.0011
 1012SOL    HW1 3273   5.141   1.112   0.783  0.8317  0.4611 -0.7106
 1012SOL    HW2 3274   5.053   1.202   0.698  0.4672  0.0505 -0.7736
 1013SOL     OW 3275   4.196   2.952   4.498 -0.5352  0.2547 -0.2730
 1013SOL    HW1 3276   4.193   2.896   4.420  0.2162  0.1132 -0.2074
 1013SOL    HW2 3277   4.274   3.006   4.486 -2.0354  2.3896 -1.0544
 1014SOL     OW 3278   3.459   3.364   2.426 -0.4642  0.1794  0.3096
 1014SOL    HW1 3279   3.456   3.371   2.331  1.5322 -1.0953  0.0801
 1014SOL    HW2 3280   3.498   3.446   2.455  0.4784 -0.0850 -0.1542
 1015SOL     OW 3281   5.052   2.107   4.684 -0.1256  0.4964  0.2824
 1015SOL    HW1 3282   5.039   2.195   4.650 -0.4514  1.0576  1.7685
 1015SOL    HW2 3283   5.022   2.049   4.614  0.3870  1.5460 -0.8402
 1016SOL     OW 3284   3.729   2.098   3.603  0.2713 -0.7320 -0.0487
 1016SOL    HW1 3285   3.668   2.171   3.608  1.6193  0.3711  1.2000
 1016SOL    HW2 3286   3.704   2.051   3.524 -1.6163  0.1754 -0.0425
 1017SOL     OW 3287   1.988   0.017   0.771 -0.2785  0.3063 -0.3991
 1017SOL    HW1 3288   2.030   0.039   0.688 -0.7518 -1.6540 -1.2205
 1017SOL    HW2 3289   1.967  -0.076   0.763 -1.6302  0.4089  1.3684
 1018SOL     OW 3290   4.524   0.027   0.789 -0.0955  0.2202  0.0444
 1018SOL    HW1 3291   4.512   0.121   0.805  0.3896  0.1432  0.9326
 1018SOL    HW2 3292   4.615   0.019   0.763  0.8153 -0.3192  2.9776
 1019SOL     OW 3293   0.952   5.463   6.144 -0.7816 -0.4498  0.5263
 1019SOL    HW1 3294   0.919   5.437   6.058 -1.7099 -2.0882  1.3307
 1019SOL    HW2 3295   0.920   5.396   6.203  1.3698 -0.3578  1.8912
 1020SOL     OW 3296   5.926   5.617   5.496  0.2365  0.5873  0.2405
 1020SOL    HW1 3297   5.994   5.552   5.516  0.6184  0.0600 -2.4332
 1020SOL    HW2 3298   5.846   5.577   5.530  0.7572 -0.4037  0.3676
 1021SOL     OW 3299   1.885   3.957   5.549 -0.4568 -0.0742  0.2124
 1021SOL    HW1 3300   1.891   4.014   5.473 -0.5595  1.3439  1.2400
 1021SOL    HW2 3301   1.819   3.892   5.525 -0.3498  0.2243 -0.9733
 1022SOL     OW 3302   2.430   1.070   5.017  0.2755  0.3574  0.2588
 1022SOL    HW1 3303   2.480   1.136   4.968  1.8560  0.5000  1.9607
 1022SOL    HW2 3304   2.358   1.047   4.959  0.2987  2.7769 -0.8467
 1023SOL     OW 3305   4.425   4.215   2.562 -0.3241  0.2656  0.0964
 1023SOL    HW1 3306   4.435   4.259   2.478 -0.3923 -0.8278 -0.5123
 1023SOL    HW2 3307   4.331   4.198   2.569 -0.0866 -1.6267 -0.6925
 1024SOL     OW 3308   1.925   4.422   2.764  0.2753 -0.1384  0.0706
 1024SOL    HW1 3309   2.020   4.428   2.770  0.3897 -0.1594 -1.3999
 1024SOL    HW2 3310   1.895   4.431   2.855  1.4687  3.3021  0.2711
 1025SOL     OW 3311   1.911   2.256   2.027  0.3267  0.4508 -0.4629
 1025SOL    HW1 3312   1.963   2.336   2.023 -0.1303  0.9298  1.6760
 1025SOL    HW2 3313   1.954   2.202   2.093 -0.4150 -0.2677 -0.5483
 1026SOL     OW 3314   0.088   1.722   3.434  0.1243  0.4830 -0.3053
 1026SOL    HW1 3315   0.084   1.815   3.453  1.8596  0.6195 -0.4690
 1026SOL    HW2 3316   0.178   1.706   3.407 -0.2609 -1.1548 -0.7777
 1027SOL     OW 3317   0.536   6.094   6.081 -0.3646 -0.3777 -0.5709
 1027SOL    HW1 3318   0.616   6.143   6.066 -1.9671  2.8502  0.4244
 1027SOL    HW2 3319   0.537   6.073   6.174 -0.0820 -1.6342 -0.8307
 1028SOL     OW 3320   3.852   1.989   5.900 -0.0822  0.4335 -0.4908
 1028SOL    HW1 3321   3.840   2.024   5.988  0.1547  0.8665 -0.6298
 1028SOL    HW2 3322   3.772   2.013   5.853 -0.2147  0.1904 -0.3936
 1029SOL     OW 3323   0.050   0.425   5.045  0.0888  0.6675 -0.4479
 1029SOL    HW1 3324   0.065   0.398   5.136 -0.2442  1.6839 -0.0729
 1029SOL    HW2 3325   0.135   0.457   5.015  0.5109 -0.8488 -0.9306
 1030SOL     OW 3326   1.768   1.014   2.153 -0.1959  0.2391 -0.3524
 1030SOL    HW1 3327   1.776   1.067   2.074 -0.8033  1.1279  0.1694
 1030SOL    HW2 3328   1.721   0.935   2.125  1.0695 -0.2398 -1.2181
 1031SOL     OW 3329   2.579   1.313   1.219 -0.1713  0.2805 -0.1816
 1031SOL    HW1 3330   2.618   1.382   1.166  0.4800  0.4193  0.4628
 1031SOL    HW2 3331   2.504   1.282   1.167 -1.4972  2.5729  0.2289
 1032SOL     OW 3332   1.087   0.944   3.194 -0.2968 -0.3023 -0.0083
 1032SOL    HW1 3333   1.004   0.991   3.200 -0.5349 -0.5693 -1.0046
 1032SOL    HW2 3334   1.116   0.957   3.103  0.6249 -0.4224  0.2573
 1033SOL     OW 3335   0.421   1.091   0.771 -0.2959  0.0770 -0.1988
 1033SOL    HW1 3336   0.437   0.997   0.766 -1.2212 -0.1188  0.2504
 1033SOL    HW2 3337   0.360   1.109   0.700  1.1828  0.6647 -1.3772
 1034SOL     OW 3338   5.951   4.683   1.323 -0.0868 -0.1526 -0.0645
 1034SOL    HW1 3339   5.909   4.675   1.408  0.1403  1.0451  0.1912
 1034SOL    HW2 3340   5.940   4.598   1.281 -2.6464  0.0474  0.0308
 1035SOL     OW 3341   5.344   1.859   5.695  0.0618  0.3856  0.3082
 1035SOL    HW1 3342   5.258   1.831   5.726 -0.0641  0.2211 -0.1789
 1035SOL    HW2 3343   5.375   1.920   5.762 -0.7064  0.9368  0.1754
 1036SOL     OW 3344   2.957   5.705   4.633 -0.0633  0.1161 -0.1058
 1036SOL    HW1 3345   2.959   5.610   4.623 -0.9728 -0.1343  1.6151
 1036SOL    HW2 3346   3.016   5.738   4.566  0.8905 -1.7070 -0.2264
 1037SOL     OW 3347   0.548   0.226   4.055 -0.7149  0.3562  0.0291
 1037SOL    HW1 3348   0.497   0.190   4.128  0.1847 -2.6744 -0.7048
 1037SOL    HW2 3349   0.636   0.192   4.068 -0.4633 -0.0287 -2.2885
 1038SOL     OW 3350   5.446   3.100   4.297  0.2572 -0.0356 -0.2982
 1038SOL    HW1 3351   5.353   3.107   4.276 -0.1561 -0.1087  1.3422
 1038SOL    HW2 3352   5.460   3.006   4.310  0.9465 -0.2076 -2.0214
 1039SOL     OW 3353   2.101   5.586   2.537  0.6049 -0.8099 -0.1473
 1039SOL    HW1 3354   2.006   5.589   2.531  0.5698 -2.9954 -2.8753
 1039SOL    HW2 3355   2.119   5.530   2.612 -0.2338 -0.1877  0.5346
 1040SOL     OW 3356   4.802   0.721   3.905  0.1670  0.2475 -0.1700
 1040SOL    HW1 3357   4.794   0.816   3.907 -0.2594  0.2462 -1.2184
 1040SOL    HW2 3358   4.852   0.703   3.825 -0.6940 -0.4600 -0.5703
 1041SOL     OW 3359   3.273   3.256   3.388  0.0739  0.3821 -0.6000
 1041SOL    HW1 3360   3.237   3.315   3.454  1.1542 -1.5051  1.8208
 1041SOL    HW2 3361   3.357   3.228   3.424 -0.7391 -3.2417 -1.1738
 1042SOL     OW 3362   3.276   4.145   2.200  1.1959  0.4113  0.0187
 1042SOL    HW1 3363   3.328   4.214   2.241  0.4780 -0.7979  3.2968
 1042SOL    HW2 3364   3.328   4.065   2.213  0.2314 -0.2419 -0.0420
 1043SOL     OW 3365   3.200   0.878   5.885  0.0687  0.5331  0.0808
 1043SOL    HW1 3366   3.168   0.793   5.856  1.1770  0.6144 -1.4834
 1043SOL    HW2 3367   3.246   0.859   5.967  0.2082 -0.3656 -0.1927
 1044SOL     OW 3368   1.708   0.783   1.038  0.3237  0.5194 -1.0476
 1044SOL    HW1 3369   1.681   0.696   1.066  1.3467  0.2973 -0.7152
 1044SOL    HW2 3370   1.628   0.836   1.043  0.1065  0.0837  0.7133
 1045SOL     OW 3371   3.201   4.237   3.088 -0.0443 -0.3091 -0.0453
 1045SOL    HW1 3372   3.251   4.261   3.009  1.9984 -0.6220  1.0862
 1045SOL    HW2 3373   3.230   4.301   3.154 -0.5580 -0.9923  0.8530
 1046SOL     OW 3374   2.379   1.255   1.053  0.0536 -0.6357  0.0626
 1046SOL    HW1 3375   2.284   1.256   1.041 -0.2691  1.2304  2.1372
 1046SOL    HW2 3376   2.412   1.325   0.997 -0.1029  0.2596  1.0550
 1047SOL     OW 3377   1.000   0.582   0.925 -0.1481 -0.2112 -0.5988
 1047SOL    HW1 3378   0.988   0.584   1.020  1.3027  0.4324 -0.4071
 1047SOL    HW2 3379   0.913   0.605   0.890 -0.4342  0.6487  0.5930
 1048SOL     OW 3380   3.158   0.375   2.114 -0.1085 -0.0905 -0.4800
 1048SOL    HW1 3381   3.216   0.306   2.148 -1.2115 -0.8164 -0.0098
 1048SOL    HW2 3382   3.145   0.351   2.022  0.6376  0.2955 -0.6923
 1049SOL     OW 3383   0.135   5.152   4.131  0.0175 -0.1800  0.2191
 1049SOL    HW1 3384   0.191   5.172   4.206 -0.3254  1.7584  0.0120
 1049SOL    HW2 3385   0.190   5.101   4.072  0.4910 -1.1786  1.4793
 1050SOL     OW 3386   0.652   5.592   6.047  0.8394 -0.5068  0.0935
 1050SOL    HW1 3387   0.627   5.510   6.005 -1.3123 -0.2227  0.6743
 1050SOL    HW2 3388   0.659   5.571   6.140  1.4345 -0.2693  0.1064
 1051SOL     OW 3389   4.928   6.109   0.942  0.1024 -0.1563 -0.8265
 1051SOL    HW1 3390   4.940   6.185   0.884  0.2830 -1.1258 -2.1026
 1051SOL    HW2 3391   4.856   6.134   0.999  0.2078  1.0061 -1.1737
 1052SOL     OW 3392   1.873   5.215   3.438  0.2454  0.0957 -0.4936
 1052SOL    HW1 3393   1.813   5.269   3.490  0.6277 -1.0307  1.2144
 1052SOL    HW2 3394   1.932   5.278   3.397 -0.1288  1.0516  0.3846
 1053SOL     OW 3395   5.480   1.213   1.303  0.4694 -0.2658  0.3643
 1053SOL    HW1 3396   5.540   1.285   1.323 -0.9521  1.0027  0.2102
 1053SOL    HW2 3397   5.533   1.153   1.249  1.5555  0.8985  0.0761
 1054SOL     OW 3398   2.262   5.468   3.838 -0.0316 -0.2468 -0.2463
 1054SOL    HW1 3399   2.279   5.398   3.900 -2.4534 -1.6550 -1.0304
 1054SOL    HW2 3400   2.336   5.528   3.849  0.6943 -1.4623  2.4634
 1055SOL     OW 3401   5.707   6.090   1.848  0.4487 -0.3340  0.3201
 1055SOL    HW1 3402   5.781   6.041   1.884 -0.7206 -1.3012  1.5394
 1055SOL    HW2 3403   5.671   6.032   1.781  0.5726 -0.0344 -0.0037
 1056SOL     OW 3404   4.441   2.151   2.182 -0.3263 -0.4358  0.0979
 1056SOL    HW1 3405   4.524   2.160   2.135 -0.5584  0.3250 -0.1950
 1056SOL    HW2 3406   4.382   2.212   2.138 -0.0852  1.6409  2.4085
 1057SOL     OW 3407   1.103   4.709   6.138 -0.1220 -0.4017 -0.7691
 1057SOL    HW1 3408   1.057   4.681   6.059 -1.4014 -0.5433  0.0082
 1057SOL    HW2 3409   1.095   4.635   6.199  1.6789 -0.6776 -0.8153
 1058SOL     OW 3410   5.125   3.858   5.530  0.6637 -0.2074 -0.5095
 1058SOL    HW1 3411   5.214   3.864   5.565  0.2750  3.2617  0.3161
 1058SOL    HW2 3412   5.131   3.897   5.443  0.1155 -0.9667 -0.8993
 1059SOL     OW 3413   2.666   4.743   0.494 -0.1651 -0.5752  0.1308
 1059SOL    HW1 3414   2.669   4.690   0.574  3.9786 -0.2667  0.3746
 1059SOL    HW2 3415   2.694   4.684   0.425 -0.1108  0.1057 -0.4437
 1060SOL     OW 3416   1.180   5.632   0.008  0.3219  0.3990 -0.2254
 1060SOL    HW1 3417   1.108   5.574   0.034 -1.4732  2.0771 -1.2317
 1060SOL    HW2 3418   1.217   5.591  -0.071  0.0215 -0.0903 -0.1189
 1061SOL     OW 3419   1.444   0.942   5.576  0.0674 -0.3303 -0.0319
 1061SOL    HW1 3420   1.458   0.958   5.669 -1.8707  0.0592  0.2266
 1061SOL    HW2 3421   1.532   0.940   5.539  0.8428  0.3144  1.6638
 1062SOL     OW 3422   1.143   2.208   4.780  0.0443 -0.8378 -0.8016
 1062SOL    HW1 3423   1.145   2.145   4.852 -0.9080 -0.4119 -0.3891
 1062SOL    HW2 3424   1.233   2.242   4.775  0.1721 -1.0442  0.0305
 1063SOL     OW 3425   6.110   1.334   4.571 -0.0664  0.2751 -0.1412
 1063SOL    HW1 3426   6.068   1.381   4.499 -0.8659 -0.6681 -0.3009
 1063SOL    HW2 3427   6.190   1.298   4.532 -0.0269  0.5384 -0.3085
 1064SOL     OW 3428   3.325   4.132   3.898  0.0154  0.8464  0.0176
 1064SOL    HW1 3429   3.242   4.138   3.946  0.1286 -1.2767  0.5834
 1064SOL    HW2 3430   3.392   4.148   3.963  0.0964  2.2098 -0.3690
 1065SOL     OW 3431   1.467   0.870   4.936  0.3446  0.5052 -0.3884
 1065SOL    HW1 3432   1.416   0.837   5.011  0.0910  2.4961  0.3629
 1065SOL    HW2 3433   1.541   0.809   4.930 -1.6541 -2.0402 -1.0722
 1066SOL     OW 3434   3.027   2.622   0.133 -0.5078  0.2997  0.6738
 1066SOL    HW1 3435   2.954   2.598   0.076 -0.4420 -1.0558  1.1325
 1066SOL    HW2 3436   3.001   2.590   0.219  0.8587 -0.7150  0.7428
 1067SOL     OW 3437   5.582   0.042   5.078  0.1571 -0.8953 -0.0846
 1067SOL    HW1 3438   5.596  -0.040   5.031  0.9583 -1.3085  0.8422
 1067SOL    HW2 3439   5.507   0.024   5.136  0.2101 -0.9124 -0.0214
 1068SOL     OW 3440   0.061   2.790   2.648  0.2788 -0.1081  0.1885
 1068SOL    HW1 3441  -0.002   2.757   2.584  0.6811 -2.0759  0.7320
 1068SOL    HW2 3442   0.082   2.878   2.618  0.6143 -1.0207 -2.5053
 1069SOL     OW 3443   0.336   3.563   2.204  0.9520  0.1354 -0.4514
 1069SOL    HW1 3444   0.430   3.576   2.200  0.7177  2.7393  0.3699
 1069SOL    HW2 3445   0.320   3.525   2.290  1.0767  2.9606  0.9433
 1070SOL     OW 3446   3.356   4.418   4.123 -0.3951 -0.5114 -0.3506
 1070SOL    HW1 3447   3.263   4.425   4.101 -0.1636 -0.5471 -1.3928
 1070SOL    HW2 3448   3.359   4.434   4.218 -1.4067 -0.0520 -0.3760
 1071SOL     OW 3449   4.117   3.831   3.197  0.0271  0.5063 -0.1437
 1071SOL    HW1 3450   4.054   3.854   3.128 -0.7819 -0.5013  0.2369
 1071SOL    HW2 3451   4.131   3.913   3.244 -1.2512  0.6935 -0.0440
 1072SOL     OW 3452   4.777   5.417   1.791  0.6331  0.1763  0.4308
 1072SOL    HW1 3453   4.728   5.363   1.729  2.1167 -0.8571  0.1049
 1072SOL    HW2 3454   4.783   5.362   1.870  0.8542  0.4883  0.6325
 1073SOL     OW 3455   5.947   0.977   2.965 -0.8810  0.1381  0.7596
 1073SOL    HW1 3456   5.890   0.902   2.952 -2.1106  0.9953  1.0163
 1073SOL    HW2 3457   5.935   1.031   2.886  0.8269 -0.4192  0.0611
 1074SOL     OW 3458   2.353   0.913   4.550  0.0617  0.3071 -0.0003
 1074SOL    HW1 3459   2.353   0.910   4.454  0.7204  0.5224 -0.0097
 1074SOL    HW2 3460   2.323   0.827   4.577  1.3513 -0.2811 -0.3926
 1075SOL     OW 3461   2.649   3.363   2.840  0.3114 -0.2297 -0.6753
 1075SOL    HW1 3462   2.677   3.419   2.912 -1.7408  0.3777 -0.2868
 1075SOL    HW2 3463   2.686   3.404   2.761 -0.2309  1.0546 -0.2816
 1076SOL     OW 3464   6.047   1.474   2.951  0.2732  0.5099 -0.6212
 1076SOL    HW1 3465   6.004   1.506   3.030 -0.6776 -0.4041 -0.7445
 1076SOL    HW2 3466   6.107   1.406   2.981 -0.4902 -0.2230 -0.7234
 1077SOL     OW 3467   0.402   2.843   4.354 -0.0195 -0.1252 -0.2335
 1077SOL    HW1 3468   0.335   2.904   4.326  0.7300  0.6855 -0.3020
 1077SOL    HW2 3469   0.401   2.848   4.450 -1.6740 -1.9117 -0.0960
 1078SOL     OW 3470   3.649   3.802   3.525 -0.6005 -0.5269  0.0168
 1078SOL    HW1 3471   3.642   3.830   3.434  0.9185  0.2340  0.1088
 1078SOL    HW2 3472   3.620   3.877   3.576 -0.7521 -0.6920  0.1748
 1079SOL     OW 3473   2.534   4.390   5.268 -0.4468 -0.3534 -0.4243
 1079SOL    HW1 3474   2.597   4.435   5.323 -1.0124  1.8222 -1.4241
 1079SOL    HW2 3475   2.448   4.412   5.305 -0.7274 -1.2571 -0.4986
 1080SOL     OW 3476   4.682   5.493   4.481  0.2592  0.3937 -0.6445
 1080SOL    HW1 3477   4.680   5.398   4.494  1.3260  0.2991 -1.1334
 1080SOL    HW2 3478   4.591   5.521   4.497  0.1543 -0.5603  0.5136
 1081SOL     OW 3479   1.490   4.652   5.898  0.3457 -0.2782  0.0438
 1081SOL    HW1 3480   1.503   4.671   5.991  1.0534  0.4049 -0.1861
 1081SOL    HW2 3481   1.485   4.557   5.893 -1.0406 -0.2821  0.9460
 1082SOL     OW 3482   1.635   1.644   4.526  0.5740 -0.2275 -0.1521
 1082SOL    HW1 3483   1.622   1.658   4.620 -2.5088  0.4730 -0.5555
 1082SOL    HW2 3484   1.728   1.629   4.516  1.1160  0.4661  2.9296
 1083SOL     OW 3485   1.359   1.506   2.125  0.3401 -0.4285 -0.2644
 1083SOL    HW1 3486   1.445   1.474   2.098  0.8761 -0.9999  1.9809
 1083SOL    HW2 3487   1.372   1.600   2.142  1.1610 -0.9337  2.2715
 1084SOL     OW 3488   1.025   4.060   5.745  0.1443 -0.2261 -0.1366
 1084SOL    HW1 3489   0.954   3.997   5.735 -0.9803  1.0648 -0.5607
 1084SOL    HW2 3490   1.095   4.026   5.688 -0.7349 -0.6625 -0.9780
 1085SOL     OW 3491   5.651   1.850   0.208 -0.7256  0.7060  0.1847
 1085SOL    HW1 3492   5.687   1.845   0.296 -1.0877  3.4870  0.5741
 1085SOL    HW2 3493   5.557   1.859   0.221 -0.9318 -0.2213 -0.5613
 1086SOL     OW 3494   6.122   3.372   0.785  0.6193 -0.6264  0.1098
 1086SOL    HW1 3495   6.215   3.381   0.806  1.0872 -1.9613 -1.2488
 1086SOL    HW2 3496   6.120   3.352   0.692 -0.8252 -3.5775  0.6476
 1087SOL     OW 3497   2.282   1.565   5.567 -0.0443  0.3249 -0.1178
 1087SOL    HW1 3498   2.201   1.578   5.518 -0.1795 -0.3182 -0.0649
 1087SOL    HW2 3499   2.318   1.483   5.535 -1.1251 -1.1546  2.1536
 1088SOL     OW 3500   1.386   4.772   0.695 -0.1505 -0.1579  0.5294
 1088SOL    HW1 3501   1.389   4.701   0.759  2.3952 -0.3197  0.3518
 1088SOL    HW2 3502   1.351   4.847   0.744 -1.4653 -1.1254  1.1154
 1089SOL     OW 3503   0.897   3.887   3.463  0.0112  0.5135  0.3642
 1089SOL    HW1 3504   0.877   3.800   3.498  2.4672 -0.4275 -0.3738
 1089SOL    HW2 3505   0.854   3.947   3.524 -0.0711 -1.1777  2.0817
 1090SOL     OW 3506   3.980   2.358   4.256 -0.1919 -0.7207 -0.3661
 1090SOL    HW1 3507   3.960   2.310   4.336 -0.5963 -1.4687 -0.8934
 1090SOL    HW2 3508   3.995   2.289   4.191 -0.2498 -0.1252 -1.0205
 1091SOL     OW 3509   5.111   0.918   3.916  0.0872 -0.0984 -0.1267
 1091SOL    HW1 3510   5.093   0.841   3.969  0.3911  1.3100  2.1965
 1091SOL    HW2 3511   5.207   0.928   3.920 -0.0516  1.2063  0.9454
 1092SOL     OW 3512   5.724   5.007   0.399  0.0194 -0.1762  0.4489
 1092SOL    HW1 3513   5.797   5.068   0.408 -0.5264  0.4842  0.4751
 1092SOL    HW2 3514   5.752   4.928   0.445  0.0153  0.6872  2.0000
 1093SOL     OW 3515   2.629   4.317   0.095 -0.1627 -1.0121  0.0919
 1093SOL    HW1 3516   2.654   4.331   0.186  0.1493 -0.6326 -0.0490
 1093SOL    HW2 3517   2.556   4.377   0.080 -1.2837 -2.1993  0.5350
 1094SOL     OW 3518   2.055   1.684   0.462  0.5246  0.1089  0.3904
 1094SOL    HW1 3519   2.125   1.691   0.397  0.8374  1.3414  0.8227
 1094SOL    HW2 3520   1.977   1.718   0.418 -0.5620 -3.6620 -1.0038
 1095SOL     OW 3521   1.745   4.570   1.094  0.0799 -0.2922 -0.3147
 1095SOL    HW1 3522   1.777   4.514   1.165  2.3561  0.5584 -0.6021
 1095SOL    HW2 3523   1.806   4.555   1.022 -1.9908 -0.8741 -2.0377
 1096SOL     OW 3524   0.246   4.133   1.788 -0.4721 -0.7005 -0.4026
 1096SOL    HW1 3525   0.152   4.151   1.789 -0.4506 -0.5672  0.6451
 1096SOL    HW2 3526   0.287   4.218   1.809 -0.1155 -0.7344 -0.9515
 1097SOL     OW 3527   0.763   1.205   3.880 -0.0633 -0.2311  0.2186
 1097SOL    HW1 3528   0.807   1.290   3.882  1.1155 -0.7738 -0.9346
 1097SOL    HW2 3529   0.808   1.152   3.944  0.6414 -0.6220 -0.5799
 1098SOL     OW 3530   2.968   4.344   5.238 -0.1287 -0.4592  0.4253
 1098SOL    HW1 3531   3.040   4.335   5.300  3.3218  0.7425 -3.0232
 1098SOL    HW2 3532   2.982   4.273   5.174 -2.4471 -0.5720 -0.0614
 1099SOL     OW 3533   5.990   6.057   4.908 -0.4447 -0.0525  0.7949
 1099SOL    HW1 3534   6.008   6.150   4.901  0.1632 -0.2016  0.3564
 1099SOL    HW2 3535   6.061   6.022   4.961  0.9506 -0.7381 -1.4116
 1100SOL     OW 3536   4.955   1.822   2.267  0.3392  0.2171  0.7344
 1100SOL    HW1 3537   5.031   1.764   2.259  0.4053  0.5870 -2.3079
 1100SOL    HW2 3538   4.882   1.770   2.235  0.3568  1.6234 -1.8221
 1101SOL     OW 3539   3.350   5.688   0.875 -0.1205 -0.0310 -0.0832
 1101SOL    HW1 3540   3.424   5.685   0.814 -0.7284  1.7934 -0.9806
 1101SOL    HW2 3541   3.326   5.780   0.879 -0.7001 -0.2079  2.2482
 1102SOL     OW 3542   1.071   1.294   1.515 -0.0393  0.7276  0.3361
 1102SOL    HW1 3543   1.165   1.306   1.502 -0.0211  1.4877  1.0615
 1102SOL    HW2 3544   1.057   1.318   1.607 -1.0961  1.6399 -0.0420
 1103SOL     OW 3545   5.759   2.667   5.313  0.0598 -0.1210  0.4333
 1103SOL    HW1 3546   5.757   2.635   5.404  1.9528 -1.0979  0.1901
 1103SOL    HW2 3547   5.833   2.727   5.310  0.7283 -0.9693 -0.7150
 1104SOL     OW 3548   5.713   1.303   0.531  0.4078 -0.2090  0.0212
 1104SOL    HW1 3549   5.661   1.369   0.576 -0.6772 -0.0169 -1.4117
 1104SOL    HW2 3550   5.648   1.238   0.502  1.0364 -0.3315 -1.1944
 1105SOL     OW 3551   5.770   4.884   2.443 -0.2458 -0.5082  0.4821
 1105SOL    HW1 3552   5.831   4.905   2.514 -0.7456  1.6035  0.3430
 1105SOL    HW2 3553   5.779   4.956   2.381 -0.0112 -2.1695 -1.5323
 1106SOL     OW 3554   1.292   6.006   3.674  0.3601 -0.0892 -0.6088
 1106SOL    HW1 3555   1.369   6.048   3.711 -0.7064  1.5751 -0.1702
 1106SOL    HW2 3556   1.241   6.078   3.636 -0.5664 -1.2502 -1.6808
 1107SOL     OW 3557   5.052   3.858   2.642 -0.0399 -0.6704 -0.1759
 1107SOL    HW1 3558   5.007   3.775   2.655 -1.2004 -0.1230 -0.4913
 1107SOL    HW2 3559   4.983   3.924   2.652  1.2332  0.4536  2.5540
 1108SOL     OW 3560   4.387   1.426   0.141 -0.5499  0.8443  0.2205
 1108SOL    HW1 3561   4.322   1.475   0.090  0.7948  1.0933 -1.2947
 1108SOL    HW2 3562   4.469   1.472   0.126  0.2078 -0.1440  1.2114
 1109SOL     OW 3563   3.321   2.366   5.018 -0.7318  0.1473 -0.1142
 1109SOL    HW1 3564   3.228   2.348   5.012 -0.6448 -0.4181  0.2396
 1109SOL    HW2 3565   3.327   2.443   5.075 -0.8723 -0.8721  1.3044
 1110SOL     OW 3566   0.383   5.591   3.408  0.1954 -0.5126  0.0194
 1110SOL    HW1 3567   0.374   5.623   3.319 -0.2931 -1.8266 -0.4355
 1110SOL    HW2 3568   0.296   5.601   3.446 -0.4574 -2.8344 -0.7073
 1111SOL     OW 3569   6.105   3.123   4.353  0.0963  0.1077  0.1600
 1111SOL    HW1 3570   6.168   3.195   4.353 -1.3605  1.4369  1.3542
 1111SOL    HW2 3571   6.061   3.129   4.437 -1.6900 -0.7370 -0.6570
 1112SOL     OW 3572   3.426   3.787   5.633  0.2234 -0.4422  0.1715
 1112SOL    HW1 3573   3.417   3.857   5.697  0.1070 -0.1387 -0.1734
 1112SOL    HW2 3574   3.491   3.728   5.671  1.2610  0.4994 -0.0945
 1113SOL     OW 3575   1.341   3.678   0.835  0.4945 -0.1139  0.8070
 1113SOL    HW1 3576   1.317   3.647   0.747 -2.0684  0.7777  1.1068
 1113SOL    HW2 3577   1.386   3.761   0.820 -1.9583  1.2197  0.3193
 1114SOL     OW 3578   4.153   1.937   1.794  0.2712 -0.7679 -0.0235
 1114SOL    HW1 3579   4.209   1.866   1.824 -0.7508 -2.6713 -2.2318
 1114SOL    HW2 3580   4.208   2.015   1.798  1.3953 -1.5919  2.6243
 1115SOL     OW 3581   2.558   1.761   3.863 -0.2125  0.8284 -0.7440
 1115SOL    HW1 3582   2.621   1.702   3.822 -0.8921 -0.9217  0.6064
 1115SOL    HW2 3583   2.609   1.808   3.929 -0.0757  0.2035 -0.3939
 1116SOL     OW 3584   3.094   2.540   3.760  0.0220 -0.1886  0.5512
 1116SOL    HW1 3585   3.035   2.468   3.781  0.3930 -0.6669  0.0185
 1116SOL    HW2 3586   3.149   2.550   3.837  0.1800 -0.6970  0.5063
 1117SOL     OW 3587   0.429   5.291   0.840 -0.5432 -0.2097  0.1157
 1117SOL    HW1 3588   0.418   5.379   0.874 -0.7073 -0.2769  0.2353
 1117SOL    HW2 3589   0.362   5.283   0.771 -0.1687 -0.0500 -0.2722
 1118SOL     OW 3590   1.690   6.085   5.250  0.1953  0.2244 -0.4014
 1118SOL    HW1 3591   1.643   6.047   5.325  1.1068  2.1819  1.2753
 1118SOL    HW2 3592   1.757   6.020   5.228  0.1585 -0.2424  0.7722
 1119SOL     OW 3593   4.489   5.170   5.874  0.0970 -0.1866 -0.3502
 1119SOL    HW1 3594   4.523   5.243   5.927 -2.0790 -0.1444  1.0763
 1119SOL    HW2 3595   4.396   5.168   5.893 -0.2123 -2.1898 -1.8373
 1120SOL     OW 3596   4.156   0.621   3.749  0.3946 -0.2163 -0.2667
 1120SOL    HW1 3597   4.108   0.574   3.816  2.1408  0.1455  1.3529
 1120SOL    HW2 3598   4.094   0.685   3.714 -0.9609 -1.3692 -0.0381
 1121SOL     OW 3599   0.528   0.503   4.712 -0.0919 -0.2068  0.3762
 1121SOL    HW1 3600   0.555   0.549   4.633  0.4565 -1.5564 -0.2595
 1121SOL    HW2 3601   0.569   0.551   4.783  1.1912 -0.2042 -0.3328
 1122SOL     OW 3602   4.779   1.805   3.357 -0.0309  0.0026 -0.4247
 1122SOL    HW1 3603   4.731   1.887   3.344 -1.5842 -0.8119 -0.1302
 1122SOL    HW2 3604   4.854   1.828   3.411  0.0908  1.3853 -1.1544
 1123SOL     OW 3605   5.178   0.921   0.787  0.4059  0.2826 -0.6676
 1123SOL    HW1 3606   5.256   0.922   0.843 -0.1704 -0.4896  0.1650
 1123SOL    HW2 3607   5.139   0.835   0.801 -0.3559  0.4859 -1.4376
 1124SOL     OW 3608   2.413   6.103   5.243  0.0591 -0.4098  0.7851
 1124SOL    HW1 3609   2.339   6.110   5.303 -0.7707 -1.3613 -0.0754
 1124SOL    HW2 3610   2.454   6.019   5.265 -0.6477 -1.0881 -0.3620
 1125SOL     OW 3611   4.450   2.231   3.871  0.8422 -0.3364 -0.1510
 1125SOL    HW1 3612   4.379   2.294   3.864 -0.8692 -1.7464  2.5273
 1125SOL    HW2 3613   4.481   2.220   3.781 -1.1208  1.6612 -1.1872
 1126SOL     OW 3614   5.475   0.729   1.675  0.2661  0.0758 -0.4981
 1126SOL    HW1 3615   5.519   0.696   1.597  0.1881 -0.0231 -0.5013
 1126SOL    HW2 3616   5.504   0.820   1.683  2.3956 -0.6527  0.8955
 1127SOL     OW 3617   2.810   0.595   0.566  0.1109  0.1123  0.4632
 1127SOL    HW1 3618   2.870   0.567   0.635  1.4967 -0.0051 -0.7392
 1127SOL    HW2 3619   2.834   0.543   0.490 -0.7309  0.9122 -0.3866
 1128SOL     OW 3620   4.034   2.467   3.215  0.0733  0.0337 -0.4019
 1128SOL    HW1 3621   3.948   2.508   3.230  0.7663  0.7582  2.0330
 1128SOL    HW2 3622   4.046   2.473   3.121 -1.4972  2.1595 -0.5632
 1129SOL     OW 3623   5.966   4.097   4.249 -0.1505  0.2998  0.1557
 1129SOL    HW1 3624   5.894   4.153   4.220 -2.0981 -2.1633 -0.0862
 1129SOL    HW2 3625   5.994   4.050   4.170  0.3637 -0.2459  0.6488
 1130SOL     OW 3626   0.686   2.156   0.392 -0.6172  0.5594 -0.6050
 1130SOL    HW1 3627   0.656   2.182   0.479 -0.7941 -0.0537 -0.4800
 1130SOL    HW2 3628   0.661   2.229   0.335  0.1818  1.3139 -0.0191
 1131SOL     OW 3629   4.310   1.362   1.823  0.2847  0.3234 -0.0980
 1131SOL    HW1 3630   4.220   1.389   1.844  0.2622  0.6879 -0.6419
 1131SOL    HW2 3631   4.339   1.425   1.757  0.0811 -1.2475 -1.7592
 1132SOL     OW 3632   0.849   0.939   2.570 -0.2385 -0.5090  0.0412
 1132SOL    HW1 3633   0.841   0.865   2.630  1.2061  1.0697  2.3716
 1132SOL    HW2 3634   0.806   1.012   2.616  1.2752  0.8569 -0.5852
 1133SOL     OW 3635   5.134   4.378   4.208  0.5309  0.4083 -0.3062
 1133SOL    HW1 3636   5.111   4.384   4.115 -0.0563  1.3729 -0.1233
 1133SOL    HW2 3637   5.069   4.433   4.251  1.4146  0.7930  0.5709
 1134SOL     OW 3638   6.067   4.343   0.448 -0.1504  0.0658 -0.7009
 1134SOL    HW1 3639   6.124   4.320   0.376 -0.2246  0.3986 -0.8679
 1134SOL    HW2 3640   6.049   4.437   0.436  0.3543  0.2747  0.1077
 1135SOL     OW 3641   0.666   0.864   6.121 -0.3841  0.3527 -0.1221
 1135SOL    HW1 3642   0.685   0.845   6.213 -1.0729  1.2131  0.2172
 1135SOL    HW2 3643   0.705   0.792   6.072 -0.6815 -0.5160  0.9051
 1136SOL     OW 3644   3.199   1.510   2.253  0.0501 -0.5183 -0.6434
 1136SOL    HW1 3645   3.230   1.488   2.341 -1.3412  1.1653  0.3501
 1136SOL    HW2 3646   3.272   1.556   2.212  0.0141  0.5310  0.4330
 1137SOL     OW 3647   3.312   0.601   2.821 -0.3687  0.9043  0.3083
 1137SOL    HW1 3648   3.256   0.577   2.895 -0.8409 -1.4895 -0.7142
 1137SOL    HW2 3649   3.266   0.674   2.779 -1.4153  0.6488  0.9573
 1138SOL     OW 3650   2.134   3.691   3.561 -0.0135 -0.5232 -0.1131
 1138SOL    HW1 3651   2.156   3.681   3.653  1.6548  0.0244 -0.4191
 1138SOL    HW2 3652   2.097   3.779   3.555  1.0391 -0.0726 -0.1522
 1139SOL     OW 3653   5.125   0.835   2.927  0.1791 -0.1102 -0.0499
 1139SOL    HW1 3654   5.073   0.866   3.001 -0.8340 -0.4319 -0.6084
 1139SOL    HW2 3655   5.092   0.748   2.908  1.7717 -0.8266  0.3444
 1140SOL     OW 3656   6.064   2.850   5.912 -0.3170 -0.0539 -0.1282
 1140SOL    HW1 3657   6.037   2.913   5.979 -1.6963 -1.1711  0.4393
 1140SOL    HW2 3658   6.016   2.770   5.935  1.4143 -1.3321 -0.7804
 1141SOL     OW 3659   2.756   3.227   5.003  0.0340 -0.0465 -0.2949
 1141SOL    HW1 3660   2.713   3.258   5.083  0.5178  1.7788 -0.7052
 1141SOL    HW2 3661   2.718   3.280   4.933  1.1507 -0.1369 -0.9916
 1142SOL     OW 3662   3.220   3.647   3.431  0.3191 -0.3204  0.4206
 1142SOL    HW1 3663   3.138   3.645   3.481  0.1334 -2.3314  0.1230
 1142SOL    HW2 3664   3.288   3.632   3.496  0.3777  0.4063  0.5321
 1143SOL     OW 3665   1.404   0.750   6.030 -0.1730  0.0640  0.0069
 1143SOL    HW1 3666   1.471   0.760   6.098 -1.3688  2.6102  0.9152
 1143SOL    HW2 3667   1.327   0.719   6.076 -0.6015  0.4883 -0.4140
 1144SOL     OW 3668   4.267   6.052   4.866  0.3039  0.3032  0.2436
 1144SOL    HW1 3669   4.230   6.049   4.955 -0.3854 -1.5588 -0.0425
 1144SOL    HW2 3670   4.350   6.098   4.876  0.9049 -1.0648  2.1480
 1145SOL     OW 3671   4.264   1.236   3.534  0.0632  0.6877 -0.4413
 1145SOL    HW1 3672   4.244   1.251   3.626 -0.3347  0.8264 -0.5480
 1145SOL    HW2 3673   4.210   1.161   3.509  2.0322 -1.0106  0.0850
 1146SOL     OW 3674   0.530   4.361   0.576  0.4019 -0.3285 -0.3453
 1146SOL    HW1 3675   0.604   4.381   0.518  1.6067 -0.0271  1.1902
 1146SOL    HW2 3676   0.524   4.266   0.575  0.8797 -0.3619 -0.4240
 1147SOL     OW 3677   2.194   2.783   1.705 -0.4441  0.8351  0.1519
 1147SOL    HW1 3678   2.272   2.729   1.714 -2.0558 -1.5897  0.6543
 1147SOL    HW2 3679   2.182   2.823   1.791 -0.5866 -0.0685  0.5690
 1148SOL     OW 3680   0.995   4.443   4.149 -0.8435 -0.4809 -0.0554
 1148SOL    HW1 3681   1.056   4.387   4.197 -0.2919  1.1111  1.2282
 1148SOL    HW2 3682   1.010   4.422   4.057 -0.4127 -2.1359  0.3551
 1149SOL     OW 3683   5.156   4.507   0.561 -0.6181 -0.4942  0.0554
 1149SOL    HW1 3684   5.103   4.582   0.533  0.7131  0.6642  0.5523
 1149SOL    HW2 3685   5.190   4.532   0.646  1.5486 -0.7412 -0.6791
 1150SOL     OW 3686   0.432   0.288   2.549 -0.4137 -0.5536  0.8495
 1150SOL    HW1 3687   0.342   0.286   2.582 -1.3593  0.7997 -1.4090
 1150SOL    HW2 3688   0.443   0.206   2.502 -0.9971 -0.1297 -0.0563
 1151SOL     OW 3689   3.368   1.911   2.829  0.1502  0.2546  0.1981
 1151SOL    HW1 3690   3.341   1.979   2.891  1.4022 -0.3760  1.4915
 1151SOL    HW2 3691   3.305   1.918   2.757 -2.4274 -0.0760  2.2678
 1152SOL     OW 3692   2.860   1.104   1.293  0.0397  0.0682  0.3803
 1152SOL    HW1 3693   2.849   1.011   1.313  0.6457  0.2782  1.8398
 1152SOL    HW2 3694   2.771   1.138   1.287 -0.2176 -0.1865  2.1167
 1153SOL     OW 3695   3.558   4.297   3.300  0.1811 -0.0466  0.1507
 1153SOL    HW1 3696   3.617   4.309   3.374 -0.2614 -2.3039  0.9646
 1153SOL    HW2 3697   3.470   4.295   3.338 -0.0408 -1.4483 -0.3700
 1154SOL     OW 3698   5.822   0.846   3.546  0.1146 -0.0311 -0.5751
 1154SOL    HW1 3699   5.865   0.908   3.487  0.2696 -0.4304 -0.8819
 1154SOL    HW2 3700   5.833   0.885   3.633 -2.0234  1.7012 -0.9871
 1155SOL     OW 3701   4.553   5.411   6.004 -0.4198 -0.4266  0.1317
 1155SOL    HW1 3702   4.479   5.443   5.953  0.4208  2.6570  0.6433
 1155SOL    HW2 3703   4.563   5.475   6.074  0.5572 -2.7110  2.2354
 1156SOL     OW 3704   2.301   4.356   0.275 -0.4265  0.3183  0.2034
 1156SOL    HW1 3705   2.273   4.282   0.220 -1.4416 -0.6293  1.8927
 1156SOL    HW2 3706   2.233   4.422   0.260 -1.2143 -0.2885  0.9611
 1157SOL     OW 3707   1.474   2.525   0.882 -0.3184 -0.2467 -0.4473
 1157SOL    HW1 3708   1.405   2.580   0.920  0.0029 -0.0424 -0.1546
 1157SOL    HW2 3709   1.485   2.558   0.793  0.3856  0.6542 -0.0398
 1158SOL     OW 3710   1.185   2.411   3.794  0.3657 -0.3490  0.0306
 1158SOL    HW1 3711   1.216   2.321   3.796 -0.3434 -0.5986  0.9929
 1158SOL    HW2 3712   1.110   2.409   3.734  0.4095 -0.3852 -0.0225
 1159SOL     OW 3713   4.650   4.102   4.402  0.6410  0.5835 -0.3176
 1159SOL    HW1 3714   4.687   4.160   4.469 -0.5027 -0.5770  1.4315
 1159SOL    HW2 3715   4.715   4.032   4.392 -0.5769 -1.0762  2.2264
 1160SOL     OW 3716   3.467   4.128   1.941  0.2164  0.3919  0.0280
 1160SOL    HW1 3717   3.527   4.054   1.942  0.4375  0.5640 -0.6779
 1160SOL    HW2 3718   3.509   4.195   1.996 -0.8087 -0.6261  2.2140
 1161SOL     OW 3719   5.275   6.070   2.955  0.2148 -0.2931  0.0277
 1161SOL    HW1 3720   5.209   6.001   2.949  1.4095 -1.3690 -1.9457
 1161SOL    HW2 3721   5.226   6.152   2.943 -0.8651 -1.0072 -0.5770
 1162SOL     OW 3722   4.161   1.818   0.338  0.4387  0.3893  0.0283
 1162SOL    HW1 3723   4.117   1.741   0.303 -0.0208  0.8196 -0.3499
 1162SOL    HW2 3724   4.098   1.857   0.398 -0.4235  1.9998 -1.8398
 1163SOL     OW 3725   3.988   3.641   2.945  0.2685 -0.0217  0.2780
 1163SOL    HW1 3726   3.944   3.721   2.975 -0.3151  0.0975 -0.8130
 1163SOL    HW2 3727   4.018   3.598   3.025 -1.8819 -0.1202  1.1162
 1164SOL     OW 3728   5.204   4.769   2.961 -0.3092  0.7160  0.1438
 1164SOL    HW1 3729   5.284   4.804   2.922 -0.3239  0.8677  0.2497
 1164SOL    HW2 3730   5.147   4.750   2.887 -0.0805  0.3720  0.0517
 1165SOL     OW 3731   5.217   5.584   1.735 -0.7095  0.5736  0.1331
 1165SOL    HW1 3732   5.269   5.650   1.782  1.1319 -0.2191 -0.7011
 1165SOL    HW2 3733   5.282   5.529   1.692 -2.2410 -1.1234 -0.1025
 1166SOL     OW 3734   4.650   3.567   0.662  0.5811  0.0913 -0.4739
 1166SOL    HW1 3735   4.667   3.580   0.755 -1.7383 -1.0900  0.1888
 1166SOL    HW2 3736   4.555   3.556   0.656  0.8397 -1.5740 -2.7539
 1167SOL     OW 3737   0.674   3.688   5.303  0.3401  0.1160  0.6369
 1167SOL    HW1 3738   0.583   3.661   5.292  0.3717  0.9772 -2.6372
 1167SOL    HW2 3739   0.725   3.610   5.281  0.3546  0.6189 -1.3024
 1168SOL     OW 3740   1.031   5.284   3.149  0.0349 -0.3125  0.1383
 1168SOL    HW1 3741   1.048   5.239   3.067 -1.3132 -0.2421 -0.2126
 1168SOL    HW2 3742   1.106   5.264   3.204  1.1812  0.0144 -1.2588
 1169SOL     OW 3743   1.550   4.528   4.384  0.0556 -0.3900 -0.4720
 1169SOL    HW1 3744   1.618   4.538   4.317  2.2504 -1.9196  1.3533
 1169SOL    HW2 3745   1.581   4.582   4.457  0.2791 -2.4153  1.0209
 1170SOL     OW 3746   4.064   0.204   1.371  0.2361 -0.1458  0.2574
 1170SOL    HW1 3747   4.116   0.194   1.451  0.9460  0.2616 -0.1385
 1170SOL    HW2 3748   4.129   0.211   1.302 -0.3374  1.0091 -0.1828
 1171SOL     OW 3749   0.602   5.962   4.974 -0.0720  0.6613 -0.3902
 1171SOL    HW1 3750   0.656   5.894   4.933  0.0383 -0.3071  1.2897
 1171SOL    HW2 3751   0.616   6.040   4.920  0.4838 -0.4126 -1.8475
 1172SOL     OW 3752   3.704   3.949   0.818 -0.2735 -0.0231 -0.7011
 1172SOL    HW1 3753   3.613   3.926   0.838 -0.6473  0.9758 -1.1636
 1172SOL    HW2 3754   3.698   4.032   0.771  1.0294  1.3056  1.3392
 1173SOL     OW 3755   2.826   3.166   2.547  0.1605 -0.0505  0.3814
 1173SOL    HW1 3756   2.778   3.240   2.583 -1.2165 -0.1075 -1.1864
 1173SOL    HW2 3757   2.785   3.089   2.586  1.9514 -0.0616  2.4402
 1174SOL     OW 3758   2.605   0.375   4.943 -0.1163 -0.4311 -0.3203
 1174SOL    HW1 3759   2.524   0.365   4.891 -0.6143 -0.1306  0.3885
 1174SOL    HW2 3760   2.594   0.315   5.016  0.8955 -1.3680 -0.9205
 1175SOL     OW 3761   2.310   5.389   5.652  0.0596  1.0104 -0.3613
 1175SOL    HW1 3762   2.215   5.384   5.650  0.0810  0.7263 -0.7409
 1175SOL    HW2 3763   2.335   5.328   5.722 -0.1217  2.5597  1.1322
 1176SOL     OW 3764   0.467   2.812   3.102  0.2319  0.7226 -0.4167
 1176SOL    HW1 3765   0.522   2.805   3.024  1.2036 -0.5616  0.3337
 1176SOL    HW2 3766   0.388   2.856   3.072  0.6881  0.4771 -2.0772
 1177SOL     OW 3767   1.154   1.355   4.673  0.0920 -0.3699  0.2457
 1177SOL    HW1 3768   1.133   1.378   4.764  1.2699 -2.3880  1.0975
 1177SOL    HW2 3769   1.236   1.399   4.656  0.0479 -0.2714  0.2859
 1178SOL     OW 3770   0.210   2.967   3.475 -0.3216 -0.3256  0.2249
 1178SOL    HW1 3771   0.233   3.047   3.427 -0.5992 -0.8797 -0.8596
 1178SOL    HW2 3772   0.240   2.984   3.565 -1.5644  1.5249  0.3554
 1179SOL     OW 3773   1.018   5.349   5.449 -0.0207 -0.3701 -0.1084
 1179SOL    HW1 3774   1.043   5.292   5.376  0.7881  1.7567 -1.6079
 1179SOL    HW2 3775   1.057   5.433   5.427 -0.3164  0.5202  2.5059
 1180SOL     OW 3776   2.993   1.641   5.799  0.1556  0.5246  0.5669
 1180SOL    HW1 3777   2.907   1.682   5.812  0.4624  2.1691 -2.0027
 1180SOL    HW2 3778   2.973   1.547   5.796 -1.1636  0.6811  2.3764
 1181SOL     OW 3779   2.346   1.139   0.074  0.4409  0.0291  0.0344
 1181SOL    HW1 3780   2.420   1.080   0.086  0.1536 -0.0878  1.4107
 1181SOL    HW2 3781   2.271   1.081   0.065  0.3737  0.1643 -0.2865
 1182SOL     OW 3782   0.184   2.717   0.979 -0.1188 -0.4487 -0.4140
 1182SOL    HW1 3783   0.257   2.771   0.950  0.0005 -0.0924  0.5116
 1182SOL    HW2 3784   0.112   2.779   0.992 -0.9840 -0.9441 -2.4941
 1183SOL     OW 3785   0.655   2.386   1.889 -0.4666 -0.1750 -0.6090
 1183SOL    HW1 3786   0.680   2.478   1.891  0.0724 -0.3263 -0.1543
 1183SOL    HW2 3787   0.579   2.383   1.831 -2.7935  1.1405  2.1039
 1184SOL     OW 3788   2.995   0.997   2.563 -0.2852  0.1096  0.6308
 1184SOL    HW1 3789   2.953   1.077   2.530 -0.4997 -0.1581  0.2544
 1184SOL    HW2 3790   2.938   0.926   2.533  1.0976 -0.3710 -1.0217
 1185SOL     OW 3791   3.744   1.719   0.360 -0.3373 -0.4997 -0.3658
 1185SOL    HW1 3792   3.663   1.767   0.342  0.1061  0.1007 -0.7968
 1185SOL    HW2 3793   3.795   1.777   0.416 -0.9598 -1.6398  1.4651
 1186SOL     OW 3794   3.894   4.153   0.664  0.0435 -0.2420 -0.0464
 1186SOL    HW1 3795   3.938   4.217   0.608  0.6462  0.6589  1.3914
 1186SOL    HW2 3796   3.817   4.199   0.697  0.2878 -0.3661  0.7166
 1187SOL     OW 3797   0.363   2.909   2.396  0.1862 -0.3430 -0.3009
 1187SOL    HW1 3798   0.373   2.840   2.462 -4.3874 -0.6865  0.3995
 1187SOL    HW2 3799   0.328   2.984   2.444  1.0827  1.0190 -1.6886
 1188SOL     OW 3800   3.451   2.634   3.270 -0.7772  0.3596 -0.6083
 1188SOL    HW1 3801   3.388   2.595   3.331 -0.5729  1.7116  0.5250
 1188SOL    HW2 3802   3.531   2.583   3.282 -0.3579  1.3681  1.2279
 1189SOL     OW 3803   4.211   0.159   1.613  1.0043 -0.5184  0.1445
 1189SOL    HW1 3804   4.285   0.214   1.585  1.4848 -0.8603  0.7174
 1189SOL    HW2 3805   4.252   0.089   1.665  0.2276 -0.4146  0.9158
 1190SOL     OW 3806   0.691   1.351   5.220 -0.0944 -0.4773 -0.5147
 1190SOL    HW1 3807   0.677   1.446   5.230  0.2657 -0.5151  0.5029
 1190SOL    HW2 3808   0.677   1.334   5.127  0.5216  0.6949 -0.8428
 1191SOL     OW 3809   1.231   4.834   4.942  0.3645 -0.2164  0.4024
 1191SOL    HW1 3810   1.144   4.854   4.909 -0.4688 -0.8961  2.0355
 1191SOL    HW2 3811   1.289   4.896   4.898 -1.1135  1.0836  0.1918
 1192SOL     OW 3812   2.354   2.868   2.138 -0.1993  0.4890 -0.0985
 1192SOL    HW1 3813   2.283   2.807   2.160  0.5912 -1.4922 -2.5726
 1192SOL    HW2 3814   2.377   2.909   2.221 -3.0550 -0.0799  1.0914
 1193SOL     OW 3815   4.344   3.204   0.466 -0.2711 -0.1469 -0.7029
 1193SOL    HW1 3816   4.411   3.212   0.399 -0.6310 -0.5627 -1.1200
 1193SOL    HW2 3817   4.297   3.288   0.463  0.7866  0.5018  0.2142
 1194SOL     OW 3818   4.231   5.215   2.230 -0.0087 -0.1462  0.2372
 1194SOL    HW1 3819   4.234   5.310   2.243  0.1895  0.0654 -1.1782
 1194SOL    HW2 3820   4.305   5.181   2.280  0.5087  0.5685 -0.0241
 1195SOL     OW 3821   5.868   2.361   0.713  0.3328  0.0289  0.5298
 1195SOL    HW1 3822   5.928   2.365   0.787  0.0840  2.4292  0.6918
 1195SOL    HW2 3823   5.912   2.410   0.644 -0.3678 -0.3435 -0.1953
 1196SOL     OW 3824   3.078   3.050   1.362 -0.3366  0.4842 -0.1094
 1196SOL    HW1 3825   3.074   3.092   1.276 -0.1223 -0.5882 -0.6647
 1196SOL    HW2 3826   3.004   2.990   1.362  0.4736 -0.5356 -0.1062
 1197SOL     OW 3827   2.787   2.571   3.949  0.0216 -0.4064 -0.2128
 1197SOL    HW1 3828   2.772   2.587   4.042  0.1420 -0.9489 -0.0955
 1197SOL    HW2 3829   2.833   2.487   3.947  0.1453 -0.3246 -0.7535
 1198SOL     OW 3830   1.900   5.882   1.945  0.6229 -0.4705  0.5327
 1198SOL    HW1 3831   1.913   5.969   1.985  0.1099 -0.2967  0.3273
 1198SOL    HW2 3832   1.853   5.832   2.012 -0.8645  0.0400 -0.1046
 1199SOL     OW 3833   3.938   1.246   1.925 -0.0314  0.3048 -0.3390
 1199SOL    HW1 3834   3.913   1.322   1.977 -0.9667 -0.8670  0.9784
 1199SOL    HW2 3835   4.021   1.217   1.964 -0.0166  0.2574 -0.4060
 1200SOL     OW 3836   2.497   1.590   1.320  0.1846  0.2888  0.2072
 1200SOL    HW1 3837   2.501   1.499   1.350  0.0889  0.4571  0.7356
 1200SOL    HW2 3838   2.533   1.587   1.231  0.0433 -0.2893  0.1647
 1201SOL     OW 3839   0.714   2.798   5.630 -0.0453 -0.8157 -0.3472
 1201SOL    HW1 3840   0.688   2.866   5.568 -0.9396  0.4284  1.2919
 1201SOL    HW2 3841   0.642   2.794   5.693  1.8051 -0.3220  1.9467
 1202SOL     OW 3842   2.333   1.067   0.591  0.1511 -0.1037  0.0847
 1202SOL    HW1 3843   2.329   1.163   0.589  1.2838  0.0184  1.5727
 1202SOL    HW2 3844   2.341   1.041   0.499  0.5060  1.2789 -0.3046
 1203SOL     OW 3845   1.175   0.720   4.911  0.0477 -0.4445 -0.1356
 1203SOL    HW1 3846   1.160   0.626   4.920 -0.3724 -0.4061 -0.4174
 1203SOL    HW2 3847   1.101   0.761   4.958  0.1459 -0.2557 -0.1428
 1204SOL     OW 3848   0.516   1.270   4.580  0.2008 -0.4860 -0.4169
 1204SOL    HW1 3849   0.500   1.249   4.488  0.1748 -1.1839 -0.2628
 1204SOL    HW2 3850   0.536   1.185   4.620 -0.3482 -0.2717  0.3306
 1205SOL     OW 3851   4.376   1.024   3.803  0.1490 -0.3075 -0.2284
 1205SOL    HW1 3852   4.297   1.072   3.780 -0.1240 -0.5318  0.2431
 1205SOL    HW2 3853   4.349   0.963   3.871  0.5522 -0.9561 -0.6387
 1206SOL     OW 3854   0.798   4.065   6.026 -0.1230 -0.0450  0.4535
 1206SOL    HW1 3855   0.829   3.988   5.977 -0.3108 -0.5650  1.1351
 1206SOL    HW2 3856   0.830   4.139   5.975 -1.5017 -0.5287 -1.2402
 1207SOL     OW 3857   3.814   5.375   5.731  0.2248  0.1514 -0.2510
 1207SOL    HW1 3858   3.796   5.285   5.704 -2.3620  0.7753 -0.8818
 1207SOL    HW2 3859   3.825   5.370   5.826 -0.3103 -0.7915 -0.2275
 1208SOL     OW 3860   3.777   1.010   1.234 -0.4463  0.2926 -0.2259
 1208SOL    HW1 3861   3.709   1.045   1.291 -0.3974  1.4736 -0.8564
 1208SOL    HW2 3862   3.847   1.074   1.237 -0.2714  0.1811 -1.2724
 1209SOL     OW 3863   1.495   5.985   4.256  1.0501 -0.0748  0.2568
 1209SOL    HW1 3864   1.454   5.934   4.326 -2.9882  2.2071 -0.1256
 1209SOL    HW2 3865   1.530   6.062   4.300 -0.9056  1.0375 -0.0017
 1210SOL     OW 3866   0.171   1.443   3.783  0.1454  0.3787  0.4898
 1210SOL    HW1 3867   0.164   1.441   3.879 -0.7716  0.1066  0.4250
 1210SOL    HW2 3868   0.082   1.460   3.753  0.2449 -0.5247 -0.3521
 1211SOL     OW 3869   1.427   0.078   4.986  0.2073  0.0624 -0.1343
 1211SOL    HW1 3870   1.481   0.029   4.925  0.0031  0.9744 -1.0850
 1211SOL    HW2 3871   1.480   0.087   5.065  1.4005  0.8135 -0.9936
 1212SOL     OW 3872   0.287   3.303   3.565 -0.2911 -1.0273 -0.3419
 1212SOL    HW1 3873   0.208   3.355   3.548 -0.2960 -1.3267 -1.2925
 1212SOL    HW2 3874   0.345   3.322   3.492  0.5829 -0.7276  0.4078
 1213SOL     OW 3875   1.600   1.099   3.913 -0.9577 -0.2943  0.0016
 1213SOL    HW1 3876   1.528   1.059   3.963 -0.4160 -2.1099 -0.5910
 1213SOL    HW2 3877   1.628   1.173   3.967 -1.3444 -1.3298  1.6898
 1214SOL     OW 3878   1.765   4.541   5.064 -0.0417 -0.3975 -0.0500
 1214SOL    HW1 3879   1.704   4.608   5.032 -1.7333  0.5127  4.3070
 1214SOL    HW2 3880   1.844   4.591   5.088  0.6217 -0.8283 -1.2475
 1215SOL     OW 3881   1.750   0.512   0.348  0.1059  0.6359 -0.0241
 1215SOL    HW1 3882   1.749   0.457   0.427  0.5405 -1.5494 -1.4520
 1215SOL    HW2 3883   1.677   0.573   0.360 -3.1306 -2.8679 -0.0465
 1216SOL     OW 3884   1.935   5.107   0.743 -0.0260 -0.3354  0.3217
 1216SOL    HW1 3885   1.918   5.181   0.801  1.7703  0.3274  0.0794
 1216SOL    HW2 3886   1.990   5.144   0.674  0.0901 -1.6945 -0.3331
 1217SOL     OW 3887   5.095   3.453   2.986  0.0131  0.3918 -0.1676
 1217SOL    HW1 3888   5.156   3.403   3.041  0.7683 -1.3374 -2.4117
 1217SOL    HW2 3889   5.015   3.458   3.038  0.9803 -0.3175  1.4720
 1218SOL     OW 3890   4.246   4.624   0.422  0.1562 -0.7524 -0.4043
 1218SOL    HW1 3891   4.189   4.699   0.442 -0.7181 -1.6452  0.5035
 1218SOL    HW2 3892   4.328   4.664   0.392  0.1434  0.5903  1.2338
 1219SOL     OW 3893   3.931   1.196   0.133 -0.2521  0.4369  0.6119
 1219SOL    HW1 3894   3.891   1.113   0.107  0.2992 -0.1240  1.5016
 1219SOL    HW2 3895   3.869   1.262   0.106  0.1571 -0.1034 -1.9040
 1220SOL     OW 3896   2.559   2.199   0.895 -0.5233  0.2082  0.2188
 1220SOL    HW1 3897   2.556   2.151   0.978 -2.3426  1.1627  0.7696
 1220SOL    HW2 3898   2.550   2.291   0.921  4.0993  1.1799 -0.6798
 1221SOL     OW 3899   2.143   5.906   1.182  0.1291  0.5784  0.8488
 1221SOL    HW1 3900   2.123   5.995   1.212  3.4871  1.3318  1.2156
 1221SOL    HW2 3901   2.178   5.918   1.094  1.7723 -0.1698  1.3581
 1222SOL     OW 3902   5.001   2.133   3.384  0.2010 -0.4517 -0.2971
 1222SOL    HW1 3903   5.087   2.100   3.359 -0.0824 -0.6640 -1.0152
 1222SOL    HW2 3904   4.985   2.205   3.322 -0.1981 -0.5026 -0.2517
 1223SOL     OW 3905   3.080   2.286   2.384  0.4387 -0.0175  0.0601
 1223SOL    HW1 3906   3.071   2.335   2.465  0.7125 -0.1310  0.1590
 1223SOL    HW2 3907   3.097   2.352   2.317  0.1289  0.0835  0.0815
 1224SOL     OW 3908   4.680   1.432   4.471  0.0392  0.8734  0.3336
 1224SOL    HW1 3909   4.772   1.427   4.497  0.5390 -1.3408 -1.5598
 1224SOL    HW2 3910   4.669   1.360   4.409 -2.9337  1.2255  0.3384
 1225SOL     OW 3911   1.815   2.700   0.873  0.3629 -0.4514  0.4236
 1225SOL    HW1 3912   1.790   2.647   0.950 -0.5466  0.4091  0.7341
 1225SOL    HW2 3913   1.742   2.760   0.861  1.2318  0.5084 -0.1401
 1226SOL     OW 3914   2.288   4.569   5.341 -0.1197 -0.1275 -0.9590
 1226SOL    HW1 3915   2.352   4.627   5.381 -0.6599 -0.2218  0.0567
 1226SOL    HW2 3916   2.241   4.625   5.279 -0.0765  0.3129 -0.5962
 1227SOL     OW 3917   4.722   4.928   5.067 -0.0053 -0.0554 -0.1604
 1227SOL    HW1 3918   4.648   4.869   5.049  0.3962 -0.0866 -1.9207
 1227SOL    HW2 3919   4.736   4.920   5.161 -0.7927 -1.7955 -0.1435
 1228SOL     OW 3920   0.148   5.297   1.904 -0.3198 -0.3130  0.0128
 1228SOL    HW1 3921   0.221   5.266   1.957 -0.1963 -0.9226 -0.4960
 1228SOL    HW2 3922   0.171   5.272   1.814 -1.2592 -0.7401 -0.1263
 1229SOL     OW 3923   0.156   3.859   5.143  0.4110  0.0260 -0.3457
 1229SOL    HW1 3924   0.239   3.883   5.184 -0.5008 -1.3898  2.5798
 1229SOL    HW2 3925   0.172   3.771   5.108  0.8844  0.8398 -2.3251
 1230SOL     OW 3926   0.160   3.017   4.647 -0.1413  0.3752 -0.1157
 1230SOL    HW1 3927   0.114   2.933   4.656  1.0854 -0.1003  6.4840
 1230SOL    HW2 3928   0.092   3.083   4.661 -0.0937  0.0041  2.2134
 1231SOL     OW 3929   3.735   4.406   1.182 -0.2802  0.1573  0.0976
 1231SOL    HW1 3930   3.821   4.368   1.163 -0.0225 -0.0170  1.5607
 1231SOL    HW2 3931   3.698   4.350   1.250 -1.3286  0.5665 -0.1078
 1232SOL     OW 3932   0.502   1.160   4.330  0.0694  0.1703 -0.5051
 1232SOL    HW1 3933   0.469   1.073   4.354  1.1745 -0.0362  0.3543
 1232SOL    HW2 3934   0.449   1.186   4.254 -2.1461 -0.0837  0.8514
 1233SOL     OW 3935   1.329   3.303   0.920  0.0470  0.0235 -0.8130
 1233SOL    HW1 3936   1.400   3.363   0.943 -0.3472  0.2546 -0.1669
 1233SOL    HW2 3937   1.358   3.261   0.839  1.2401 -0.4082 -0.1842
 1234SOL     OW 3938   4.157   1.339   0.832  0.2180 -0.6503  0.1793
 1234SOL    HW1 3939   4.085   1.359   0.773  1.5101  1.5800 -0.7503
 1234SOL    HW2 3940   4.118   1.281   0.898 -2.1220 -0.3925 -0.8705
 1235SOL     OW 3941   5.721   4.127   3.519 -0.3378  0.0442 -0.3900
 1235SOL    HW1 3942   5.644   4.097   3.568  0.3602  0.6674  1.1681
 1235SOL    HW2 3943   5.791   4.068   3.547 -0.3222 -0.8714 -2.2129
 1236SOL     OW 3944   0.187   3.791   2.692 -0.4137  0.9369 -0.3555
 1236SOL    HW1 3945   0.160   3.747   2.611 -1.4443 -0.3291  0.6290
 1236SOL    HW2 3946   0.112   3.782   2.751 -0.3317  3.3175  0.2080
 1237SOL     OW 3947   3.609   0.965   4.281  0.2518 -0.2676 -0.8631
 1237SOL    HW1 3948   3.618   0.943   4.188 -0.0458  1.0520 -1.2238
 1237SOL    HW2 3949   3.546   0.901   4.314  0.2652 -0.6731 -1.6009
 1238SOL     OW 3950   0.082   4.070   2.682 -0.0243  0.4334  0.2629
 1238SOL    HW1 3951   0.106   3.996   2.737 -0.0110  0.7653  0.7129
 1238SOL    HW2 3952   0.075   4.144   2.743 -2.0173  0.3965  0.1643
 1239SOL     OW 3953   3.453   2.951   3.266 -0.6003  0.0549 -0.2043
 1239SOL    HW1 3954   3.475   2.860   3.246  1.1503  0.7262 -1.5980
 1239SOL    HW2 3955   3.385   2.974   3.203  0.9076  0.4856 -1.7327
 1240SOL     OW 3956   1.951   4.664   3.526  0.0182  0.3550  0.1333
 1240SOL    HW1 3957   1.922   4.750   3.556 -1.7196 -0.6468  1.5135
 1240SOL    HW2 3958   1.956   4.673   3.431 -0.5218  1.8623  0.2174
 1241SOL     OW 3959   1.549   1.064   5.085 -0.5012  0.4729 -0.6271
 1241SOL    HW1 3960   1.624   1.014   5.117 -1.4543 -0.1479  0.7868
 1241SOL    HW2 3961   1.500   1.001   5.032 -0.6511  0.5029 -0.5250
 1242SOL     OW 3962   1.815   5.450   4.002 -0.3481  0.3662  0.1883
 1242SOL    HW1 3963   1.871   5.523   3.978 -1.5905  1.1077 -0.5372
 1242SOL    HW2 3964   1.773   5.477   4.084  0.6381 -0.3715  0.9708
 1243SOL     OW 3965   2.345   0.297   1.935  0.0845 -0.3135  0.2693
 1243SOL    HW1 3966   2.365   0.273   2.026 -0.1296 -1.1095  0.1144
 1243SOL    HW2 3967   2.283   0.370   1.942  0.5438  0.0360  0.7559
 1244SOL     OW 3968   0.041   1.124   3.899 -0.3437  0.7900  0.7955
 1244SOL    HW1 3969   0.024   1.033   3.875 -0.6152  0.9112  0.5206
 1244SOL    HW2 3970   0.125   1.144   3.858 -0.2440  0.6380  0.9259
 1245SOL     OW 3971   4.940   1.934   0.970  0.4368 -0.5950  0.3607
 1245SOL    HW1 3972   4.943   1.888   1.053 -0.3190 -1.3807 -0.0284
 1245SOL    HW2 3973   4.944   1.865   0.904 -0.8322 -0.1383 -0.2304
 1246SOL     OW 3974   0.000   4.469   4.220  0.0121  0.6901  0.1105
 1246SOL    HW1 3975  -0.037   4.484   4.133  1.1763  1.1588 -0.3232
 1246SOL    HW2 3976  -0.033   4.542   4.273 -0.0483  0.8573 -0.1535
 1247SOL     OW 3977   5.573   3.811   2.905  0.2506  0.0345 -0.1930
 1247SOL    HW1 3978   5.494   3.852   2.870  1.2904  1.9644 -0.3783
 1247SOL    HW2 3979   5.642   3.832   2.842  1.1597 -0.6594  0.5285
 1248SOL     OW 3980   0.146   5.207   2.741  0.3060 -0.2166  0.2426
 1248SOL    HW1 3981   0.171   5.144   2.809 -0.3426  0.1491  0.8323
 1248SOL    HW2 3982   0.092   5.271   2.786 -1.2764 -0.6922 -0.8649
 1249SOL     OW 3983   1.040   1.151   5.226 -0.5859 -0.0174 -0.0057
 1249SOL    HW1 3984   1.078   1.210   5.161 -0.5954  0.9047  0.7979
 1249SOL    HW2 3985   1.100   1.076   5.228 -0.1193  0.3372 -0.4541
 1250SOL     OW 3986   3.513   2.269   2.308 -0.3101  0.4771  0.5136
 1250SOL    HW1 3987   3.596   2.225   2.322  1.5422  4.2213  2.9344
 1250SOL    HW2 3988   3.450   2.219   2.361  1.3068 -0.1006  1.9727
 1251SOL     OW 3989   2.264   5.437   2.372  0.4077  0.1596  0.8008
 1251SOL    HW1 3990   2.214   5.507   2.414  0.5101  0.4057  0.5241
 1251SOL    HW2 3991   2.204   5.363   2.368  0.8079 -0.3081  2.5565
 1252SOL     OW 3992   2.595   2.477   5.110 -0.2305  0.0402 -0.4841
 1252SOL    HW1 3993   2.604   2.397   5.058  1.3860 -0.9204  1.1664
 1252SOL    HW2 3994   2.560   2.447   5.194 -0.4653  1.2027 -0.1524
 1253SOL     OW 3995   2.276   5.897   2.716  0.1309  0.3813 -0.1727
 1253SOL    HW1 3996   2.363   5.885   2.677  0.0146 -0.8912 -0.0823
 1253SOL    HW2 3997   2.224   5.826   2.679 -0.6121  0.5654  0.5127
 1254SOL     OW 3998   0.951   1.831   2.600 -0.3441  0.5228  0.3004
 1254SOL    HW1 3999   0.869   1.785   2.611 -0.2904  0.1681 -0.7092
 1254SOL    HW2 4000   1.014   1.764   2.574  0.3704  0.7198  1.4118
 1255SOL     OW 4001   2.556   4.087   0.913 -0.1820 -0.1846  0.2003
 1255SOL    HW1 4002   2.473   4.132   0.927  1.0990  2.0079  1.3532
 1255SOL    HW2 4003   2.586   4.064   1.001  1.5326  1.2714  0.0481
 1256SOL     OW 4004   2.535   2.496   0.043  0.3877 -0.2770 -0.1937
 1256SOL    HW1 4005   2.619   2.542   0.049  1.1427 -1.7254  0.9557
 1256SOL    HW2 4006   2.538   2.432   0.113 -2.1354  0.2912  0.5261
 1257SOL     OW 4007   3.278   0.988   5.000  0.2451 -0.5739 -0.1090
 1257SOL    HW1 4008   3.184   1.002   4.991  0.6164  1.4286 -1.5356
 1257SOL    HW2 4009   3.289   0.894   4.991 -1.5865 -0.8053 -0.3379
 1258SOL     OW 4010   1.814   1.009   0.836 -0.1016 -0.2694  0.5030
 1258SOL    HW1 4011   1.798   0.926   0.881  2.3697 -0.9678  0.2707
 1258SOL    HW2 4012   1.860   1.063   0.900  1.9733 -0.6689 -0.5527
 1259SOL     OW 4013   3.488   2.928   1.178 -0.9300  0.0506  0.2929
 1259SOL    HW1 4014   3.546   2.995   1.142 -1.1805  0.5363  0.7827
 1259SOL    HW2 4015   3.412   2.928   1.119  0.0284 -1.4014 -1.0494
 1260SOL     OW 4016   1.413   5.608   5.093 -0.0938  0.0552 -0.5755
 1260SOL    HW1 4017   1.382   5.524   5.128 -2.5829 -0.0523 -2.6720
 1260SOL    HW2 4018   1.450   5.586   5.008  2.5150  0.7340  0.3045
 1261SOL     OW 4019   5.460   4.841   2.862 -0.2239  0.4374  0.4825
 1261SOL    HW1 4020   5.451   4.919   2.806 -1.9580  0.6467  1.0067
 1261SOL    HW2 4021   5.555   4.830   2.871  0.0847  1.5355 -0.9075
 1262SOL     OW 4022   3.097   0.344   1.272  0.0301  0.4340  0.0379
 1262SOL    HW1 4023   3.189   0.358   1.250  1.5688 -1.7555  3.9029
 1262SOL    HW2 4024   3.083   0.250   1.259 -0.5280  0.0920  2.5587
 1263SOL     OW 4025   6.130   2.915   0.977  0.0923  0.4213  0.5116
 1263SOL    HW1 4026   6.091   2.978   0.917  0.6926  1.4869  1.2085
 1263SOL    HW2 4027   6.123   2.956   1.063 -0.1287 -0.7740  1.0767
 1264SOL     OW 4028   5.918   2.690   2.825  0.0011  0.1033  0.7117
 1264SOL    HW1 4029   5.925   2.779   2.790  0.9220 -0.0213  0.5487
 1264SOL    HW2 4030   5.923   2.634   2.748 -1.4798 -0.0832  0.7229
 1265SOL     OW 4031   3.966   4.894   1.526 -0.2551 -0.6189  0.4788
 1265SOL    HW1 4032   3.884   4.851   1.549  0.4413 -1.1840  2.0524
 1265SOL    HW2 4033   4.034   4.836   1.562  0.8980 -0.7711 -1.7724
 1266SOL     OW 4034   2.405   3.928   1.669  0.2022 -0.2388 -0.0514
 1266SOL    HW1 4035   2.335   3.902   1.608 -0.8506  1.2490  0.4686
 1266SOL    HW2 4036   2.425   4.019   1.645 -0.2320  0.3862  1.7980
 1267SOL     OW 4037   0.659   5.543   0.224  0.4350 -0.2383 -0.0534
 1267SOL    HW1 4038   0.717   5.549   0.300  0.6102 -0.8175 -0.1381
 1267SOL    HW2 4039   0.576   5.581   0.254  0.0282 -1.8298  0.9136
 1268SOL     OW 4040   1.364   3.100   3.284 -0.1797 -0.2246 -0.5859
 1268SOL    HW1 4041   1.331   3.103   3.195  0.8777 -0.2134 -0.9946
 1268SOL    HW2 4042   1.297   3.144   3.337 -0.6032  0.1673 -1.4367
 1269SOL     OW 4043   2.175   2.135   0.916 -0.1022  0.7354 -0.5540
 1269SOL    HW1 4044   2.211   2.067   0.859 -1.0420 -0.2090 -0.0748
 1269SOL    HW2 4045   2.084   2.107   0.932  0.4454  0.2759  2.3739
 1270SOL     OW 4046   5.840   1.382   1.309 -0.7970  0.0238 -0.4629
 1270SOL    HW1 4047   5.929   1.393   1.344 -0.6814 -0.1103 -0.7109
 1270SOL    HW2 4048   5.784   1.424   1.374 -0.5614  0.0153 -0.2504
 1271SOL     OW 4049   3.685   1.013   0.718  0.5055 -0.4930  0.0185
 1271SOL    HW1 4050   3.777   1.033   0.704  0.4291 -0.0017  0.1802
 1271SOL    HW2 4051   3.678   0.989   0.810  0.4649 -0.4577  0.0253
 1272SOL     OW 4052   3.689   5.248   0.475  0.2260 -0.6502  0.4403
 1272SOL    HW1 4053   3.741   5.181   0.432  0.0274 -0.3426 -0.3017
 1272SOL    HW2 4054   3.710   5.329   0.428 -1.5368 -0.6581 -0.4637
 1273SOL     OW 4055   1.514   1.244   5.581 -0.4035 -0.3232  0.1026
 1273SOL    HW1 4056   1.419   1.251   5.587 -0.4218 -0.8035  0.3534
 1273SOL    HW2 4057   1.532   1.243   5.487 -0.5504  0.9680  0.0387
 1274SOL     OW 4058   3.236   0.238   0.059 -0.3496  0.2840  0.2138
 1274SOL    HW1 4059   3.282   0.170   0.108  0.4643 -0.2321 -1.2019
 1274SOL    HW2 4060   3.298   0.311   0.056  0.1910 -0.2039 -1.2076
 1275SOL     OW 4061   0.143   1.294   0.352 -0.0996  0.2921 -0.0865
 1275SOL    HW1 4062   0.128   1.388   0.361  2.0014  0.6134  0.7011
 1275SOL    HW2 4063   0.130   1.277   0.259 -1.3280  1.1871 -0.1014
 1276SOL     OW 4064   5.580   1.368   4.470 -0.5553  0.5809  0.1817
 1276SOL    HW1 4065   5.634   1.445   4.450 -0.6695  0.9426  1.1918
 1276SOL    HW2 4066   5.504   1.377   4.413 -0.2648  0.8851 -0.1656
 1277SOL     OW 4067   5.832   3.902   0.704  0.0686  0.1315  0.8112
 1277SOL    HW1 4068   5.784   3.976   0.668  1.1432  1.1939  1.4703
 1277SOL    HW2 4069   5.863   3.854   0.628 -1.0793  0.0515  0.3779
 1278SOL     OW 4070   1.533   2.888   4.249 -0.2535  0.2795 -0.5472
 1278SOL    HW1 4071   1.474   2.813   4.245 -0.2634  0.2122  0.5252
 1278SOL    HW2 4072   1.496   2.943   4.319  0.5671  0.5624 -0.3251
 1279SOL     OW 4073   0.557   5.622   1.675  0.1125 -0.1125  0.1252
 1279SOL    HW1 4074   0.531   5.676   1.601  3.0070  2.4161  0.7479
 1279SOL    HW2 4075   0.537   5.675   1.752  0.9126 -0.9131  0.9138
 1280SOL     OW 4076   3.166   0.955   2.265  0.0851 -0.0652 -0.0217
 1280SOL    HW1 4077   3.153   1.001   2.348  0.8210 -0.2153  0.1819
 1280SOL    HW2 4078   3.123   0.871   2.277 -1.7727  0.7557 -0.5951
 1281SOL     OW 4079   2.897   5.943   1.359 -0.3032  0.4106  0.0978
 1281SOL    HW1 4080   2.819   5.902   1.397 -0.6633 -0.9198 -1.9409
 1281SOL    HW2 4081   2.956   5.955   1.434 -1.7623 -0.1746  1.4003
 1282SOL     OW 4082   4.683   0.041   1.051  0.6172  0.5301  0.2350
 1282SOL    HW1 4083   4.605   0.019   1.101  0.6095  2.1244  1.0028
 1282SOL    HW2 4084   4.652   0.102   0.983  1.0440  0.4517 -0.0355
 1283SOL     OW 4085   5.877   2.381   3.442 -0.7000 -0.3100 -1.0085
 1283SOL    HW1 4086   5.840   2.415   3.360 -0.9648 -1.1067 -1.2218
 1283SOL    HW2 4087   5.837   2.295   3.454  2.2353 -1.9970 -2.1246
 1284SOL     OW 4088   4.931   5.038   0.998 -0.0614  0.2284 -0.2267
 1284SOL    HW1 4089   4.922   4.977   1.071  2.5933  0.6419  0.5311
 1284SOL    HW2 4090   4.851   5.091   1.002 -0.8759 -1.0160  1.1347
 1285SOL     OW 4091   0.728   6.014   2.128 -0.2432 -0.0494 -0.1129
 1285SOL    HW1 4092   0.633   6.003   2.118  0.0817 -2.6367 -1.3992
 1285SOL    HW2 4093   0.751   5.957   2.201  0.3629  0.1786 -0.1233
 1286SOL     OW 4094   5.819   2.646   3.084 -0.4229  0.0961 -0.2216
 1286SOL    HW1 4095   5.863   2.659   3.000 -1.4725  1.1402 -0.6394
 1286SOL    HW2 4096   5.794   2.554   3.084  0.2431 -0.0956 -0.7213
 1287SOL     OW 4097   4.139   3.126   3.940 -0.2982 -0.2155 -0.3443
 1287SOL    HW1 4098   4.142   3.218   3.967 -0.5149 -0.1812 -0.4326
 1287SOL    HW2 4099   4.201   3.120   3.867 -1.2494  0.1531 -1.1955
 1288SOL     OW 4100   3.085   2.683   2.041  0.5248 -0.3233 -0.3983
 1288SOL    HW1 4101   3.153   2.723   2.095  0.4609 -0.9861  0.1837
 1288SOL    HW2 4102   3.003   2.710   2.081  0.4815 -1.0421  0.0061
 1289SOL     OW 4103   3.029   2.271   3.451  0.0920 -0.1425  0.3848
 1289SOL    HW1 4104   2.975   2.233   3.382 -0.4414 -0.8051  1.1425
 1289SOL    HW2 4105   2.995   2.360   3.462  0.5939  0.1907 -0.6135
 1290SOL     OW 4106   1.539   5.221   2.542  0.2952 -0.6039  0.1820
 1290SOL    HW1 4107   1.501   5.193   2.459 -1.1053 -0.3233  0.7067
 1290SOL    HW2 4108   1.529   5.316   2.542 -0.7557 -0.6865  1.1319
 1291SOL     OW 4109   4.727   4.188   3.086  0.3537  0.3073 -0.0680
 1291SOL    HW1 4110   4.785   4.125   3.044  0.4453 -1.5398  2.6067
 1291SOL    HW2 4111   4.649   4.190   3.029  0.3226 -2.3066 -0.2592
 1292SOL     OW 4112   0.069   4.221   0.236  0.1189 -0.0248  0.0562
 1292SOL    HW1 4113   0.005   4.235   0.166 -1.1438 -3.3564  0.3686
 1292SOL    HW2 4114   0.142   4.177   0.194  0.3268 -0.0880  0.4756
 1293SOL     OW 4115   3.024   4.196   0.609 -0.3094 -0.1128 -0.0590
 1293SOL    HW1 4116   3.107   4.210   0.654 -0.2512  2.7430 -0.8596
 1293SOL    HW2 4117   3.002   4.104   0.626  2.2990 -0.5669  1.3093
 1294SOL     OW 4118   2.486   4.898   0.369  0.4317 -0.3227  0.4055
 1294SOL    HW1 4119   2.541   4.845   0.427 -0.9830 -0.4209  1.6948
 1294SOL    HW2 4120   2.397   4.879   0.397 -0.1636  1.7106 -0.0260
 1295SOL     OW 4121   3.402   0.009   1.943  0.1119 -0.7502  0.1805
 1295SOL    HW1 4122   3.390   0.087   1.890  1.3790 -1.0069 -0.4992
 1295SOL    HW2 4123   3.397   0.041   2.034  0.3262  0.0588 -0.0888
 1296SOL     OW 4124   0.694   1.369   0.847 -0.2902  0.4656 -0.8759
 1296SOL    HW1 4125   0.770   1.322   0.883  0.0096  0.5336 -1.4098
 1296SOL    HW2 4126   0.620   1.336   0.897 -0.2006 -1.1733 -1.7305
 1297SOL     OW 4127   4.627   1.385   4.890 -0.1824 -0.3978 -0.0913
 1297SOL    HW1 4128   4.699   1.361   4.948  0.0851  1.4481  0.3979
 1297SOL    HW2 4129   4.618   1.310   4.830  0.2845 -1.8557  1.5843
 1298SOL     OW 4130   5.353   0.548   0.145  0.0266  0.7471 -0.2466
 1298SOL    HW1 4131   5.328   0.638   0.167  0.7232  1.2622 -1.4502
 1298SOL    HW2 4132   5.356   0.503   0.229  0.7861  2.1398  0.5136
 1299SOL     OW 4133   2.853   1.836   6.072 -0.1335 -0.2873  0.4269
 1299SOL    HW1 4134   2.861   1.930   6.063 -0.5545 -0.2287  0.6160
 1299SOL    HW2 4135   2.932   1.809   6.119 -1.4447  0.4246  3.3086
 1300SOL     OW 4136   4.612   5.777   1.869  0.0027 -0.4486  0.0193
 1300SOL    HW1 4137   4.673   5.850   1.867 -0.9505  0.3581 -2.3578
 1300SOL    HW2 4138   4.665   5.703   1.899  1.9419  0.4077 -1.0971
 1301SOL     OW 4139   4.283   2.559   0.080  0.1500  0.9649 -0.8279
 1301SOL    HW1 4140   4.372   2.575   0.047 -0.2780  1.5819 -1.7005
 1301SOL    HW2 4141   4.297   2.510   0.161  1.2512  0.1594 -1.4805
 1302SOL     OW 4142   3.721   1.840   2.228 -0.6287 -0.1989 -0.1837
 1302SOL    HW1 4143   3.712   1.841   2.323  1.3912 -0.5371  0.0656
 1302SOL    HW2 4144   3.748   1.750   2.207 -1.2182 -0.1752 -1.1107
 1303SOL     OW 4145   0.065   0.812   6.050  0.5233 -0.0689 -0.4150
 1303SOL    HW1 4146   0.032   0.732   6.010 -2.8268  0.4927  0.8835
 1303SOL    HW2 4147   0.046   0.880   5.986 -0.3460  0.1699  0.0750
 1304SOL     OW 4148   5.289   5.737   4.891  0.0949 -0.1414 -0.1562
 1304SOL    HW1 4149   5.244   5.665   4.935  1.1265 -1.1239 -0.6447
 1304SOL    HW2 4150   5.374   5.700   4.865  0.2920  0.9783 -1.2241
 1305SOL     OW 4151   2.725   2.277   2.351 -0.0835  0.1726  0.4700
 1305SOL    HW1 4152   2.794   2.212   2.339  0.3567  0.5144  1.0996
 1305SOL    HW2 4153   2.714   2.283   2.446 -0.9002  0.2080  0.3775
 1306SOL     OW 4154   4.368   1.657   2.167  0.2607 -0.3762  0.1558
 1306SOL    HW1 4155   4.377   1.725   2.234  0.4190  0.7308 -0.9332
 1306SOL    HW2 4156   4.343   1.578   2.215 -1.3356  0.7753  1.3276
 1307SOL     OW 4157   1.787   3.352   0.953 -0.0230 -0.4388 -0.2014
 1307SOL    HW1 4158   1.755   3.348   1.043  0.9231 -0.1816  0.1601
 1307SOL    HW2 4159   1.796   3.445   0.935  0.9343 -0.5025 -0.1279
 1308SOL     OW 4160   4.628   3.273   3.333 -0.1328 -0.1354 -0.2789
 1308SOL    HW1 4161   4.669   3.222   3.263 -2.3135  0.5273 -2.1485
 1308SOL    HW2 4162   4.643   3.221   3.413  2.5054 -0.8693 -1.1466
 1309SOL     OW 4163   5.558   4.128   1.064 -0.0560  1.1405  0.1869
 1309SOL    HW1 4164   5.593   4.067   1.129 -0.0764  1.3663  0.4101
 1309SOL    HW2 4165   5.568   4.082   0.981 -0.8017  0.5082  0.4364
 1310SOL     OW 4166   0.522   0.212   2.276  0.4883  0.1922  0.0071
 1310SOL    HW1 4167   0.551   0.123   2.291 -1.4490 -0.4745  0.1382
 1310SOL    HW2 4168   0.468   0.207   2.198 -0.0533  1.1439  0.3004
 1311SOL     OW 4169   5.783   2.214   3.902  0.2444  0.3805 -0.4326
 1311SOL    HW1 4170   5.824   2.153   3.841  0.1926  0.4847 -0.5736
 1311SOL    HW2 4171   5.723   2.265   3.848 -1.6861 -1.1777  0.0942
 1312SOL     OW 4172   1.428   2.439   1.376 -0.0954 -0.0088 -0.2997
 1312SOL    HW1 4173   1.502   2.497   1.354  0.0819 -0.9882 -2.5859
 1312SOL    HW2 4174   1.463   2.379   1.442  0.4449  0.9474  0.3124
 1313SOL     OW 4175   1.453   3.176   0.112 -0.2907 -0.4723 -0.7465
 1313SOL    HW1 4176   1.474   3.116   0.040  1.0979 -0.1419 -0.6469
 1313SOL    HW2 4177   1.367   3.147   0.142  0.2803 -2.3783 -0.7505
 1314SOL     OW 4178   4.331   5.518   5.864  0.0959  0.4819 -0.3315
 1314SOL    HW1 4179   4.386   5.485   5.792  0.4536  1.0357 -0.3179
 1314SOL    HW2 4180   4.247   5.537   5.823 -0.2928 -0.8983 -0.2495
 1315SOL     OW 4181   3.399   2.686   3.941 -0.1179 -0.0534 -0.6374
 1315SOL    HW1 4182   3.483   2.656   3.975 -0.1721  1.0143  0.4637
 1315SOL    HW2 4183   3.339   2.613   3.959  0.1295 -0.0046  0.4409
 1316SOL     OW 4184   3.631   3.121   2.124  0.1662  1.0487  0.1946
 1316SOL    HW1 4185   3.548   3.089   2.087  1.2016 -0.3331 -1.0820
 1316SOL    HW2 4186   3.643   3.068   2.203  0.5674  0.1167 -0.4684
 1317SOL     OW 4187   0.777   5.472   1.313  0.1185 -0.0738  0.2613
 1317SOL    HW1 4188   0.730   5.426   1.383  1.8212 -0.5974  1.1172
 1317SOL    HW2 4189   0.735   5.442   1.233 -1.2280 -0.2473  1.0002
 1318SOL     OW 4190   0.658   6.138   0.452 -0.0974 -0.1442 -0.3847
 1318SOL    HW1 4191   0.607   6.097   0.383 -0.6531  0.5818 -0.4112
 1318SOL    HW2 4192   0.594   6.160   0.520  0.1598  0.8616 -0.4635
 1319SOL     OW 4193   0.280   2.290   1.046 -0.4786 -0.2290 -0.1784
 1319SOL    HW1 4194   0.198   2.338   1.042 -1.2241 -1.5153 -1.0875
 1319SOL    HW2 4195   0.256   2.204   1.080  0.3448 -0.9063 -1.2368
 1320SOL     OW 4196   5.925   1.260   2.461  0.3158  0.0596 -0.6986
 1320SOL    HW1 4197   5.893   1.219   2.380 -2.7075 -0.9270  0.8252
 1320SOL    HW2 4198   5.852   1.313   2.492 -0.3693 -2.7727  3.3867
 1321SOL     OW 4199   4.490   1.570   5.861  0.0337 -0.9926 -0.3859
 1321SOL    HW1 4200   4.466   1.503   5.798 -1.0097  0.6320 -1.7844
 1321SOL    HW2 4201   4.408   1.611   5.887  0.6622 -0.0291  0.1780
 1322SOL     OW 4202   2.481   3.445   3.724 -0.4133 -0.0404  0.0660
 1322SOL    HW1 4203   2.551   3.470   3.663 -0.3838  0.6901  0.3906
 1322SOL    HW2 4204   2.489   3.349   3.731 -0.4778 -0.1523 -1.1431
 1323SOL     OW 4205   0.600   5.018   5.883  0.5501  0.0034 -0.6670
 1323SOL    HW1 4206   0.638   5.069   5.954 -1.6071 -0.3802  0.8641
 1323SOL    HW2 4207   0.642   4.932   5.890  1.4553  0.4297 -0.8345
 1324SOL     OW 4208   1.631   4.859   4.266 -0.2461 -0.1551  0.1047
 1324SOL    HW1 4209   1.557   4.836   4.209  0.1874 -1.8745  0.1968
 1324SOL    HW2 4210   1.687   4.914   4.211 -1.6067  1.2840  0.0648
 1325SOL     OW 4211   0.814   3.017   5.825  0.2865 -0.5140 -0.2625
 1325SOL    HW1 4212   0.807   2.938   5.877 -2.3761  1.4436  2.6924
 1325SOL    HW2 4213   0.741   3.013   5.764 -0.6336  0.1721  0.7615
 1326SOL     OW 4214   0.947   5.837   2.247 -0.0830 -0.1594 -0.1243
 1326SOL    HW1 4215   0.921   5.888   2.324 -0.0467  0.2400 -0.3772
 1326SOL    HW2 4216   1.041   5.822   2.260  0.3522  1.6213 -1.0751
 1327SOL     OW 4217   2.518   1.889   2.182 -0.3532  0.3207  0.2106
 1327SOL    HW1 4218   2.517   1.985   2.178  2.0667  0.5277  1.9500
 1327SOL    HW2 4219   2.455   1.867   2.250  1.4214  1.0291  2.2233
 1328SOL     OW 4220   3.301   0.288   4.302  0.3797 -0.6697  0.2797
 1328SOL    HW1 4221   3.217   0.242   4.293 -0.7950  1.3404  0.5510
 1328SOL    HW2 4222   3.358   0.224   4.345 -1.1608 -1.8872  0.6291
 1329SOL     OW 4223   4.847   1.936   4.141  0.1668  0.2319 -0.2712
 1329SOL    HW1 4224   4.829   1.944   4.047 -1.5510  0.1889  0.0195
 1329SOL    HW2 4225   4.762   1.916   4.180  0.5006  1.9983  1.5070
 1330SOL     OW 4226   1.137   0.476   0.687 -0.7134 -0.1028  0.5026
 1330SOL    HW1 4227   1.229   0.450   0.694  0.6952  3.7070 -0.9877
 1330SOL    HW2 4228   1.117   0.518   0.770 -0.4506  0.7010  0.1715
 1331SOL     OW 4229   2.890   4.842   0.168  0.3149  0.5821 -0.2142
 1331SOL    HW1 4230   2.927   4.901   0.234 -0.8508  1.0558  0.0339
 1331SOL    HW2 4231   2.799   4.869   0.160 -0.0162 -0.6200 -0.7432
 1332SOL     OW 4232   5.102   2.112   4.387 -0.5010 -0.1498  0.1750
 1332SOL    HW1 4233   5.165   2.152   4.447 -1.0595 -0.3224  0.8910
 1332SOL    HW2 4234   5.034   2.179   4.377 -0.8106 -0.4288  0.3830
 1333SOL     OW 4235   3.761   3.647   5.213 -0.0223  0.0123 -0.6333
 1333SOL    HW1 4236   3.751   3.553   5.198 -2.0216 -0.3516  2.1847
 1333SOL    HW2 4237   3.853   3.657   5.239 -0.2470 -1.5628  0.9932
 1334SOL     OW 4238   5.812   4.280   5.898  0.6494 -0.0608 -0.4617
 1334SOL    HW1 4239   5.797   4.193   5.863  2.4457 -1.0382  0.9880
 1334SOL    HW2 4240   5.905   4.280   5.923  0.5721  2.0963  0.0401
 1335SOL     OW 4241   1.963   2.522   2.776  0.4763  0.0170  0.3602
 1335SOL    HW1 4242   1.946   2.429   2.766 -1.4507  0.5009 -1.5923
 1335SOL    HW2 4243   1.892   2.554   2.833  0.1901  0.5307 -0.2686
 1336SOL     OW 4244   2.663   4.233   2.817 -0.6837  0.1011 -0.3100
 1336SOL    HW1 4245   2.671   4.297   2.746 -1.1064  0.7222  0.2009
 1336SOL    HW2 4246   2.580   4.252   2.858 -0.8139 -0.7801 -0.1386
 1337SOL     OW 4247   1.636   2.668   1.584  0.2048  0.0197  0.1612
 1337SOL    HW1 4248   1.679   2.622   1.513 -0.3852 -1.0463  0.4630
 1337SOL    HW2 4249   1.549   2.628   1.589  1.1438 -2.0343  3.2958
 1338SOL     OW 4250   3.306   1.743   3.796 -0.0034  0.0542 -0.0757
 1338SOL    HW1 4251   3.388   1.723   3.752  0.9596  1.0073  1.2179
 1338SOL    HW2 4252   3.325   1.733   3.889 -1.4308  0.0433  0.2457
 1339SOL     OW 4253   5.457   4.244   2.377  0.1246 -0.9374 -0.2790
 1339SOL    HW1 4254   5.552   4.251   2.374  0.1474  0.0341  1.4891
 1339SOL    HW2 4255   5.429   4.258   2.287  1.5965 -0.3207 -0.6624
 1340SOL     OW 4256   4.453   3.822   5.713 -0.5761  0.4077  0.0609
 1340SOL    HW1 4257   4.523   3.759   5.695 -2.1081 -1.0879 -0.9392
 1340SOL    HW2 4258   4.482   3.903   5.670  1.1964  0.2968  0.9416
 1341SOL     OW 4259   5.134   5.531   5.837 -0.2075 -0.3012 -0.5469
 1341SOL    HW1 4260   5.111   5.622   5.858 -0.2150 -0.4673  0.1791
 1341SOL    HW2 4261   5.124   5.484   5.920 -0.0422 -0.9342 -0.8837
 1342SOL     OW 4262   0.162   1.432   2.577 -0.1055  0.1510 -0.0102
 1342SOL    HW1 4263   0.119   1.390   2.503  0.0341  1.0893 -0.6390
 1342SOL    HW2 4264   0.218   1.498   2.538  1.7942 -0.9079  0.8121
 1343SOL     OW 4265   5.917   0.583   3.590 -0.1288 -0.2922 -0.1022
 1343SOL    HW1 4266   5.844   0.538   3.547 -1.0343 -0.2118  1.2630
 1343SOL    HW2 4267   5.894   0.676   3.585  0.1327 -0.2300 -0.1307
 1344SOL     OW 4268   4.718   4.255   4.633  0.6648 -0.1357  0.3384
 1344SOL    HW1 4269   4.740   4.251   4.726  0.7577  0.3264  0.3340
 1344SOL    HW2 4270   4.789   4.305   4.593  1.6646 -1.9361 -0.3021
 1345SOL     OW 4271   3.777   5.596   5.562 -0.2457  0.0308 -0.0562
 1345SOL    HW1 4272   3.796   5.523   5.621 -0.6594 -0.1911 -0.1908
 1345SOL    HW2 4273   3.773   5.673   5.619 -0.5172 -0.1609  0.1859
 1346SOL     OW 4274   4.298   2.089   5.672  0.5057 -0.0537  0.6967
 1346SOL    HW1 4275   4.217   2.105   5.719 -0.1817 -0.4168 -0.3308
 1346SOL    HW2 4276   4.293   2.146   5.596 -0.2465 -2.2665 -1.0197
 1347SOL     OW 4277   5.553   2.962   4.780  0.4234  0.2038 -0.3630
 1347SOL    HW1 4278   5.527   2.986   4.691  0.8212 -2.4172 -1.2627
 1347SOL    HW2 4279   5.506   2.881   4.798  1.3665 -0.0209  1.3154
 1348SOL     OW 4280   2.492   2.154   2.213  0.2120  0.1654  0.3364
 1348SOL    HW1 4281   2.568   2.207   2.239  0.6090 -0.5083  0.5883
 1348SOL    HW2 4282   2.433   2.157   2.289  0.4918 -0.1989  0.5794
 1349SOL     OW 4283   3.926   1.451   3.588  0.0183  0.2506 -0.1456
 1349SOL    HW1 4284   3.916   1.396   3.666 -1.9979  1.2239  0.3565
 1349SOL    HW2 4285   3.976   1.397   3.527  1.7519 -0.5207  1.8134
 1350SOL     OW 4286   4.290   6.127   4.450  0.1072  0.5996  0.3855
 1350SOL    HW1 4287   4.279   6.036   4.421 -0.8375  0.9208 -0.3074
 1350SOL    HW2 4288   4.272   6.125   4.544  1.2891 -0.1266  0.6200
 1351SOL     OW 4289   2.692   2.774   1.725 -0.2993  0.3522  0.2201
 1351SOL    HW1 4290   2.687   2.727   1.641 -0.5207  0.5469  0.1238
 1351SOL    HW2 4291   2.608   2.757   1.767  0.5459 -1.4450  1.3271
 1352SOL     OW 4292   0.210   1.830   5.223  0.0551  0.1070  0.0261
 1352SOL    HW1 4293   0.115   1.841   5.215  0.0260 -0.5310 -0.6709
 1352SOL    HW2 4294   0.220   1.755   5.282  0.1301  0.3534  0.3255
 1353SOL     OW 4295   5.768   4.333   4.261  0.8232 -0.0321  0.2910
 1353SOL    HW1 4296   5.749   4.427   4.264 -0.6399 -0.3113  2.3685
 1353SOL    HW2 4297   5.742   4.306   4.173 -0.2708  1.2344  0.1801
 1354SOL     OW 4298   1.580   1.193   1.174 -0.2066 -0.2695 -0.3723
 1354SOL    HW1 4299   1.608   1.260   1.236 -2.5124  0.4120  0.0209
 1354SOL    HW2 4300   1.563   1.242   1.093 -3.3248 -0.0056  0.3230
 1355SOL     OW 4301   3.449   4.817   2.809 -0.2924  0.2267  0.2102
 1355SOL    HW1 4302   3.543   4.830   2.820 -0.2305 -0.0369  0.0066
 1355SOL    HW2 4303   3.421   4.891   2.756  0.0727 -0.4798 -1.0220
 1356SOL     OW 4304   3.575   3.354   0.853  0.3827  0.0343  0.6444
 1356SOL    HW1 4305   3.620   3.419   0.908  0.4017 -0.9114  1.7855
 1356SOL    HW2 4306   3.637   3.281   0.847  0.1347 -0.1225 -0.1537
 1357SOL     OW 4307   3.460   5.905   1.828  0.5009 -0.0848 -0.0299
 1357SOL    HW1 4308   3.411   5.984   1.850  0.6838 -0.2680  1.1013
 1357SOL    HW2 4309   3.549   5.923   1.859  0.5305 -0.7490  0.2859
 1358SOL     OW 4310   2.622   6.101   5.783  0.5664  0.0290 -0.3627
 1358SOL    HW1 4311   2.706   6.064   5.757  1.1904  0.6521  0.7159
 1358SOL    HW2 4312   2.642   6.158   5.857 -0.7129  0.6915 -0.4914
 1359SOL     OW 4313   3.655   1.167   4.885 -0.4502  0.0933 -0.2596
 1359SOL    HW1 4314   3.638   1.180   4.979  1.3859  0.9959 -0.0158
 1359SOL    HW2 4315   3.569   1.182   4.844 -1.1029  0.5820  1.1867
 1360SOL     OW 4316   2.345   2.816   5.414  0.3714  0.2162  0.3453
 1360SOL    HW1 4317   2.415   2.868   5.373  0.3815 -0.0624  0.0072
 1360SOL    HW2 4318   2.322   2.751   5.348 -1.6078  1.5400 -0.3634
 1361SOL     OW 4319   5.870   5.019   5.235 -0.3651  0.4904 -0.3515
 1361SOL    HW1 4320   5.917   4.972   5.166  0.3964 -3.2129  2.3738
 1361SOL    HW2 4321   5.928   5.092   5.257 -0.5170  1.6437 -3.2469
 1362SOL     OW 4322   2.620   0.705   1.484 -0.1121  0.1387 -0.1705
 1362SOL    HW1 4323   2.640   0.761   1.558  0.4603 -0.9263  0.5064
 1362SOL    HW2 4324   2.554   0.753   1.434 -0.0307  1.1528  0.6742
 1363SOL     OW 4325   1.073   0.728   4.431 -0.3587 -0.0704  0.2343
 1363SOL    HW1 4326   1.100   0.756   4.518  0.3666  0.6885 -0.2283
 1363SOL    HW2 4327   1.135   0.769   4.371 -1.6845  0.5930 -0.7524
 1364SOL     OW 4328   5.139   1.956   2.615 -0.5403  0.2583 -0.3562
 1364SOL    HW1 4329   5.222   1.916   2.586  0.0521  1.1116  0.1168
 1364SOL    HW2 4330   5.125   2.029   2.555 -0.4143  0.7362  0.1876
 1365SOL     OW 4331   1.270   0.754   4.650 -0.3287 -0.3877 -1.0820
 1365SOL    HW1 4332   1.357   0.716   4.665 -0.0339  0.7310  0.2698
 1365SOL    HW2 4333   1.233   0.762   4.738 -0.4835  2.1308 -1.3149
 1366SOL     OW 4334   4.557   4.847   5.862  0.2914  0.4294 -0.0979
 1366SOL    HW1 4335   4.631   4.789   5.842  0.0705  0.6811 -1.7625
 1366SOL    HW2 4336   4.596   4.933   5.877  0.3791  0.4483 -0.4387
 1367SOL     OW 4337   1.952   0.922   5.340 -0.1958  0.5253 -0.0547
 1367SOL    HW1 4338   2.000   0.855   5.291 -2.5030 -1.4769  0.2239
 1367SOL    HW2 4339   2.002   0.934   5.420  1.0850  0.3280 -0.7984
 1368SOL     OW 4340   2.771   0.494   6.003  0.1127  0.1882 -0.1512
 1368SOL    HW1 4341   2.815   0.518   6.084 -1.9598 -0.0116  1.0893
 1368SOL    HW2 4342   2.752   0.401   6.013 -0.2688  0.1899 -0.8332
 1369SOL     OW 4343   5.898   0.616   6.000 -0.2670 -0.1381 -0.8555
 1369SOL    HW1 4344   5.984   0.635   5.963  1.3686 -0.9226  2.1573
 1369SOL    HW2 4345   5.853   0.700   6.001  2.0552  1.2212  1.0269
 1370SOL     OW 4346   0.763   2.241   3.843  0.3075  0.1065  0.3281
 1370SOL    HW1 4347   0.706   2.177   3.801  1.1789  0.1783 -1.0442
 1370SOL    HW2 4348   0.830   2.189   3.888 -0.9747  0.0131  2.2372
 1371SOL     OW 4349   1.857   1.551   5.601 -0.0601  0.6273 -0.2419
 1371SOL    HW1 4350   1.836   1.460   5.581 -0.8204  0.3886  1.5144
 1371SOL    HW2 4351   1.953   1.551   5.612 -0.2429 -0.5167  2.0737
 1372SOL     OW 4352   5.429   0.248   0.299  0.0951 -0.3041  0.4394
 1372SOL    HW1 4353   5.348   0.202   0.319  0.7678 -1.5690  0.3338
 1372SOL    HW2 4354   5.462   0.206   0.219 -0.2587  1.6737 -0.8243
 1373SOL     OW 4355   3.279   6.125   0.547  0.1718 -0.0646 -0.0149
 1373SOL    HW1 4356   3.261   6.175   0.627  0.5173  1.6582 -0.9466
 1373SOL    HW2 4357   3.198   6.078   0.530 -0.1900  0.1910  0.8966
 1374SOL     OW 4358   3.317   4.371   1.401 -0.2664  0.2185 -0.2051
 1374SOL    HW1 4359   3.379   4.400   1.468  0.1817 -2.7601  0.7867
 1374SOL    HW2 4360   3.237   4.420   1.421  0.2587  0.3736  1.6969
 1375SOL     OW 4361   0.508   0.458   3.362 -0.5010  0.2242  0.2637
 1375SOL    HW1 4362   0.450   0.532   3.380  0.0558  1.2781 -1.9985
 1375SOL    HW2 4363   0.457   0.401   3.304 -0.5640 -0.7021  1.2026
 1376SOL     OW 4364   2.553   0.421   5.657 -0.5828  0.4386  0.2292
 1376SOL    HW1 4365   2.630   0.450   5.608 -0.6626 -0.4555 -0.4330
 1376SOL    HW2 4366   2.569   0.452   5.746  0.3465  0.6245  0.0089
 1377SOL     OW 4367   2.642   4.963   0.099 -0.0938 -0.2453 -0.1553
 1377SOL    HW1 4368   2.652   5.056   0.120 -1.5827  0.4921 -2.3738
 1377SOL    HW2 4369   2.599   4.926   0.177  0.7246  0.8432  0.8529
 1378SOL     OW 4370   3.231   4.506   2.322 -0.0639 -0.6052  0.3881
 1378SOL    HW1 4371   3.147   4.460   2.315 -0.5739  0.2220  0.8810
 1378SOL    HW2 4372   3.222   4.580   2.261 -0.0439 -0.0010  1.1087
 1379SOL     OW 4373   4.597   3.767   5.311 -0.1624 -0.0488  0.0482
 1379SOL    HW1 4374   4.595   3.733   5.221 -1.2466 -0.7049  0.3000
 1379SOL    HW2 4375   4.562   3.695   5.364  1.5663 -0.1186  1.1611
 1380SOL     OW 4376   4.270   3.094   0.097 -0.1367 -0.4677 -0.6240
 1380SOL    HW1 4377   4.176   3.113   0.107 -0.2031 -0.4528 -1.2125
 1380SOL    HW2 4378   4.297   3.151   0.025  0.6768  0.6866  0.5578
 1381SOL     OW 4379   3.779   1.605   4.687  0.7812 -0.7344  0.5562
 1381SOL    HW1 4380   3.748   1.623   4.776  0.3768  1.0252  0.0864
 1381SOL    HW2 4381   3.863   1.651   4.681  0.7384 -0.7277 -0.0175
 1382SOL     OW 4382   5.917   3.841   2.027 -0.8395  0.4957 -0.2137
 1382SOL    HW1 4383   6.013   3.838   2.031 -0.8677 -0.5573  3.7304
 1382SOL    HW2 4384   5.894   3.775   1.962  1.1217 -1.4957  0.9792
 1383SOL     OW 4385   1.569   5.556   1.406  0.1831  0.2715  0.3992
 1383SOL    HW1 4386   1.500   5.497   1.437 -0.9386  1.5420  0.4202
 1383SOL    HW2 4387   1.553   5.638   1.453  1.5374  0.6902  0.1714
 1384SOL     OW 4388   1.513   0.581   1.113 -0.1518 -0.6561  0.1302
 1384SOL    HW1 4389   1.500   0.591   1.019 -0.5493 -0.3504  0.2155
 1384SOL    HW2 4390   1.426   0.593   1.150 -0.4680 -3.0174  0.3569
 1385SOL     OW 4391   2.416   0.424   0.621  0.9008  0.1692 -0.8617
 1385SOL    HW1 4392   2.364   0.373   0.684  1.4121 -0.2968 -0.8089
 1385SOL    HW2 4393   2.448   0.359   0.559  0.9604  0.5343 -1.2139
 1386SOL     OW 4394   0.751   6.118   2.721  0.3821  0.0420  0.2678
 1386SOL    HW1 4395   0.797   6.194   2.757 -1.0400  1.6634 -1.1469
 1386SOL    HW2 4396   0.662   6.150   2.703  0.5920 -0.9064 -3.4145
 1387SOL     OW 4397   4.220   5.148   5.891 -0.2195  0.1445 -0.5631
 1387SOL    HW1 4398   4.192   5.151   5.799 -0.5239 -1.3995 -0.5363
 1387SOL    HW2 4399   4.208   5.057   5.917 -0.8152  0.7099  1.2331
 1388SOL     OW 4400   0.639   5.013   2.692  0.2303 -0.3060  0.1872
 1388SOL    HW1 4401   0.604   4.943   2.747 -1.3017 -0.7871 -1.3298
 1388SOL    HW2 4402   0.645   4.974   2.605  1.6122  0.7561 -0.2311
 1389SOL     OW 4403   4.258   1.228   3.055 -0.0124 -0.2666  0.2929
 1389SOL    HW1 4404   4.340   1.179   3.053  1.0976  1.5072 -0.6650
 1389SOL    HW2 4405   4.275   1.305   3.000 -1.5063  1.3919  1.9887
 1390SOL     OW 4406   4.501   3.022   2.461 -0.4667 -0.8812  0.0813
 1390SOL    HW1 4407   4.582   2.998   2.416  0.3779  2.2123 -0.2669
 1390SOL    HW2 4408   4.438   3.037   2.390 -0.5257 -0.5918  0.1950
 1391SOL     OW 4409   0.308   2.740   2.060  0.8854  0.1454  0.6636
 1391SOL    HW1 4410   0.264   2.716   2.141  1.3734 -0.4417  0.7667
 1391SOL    HW2 4411   0.355   2.821   2.080  0.4929  0.3458  0.7786
 1392SOL     OW 4412   1.391   6.091   0.777 -0.4697 -0.0037  0.0586
 1392SOL    HW1 4413   1.304   6.097   0.818 -0.1998  0.7642  0.5307
 1392SOL    HW2 4414   1.377   6.118   0.687 -0.6731  0.4100  0.2116
 1393SOL     OW 4415   5.799   0.661   3.927  0.2959  0.0889 -0.4527
 1393SOL    HW1 4416   5.723   0.656   3.869  0.1978  1.3905 -0.4733
 1393SOL    HW2 4417   5.770   0.618   4.008 -0.8404  1.4489 -0.0975
 1394SOL     OW 4418   4.321   1.643   0.924 -0.0445  0.4698  0.1308
 1394SOL    HW1 4419   4.281   1.670   0.841 -1.9418  0.0868  0.8650
 1394SOL    HW2 4420   4.329   1.548   0.916 -0.8207  0.3599  0.6199
 1395SOL     OW 4421   0.139   4.610   2.374  0.1675  0.7083  0.2284
 1395SOL    HW1 4422   0.058   4.653   2.402 -1.1039 -1.4937  0.2005
 1395SOL    HW2 4423   0.112   4.552   2.303  1.5408 -0.9047  0.9499
 1396SOL     OW 4424   5.906   5.426   2.746  0.3244  0.1737 -0.5445
 1396SOL    HW1 4425   5.880   5.397   2.659 -0.5144 -0.3147 -0.1494
 1396SOL    HW2 4426   5.833   5.400   2.803  0.9559  0.2715  0.3405
 1397SOL     OW 4427   1.770   1.281   4.531  0.1696  0.0643  0.2516
 1397SOL    HW1 4428   1.813   1.232   4.602 -3.0232 -0.9137  1.6957
 1397SOL    HW2 4429   1.728   1.355   4.574  1.2626  1.6377 -1.2688
 1398SOL     OW 4430   4.678   4.988   4.742  0.2771 -0.2877  0.0060
 1398SOL    HW1 4431   4.597   4.947   4.713  0.2592  0.2498 -0.7256
 1398SOL    HW2 4432   4.651   5.045   4.815  0.0333 -0.2683 -0.0980
 1399SOL     OW 4433   6.002   1.560   1.115  0.5915 -0.1017 -0.6182
 1399SOL    HW1 4434   5.935   1.522   1.172 -0.0855 -0.2597 -1.4960
 1399SOL    HW2 4435   6.052   1.484   1.084 -0.3052 -0.2344 -1.7997
 1400SOL     OW 4436   5.212   5.359   4.421 -0.0389 -0.0117 -0.1040
 1400SOL    HW1 4437   5.215   5.453   4.402  0.5103 -0.3961 -2.1549
 1400SOL    HW2 4438   5.299   5.328   4.400  0.1618 -0.8162  1.7684
 1401SOL     OW 4439   4.722   2.957   3.153 -0.2642 -0.4006  0.1451
 1401SOL    HW1 4440   4.709   2.919   3.066 -0.7786  0.5919 -0.2315
 1401SOL    HW2 4441   4.638   2.998   3.174  0.0724 -0.0305  0.8085
 1402SOL     OW 4442   1.776   0.617   4.267  0.3198  0.0478  0.3431
 1402SOL    HW1 4443   1.682   0.601   4.273  0.1653  0.0474 -1.6038
 1402SOL    HW2 4444   1.786   0.709   4.293 -0.5331  0.7140 -1.5267
 1403SOL     OW 4445   2.976   1.684   1.419  0.0399 -0.1460 -0.5556
 1403SOL    HW1 4446   3.014   1.722   1.499 -0.8552 -2.6869  1.2148
 1403SOL    HW2 4447   2.881   1.690   1.433 -0.1579  0.2364 -1.9191
 1404SOL     OW 4448   0.821   1.408   3.400  0.4514  0.6630  0.0146
 1404SOL    HW1 4449   0.889   1.461   3.441  1.3611 -0.5385  0.1122
 1404SOL    HW2 4450   0.862   1.372   3.322  0.0014 -0.2483  0.1809
 1405SOL     OW 4451   0.757   2.438   5.720 -0.3554  0.2206 -0.0744
 1405SOL    HW1 4452   0.662   2.441   5.732 -0.5551 -1.5425 -0.9110
 1405SOL    HW2 4453   0.788   2.381   5.790  0.3189  2.1067  1.2130
 1406SOL     OW 4454   1.684   1.441   0.294  0.5222  0.4654 -0.3319
 1406SOL    HW1 4455   1.742   1.517   0.290 -0.2300  1.0205 -1.2464
 1406SOL    HW2 4456   1.693   1.399   0.209 -1.6507  1.5586 -1.1920
 1407SOL     OW 4457   0.380   2.837   2.755 -0.5202 -0.7240  0.5010
 1407SOL    HW1 4458   0.412   2.778   2.687 -1.3645  0.1322 -0.6624
 1407SOL    HW2 4459   0.298   2.872   2.720 -1.2500 -0.6544  2.1783
 1408SOL     OW 4460   4.633   1.975   0.239  0.3551  0.2950 -0.5379
 1408SOL    HW1 4461   4.672   2.009   0.158  2.1548  1.1201  0.6062
 1408SOL    HW2 4462   4.676   1.890   0.252 -0.1272  0.0428 -0.5824
 1409SOL     OW 4463   1.210   2.628   0.230 -0.1453 -0.3007 -0.0653
 1409SOL    HW1 4464   1.121   2.607   0.258 -0.0080 -0.5331  0.2043
 1409SOL    HW2 4465   1.206   2.623   0.134 -0.5556  0.2580 -0.0787
 1410SOL     OW 4466   0.930   3.126   5.309 -0.6137  0.3030 -0.2203
 1410SOL    HW1 4467   1.012   3.107   5.264 -0.9336 -0.8986 -0.3283
 1410SOL    HW2 4468   0.870   3.151   5.238 -0.3761  1.1291 -0.1465
 1411SOL     OW 4469   2.440   3.730   1.857 -0.5149 -1.0006 -0.0092
 1411SOL    HW1 4470   2.357   3.685   1.876 -0.4840 -0.7443  0.7488
 1411SOL    HW2 4471   2.416   3.798   1.795 -1.1062 -0.1525  1.1071
 1412SOL     OW 4472   2.359   6.025   2.425  0.0232  0.3161 -0.3128
 1412SOL    HW1 4473   2.341   5.934   2.402  0.8422  0.1693 -0.4022
 1412SOL    HW2 4474   2.275   6.059   2.456  0.2267 -1.1952  2.1843
 1413SOL     OW 4475   4.499   5.038   4.015 -0.1195 -0.3658 -0.1633
 1413SOL    HW1 4476   4.553   4.974   4.062  0.4873  0.4690  0.2942
 1413SOL    HW2 4477   4.514   5.121   4.060  0.4198  0.4561 -1.7672
 1414SOL     OW 4478   5.440   3.966   5.736 -0.0943  0.4122 -0.0587
 1414SOL    HW1 4479   5.399   3.887   5.770 -0.1505 -0.0023 -1.0789
 1414SOL    HW2 4480   5.451   3.951   5.642 -1.3233  2.1278 -0.5355
 1415SOL     OW 4481   4.157   2.803   4.256  0.6832  0.6187 -0.0109
 1415SOL    HW1 4482   4.071   2.762   4.244 -0.7108  2.6751  2.0320
 1415SOL    HW2 4483   4.171   2.852   4.175 -1.9519  3.2437  0.9233
 1416SOL     OW 4484   5.563   3.871   6.021 -0.5769 -0.3373  0.3564
 1416SOL    HW1 4485   5.620   3.905   6.090 -2.0826  1.1878  0.9126
 1416SOL    HW2 4486   5.534   3.948   5.973 -1.7451 -1.1185 -0.2398
 1417SOL     OW 4487   0.217   0.067   0.235  0.1710  0.0906  0.0788
 1417SOL    HW1 4488   0.198   0.000   0.169  2.7659 -0.0884 -0.6010
 1417SOL    HW2 4489   0.207   0.150   0.189  0.3205  0.0289 -0.0653
 1418SOL     OW 4490   2.990   6.107   1.982 -0.0053 -0.0457  0.5887
 1418SOL    HW1 4491   2.905   6.065   1.965 -0.3286  0.1521  1.6226
 1418SOL    HW2 4492   3.010   6.153   1.901 -0.0558 -1.4750 -0.2804
 1419SOL     OW 4493   5.654   4.977   1.255  0.3185 -0.1893 -0.1901
 1419SOL    HW1 4494   5.701   5.060   1.254  0.3181 -0.1865  0.1388
 1419SOL    HW2 4495   5.702   4.921   1.194 -0.8666  0.7123 -2.0394
 1420SOL     OW 4496   0.466   2.957   2.143  0.4531  0.4891  0.4069
 1420SOL    HW1 4497   0.490   3.048   2.157 -3.3675  1.8857 -0.8014
 1420SOL    HW2 4498   0.451   2.922   2.231 -0.2194  1.7423  0.8040
 1421SOL     OW 4499   2.265   0.496   0.087  0.0315  0.2136 -0.3950
 1421SOL    HW1 4500   2.244   0.462  -0.000  1.0089  1.4501 -1.1573
 1421SOL    HW2 4501   2.329   0.435   0.122  0.0310 -0.0083 -0.7749
 1422SOL     OW 4502   3.812   3.679   5.822  0.0976  0.5852  0.3305
 1422SOL    HW1 4503   3.808   3.761   5.872  1.3712  0.2860  0.9750
 1422SOL    HW2 4504   3.785   3.612   5.885  0.7434  0.3228  0.3382
 1423SOL     OW 4505   6.119   6.150   5.711  0.2230  0.0086  0.0825
 1423SOL    HW1 4506   6.136   6.242   5.695  1.0204 -0.5195 -2.6687
 1423SOL    HW2 4507   6.131   6.138   5.805  0.3695  2.6196  0.4425
 1424SOL     OW 4508   5.894   4.239   4.817  0.1505 -0.3769  0.0754
 1424SOL    HW1 4509   5.844   4.181   4.875 -1.0182 -0.4524 -0.9586
 1424SOL    HW2 4510   5.926   4.181   4.748 -0.6103  0.1082 -0.7008
 1425SOL     OW 4511   2.847   1.374   1.400  0.2940 -0.3598 -0.3336
 1425SOL    HW1 4512   2.763   1.349   1.362 -0.5323 -0.6395  1.5626
 1425SOL    HW2 4513   2.871   1.454   1.353 -1.6282  0.4112 -0.1238
 1426SOL     OW 4514   2.790   0.892   5.363  0.3318 -0.3175  0.0612
 1426SOL    HW1 4515   2.767   0.943   5.285 -0.1076  1.7185  1.4277
 1426SOL    HW2 4516   2.805   0.959   5.430  0.3116 -2.0263  1.8260
 1427SOL     OW 4517   3.796   2.129   1.945  0.1046 -0.2962  0.0041
 1427SOL    HW1 4518   3.756   2.205   1.987 -1.3593 -0.4676 -1.0022
 1427SOL    HW2 4519   3.725   2.065   1.940  0.2690 -0.3849 -2.4384
 1428SOL     OW 4520   2.411   0.602   5.248 -0.6008  0.4652 -0.2734
 1428SOL    HW1 4521   2.461   0.582   5.327 -3.2802 -0.1944  1.3692
 1428SOL    HW2 4522   2.404   0.697   5.248  2.5866  0.8470 -1.9186
 1429SOL     OW 4523   2.321   0.280   5.554 -0.5795  0.6821 -0.1949
 1429SOL    HW1 4524   2.400   0.315   5.596  0.7123 -0.4098 -1.6314
 1429SOL    HW2 4525   2.249   0.323   5.600  0.8199  1.2760  1.5537
 1430SOL     OW 4526   0.136   5.599   3.508  0.1162 -0.3285  0.5589
 1430SOL    HW1 4527   0.087   5.563   3.582  0.5790  1.2499  1.6705
 1430SOL    HW2 4528   0.070   5.648   3.457  0.1297  0.0414  0.8947
 1431SOL     OW 4529   2.479   4.791   1.765 -0.0753 -0.7799  0.0517
 1431SOL    HW1 4530   2.503   4.797   1.672 -1.9818  0.7176 -0.4082
 1431SOL    HW2 4531   2.512   4.705   1.792  0.8286 -1.1189 -1.9055
 1432SOL     OW 4532   2.253   0.279   0.839  0.1239 -0.1745  0.1281
 1432SOL    HW1 4533   2.158   0.271   0.849  0.2608 -2.2685  0.2518
 1432SOL    HW2 4534   2.282   0.332   0.913 -0.6361 -2.0819  1.8598
 1433SOL     OW 4535   2.354   2.042   2.700  0.8111 -0.2056  0.4510
 1433SOL    HW1 4536   2.346   2.049   2.605 -0.3497  0.3105  0.5732
 1433SOL    HW2 4537   2.403   2.120   2.726 -0.2493  0.5024  0.4153
 1434SOL     OW 4538   5.631   0.921   5.591  0.0557  0.2153 -0.0436
 1434SOL    HW1 4539   5.636   0.878   5.677  3.0979  1.1870  0.3941
 1434SOL    HW2 4540   5.540   0.912   5.565 -0.9913 -0.1393  3.2835
 1435SOL     OW 4541   1.822   2.525   0.256 -0.4206 -0.3667 -0.3937
 1435SOL    HW1 4542   1.810   2.531   0.351 -4.3371 -0.6902 -0.7113
 1435SOL    HW2 4543   1.799   2.435   0.234 -2.0559  0.3586 -1.8594
 1436SOL     OW 4544   1.412   4.094   3.579 -0.0730  0.2877 -0.1855
 1436SOL    HW1 4545   1.499   4.135   3.587  0.0848  0.0765 -0.7670
 1436SOL    HW2 4546   1.431   4.001   3.567 -0.4031  0.1586  0.3174
 1437SOL     OW 4547   2.971   3.031   2.100  0.1611 -0.0714  0.0815
 1437SOL    HW1 4548   3.061   3.041   2.069  0.1610 -1.4320 -0.4167
 1437SOL    HW2 4549   2.926   2.984   2.030 -0.7812  0.0471  0.5916
 1438SOL     OW 4550   1.223   5.301   2.118 -0.7958 -0.1671 -0.3376
 1438SOL    HW1 4551   1.140   5.254   2.109 -1.3279  0.0881  2.3090
 1438SOL    HW2 4552   1.267   5.256   2.190  0.3288  1.1075 -0.1984
 1439SOL     OW 4553   3.927   2.524   4.853 -0.1280  0.3956 -0.5912
 1439SOL    HW1 4554   3.949   2.518   4.946  1.4693 -1.0017 -1.0222
 1439SOL    HW2 4555   3.834   2.547   4.852 -0.5707 -1.0599  1.3492
 1440SOL     OW 4556   0.387   1.626   0.433  0.2309  0.0308  0.0919
 1440SOL    HW1 4557   0.323   1.658   0.370 -0.4962 -1.6874 -0.1018
 1440SOL    HW2 4558   0.358   1.661   0.517 -1.1306 -0.8981  0.0413
 1441SOL     OW 4559   1.862   4.504   1.898  0.2250 -0.3208 -0.0109
 1441SOL    HW1 4560   1.877   4.429   1.840 -1.1554  0.1508 -1.0371
 1441SOL    HW2 4561   1.861   4.467   1.986 -1.3587 -1.6832 -0.5589
 1442SOL     OW 4562   5.449   1.315   3.358  0.4651  0.2189 -0.0450
 1442SOL    HW1 4563   5.517   1.249   3.347  0.9216  0.9276 -1.7396
 1442SOL    HW2 4564   5.402   1.315   3.275 -0.6344  0.8377  0.5509
 1443SOL     OW 4565   4.863   5.346   0.786  0.2512 -0.2441  0.1774
 1443SOL    HW1 4566   4.943   5.295   0.772  0.9663  0.8555  0.0646
 1443SOL    HW2 4567   4.873   5.421   0.727 -1.1707 -0.3978 -0.2990
 1444SOL     OW 4568   3.959   0.388   3.355 -0.0854  0.3120  0.3231
 1444SOL    HW1 4569   4.009   0.470   3.358 -1.4134  1.1235  0.9505
 1444SOL    HW2 4570   3.946   0.365   3.447 -1.4595  0.4973  0.1947
 1445SOL     OW 4571   1.566   0.074   2.168 -0.0963 -0.1620  0.8274
 1445SOL    HW1 4572   1.497   0.120   2.215 -0.7763  0.0229 -0.3169
 1445SOL    HW2 4573   1.532   0.064   2.079  0.7076 -1.4430  0.6373
 1446SOL     OW 4574   5.914   5.931   1.476 -0.1368  0.2786 -0.5869
 1446SOL    HW1 4575   5.946   5.888   1.396  0.9117 -1.0498  0.5090
 1446SOL    HW2 4576   5.966   6.010   1.483  1.7751 -0.9839  0.2218
 1447SOL     OW 4577   3.054   2.470   5.391  0.2902  0.0983  0.5330
 1447SOL    HW1 4578   3.145   2.445   5.373  0.3091 -0.2851  1.1361
 1447SOL    HW2 4579   3.026   2.411   5.460 -0.2832  0.5005  0.6546
 1448SOL     OW 4580   4.068   4.408   2.210  0.2705  0.1467 -0.4388
 1448SOL    HW1 4581   3.986   4.410   2.161 -0.8350 -1.2157  1.2595
 1448SOL    HW2 4582   4.084   4.315   2.227  0.9326  0.5395  1.2452
 1449SOL     OW 4583   4.136   5.353   0.805  0.3375 -0.0245 -0.0078
 1449SOL    HW1 4584   4.083   5.391   0.875  1.8188  0.2840  0.9846
 1449SOL    HW2 4585   4.226   5.376   0.827  0.8701 -0.0894 -1.9196
 1450SOL     OW 4586   0.041   5.149   1.614 -0.1941 -0.2101  0.1621
 1450SOL    HW1 4587   0.048   5.149   1.519  0.2644 -0.2891  0.1946
 1450SOL    HW2 4588   0.029   5.240   1.638  1.0648 -0.0094  0.1208
 1451SOL     OW 4589   5.525   3.409   2.297 -0.5332  0.1938 -0.0367
 1451SOL    HW1 4590   5.617   3.386   2.313  0.0298  0.4648 -2.4968
 1451SOL    HW2 4591   5.527   3.499   2.266 -1.6103  0.1664 -0.2363
 1452SOL     OW 4592   2.491   5.521   0.660  0.3065  0.3214 -0.0194
 1452SOL    HW1 4593   2.509   5.572   0.581 -1.1781  1.1266  0.1270
 1452SOL    HW2 4594   2.405   5.482   0.644 -0.6846  1.6470  1.7442
 1453SOL     OW 4595   0.909   1.315   5.370 -0.1402  0.3380 -0.4044
 1453SOL    HW1 4596   0.823   1.312   5.327 -0.1664 -1.3626 -0.2791
 1453SOL    HW2 4597   0.962   1.252   5.322  0.8711  0.9068 -0.0699
 1454SOL     OW 4598   1.240   2.707   0.705 -0.1064  0.8322  0.2914
 1454SOL    HW1 4599   1.244   2.802   0.690  2.2524  0.7602  0.1828
 1454SOL    HW2 4600   1.327   2.675   0.682 -0.6168 -1.2727  1.0801
 1455SOL     OW 4601   4.794   2.655   4.057 -0.7952 -0.0252 -0.0294
 1455SOL    HW1 4602   4.800   2.744   4.024 -1.0013  0.0185  0.0515
 1455SOL    HW2 4603   4.746   2.607   3.990 -0.1396 -0.2205 -0.3632
 1456SOL     OW 4604   5.438   4.830   3.355 -0.4812 -0.0158 -0.2782
 1456SOL    HW1 4605   5.445   4.777   3.434 -1.8236 -0.2203 -0.2683
 1456SOL    HW2 4606   5.444   4.768   3.282  1.8535  0.2893 -0.4188
 1457SOL     OW 4607   1.127   6.099   2.326  0.2037  0.0543  0.3632
 1457SOL    HW1 4608   1.172   6.042   2.389 -0.4371 -1.1270 -0.2108
 1457SOL    HW2 4609   1.034   6.086   2.344 -0.0095 -0.6574 -1.0963
 1458SOL     OW 4610   5.505   4.158   0.350 -0.3938 -0.5363  0.3793
 1458SOL    HW1 4611   5.553   4.123   0.425 -0.6589 -1.0826  0.2933
 1458SOL    HW2 4612   5.456   4.232   0.386 -2.4771 -2.2634  1.3300
 1459SOL     OW 4613   1.511   1.241   5.301  0.1520 -0.3295  0.0776
 1459SOL    HW1 4614   1.521   1.175   5.233  2.0490  0.5182 -0.5367
 1459SOL    HW2 4615   1.436   1.294   5.273  0.2817 -0.6042 -0.8080
 1460SOL     OW 4616   3.937   3.945   2.682  0.0312 -0.6289 -0.4636
 1460SOL    HW1 4617   3.950   4.038   2.665  0.8480 -0.7210 -0.3605
 1460SOL    HW2 4618   3.846   3.939   2.712  0.5713  0.4100  1.5525
 1461SOL     OW 4619   0.627   2.556   5.217  0.4772  0.2578 -0.0293
 1461SOL    HW1 4620   0.658   2.569   5.127  0.2179 -2.3765 -0.5736
 1461SOL    HW2 4621   0.679   2.483   5.250 -1.3142 -0.6562  0.9508
 1462SOL     OW 4622   1.286   2.005   0.328  0.0531  0.0369  0.2014
 1462SOL    HW1 4623   1.293   1.937   0.395 -0.6499 -0.0409  0.2003
 1462SOL    HW2 4624   1.326   2.082   0.368 -1.3487  0.3095  1.1564
 1463SOL     OW 4625   0.223   3.893   0.139  0.0386 -0.3160 -0.4899
 1463SOL    HW1 4626   0.282   3.830   0.181  1.0825 -0.1695 -1.6782
 1463SOL    HW2 4627   0.136   3.857   0.153  0.5247 -1.3826 -0.0678
 1464SOL     OW 4628   2.371   0.199   3.020  0.6406 -0.4652  0.1257
 1464SOL    HW1 4629   2.441   0.265   3.019 -0.0136  0.2540  0.4037
 1464SOL    HW2 4630   2.308   0.232   3.085 -1.6425  0.7243 -2.4439
 1465SOL     OW 4631   1.233   0.229   3.047  0.2130 -0.2944  0.2032
 1465SOL    HW1 4632   1.260   0.317   3.019  0.8429 -0.4217  0.3819
 1465SOL    HW2 4633   1.315   0.188   3.076 -0.0390 -1.0323 -0.1234
 1466SOL     OW 4634   5.262   2.951   6.112  0.4966 -0.1502  0.0476
 1466SOL    HW1 4635   5.189   2.893   6.089 -0.4464  0.2870  1.7684
 1466SOL    HW2 4636   5.331   2.929   6.049 -1.3720  0.0127 -2.2172
 1467SOL     OW 4637   4.329   1.801   0.116 -0.4365 -0.3172 -0.1320
 1467SOL    HW1 4638   4.244   1.825   0.154 -0.7197 -0.1885 -0.8433
 1467SOL    HW2 4639   4.351   1.874   0.058 -0.6245 -1.0941 -1.2057
 1468SOL     OW 4640   4.358   1.968   1.218 -0.4072 -0.0189 -0.8805
 1468SOL    HW1 4641   4.423   2.002   1.279 -0.1603 -0.8352 -0.6754
 1468SOL    HW2 4642   4.407   1.949   1.138 -0.3679 -0.7407 -0.6879
 1469SOL     OW 4643   2.027   2.963   3.167  0.0506 -0.6005  0.1026
 1469SOL    HW1 4644   2.111   2.918   3.171  0.4627  0.0097 -1.2147
 1469SOL    HW2 4645   1.986   2.932   3.086  0.4692  1.5313 -1.0023
 1470SOL     OW 4646   2.214   4.266   0.527  0.2062  1.0230  0.1324
 1470SOL    HW1 4647   2.265   4.305   0.456  0.1241  0.3620 -0.2960
 1470SOL    HW2 4648   2.225   4.172   0.515 -1.0752  0.8714  0.0693
 1471SOL     OW 4649   2.827   5.736   2.298  0.5872  0.2829 -0.0841
 1471SOL    HW1 4650   2.732   5.746   2.306  0.2962 -1.8650 -0.2049
 1471SOL    HW2 4651   2.856   5.708   2.385  0.9185 -0.1848 -0.3368
 1472SOL     OW 4652   4.932   3.147   3.041  0.2348  0.2404  0.4110
 1472SOL    HW1 4653   4.859   3.093   3.071  1.4335  0.8247  5.3649
 1472SOL    HW2 4654   4.900   3.237   3.048  0.9404  0.4454  1.1983
 1473SOL     OW 4655   2.098   1.425   5.120 -0.4070 -0.1521 -0.5711
 1473SOL    HW1 4656   2.175   1.379   5.154 -0.1496  0.6270 -0.0444
 1473SOL    HW2 4657   2.100   1.510   5.165 -0.5708  0.5730 -1.8819
 1474SOL     OW 4658   6.016   0.961   0.662 -0.1001 -0.3005  0.7014
 1474SOL    HW1 4659   6.085   1.027   0.666  0.1682 -0.5543  0.3439
 1474SOL    HW2 4660   5.937   1.007   0.691  0.1018  0.1553  0.5356
 1475SOL     OW 4661   3.305   3.234   1.421 -0.1083  0.1029  0.2052
 1475SOL    HW1 4662   3.226   3.224   1.367 -1.1107  0.2233  1.6047
 1475SOL    HW2 4663   3.373   3.259   1.358 -1.2523  0.3673 -0.9836
 1476SOL     OW 4664   4.075   2.399   4.681 -0.0664  0.3965  0.2477
 1476SOL    HW1 4665   4.032   2.475   4.721 -1.5253  0.3522 -1.1320
 1476SOL    HW2 4666   4.157   2.435   4.645 -1.7112  1.9578 -2.3350
 1477SOL     OW 4667   1.579   2.856   0.490  0.3045 -0.3090  0.2607
 1477SOL    HW1 4668   1.625   2.835   0.409 -1.2507  0.4635 -0.8641
 1477SOL    HW2 4669   1.570   2.951   0.489 -2.0695 -0.4989 -0.0122
 1478SOL     OW 4670   1.483   1.382   1.659  0.0620 -0.2395 -0.6926
 1478SOL    HW1 4671   1.509   1.466   1.698  1.0266 -1.7089  2.1141
 1478SOL    HW2 4672   1.389   1.375   1.678  0.5925 -1.1391  2.0966
 1479SOL     OW 4673   2.022   2.524   1.695  0.4300  0.0305  0.0151
 1479SOL    HW1 4674   2.067   2.604   1.670  1.1048 -0.3333  0.0469
 1479SOL    HW2 4675   2.016   2.528   1.790  1.4024 -0.4418  0.1054
 1480SOL     OW 4676   0.857   5.424   4.356  0.6806  0.4427  0.3798
 1480SOL    HW1 4677   0.820   5.348   4.400  1.2077  0.7848  1.4662
 1480SOL    HW2 4678   0.872   5.396   4.266  0.1435 -0.4815  0.5741
 1481SOL     OW 4679   1.336   0.590   5.793 -0.1935 -0.3140 -0.0204
 1481SOL    HW1 4680   1.291   0.650   5.852  0.3927  1.5872 -1.4160
 1481SOL    HW2 4681   1.419   0.570   5.837 -0.4778 -0.2984  0.5389
 1482SOL     OW 4682   4.896   4.299   3.426  0.4908  0.2517 -0.0092
 1482SOL    HW1 4683   4.988   4.277   3.414  1.0260  2.7942 -1.2932
 1482SOL    HW2 4684   4.884   4.379   3.374 -1.9792  1.0398  1.6233
 1483SOL     OW 4685   5.891   4.999   2.675 -0.0381  0.4016  0.0068
 1483SOL    HW1 4686   5.947   5.013   2.751  0.7606  1.4340 -0.7447
 1483SOL    HW2 4687   5.806   5.033   2.701  0.5800  2.0647 -0.0057
 1484SOL     OW 4688   1.036   0.947   3.782  0.1716  0.0104 -0.1037
 1484SOL    HW1 4689   1.007   0.918   3.868 -0.0667  1.0742  0.1886
 1484SOL    HW2 4690   1.127   0.974   3.795  0.3089 -0.3430 -0.3134
 1485SOL     OW 4691   4.900   1.854   1.975  0.6939  0.4591  0.0849
 1485SOL    HW1 4692   4.835   1.818   2.035  0.2530  0.3979 -0.4179
 1485SOL    HW2 4693   4.871   1.824   1.889  0.2288  2.1246 -0.3775
 1486SOL     OW 4694   6.099   3.116   0.039 -0.2558 -0.2961 -0.2402
 1486SOL    HW1 4695   6.048   3.178   0.092  0.1751  0.3070 -0.5207
 1486SOL    HW2 4696   6.190   3.133   0.062 -0.1100 -0.5762 -0.5924
 1487SOL     OW 4697   1.875   5.476   1.544 -0.8695  0.0665  0.0632
 1487SOL    HW1 4698   1.896   5.561   1.584  0.9566  0.2896 -1.2477
 1487SOL    HW2 4699   1.958   5.443   1.511 -1.7347 -1.7149 -0.4877
 1488SOL     OW 4700   4.002   2.141   1.063  0.5022 -0.1460  0.6884
 1488SOL    HW1 4701   3.930   2.156   1.002  0.4418  0.0667  0.8085
 1488SOL    HW2 4702   4.003   2.047   1.077  0.3572 -0.1682  0.5499
 1489SOL     OW 4703   6.084   4.174   5.847  0.3473 -0.3219  0.7580
 1489SOL    HW1 4704   6.135   4.251   5.822 -1.0768  1.1127  2.0488
 1489SOL    HW2 4705   6.077   4.123   5.767  0.9516  1.1163 -0.2553
 1490SOL     OW 4706   4.790   4.141   0.764  0.3274  0.2575  0.2203
 1490SOL    HW1 4707   4.809   4.234   0.776 -0.3923  0.9754 -3.2054
 1490SOL    HW2 4708   4.869   4.096   0.794  0.5841  1.9060  2.1973
 1491SOL     OW 4709   0.779   0.297   5.198  0.6093 -0.0771  0.5858
 1491SOL    HW1 4710   0.861   0.247   5.199  1.2656  0.9580  1.8394
 1491SOL    HW2 4711   0.754   0.303   5.290 -0.1393  0.8041  0.3373
 1492SOL     OW 4712   5.610   4.785   5.105 -0.0321 -0.7518 -0.1816
 1492SOL    HW1 4713   5.619   4.843   5.181 -0.3264 -1.8739  0.7401
 1492SOL    HW2 4714   5.523   4.805   5.070 -0.4815 -1.2006  0.6427
 1493SOL     OW 4715   2.296   3.745   1.411 -0.1883  0.4658 -0.2165
 1493SOL    HW1 4716   2.263   3.776   1.327  0.2717 -0.1748 -0.6377
 1493SOL    HW2 4717   2.376   3.697   1.390  0.4139  1.0397  0.6710
 1494SOL     OW 4718   5.110   3.197   5.147 -0.0014 -0.0070 -0.1805
 1494SOL    HW1 4719   5.197   3.234   5.161  0.1537  0.1970 -1.5486
 1494SOL    HW2 4720   5.102   3.128   5.212  1.5446 -0.6239 -0.6114
 1495SOL     OW 4721   5.032   3.654   5.943 -0.4592  0.0645  1.0706
 1495SOL    HW1 4722   4.977   3.599   5.887  0.4146 -0.4144  0.6626
 1495SOL    HW2 4723   4.970   3.700   6.000 -1.4244  0.9908 -0.6379
 1496SOL     OW 4724   5.715   5.573   2.185 -0.0325 -0.1070 -0.0799
 1496SOL    HW1 4725   5.677   5.655   2.153 -0.2996 -0.6091 -1.1071
 1496SOL    HW2 4726   5.639   5.522   2.215  0.0448 -0.2984 -0.2080
 1497SOL     OW 4727   3.568   1.031   2.296 -0.3937  0.2779  0.1130
 1497SOL    HW1 4728   3.505   1.102   2.310 -0.4688 -0.0055  1.2836
 1497SOL    HW2 4729   3.542   0.993   2.212 -1.2023  0.7657  0.1273
 1498SOL     OW 4730   2.256   3.897   5.371 -0.6525 -0.0542 -0.0497
 1498SOL    HW1 4731   2.245   3.968   5.308  0.2518 -0.9761 -1.2998
 1498SOL    HW2 4732   2.257   3.818   5.318  1.9413 -0.7519  0.8844
 1499SOL     OW 4733   4.856   5.615   1.312  0.6883  0.6292  0.4160
 1499SOL    HW1 4734   4.852   5.656   1.398 -0.7488  2.6656 -0.5259
 1499SOL    HW2 4735   4.922   5.665   1.264 -0.3235  1.1994 -0.4269
 1500SOL     OW 4736   0.820   2.170   1.749 -0.1097  0.4053  0.1180
 1500SOL    HW1 4737   0.768   2.090   1.756  0.0607  0.4054  1.8751
 1500SOL    HW2 4738   0.764   2.233   1.704 -1.0337 -0.0729  0.5875
 1501SOL     OW 4739   0.212   4.285   1.241 -0.4969 -0.2862  0.4031
 1501SOL    HW1 4740   0.177   4.330   1.317 -0.7630  0.1153  0.0439
 1501SOL    HW2 4741   0.136   4.263   1.188 -0.2767 -0.0764 -0.0123
 1502SOL     OW 4742   0.685   0.959   0.567  0.0549  0.2354 -0.2504
 1502SOL    HW1 4743   0.618   1.027   0.565 -0.5507 -0.3736 -1.0387
 1502SOL    HW2 4744   0.737   0.974   0.488 -0.3649 -0.4977 -0.6688
 1503SOL     OW 4745   0.649   3.517   1.071 -0.2737 -0.1422  0.1668
 1503SOL    HW1 4746   0.605   3.443   1.113  2.1675 -1.4247  0.7005
 1503SOL    HW2 4747   0.700   3.558   1.141  0.9502 -0.0006 -0.7703
 1504SOL     OW 4748   5.602   2.395   5.617 -0.3517  0.1737 -0.1471
 1504SOL    HW1 4749   5.574   2.304   5.630 -0.5574  0.1797 -0.5310
 1504SOL    HW2 4750   5.547   2.427   5.545  0.2343  0.3662 -0.5146
 1505SOL     OW 4751   1.288   4.811   5.765 -0.0493  0.0869 -0.5618
 1505SOL    HW1 4752   1.267   4.891   5.813 -2.7592 -1.5584  1.2303
 1505SOL    HW2 4753   1.332   4.756   5.829 -0.6874 -0.8887 -0.9517
 1506SOL     OW 4754   2.024   2.906   0.964  0.1270  0.1271  0.8318
 1506SOL    HW1 4755   1.997   2.825   0.919 -0.1951 -0.6450  2.3433
 1506SOL    HW2 4756   1.959   2.971   0.936 -0.0873 -0.3370  0.2163
 1507SOL     OW 4757   5.466   5.473   5.445  0.0334 -0.3364 -0.0605
 1507SOL    HW1 4758   5.400   5.436   5.387 -0.9752 -1.8155  1.8807
 1507SOL    HW2 4759   5.545   5.420   5.429  0.1635  0.1044 -0.9384
 1508SOL     OW 4760   5.389   3.871   4.226  0.4776 -0.5972  0.4157
 1508SOL    HW1 4761   5.430   3.928   4.161  2.1072 -1.6157  0.4895
 1508SOL    HW2 4762   5.410   3.912   4.310  1.4533 -1.1468  0.4563
 1509SOL     OW 4763   2.064   0.016   3.256  0.3639  0.1681  0.3410
 1509SOL    HW1 4764   2.079  -0.039   3.334  1.7046 -0.3121 -0.2193
 1509SOL    HW2 4765   2.114  -0.028   3.187 -1.3132  0.2260 -0.9722
 1510SOL     OW 4766   2.666   3.236   4.050 -0.3612 -0.2550  0.8317
 1510SOL    HW1 4767   2.738   3.295   4.027 -0.3722  0.3915  2.3833
 1510SOL    HW2 4768   2.600   3.251   3.982 -1.0825  2.7861  2.0508
 1511SOL     OW 4769   0.084   5.439   0.551 -0.2106 -0.0188  0.0001
 1511SOL    HW1 4770   0.106   5.492   0.474  0.0189 -1.1998 -0.7643
 1511SOL    HW2 4771   0.126   5.355   0.535 -0.4816 -0.4122  1.2507
 1512SOL     OW 4772   4.449   5.852   5.490  0.3422 -0.2587  0.2540
 1512SOL    HW1 4773   4.471   5.778   5.433  0.4397 -1.8046  2.1837
 1512SOL    HW2 4774   4.534   5.886   5.518  0.3154  1.1772 -1.2728
 1513SOL     OW 4775   3.835   2.426   0.161  0.1650  0.3237 -0.2718
 1513SOL    HW1 4776   3.915   2.429   0.109 -0.0460 -0.1472 -0.6256
 1513SOL    HW2 4777   3.864   2.439   0.252  0.8751 -1.7583 -0.1516
 1514SOL     OW 4778   3.943   0.294   1.726 -0.1264  0.2243 -0.2102
 1514SOL    HW1 4779   4.006   0.254   1.666 -1.0938 -0.7413 -0.6216
 1514SOL    HW2 4780   3.996   0.321   1.802  0.8350 -0.2207 -0.7033
 1515SOL     OW 4781   0.035   1.404   1.662  0.1429 -0.2127 -0.2563
 1515SOL    HW1 4782   0.126   1.376   1.672  0.6389  0.7926 -1.7472
 1515SOL    HW2 4783   0.032   1.491   1.702  0.2221  0.3874 -1.5099
 1516SOL     OW 4784   4.888   1.118   3.806 -0.0651 -0.6287 -0.0893
 1516SOL    HW1 4785   4.923   1.049   3.751 -0.6482 -1.1207  0.1428
 1516SOL    HW2 4786   4.857   1.072   3.885  2.6450  0.2579  1.6344
 1517SOL     OW 4787   1.033   4.167   1.194  0.0547  0.5818  0.2843
 1517SOL    HW1 4788   1.124   4.151   1.167 -0.0071  1.9952 -0.9068
 1517SOL    HW2 4789   0.994   4.080   1.200  1.5852 -0.0683  1.1930
 1518SOL     OW 4790   2.622   3.929   5.723 -0.4655  0.0828  0.0839
 1518SOL    HW1 4791   2.601   3.942   5.631  0.6105  0.2802 -0.1550
 1518SOL    HW2 4792   2.700   3.982   5.737  1.5637 -2.6633  0.1748
 1519SOL     OW 4793   3.259   0.731   3.575  0.1299  0.2139 -0.8697
 1519SOL    HW1 4794   3.205   0.751   3.499  1.8606  0.6618 -2.0466
 1519SOL    HW2 4795   3.346   0.763   3.552  0.8888 -0.3497  0.9958
 1520SOL     OW 4796   1.456   4.424   4.933  0.2358  0.3017  0.7158
 1520SOL    HW1 4797   1.389   4.480   4.893  0.4922 -0.1884 -0.4283
 1520SOL    HW2 4798   1.535   4.441   4.882  0.9715  0.7600  1.9672
 1521SOL     OW 4799   3.996   3.874   1.867 -0.4485 -0.1659 -0.0331
 1521SOL    HW1 4800   4.012   3.816   1.942 -2.4881  0.7598  1.2289
 1521SOL    HW2 4801   4.040   3.956   1.891  0.3564 -0.3893 -0.6879
 1522SOL     OW 4802   1.353   4.590   4.729 -0.3172 -0.2565 -0.1948
 1522SOL    HW1 4803   1.276   4.543   4.696 -0.1322 -0.1097 -0.8577
 1522SOL    HW2 4804   1.317   4.669   4.769 -0.5997 -0.7704  0.5936
 1523SOL     OW 4805   3.507   6.143   5.034 -0.2932  0.0850  0.0791
 1523SOL    HW1 4806   3.477   6.132   4.944 -0.4583  1.7858 -0.1054
 1523SOL    HW2 4807   3.437   6.194   5.076  1.0455  1.7859  0.3658
 1524SOL     OW 4808   3.395   5.738   3.646  0.0268  0.5135  0.4612
 1524SOL    HW1 4809   3.331   5.760   3.714  0.1114  1.2251  0.3074
 1524SOL    HW2 4810   3.479   5.765   3.682  0.1850  0.0794  0.4312
 1525SOL     OW 4811   0.101   5.463   1.597  0.1578 -0.4250 -0.1102
 1525SOL    HW1 4812   0.064   5.551   1.609 -1.4328 -1.1503  0.6718
 1525SOL    HW2 4813   0.132   5.463   1.507  0.9606  1.1949  0.1181
 1526SOL     OW 4814   0.227   4.286   2.491 -0.0604 -0.5811 -0.4596
 1526SOL    HW1 4815   0.238   4.275   2.396 -2.0268  1.5638 -1.0196
 1526SOL    HW2 4816   0.160   4.221   2.515 -1.4745  0.5655 -1.1062
 1527SOL     OW 4817   1.547   2.298   3.392  0.3994 -0.8319 -0.0090
 1527SOL    HW1 4818   1.536   2.336   3.479  0.0211 -2.3574  0.6453
 1527SOL    HW2 4819   1.580   2.210   3.409  2.5290 -0.4042 -1.5096
 1528SOL     OW 4820   4.724   4.466   1.877 -0.6193 -0.2906  0.7660
 1528SOL    HW1 4821   4.709   4.528   1.806  0.5657 -1.6919 -0.7842
 1528SOL    HW2 4822   4.665   4.393   1.859 -0.0972 -0.7901  1.0428
 1529SOL     OW 4823   1.995   0.325   0.898 -0.3486 -0.2594 -0.1703
 1529SOL    HW1 4824   1.921   0.266   0.917 -0.2687 -0.2053  0.3107
 1529SOL    HW2 4825   1.953   0.404   0.863 -0.5719  0.0011  0.6497
 1530SOL     OW 4826   3.351   4.421   1.128 -0.4080  0.6481  0.4463
 1530SOL    HW1 4827   3.434   4.449   1.166  0.5545 -1.2616 -0.0923
 1530SOL    HW2 4828   3.328   4.341   1.176 -1.1662  0.3518 -0.3663
 1531SOL     OW 4829   1.834   1.345   2.966  0.3861 -0.2934  0.0209
 1531SOL    HW1 4830   1.831   1.403   2.891  2.4522  0.5559  0.5281
 1531SOL    HW2 4831   1.799   1.397   3.038 -1.6824 -1.1374 -0.3108
 1532SOL     OW 4832   0.452   4.511   2.462  0.0650  0.2153  0.0949
 1532SOL    HW1 4833   0.424   4.450   2.530  0.8972 -0.6013 -0.2933
 1532SOL    HW2 4834   0.375   4.567   2.448 -0.3029  0.0387  1.2993
 1533SOL     OW 4835   0.477   4.432   0.006  0.1183  0.2767  0.0518
 1533SOL    HW1 4836   0.426   4.391  -0.065  2.6294 -1.4626 -0.8988
 1533SOL    HW2 4837   0.542   4.366   0.029  1.1219  1.8863  2.1025
 1534SOL     OW 4838   3.856   3.968   1.210  0.7369  0.2787  0.5575
 1534SOL    HW1 4839   3.884   3.984   1.120 -3.0928  0.1048 -0.8961
 1534SOL    HW2 4840   3.825   4.053   1.241  2.7684  0.5209  2.1292
 1535SOL     OW 4841   3.259   1.981   1.201  0.4214 -0.1506 -0.6102
 1535SOL    HW1 4842   3.218   2.028   1.273  0.0703 -0.5270 -0.5615
 1535SOL    HW2 4843   3.232   2.029   1.123  0.1472 -0.2109 -0.5527
 1536SOL     OW 4844   6.119   5.487   3.113  1.0734  0.2138  0.1265
 1536SOL    HW1 4845   6.190   5.474   3.050 -0.3058 -2.1005 -1.0973
 1536SOL    HW2 4846   6.054   5.541   3.067  1.6517  1.7053  0.9800
 1537SOL     OW 4847   0.449   3.929   6.082 -0.0594 -0.0295  0.2002
 1537SOL    HW1 4848   0.354   3.937   6.076  0.0904  0.9024 -1.1518
 1537SOL    HW2 4849   0.471   3.971   6.166 -0.8582 -0.5572  0.6858
 1538SOL     OW 4850   3.412   3.789   2.888 -0.1656 -0.0008 -0.5277
 1538SOL    HW1 4851   3.365   3.757   2.811 -1.3714 -2.5147  1.1083
 1538SOL    HW2 4852   3.485   3.728   2.898  0.9033  1.2351 -0.5185
 1539SOL     OW 4853   2.908   4.631   2.758  0.4554  0.0639  0.5810
 1539SOL    HW1 4854   2.930   4.557   2.813 -1.1305 -1.2456 -0.4339
 1539SOL    HW2 4855   2.844   4.681   2.809  0.1648 -0.2817  0.5561
 1540SOL     OW 4856   0.967   0.186   0.192  0.1124 -0.0183 -0.3090
 1540SOL    HW1 4857   0.893   0.215   0.137  0.4545 -2.1655 -2.0173
 1540SOL    HW2 4858   0.937   0.104   0.231  1.0830 -0.1918  0.0930
 1541SOL     OW 4859   4.539   4.751   4.241 -0.2998 -0.3694  0.7258
 1541SOL    HW1 4860   4.523   4.658   4.259 -0.0808 -0.4497  0.5151
 1541SOL    HW2 4861   4.467   4.777   4.184  0.2061 -0.6833 -0.0729
 1542SOL     OW 4862   4.827   2.139   5.759 -0.4115 -0.5588 -0.4667
 1542SOL    HW1 4863   4.794   2.078   5.692 -2.6318  0.1204 -0.0620
 1542SOL    HW2 4864   4.890   2.088   5.809 -0.5424 -1.8298 -1.5532
 1543SOL     OW 4865   1.625   0.460   1.315 -0.5406 -0.3985 -0.5557
 1543SOL    HW1 4866   1.679   0.388   1.281 -0.8198 -1.1448  0.5285
 1543SOL    HW2 4867   1.571   0.486   1.240 -0.1741 -1.0656 -1.0700
 1544SOL     OW 4868   5.608   4.358   3.228 -0.3093  0.3242 -0.4338
 1544SOL    HW1 4869   5.530   4.353   3.172 -0.0374 -0.3892 -0.7527
 1544SOL    HW2 4870   5.661   4.283   3.202 -0.3280 -0.2189  1.0127
 1545SOL     OW 4871   0.228   1.192   0.608 -0.3633  0.4435 -0.4711
 1545SOL    HW1 4872   0.193   1.229   0.528 -1.1813  0.0264 -0.3170
 1545SOL    HW2 4873   0.152   1.182   0.666  0.1629  0.4679  0.2470
 1546SOL     OW 4874   0.685   2.910   3.846  0.8307  0.2960 -0.1127
 1546SOL    HW1 4875   0.732   2.831   3.821  0.8820  0.1964  0.2934
 1546SOL    HW2 4876   0.617   2.919   3.780  0.8227 -0.0873 -0.1588
 1547SOL     OW 4877   3.901   4.512   3.978  0.4424  0.0346  0.1369
 1547SOL    HW1 4878   3.993   4.497   3.955  0.5116  1.5452 -0.6912
 1547SOL    HW2 4879   3.859   4.428   3.964  1.2135 -0.0559 -2.0321
 1548SOL     OW 4880   1.766   4.405   3.730  0.3874  0.4130  0.1027
 1548SOL    HW1 4881   1.694   4.428   3.789 -1.2528 -1.8989 -0.8444
 1548SOL    HW2 4882   1.764   4.474   3.664 -0.5993  0.7179  0.4190
 1549SOL     OW 4883   0.807   4.591   4.266  0.4490  0.2492 -0.2475
 1549SOL    HW1 4884   0.848   4.515   4.225  0.8301  1.0095 -1.3095
 1549SOL    HW2 4885   0.746   4.553   4.329  0.8530 -0.9364 -0.5386
 1550SOL     OW 4886   5.347   0.102   5.902 -0.1696  0.9899 -0.1408
 1550SOL    HW1 4887   5.271   0.045   5.918  0.1815  0.7977  0.9699
 1550SOL    HW2 4888   5.394   0.060   5.830  0.0407 -0.1115  0.6082
 1551SOL     OW 4889   1.216   4.713   0.511  0.1925 -0.2039 -0.0302
 1551SOL    HW1 4890   1.289   4.738   0.567 -1.8960  4.4499  1.1584
 1551SOL    HW2 4891   1.138   4.732   0.564 -1.8772 -0.1881 -2.8494
 1552SOL     OW 4892   0.103   6.130   4.503  0.4694  0.1290 -0.4315
 1552SOL    HW1 4893   0.179   6.094   4.550  0.2193  0.7938  0.5072
 1552SOL    HW2 4894   0.126   6.122   4.411  2.0326  1.0501 -0.1539
 1553SOL     OW 4895   5.790   4.494   1.961 -0.1185  0.2775 -0.1485
 1553SOL    HW1 4896   5.805   4.586   1.982  1.0398 -0.0383  0.5300
 1553SOL    HW2 4897   5.833   4.481   1.876 -1.3490  0.6274 -0.8502
 1554SOL     OW 4898   3.279   4.967   4.301 -0.6485  0.3309  0.0097
 1554SOL    HW1 4899   3.336   4.890   4.305 -0.2268  0.6184 -0.3057
 1554SOL    HW2 4900   3.332   5.033   4.256 -0.3881  1.3296  1.6708
 1555SOL     OW 4901   1.060   0.628   2.771 -0.0151  0.4585 -0.0689
 1555SOL    HW1 4902   0.967   0.651   2.768 -0.6286 -1.8650 -0.7891
 1555SOL    HW2 4903   1.073   0.592   2.859  0.0232  0.1675 -0.1911
 1556SOL     OW 4904   4.935   2.846   3.283  0.0551  0.3292  0.4722
 1556SOL    HW1 4905   5.015   2.888   3.252 -0.6918 -0.0924 -2.3866
 1556SOL    HW2 4906   4.865   2.902   3.248 -0.8915 -1.1416 -0.0471
 1557SOL     OW 4907   3.741   0.368   3.177  0.3413  0.1028 -0.6872
 1557SOL    HW1 4908   3.670   0.430   3.193 -0.2939 -0.5633 -0.8378
 1557SOL    HW2 4909   3.806   0.386   3.245 -0.1598  0.4590 -0.3045
 1558SOL     OW 4910   3.936   0.873   0.525  0.3514  0.2380  0.2274
 1558SOL    HW1 4911   4.009   0.926   0.555  0.3648 -1.2110  3.2013
 1558SOL    HW2 4912   3.866   0.892   0.588 -0.7097 -0.8110 -0.5897
 1559SOL     OW 4913   0.797   1.583   0.533  0.2297  0.1867  0.7965
 1559SOL    HW1 4914   0.875   1.615   0.578  1.2633  1.5302 -1.7803
 1559SOL    HW2 4915   0.791   1.491   0.559  0.7331  0.8476  3.5918
 1560SOL     OW 4916   3.183   5.421   1.316 -0.0607  0.0307  0.4084
 1560SOL    HW1 4917   3.247   5.403   1.247  1.0479 -1.3711  1.7445
 1560SOL    HW2 4918   3.144   5.336   1.335  2.4702 -0.4904  4.1700
 1561SOL     OW 4919   3.265   2.621   2.315  0.2812 -0.0691 -0.0933
 1561SOL    HW1 4920   3.290   2.711   2.294 -0.6465  0.3926  0.7283
 1561SOL    HW2 4921   3.170   2.622   2.313  0.2685 -1.1556 -0.5101
 1562SOL     OW 4922   5.320   3.701   1.869 -0.3459 -0.3786 -0.0735
 1562SOL    HW1 4923   5.360   3.630   1.919 -0.4034 -0.4034 -0.0625
 1562SOL    HW2 4924   5.325   3.672   1.778 -4.1405 -2.3918  0.1416
 1563SOL     OW 4925   2.759   2.516   5.865  0.4712 -0.3092  0.0780
 1563SOL    HW1 4926   2.691   2.450   5.849  0.4312 -0.9348  2.4763
 1563SOL    HW2 4927   2.723   2.597   5.828 -1.5517 -0.6553  1.1453
 1564SOL     OW 4928   2.530   5.874   2.580 -0.1498 -0.1778  0.1006
 1564SOL    HW1 4929   2.487   5.941   2.527 -0.6987 -1.3673 -1.0124
 1564SOL    HW2 4930   2.557   5.807   2.517  0.4542 -0.9657  1.1635
 1565SOL     OW 4931   0.701   2.427   0.848  0.6557  0.4142 -0.0524
 1565SOL    HW1 4932   0.641   2.455   0.917 -0.2954  1.8642 -1.3615
 1565SOL    HW2 4933   0.770   2.493   0.849  0.9683  0.0834 -0.0620
 1566SOL     OW 4934   0.234   3.813   3.048 -0.8256 -0.3296  0.2478
 1566SOL    HW1 4935   0.238   3.883   3.113 -1.7096  0.3280 -0.3849
 1566SOL    HW2 4936   0.150   3.770   3.064 -0.8746 -0.4075 -0.2011
 1567SOL     OW 4937   4.968   1.139   1.304 -0.5997 -0.0886  0.1694
 1567SOL    HW1 4938   5.021   1.219   1.297 -0.9736  0.1617  0.2007
 1567SOL    HW2 4939   4.974   1.099   1.217  1.2588 -1.0967  0.7126
 1568SOL     OW 4940   3.991   4.581   0.002 -0.0091 -0.3983  0.0059
 1568SOL    HW1 4941   4.005   4.535  -0.081  0.1435 -1.8334  0.8075
 1568SOL    HW2 4942   4.055   4.543   0.062 -0.0155  0.7276  0.7644
 1569SOL     OW 4943   5.751   2.172   2.584 -0.5505  0.0854 -0.1408
 1569SOL    HW1 4944   5.792   2.179   2.670  0.0398  0.7213 -0.4630
 1569SOL    HW2 4945   5.787   2.093   2.546  0.0004  0.3748 -0.2231
 1570SOL     OW 4946   2.301   1.025   1.321 -0.0194  0.3905  0.2777
 1570SOL    HW1 4947   2.355   0.983   1.388 -0.8992  1.0487  1.4372
 1570SOL    HW2 4948   2.352   1.018   1.240 -0.2666 -3.3120  0.2656
 1571SOL     OW 4949   1.482   0.959   1.047  0.2667  0.5681  0.0521
 1571SOL    HW1 4950   1.423   0.973   0.973  2.1464 -0.9041 -1.8706
 1571SOL    HW2 4951   1.503   1.047   1.078 -2.0709  1.1532  0.1611
 1572SOL     OW 4952   5.198   2.942   4.033 -0.1378 -0.0707  0.2409
 1572SOL    HW1 4953   5.188   2.875   3.965 -0.1242  0.5682 -0.4050
 1572SOL    HW2 4954   5.159   3.020   3.995  0.7743  0.5563  0.5745
 1573SOL     OW 4955   0.832   5.109   3.659 -0.0360 -0.2904 -0.0434
 1573SOL    HW1 4956   0.783   5.036   3.620  1.3734 -1.3409  0.0720
 1573SOL    HW2 4957   0.841   5.173   3.588  0.9246 -1.3714 -0.9363
 1574SOL     OW 4958   0.304   1.911   1.574  0.1202 -0.2894 -0.1036
 1574SOL    HW1 4959   0.320   1.821   1.546  0.8572 -0.6289  1.3173
 1574SOL    HW2 4960   0.328   1.912   1.666  1.1531  1.6301 -0.3345
 1575SOL     OW 4961   0.641   4.863   3.907  0.3121  0.0704  0.1824
 1575SOL    HW1 4962   0.657   4.847   3.814  1.0655 -0.6317  0.4146
 1575SOL    HW2 4963   0.546   4.858   3.916  0.1859  0.7112 -0.6380
 1576SOL     OW 4964   2.780   1.947   4.919 -0.1915  0.6434  0.1405
 1576SOL    HW1 4965   2.848   1.884   4.894 -1.5452  0.0360 -2.3677
 1576SOL    HW2 4966   2.829   2.027   4.940  1.3402  0.2719 -1.7246
 1577SOL     OW 4967   5.096   0.581   2.266 -0.7016  0.1018 -0.1528
 1577SOL    HW1 4968   5.191   0.589   2.271 -0.7006  0.9087 -1.0554
 1577SOL    HW2 4969   5.062   0.648   2.325 -0.6967  0.5780 -0.6783
 1578SOL     OW 4970   0.471   3.320   0.475 -0.4281  0.2286 -0.5282
 1578SOL    HW1 4971   0.562   3.347   0.470  0.1106 -1.0998  1.1920
 1578SOL    HW2 4972   0.475   3.225   0.487 -2.0286  0.1815 -0.1059
 1579SOL     OW 4973   1.470   3.359   4.589  0.9547 -0.2359 -0.3868
 1579SOL    HW1 4974   1.534   3.325   4.652  1.0621  0.0583 -0.3376
 1579SOL    HW2 4975   1.386   3.351   4.633  0.4478 -3.8449 -1.6781
 1580SOL     OW 4976   5.140   1.591   3.476  0.1198  0.3915  0.0291
 1580SOL    HW1 4977   5.171   1.504   3.503  1.8428  0.9673  0.0682
 1580SOL    HW2 4978   5.088   1.574   3.397  1.4744 -0.6026 -0.7207
 1581SOL     OW 4979   5.172   3.605   0.612 -0.1810  0.0301 -0.4599
 1581SOL    HW1 4980   5.265   3.588   0.631  0.2131  0.5835 -1.7970
 1581SOL    HW2 4981   5.136   3.519   0.592  0.0664 -0.1704 -0.0742
 1582SOL     OW 4982   0.421   0.742   5.025 -0.2373  0.2627  0.1171
 1582SOL    HW1 4983   0.361   0.816   5.031  0.6615  1.0403 -0.3240
 1582SOL    HW2 4984   0.452   0.730   5.115  0.1310  0.8642  0.0759
 1583SOL     OW 4985   2.301   3.441   0.093 -0.4376 -0.0436  0.0276
 1583SOL    HW1 4986   2.299   3.531   0.059  0.9720  0.3339  0.8715
 1583SOL    HW2 4987   2.360   3.445   0.168 -0.8600 -1.5561  0.4740
 1584SOL     OW 4988   1.786   3.907   0.780  0.3646 -0.7465  0.3384
 1584SOL    HW1 4989   1.855   3.909   0.713 -0.5985  0.7188 -0.6693
 1584SOL    HW2 4990   1.804   3.983   0.835 -0.5441 -0.2250 -0.0634
 1585SOL     OW 4991   2.397   0.653   3.705 -0.0443  0.2196  0.4185
 1585SOL    HW1 4992   2.444   0.591   3.761  0.1836 -1.7499 -1.7758
 1585SOL    HW2 4993   2.432   0.637   3.617 -1.3080  2.2270 -0.5276
 1586SOL     OW 4994   4.854   1.393   3.797 -0.4277 -0.1021 -0.3260
 1586SOL    HW1 4995   4.945   1.422   3.803  0.0975 -1.7072 -0.1822
 1586SOL    HW2 4996   4.856   1.300   3.820 -2.1460 -0.1178 -0.0629
 1587SOL     OW 4997   3.368   0.199   2.210  0.0287 -0.4100 -1.5188
 1587SOL    HW1 4998   3.296   0.136   2.217  0.3110 -0.7722 -1.8292
 1587SOL    HW2 4999   3.445   0.151   2.240  0.3674 -0.4299 -2.3726
 1588SOL     OW 5000   0.921   3.048   3.753  0.0858 -0.3598 -0.1382
 1588SOL    HW1 5001   0.872   3.060   3.671 -1.9538  0.9418  1.1848
 1588SOL    HW2 5002   0.861   2.998   3.809  0.5926  0.5424  1.2575
 1589SOL     OW 5003   5.224   0.122   3.770 -0.0052 -0.0379  0.0451
 1589SOL    HW1 5004   5.280   0.113   3.692 -1.1046 -0.1754 -0.7447
 1589SOL    HW2 5005   5.193   0.212   3.767  2.7235  1.1309  2.2929
 1590SOL     OW 5006   4.714   4.063   3.792 -0.5303 -0.4562 -0.3771
 1590SOL    HW1 5007   4.619   4.079   3.799 -0.2028  1.1202  1.0062
 1590SOL    HW2 5008   4.745   4.131   3.732 -0.2619 -0.9631 -0.8173
 1591SOL     OW 5009   4.225   1.135   2.646 -0.8394 -0.0393  0.1047
 1591SOL    HW1 5010   4.274   1.144   2.564 -0.2463 -1.3899  0.2863
 1591SOL    HW2 5011   4.224   1.223   2.683  0.6995  0.1872 -0.3325
 1592SOL     OW 5012   0.879   1.752   0.042  0.0252 -0.1969  0.3261
 1592SOL    HW1 5013   0.859   1.744  -0.051  1.1554 -1.1027  0.1374
 1592SOL    HW2 5014   0.842   1.837   0.067 -1.2727 -0.4347 -0.6715
 1593SOL     OW 5015   5.013   0.095   3.278  0.5156  0.2089 -0.1189
 1593SOL    HW1 5016   4.986   0.180   3.312 -0.2135  0.0854 -0.3732
 1593SOL    HW2 5017   5.108   0.092   3.295  0.5945  1.1580 -0.3055
 1594SOL     OW 5018   3.065   4.646   4.282  0.2252 -0.1583 -0.4069
 1594SOL    HW1 5019   3.069   4.565   4.231 -1.7309 -0.2426 -0.5004
 1594SOL    HW2 5020   3.090   4.715   4.220 -2.1810 -0.2542 -1.6061
 1595SOL     OW 5021   2.991   3.627   5.356  0.1129 -0.2380  0.3286
 1595SOL    HW1 5022   2.919   3.687   5.374  0.8920  0.7648  0.2163
 1595SOL    HW2 5023   2.954   3.561   5.299 -0.5329  0.7013 -0.3637
 1596SOL     OW 5024   4.457   0.677   2.305 -0.5028  0.1688 -0.0024
 1596SOL    HW1 5025   4.392   0.613   2.335 -0.4950 -0.1851 -0.7169
 1596SOL    HW2 5026   4.408   0.760   2.299 -0.3623  0.3787  1.5274
 1597SOL     OW 5027   2.167   5.814   0.236  0.4387 -0.2274 -0.0675
 1597SOL    HW1 5028   2.199   5.859   0.314  0.4782  0.8323 -0.6741
 1597SOL    HW2 5029   2.072   5.820   0.243  0.4272  1.6872 -1.0683
 1598SOL     OW 5030   2.946   5.166   5.713 -0.5560  0.8646 -0.8085
 1598SOL    HW1 5031   2.968   5.170   5.620 -1.7493 -0.1038 -1.1599
 1598SOL    HW2 5032   2.874   5.103   5.718 -0.7201  1.1330  0.7376
 1599SOL     OW 5033   6.094   1.405   1.404 -0.3085 -0.3108  0.7941
 1599SOL    HW1 5034   6.136   1.420   1.489 -0.0119  0.3213  0.5393
 1599SOL    HW2 5035   6.151   1.341   1.361  1.3780  1.7648 -0.2226
 1600SOL     OW 5036   2.778   1.681   0.854 -0.0996  0.2529  0.6722
 1600SOL    HW1 5037   2.807   1.738   0.783 -3.1126  1.3644  0.1933
 1600SOL    HW2 5038   2.800   1.729   0.934 -0.6973  1.1107  0.3302
 1601SOL     OW 5039   1.856   0.437   5.864  0.5022  0.5123  0.1539
 1601SOL    HW1 5040   1.910   0.511   5.891  0.0320  0.3580  1.6443
 1601SOL    HW2 5041   1.785   0.435   5.929  0.0243 -0.7052 -0.3736
 1602SOL     OW 5042   1.139   1.119   1.970  0.4094  0.2945 -0.2445
 1602SOL    HW1 5043   1.128   1.209   2.002  0.2431 -0.7142  2.8424
 1602SOL    HW2 5044   1.211   1.125   1.907  0.7572  2.5162  0.2727
 1603SOL     OW 5045   4.618   5.603   0.054 -0.0001 -0.3969 -0.2574
 1603SOL    HW1 5046   4.684   5.655   0.009  0.9998 -0.3958  1.1423
 1603SOL    HW2 5047   4.537   5.652   0.042  0.9525  1.7023  1.2459
 1604SOL     OW 5048   2.919   5.755   4.969  0.5774  0.5006 -0.3532
 1604SOL    HW1 5049   2.993   5.695   4.959  2.1294  2.2112  0.1382
 1604SOL    HW2 5050   2.901   5.754   5.063 -1.2323 -1.1790 -0.6495
 1605SOL     OW 5051   0.118   1.704   0.772  0.1811 -0.3070 -0.0269
 1605SOL    HW1 5052   0.202   1.710   0.818 -0.6819  1.2402  1.4718
 1605SOL    HW2 5053   0.109   1.787   0.726 -0.2062 -0.7589 -0.7933
 1606SOL     OW 5054   3.890   1.545   3.862 -0.6280  0.5828 -0.2336
 1606SOL    HW1 5055   3.803   1.529   3.898 -0.1896 -0.6219  0.3455
 1606SOL    HW2 5056   3.874   1.560   3.768 -1.3017 -1.6765 -0.5378
 1607SOL     OW 5057   1.894   3.149   5.860  0.9185  0.0410  0.0258
 1607SOL    HW1 5058   1.965   3.208   5.885 -0.4911  0.9767  2.1619
 1607SOL    HW2 5059   1.927   3.061   5.878  1.3909  0.4930  1.5358
 1608SOL     OW 5060   4.161   4.859   3.965  0.0860  0.3941 -0.0275
 1608SOL    HW1 5061   4.192   4.934   3.915  0.5580 -0.1132 -0.5188
 1608SOL    HW2 5062   4.067   4.855   3.945  0.0681  0.8199 -0.0372
 1609SOL     OW 5063   0.697   3.486   3.265  0.0331 -0.2313  0.4182
 1609SOL    HW1 5064   0.668   3.535   3.188 -1.6302  1.4256  1.9857
 1609SOL    HW2 5065   0.633   3.415   3.273  1.1254 -1.3877 -0.5491
 1610SOL     OW 5066   0.863   5.058   0.662  0.2228  0.5962 -1.0611
 1610SOL    HW1 5067   0.881   4.968   0.687 -0.0324  0.3440 -1.7618
 1610SOL    HW2 5068   0.767   5.065   0.665  0.3061  1.3478  0.6891
 1611SOL     OW 5069   0.203   3.172   2.239  0.5650 -0.2273  0.1759
 1611SOL    HW1 5070   0.177   3.142   2.326  0.3038  3.0482  1.3549
 1611SOL    HW2 5071   0.298   3.184   2.245  0.5894 -0.2682 -0.0961
 1612SOL     OW 5072   5.568   5.058   4.473  0.2856 -0.1160 -0.4325
 1612SOL    HW1 5073   5.615   5.123   4.526  2.2393 -0.4394 -1.6641
 1612SOL    HW2 5074   5.614   5.057   4.389 -1.8590 -0.6205 -1.6874
 1613SOL     OW 5075   1.594   1.951   5.103 -0.0412  0.0273  0.2329
 1613SOL    HW1 5076   1.558   1.865   5.125  1.7572 -0.8609 -0.1486
 1613SOL    HW2 5077   1.553   1.974   5.019 -1.4811  0.1597  0.9407
 1614SOL     OW 5078   4.118   3.962   2.885 -0.1239 -0.5580  0.3392
 1614SOL    HW1 5079   4.115   4.015   2.805  1.8458 -1.5402 -0.4353
 1614SOL    HW2 5080   4.065   3.885   2.865 -2.2747  0.5999  1.1688
 1615SOL     OW 5081   1.121   4.212   2.910  0.5488 -0.3695 -0.4597
 1615SOL    HW1 5082   1.164   4.219   2.995  0.2591  0.8170 -0.4044
 1615SOL    HW2 5083   1.031   4.186   2.931  0.2068  0.8871 -0.3321
 1616SOL     OW 5084   3.429   3.339   1.185  0.4380  0.0082 -0.4888
 1616SOL    HW1 5085   3.524   3.351   1.185  0.4246  0.2289  0.9362
 1616SOL    HW2 5086   3.413   3.278   1.112  1.6961 -0.2840 -0.5477
 1617SOL     OW 5087   2.210   5.054   0.167  0.3369  0.0301  0.8411
 1617SOL    HW1 5088   2.122   5.080   0.139  0.9575  1.6878  0.3317
 1617SOL    HW2 5089   2.220   4.965   0.133 -1.6391 -0.7544  2.0911
 1618SOL     OW 5090   4.704   6.137   3.014  0.1343 -0.1052 -0.9954
 1618SOL    HW1 5091   4.643   6.112   3.083 -0.4194  0.0405 -1.4241
 1618SOL    HW2 5092   4.717   6.231   3.026 -1.7540  0.4049 -2.4471
 1619SOL     OW 5093   5.464   1.123   0.593 -0.0192  0.4830  0.1542
 1619SOL    HW1 5094   5.408   1.138   0.670 -1.2336  2.1649 -0.9962
 1619SOL    HW2 5095   5.404   1.130   0.518  1.1144 -1.2595 -0.9794
 1620SOL     OW 5096   4.041   0.966   1.741 -0.1503 -0.2615  0.3150
 1620SOL    HW1 5097   4.099   0.919   1.681 -0.3480  0.4404 -0.4404
 1620SOL    HW2 5098   4.080   1.053   1.749 -1.5576  0.5220 -0.9214
 1621SOL     OW 5099   3.462   3.110   2.755  0.4784  0.3762  0.1743
 1621SOL    HW1 5100   3.434   3.046   2.821  2.4811 -0.1602  0.5656
 1621SOL    HW2 5101   3.383   3.161   2.736 -0.6444 -0.8090  1.4488
 1622SOL     OW 5102   5.057   4.525   5.138  0.1921  0.1402  0.1537
 1622SOL    HW1 5103   5.141   4.569   5.123  0.0297  0.0821 -1.0208
 1622SOL    HW2 5104   5.071   4.472   5.216 -0.3288  4.0874  3.1907
 1623SOL     OW 5105   0.006   0.405   1.205  0.4431 -0.1982 -0.3088
 1623SOL    HW1 5106  -0.010   0.481   1.149  0.9859 -0.5812 -0.9974
 1623SOL    HW2 5107  -0.055   0.416   1.278 -0.1905  0.3746 -0.9087
 1624SOL     OW 5108   1.069   0.433   5.827  0.1880  0.0330  0.1849
 1624SOL    HW1 5109   1.072   0.385   5.744 -1.1962  1.6103 -0.8530
 1624SOL    HW2 5110   1.160   0.460   5.842  0.4716 -0.3435 -0.7693
 1625SOL     OW 5111   1.732   0.007   5.948 -0.6356 -0.3345  0.1109
 1625SOL    HW1 5112   1.788   0.073   5.989  0.5168 -0.4671 -1.1475
 1625SOL    HW2 5113   1.682  -0.030   6.019  0.5046  0.1753  1.2231
 1626SOL     OW 5114   3.005   1.645   1.136  0.6735 -0.2772 -0.6740
 1626SOL    HW1 5115   3.032   1.652   1.227 -0.1101 -1.0067 -0.3740
 1626SOL    HW2 5116   2.978   1.553   1.126  2.4553 -0.7218 -2.1279
 1627SOL     OW 5117   5.807   1.670   2.911  0.0803 -0.8309  0.5390
 1627SOL    HW1 5118   5.863   1.595   2.890 -0.6451 -1.4879  0.9051
 1627SOL    HW2 5119   5.720   1.645   2.882 -0.1206  0.0005  0.3937
 1628SOL     OW 5120   0.320   1.959   5.792 -0.4973 -0.7728 -0.1599
 1628SOL    HW1 5121   0.250   2.020   5.816  0.2158  0.4111 -0.9644
 1628SOL    HW2 5122   0.399   1.999   5.826 -0.1276 -1.8019  0.2196
 1629SOL     OW 5123   0.443   1.462   6.062 -0.0825  0.1846 -0.5575
 1629SOL    HW1 5124   0.529   1.419   6.053 -0.5682 -0.7045 -1.0897
 1629SOL    HW2 5125   0.435   1.480   6.155  1.4541  1.9203 -0.6988
 1630SOL     OW 5126   2.766   4.497   4.538 -0.3626  0.8924 -0.5145
 1630SOL    HW1 5127   2.676   4.503   4.505 -0.7214 -0.0723  0.2343
 1630SOL    HW2 5128   2.791   4.588   4.554 -1.2968  1.1647 -0.5067
 1631SOL     OW 5129   2.124   0.424   5.704 -0.2577  0.4300 -0.6234
 1631SOL    HW1 5130   2.041   0.403   5.661  0.3052 -3.0858 -0.2547
 1631SOL    HW2 5131   2.116   0.386   5.792  2.3425 -1.7862 -1.2100
 1632SOL     OW 5132   0.908   4.243   0.200 -0.8918 -0.3409  0.1786
 1632SOL    HW1 5133   0.891   4.246   0.294  1.1505  1.1148  0.5805
 1632SOL    HW2 5134   0.957   4.162   0.187  0.8884  0.5848  0.8293
 1633SOL     OW 5135   4.084   3.543   5.105 -0.5309 -0.2893 -0.0272
 1633SOL    HW1 5136   4.112   3.465   5.154 -0.2131 -1.0581 -1.3929
 1633SOL    HW2 5137   4.152   3.608   5.121 -1.4791  0.2546  2.2709
 1634SOL     OW 5138   5.517   5.603   0.494 -0.1198 -0.5391  0.5492
 1634SOL    HW1 5139   5.527   5.510   0.514 -2.5227 -0.8307  0.7264
 1634SOL    HW2 5140   5.524   5.609   0.399 -0.2311 -0.9531  0.5157
 1635SOL     OW 5141   6.021   1.461   0.370 -0.2528 -0.5945  0.0995
 1635SOL    HW1 5142   6.059   1.520   0.436 -0.2602  0.9589 -1.2101
 1635SOL    HW2 5143   6.006   1.379   0.416 -0.9359  0.6598  2.2051
 1636SOL     OW 5144   5.214   0.687   1.751 -0.1466  0.8849  0.4850
 1636SOL    HW1 5145   5.212   0.742   1.829 -1.9299  0.3417  0.8860
 1636SOL    HW2 5146   5.305   0.686   1.723  0.4512  1.4351  2.3213
 1637SOL     OW 5147   5.907   1.964   2.034 -0.6917 -0.1236  0.3479
 1637SOL    HW1 5148   5.978   2.028   2.026 -2.0673  1.2966 -1.9709
 1637SOL    HW2 5149   5.939   1.887   1.988 -0.9622  0.9007 -1.6788
 1638SOL     OW 5150   5.532   2.686   4.555 -0.2768  0.5757 -0.2859
 1638SOL    HW1 5151   5.501   2.694   4.646  0.3908  0.4067 -0.0390
 1638SOL    HW2 5152   5.473   2.623   4.515  0.1344 -0.2469  0.3644
 1639SOL     OW 5153   5.081   0.326   1.050  0.4788  0.0924 -0.1875
 1639SOL    HW1 5154   5.031   0.308   0.970 -1.9870 -0.7455  1.4086
 1639SOL    HW2 5155   5.014   0.336   1.117  2.4607 -2.0850  2.3292
 1640SOL     OW 5156   1.488   3.520   0.964 -0.0957 -0.6300 -0.2535
 1640SOL    HW1 5157   1.419   3.562   0.914 -0.0291  0.3389  0.4304
 1640SOL    HW2 5158   1.569   3.562   0.934 -0.3070  2.6445  3.0339
 1641SOL     OW 5159   0.526   1.230   0.493 -0.4830  0.3204 -0.6551
 1641SOL    HW1 5160   0.503   1.249   0.584  0.0145  2.2395 -0.8899
 1641SOL    HW2 5161   0.446   1.193   0.455 -1.0884  0.6960  0.2362
 1642SOL     OW 5162   3.371   5.281   0.163 -0.0157 -0.3110  0.3393
 1642SOL    HW1 5163   3.285   5.300   0.201 -0.5599 -1.9930  0.0088
 1642SOL    HW2 5164   3.353   5.252   0.074  1.2012  2.9717 -1.1568
 1643SOL     OW 5165   3.603   0.177   3.987  0.3523 -0.2338 -0.2753
 1643SOL    HW1 5166   3.570   0.190   3.898 -0.2517  1.3378  0.1370
 1643SOL    HW2 5167   3.692   0.144   3.975  0.1977 -0.2743 -1.4562
 1644SOL     OW 5168   0.269   2.236   3.268 -0.0160 -0.2083 -0.2750
 1644SOL    HW1 5169   0.175   2.241   3.249 -0.4154 -0.7240  1.3168
 1644SOL    HW2 5170   0.284   2.143   3.284  0.7875 -0.1311 -0.5629
 1645SOL     OW 5171   0.784   5.212   2.784 -0.0383 -0.1821 -0.0019
 1645SOL    HW1 5172   0.860   5.227   2.728 -1.0994  0.8158 -1.2348
 1645SOL    HW2 5173   0.744   5.132   2.751 -0.4074  0.1610 -0.4040
 1646SOL     OW 5174   4.695   1.307   5.249  0.7510  0.1809  0.1122
 1646SOL    HW1 5175   4.764   1.269   5.303  1.7078  1.9353  0.1668
 1646SOL    HW2 5176   4.730   1.305   5.160  0.8739  1.0505  0.1360
 1647SOL     OW 5177   2.245   0.714   6.080 -0.5569  0.0273 -0.3803
 1647SOL    HW1 5178   2.236   0.667   5.997  1.0624 -2.3972  0.6925
 1647SOL    HW2 5179   2.251   0.645   6.146  0.1996  1.8184  1.5330
 1648SOL     OW 5180   0.064   2.202   2.320  0.0380  0.3828 -0.3326
 1648SOL    HW1 5181   0.029   2.113   2.329 -1.1306  0.9471  1.0439
 1648SOL    HW2 5182   0.156   2.189   2.300 -0.2442 -1.1462 -0.8187
 1649SOL     OW 5183   5.974   4.699   2.672 -0.4013  0.5735  0.0240
 1649SOL    HW1 5184   6.037   4.629   2.653 -0.5135  1.0696 -2.5428
 1649SOL    HW2 5185   6.000   4.770   2.614 -2.3244  1.4246  0.1508
 1650SOL     OW 5186   5.898   5.326   3.799  0.6811 -0.7619 -0.4734
 1650SOL    HW1 5187   5.841   5.249   3.788 -0.3288 -0.3189  1.3376
 1650SOL    HW2 5188   5.889   5.350   3.891  1.4465  1.1741 -0.8539
 1651SOL     OW 5189   4.867   0.336   1.788  0.2497 -0.2943  0.1674
 1651SOL    HW1 5190   4.963   0.343   1.787  0.2864 -0.7487  0.1265
 1651SOL    HW2 5191   4.837   0.420   1.822  0.6158  0.3057 -0.9517
 1652SOL     OW 5192   1.935   0.191   1.215  0.8446  0.0628  0.8697
 1652SOL    HW1 5193   1.884   0.198   1.295  0.0735  1.2642  0.2975
 1652SOL    HW2 5194   1.888   0.245   1.152  1.8496 -0.2590 -0.1834
 1653SOL     OW 5195   0.837   4.788   5.568  0.1945 -0.3423  0.0781
 1653SOL    HW1 5196   0.754   4.745   5.588  0.4150 -0.4482  0.7866
 1653SOL    HW2 5197   0.903   4.738   5.616  0.7735 -0.7130 -1.0724
 1654SOL     OW 5198   5.315   1.184   0.282  0.6542 -0.3798 -0.0708
 1654SOL    HW1 5199   5.272   1.132   0.214  1.6868  0.2366 -1.2362
 1654SOL    HW2 5200   5.372   1.243   0.234 -1.1073  2.5130  1.1032
 1655SOL     OW 5201   3.743   2.609   4.662  0.2551 -0.4977  0.1852
 1655SOL    HW1 5202   3.741   2.515   4.648 -0.0534 -0.3077 -1.2596
 1655SOL    HW2 5203   3.814   2.640   4.605 -0.4723  0.2693 -0.3203
 1656SOL     OW 5204   1.725   1.478   3.580 -0.0385 -0.0855 -0.6889
 1656SOL    HW1 5205   1.746   1.436   3.664 -0.7769  0.9120  0.0200
 1656SOL    HW2 5206   1.745   1.412   3.514  2.0607 -0.3635  0.1576
 1657SOL     OW 5207   2.265   3.514   2.415 -0.0805 -0.0913  0.0552
 1657SOL    HW1 5208   2.247   3.513   2.321 -1.0098  0.4088  0.2143
 1657SOL    HW2 5209   2.311   3.432   2.432  0.4155 -0.0154 -0.8956
 1658SOL     OW 5210   4.498   2.561   2.657 -0.3570  0.1540 -0.6074
 1658SOL    HW1 5211   4.562   2.623   2.621 -1.6621  1.0862 -1.4233
 1658SOL    HW2 5212   4.542   2.521   2.732  0.4654  2.2905  0.1327
 1659SOL     OW 5213   2.632   1.908   4.090  0.2744  0.1706  0.2904
 1659SOL    HW1 5214   2.544   1.924   4.124 -0.4022 -1.5849 -0.5126
 1659SOL    HW2 5215   2.691   1.931   4.162 -0.9199  0.1374  1.3038
 1660SOL     OW 5216   0.764   5.433   1.794  0.1066 -0.0866 -0.0100
 1660SOL    HW1 5217   0.715   5.513   1.775  1.2029  0.2286 -1.7289
 1660SOL    HW2 5218   0.697   5.365   1.800 -0.9215  1.0204  2.2209
 1661SOL     OW 5219   4.083   0.162   3.305 -0.0214  0.1117  0.6089
 1661SOL    HW1 5220   4.042   0.119   3.229  0.6146 -0.5681  0.6404
 1661SOL    HW2 5221   4.031   0.241   3.318  0.0186  0.3953 -0.7223
 1662SOL     OW 5222   2.213   0.285   3.226 -0.5850 -0.7472  0.2918
 1662SOL    HW1 5223   2.180   0.373   3.239  0.0014 -0.5256  0.3461
 1662SOL    HW2 5224   2.157   0.229   3.279 -0.5519 -0.3196  0.7825
 1663SOL     OW 5225   5.654   5.913   0.450  0.5207  0.1291 -0.0899
 1663SOL    HW1 5226   5.633   5.940   0.539  0.4752 -0.8834  0.2231
 1663SOL    HW2 5227   5.569   5.907   0.405  0.4635 -0.2042  0.0578
 1664SOL     OW 5228   0.282   1.490   2.087 -0.4971 -0.5673 -0.0005
 1664SOL    HW1 5229   0.204   1.542   2.106 -0.4225 -0.6988  0.7168
 1664SOL    HW2 5230   0.254   1.428   2.020 -1.3294 -1.3441  1.0399
 1665SOL     OW 5231   2.408   4.239   2.919 -0.1767  0.4298 -0.3252
 1665SOL    HW1 5232   2.405   4.325   2.962  2.7713 -0.1621  1.3546
 1665SOL    HW2 5233   2.364   4.180   2.981  1.7997  0.0197  0.7550
 1666SOL     OW 5234   1.343   0.316   3.877 -0.6663 -0.2644 -0.6143
 1666SOL    HW1 5235   1.255   0.352   3.880 -0.0661  1.2424  0.0749
 1666SOL    HW2 5236   1.389   0.370   3.813  0.3199  0.3856  0.5970
 1667SOL     OW 5237   2.427   2.232   5.625  0.2988 -1.0039  0.2773
 1667SOL    HW1 5238   2.472   2.195   5.549  3.5293  1.5253  0.7032
 1667SOL    HW2 5239   2.389   2.314   5.593 -1.0309 -1.4270  0.7300
 1668SOL     OW 5240   5.092   1.213   5.845  0.0658  0.5028 -0.3411
 1668SOL    HW1 5241   5.049   1.166   5.916 -1.4970  1.7361 -0.4255
 1668SOL    HW2 5242   5.147   1.147   5.802  1.0876 -0.2568  1.9971
 1669SOL     OW 5243   0.692   1.661   2.602 -0.0345 -0.6300  0.3329
 1669SOL    HW1 5244   0.683   1.567   2.620 -1.3023 -0.3721  1.1479
 1669SOL    HW2 5245   0.666   1.704   2.683  0.4844  0.4395 -0.0472
 1670SOL     OW 5246   2.157   2.987   0.216 -0.3626 -0.6008 -0.2296
 1670SOL    HW1 5247   2.223   2.956   0.278 -1.1855 -1.3688  0.2708
 1670SOL    HW2 5248   2.202   2.983   0.131  1.2380  1.7635  0.3927
 1671SOL     OW 5249   5.581   0.492   6.142 -0.0820 -0.0472 -0.0047
 1671SOL    HW1 5250   5.636   0.569   6.158  1.0765 -0.6507 -0.8961
 1671SOL    HW2 5251   5.511   0.499   6.207  0.5367  1.2373  0.5730
 1672SOL     OW 5252   1.129   1.681   4.399 -0.8356 -0.0705 -0.4660
 1672SOL    HW1 5253   1.168   1.613   4.344  1.4242 -0.5599  1.5461
 1672SOL    HW2 5254   1.200   1.709   4.457 -2.5069  1.8739  0.8078
 1673SOL     OW 5255   3.658   0.624   3.257 -0.1610 -0.0304  0.3836
 1673SOL    HW1 5256   3.750   0.645   3.275 -0.1107  0.2495 -0.1869
 1673SOL    HW2 5257   3.621   0.706   3.225 -0.9495  0.2262  1.8562
 1674SOL     OW 5258   4.375   3.913   1.367  0.2105 -0.3472  0.4984
 1674SOL    HW1 5259   4.298   3.886   1.317  0.2933  0.4628 -0.0885
 1674SOL    HW2 5260   4.396   3.837   1.421 -1.7604 -0.1727  1.6259
 1675SOL     OW 5261   0.755   5.005   4.083 -0.6846  0.2802 -0.0182
 1675SOL    HW1 5262   0.747   4.946   4.159 -0.3774  0.6849  0.3335
 1675SOL    HW2 5263   0.711   4.958   4.012 -4.2090  1.3943  1.2352
 1676SOL     OW 5264   3.407   0.153   3.740 -0.4458 -0.4419  1.2525
 1676SOL    HW1 5265   3.429   0.099   3.665  0.6515  0.4531  0.9138
 1676SOL    HW2 5266   3.311   0.149   3.745 -0.3901 -2.8492  1.5928
 1677SOL     OW 5267   5.065   4.669   3.157  0.3047  1.2068 -0.1729
 1677SOL    HW1 5268   5.082   4.725   3.233  2.2058 -0.1492  0.4741
 1677SOL    HW2 5269   5.117   4.706   3.087 -0.3331  1.6229 -0.4388
 1678SOL     OW 5270   4.286   1.114   4.144 -0.1508 -0.1222 -0.2354
 1678SOL    HW1 5271   4.350   1.044   4.130  0.3453  0.3240 -0.2387
 1678SOL    HW2 5272   4.328   1.192   4.106 -1.2522 -0.0804 -1.4343
 1679SOL     OW 5273   1.527   5.823   4.938  1.0268  0.4976 -0.4301
 1679SOL    HW1 5274   1.599   5.779   4.984  1.2453  1.7496  0.4869
 1679SOL    HW2 5275   1.459   5.832   5.004  1.5891  2.9072 -0.0841
 1680SOL     OW 5276   3.559   3.291   4.862 -0.1750 -0.0709 -0.1748
 1680SOL    HW1 5277   3.633   3.252   4.816  0.2965 -0.6488  1.0377
 1680SOL    HW2 5278   3.494   3.221   4.867 -0.1113 -0.1053  0.2650
 1681SOL     OW 5279   1.831   4.810   0.279  0.2078 -0.1330 -0.2410
 1681SOL    HW1 5280   1.758   4.798   0.219  0.7350  0.5566 -1.0416
 1681SOL    HW2 5281   1.827   4.902   0.305  0.8610 -0.0504 -0.4016
 1682SOL     OW 5282   5.418   0.291   1.763  0.1697  0.5193  0.4736
 1682SOL    HW1 5283   5.460   0.204   1.763  0.4992  0.6740  0.9623
 1682SOL    HW2 5284   5.388   0.303   1.853  0.0065  0.8568  0.3747
 1683SOL     OW 5285   3.182   3.617   4.415 -0.6185 -0.6176  0.4391
 1683SOL    HW1 5286   3.249   3.549   4.412 -0.1338 -0.0983 -1.1076
 1683SOL    HW2 5287   3.103   3.571   4.444 -0.2740 -1.8274 -0.4494
 1684SOL     OW 5288   5.795   2.574   5.579  0.4275  0.1799 -0.7868
 1684SOL    HW1 5289   5.753   2.497   5.618 -0.2385 -0.1993 -2.2021
 1684SOL    HW2 5290   5.812   2.632   5.654 -2.6970  0.3946 -0.1224
 1685SOL     OW 5291   2.631   0.618   3.972  0.3339  0.0925 -0.5136
 1685SOL    HW1 5292   2.708   0.666   3.943  1.6175 -0.8346  1.1884
 1685SOL    HW2 5293   2.664   0.531   3.997 -1.5122 -0.8460 -1.1268
 1686SOL     OW 5294   1.924   5.988   1.386 -0.1927 -0.4080  0.5476
 1686SOL    HW1 5295   1.999   5.949   1.431 -0.5729 -2.6508 -0.6086
 1686SOL    HW2 5296   1.865   6.017   1.456  0.8704 -0.4084  1.4536
 1687SOL     OW 5297   1.976   4.198   0.051 -0.1092 -0.1144 -0.6730
 1687SOL    HW1 5298   1.944   4.283   0.020  0.9473  0.0402 -1.3781
 1687SOL    HW2 5299   1.902   4.162   0.100 -1.0611  0.5953 -1.5364
 1688SOL     OW 5300   0.864   5.524   3.926 -0.0964 -0.1243 -0.5322
 1688SOL    HW1 5301   0.828   5.446   3.883 -1.4193 -2.0582  3.4768
 1688SOL    HW2 5302   0.946   5.493   3.966 -1.6613 -0.3788  2.9006
 1689SOL     OW 5303   5.019   4.087   3.687  0.5185  0.2401  0.1252
 1689SOL    HW1 5304   5.091   4.025   3.697  0.8962  0.5020 -0.8861
 1689SOL    HW2 5305   5.061   4.173   3.686  0.5264  0.3017 -2.9691
 1690SOL     OW 5306   5.430   5.286   2.777  0.0993  0.0341  0.0582
 1690SOL    HW1 5307   5.406   5.286   2.869  0.9697 -0.2406  0.2938
 1690SOL    HW2 5308   5.354   5.325   2.732 -0.0456  0.8311  0.9631
 1691SOL     OW 5309   2.092   3.007   4.229 -0.1210 -0.3384  0.0718
 1691SOL    HW1 5310   2.003   3.039   4.242  0.5727  1.3271  1.0244
 1691SOL    HW2 5311   2.144   3.052   4.296  1.2803 -2.0272  0.2008
 1692SOL     OW 5312   0.422   0.147   4.280  0.4460  0.2209  0.1332
 1692SOL    HW1 5313   0.440   0.172   4.371 -0.9061  0.6881  0.2939
 1692SOL    HW2 5314   0.382   0.060   4.286  0.4934  0.1867 -0.0286
 1693SOL     OW 5315   4.519   0.831   3.208 -0.0313 -0.7431 -0.2244
 1693SOL    HW1 5316   4.542   0.782   3.129  0.3813 -1.3901  0.2797
 1693SOL    HW2 5317   4.436   0.874   3.187 -0.5912 -1.9439 -0.5791
 1694SOL     OW 5318   2.733   0.852   1.689  0.1131 -0.1020 -0.1969
 1694SOL    HW1 5319   2.812   0.906   1.694  0.2947 -0.2387 -1.2439
 1694SOL    HW2 5320   2.749   0.778   1.747 -0.5403  1.4334  2.0525
 1695SOL     OW 5321   5.170   4.968   4.815 -0.0874  0.4706 -0.2625
 1695SOL    HW1 5322   5.084   4.931   4.833  0.2974 -0.5571 -0.4860
 1695SOL    HW2 5323   5.156   5.026   4.740 -0.5578  0.1873 -0.4007
 1696SOL     OW 5324   3.144   3.024   5.625  0.1769 -0.7329 -0.4758
 1696SOL    HW1 5325   3.104   3.111   5.635 -0.4079 -0.9524 -0.8025
 1696SOL    HW2 5326   3.238   3.040   5.626  0.1345 -0.3484  1.6561
 1697SOL     OW 5327   1.160   5.908   0.456  0.2000  0.5604  0.4373
 1697SOL    HW1 5328   1.163   5.908   0.361 -1.5305 -0.2758  0.3252
 1697SOL    HW2 5329   1.173   5.999   0.482  2.2214  0.5656 -0.4871
 1698SOL     OW 5330   1.238   0.556   5.556 -0.1152  0.2199 -0.3447
 1698SOL    HW1 5331   1.238   0.460   5.559 -0.7798  0.2433  0.8272
 1698SOL    HW2 5332   1.277   0.583   5.639 -0.5161  0.9679 -0.3893
 1699SOL     OW 5333   1.535   3.795   5.841  0.0337 -0.4359 -0.1668
 1699SOL    HW1 5334   1.628   3.816   5.847 -0.2107  0.3241  1.4686
 1699SOL    HW2 5335   1.532   3.712   5.793  1.6673 -1.2915  1.1244
 1700SOL     OW 5336   4.999   1.666   4.439  0.0218 -0.0945  0.3720
 1700SOL    HW1 5337   5.058   1.736   4.410  1.6867 -2.0910 -1.3772
 1700SOL    HW2 5338   4.933   1.661   4.371  0.6260 -0.9983 -0.1709
 1701SOL     OW 5339   3.331   3.887   1.349 -0.2082  0.7647 -0.2810
 1701SOL    HW1 5340   3.310   3.796   1.329 -0.3308  0.5353  0.8813
 1701SOL    HW2 5341   3.421   3.897   1.318  0.3508 -0.1961  0.9735
 1702SOL     OW 5342   0.765   2.560   0.246  0.3763 -0.1359 -0.4289
 1702SOL    HW1 5343   0.833   2.511   0.293 -1.0718 -0.6593  1.2327
 1702SOL    HW2 5344   0.718   2.493   0.196 -0.0594 -0.0810 -0.1013
 1703SOL     OW 5345   0.508   0.610   5.694  0.3977  0.6365  0.2833
 1703SOL    HW1 5346   0.434   0.653   5.736  0.8391 -1.1297  3.0726
 1703SOL    HW2 5347   0.470   0.537   5.646 -0.0727  2.4871 -2.3959
 1704SOL     OW 5348   3.037   5.368   3.460  0.1203  0.2768  0.1087
 1704SOL    HW1 5349   3.064   5.293   3.512  1.0462  1.0715  0.8241
 1704SOL    HW2 5350   2.946   5.350   3.436 -0.6083  0.2236  2.6883
 1705SOL     OW 5351   4.484   4.964   1.590  0.2421  0.1105  0.0131
 1705SOL    HW1 5352   4.492   4.881   1.543  1.6069  0.1253  0.1788
 1705SOL    HW2 5353   4.451   4.940   1.676 -4.1822  0.2450 -1.3708
 1706SOL     OW 5354   2.758   2.067   4.592  0.4318  0.0133  0.3912
 1706SOL    HW1 5355   2.678   2.053   4.642 -0.4060  0.4291 -0.7863
 1706SOL    HW2 5356   2.819   2.105   4.655 -0.6815  0.7838  1.0542
 1707SOL     OW 5357   4.130   5.733   2.758 -0.0411  0.1263 -0.5319
 1707SOL    HW1 5358   4.102   5.659   2.812 -1.5689  0.4105 -0.9081
 1707SOL    HW2 5359   4.167   5.796   2.819  0.1484 -0.4238 -0.0734
 1708SOL     OW 5360   4.104   0.387   5.742  0.4666 -0.2775  0.1126
 1708SOL    HW1 5361   4.054   0.462   5.708 -0.5845 -0.3832  1.3484
 1708SOL    HW2 5362   4.075   0.313   5.689 -0.4242 -0.2678  0.5683
 1709SOL     OW 5363   0.981   1.098   0.727 -0.3279 -0.4244  0.4076
 1709SOL    HW1 5364   0.910   1.106   0.663  0.3318  0.2058 -0.2767
 1709SOL    HW2 5365   1.055   1.065   0.675  0.7578  1.8205  0.3996
 1710SOL     OW 5366   5.895   4.221   3.336  0.1254 -0.0125  0.1304
 1710SOL    HW1 5367   5.815   4.199   3.383 -0.5217  1.3393 -0.2848
 1710SOL    HW2 5368   5.899   4.316   3.339  1.4954 -0.0424 -0.2350
 1711SOL     OW 5369   5.093   6.104   5.947 -0.3908 -0.6187  0.1973
 1711SOL    HW1 5370   5.049   6.188   5.957  0.5069 -0.0317 -0.5639
 1711SOL    HW2 5371   5.022   6.040   5.940 -1.1029 -0.2246  2.7752
 1712SOL     OW 5372   4.858   1.970   4.517  0.8848 -0.8781  0.1394
 1712SOL    HW1 5373   4.785   1.927   4.562  1.7404 -1.9111  0.6056
 1712SOL    HW2 5374   4.842   1.953   4.424  1.4198 -2.6426  0.3307
 1713SOL     OW 5375   2.928   4.909   3.007  0.3137 -0.4432  0.0157
 1713SOL    HW1 5376   2.951   4.960   2.930 -0.0091 -0.7076 -0.2552
 1713SOL    HW2 5377   2.839   4.878   2.990  0.6081 -1.3308  0.0531
 1714SOL     OW 5378   2.481   3.175   3.473 -0.0460 -0.2409  0.3425
 1714SOL    HW1 5379   2.475   3.253   3.418 -1.1742  0.1695  1.0162
 1714SOL    HW2 5380   2.390   3.154   3.496  0.2196 -1.8784  0.0097
 1715SOL     OW 5381   2.547   3.015   5.882 -0.5915  0.2467 -0.6490
 1715SOL    HW1 5382   2.571   2.959   5.955 -1.0742 -1.1560 -1.5185
 1715SOL    HW2 5383   2.557   3.105   5.915  2.1660 -0.2887  0.1649
 1716SOL     OW 5384   2.450   3.429   0.323  0.3009  0.1933 -0.0420
 1716SOL    HW1 5385   2.515   3.385   0.379  0.3005  1.2731  0.8262
 1716SOL    HW2 5386   2.380   3.454   0.383 -0.3235  0.1964 -0.7643
 1717SOL     OW 5387   2.032   4.213   2.031 -0.0855  0.2432  0.0136
 1717SOL    HW1 5388   2.030   4.196   1.937  0.2912 -1.1314  0.2355
 1717SOL    HW2 5389   2.089   4.145   2.067 -0.9474  0.1820  1.3498
 1718SOL     OW 5390   1.848   2.119   3.463  0.4347 -0.2649  0.1510
 1718SOL    HW1 5391   1.919   2.141   3.524  0.8435  0.5182 -0.5966
 1718SOL    HW2 5392   1.871   2.162   3.381 -0.6872 -0.3639 -0.2420
 1719SOL     OW 5393   3.955   3.792   3.762 -0.4954  0.4746  0.7714
 1719SOL    HW1 5394   3.923   3.801   3.852 -1.8371  1.6053  0.2136
 1719SOL    HW2 5395   4.049   3.779   3.772 -0.7545 -0.5256  2.3767
 1720SOL     OW 5396   0.836   6.121   3.049  0.5525  0.4832  0.2070
 1720SOL    HW1 5397   0.818   6.066   2.972 -0.3083  1.4272 -0.2755
 1720SOL    HW2 5398   0.932   6.128   3.050  0.7382 -1.5164  0.6408
 1721SOL     OW 5399   4.840   3.811   6.092  0.1967 -0.2402  0.3752
 1721SOL    HW1 5400   4.751   3.836   6.067  1.0025  1.5850 -0.8613
 1721SOL    HW2 5401   4.850   3.842   6.182  0.2472  1.4956 -0.1990
 1722SOL     OW 5402   3.412   1.747   1.730 -0.0851 -0.1435 -0.2567
 1722SOL    HW1 5403   3.507   1.756   1.730 -0.0349 -0.6642 -0.1519
 1722SOL    HW2 5404   3.384   1.790   1.649  0.5199 -2.7673 -1.9870
 1723SOL     OW 5405   0.950   1.283   6.027 -0.8376 -0.0678 -0.1423
 1723SOL    HW1 5406   0.971   1.201   5.982 -0.0646  1.3778 -2.6203
 1723SOL    HW2 5407   1.011   1.287   6.100 -0.0940 -1.1582 -0.6760
 1724SOL     OW 5408   4.242   3.479   0.341 -0.1341 -1.0682 -0.1368
 1724SOL    HW1 5409   4.201   3.496   0.256  0.1483 -2.7678 -0.6480
 1724SOL    HW2 5410   4.319   3.536   0.342 -1.7104  1.1981  0.2937
 1725SOL     OW 5411   2.007   1.776   1.446  0.6276  0.3123 -0.0279
 1725SOL    HW1 5412   1.986   1.866   1.470  0.2321  0.6425 -1.4789
 1725SOL    HW2 5413   2.102   1.771   1.447  0.6592 -0.1888  3.1573
 1726SOL     OW 5414   4.510   0.547   1.873 -0.4890  0.1247  0.2914
 1726SOL    HW1 5415   4.603   0.563   1.860 -0.6021  1.0426  0.5318
 1726SOL    HW2 5416   4.503   0.452   1.881  0.5379  0.0875  1.0659
 1727SOL     OW 5417   1.155   0.108   4.997  0.6135 -0.1482 -0.4999
 1727SOL    HW1 5418   1.250   0.104   4.991  0.5879  0.6484 -2.2384
 1727SOL    HW2 5419   1.124   0.065   4.917 -0.3816  1.8897 -1.2838
 1728SOL     OW 5420   0.413   4.194   0.969  0.2750  0.3224  0.4888
 1728SOL    HW1 5421   0.341   4.133   0.955  0.8213 -0.1307 -0.4413
 1728SOL    HW2 5422   0.456   4.163   1.049 -0.1424  0.1808  0.6583
 1729SOL     OW 5423   2.345   2.146   4.508  0.0242 -0.3502 -0.9824
 1729SOL    HW1 5424   2.346   2.140   4.603  0.3298  0.5617 -0.9184
 1729SOL    HW2 5425   2.277   2.211   4.488 -0.3386 -0.8536 -1.4059
 1730SOL     OW 5426   0.674   3.161   1.536 -0.4710  0.3227  0.0165
 1730SOL    HW1 5427   0.593   3.133   1.580  0.2460 -1.3266  0.3738
 1730SOL    HW2 5428   0.692   3.091   1.473  1.2628  0.0728  0.7350
 1731SOL     OW 5429   1.496   4.265   5.625  0.4239  0.2497 -0.1188
 1731SOL    HW1 5430   1.587   4.272   5.654  0.7115 -0.2268 -0.8898
 1731SOL    HW2 5431   1.493   4.184   5.574 -0.3892  0.3542 -0.2448
 1732SOL     OW 5432   3.586   3.609   2.523  0.3725 -0.1215  0.4867
 1732SOL    HW1 5433   3.651   3.538   2.527  1.7308  0.5622 -3.7172
 1732SOL    HW2 5434   3.638   3.689   2.536 -0.3971  0.2806  1.1259
 1733SOL     OW 5435   2.897   5.032   5.991 -0.2154  0.7096  0.2159
 1733SOL    HW1 5436   2.867   5.010   5.902 -0.0760 -1.2140  0.5964
 1733SOL    HW2 5437   2.828   5.088   6.026 -1.3780 -0.3127 -0.3509
 1734SOL     OW 5438   5.931   1.469   1.835 -0.0933 -0.2438 -0.0337
 1734SOL    HW1 5439   5.890   1.387   1.863 -0.4296 -0.0547  0.0351
 1734SOL    HW2 5440   5.879   1.498   1.760 -0.0686 -0.0141  0.0357
 1735SOL     OW 5441   0.416   4.695   6.068 -0.2990  0.0604  0.0359
 1735SOL    HW1 5442   0.402   4.602   6.083 -1.1835  0.2521  0.4614
 1735SOL    HW2 5443   0.458   4.727   6.148 -2.9468  0.6339  1.3104
 1736SOL     OW 5444   3.833   0.484   0.311 -0.6725 -0.0538  0.6551
 1736SOL    HW1 5445   3.839   0.570   0.268 -0.5588  0.2174  1.1991
 1736SOL    HW2 5446   3.922   0.450   0.307 -0.3375  0.6206  1.9704
 1737SOL     OW 5447   2.111   2.447   5.294  0.6018 -0.0368  0.3809
 1737SOL    HW1 5448   2.086   2.481   5.208  1.0360 -0.2895  0.1504
 1737SOL    HW2 5449   2.052   2.490   5.356  0.2756  0.1299 -0.0482
 1738SOL     OW 5450   1.453   3.500   5.006  0.3418  0.5922  0.0491
 1738SOL    HW1 5451   1.408   3.584   5.003  0.1141  0.4651 -0.2450
 1738SOL    HW2 5452   1.389   3.438   4.971  0.8981  0.4727 -0.7782
 1739SOL     OW 5453   2.655   5.937   1.906  0.2975 -0.1297 -0.3127
 1739SOL    HW1 5454   2.582   5.902   1.856 -1.0457 -0.3051  1.6456
 1739SOL    HW2 5455   2.708   5.860   1.928  0.7758 -0.0771 -1.2620
 1740SOL     OW 5456   5.278   4.542   2.117 -0.5578 -0.1340  0.3524
 1740SOL    HW1 5457   5.272   4.541   2.213 -1.3792 -0.7588  0.3073
 1740SOL    HW2 5458   5.371   4.542   2.098 -0.3911 -0.5837  1.1490
 1741SOL     OW 5459   0.535   1.058   5.063 -0.8744 -0.4375  0.0412
 1741SOL    HW1 5460   0.582   1.007   5.129  0.1284  0.1896 -0.1717
 1741SOL    HW2 5461   0.443   1.036   5.078 -0.6408 -0.6323  1.3838
 1742SOL     OW 5462   2.884   2.967   1.822  0.3227 -0.2364 -0.1764
 1742SOL    HW1 5463   2.939   2.889   1.826  0.4624 -0.0868  1.2952
 1742SOL    HW2 5464   2.796   2.933   1.803  0.4362 -0.7437  0.1801
 1743SOL     OW 5465   4.444   2.360   1.589  0.4634  0.5651 -0.0878
 1743SOL    HW1 5466   4.371   2.420   1.601  0.3368  0.2836  0.5755
 1743SOL    HW2 5467   4.521   2.417   1.585  0.4939  0.7110  1.8667
 1744SOL     OW 5468   3.455   4.601   0.503 -0.1286  0.3280 -0.3962
 1744SOL    HW1 5469   3.482   4.513   0.474  0.4206  0.4920 -0.3864
 1744SOL    HW2 5470   3.389   4.584   0.571  0.8800 -0.1031  0.5106
 1745SOL     OW 5471   4.642   2.934   4.115  0.2179  0.0173 -0.1658
 1745SOL    HW1 5472   4.566   2.967   4.065  0.0090  0.3047  0.3340
 1745SOL    HW2 5473   4.604   2.903   4.197  0.2490 -2.4892 -1.0146
 1746SOL     OW 5474   4.082   0.148   2.421  0.2359  0.4180  0.1096
 1746SOL    HW1 5475   4.036   0.074   2.383  0.9184 -0.6037  1.2174
 1746SOL    HW2 5476   4.067   0.140   2.515 -0.3005  2.1265  0.2190
 1747SOL     OW 5477   5.513   4.900   2.576  0.2527  0.1842 -0.3890
 1747SOL    HW1 5478   5.571   4.942   2.639 -0.0043 -0.3244  0.1979
 1747SOL    HW2 5479   5.570   4.844   2.523  1.2449  3.6786 -3.4855
 1748SOL     OW 5480   0.929   1.116   4.077  0.8598  0.0649 -0.3887
 1748SOL    HW1 5481   1.017   1.132   4.044  1.6926  3.3020  2.7220
 1748SOL    HW2 5482   0.939   1.114   4.173 -2.4980  1.4406  0.1298
 1749SOL     OW 5483   0.917   5.693   4.334  0.0610  0.2698  0.0695
 1749SOL    HW1 5484   1.010   5.708   4.316 -0.0727  0.0895 -0.8499
 1749SOL    HW2 5485   0.910   5.599   4.349  0.2844  0.5120  1.8953
 1750SOL     OW 5486   2.838   4.498   3.264 -0.0342  0.3342  0.0747
 1750SOL    HW1 5487   2.772   4.437   3.230 -1.4346  2.0711 -0.4217
 1750SOL    HW2 5488   2.804   4.525   3.349  1.3210 -0.6476  0.9771
 1751SOL     OW 5489   0.568   5.213   1.810 -0.1410 -0.1545 -0.4857
 1751SOL    HW1 5490   0.495   5.176   1.761 -1.1690 -1.9179  2.1728
 1751SOL    HW2 5491   0.622   5.138   1.835  0.5773  0.7142  0.6981
 1752SOL     OW 5492   1.241   1.194   0.853 -0.2963  0.3519  0.7265
 1752SOL    HW1 5493   1.311   1.251   0.819  0.6553 -0.6080  1.0163
 1752SOL    HW2 5494   1.248   1.203   0.949 -1.4230  1.2361  0.7378
 1753SOL     OW 5495   2.097   1.893   1.798 -0.4331  0.0479  0.1111
 1753SOL    HW1 5496   2.130   1.959   1.737 -1.0259 -0.2266 -0.5186
 1753SOL    HW2 5497   2.108   1.933   1.884 -0.2317  0.7284 -0.2192
 1754SOL     OW 5498   1.671   1.072   4.757 -0.0569  0.0828  0.7088
 1754SOL    HW1 5499   1.605   1.043   4.820 -1.3849  1.8716  0.2360
 1754SOL    HW2 5500   1.655   1.019   4.679 -1.6604  1.1829  0.2506
 1755SOL     OW 5501   2.891   1.629   2.642 -0.0164 -0.0535 -0.4341
 1755SOL    HW1 5502   2.908   1.568   2.713 -3.3484  1.0861  1.6118
 1755SOL    HW2 5503   2.796   1.629   2.632 -0.0018  2.9544 -2.0104
 1756SOL     OW 5504   5.585   2.547   2.833 -0.0416 -0.0296 -0.7775
 1756SOL    HW1 5505   5.495   2.571   2.814  0.3802  1.9658 -0.4715
 1756SOL    HW2 5506   5.621   2.519   2.748 -0.8140 -0.4124 -0.9817
 1757SOL     OW 5507   4.521   5.837   4.313 -0.2464  0.6244 -0.2803
 1757SOL    HW1 5508   4.428   5.819   4.326  0.2252 -2.0094 -0.0361
 1757SOL    HW2 5509   4.548   5.885   4.391 -0.8570 -0.9759  0.9591
 1758SOL     OW 5510   2.108   1.890   4.512 -0.9402  0.0380 -0.4984
 1758SOL    HW1 5511   2.131   1.842   4.592 -0.0203  1.2698 -0.0005
 1758SOL    HW2 5512   2.095   1.821   4.446 -0.1244 -0.9194  0.3078
 1759SOL     OW 5513   1.017   2.149   4.000 -0.0517  0.6112 -0.3489
 1759SOL    HW1 5514   1.004   2.161   4.094 -0.3365  0.1158 -0.3228
 1759SOL    HW2 5515   1.096   2.200   3.981  0.3622  0.2264  0.2720
 1760SOL     OW 5516   0.907   5.120   2.383 -0.0084  0.3515 -0.0295
 1760SOL    HW1 5517   0.842   5.060   2.346  1.8987 -1.7141 -0.2857
 1760SOL    HW2 5518   0.949   5.159   2.307  1.5847 -1.2756 -0.0500
 1761SOL     OW 5519   4.686   5.322   3.857  0.2685  0.2316 -0.0193
 1761SOL    HW1 5520   4.645   5.395   3.904  0.5918 -0.2090  0.9808
 1761SOL    HW2 5521   4.754   5.363   3.805 -0.9631  0.8888 -1.1748
 1762SOL     OW 5522   4.382   3.650   4.678 -0.0207 -0.0254  0.2587
 1762SOL    HW1 5523   4.400   3.596   4.602  0.1724  0.3052  0.0699
 1762SOL    HW2 5524   4.443   3.619   4.745 -0.6423 -0.7671  0.4987
 1763SOL     OW 5525   3.272   2.572   4.407  0.5934 -0.4948 -0.0507
 1763SOL    HW1 5526   3.209   2.508   4.443 -1.0222  1.0951  0.0774
 1763SOL    HW2 5527   3.320   2.604   4.483  1.6435 -1.7281 -0.1517
 1764SOL     OW 5528   3.934   0.026   5.090 -0.1450  0.8318  0.1196
 1764SOL    HW1 5529   3.857  -0.003   5.138  0.8758 -0.0189  1.3360
 1764SOL    HW2 5530   3.900   0.064   5.010 -1.8617  1.2363  0.9921
 1765SOL     OW 5531   3.296   6.048   1.241 -0.0308 -0.5745  0.0056
 1765SOL    HW1 5532   3.218   6.066   1.293 -1.0751 -1.4435 -1.1854
 1765SOL    HW2 5533   3.363   6.027   1.305 -0.8537 -0.1114  1.0538
 1766SOL     OW 5534   5.564   3.170   2.869 -0.1647 -0.0276 -0.5546
 1766SOL    HW1 5535   5.636   3.234   2.874 -1.6584  1.6639  0.4675
 1766SOL    HW2 5536   5.494   3.209   2.920 -1.0728 -2.6685  0.4025
 1767SOL     OW 5537   3.004   5.958   5.533  0.6725 -0.1098 -0.2314
 1767SOL    HW1 5538   3.066   5.888   5.553 -0.3150 -1.0775 -0.3851
 1767SOL    HW2 5539   2.959   5.975   5.616  1.6605  1.1320  0.0591
 1768SOL     OW 5540   3.467   1.071   1.227 -0.0095  0.0895 -0.0443
 1768SOL    HW1 5541   3.478   1.065   1.322 -1.5911 -0.2609  0.1475
 1768SOL    HW2 5542   3.419   0.991   1.204 -0.8533  0.8264 -0.9207
 1769SOL     OW 5543   0.049   3.770   2.353  0.2388 -0.1703  0.1063
 1769SOL    HW1 5544   0.047   3.810   2.266 -0.1821  1.6069  0.9028
 1769SOL    HW2 5545  -0.015   3.699   2.348  0.2548 -0.1278 -1.0368
 1770SOL     OW 5546   5.163   1.000   2.391 -0.5402 -0.0307  0.5079
 1770SOL    HW1 5547   5.110   1.080   2.399 -2.1925 -1.0695  0.3839
 1770SOL    HW2 5548   5.232   1.011   2.456 -1.2647  1.1065  1.1195
 1771SOL     OW 5549   2.235   0.912   4.904 -0.0116 -0.0188 -0.1456
 1771SOL    HW1 5550   2.147   0.951   4.898  0.7283  1.5817 -1.3063
 1771SOL    HW2 5551   2.239   0.852   4.829  0.0618  0.3355 -0.4323
 1772SOL     OW 5552   3.958   4.271   1.112  0.4732 -0.1314  0.3466
 1772SOL    HW1 5553   3.956   4.183   1.074  1.1761 -0.8541  1.8851
 1772SOL    HW2 5554   4.025   4.266   1.181 -0.3813  1.2358  1.3293
 1773SOL     OW 5555   0.494   3.079   2.800  0.4334 -0.1835  0.0782
 1773SOL    HW1 5556   0.401   3.100   2.791  0.3447 -0.2057  0.8912
 1773SOL    HW2 5557   0.500   2.987   2.776  0.1038 -0.4111  0.8415
 1774SOL     OW 5558   2.643   5.269   0.734 -0.2793  0.3509 -0.1949
 1774SOL    HW1 5559   2.631   5.331   0.662 -2.4744  1.5062  1.0607
 1774SOL    HW2 5560   2.601   5.189   0.705 -0.5180  0.5782 -0.4781
 1775SOL     OW 5561   4.362   4.137   1.042  0.2563  0.3340  1.0992
 1775SOL    HW1 5562   4.358   4.212   0.982 -0.4279 -1.2118 -0.8908
 1775SOL    HW2 5563   4.320   4.168   1.122 -1.8170  1.5112 -0.3483
 1776SOL     OW 5564   4.166   5.952   0.545 -0.5156 -0.0032 -0.0528
 1776SOL    HW1 5565   4.213   5.997   0.474  0.4210  0.4743  0.8411
 1776SOL    HW2 5566   4.227   5.953   0.618 -1.1443 -1.2461  0.5151
 1777SOL     OW 5567   5.741   3.711   3.167 -0.4179 -0.1980 -0.4629
 1777SOL    HW1 5568   5.730   3.622   3.132 -1.3999 -0.7462  1.1179
 1777SOL    HW2 5569   5.667   3.760   3.131  0.1430  0.0032 -1.3629
 1778SOL     OW 5570   3.772   0.227   4.230 -0.5127 -0.7197 -0.1548
 1778SOL    HW1 5571   3.701   0.235   4.167  0.4962 -0.9257 -1.3517
 1778SOL    HW2 5572   3.824   0.153   4.199  0.5994 -0.1666  0.3169
 1779SOL     OW 5573   0.528   3.196   6.069 -0.3309 -0.2323  0.1999
 1779SOL    HW1 5574   0.450   3.245   6.041  1.2123  0.8106 -2.6355
 1779SOL    HW2 5575   0.545   3.228   6.157 -1.9399  1.0183  0.1217
 1780SOL     OW 5576   5.970   2.046   4.996 -0.4923  0.2723  0.5022
 1780SOL    HW1 5577   5.944   2.126   5.042  0.5091  1.5130 -0.9830
 1780SOL    HW2 5578   5.936   1.975   5.050 -1.8085  1.6981  1.6407
 1781SOL     OW 5579   0.769   4.331   2.619  0.1912  0.5995 -0.0770
 1781SOL    HW1 5580   0.791   4.365   2.532  1.5399  2.2833  0.8589
 1781SOL    HW2 5581   0.843   4.275   2.642  0.2042  0.7552  0.2713
 1782SOL     OW 5582   0.203   2.487   3.739 -0.0150 -0.0037  0.0851
 1782SOL    HW1 5583   0.208   2.464   3.646  0.5922  2.2893 -0.5147
 1782SOL    HW2 5584   0.295   2.494   3.767 -0.0845  2.6312 -0.1053
 1783SOL     OW 5585   5.898   5.095   1.605  0.6155 -0.5116  0.1031
 1783SOL    HW1 5586   5.931   5.031   1.542  2.1836  1.1713 -0.8755
 1783SOL    HW2 5587   5.906   5.179   1.560 -2.8197  0.3155  0.7368
 1784SOL     OW 5588   0.746   4.992   2.186 -0.3659 -0.0120 -0.5893
 1784SOL    HW1 5589   0.710   4.914   2.230 -0.3089  1.0957  1.5699
 1784SOL    HW2 5590   0.726   4.979   2.094 -0.5334 -2.4958 -0.2747
 1785SOL     OW 5591   2.257   2.860   4.065  0.1659 -0.4417  0.2465
 1785SOL    HW1 5592   2.193   2.911   4.115 -0.1105 -0.2522 -0.2862
 1785SOL    HW2 5593   2.327   2.840   4.128  0.3161  0.6582  0.4590
 1786SOL     OW 5594   5.322   2.249   0.674 -0.0114 -0.2121  0.6645
 1786SOL    HW1 5595   5.345   2.321   0.733 -0.1964 -0.6720  1.2931
 1786SOL    HW2 5596   5.257   2.287   0.615  0.4989  0.3735  0.4680
 1787SOL     OW 5597   3.771   4.016   3.308  0.1635  0.0105 -0.1540
 1787SOL    HW1 5598   3.680   3.993   3.287 -0.2431  1.8765 -0.6184
 1787SOL    HW2 5599   3.772   4.111   3.310  2.0897  0.0309  0.0344
 1788SOL     OW 5600   5.962   4.620   1.788  0.1088 -0.4752 -0.0067
 1788SOL    HW1 5601   5.960   4.710   1.754 -0.3205 -0.0871  1.0206
 1788SOL    HW2 5602   5.971   4.566   1.709 -1.3067  0.3740 -0.8051
 1789SOL     OW 5603   5.501   2.374   3.536  0.0868 -0.3750 -0.5237
 1789SOL    HW1 5604   5.415   2.393   3.498  0.4809 -0.2179 -1.3757
 1789SOL    HW2 5605   5.486   2.371   3.630 -1.2228 -2.2598 -0.7518
 1790SOL     OW 5606   5.733   5.187   5.067  0.1271 -0.2731  0.2844
 1790SOL    HW1 5607   5.805   5.196   5.004 -1.2468  0.8250 -1.2400
 1790SOL    HW2 5608   5.762   5.121   5.129  2.8938  0.9093  0.3770
 1791SOL     OW 5609   3.598   2.318   0.241 -0.1103 -0.1195 -0.0263
 1791SOL    HW1 5610   3.520   2.373   0.245  0.3158  0.4809  0.1661
 1791SOL    HW2 5611   3.665   2.375   0.201  0.6835 -0.0675  1.3105
 1792SOL     OW 5612   5.735   2.184   4.209  0.0266  0.7540  0.2342
 1792SOL    HW1 5613   5.793   2.259   4.197  2.3751 -0.9767  0.1330
 1792SOL    HW2 5614   5.735   2.140   4.124 -0.3856 -0.0058  0.6190
 1793SOL     OW 5615   2.347   1.278   0.318  0.5008  0.1195  0.5492
 1793SOL    HW1 5616   2.285   1.348   0.332  1.9107  1.2823  1.2611
 1793SOL    HW2 5617   2.341   1.259   0.224 -0.9249  0.1600  0.6170
 1794SOL     OW 5618   1.089   5.355   3.900 -0.3001 -0.2611 -0.1265
 1794SOL    HW1 5619   1.108   5.353   3.806  1.2143 -0.7640  0.1650
 1794SOL    HW2 5620   1.058   5.266   3.920 -0.8736 -0.0789 -0.1874
 1795SOL     OW 5621   6.120   3.314   1.354  0.4539  0.2734  0.3011
 1795SOL    HW1 5622   6.168   3.331   1.435  1.1782  1.2560 -0.3105
 1795SOL    HW2 5623   6.032   3.348   1.371 -0.6667 -3.0382  2.0337
 1796SOL     OW 5624   3.059   3.446   1.588  0.6989 -0.4471 -0.3906
 1796SOL    HW1 5625   3.063   3.461   1.682 -0.7075 -0.9419 -0.2348
 1796SOL    HW2 5626   3.148   3.420   1.564  1.3386  0.7432  0.5924
 1797SOL     OW 5627   5.760   1.116   4.005 -0.1433  0.3672  0.8372
 1797SOL    HW1 5628   5.715   1.190   3.964 -0.3714  0.0644  0.5362
 1797SOL    HW2 5629   5.804   1.154   4.081  1.6828  1.2905 -0.5714
 1798SOL     OW 5630   5.926   0.413   3.853 -0.3358 -0.0133  0.5549
 1798SOL    HW1 5631   5.892   0.332   3.814  0.5447 -0.0093 -0.2300
 1798SOL    HW2 5632   5.876   0.482   3.811 -2.3277 -0.1721  2.4591
 1799SOL     OW 5633   1.053   0.918   1.257  0.2267  0.8354 -0.0618
 1799SOL    HW1 5634   1.082   0.899   1.168  0.6619 -1.8261  0.5712
 1799SOL    HW2 5635   1.133   0.937   1.305  0.0875  1.3418 -0.0288
 1800SOL     OW 5636   3.374   0.288   1.271  0.3350 -0.3321  0.7177
 1800SOL    HW1 5637   3.430   0.318   1.199 -0.7380  0.5482  0.2142
 1800SOL    HW2 5638   3.434   0.272   1.343  1.2541  0.4008  0.1440
 1801SOL     OW 5639   5.514   5.364   1.206  0.1730 -0.5149  0.0391
 1801SOL    HW1 5640   5.467   5.350   1.288  1.1885  0.9077  0.9246
 1801SOL    HW2 5641   5.471   5.307   1.143 -1.1638 -1.0353  1.3660
 1802SOL     OW 5642   6.137   6.005   1.888 -0.7627 -0.5743 -0.2966
 1802SOL    HW1 5643   6.160   6.050   1.806 -1.3761 -0.4232 -0.3892
 1802SOL    HW2 5644   6.205   5.938   1.898 -0.4467 -0.3214 -0.7123
 1803SOL     OW 5645   2.117   2.616   5.066 -0.2419 -0.4748  0.2181
 1803SOL    HW1 5646   2.183   2.631   4.999  0.1729 -0.8486  0.5369
 1803SOL    HW2 5647   2.046   2.570   5.020 -0.0567 -0.5314 -0.0109
 1804SOL     OW 5648   5.364   2.498   5.791 -0.3844  0.2754 -0.0684
 1804SOL    HW1 5649   5.391   2.590   5.789 -1.2675  0.5349 -0.3207
 1804SOL    HW2 5650   5.367   2.470   5.700 -0.3051  0.1090 -0.0148
 1805SOL     OW 5651   0.187   5.281   4.951  0.6229  0.4107 -0.0895
 1805SOL    HW1 5652   0.269   5.327   4.933  0.9337 -0.4837 -1.0574
 1805SOL    HW2 5653   0.205   5.189   4.930 -0.0811 -0.1262  1.4863
 1806SOL     OW 5654   4.541   4.061   0.300 -0.7765  0.6997 -0.1694
 1806SOL    HW1 5655   4.635   4.056   0.280 -0.9457 -1.5344 -0.6911
 1806SOL    HW2 5656   4.534   4.029   0.390 -1.1583 -0.7509 -0.6853
 1807SOL     OW 5657   4.209   3.356   1.874  0.2553 -0.6122 -0.1678
 1807SOL    HW1 5658   4.155   3.331   1.949 -0.4266 -2.2251 -1.1387
 1807SOL    HW2 5659   4.243   3.273   1.840  0.4097  0.0565 -1.7398
 1808SOL     OW 5660   3.487   2.393   5.885  0.2698  0.6211 -0.1923
 1808SOL    HW1 5661   3.406   2.361   5.925 -0.6878  2.0622 -0.8761
 1808SOL    HW2 5662   3.528   2.314   5.850 -0.1889 -0.3121  1.2531
 1809SOL     OW 5663   3.455   4.701   4.330 -0.1511 -0.0867  0.1402
 1809SOL    HW1 5664   3.495   4.692   4.244 -3.0024 -0.3006 -1.2867
 1809SOL    HW2 5665   3.414   4.616   4.347  0.4430 -0.0909  1.7998
 1810SOL     OW 5666   1.085   3.427   3.468 -0.0931 -0.2569  0.0426
 1810SOL    HW1 5667   1.096   3.342   3.512  0.2893 -0.1288  0.1988
 1810SOL    HW2 5668   1.172   3.468   3.473 -0.2159  0.0410 -0.2462
 1811SOL     OW 5669   0.743   3.842   2.445 -0.7273 -0.2853  0.6040
 1811SOL    HW1 5670   0.728   3.843   2.350  1.4596  0.6734  0.2057
 1811SOL    HW2 5671   0.810   3.775   2.458  0.1579  0.6958  1.2411
 1812SOL     OW 5672   5.639   5.301   0.009 -0.4084  0.6055  0.1538
 1812SOL    HW1 5673   5.644   5.386  -0.034 -1.0830  0.0452 -1.1030
 1812SOL    HW2 5674   5.659   5.238  -0.061 -0.6537 -0.3009  0.8786
 1813SOL     OW 5675   6.030   3.836   3.121 -0.0220 -0.5209 -0.1596
 1813SOL    HW1 5676   5.941   3.807   3.142 -0.0198 -0.2016  0.3261
 1813SOL    HW2 5677   6.085   3.761   3.144 -0.2085 -0.9208 -0.9822
 1814SOL     OW 5678   3.578   4.587   6.006 -0.3265 -0.4833  0.0675
 1814SOL    HW1 5679   3.531   4.585   5.923  0.0197  0.2836 -0.1594
 1814SOL    HW2 5680   3.591   4.495   6.029 -1.1476 -0.7058 -0.3083
 1815SOL     OW 5681   0.400   3.749   0.342 -0.4404  0.2800  0.6069
 1815SOL    HW1 5682   0.462   3.819   0.365 -0.6783  0.6878  0.0256
 1815SOL    HW2 5683   0.340   3.745   0.416 -0.4568  0.7375  0.6224
 1816SOL     OW 5684   5.834   4.888   1.049  0.0688  0.0145 -0.2967
 1816SOL    HW1 5685   5.905   4.930   1.097  0.1821  0.2370 -0.6547
 1816SOL    HW2 5686   5.863   4.798   1.036 -0.3594 -0.3061  0.8492
 1817SOL     OW 5687   3.099   4.741   3.144  0.0014 -0.5143  0.3594
 1817SOL    HW1 5688   3.138   4.698   3.068  1.5878 -0.2751  1.0074
 1817SOL    HW2 5689   3.036   4.803   3.108  0.8537 -0.2851 -0.7746
 1818SOL     OW 5690   3.321   0.837   1.354  0.3716  0.0236  0.3765
 1818SOL    HW1 5691   3.268   0.862   1.430  0.6485  0.1639  0.5250
 1818SOL    HW2 5692   3.378   0.767   1.387  1.6352  1.1782  0.7521
 1819SOL     OW 5693   3.911   1.426   0.694  0.6010  0.2630  0.3397
 1819SOL    HW1 5694   3.892   1.422   0.600  0.3554 -0.0434  0.3970
 1819SOL    HW2 5695   3.824   1.429   0.735  0.6130 -1.8016  0.6341
 1820SOL     OW 5696   2.911   2.861   3.090  0.2572 -0.1657  0.4889
 1820SOL    HW1 5697   2.872   2.777   3.065 -0.0743  0.2770 -0.5521
 1820SOL    HW2 5698   2.962   2.842   3.168 -1.8174 -0.8484  1.7695
 1821SOL     OW 5699   1.384   0.040   4.631 -0.1896  0.0945 -0.1738
 1821SOL    HW1 5700   1.432   0.083   4.559 -1.0493  1.3781 -0.0113
 1821SOL    HW2 5701   1.450   0.029   4.700 -0.1100  1.9464  0.0913
 1822SOL     OW 5702   0.232   1.206   3.604  0.3408 -0.1028  0.1636
 1822SOL    HW1 5703   0.192   1.285   3.639 -1.8542 -0.7368 -0.7486
 1822SOL    HW2 5704   0.268   1.161   3.681  0.1734  0.9802  0.8905
 1823SOL     OW 5705   3.517   5.977   0.219 -0.1066  0.3356 -0.1655
 1823SOL    HW1 5706   3.467   5.897   0.235 -1.2651  1.0759  0.0216
 1823SOL    HW2 5707   3.591   5.948   0.165 -0.0458 -0.9867  0.5872
 1824SOL     OW 5708   0.963   4.963   5.355  0.1274 -0.0369 -0.0145
 1824SOL    HW1 5709   0.899   4.928   5.294 -1.2548  1.1366  0.6961
 1824SOL    HW2 5710   0.938   4.927   5.440 -1.5567  2.7209  0.8104
 1825SOL     OW 5711   4.217   1.003   4.950  0.1154  0.5235 -0.1060
 1825SOL    HW1 5712   4.225   1.086   4.903  3.1206  0.6006  0.3088
 1825SOL    HW2 5713   4.280   1.011   5.022  0.7341 -2.2362 -0.2484
 1826SOL     OW 5714   4.424   1.439   4.577 -0.1118  0.5424  0.7784
 1826SOL    HW1 5715   4.502   1.445   4.522  1.4480 -0.2724  2.7687
 1826SOL    HW2 5716   4.406   1.530   4.601  1.4836  0.6134  1.8857
 1827SOL     OW 5717   0.352   4.802   3.962 -0.5235 -0.1974  0.3434
 1827SOL    HW1 5718   0.267   4.788   3.920 -1.2351  1.6751  1.0363
 1827SOL    HW2 5719   0.353   4.740   4.036 -1.9925  0.7918  1.2465
 1828SOL     OW 5720   0.572   4.213   5.929 -0.1729  0.0641  0.4337
 1828SOL    HW1 5721   0.569   4.138   5.871 -1.8652  1.3019 -1.1971
 1828SOL    HW2 5722   0.626   4.277   5.884 -1.1515  0.8855  0.3868
 1829SOL     OW 5723   2.067   1.819   2.970 -0.1017  0.2270  0.4126
 1829SOL    HW1 5724   2.029   1.846   2.886  0.9919  1.9687  0.4280
 1829SOL    HW2 5725   2.100   1.730   2.954 -0.1567  0.4221 -0.9225
 1830SOL     OW 5726   4.068   1.864   1.053  0.3701  0.2296  0.4919
 1830SOL    HW1 5727   4.022   1.796   1.004 -4.1626  2.7980  0.5425
 1830SOL    HW2 5728   4.083   1.826   1.140  1.2165 -1.7689 -0.4874
 1831SOL     OW 5729   5.551   1.233   5.836  0.6838  0.6894  0.2504
 1831SOL    HW1 5730   5.481   1.179   5.799  0.1292  0.6021  1.3946
 1831SOL    HW2 5731   5.573   1.295   5.766  0.6224 -0.3458 -0.7177
 1832SOL     OW 5732   1.672   0.192   2.984  0.3725  0.3108 -0.4130
 1832SOL    HW1 5733   1.659   0.229   3.071  0.4689 -0.0855 -0.2267
 1832SOL    HW2 5734   1.756   0.228   2.956  0.8596 -0.3977  0.1045
 1833SOL     OW 5735   4.030   2.417   0.680 -0.4211 -0.2439 -0.5247
 1833SOL    HW1 5736   4.124   2.408   0.671 -0.0662  2.2535 -0.1662
 1833SOL    HW2 5737   4.004   2.346   0.738  1.0863 -1.4466 -1.2536
 1834SOL     OW 5738   5.896   1.253   4.710 -0.4418 -0.2925  0.0986
 1834SOL    HW1 5739   5.850   1.335   4.722 -0.2696 -0.5110  3.0080
 1834SOL    HW2 5740   5.977   1.277   4.665 -0.3624  1.1684  0.9535
 1835SOL     OW 5741   2.306   3.372   5.350  0.5909  0.6257  0.1211
 1835SOL    HW1 5742   2.330   3.449   5.401 -0.0644  0.4696  0.6817
 1835SOL    HW2 5743   2.229   3.336   5.395 -0.2306  0.6760 -1.1686
 1836SOL     OW 5744   3.823   1.011   3.544 -0.2135  0.0609 -0.2684
 1836SOL    HW1 5745   3.755   1.073   3.517  0.3202  1.0175  0.5495
 1836SOL    HW2 5746   3.894   1.024   3.481 -0.2368  0.0482 -0.2970
 1837SOL     OW 5747   2.198   0.528   4.002 -0.3568 -0.3927 -0.5761
 1837SOL    HW1 5748   2.218   0.531   3.908 -0.5077  0.1345 -0.5963
 1837SOL    HW2 5749   2.215   0.618   4.032 -0.5338 -0.5033 -0.1475
 1838SOL     OW 5750   0.865   4.162   2.996  1.0674  0.0088 -0.4027
 1838SOL    HW1 5751   0.864   4.224   3.069  1.2115  0.7285 -1.0105
 1838SOL    HW2 5752   0.773   4.155   2.970  0.9840 -0.4289 -0.0110
 1839SOL     OW 5753   5.421   5.234   5.075  0.4638 -1.0880 -0.3650
 1839SOL    HW1 5754   5.424   5.158   5.017  0.6616 -0.8376 -0.6844
 1839SOL    HW2 5755   5.512   5.247   5.102  0.1305 -2.3921  1.5676
 1840SOL     OW 5756   3.560   2.237   4.939 -0.6047  0.1057 -0.2484
 1840SOL    HW1 5757   3.610   2.233   5.021  0.2529 -0.8688 -0.8056
 1840SOL    HW2 5758   3.491   2.301   4.957  1.7229  2.7455  0.0481
 1841SOL     OW 5759   0.246   5.020   2.523  0.1436 -0.1502  0.6258
 1841SOL    HW1 5760   0.184   5.060   2.584  1.7567  2.1833  0.8274
 1841SOL    HW2 5761   0.205   5.031   2.437 -0.5866 -0.4241  0.9228
 1842SOL     OW 5762   4.582   5.738   2.621  0.1723  0.3090  0.0611
 1842SOL    HW1 5763   4.629   5.694   2.692  0.2386  0.4413  0.0989
 1842SOL    HW2 5764   4.618   5.826   2.619  1.0726 -0.0618 -0.9513
 1843SOL     OW 5765   3.568   4.982   3.184  0.0775  0.6579 -0.1417
 1843SOL    HW1 5766   3.652   4.967   3.142  0.9571  0.2607  1.6539
 1843SOL    HW2 5767   3.584   5.058   3.241 -0.3081 -0.3347  1.3439
 1844SOL     OW 5768   2.010   1.699   5.140  0.0515 -0.7077 -0.4584
 1844SOL    HW1 5769   2.091   1.746   5.117  1.4244 -2.4831  0.4759
 1844SOL    HW2 5770   1.984   1.655   5.059  0.9849 -1.4281 -0.3891
 1845SOL     OW 5771   3.106   0.855   1.525 -0.4672  0.2112 -0.6997
 1845SOL    HW1 5772   3.103   0.943   1.488 -2.3655  0.6132  0.2743
 1845SOL    HW2 5773   3.126   0.869   1.618 -0.3312 -0.4198 -0.6316
 1846SOL     OW 5774   2.280   4.485   5.850 -0.1886  0.0162 -0.5309
 1846SOL    HW1 5775   2.231   4.533   5.783 -0.1220  0.1947 -0.4532
 1846SOL    HW2 5776   2.336   4.424   5.801  0.0067  0.2860 -0.6468
 1847SOL     OW 5777   3.171   2.384   3.104  0.4300 -0.0068  0.0359
 1847SOL    HW1 5778   3.129   2.441   3.169  0.1202  1.5265 -1.4277
 1847SOL    HW2 5779   3.228   2.327   3.155  0.3723  1.2899  1.6395
 1848SOL     OW 5780   3.584   1.581   5.503  0.0809  0.6155 -0.1971
 1848SOL    HW1 5781   3.659   1.621   5.460 -0.1437  1.8492  0.5325
 1848SOL    HW2 5782   3.597   1.596   5.596 -0.2120 -0.6907  0.0840
 1849SOL     OW 5783   4.261   1.028   1.155  0.2094 -0.6318 -0.2874
 1849SOL    HW1 5784   4.351   1.015   1.185 -0.0408 -1.4740  0.1305
 1849SOL    HW2 5785   4.211   1.042   1.236  0.1193  0.8947 -0.5838
 1850SOL     OW 5786   5.610   5.111   2.760 -0.3071  0.1861  0.1850
 1850SOL    HW1 5787   5.545   5.180   2.773 -0.9604 -0.2109 -0.8435
 1850SOL    HW2 5788   5.651   5.100   2.846 -2.5299 -0.4773  1.2327
 1851SOL     OW 5789   4.467   2.612   2.365  0.2732  0.5574  0.1471
 1851SOL    HW1 5790   4.429   2.532   2.401 -0.2988  0.2542 -1.0880
 1851SOL    HW2 5791   4.397   2.677   2.371  0.1121  0.4555 -0.5637
 1852SOL     OW 5792   5.284   2.908   2.691 -0.1614  0.1886 -0.4228
 1852SOL    HW1 5793   5.361   2.964   2.679  0.2439 -0.2906 -0.1303
 1852SOL    HW2 5794   5.231   2.954   2.755 -0.1401  0.5500 -0.6652
 1853SOL     OW 5795   3.500   2.435   4.288  0.4829  0.1216 -0.0862
 1853SOL    HW1 5796   3.418   2.484   4.293  1.5573  2.0911 -0.8438
 1853SOL    HW2 5797   3.495   2.375   4.362 -1.2495  0.8033  0.4248
 1854SOL     OW 5798   5.660   4.336   0.747 -0.0626  0.0535 -0.3910
 1854SOL    HW1 5799   5.712   4.400   0.795 -1.4726  0.9929 -0.0432
 1854SOL    HW2 5800   5.570   4.350   0.777 -0.3487 -2.7169  0.3961
 1855SOL     OW 5801   3.919   3.908   3.504  0.4921  0.0171 -0.3093
 1855SOL    HW1 5802   4.010   3.894   3.480  1.0203  0.5603  1.2295
 1855SOL    HW2 5803   3.885   3.966   3.436  1.3526 -0.0203 -0.7834
 1856SOL     OW 5804   4.199   1.031   0.204  0.1348 -0.3141  0.2375
 1856SOL    HW1 5805   4.144   0.953   0.212  0.4138 -0.4296  1.2020
 1856SOL    HW2 5806   4.145   1.095   0.158 -0.5837 -0.6309  0.6310
 1857SOL     OW 5807   3.742   0.371   5.901  0.5068  0.1975  0.1978
 1857SOL    HW1 5808   3.814   0.309   5.889  0.7559  0.4571  0.3356
 1857SOL    HW2 5809   3.675   0.342   5.839  0.5707 -0.2832  0.3497
 1858SOL     OW 5810   0.351   0.621   1.553  0.0673  0.1604 -0.2407
 1858SOL    HW1 5811   0.298   0.561   1.605 -0.2468 -0.4902 -1.2630
 1858SOL    HW2 5812   0.323   0.708   1.581 -1.4861 -0.1632 -0.6526
 1859SOL     OW 5813   0.771   0.868   3.465  0.6519  0.9945 -0.4359
 1859SOL    HW1 5814   0.823   0.794   3.496  0.5913  0.6862 -1.0544
 1859SOL    HW2 5815   0.800   0.942   3.518  0.6680  0.5168  0.2311
 1860SOL     OW 5816   1.096   1.771   0.227 -0.2788 -0.5219 -0.0599
 1860SOL    HW1 5817   1.010   1.740   0.198 -0.0591 -0.7032 -0.5180
 1860SOL    HW2 5818   1.119   1.840   0.164 -1.9820  2.6331  2.4216
 1861SOL     OW 5819   1.775   0.055   4.636 -0.1644  0.0946  0.2709
 1861SOL    HW1 5820   1.852   0.111   4.650 -0.8012  0.6990  1.5781
 1861SOL    HW2 5821   1.806  -0.033   4.654 -0.1690  0.5210  2.7261
 1862SOL     OW 5822   5.619   2.794   2.863  0.4417 -0.3914  0.0210
 1862SOL    HW1 5823   5.569   2.792   2.945  0.9696  0.5714  0.3785
 1862SOL    HW2 5824   5.642   2.702   2.847 -2.2955 -1.0510 -0.7105
 1863SOL     OW 5825   1.206   2.961   0.592  0.5053 -0.6071  0.4194
 1863SOL    HW1 5826   1.128   3.017   0.598 -0.5730 -2.0892  0.6503
 1863SOL    HW2 5827   1.239   2.976   0.504 -0.9287 -1.0926 -0.2229
 1864SOL     OW 5828   4.909   2.795   4.539  0.3473 -0.4973  0.4667
 1864SOL    HW1 5829   4.948   2.833   4.460 -1.2384  1.7222  0.6635
 1864SOL    HW2 5830   4.825   2.760   4.510  0.3323 -0.8711  0.9513
 1865SOL     OW 5831   1.471   5.436   4.058 -0.1195 -0.5978 -0.3637
 1865SOL    HW1 5832   1.443   5.515   4.010 -0.3492  1.0095  2.1972
 1865SOL    HW2 5833   1.390   5.403   4.098  0.3169 -0.8130  0.3608
 1866SOL     OW 5834   1.613   5.230   5.958 -0.0811 -0.3705 -0.3097
 1866SOL    HW1 5835   1.672   5.284   5.904  0.5927  0.7532  1.4337
 1866SOL    HW2 5836   1.579   5.291   6.024 -0.0370 -1.8778  1.1765
 1867SOL     OW 5837   2.133   5.866   5.326 -0.5337  0.3182 -1.5213
 1867SOL    HW1 5838   2.171   5.938   5.375 -2.9756  0.7120 -0.0047
 1867SOL    HW2 5839   2.084   5.815   5.391 -0.4255 -1.6317 -2.8641
 1868SOL     OW 5840   1.211   1.650   4.741 -0.4025 -0.1193 -0.0266
 1868SOL    HW1 5841   1.247   1.722   4.689 -0.6043  0.3436  0.4591
 1868SOL    HW2 5842   1.122   1.679   4.762 -0.3794 -0.3711  0.4326
 1869SOL     OW 5843   5.065   6.006   3.704 -0.6692 -0.5008 -0.2356
 1869SOL    HW1 5844   5.004   5.993   3.777  1.1844  0.4457  1.5682
 1869SOL    HW2 5845   5.148   6.030   3.745  0.0992  1.5773 -2.6986
 1870SOL     OW 5846   4.904   5.875   1.441  0.7504  0.0828  0.4804
 1870SOL    HW1 5847   4.995   5.845   1.434  1.2205  1.8419 -2.0530
 1870SOL    HW2 5848   4.906   5.943   1.508  1.2362 -0.1024  0.6569
 1871SOL     OW 5849   2.997   5.102   1.148 -0.4496 -0.1430 -0.1867
 1871SOL    HW1 5850   3.024   5.147   1.228 -0.2685 -0.3891 -0.1102
 1871SOL    HW2 5851   2.922   5.048   1.176 -1.4609  1.0266 -0.5288
 1872SOL     OW 5852   5.320   0.389   5.855 -0.0950  0.2733  0.1328
 1872SOL    HW1 5853   5.338   0.295   5.844 -0.1054  0.4512 -1.7739
 1872SOL    HW2 5854   5.280   0.395   5.941 -0.1814 -1.5069  0.2655
 1873SOL     OW 5855   0.069   2.464   1.096  0.2089 -0.1826  0.1870
 1873SOL    HW1 5856   0.069   2.483   1.190  1.4712 -1.9018  0.5675
 1873SOL    HW2 5857   0.103   2.544   1.055  1.6135 -0.1510  1.3726
 1874SOL     OW 5858   2.700   4.124   3.258 -0.1751  0.1040 -0.8624
 1874SOL    HW1 5859   2.659   4.051   3.304  0.3831 -0.2480 -0.9204
 1874SOL    HW2 5860   2.686   4.199   3.316 -1.8284  0.2192 -1.3614
 1875SOL     OW 5861   4.604   1.664   4.347 -0.3190 -0.0902 -0.0889
 1875SOL    HW1 5862   4.629   1.609   4.422  1.5655  1.2225  0.3262
 1875SOL    HW2 5863   4.595   1.752   4.383  3.2494  1.1363 -1.6528
 1876SOL     OW 5864   2.365   2.860   1.339  0.2484 -0.1790 -0.1232
 1876SOL    HW1 5865   2.404   2.827   1.258  0.8198  0.5946 -0.1680
 1876SOL    HW2 5866   2.418   2.935   1.363 -0.2643 -0.0566  0.6712
 1877SOL     OW 5867   3.275   2.120   5.800 -0.0026 -0.9738 -0.5864
 1877SOL    HW1 5868   3.288   2.195   5.742 -0.4597 -1.0945 -0.8489
 1877SOL    HW2 5869   3.296   2.154   5.887  2.8067 -1.3497 -1.0390
 1878SOL     OW 5870   5.065   1.764   4.084 -0.4692  0.6088 -0.2572
 1878SOL    HW1 5871   5.005   1.829   4.048 -1.7761  0.4217  1.4813
 1878SOL    HW2 5872   5.092   1.800   4.168  1.2886  0.3202 -0.6638
 1879SOL     OW 5873   5.560   1.928   5.163 -0.2152 -0.0979 -0.1109
 1879SOL    HW1 5874   5.537   1.921   5.255  0.8439 -0.8059  0.1234
 1879SOL    HW2 5875   5.485   1.892   5.116 -0.0295 -1.4234  0.5649
 1880SOL     OW 5876   0.111   2.141   5.871 -0.3998 -0.1764  0.2490
 1880SOL    HW1 5877   0.063   2.094   5.938 -1.6746  1.4426  0.5505
 1880SOL    HW2 5878   0.050   2.209   5.841  0.1416 -0.7513 -2.4864
 1881SOL     OW 5879   2.388   0.731   3.962 -0.0778 -0.0134  0.0946
 1881SOL    HW1 5880   2.477   0.697   3.969  0.8786  2.3155  0.3725
 1881SOL    HW2 5881   2.368   0.728   3.869  0.6796  0.3010 -0.0862
 1882SOL     OW 5882   5.188   1.046   5.083 -0.4130  0.8402 -0.1933
 1882SOL    HW1 5883   5.219   1.124   5.131 -0.6410  1.1796 -0.5887
 1882SOL    HW2 5884   5.174   1.077   4.994 -0.3102  0.2879 -0.4059
 1883SOL     OW 5885   0.376   1.972   0.161  0.5227 -0.1740  0.0336
 1883SOL    HW1 5886   0.468   1.988   0.138  0.3739 -1.9842 -2.1766
 1883SOL    HW2 5887   0.331   1.965   0.077 -1.3082 -1.0490  1.0312
 1884SOL     OW 5888   0.662   1.589   1.612 -0.2141  0.6979 -0.4771
 1884SOL    HW1 5889   0.756   1.608   1.610 -0.1821  0.6522  0.3779
 1884SOL    HW2 5890   0.652   1.509   1.561  0.4393 -0.2093  0.7687
 1885SOL     OW 5891   0.673   0.657   2.024  0.2739 -0.0473 -0.2170
 1885SOL    HW1 5892   0.606   0.664   1.956 -0.4524 -0.1400  0.4726
 1885SOL    HW2 5893   0.710   0.745   2.030 -1.8092  0.8047  1.3913
 1886SOL     OW 5894   4.750   2.080   3.679  0.3137 -0.3271  0.7985
 1886SOL    HW1 5895   4.701   2.074   3.597 -1.0469 -0.1601  1.5819
 1886SOL    HW2 5896   4.827   2.133   3.657 -1.0865  1.5070  0.1104
 1887SOL     OW 5897   4.806   3.401   3.076 -0.1567  0.1496 -0.2233
 1887SOL    HW1 5898   4.801   3.472   3.140 -0.4842 -0.3442  0.3088
 1887SOL    HW2 5899   4.757   3.433   3.001 -0.2256  0.5244 -0.0230
 1888SOL     OW 5900   1.218   3.345   0.473  0.3653  0.1851  0.7852
 1888SOL    HW1 5901   1.198   3.268   0.419  0.2689  1.1267 -0.5543
 1888SOL    HW2 5902   1.298   3.320   0.521  2.2379  0.3401 -2.0080
 1889SOL     OW 5903   3.448   0.659   4.142  0.7299  0.0656 -0.4111
 1889SOL    HW1 5904   3.442   0.679   4.048  1.0073  0.7105 -0.2929
 1889SOL    HW2 5905   3.541   0.648   4.159  0.6703 -0.1693 -0.2356
 1890SOL     OW 5906   1.844   1.950   5.205  0.7338 -0.6322 -0.0263
 1890SOL    HW1 5907   1.872   1.859   5.202  0.8290 -0.5638 -1.7301
 1890SOL    HW2 5908   1.755   1.949   5.169  1.5373  0.2023 -2.1963
 1891SOL     OW 5909   5.659   0.263   2.447 -0.4216 -0.1600 -0.2309
 1891SOL    HW1 5910   5.731   0.201   2.431 -0.9266 -1.1253  0.9841
 1891SOL    HW2 5911   5.686   0.344   2.405  1.7930 -0.2291  0.9111
 1892SOL     OW 5912   2.743   1.439   3.390 -0.3035 -0.0092  0.2356
 1892SOL    HW1 5913   2.762   1.530   3.414  0.9615 -0.1782 -0.0287
 1892SOL    HW2 5914   2.752   1.437   3.295  0.8040 -0.6315  0.3348
 1893SOL     OW 5915   0.928   0.654   5.975  0.0376 -0.0755  0.0732
 1893SOL    HW1 5916   0.849   0.646   5.921  1.3130  1.0758 -2.0765
 1893SOL    HW2 5917   0.960   0.564   5.983 -1.2542 -0.5089  0.6492
 1894SOL     OW 5918   2.887   4.610   0.017 -0.1138  0.0601  0.0502
 1894SOL    HW1 5919   2.835   4.546   0.065  1.0879 -0.0200  1.2897
 1894SOL    HW2 5920   2.874   4.692   0.064  0.7531  0.0727  0.2745
 1895SOL     OW 5921   4.319   5.405   5.555 -0.0526  0.3749 -0.4332
 1895SOL    HW1 5922   4.307   5.410   5.461 -0.4058 -3.7639 -0.7841
 1895SOL    HW2 5923   4.412   5.424   5.569  0.3014 -0.3237 -1.7769
 1896SOL     OW 5924   2.392   3.275   2.488  0.3240  0.5487  0.3571
 1896SOL    HW1 5925   2.374   3.187   2.455  0.6566  0.6438 -0.0743
 1896SOL    HW2 5926   2.420   3.261   2.578  0.0190  0.2428  0.4081
 1897SOL     OW 5927   1.952   4.862   4.774 -0.0732  0.5020 -0.1585
 1897SOL    HW1 5928   1.904   4.780   4.760 -1.3606  1.1119  0.5033
 1897SOL    HW2 5929   1.890   4.930   4.750  0.3166  1.3291  1.0803
 1898SOL     OW 5930   5.104   3.655   2.031 -0.4549 -0.1780 -0.4552
 1898SOL    HW1 5931   5.178   3.606   1.995  0.4674  0.0693  1.0241
 1898SOL    HW2 5932   5.129   3.747   2.022  0.6223 -0.1048  2.2848
 1899SOL     OW 5933   2.927   0.995   3.346 -0.0866 -0.1353 -0.2785
 1899SOL    HW1 5934   2.981   1.072   3.331 -1.3685  0.9906  0.6759
 1899SOL    HW2 5935   2.856   1.025   3.402 -1.2186 -1.7624 -0.7474
 1900SOL     OW 5936   4.515   0.015   3.700 -0.5176  0.0504 -0.2292
 1900SOL    HW1 5937   4.586   0.071   3.730 -0.9269  0.5158 -0.1004
 1900SOL    HW2 5938   4.555  -0.044   3.637 -0.3055  1.3953 -1.4240
 1901SOL     OW 5939   6.089   4.818   0.942  0.4899  0.0480 -0.1361
 1901SOL    HW1 5940   6.035   4.739   0.941  0.5586  0.0000 -0.1313
 1901SOL    HW2 5941   6.098   4.842   0.850  0.5085  0.0220 -0.1414
 1902SOL     OW 5942   0.924   4.174   0.465  0.2490 -0.1522  0.0965
 1902SOL    HW1 5943   0.877   4.233   0.524  0.8683  0.4941 -0.0360
 1902SOL    HW2 5944   1.001   4.146   0.516  0.1523 -0.5589  0.0248
 1903SOL     OW 5945   2.347   1.965   3.117  0.1114 -0.3694 -0.4183
 1903SOL    HW1 5946   2.342   1.930   3.029 -0.9034  0.6117 -0.7798
 1903SOL    HW2 5947   2.263   1.941   3.158  0.5617 -0.7981  0.2658
 1904SOL     OW 5948   0.549   4.297   5.253  0.2030 -0.2662  0.4909
 1904SOL    HW1 5949   0.629   4.246   5.270 -0.6603 -1.4425  1.2112
 1904SOL    HW2 5950   0.480   4.248   5.298 -1.0709  0.2821 -0.7863
 1905SOL     OW 5951   0.255   1.993   2.973 -0.0120  0.1759 -0.1126
 1905SOL    HW1 5952   0.296   1.916   3.013 -1.1325 -0.8576 -0.8800
 1905SOL    HW2 5953   0.162   1.972   2.970 -0.0313  0.2798 -2.9727
 1906SOL     OW 5954   1.690   1.016   0.333 -0.2663 -0.1917 -0.2537
 1906SOL    HW1 5955   1.628   0.956   0.293  1.0096 -1.8280  0.1097
 1906SOL    HW2 5956   1.700   0.983   0.423  0.5379  0.5046 -0.0811
 1907SOL     OW 5957   4.182   3.196   2.679  0.1315  0.3270 -0.4425
 1907SOL    HW1 5958   4.243   3.238   2.740  1.7234 -0.8115 -1.1692
 1907SOL    HW2 5959   4.138   3.129   2.732  1.6389 -0.7827 -0.5278
 1908SOL     OW 5960   2.775   5.558   1.579 -0.2206  0.6750  0.1740
 1908SOL    HW1 5961   2.810   5.539   1.492 -0.6779 -0.7046  0.2646
 1908SOL    HW2 5962   2.806   5.646   1.599  1.5350  0.2589 -0.5592
 1909SOL     OW 5963   5.375   5.623   5.680 -0.7110  0.0114 -0.5471
 1909SOL    HW1 5964   5.306   5.577   5.729 -0.4828  0.5820  0.3308
 1909SOL    HW2 5965   5.413   5.556   5.623  0.3518 -1.1933  1.4722
 1910SOL     OW 5966   6.062   1.651   3.210  0.1944  1.0021 -0.6396
 1910SOL    HW1 5967   6.082   1.721   3.272  0.8943  0.2476  0.0136
 1910SOL    HW2 5968   6.103   1.573   3.248 -0.3497  0.2880 -1.4777
 1911SOL     OW 5969   4.046   3.516   3.630  0.2344 -0.0562 -0.2499
 1911SOL    HW1 5970   4.032   3.469   3.548 -0.4369 -0.7407  0.2385
 1911SOL    HW2 5971   4.128   3.482   3.664  1.3656  1.3894 -1.3940
 1912SOL     OW 5972   5.686   4.102   0.568  0.3159  0.6879 -0.0441
 1912SOL    HW1 5973   5.756   4.115   0.505  1.1789  0.6747  0.8777
 1912SOL    HW2 5974   5.695   4.175   0.629 -0.4856  0.6878  0.0815
 1913SOL     OW 5975   0.376   0.547   0.595 -0.2407 -0.3525  0.3612
 1913SOL    HW1 5976   0.460   0.542   0.640 -0.7053 -1.6598  1.1213
 1913SOL    HW2 5977   0.385   0.487   0.521 -0.4939 -0.4802  0.4340
 1914SOL     OW 5978   0.520   3.550   1.667 -0.1992 -0.0122  0.0221
 1914SOL    HW1 5979   0.510   3.587   1.755 -1.6603  0.7860 -0.4448
 1914SOL    HW2 5980   0.509   3.456   1.680  0.4080  0.0171  0.7985
 1915SOL     OW 5981   5.095   4.346   3.682 -0.3665 -0.0501 -0.3120
 1915SOL    HW1 5982   5.169   4.346   3.622  0.3191  0.3123  0.4969
 1915SOL    HW2 5983   5.024   4.389   3.634  0.4050  0.9569 -0.5824
 1916SOL     OW 5984   3.167   6.141   3.210 -0.5538 -0.0622 -0.1214
 1916SOL    HW1 5985   3.119   6.090   3.144 -2.0172 -0.7102  1.3572
 1916SOL    HW2 5986   3.099   6.195   3.252  0.1323 -0.3973  1.4990
 1917SOL     OW 5987   4.538   3.475   3.497  0.2087 -0.1040  0.0589
 1917SOL    HW1 5988   4.553   3.391   3.454  0.6500 -0.2245  0.4386
 1917SOL    HW2 5989   4.624   3.516   3.501 -0.2520  1.1616 -1.7225
 1918SOL     OW 5990   2.731   3.020   2.977 -0.0945  0.5057 -0.3397
 1918SOL    HW1 5991   2.654   3.024   3.034  0.4612  0.0947  0.4596
 1918SOL    HW2 5992   2.793   2.963   3.024  0.4383  0.2841 -1.2831
 1919SOL     OW 5993   4.392   0.015   2.738 -0.3265 -0.2935  0.0119
 1919SOL    HW1 5994   4.341  -0.060   2.767 -0.2522 -0.6724 -0.8230
 1919SOL    HW2 5995   4.464  -0.023   2.688  1.0563  0.1975  1.5490
 1920SOL     OW 5996   1.098   5.617   2.586 -0.0161 -0.1544 -0.4058
 1920SOL    HW1 5997   1.189   5.646   2.591 -0.1720  0.1210  1.5259
 1920SOL    HW2 5998   1.100   5.544   2.524  1.4775 -0.0112 -0.5666
 1921SOL     OW 5999   1.028   3.571   1.460 -0.0293  0.6726  0.4234
 1921SOL    HW1 6000   0.933   3.578   1.467 -0.2179 -1.3441  0.4953
 1921SOL    HW2 6001   1.062   3.628   1.528 -1.2817 -0.7146  2.3197
 1922SOL     OW 6002   1.481   5.153   4.317 -0.1192  0.5393  0.1467
 1922SOL    HW1 6003   1.455   5.079   4.262 -0.8784  0.2598  0.8676
 1922SOL    HW2 6004   1.429   5.143   4.397  0.4913  1.3052  0.6502
 1923SOL     OW 6005   2.142   3.892   5.603 -0.4283 -0.5877  0.0205
 1923SOL    HW1 6006   2.183   3.867   5.521 -0.5969 -2.1055  0.3721
 1923SOL    HW2 6007   2.050   3.908   5.580 -0.4937 -1.0916 -0.0834
 1924SOL     OW 6008   3.296   2.219   5.443 -0.0759  0.1996  0.1770
 1924SOL    HW1 6009   3.336   2.177   5.367  1.6816  0.3872  0.9627
 1924SOL    HW2 6010   3.218   2.166   5.461  1.1454 -1.7146  0.0896
 1925SOL     OW 6011   5.639   4.920   5.317  0.8277  0.6785  0.6552
 1925SOL    HW1 6012   5.722   4.962   5.296 -0.0398  2.2239  0.1434
 1925SOL    HW2 6013   5.604   4.970   5.391 -0.7580  1.6601 -0.6786
 1926SOL     OW 6014   1.732   3.504   4.982 -0.0440 -0.1340  0.0013
 1926SOL    HW1 6015   1.637   3.502   4.996  0.1665 -1.6670  1.6371
 1926SOL    HW2 6016   1.742   3.523   4.889 -1.8405  3.2261  0.3450
 1927SOL     OW 6017   4.795   0.806   2.128 -0.1408 -0.6194  0.1643
 1927SOL    HW1 6018   4.802   0.714   2.103  0.6353 -1.1084  2.0039
 1927SOL    HW2 6019   4.721   0.840   2.078 -0.2423 -2.1620 -0.7674
 1928SOL     OW 6020   5.412   5.944   2.420 -0.6102 -0.1163  0.4126
 1928SOL    HW1 6021   5.331   5.917   2.462 -1.7741  1.7122 -0.5417
 1928SOL    HW2 6022   5.426   6.034   2.449 -0.6045  0.6467 -1.7789
 1929SOL     OW 6023   0.329   5.502   5.121  0.4383 -0.2415 -0.5652
 1929SOL    HW1 6024   0.384   5.430   5.089  0.4970 -0.4903  0.0730
 1929SOL    HW2 6025   0.332   5.494   5.216 -1.2659 -0.7038 -0.5079
 1930SOL     OW 6026   5.708   0.239   0.977 -0.5219 -0.1456  0.1078
 1930SOL    HW1 6027   5.724   0.194   1.060  1.6796 -1.9196 -1.1701
 1930SOL    HW2 6028   5.772   0.310   0.975 -0.6206 -0.0593 -0.0383
 1931SOL     OW 6029   5.859   5.813   4.091  0.1682  0.2187  0.1332
 1931SOL    HW1 6030   5.905   5.874   4.033  0.7984 -1.5174 -1.2886
 1931SOL    HW2 6031   5.802   5.869   4.144  1.4709  2.1251 -0.3583
 1932SOL     OW 6032   5.069   4.714   3.759 -0.1439 -0.2954  0.1330
 1932SOL    HW1 6033   5.064   4.620   3.744  2.1109 -0.3327 -0.8986
 1932SOL    HW2 6034   5.160   4.729   3.785  0.3403  1.8562 -2.3059
 1933SOL     OW 6035   4.765   5.305   2.872  0.0770 -0.0154 -0.7208
 1933SOL    HW1 6036   4.687   5.342   2.914  1.1034  0.8114  0.5273
 1933SOL    HW2 6037   4.755   5.210   2.882 -0.8095  0.0778 -0.6672
 1934SOL     OW 6038   4.904   4.231   5.976  0.3699 -0.1104 -0.3872
 1934SOL    HW1 6039   4.921   4.175   5.901 -1.4814 -2.1711  0.6146
 1934SOL    HW2 6040   4.825   4.280   5.952 -1.1163 -1.8620  0.6675
 1935SOL     OW 6041   2.923   5.757   4.297 -0.1542  0.0151  0.5544
 1935SOL    HW1 6042   2.990   5.771   4.231  0.5343  1.7193  1.5390
 1935SOL    HW2 6043   2.882   5.843   4.309 -1.5469 -0.6683  1.0119
 1936SOL     OW 6044   4.841   3.676   2.922  0.4843  0.3000 -0.1655
 1936SOL    HW1 6045   4.755   3.715   2.905  0.7345  1.4062  0.9932
 1936SOL    HW2 6046   4.867   3.639   2.837 -0.1588  1.8951 -1.1086
 1937SOL     OW 6047   2.494   4.486   3.059 -0.3166  0.7380 -0.4542
 1937SOL    HW1 6048   2.566   4.431   3.089  0.9294  1.9941 -1.0620
 1937SOL    HW2 6049   2.420   4.462   3.116  0.2746 -1.2618 -0.4464
 1938SOL     OW 6050   2.729   2.485   2.177  0.3031  0.6017 -0.5225
 1938SOL    HW1 6051   2.703   2.455   2.090 -2.4025  0.6896  0.1672
 1938SOL    HW2 6052   2.734   2.406   2.230 -0.1643  0.7323 -0.2754
 1939SOL     OW 6053   3.221   1.583   1.537 -0.3290  0.1094 -0.0978
 1939SOL    HW1 6054   3.139   1.569   1.490 -0.7941 -2.1958  1.2604
 1939SOL    HW2 6055   3.207   1.665   1.585 -1.1623  0.6355 -1.2041
 1940SOL     OW 6056   3.381   1.871   5.143  0.1182 -0.1826  0.2547
 1940SOL    HW1 6057   3.452   1.851   5.081  0.1518 -1.4193  0.6574
 1940SOL    HW2 6058   3.400   1.817   5.220 -1.1196 -0.3485  0.4727
 1941SOL     OW 6059   1.945   5.744   3.637  0.0638 -0.4422  0.1382
 1941SOL    HW1 6060   1.930   5.813   3.702  0.1823  0.0734 -0.3747
 1941SOL    HW2 6061   1.861   5.698   3.632  0.1054 -0.5944  0.7770
 1942SOL     OW 6062   0.064   5.580   0.285 -0.3441  0.4256  0.1710
 1942SOL    HW1 6063   0.080   5.489   0.262  0.5197  0.9627 -1.4961
 1942SOL    HW2 6064   0.001   5.611   0.220 -1.7545  0.6603  1.5860
 1943SOL     OW 6065   4.268   4.176   0.104 -0.2065 -0.0336 -0.0283
 1943SOL    HW1 6066   4.172   4.184   0.102 -0.1444  0.7729 -0.0482
 1943SOL    HW2 6067   4.299   4.259   0.070  0.5306  0.7168  2.3148
 1944SOL     OW 6068   2.738   1.564   6.053 -0.2701  0.7097 -0.0308
 1944SOL    HW1 6069   2.764   1.626   5.985 -0.2388  0.3159 -0.3822
 1944SOL    HW2 6070   2.671   1.510   6.011  0.7517 -0.4573 -0.2122
 1945SOL     OW 6071   2.550   3.598   4.505 -0.0734  0.3373  0.6989
 1945SOL    HW1 6072   2.521   3.618   4.594 -1.1052  1.0330  0.2351
 1945SOL    HW2 6073   2.643   3.580   4.513 -0.5864 -2.0691  2.2747
 1946SOL     OW 6074   0.089   0.055   3.494  0.0223 -0.0254  0.1812
 1946SOL    HW1 6075   0.063   0.140   3.529 -0.8372 -0.6160  1.0338
 1946SOL    HW2 6076   0.154   0.075   3.427  0.8718  1.2211  1.3271
 1947SOL     OW 6077   1.543   0.712   0.373  0.3358  0.5683 -0.7165
 1947SOL    HW1 6078   1.455   0.681   0.353  0.4773 -0.2239 -0.1571
 1947SOL    HW2 6079   1.541   0.731   0.467  0.9325 -0.0509 -0.5711
 1948SOL     OW 6080   6.046   4.589   0.331  0.1208  0.1899  0.1129
 1948SOL    HW1 6081   6.056   4.579   0.237  2.3092 -1.5608  0.4425
 1948SOL    HW2 6082   5.968   4.643   0.342 -0.6133 -0.1875 -2.6644
 1949SOL     OW 6083   3.805   1.175   4.293  0.1450 -0.5811  0.0493
 1949SOL    HW1 6084   3.876   1.122   4.329  0.5984 -0.1219 -0.1658
 1949SOL    HW2 6085   3.734   1.112   4.279  0.0725 -0.8357  1.3880
 1950SOL     OW 6086   5.784   0.168   2.853 -0.0937 -0.5068 -0.6681
 1950SOL    HW1 6087   5.851   0.120   2.902  1.4442  1.4719 -0.6828
 1950SOL    HW2 6088   5.834   0.216   2.786 -1.4407  1.4730 -0.3275
 1951SOL     OW 6089   0.666   5.805   2.461 -0.1707  0.5587  0.3375
 1951SOL    HW1 6090   0.584   5.849   2.436 -0.3162 -0.9890 -2.2091
 1951SOL    HW2 6091   0.643   5.713   2.467  1.1782  0.2209  0.6323
 1952SOL     OW 6092   5.159   1.050   2.771 -0.0499 -0.3664 -0.0377
 1952SOL    HW1 6093   5.223   1.036   2.701 -0.8277  0.5022 -0.9629
 1952SOL    HW2 6094   5.153   0.966   2.816  1.2593 -0.6351 -0.3389
 1953SOL     OW 6095   1.300   3.124   1.123 -0.6937  0.6221  0.0307
 1953SOL    HW1 6096   1.326   3.197   1.066 -1.7333 -0.5729 -2.1169
 1953SOL    HW2 6097   1.271   3.166   1.204  2.0789  2.3348  0.2734
 1954SOL     OW 6098   5.256   3.862   5.058 -0.4306  0.1030 -0.0181
 1954SOL    HW1 6099   5.293   3.829   4.976 -1.1078 -1.7345  0.3755
 1954SOL    HW2 6100   5.207   3.940   5.032  0.2787  0.1891 -1.1780
 1955SOL     OW 6101   1.505   0.566   0.842  0.2658  0.1817  0.0259
 1955SOL    HW1 6102   1.598   0.548   0.855  0.1809 -1.2625 -1.0414
 1955SOL    HW2 6103   1.473   0.489   0.794 -1.7250  0.0961  1.3917
 1956SOL     OW 6104   1.754   4.973   1.378 -0.4660 -0.0516  0.3547
 1956SOL    HW1 6105   1.726   4.951   1.467 -0.9302 -0.1557  0.1854
 1956SOL    HW2 6106   1.673   4.978   1.328 -0.1031 -1.9212 -0.5007
 1957SOL     OW 6107   0.049   5.381   5.167 -0.2381  0.4317 -0.0244
 1957SOL    HW1 6108   0.113   5.433   5.216  0.1294 -0.6572  0.6963
 1957SOL    HW2 6109   0.100   5.344   5.094 -0.5520  1.2410 -0.6714
 1958SOL     OW 6110   0.587   2.129   4.701 -0.2302 -0.3644  0.0596
 1958SOL    HW1 6111   0.607   2.148   4.792 -2.7100 -0.1081  0.6286
 1958SOL    HW2 6112   0.630   2.045   4.683 -0.9609 -1.1917  1.9569
 1959SOL     OW 6113   5.827   1.624   4.421  0.0803 -0.4225  0.1154
 1959SOL    HW1 6114   5.896   1.663   4.474  0.2196  0.6281 -0.7998
 1959SOL    HW2 6115   5.872   1.589   4.344  0.2946 -4.4573  1.8063
 1960SOL     OW 6116   2.302   1.941   5.507  0.4450 -0.3328 -0.0401
 1960SOL    HW1 6117   2.216   1.980   5.498 -0.2081 -1.7539 -0.1904
 1960SOL    HW2 6118   2.359   1.996   5.454 -0.1352  1.2518  0.9099
 1961SOL     OW 6119   1.985   2.836   6.126  0.1256  0.2252  0.1828
 1961SOL    HW1 6120   2.073   2.871   6.111 -0.0182 -0.2804 -2.2156
 1961SOL    HW2 6121   1.933   2.869   6.053 -1.2730 -0.7732  0.6832
 1962SOL     OW 6122   5.839   4.271   1.681 -0.3200 -0.0231  0.1772
 1962SOL    HW1 6123   5.818   4.205   1.747  0.1716  1.0488  1.4652
 1962SOL    HW2 6124   5.754   4.298   1.646 -0.5271 -1.3336 -0.4157
 1963SOL     OW 6125   3.766   5.253   4.292  0.2175 -0.0571  0.3742
 1963SOL    HW1 6126   3.759   5.222   4.382  1.0206 -0.0370  0.4504
 1963SOL    HW2 6127   3.777   5.173   4.240 -0.3013 -0.0732  0.2797
 1964SOL     OW 6128   0.303   5.927   4.874  0.6446  0.5675  1.1400
 1964SOL    HW1 6129   0.340   5.839   4.870 -0.8921 -0.0815  0.5534
 1964SOL    HW2 6130   0.359   5.974   4.937  2.6740 -0.2175  0.0363
 1965SOL     OW 6131   3.735   2.532   3.633 -0.1424 -0.1755 -0.1984
 1965SOL    HW1 6132   3.695   2.617   3.650  0.5311 -0.0202  0.6829
 1965SOL    HW2 6133   3.759   2.499   3.720 -0.6166 -1.3830 -0.5069
 1966SOL     OW 6134   2.813   2.886   4.252  0.2138  0.0334 -0.1983
 1966SOL    HW1 6135   2.899   2.923   4.234 -0.1336  0.4884 -0.9474
 1966SOL    HW2 6136   2.827   2.791   4.252  0.8012  0.1152  0.1733
 1967SOL     OW 6137   3.802   3.240   6.030  0.3469 -0.6750 -0.0543
 1967SOL    HW1 6138   3.791   3.333   6.048  0.5986 -0.3277 -1.5279
 1967SOL    HW2 6139   3.759   3.227   5.945  0.3893 -1.8845  0.0885
 1968SOL     OW 6140   1.804   5.406   5.863 -0.0179  0.3823 -0.0481
 1968SOL    HW1 6141   1.842   5.409   5.775  0.2105 -0.1017  0.0313
 1968SOL    HW2 6142   1.855   5.339   5.909 -1.2582 -0.6055 -0.0695
 1969SOL     OW 6143   6.129   2.212   2.947  0.1646 -0.2982  0.3652
 1969SOL    HW1 6144   6.155   2.125   2.978 -0.1667 -0.5769 -0.1228
 1969SOL    HW2 6145   6.154   2.271   3.018 -0.1390 -0.8606  0.9485
 1970SOL     OW 6146   4.851   0.800   2.645  0.9531  0.3554  0.8635
 1970SOL    HW1 6147   4.820   0.769   2.729  1.0584 -1.8695  0.1383
 1970SOL    HW2 6148   4.783   0.775   2.583  1.9063 -0.1107 -0.0273
 1971SOL     OW 6149   5.746   1.713   6.028 -0.4986 -0.1567  0.2255
 1971SOL    HW1 6150   5.670   1.655   6.025 -0.3602 -0.3120 -0.7452
 1971SOL    HW2 6151   5.810   1.666   6.081 -0.4369 -0.8478 -0.4416
 1972SOL     OW 6152   3.238   5.412   2.098 -0.0570 -0.4951  0.1951
 1972SOL    HW1 6153   3.213   5.504   2.093  1.4815 -0.0245  0.8210
 1972SOL    HW2 6154   3.166   5.366   2.053 -0.8766  0.9800 -0.0798
 1973SOL     OW 6155   5.735   3.204   4.306  0.3430 -0.1174 -0.1633
 1973SOL    HW1 6156   5.692   3.121   4.326 -2.2504  1.0383 -0.4973
 1973SOL    HW2 6157   5.688   3.269   4.359  1.4793  1.3304 -0.8412
 1974SOL     OW 6158   3.295   5.418   1.051  0.5892  0.3007 -0.1281
 1974SOL    HW1 6159   3.237   5.366   0.995  0.5612  0.8555 -0.6312
 1974SOL    HW2 6160   3.340   5.476   0.990  0.5986  0.8838  0.4251
 1975SOL     OW 6161   2.670   4.845   1.022 -0.8906 -0.0437  0.4222
 1975SOL    HW1 6162   2.759   4.873   1.045 -0.3182 -1.5206  0.1345
 1975SOL    HW2 6163   2.662   4.866   0.929 -1.6084  1.9272  0.8868
 1976SOL     OW 6164   5.476   2.661   0.555 -0.0615  0.3706  0.0500
 1976SOL    HW1 6165   5.571   2.673   0.560  0.2902 -1.4481 -1.1418
 1976SOL    HW2 6166   5.462   2.626   0.467 -1.5440 -1.5459  0.9643
 1977SOL     OW 6167   4.198   5.012   4.473 -0.1836 -0.0715 -0.1793
 1977SOL    HW1 6168   4.136   5.077   4.504 -1.2738 -0.5446 -1.3034
 1977SOL    HW2 6169   4.203   5.025   4.379 -0.8357 -1.9142 -0.5176
 1978SOL     OW 6170   5.730   1.514   2.148  0.8936  0.1615  0.5618
 1978SOL    HW1 6171   5.718   1.443   2.085 -1.2638 -1.2244  2.3399
 1978SOL    HW2 6172   5.693   1.591   2.106 -1.0988 -0.8751  0.3045
 1979SOL     OW 6173   0.269   2.359   5.735 -0.0597  0.2653 -0.0667
 1979SOL    HW1 6174   0.255   2.284   5.792  2.2584  0.6820  1.1553
 1979SOL    HW2 6175   0.225   2.336   5.653 -2.2344 -0.9643  1.3496
 1980SOL     OW 6176   0.005   0.222   1.577  0.5801 -0.0071 -0.3330
 1980SOL    HW1 6177  -0.011   0.279   1.652  0.6178  0.6880 -0.8504
 1980SOL    HW2 6178   0.097   0.238   1.555  1.1339 -1.5998  0.6255
 1981SOL     OW 6179   3.893   1.578   5.468 -0.3855  0.0055 -0.1138
 1981SOL    HW1 6180   3.875   1.496   5.423  1.2928  0.2133 -1.2367
 1981SOL    HW2 6181   3.898   1.554   5.561 -0.0665 -1.1289 -0.4138
 1982SOL     OW 6182   1.894   5.050   4.305 -0.5449 -0.3462 -0.2389
 1982SOL    HW1 6183   1.844   5.129   4.283 -1.7805 -0.8670  0.5659
 1982SOL    HW2 6184   1.836   5.001   4.363 -0.0211 -2.1079 -1.1305
 1983SOL     OW 6185   0.785   2.394   5.421 -0.1289 -0.3112  0.1973
 1983SOL    HW1 6186   0.806   2.407   5.513 -1.5787  0.7555  0.4156
 1983SOL    HW2 6187   0.841   2.456   5.374  1.5811 -1.7752  0.1973
 1984SOL     OW 6188   2.999   3.352   2.100  0.2054  0.4827 -0.3792
 1984SOL    HW1 6189   2.906   3.328   2.102  0.2177  0.4343 -0.3966
 1984SOL    HW2 6190   3.034   3.322   2.183 -0.0147  1.3769  0.0532
 1985SOL     OW 6191   2.035   3.930   3.416 -0.3536 -0.2768 -0.2950
 1985SOL    HW1 6192   1.989   3.913   3.498  0.4277 -0.6365  0.0796
 1985SOL    HW2 6193   1.966   3.928   3.349 -1.3232  2.0137  0.5507
 1986SOL     OW 6194   4.237   4.911   3.651  0.2471  0.2239  0.2340
 1986SOL    HW1 6195   4.280   4.960   3.722 -0.0978  0.2873  0.4034
 1986SOL    HW2 6196   4.171   4.858   3.696  0.0195  0.2728 -0.0465
 1987SOL     OW 6197   4.196   1.977   0.842 -0.1862 -0.3332  0.1632
 1987SOL    HW1 6198   4.198   1.899   0.786  1.7284 -0.3247  0.1361
 1987SOL    HW2 6199   4.159   1.946   0.924  2.3100 -1.8511  0.8332
 1988SOL     OW 6200   1.301   0.985   1.605 -0.9810 -0.3030 -0.2729
 1988SOL    HW1 6201   1.392   1.012   1.620 -0.8978  0.1809 -1.5367
 1988SOL    HW2 6202   1.273   1.034   1.528 -1.8153 -1.5806 -0.8312
 1989SOL     OW 6203   0.556   4.779   1.893  0.9276 -0.0615  0.1493
 1989SOL    HW1 6204   0.469   4.819   1.901  1.5396  1.4936 -0.5652
 1989SOL    HW2 6205   0.556   4.738   1.806  0.6048 -0.8502  0.5184
 1990SOL     OW 6206   2.724   4.247   1.177 -0.0126 -0.0478 -0.4254
 1990SOL    HW1 6207   2.741   4.160   1.212 -0.2283 -0.3257 -0.9868
 1990SOL    HW2 6208   2.809   4.290   1.177  0.5176 -0.9895 -2.0529
 1991SOL     OW 6209   2.388   3.849   0.920  0.4802 -0.8271 -0.2002
 1991SOL    HW1 6210   2.446   3.790   0.967  0.4157  0.9476  2.2892
 1991SOL    HW2 6211   2.447   3.913   0.879  0.4249 -0.8767 -0.3571
 1992SOL     OW 6212   5.150   4.015   4.660  0.0702  0.0424  0.6470
 1992SOL    HW1 6213   5.093   4.030   4.735  0.3516  2.3979  0.4721
 1992SOL    HW2 6214   5.220   3.959   4.694 -0.4547  0.0702  1.8297
 1993SOL     OW 6215   4.986   0.834   5.468  0.3871 -0.0579 -0.5734
 1993SOL    HW1 6216   5.035   0.796   5.395  1.4156 -1.8960  0.9840
 1993SOL    HW2 6217   5.010   0.927   5.467  2.2529 -0.4926 -1.1636
 1994SOL     OW 6218   1.109   4.498   2.401 -0.1259  0.5782 -0.0567
 1994SOL    HW1 6219   1.190   4.467   2.440 -0.1209  1.0513  0.3264
 1994SOL    HW2 6220   1.135   4.532   2.315 -0.0976 -0.2394 -0.3805
 1995SOL     OW 6221   4.347   2.275   4.861 -0.0126  0.1323 -0.0020
 1995SOL    HW1 6222   4.346   2.261   4.766  0.2520 -0.3484  0.0581
 1995SOL    HW2 6223   4.309   2.194   4.897  1.2056 -0.2980  0.3572
 1996SOL     OW 6224   3.772   4.290   3.458  0.8160 -0.4832 -0.5508
 1996SOL    HW1 6225   3.774   4.329   3.546 -0.0663  2.1857 -1.5995
 1996SOL    HW2 6226   3.844   4.333   3.412 -1.0035  1.0195 -2.1504
 1997SOL     OW 6227   4.393   3.602   2.796  0.2113 -0.1887 -0.2963
 1997SOL    HW1 6228   4.371   3.635   2.883 -0.0881  1.5775 -1.0009
 1997SOL    HW2 6229   4.315   3.620   2.743  0.4390 -1.1231 -0.9777
 1998SOL     OW 6230   5.547   1.543   3.491  0.0173 -0.3474 -0.1129
 1998SOL    HW1 6231   5.593   1.533   3.574 -0.9843 -0.5000  0.4487
 1998SOL    HW2 6232   5.531   1.454   3.461 -1.3739 -0.3423  0.5539
 1999SOL     OW 6233   5.369   0.691   3.148  0.0512  0.2379 -0.2910
 1999SOL    HW1 6234   5.356   0.644   3.066 -0.3612 -0.8728  0.3789
 1999SOL    HW2 6235   5.438   0.642   3.193 -1.6931 -0.9536  1.2488
 2000SOL     OW 6236   0.195   2.263   1.950  0.1002 -0.2913  0.1197
 2000SOL    HW1 6237   0.192   2.249   1.855  1.0119  0.2404  0.0043
 2000SOL    HW2 6238   0.271   2.319   1.964  0.6403 -1.2761  1.2875
 2001SOL     OW 6239   5.628   1.102   3.699  0.1404 -0.5648  0.7788
 2001SOL    HW1 6240   5.682   1.152   3.637  1.2375  1.5148  3.2175
 2001SOL    HW2 6241   5.689   1.042   3.741 -0.2541 -0.8704  0.9168
 2002SOL     OW 6242   0.085   2.797   5.698  0.3002 -1.1549 -0.0092
 2002SOL    HW1 6243   0.026   2.839   5.634 -0.6355 -2.9003 -0.3758
 2002SOL    HW2 6244   0.042   2.811   5.782 -0.1845 -1.6106 -0.1684
 2003SOL     OW 6245   5.013   1.443   5.252  0.2762 -0.0290  0.3549
 2003SOL    HW1 6246   4.988   1.428   5.161 -0.9658  0.7055  0.5514
 2003SOL    HW2 6247   4.988   1.362   5.297  0.4464 -0.2091  0.1240
 2004SOL     OW 6248   0.695   5.275   2.462 -0.3678  0.3120  0.0268
 2004SOL    HW1 6249   0.781   5.236   2.447 -0.2215  0.6374  0.0166
 2004SOL    HW2 6250   0.633   5.206   2.437 -0.1214  0.5931 -1.4211
 2005SOL     OW 6251   2.048   5.242   2.417 -0.1008 -0.4548 -0.6014
 2005SOL    HW1 6252   1.958   5.270   2.432  0.4155  1.1133 -0.2916
 2005SOL    HW2 6253   2.055   5.159   2.465 -0.9812  0.0986  0.5383
 2006SOL     OW 6254   5.347   1.896   3.040 -0.2818 -0.7379 -0.2779
 2006SOL    HW1 6255   5.426   1.930   2.997  0.6871 -0.4507  1.6405
 2006SOL    HW2 6256   5.355   1.801   3.033 -0.4887 -0.6918 -1.3008
 2007SOL     OW 6257   0.269   1.507   4.313 -0.1004  0.4277  0.6051
 2007SOL    HW1 6258   0.357   1.532   4.283  0.0852  0.0255  0.7993
 2007SOL    HW2 6259   0.235   1.586   4.356  0.0606  0.6686  0.2949
 2008SOL     OW 6260   4.022   4.753   2.404 -0.6078  0.5115 -0.3710
 2008SOL    HW1 6261   3.940   4.717   2.368 -0.1861 -1.7422  0.7036
 2008SOL    HW2 6262   4.002   4.770   2.496 -0.2479  1.3154 -0.4330
 2009SOL     OW 6263   3.134   0.504   4.137  0.0028  0.3995  0.6537
 2009SOL    HW1 6264   3.118   0.532   4.046  0.2811  1.8465  1.0219
 2009SOL    HW2 6265   3.047   0.487   4.172 -0.0676 -0.8570 -0.0746
 2010SOL     OW 6266   0.968   0.981   1.823 -0.1416  0.4465  0.3319
 2010SOL    HW1 6267   1.023   1.024   1.888 -0.2516 -0.2158  0.8714
 2010SOL    HW2 6268   0.965   1.043   1.750 -0.6023  1.5125  1.2227
 2011SOL     OW 6269   2.009   4.723   5.417  0.6456  0.1514 -0.3543
 2011SOL    HW1 6270   2.006   4.818   5.406  1.4537  0.0974 -1.0619
 2011SOL    HW2 6271   1.982   4.688   5.333  0.3581 -0.2521 -0.0968
 2012SOL     OW 6272   3.915   0.717   2.274 -0.4740 -0.7453 -0.7251
 2012SOL    HW1 6273   3.855   0.709   2.348  0.8654  2.4906  0.9113
 2012SOL    HW2 6274   3.986   0.657   2.295 -0.1397  0.0859  0.6706
 2013SOL     OW 6275   2.365   2.625   5.217  0.0951 -0.2723 -0.0906
 2013SOL    HW1 6276   2.289   2.593   5.167 -1.1984  1.0402  0.9335
 2013SOL    HW2 6277   2.440   2.579   5.179 -1.2612 -2.0098 -0.8135
 2014SOL     OW 6278   0.902   3.486   4.393  0.5139  0.1230 -0.1731
 2014SOL    HW1 6279   0.874   3.547   4.325  1.3511  1.3564  0.5433
 2014SOL    HW2 6280   0.846   3.506   4.468 -2.5046 -3.2511 -1.2642
 2015SOL     OW 6281   2.308   1.832   4.228  0.0160  0.4441 -0.3297
 2015SOL    HW1 6282   2.356   1.911   4.251 -0.5798  0.4990  0.7896
 2015SOL    HW2 6283   2.291   1.789   4.312 -3.4919  1.3512 -0.4083
 2016SOL     OW 6284   4.001   2.923   5.845  0.2644 -0.4131 -0.0668
 2016SOL    HW1 6285   4.022   2.831   5.862  2.1419  0.2984  2.0694
 2016SOL    HW2 6286   3.907   2.930   5.861  0.0450 -1.9902 -0.5250
 2017SOL     OW 6287   3.269   1.164   4.676  0.4728  0.1804  0.8978
 2017SOL    HW1 6288   3.359   1.137   4.657  0.1453 -0.4491  0.1831
 2017SOL    HW2 6289   3.251   1.233   4.612  0.2239 -0.1669  0.5897
 2018SOL     OW 6290   5.807   0.484   4.782 -0.4959 -1.1287 -0.0853
 2018SOL    HW1 6291   5.763   0.444   4.857 -0.7364  0.3225  0.5741
 2018SOL    HW2 6292   5.873   0.420   4.757  0.7418 -0.9852  2.4420
 2019SOL     OW 6293   4.898   0.347   6.057  0.1134  1.0982  0.2432
 2019SOL    HW1 6294   4.827   0.362   6.120 -0.6304 -1.0784 -0.0053
 2019SOL    HW2 6295   4.978   0.348   6.109 -0.3066  1.3598  0.8888
 2020SOL     OW 6296   3.500   5.707   1.324  0.0004 -0.1180  0.0147
 2020SOL    HW1 6297   3.526   5.616   1.314 -0.7875 -0.4069  0.4896
 2020SOL    HW2 6298   3.414   5.713   1.281 -0.8429 -0.0757  1.6170
 2021SOL     OW 6299   1.419   1.294   4.949  0.2145 -0.2253  0.4051
 2021SOL    HW1 6300   1.395   1.206   4.921 -2.1153  0.5429 -0.1838
 2021SOL    HW2 6301   1.355   1.317   5.016 -0.7997  1.9340 -1.2128
 2022SOL     OW 6302   4.200   0.627   0.680  0.0604  0.0109  0.1784
 2022SOL    HW1 6303   4.167   0.678   0.754  2.2346 -0.3100  1.4689
 2022SOL    HW2 6304   4.290   0.606   0.704  1.0351  0.2931 -2.7808
 2023SOL     OW 6305   0.239   1.725   4.847 -0.4763  0.2317 -0.1868
 2023SOL    HW1 6306   0.268   1.660   4.782 -0.7254 -1.2002  1.0837
 2023SOL    HW2 6307   0.155   1.691   4.878 -0.6330  1.2084  0.4744
 2024SOL     OW 6308   2.152   4.805   1.206  0.3521 -0.3013 -0.4548
 2024SOL    HW1 6309   2.086   4.842   1.147 -1.6456 -2.1276  0.5070
 2024SOL    HW2 6310   2.107   4.793   1.289  2.7042  0.8783  1.1200
 2025SOL     OW 6311   2.049   0.196   2.493 -0.0230  0.2749  0.1386
 2025SOL    HW1 6312   2.064   0.211   2.400 -1.4975  0.1011 -0.1499
 2025SOL    HW2 6313   2.084   0.109   2.510 -0.4763 -0.0185 -0.4286
 2026SOL     OW 6314   2.321   4.864   5.661  1.1541  0.2903  0.0685
 2026SOL    HW1 6315   2.371   4.839   5.583  0.6166  0.5680 -0.3774
 2026SOL    HW2 6316   2.256   4.795   5.670 -0.7352  1.7466 -1.5313
 2027SOL     OW 6317   5.552   5.344   0.600  0.2930  0.5691 -0.1514
 2027SOL    HW1 6318   5.476   5.358   0.656 -1.8003  0.9671 -2.9297
 2027SOL    HW2 6319   5.528   5.271   0.544  2.1472  0.4461 -0.8595
 2028SOL     OW 6320   5.669   5.602   1.240  0.0981  0.7178  0.8456
 2028SOL    HW1 6321   5.616   5.522   1.240  0.4579  0.3509  3.9303
 2028SOL    HW2 6322   5.614   5.667   1.282  0.7207  1.4192  0.5950
 2029SOL     OW 6323   2.551   5.906   5.382  0.1810  0.0009 -0.0657
 2029SOL    HW1 6324   2.553   5.811   5.388 -3.0185 -0.0633  1.9093
 2029SOL    HW2 6325   2.508   5.935   5.462  0.7306  3.1324 -0.7615
 2030SOL     OW 6326   1.109   6.016   0.810 -0.1218 -0.1506 -0.6483
 2030SOL    HW1 6327   1.076   6.048   0.894  0.3711  0.3960 -0.6563
 2030SOL    HW2 6328   1.048   6.052   0.745 -0.6225 -0.7422 -0.5196
 2031SOL     OW 6329   0.826   2.159   1.324  0.7122  0.0545  0.5810
 2031SOL    HW1 6330   0.767   2.091   1.291 -1.0901  1.1541  1.3854
 2031SOL    HW2 6331   0.899   2.111   1.362  0.1478 -1.3834 -0.0925
 2032SOL     OW 6332   1.731   2.636   4.657 -0.0895  0.5638  0.1468
 2032SOL    HW1 6333   1.800   2.652   4.721  0.4341  0.2266 -0.3318
 2032SOL    HW2 6334   1.677   2.715   4.662  0.5611  1.0156  0.2278
 2033SOL     OW 6335   2.368   2.200   1.360 -0.0610 -0.1200  0.3722
 2033SOL    HW1 6336   2.326   2.286   1.370 -2.4975 -1.3485  1.7246
 2033SOL    HW2 6337   2.307   2.151   1.306  1.0442 -1.1735  0.0547
 2034SOL     OW 6338   1.900   0.462   1.516 -0.1733  0.1234  0.0835
 2034SOL    HW1 6339   1.837   0.493   1.582  0.8753  0.2937  1.0324
 2034SOL    HW2 6340   1.974   0.522   1.523  0.6443 -0.8234 -0.1023
 2035SOL     OW 6341   5.402   0.713   1.157 -0.3373 -0.0216 -0.1873
 2035SOL    HW1 6342   5.360   0.633   1.126 -2.4052  1.0374 -0.3045
 2035SOL    HW2 6343   5.371   0.781   1.097 -2.3770  1.6629  2.5223
 2036SOL     OW 6344   0.748   4.329   3.215 -0.2113 -0.3444 -0.7130
 2036SOL    HW1 6345   0.672   4.377   3.182  0.1901 -0.3520 -1.6933
 2036SOL    HW2 6346   0.721   4.238   3.217 -0.9983 -0.1136  1.2124
 2037SOL     OW 6347   2.700   2.886   5.514  0.4110 -0.1378  0.6745
 2037SOL    HW1 6348   2.722   2.796   5.491  0.3831  0.2605 -1.0599
 2037SOL    HW2 6349   2.776   2.917   5.563  1.0269 -0.6932  0.1026
 2038SOL     OW 6350   4.408   0.072   5.223 -0.0585 -0.3869 -1.2136
 2038SOL    HW1 6351   4.464   0.076   5.300 -2.4148  0.1222  0.5892
 2038SOL    HW2 6352   4.379   0.162   5.208  0.0584 -0.5358 -2.4800
 2039SOL     OW 6353   3.500   2.441   1.276  0.1146 -0.1471  0.6564
 2039SOL    HW1 6354   3.558   2.377   1.317  0.0242 -0.4919  0.2516
 2039SOL    HW2 6355   3.457   2.393   1.205  1.8350  0.9695 -1.2569
 2040SOL     OW 6356   2.176   3.726   4.119  0.0138 -0.2782 -0.1141
 2040SOL    HW1 6357   2.217   3.641   4.134 -0.4643 -0.5941 -0.5722
 2040SOL    HW2 6358   2.223   3.785   4.178 -0.2315 -1.0182  0.8542
 2041SOL     OW 6359   0.254   3.718   5.765 -0.1538 -0.2003  0.0408
 2041SOL    HW1 6360   0.176   3.699   5.713 -0.0457  1.0612 -0.6377
 2041SOL    HW2 6361   0.319   3.748   5.701  0.1177  1.0088  0.8514
 2042SOL     OW 6362   2.495   5.608   3.909 -0.1916 -0.7599  0.4792
 2042SOL    HW1 6363   2.452   5.693   3.914  0.8318 -0.2402  0.6504
 2042SOL    HW2 6364   2.518   5.587   3.999 -0.8220 -1.4297  0.4924
 2043SOL     OW 6365   1.923   0.544   4.041  1.1194 -0.4980 -0.8465
 2043SOL    HW1 6366   1.892   0.575   4.126  0.9477 -1.2312 -0.6350
 2043SOL    HW2 6367   2.014   0.518   4.056  1.1044 -0.5826 -0.9011
 2044SOL     OW 6368   3.215   5.364   5.641 -0.7719  0.1251  0.0840
 2044SOL    HW1 6369   3.186   5.281   5.604 -0.5422 -0.0580  0.3095
 2044SOL    HW2 6370   3.296   5.384   5.594 -0.1683 -0.3968  0.8729
 2045SOL     OW 6371   0.990   1.975   2.903 -0.1129  0.2795  0.1233
 2045SOL    HW1 6372   0.980   2.012   2.815 -1.4305 -0.0019  0.1335
 2045SOL    HW2 6373   0.915   1.917   2.914 -1.3811  2.1340  2.3228
 2046SOL     OW 6374   5.254   2.108   4.180  0.1407 -0.2479  0.3942
 2046SOL    HW1 6375   5.180   2.117   4.240  1.8445 -1.9131  2.9752
 2046SOL    HW2 6376   5.331   2.121   4.235  1.8203 -1.3113 -1.5567
 2047SOL     OW 6377   2.815   0.550   0.960  0.5905  0.2264 -0.6162
 2047SOL    HW1 6378   2.880   0.570   1.027  1.6190 -0.5613 -1.3390
 2047SOL    HW2 6379   2.866   0.544   0.879 -0.3671 -0.5541 -1.1739
 2048SOL     OW 6380   3.433   1.790   3.511  0.2994 -0.6047  0.2117
 2048SOL    HW1 6381   3.361   1.786   3.448  0.8714 -1.1840 -0.4198
 2048SOL    HW2 6382   3.406   1.858   3.573  0.3043  0.9568 -1.3921
 2049SOL     OW 6383   0.121   2.424   6.102  0.4913 -0.3183  0.3698
 2049SOL    HW1 6384   0.207   2.384   6.113  1.0677  0.5581 -0.8289
 2049SOL    HW2 6385   0.136   2.518   6.112 -0.2808 -0.1358 -0.0808
 2050SOL     OW 6386   4.850   5.787   4.797 -0.5070 -0.2856 -0.4445
 2050SOL    HW1 6387   4.915   5.759   4.733  0.8785 -0.1236  0.8366
 2050SOL    HW2 6388   4.899   5.796   4.879 -2.1566 -0.2200  0.5892
 2051SOL     OW 6389   5.804   2.997   2.981 -0.1015 -0.0566  0.1383
 2051SOL    HW1 6390   5.806   2.904   2.957 -0.6454 -0.4974  1.6473
 2051SOL    HW2 6391   5.714   3.024   2.961 -0.8159 -0.6507  2.3074
 2052SOL     OW 6392   3.135   0.559   4.539  0.2142  0.0802 -0.1998
 2052SOL    HW1 6393   3.049   0.600   4.550  0.0576 -0.5986  1.3922
 2052SOL    HW2 6394   3.163   0.537   4.628  2.7308  1.6419 -0.4978
 2053SOL     OW 6395   1.030   0.351   2.155 -0.4267 -0.6607 -0.2735
 2053SOL    HW1 6396   0.938   0.347   2.129  0.0289 -1.3257 -1.8936
 2053SOL    HW2 6397   1.068   0.271   2.120  0.3615 -1.4567  2.1886
 2054SOL     OW 6398   2.336   2.668   2.457  0.0443  0.8304  0.4339
 2054SOL    HW1 6399   2.290   2.664   2.373 -2.1742  1.5604  1.5210
 2054SOL    HW2 6400   2.313   2.586   2.501  2.4669 -0.2692 -0.2197
 2055SOL     OW 6401   0.444   2.020   0.593  0.3831  0.1297 -0.3128
 2055SOL    HW1 6402   0.403   2.026   0.679  2.3586 -0.2730  0.7155
 2055SOL    HW2 6403   0.415   2.099   0.547  0.0006  0.8167  1.0461
 2056SOL     OW 6404   4.382   0.359   5.487 -0.1275  0.4683  0.1858
 2056SOL    HW1 6405   4.392   0.377   5.581  1.2554 -0.3418  0.2159
 2056SOL    HW2 6406   4.398   0.444   5.446 -0.6758  0.8165  0.6739
 2057SOL     OW 6407   6.042   4.727   3.581 -0.3514 -0.5404  0.0824
 2057SOL    HW1 6408   5.957   4.687   3.568 -0.6050  0.2992 -1.0279
 2057SOL    HW2 6409   6.088   4.715   3.497  0.4987 -0.7128  0.5619
 2058SOL     OW 6410   2.325   1.480   4.508  0.3416  0.2082 -0.4060
 2058SOL    HW1 6411   2.357   1.400   4.550  2.1271  0.4314 -1.2312
 2058SOL    HW2 6412   2.320   1.458   4.416  0.0359  0.8041 -0.5351
 2059SOL     OW 6413   5.280   5.021   3.287  0.0609  0.5851  0.2544
 2059SOL    HW1 6414   5.236   5.060   3.363 -1.9204 -2.6253  0.9231
 2059SOL    HW2 6415   5.334   4.951   3.323 -0.0081 -0.2670 -1.2011
 2060SOL     OW 6416   2.581   0.715   0.178 -0.0008 -0.3441 -0.4394
 2060SOL    HW1 6417   2.549   0.624   0.180 -0.9222 -0.0156  0.2596
 2060SOL    HW2 6418   2.623   0.728   0.262 -1.1259  0.2954  0.0547
 2061SOL     OW 6419   0.200   5.429   2.341 -0.4320 -0.3528 -0.2197
 2061SOL    HW1 6420   0.227   5.425   2.433 -0.5662 -0.7671 -0.1974
 2061SOL    HW2 6421   0.283   5.437   2.293 -0.4371  2.2967  0.0381
 2062SOL     OW 6422   2.424   5.364   4.519 -0.6418  0.2138 -0.5832
 2062SOL    HW1 6423   2.438   5.277   4.556 -0.7899  0.7887  0.9171
 2062SOL    HW2 6424   2.504   5.383   4.470 -0.2457 -0.4135 -0.1938
 2063SOL     OW 6425   0.408   0.497   2.007  0.4527  0.3023 -0.7599
 2063SOL    HW1 6426   0.337   0.472   2.066  0.8904 -1.6937 -1.0158
 2063SOL    HW2 6427   0.383   0.584   1.976 -1.2059  0.2066  0.1803
 2064SOL     OW 6428   1.274   5.276   5.675 -0.0988 -0.6156  0.0422
 2064SOL    HW1 6429   1.189   5.307   5.704 -0.2065 -1.8196  1.1154
 2064SOL    HW2 6430   1.255   5.218   5.602 -0.1391 -0.3381 -0.1672
 2065SOL     OW 6431   2.607   4.140   2.512 -0.1557 -0.1480 -0.4461
 2065SOL    HW1 6432   2.684   4.168   2.463 -0.6184  0.7873 -0.6452
 2065SOL    HW2 6433   2.545   4.110   2.446 -1.0425  1.7452 -0.5217
 2066SOL     OW 6434   3.175   3.619   4.076  0.0703 -0.0683  0.4873
 2066SOL    HW1 6435   3.148   3.608   4.168 -1.4150  2.2823  0.4032
 2066SOL    HW2 6436   3.093   3.633   4.029  0.9334  0.1560 -1.0037
 2067SOL     OW 6437   4.964   2.969   4.321  0.2686 -0.3315 -0.1890
 2067SOL    HW1 6438   4.986   2.905   4.254  1.3839  0.8315 -0.9849
 2067SOL    HW2 6439   5.025   3.041   4.307 -2.2340  1.8886 -0.7368
 2068SOL     OW 6440   1.207   5.958   2.540 -0.2600 -0.6206 -0.2316
 2068SOL    HW1 6441   1.189   5.869   2.569  2.8516 -2.0308 -2.0704
 2068SOL    HW2 6442   1.236   6.004   2.619 -2.3148 -1.0305  0.8211
 2069SOL     OW 6443   4.365   0.436   5.742 -0.4296 -0.0518  0.2076
 2069SOL    HW1 6444   4.410   0.397   5.817  0.6018  0.3690 -0.1673
 2069SOL    HW2 6445   4.273   0.410   5.752 -0.4040  0.4261  1.8940
 2070SOL     OW 6446   2.651   4.061   0.649 -0.0075 -0.1415 -0.2771
 2070SOL    HW1 6447   2.742   4.031   0.643  0.3262  0.9345 -0.8759
 2070SOL    HW2 6448   2.630   4.053   0.742  0.4617 -1.0528 -0.2365
 2071SOL     OW 6449   2.954   4.358   1.254  0.0942 -0.0755  0.1016
 2071SOL    HW1 6450   3.017   4.312   1.199  1.2486  0.4519  0.9414
 2071SOL    HW2 6451   2.965   4.320   1.341 -0.3200  0.4436  0.3920
 2072SOL     OW 6452   0.667   0.584   6.123  0.3070 -0.6571 -0.2243
 2072SOL    HW1 6453   0.573   0.604   6.115 -0.0148 -1.2802  1.6465
 2072SOL    HW2 6454   0.681   0.511   6.061 -0.9988 -2.1705  1.1724
 2073SOL     OW 6455   0.726   5.019   1.903 -0.3627  0.1515  0.0534
 2073SOL    HW1 6456   0.652   4.959   1.912 -0.9964  0.9596  0.3672
 2073SOL    HW2 6457   0.770   4.992   1.823  0.2528 -1.6805  0.9459
 2074SOL     OW 6458   4.094   2.645   1.208  0.0961 -0.4659  0.6734
 2074SOL    HW1 6459   4.047   2.719   1.245  0.8728  0.6351 -0.4794
 2074SOL    HW2 6460   4.179   2.645   1.253 -0.2516 -1.2786  1.3694
 2075SOL     OW 6461   2.332   5.419   1.220  0.1590 -0.0956  0.3233
 2075SOL    HW1 6462   2.395   5.429   1.291  2.1683  2.6195 -1.6340
 2075SOL    HW2 6463   2.354   5.334   1.181  1.5823  0.0866  0.6671
 2076SOL     OW 6464   5.274   2.306   3.402 -0.1692 -0.1827 -0.2009
 2076SOL    HW1 6465   5.245   2.240   3.339  1.5490 -0.2329 -1.0034
 2076SOL    HW2 6466   5.277   2.261   3.486  0.8988 -1.1410 -0.7254
 2077SOL     OW 6467   4.308   5.191   3.622 -0.1599  0.0142 -0.4753
 2077SOL    HW1 6468   4.254   5.270   3.621 -1.1126 -0.6332 -0.8582
 2077SOL    HW2 6469   4.294   5.151   3.536  1.6656  0.3168 -0.9579
 2078SOL     OW 6470   1.347   0.501   3.016  0.0733  0.1419 -0.1866
 2078SOL    HW1 6471   1.414   0.495   3.085  0.8816  0.3822 -0.9318
 2078SOL    HW2 6472   1.397   0.503   2.935 -0.8967 -2.6810 -0.9809
 2079SOL     OW 6473   2.576   0.098   2.701  0.0660 -0.0120 -0.5669
 2079SOL    HW1 6474   2.578   0.191   2.725 -1.6642 -0.1406  0.2467
 2079SOL    HW2 6475   2.539   0.097   2.613 -1.2167  0.0004 -0.0359
 2080SOL     OW 6476   1.210   1.660   5.850  0.4118 -0.5756 -0.5038
 2080SOL    HW1 6477   1.159   1.616   5.782  0.8435  0.0371 -1.2432
 2080SOL    HW2 6478   1.221   1.595   5.918 -1.0591 -0.8304 -0.4841
 2081SOL     OW 6479   1.895   0.234   4.191  0.4493  0.1415  0.1489
 2081SOL    HW1 6480   1.858   0.314   4.228  0.5679  0.1154  0.3216
 2081SOL    HW2 6481   1.863   0.164   4.248  0.2357  0.0499 -0.0788
 2082SOL     OW 6482   5.622   2.620   0.112  0.5212  0.2099 -0.5802
 2082SOL    HW1 6483   5.548   2.614   0.173 -0.0717 -0.6922 -1.3632
 2082SOL    HW2 6484   5.679   2.548   0.137  1.0823  0.8307 -0.0569
 2083SOL     OW 6485   5.615   0.745   5.801 -0.7920 -0.0615 -0.1723
 2083SOL    HW1 6486   5.650   0.718   5.886 -1.5091  0.9247  0.4519
 2083SOL    HW2 6487   5.650   0.680   5.739  0.4171 -0.3077  0.7348
 2084SOL     OW 6488   5.373   5.207   5.335 -0.5582  0.7581  0.2330
 2084SOL    HW1 6489   5.379   5.185   5.242 -1.1486  1.2041  0.0799
 2084SOL    HW2 6490   5.280   5.195   5.357 -0.5193  1.1518  0.6331
 2085SOL     OW 6491   5.408   0.958   5.898 -0.0350 -0.4211  0.0240
 2085SOL    HW1 6492   5.481   0.903   5.869  1.0074  0.7284  0.3820
 2085SOL    HW2 6493   5.335   0.934   5.841  1.1056 -0.3827 -1.4988
 2086SOL     OW 6494   0.251   1.376   0.921  0.3433 -0.3655 -0.2671
 2086SOL    HW1 6495   0.322   1.314   0.941 -1.6442 -3.1888 -1.3564
 2086SOL    HW2 6496   0.209   1.341   0.843 -1.0344  2.3582 -0.8872
 2087SOL     OW 6497   2.959   2.679   5.211  0.2001 -0.6170  0.3701
 2087SOL    HW1 6498   3.016   2.720   5.146 -1.6348 -0.9273 -1.5474
 2087SOL    HW2 6499   3.018   2.634   5.270  2.2685  3.1596  1.5551
 2088SOL     OW 6500   3.635   3.636   4.778 -0.1721  0.1857 -0.4203
 2088SOL    HW1 6501   3.693   3.562   4.759  0.1269  0.1874  0.4603
 2088SOL    HW2 6502   3.586   3.649   4.697 -0.8830 -1.5688 -0.3142
 2089SOL     OW 6503   2.183   5.421   2.799  0.5318 -0.6517  0.0715
 2089SOL    HW1 6504   2.275   5.445   2.808  0.4560 -0.8463  1.7036
 2089SOL    HW2 6505   2.139   5.472   2.867 -0.3355 -1.7231  0.3314
 2090SOL     OW 6506   1.255   5.976   2.924 -0.5654 -0.0379 -0.0260
 2090SOL    HW1 6507   1.178   5.921   2.934 -1.9745  1.7275 -0.5467
 2090SOL    HW2 6508   1.329   5.919   2.946 -1.7005 -2.7978 -2.6548
 2091SOL     OW 6509   1.482   3.898   4.325  0.1814  0.2353  0.2517
 2091SOL    HW1 6510   1.527   3.977   4.353  1.1985 -0.5836  1.0403
 2091SOL    HW2 6511   1.492   3.837   4.399 -0.6096 -0.6118 -0.3119
 2092SOL     OW 6512   5.397   0.483   5.608 -0.5524 -0.2078  0.2780
 2092SOL    HW1 6513   5.368   0.447   5.692  0.1557 -0.3059  0.4848
 2092SOL    HW2 6514   5.316   0.497   5.559 -0.8784 -2.0612  0.1953
 2093SOL     OW 6515   1.847   0.872   4.316  0.2440 -0.3133 -0.5289
 2093SOL    HW1 6516   1.861   0.903   4.227  2.5913  1.0641  0.2392
 2093SOL    HW2 6517   1.866   0.948   4.371  1.5858 -1.8405  1.2341
 2094SOL     OW 6518   0.699   0.481   5.868 -0.0525 -0.4344 -0.0431
 2094SOL    HW1 6519   0.690   0.404   5.811  1.5511  1.3595 -3.0082
 2094SOL    HW2 6520   0.668   0.554   5.815  4.3760  1.8332 -0.0518
 2095SOL     OW 6521   1.520   5.742   2.209 -0.5091  0.2265  0.8508
 2095SOL    HW1 6522   1.546   5.802   2.138  2.6417 -1.2560  0.5661
 2095SOL    HW2 6523   1.456   5.683   2.169 -0.1415  0.5406 -0.2434
 2096SOL     OW 6524   3.049   3.238   3.924 -0.0528  0.3780 -0.2457
 2096SOL    HW1 6525   2.986   3.303   3.957 -0.6051 -0.7405  0.9950
 2096SOL    HW2 6526   3.134   3.268   3.959 -0.5892 -0.6311  2.1039
 2097SOL     OW 6527   0.131   4.827   5.960 -0.6088 -0.0091  0.5030
 2097SOL    HW1 6528   0.120   4.739   5.923  0.6640  0.3000 -0.6744
 2097SOL    HW2 6529   0.210   4.821   6.014 -1.0164  0.2060  1.1410
 2098SOL     OW 6530   1.952   4.256   4.401  0.1615  0.0051 -0.4415
 2098SOL    HW1 6531   1.885   4.323   4.386  1.7672  1.8532  0.2950
 2098SOL    HW2 6532   2.024   4.281   4.343  1.2139 -0.4424  0.6283
 2099SOL     OW 6533   4.432   2.336   2.410 -0.0932 -0.1542  0.0861
 2099SOL    HW1 6534   4.463   2.305   2.495 -2.2994 -2.5700  0.1253
 2099SOL    HW2 6535   4.437   2.260   2.353  2.6724  1.7437 -2.4807
 2100SOL     OW 6536   5.034   4.996   4.560  0.3055  0.2892  0.1140
 2100SOL    HW1 6537   5.107   4.945   4.527 -0.5889 -0.1976 -1.1594
 2100SOL    HW2 6538   5.026   5.070   4.499  1.3272  1.7962  1.6903
 2101SOL     OW 6539   2.664   5.031   2.637 -0.0437 -0.4082 -0.4562
 2101SOL    HW1 6540   2.714   5.113   2.641 -0.4233 -0.2295  2.6871
 2101SOL    HW2 6541   2.572   5.059   2.637 -0.2325 -0.7193  2.5187
 2102SOL     OW 6542   4.044   2.104   2.082 -0.4173 -0.2474  0.1947
 2102SOL    HW1 6543   4.070   2.017   2.113 -1.5879 -0.2351  1.2955
 2102SOL    HW2 6544   3.965   2.088   2.030 -1.2525  0.2421  1.2706
 2103SOL     OW 6545   2.924   1.591   0.600  0.6110  0.6094 -0.0750
 2103SOL    HW1 6546   3.007   1.592   0.647  0.1948 -0.4138  0.7254
 2103SOL    HW2 6547   2.873   1.522   0.642 -0.3789  0.7276 -1.0174
 2104SOL     OW 6548   5.659   3.456   2.855  0.2108  0.2465 -0.0370
 2104SOL    HW1 6549   5.626   3.411   2.778 -0.6164 -0.4733  0.7129
 2104SOL    HW2 6550   5.730   3.511   2.822  0.6693 -0.9314 -1.1212
 2105SOL     OW 6551   0.087   1.582   0.521  0.1854  0.1260  0.0609
 2105SOL    HW1 6552   0.088   1.611   0.612  1.2553  0.7575 -0.1276
 2105SOL    HW2 6553   0.069   1.661   0.471  2.8792  0.5097 -0.4498
 2106SOL     OW 6554   0.610   4.502   4.467 -0.1016  0.5258 -0.2022
 2106SOL    HW1 6555   0.548   4.435   4.494 -0.2941  1.1384  0.9092
 2106SOL    HW2 6556   0.569   4.585   4.491  0.9560  0.9630  0.1542
 2107SOL     OW 6557   0.336   3.477   3.080 -0.2888 -0.3894  0.0110
 2107SOL    HW1 6558   0.420   3.502   3.041  0.1624  1.0245  1.7285
 2107SOL    HW2 6559   0.274   3.481   3.008  0.7591  0.6291 -0.8791
 2108SOL     OW 6560   3.766   6.034   3.916  0.3720 -0.7080 -0.2244
 2108SOL    HW1 6561   3.805   6.109   3.960 -2.3160  1.8469 -1.8468
 2108SOL    HW2 6562   3.805   6.034   3.829  0.3534 -1.2155 -0.2381
 2109SOL     OW 6563   2.201   4.084   5.193 -0.3695 -0.1674  0.2201
 2109SOL    HW1 6564   2.176   4.170   5.226 -0.4481  0.4238 -1.3001
 2109SOL    HW2 6565   2.125   4.053   5.143 -0.3833 -1.1796  0.8321
 2110SOL     OW 6566   3.529   5.156   1.618 -0.0119  0.0538 -0.1287
 2110SOL    HW1 6567   3.534   5.251   1.609  0.1329  0.0205 -0.3998
 2110SOL    HW2 6568   3.587   5.122   1.550 -0.9958 -0.2585 -0.8466
 2111SOL     OW 6569   6.039   2.456   5.952  0.1933 -0.1810  0.9754
 2111SOL    HW1 6570   6.129   2.460   5.985 -0.0616 -0.0327  1.6626
 2111SOL    HW2 6571   6.049   2.431   5.860  0.9954  1.0308  0.7180
 2112SOL     OW 6572   2.741   4.984   5.753 -0.0888  0.5425 -0.3321
 2112SOL    HW1 6573   2.678   4.969   5.682 -1.7789  0.2389  1.1554
 2112SOL    HW2 6574   2.724   4.913   5.815  2.3869 -0.0695 -0.2843
 2113SOL     OW 6575   5.662   4.632   2.651  0.3989 -0.0378  0.5435
 2113SOL    HW1 6576   5.660   4.585   2.568  1.6708  1.5134 -0.4101
 2113SOL    HW2 6577   5.754   4.658   2.663  0.2600 -0.2466  2.4586
 2114SOL     OW 6578   3.916   1.986   2.634  0.2671 -0.6293 -0.3995
 2114SOL    HW1 6579   3.951   1.913   2.582  0.2749 -0.4926 -0.5872
 2114SOL    HW2 6580   3.823   1.989   2.612  0.8465  1.5993 -3.1010
 2115SOL     OW 6581   3.605   0.343   5.132 -0.4004  0.2827  0.1637
 2115SOL    HW1 6582   3.579   0.368   5.043  1.2646 -1.8039 -0.9908
 2115SOL    HW2 6583   3.697   0.368   5.138 -0.5963  0.7772  1.4951
 2116SOL     OW 6584   3.307   1.572   3.311  1.3229  0.4363 -0.3382
 2116SOL    HW1 6585   3.391   1.590   3.353  1.5563 -0.3816 -0.4400
 2116SOL    HW2 6586   3.313   1.613   3.225  1.5103  0.6227 -0.2358
 2117SOL     OW 6587   0.456   3.608   4.301 -0.1561 -0.2772  0.3133
 2117SOL    HW1 6588   0.408   3.553   4.240  0.8836 -0.4129 -0.3958
 2117SOL    HW2 6589   0.388   3.648   4.356 -1.1280  0.0887 -1.1146
 2118SOL     OW 6590   6.151   0.932   4.316 -0.8094 -0.5188  0.2017
 2118SOL    HW1 6591   6.096   0.973   4.383 -1.0567  1.3044 -1.0446
 2118SOL    HW2 6592   6.100   0.857   4.286 -3.2189  1.6203 -1.5695
 2119SOL     OW 6593   2.830   0.509   2.422  0.1531  0.3380  0.7347
 2119SOL    HW1 6594   2.765   0.488   2.355  1.1092  0.4460 -0.2508
 2119SOL    HW2 6595   2.805   0.455   2.497  0.1939 -1.2714 -0.3596
 2120SOL     OW 6596   3.594   1.358   2.179  0.3867  0.2301  0.1409
 2120SOL    HW1 6597   3.660   1.376   2.246  1.3441 -1.1361 -0.3760
 2120SOL    HW2 6598   3.640   1.305   2.113 -0.7063  0.9390 -1.2577
 2121SOL     OW 6599   0.564   1.802   4.521 -0.0373 -0.0276  0.7081
 2121SOL    HW1 6600   0.585   1.708   4.524 -0.4158 -0.1816 -0.7641
 2121SOL    HW2 6601   0.649   1.845   4.529  0.2898 -0.5341  0.0795
 2122SOL     OW 6602   2.790   6.127   2.507 -0.3424  0.0435 -0.9534
 2122SOL    HW1 6603   2.772   6.078   2.428 -1.6279  0.3590 -0.8718
 2122SOL    HW2 6604   2.722   6.194   2.510 -0.3258  0.0268  0.4204
 2123SOL     OW 6605   1.425   5.067   0.058  0.3202  0.0400  0.6987
 2123SOL    HW1 6606   1.335   5.092   0.038  0.8836  0.8490 -1.0870
 2123SOL    HW2 6607   1.463   5.145   0.099  0.1770 -0.3581  1.6067
 2124SOL     OW 6608   3.598   2.217   5.694 -0.3883  0.1849 -0.1548
 2124SOL    HW1 6609   3.584   2.123   5.705  0.4712  0.1215  0.5476
 2124SOL    HW2 6610   3.602   2.230   5.600  0.9634 -0.7304 -0.2554
 2125SOL     OW 6611   5.394   3.573   0.198  0.1040 -0.3123 -0.3095
 2125SOL    HW1 6612   5.347   3.645   0.155 -1.1058 -0.9678 -0.1215
 2125SOL    HW2 6613   5.457   3.543   0.132  0.4644  0.7557 -0.4716
 2126SOL     OW 6614   2.721   3.821   3.922 -0.0251 -0.0725 -0.0846
 2126SOL    HW1 6615   2.714   3.910   3.955  0.5824  0.1761 -0.6143
 2126SOL    HW2 6616   2.631   3.788   3.922 -0.3438  0.7760 -0.5303
 2127SOL     OW 6617   0.967   0.260   3.354 -0.3363  0.2011  0.2095
 2127SOL    HW1 6618   0.955   0.256   3.259 -0.1972 -0.3020  0.2099
 2127SOL    HW2 6619   0.918   0.338   3.381  0.1771  0.7379 -0.3559
 2128SOL     OW 6620   5.770   4.785   3.887 -0.5149 -0.3675  0.4447
 2128SOL    HW1 6621   5.786   4.828   3.803 -2.0659 -0.4731  0.0687
 2128SOL    HW2 6622   5.687   4.823   3.918 -0.0580 -0.4521  1.8538
 2129SOL     OW 6623   4.494   4.385   2.783 -0.3027 -0.3046 -0.5939
 2129SOL    HW1 6624   4.480   4.337   2.701 -0.1138 -2.0407  0.3478
 2129SOL    HW2 6625   4.509   4.317   2.848  0.0725  1.0643  0.8001
 2130SOL     OW 6626   5.608   5.770   0.166  0.3228  0.2588  0.1022
 2130SOL    HW1 6627   5.535   5.710   0.158  1.5561 -1.1710 -0.9540
 2130SOL    HW2 6628   5.573   5.845   0.214 -1.4627 -0.9397  0.7372
 2131SOL     OW 6629   4.552   2.188   2.883 -0.3198 -0.3746 -0.2797
 2131SOL    HW1 6630   4.507   2.167   2.801 -0.5109  3.2798 -1.3055
 2131SOL    HW2 6631   4.485   2.230   2.937  0.7460  1.0876 -0.0235
 2132SOL     OW 6632   1.187   1.450   0.575 -0.6200 -0.6233 -0.1237
 2132SOL    HW1 6633   1.280   1.459   0.593 -0.5181 -0.3451 -0.7519
 2132SOL    HW2 6634   1.177   1.481   0.485 -1.7031  1.6609  0.7112
 2133SOL     OW 6635   4.046   3.810   4.838  0.3515 -0.6056  0.0611
 2133SOL    HW1 6636   4.067   3.897   4.803 -0.3809 -0.5302 -0.1975
 2133SOL    HW2 6637   4.001   3.827   4.920  0.2812 -0.7455  0.0512
 2134SOL     OW 6638   0.415   0.438   5.237  0.4760  0.2406  0.3851
 2134SOL    HW1 6639   0.495   0.486   5.217  0.1642  0.8099  0.4739
 2134SOL    HW2 6640   0.396   0.388   5.157  0.2684  1.0334 -0.0682
 2135SOL     OW 6641   4.103   5.040   5.160  0.1875 -0.4314  0.4910
 2135SOL    HW1 6642   4.073   5.018   5.248  0.0060  1.3617  0.9142
 2135SOL    HW2 6643   4.173   5.104   5.174  0.5590 -0.5637 -0.6519
 2136SOL     OW 6644   4.240   1.254   5.305 -0.6862 -0.0877  0.2557
 2136SOL    HW1 6645   4.241   1.274   5.212 -1.8338 -0.3223  0.1797
 2136SOL    HW2 6646   4.305   1.313   5.344  0.7806 -0.8874 -0.8487
 2137SOL     OW 6647   1.033   0.921   4.642 -0.5210 -0.0470  0.3112
 2137SOL    HW1 6648   1.024   0.994   4.580  0.1663 -0.0301  0.2218
 2137SOL    HW2 6649   0.943   0.897   4.664 -0.7679  1.3093  0.9017
 2138SOL     OW 6650   1.856   1.582   1.316  0.4165  0.0626  0.1036
 2138SOL    HW1 6651   1.770   1.625   1.314 -0.0677 -0.8840  0.2988
 2138SOL    HW2 6652   1.914   1.649   1.352 -0.5656  0.1737  1.5887
 2139SOL     OW 6653   0.430   3.890   4.215  0.1728  0.3876 -0.4594
 2139SOL    HW1 6654   0.525   3.888   4.201  0.2207  0.9569 -0.2308
 2139SOL    HW2 6655   0.417   3.851   4.301  0.4407  2.6151  0.6579
 2140SOL     OW 6656   1.704   4.177   1.693 -0.0280 -0.2286  0.0681
 2140SOL    HW1 6657   1.623   4.160   1.741  0.1415  0.0350  0.4512
 2140SOL    HW2 6658   1.766   4.111   1.726  0.5267  0.8588  1.3024
 2141SOL     OW 6659   2.794   2.819   3.832  0.2317 -0.2296  0.2346
 2141SOL    HW1 6660   2.733   2.880   3.874  0.7282  0.2004  0.3290
 2141SOL    HW2 6661   2.779   2.736   3.879  0.9568  0.3075  1.4516
 2142SOL     OW 6662   1.396   0.578   3.723  0.3869  0.4098 -0.0926
 2142SOL    HW1 6663   1.379   0.523   3.646  1.2227 -0.2491  0.1724
 2142SOL    HW2 6664   1.490   0.569   3.738  0.3613  1.1486  0.5504
 2143SOL     OW 6665   1.946   1.909   3.980 -0.3834  0.2893  0.2161
 2143SOL    HW1 6666   1.909   1.821   3.971 -1.5633  0.8106 -0.2593
 2143SOL    HW2 6667   1.997   1.905   4.061 -1.0364 -0.6264  0.6045
 2144SOL     OW 6668   1.176   3.588   2.414  0.8492 -0.0545 -0.1959
 2144SOL    HW1 6669   1.211   3.499   2.407 -3.2085 -1.7192 -2.0690
 2144SOL    HW2 6670   1.225   3.637   2.348  0.3315 -2.0418 -2.1874
 2145SOL     OW 6671   4.500   1.126   3.043  0.3301 -0.2506 -0.4853
 2145SOL    HW1 6672   4.558   1.088   3.108 -0.0914 -0.3071 -0.1388
 2145SOL    HW2 6673   4.526   1.085   2.960  1.3542  0.3606 -0.4814
 2146SOL     OW 6674   5.599   3.682   0.589  0.0148  0.1113  0.2182
 2146SOL    HW1 6675   5.671   3.621   0.605 -1.4729 -1.6770  0.4498
 2146SOL    HW2 6676   5.546   3.678   0.668 -1.4610 -0.2387 -0.7575
 2147SOL     OW 6677   5.720   1.243   2.835  0.3092  0.0259 -0.0186
 2147SOL    HW1 6678   5.746   1.299   2.908 -0.5056 -0.5876  0.7660
 2147SOL    HW2 6679   5.635   1.208   2.861  1.7275 -3.3701  0.5783
 2148SOL     OW 6680   4.811   2.469   0.124  0.4114  0.3789 -0.2704
 2148SOL    HW1 6681   4.735   2.515   0.160 -1.4895 -2.7758  0.1989
 2148SOL    HW2 6682   4.887   2.511   0.165 -1.3100  1.3995  2.0981
 2149SOL     OW 6683   0.128   4.544   4.542  0.2242 -0.1977 -0.8154
 2149SOL    HW1 6684   0.158   4.455   4.523 -1.4725 -0.9771 -0.0859
 2149SOL    HW2 6685   0.202   4.586   4.586 -0.2999 -2.7461  3.0512
 2150SOL     OW 6686   1.700   2.493   1.044  0.3203  0.2935  0.5924
 2150SOL    HW1 6687   1.748   2.429   0.991  0.6184 -0.1289  1.3629
 2150SOL    HW2 6688   1.616   2.504   0.998  0.6250  0.0340 -0.0375
 2151SOL     OW 6689   4.770   4.159   2.078 -0.0511  0.3246 -0.3420
 2151SOL    HW1 6690   4.808   4.080   2.040 -0.4090  0.1583 -0.3561
 2151SOL    HW2 6691   4.681   4.162   2.043  0.9446  2.5541 -3.1225
 2152SOL     OW 6692   0.185   5.366   3.292 -0.2585 -0.0309 -0.0857
 2152SOL    HW1 6693   0.207   5.439   3.350 -0.8064 -0.5798  0.8291
 2152SOL    HW2 6694   0.132   5.405   3.223  2.3443  1.0945 -1.6280
 2153SOL     OW 6695   2.949   3.553   4.824  0.6029 -0.0669 -0.5494
 2153SOL    HW1 6696   2.915   3.625   4.878  1.3505 -0.9281  1.1320
 2153SOL    HW2 6697   2.903   3.563   4.740 -1.5365  0.5837  0.6262
 2154SOL     OW 6698   1.701   2.002   0.940 -0.1320  0.4317  0.4171
 2154SOL    HW1 6699   1.650   1.973   0.864  0.1427  0.5618  0.1766
 2154SOL    HW2 6700   1.636   2.032   1.003 -0.4577 -1.1390  0.8704
 2155SOL     OW 6701   4.335   5.198   5.216 -0.3942  0.1781  0.5152
 2155SOL    HW1 6702   4.405   5.154   5.264 -0.6613  0.5448  1.2661
 2155SOL    HW2 6703   4.338   5.288   5.247 -1.2949  0.1634  0.6789
 2156SOL     OW 6704   5.272   5.934   5.779 -1.2489 -0.4708 -0.2151
 2156SOL    HW1 6705   5.309   5.846   5.785 -0.1835  0.0694  1.9102
 2156SOL    HW2 6706   5.327   5.979   5.715 -0.3826 -0.6860  0.3731
 2157SOL     OW 6707   2.082   3.745   3.869 -0.5434 -0.2722  0.1316
 2157SOL    HW1 6708   2.113   3.747   3.960  0.1657  1.1194 -0.1230
 2157SOL    HW2 6709   2.090   3.835   3.839  0.9127 -1.0009 -1.8781
 2158SOL     OW 6710   1.588   0.165   0.726  0.1910  0.3674  0.1248
 2158SOL    HW1 6711   1.548   0.100   0.670 -1.0789  1.2916 -0.0678
 2158SOL    HW2 6712   1.602   0.119   0.810 -0.3167 -0.2551 -0.1252
 2159SOL     OW 6713   0.239   4.892   3.285 -0.2464 -0.2994  0.8316
 2159SOL    HW1 6714   0.263   4.916   3.374 -1.4796  0.2099  1.0598
 2159SOL    HW2 6715   0.256   4.971   3.233 -0.9717 -0.0668  0.9244
 2160SOL     OW 6716   0.888   3.605   4.985 -0.2002 -0.0619  0.2337
 2160SOL    HW1 6717   0.798   3.616   4.956 -0.3353  0.7307  0.9006
 2160SOL    HW2 6718   0.936   3.677   4.943 -0.5064  1.4463  2.2870
 2161SOL     OW 6719   5.587   5.230   2.486 -0.4886  0.2839  0.0906
 2161SOL    HW1 6720   5.532   5.304   2.514 -1.0058  0.1242 -0.4760
 2161SOL    HW2 6721   5.590   5.172   2.562 -2.9600 -0.7889 -0.5206
 2162SOL     OW 6722   1.478   3.033   3.982  0.2452 -0.5041 -0.5381
 2162SOL    HW1 6723   1.511   2.991   4.062 -0.6151 -0.7249 -0.2798
 2162SOL    HW2 6724   1.474   2.962   3.918 -0.5721 -0.6844 -0.2997
 2163SOL     OW 6725   0.009   1.582   4.901  0.3982  0.3976 -0.4951
 2163SOL    HW1 6726  -0.073   1.606   4.858  1.4676  0.0599 -2.9348
 2163SOL    HW2 6727   0.006   1.486   4.905  0.5906  0.3934 -0.4554
 2164SOL     OW 6728   1.594   5.926   2.017  0.5811 -0.3564 -0.3577
 2164SOL    HW1 6729   1.613   6.020   2.017 -1.6421  0.1707 -2.0656
 2164SOL    HW2 6730   1.549   5.910   1.934  0.3452 -2.8339  0.1540
 2165SOL     OW 6731   0.561   2.345   0.629 -0.0998  0.4011  0.4678
 2165SOL    HW1 6732   0.605   2.386   0.704 -0.6110 -1.0513  1.6286
 2165SOL    HW2 6733   0.471   2.332   0.659 -0.7588  1.3393 -1.0544
 2166SOL     OW 6734   5.723   4.171   5.457  0.3460  0.1474  0.4618
 2166SOL    HW1 6735   5.730   4.266   5.445 -1.3010  0.3642  1.0183
 2166SOL    HW2 6736   5.732   4.136   5.368  0.6602  0.8279  0.2124
 2167SOL     OW 6737   2.803   3.354   0.789 -0.0171  0.2288 -0.5098
 2167SOL    HW1 6738   2.811   3.448   0.777 -0.7429  0.5828  1.4015
 2167SOL    HW2 6739   2.891   3.320   0.773  0.4114  1.3070 -0.5397
 2168SOL     OW 6740   5.819   4.855   4.739 -0.5196 -0.2674  0.1036
 2168SOL    HW1 6741   5.762   4.892   4.807 -1.0468 -1.0364  0.0925
 2168SOL    HW2 6742   5.862   4.931   4.701 -0.0432  0.1711  1.4479
 2169SOL     OW 6743   2.454   4.758   2.458 -0.1094 -0.4029  0.1684
 2169SOL    HW1 6744   2.387   4.729   2.520  0.9933 -0.2848  1.4704
 2169SOL    HW2 6745   2.416   4.835   2.415 -1.6750 -1.6390 -0.7731
 2170SOL     OW 6746   3.738   1.723   0.656  0.4288 -0.1195  0.5905
 2170SOL    HW1 6747   3.719   1.657   0.722 -2.5632  0.4532  0.4290
 2170SOL    HW2 6748   3.659   1.777   0.652  0.6985  0.2586 -3.0169
 2171SOL     OW 6749   2.563   1.396   5.071  0.5663  0.1220 -0.3624
 2171SOL    HW1 6750   2.588   1.485   5.048 -0.1521 -0.0113 -1.7653
 2171SOL    HW2 6751   2.560   1.349   4.987 -1.2050 -0.6645  0.0912
 2172SOL     OW 6752   4.654   2.340   5.752  0.0135 -0.4618 -0.0868
 2172SOL    HW1 6753   4.643   2.348   5.657 -2.9086  0.0234  0.2253
 2172SOL    HW2 6754   4.711   2.263   5.763 -1.7931 -2.2322 -2.1915
 2173SOL     OW 6755   5.184   4.749   1.948  0.4423  0.2051  0.1763
 2173SOL    HW1 6756   5.207   4.682   2.012 -2.1107  0.1993  1.1920
 2173SOL    HW2 6757   5.200   4.707   1.863 -1.0375 -1.7109  0.7870
 2174SOL     OW 6758   2.617   0.109   1.470  0.5575 -0.0701  0.0940
 2174SOL    HW1 6759   2.549   0.176   1.479  1.4644  0.8192  0.4744
 2174SOL    HW2 6760   2.638   0.108   1.377 -1.6235 -2.0492 -0.4719
 2175SOL     OW 6761   1.143   0.731   6.130  0.0498 -0.0630 -0.5206
 2175SOL    HW1 6762   1.055   0.739   6.094 -0.9732  0.1587  1.8621
 2175SOL    HW2 6763   1.172   0.821   6.143 -0.3324 -0.1105  0.8085
 2176SOL     OW 6764   3.722   5.079   4.499 -0.2582 -0.3249  0.4284
 2176SOL    HW1 6765   3.699   4.986   4.487  0.2964 -0.4932  0.6169
 2176SOL    HW2 6766   3.648   5.116   4.545 -1.5674 -0.1206 -1.7014
 2177SOL     OW 6767   0.882   5.100   4.831  0.3424  0.1393  0.1470
 2177SOL    HW1 6768   0.801   5.100   4.881 -0.1194  1.2116 -0.5733
 2177SOL    HW2 6769   0.887   5.012   4.793  0.2176 -0.3703  1.2764
 2178SOL     OW 6770   0.306   3.845   3.964  0.6194 -0.2713 -0.0025
 2178SOL    HW1 6771   0.333   3.921   3.913  0.4579  0.0194  0.3471
 2178SOL    HW2 6772   0.373   3.836   4.031  0.0375  0.2416  0.6522
 2179SOL     OW 6773   4.261   5.999   1.934  0.6396  0.2234 -0.5737
 2179SOL    HW1 6774   4.225   5.928   1.987  0.5605  0.5268 -0.2150
 2179SOL    HW2 6775   4.261   5.964   1.845  2.0612 -0.7925 -0.2029
 2180SOL     OW 6776   2.447   1.853   4.570  0.2097 -0.3245 -0.3152
 2180SOL    HW1 6777   2.504   1.913   4.619  0.7720 -1.5395  0.5519
 2180SOL    HW2 6778   2.398   1.911   4.511  1.0956  0.9346  0.1283
 2181SOL     OW 6779   3.311   4.004   5.141 -0.4661  0.1552  0.2495
 2181SOL    HW1 6780   3.305   4.079   5.081 -0.6525  0.3332  0.4876
 2181SOL    HW2 6781   3.266   3.933   5.096 -2.1191  0.7497  0.8860
 2182SOL     OW 6782   4.040   3.319   0.976 -0.4697  0.3268 -0.1496
 2182SOL    HW1 6783   4.093   3.339   0.899 -2.2844  0.5256 -1.4010
 2182SOL    HW2 6784   3.952   3.306   0.942 -0.6589 -3.6232  1.3398
 2183SOL     OW 6785   1.222   3.135   0.269  0.1992 -0.0035  0.0698
 2183SOL    HW1 6786   1.129   3.142   0.250  0.1901 -1.0308 -0.3674
 2183SOL    HW2 6787   1.240   3.041   0.265  1.1951  0.1552  0.4388
 2184SOL     OW 6788   2.816   1.409   1.655  0.2282  0.3021 -0.0780
 2184SOL    HW1 6789   2.832   1.499   1.683 -0.3726  0.5341 -0.4694
 2184SOL    HW2 6790   2.830   1.410   1.560  0.5388 -0.0876 -0.0371
 2185SOL     OW 6791   2.040   5.819   3.180 -0.2826  0.5455 -0.2818
 2185SOL    HW1 6792   2.043   5.912   3.201  0.3187  0.3497  0.6104
 2185SOL    HW2 6793   2.093   5.778   3.249 -2.1914 -0.6706  0.5610
 2186SOL     OW 6794   2.470   4.796   3.110  0.2359  0.0903  0.1509
 2186SOL    HW1 6795   2.556   4.789   3.152  0.3917  1.4490  0.0807
 2186SOL    HW2 6796   2.465   4.717   3.056  1.0482 -0.4676  0.8374
 2187SOL     OW 6797   3.480   4.059   5.494  0.2569 -0.1009  0.7422
 2187SOL    HW1 6798   3.459   3.967   5.476 -0.5981  0.2301 -0.0760
 2187SOL    HW2 6799   3.403   4.093   5.539  0.5181  0.2486  0.9306
 2188SOL     OW 6800   3.701   3.545   5.611 -0.6207  0.8542  0.3073
 2188SOL    HW1 6801   3.787   3.514   5.584 -0.3110  1.5091  0.5421
 2188SOL    HW2 6802   3.711   3.572   5.702 -1.0319  1.0939  0.2866
 2189SOL     OW 6803   0.004   3.696   2.008 -0.2081  0.1650 -0.4309
 2189SOL    HW1 6804   0.071   3.752   2.050  0.0177  0.5108 -1.2228
 2189SOL    HW2 6805   0.042   3.608   2.010  0.2792  0.3550 -0.8565
 2190SOL     OW 6806   6.011   0.435   4.109 -0.5291 -0.3418 -0.5190
 2190SOL    HW1 6807   5.964   0.434   4.026  0.2558  1.1859 -1.0142
 2190SOL    HW2 6808   6.097   0.398   4.087 -0.8298 -1.3469 -0.0396
 2191SOL     OW 6809   5.894   4.636   4.058  0.2886 -0.3475 -0.5480
 2191SOL    HW1 6810   5.846   4.694   3.998  1.4572  0.2324 -0.9572
 2191SOL    HW2 6811   5.957   4.591   4.002  1.7744  0.5952  0.3035
 2192SOL     OW 6812   2.188   5.345   6.037 -0.1888 -0.1132 -0.0998
 2192SOL    HW1 6813   2.144   5.361   6.121 -1.8555 -0.6091 -0.8408
 2192SOL    HW2 6814   2.193   5.431   5.996  0.5156  0.1105  0.4251
 2193SOL     OW 6815   0.473   2.986   0.553  0.9744  0.1750 -0.6248
 2193SOL    HW1 6816   0.551   2.995   0.609 -1.5464 -1.1181  3.5687
 2193SOL    HW2 6817   0.490   2.908   0.501  2.6157  0.0722 -0.0070
 2194SOL     OW 6818   3.694   5.699   3.591  0.2752 -0.0120 -0.0547
 2194SOL    HW1 6819   3.706   5.769   3.655  2.2072  0.0078 -0.3856
 2194SOL    HW2 6820   3.653   5.628   3.641 -0.4622  0.8406  0.5982
 2195SOL     OW 6821   4.787   0.805   5.074  0.4953 -0.6931 -0.0517
 2195SOL    HW1 6822   4.816   0.848   5.154 -1.7141 -0.7384  0.8518
 2195SOL    HW2 6823   4.734   0.731   5.104 -2.4051  0.6583 -1.4233
 2196SOL     OW 6824   3.990   5.877   4.936  0.3334  0.5161 -0.5974
 2196SOL    HW1 6825   3.948   5.951   4.981 -0.6716  0.1217 -0.8849
 2196SOL    HW2 6826   4.051   5.842   5.001 -2.2254 -1.0412  1.1170
 2197SOL     OW 6827   3.882   1.117   2.341 -0.6046 -0.0231 -0.3004
 2197SOL    HW1 6828   3.885   1.148   2.431 -0.4498 -0.3303 -0.1987
 2197SOL    HW2 6829   3.791   1.087   2.329 -0.3886 -0.8555  0.0533
 2198SOL     OW 6830   1.073   3.246   4.072 -0.2880  0.3406  0.8750
 2198SOL    HW1 6831   1.131   3.278   4.142  0.6353  1.1962 -0.2317
 2198SOL    HW2 6832   1.127   3.184   4.024 -0.6026  0.4319  0.3992
 2199SOL     OW 6833   3.506   0.849   3.530  0.1799 -0.0117 -0.2904
 2199SOL    HW1 6834   3.502   0.944   3.524  0.4033 -0.0644 -1.6253
 2199SOL    HW2 6835   3.541   0.831   3.617  0.3660  1.1319 -0.1202
 2200SOL     OW 6836   1.443   5.160   1.526 -0.3051  0.0867 -0.0887
 2200SOL    HW1 6837   1.524   5.181   1.572 -0.2146  0.2630 -0.3237
 2200SOL    HW2 6838   1.452   5.068   1.503 -0.3022  0.0272  0.1472
 2201SOL     OW 6839   1.665   0.882   3.764  0.0695 -0.1940  0.0613
 2201SOL    HW1 6840   1.652   0.952   3.828 -2.3776 -1.1847  0.7796
 2201SOL    HW2 6841   1.673   0.802   3.817  0.3797 -0.7547 -0.8057
 2202SOL     OW 6842   4.291   5.118   3.353  0.3552 -0.5002 -0.5222
 2202SOL    HW1 6843   4.336   5.177   3.293 -0.4803 -0.3791 -1.0603
 2202SOL    HW2 6844   4.269   5.042   3.299 -0.8871 -0.1580 -0.5401
 2203SOL     OW 6845   3.238   2.911   0.975 -0.4828  0.5424 -0.6047
 2203SOL    HW1 6846   3.146   2.935   0.985 -0.8580 -0.7281 -0.8566
 2203SOL    HW2 6847   3.238   2.816   0.974  1.0879  0.4236  1.7714
 2204SOL     OW 6848   5.929   5.044   5.545  0.2995 -0.0161  0.0625
 2204SOL    HW1 6849   5.964   4.985   5.612  1.2461  0.7258  0.2403
 2204SOL    HW2 6850   5.986   5.030   5.470  0.0805  0.1468 -0.1320
 2205SOL     OW 6851   3.049   3.313   6.053  0.7038  0.6266 -0.3652
 2205SOL    HW1 6852   2.973   3.262   6.026  1.2176  0.3764 -1.3813
 2205SOL    HW2 6853   3.079   3.271   6.133  0.5073 -0.0343 -0.6357
 2206SOL     OW 6854   4.831   4.531   0.537 -0.2413  0.5751 -0.5316
 2206SOL    HW1 6855   4.828   4.444   0.497  1.3656  0.4833 -0.5257
 2206SOL    HW2 6856   4.900   4.577   0.489 -1.4520  2.0721 -0.9268
 2207SOL     OW 6857   1.131   3.139   3.565 -0.1284 -0.0637  0.2432
 2207SOL    HW1 6858   1.148   3.044   3.566 -0.0540 -0.0659  2.1818
 2207SOL    HW2 6859   1.068   3.153   3.636 -1.0098  1.2139 -0.7467
 2208SOL     OW 6860   4.503   2.470   2.126 -0.1500 -0.2392 -0.5693
 2208SOL    HW1 6861   4.511   2.381   2.160  0.7624 -0.3458 -1.0309
 2208SOL    HW2 6862   4.508   2.527   2.203  1.4638 -0.4934 -0.4439
 2209SOL     OW 6863   2.871   0.836   1.315 -0.0756 -0.2398  0.2394
 2209SOL    HW1 6864   2.795   0.779   1.325 -0.8500  1.0560  2.2794
 2209SOL    HW2 6865   2.935   0.802   1.378  1.0546 -1.2431 -1.3683
 2210SOL     OW 6866   1.884   0.510   2.912  0.1904 -0.2357  0.2550
 2210SOL    HW1 6867   1.956   0.452   2.933 -0.2911 -1.1626 -0.5875
 2210SOL    HW2 6868   1.923   0.597   2.906  1.6664 -0.9696 -2.2318
 2211SOL     OW 6869   5.425   0.212   4.304  0.0879 -0.1753  0.0744
 2211SOL    HW1 6870   5.446   0.147   4.371  1.3991 -0.1497 -0.2693
 2211SOL    HW2 6871   5.330   0.215   4.302  0.0064 -0.2058  1.9092
 2212SOL     OW 6872   0.505   2.176   0.944  0.2802  0.4575  0.1199
 2212SOL    HW1 6873   0.599   2.190   0.934  0.2336 -0.0261 -1.1667
 2212SOL    HW2 6874   0.480   2.230   1.019  1.6536  0.2296  0.7546
 2213SOL     OW 6875   1.177   4.458   3.233  0.2048 -0.3331  0.0060
 2213SOL    HW1 6876   1.168   4.364   3.253  0.5619 -1.3557 -3.8401
 2213SOL    HW2 6877   1.235   4.461   3.157  2.4122  3.3061  1.5579
 2214SOL     OW 6878   2.552   0.629   3.475  0.7616  0.2059  0.2341
 2214SOL    HW1 6879   2.581   0.682   3.401  2.1142 -1.1407 -0.2305
 2214SOL    HW2 6880   2.517   0.549   3.435  3.7890 -1.6553  1.0322
 2215SOL     OW 6881   2.946   1.192   2.779 -0.5344 -0.1122 -0.2641
 2215SOL    HW1 6882   2.965   1.118   2.721 -1.2937  0.1107 -0.8120
 2215SOL    HW2 6883   2.857   1.218   2.756 -0.8323  0.0046  0.9936
 2216SOL     OW 6884   1.048   2.722   3.313 -0.0014  0.0068  0.1920
 2216SOL    HW1 6885   1.032   2.637   3.271  1.1098 -0.3528  0.4596
 2216SOL    HW2 6886   1.135   2.747   3.282  1.4514 -0.8496  3.1717
 2217SOL     OW 6887   5.063   1.566   5.908 -0.0626  0.5968  0.2030
 2217SOL    HW1 6888   5.101   1.489   5.951 -1.2419  0.6324  1.3489
 2217SOL    HW2 6889   4.970   1.564   5.932 -0.8927  0.4464 -2.5699
 2218SOL     OW 6890   2.340   0.080   5.811 -0.3121 -0.6508 -0.4212
 2218SOL    HW1 6891   2.300   0.003   5.771 -0.7943 -0.4926 -0.2459
 2218SOL    HW2 6892   2.419   0.096   5.759 -0.5445 -0.8842 -0.8494
 2219SOL     OW 6893   0.809   0.756   2.792  0.3607 -0.7042  0.4279
 2219SOL    HW1 6894   0.790   0.789   2.880 -2.0436  1.9725 -0.9263
 2219SOL    HW2 6895   0.749   0.683   2.780  0.0105 -0.4582  0.6760
 2220SOL     OW 6896   0.265   5.760   5.758  0.2564  0.1501  0.4966
 2220SOL    HW1 6897   0.328   5.821   5.718  1.8327 -1.2793  0.6665
 2220SOL    HW2 6898   0.196   5.751   5.693  1.4562 -0.1035 -0.8081
 2221SOL     OW 6899   6.003   0.667   2.760 -0.3484  0.2895  0.0164
 2221SOL    HW1 6900   6.062   0.725   2.711  1.4950 -0.1757  1.5327
 2221SOL    HW2 6901   5.991   0.591   2.703 -0.2519  0.8012 -0.7022
 2222SOL     OW 6902   3.451   1.500   1.044 -0.1762  0.0977  0.6274
 2222SOL    HW1 6903   3.405   1.584   1.043  0.5340  0.4908 -0.3536
 2222SOL    HW2 6904   3.440   1.467   1.133 -2.4773  0.1081  0.4174
 2223SOL     OW 6905   6.049   5.195   5.324  0.6661 -0.2103  0.2671
 2223SOL    HW1 6906   6.104   5.205   5.401  2.5836  0.9913 -1.1800
 2223SOL    HW2 6907   6.085   5.255   5.259 -1.5189 -0.3831 -1.2549
 2224SOL     OW 6908   2.982   4.248   1.515 -0.5006  0.0776  0.3150
 2224SOL    HW1 6909   3.020   4.299   1.586  0.3749  0.6031 -0.5074
 2224SOL    HW2 6910   3.035   4.168   1.512 -0.8524 -0.1696  0.5617
 2225SOL     OW 6911   4.687   4.978   3.254  0.2356  0.4660 -0.1293
 2225SOL    HW1 6912   4.614   4.942   3.303 -0.7283  2.1477 -0.2640
 2225SOL    HW2 6913   4.715   4.906   3.196 -1.0110 -0.3361  0.2304
 2226SOL     OW 6914   0.718   3.861   4.838 -0.3044 -0.1148  0.6430
 2226SOL    HW1 6915   0.813   3.861   4.850 -0.3484  0.3140  1.0044
 2226SOL    HW2 6916   0.687   3.933   4.893 -0.9128 -0.7402  1.1323
 2227SOL     OW 6917   3.413   1.755   5.386  0.4345 -0.0931  0.7272
 2227SOL    HW1 6918   3.483   1.696   5.416 -0.0408 -1.7002 -1.1249
 2227SOL    HW2 6919   3.332   1.712   5.413  0.1032  0.3995  0.5203
 2228SOL     OW 6920   0.339   1.718   3.294  0.2001  0.0164  0.2437
 2228SOL    HW1 6921   0.415   1.661   3.305  0.9110  0.3503 -2.4099
 2228SOL    HW2 6922   0.298   1.688   3.213 -0.6387  1.9343 -0.0983
 2229SOL     OW 6923   0.455   4.720   1.642 -0.0638  0.7175  0.1704
 2229SOL    HW1 6924   0.521   4.716   1.573 -0.9236  2.9110 -0.8887
 2229SOL    HW2 6925   0.374   4.691   1.601 -0.2450  0.3731  0.7584
 2230SOL     OW 6926   0.326   2.016   4.949  0.0832  0.5936 -0.3383
 2230SOL    HW1 6927   0.300   1.979   5.033 -1.2709  0.6271 -0.7253
 2230SOL    HW2 6928   0.325   1.942   4.889  1.3439  0.5091 -0.2874
 2231SOL     OW 6929   2.606   2.079   5.153 -0.1442 -0.2622  0.4353
 2231SOL    HW1 6930   2.561   2.000   5.121  1.2881 -0.5805 -0.9137
 2231SOL    HW2 6931   2.598   2.141   5.080 -0.1023  0.3715  0.9672
 2232SOL     OW 6932   0.261   2.733   5.423 -0.2282 -0.0778 -0.0808
 2232SOL    HW1 6933   0.344   2.742   5.376  0.4714  0.5657  1.2148
 2232SOL    HW2 6934   0.274   2.783   5.504 -1.6505 -0.5115  0.4461
 2233SOL     OW 6935   6.060   1.680   4.556 -0.3095  0.1103 -0.7758
 2233SOL    HW1 6936   6.140   1.732   4.549 -0.8828  1.1820  0.3003
 2233SOL    HW2 6937   6.026   1.698   4.643 -1.4222 -0.7912 -0.9873
 2234SOL     OW 6938   1.746   3.583   2.097  0.4120  0.5037 -0.9822
 2234SOL    HW1 6939   1.767   3.673   2.123 -0.8274  0.3402  0.7712
 2234SOL    HW2 6940   1.808   3.529   2.146 -1.4713  0.2306  1.2357
 2235SOL     OW 6941   5.494   5.980   2.782  0.1868  0.2898  0.3463
 2235SOL    HW1 6942   5.459   5.891   2.776  2.1617 -0.4699 -0.8600
 2235SOL    HW2 6943   5.428   6.028   2.832 -1.0469 -1.7799  0.8386
 2236SOL     OW 6944   2.260   1.681   4.683 -0.4585 -0.2715 -0.7658
 2236SOL    HW1 6945   2.324   1.749   4.661 -0.6862  0.4062  0.5427
 2236SOL    HW2 6946   2.286   1.605   4.631  0.8380  0.2794 -0.9535
 2237SOL     OW 6947   5.882   4.620   1.000 -0.3377  0.2418  0.2093
 2237SOL    HW1 6948   5.841   4.543   1.039  1.3795 -1.5681 -1.2784
 2237SOL    HW2 6949   5.976   4.601   1.004  0.0194  0.6413 -3.1776
 2238SOL     OW 6950   1.180   0.962   3.444 -0.2538 -0.2057 -0.5689
 2238SOL    HW1 6951   1.196   0.873   3.474  0.7058  0.0715 -0.2095
 2238SOL    HW2 6952   1.170   0.954   3.350 -0.7305 -0.7649 -0.4738
 2239SOL     OW 6953   4.227   0.274   2.234  0.3748 -0.2004 -0.2629
 2239SOL    HW1 6954   4.178   0.236   2.308  0.2282  1.5080  0.5647
 2239SOL    HW2 6955   4.272   0.199   2.194 -1.9698 -1.6605 -0.3528
 2240SOL     OW 6956   2.261   1.744   4.956  0.2263  0.0637 -0.2204
 2240SOL    HW1 6957   2.196   1.814   4.953 -1.2766 -1.2932 -0.9414
 2240SOL    HW2 6958   2.281   1.725   4.865 -0.3554 -1.2614 -0.1055
 2241SOL     OW 6959   1.753   1.570   5.865 -0.1024 -0.6171  0.4294
 2241SOL    HW1 6960   1.685   1.505   5.851  0.2462 -0.6079 -1.6371
 2241SOL    HW2 6961   1.802   1.572   5.782  1.4074  0.5200  1.2887
 2242SOL     OW 6962   0.651   1.856   0.727  0.2648 -0.2073  0.0857
 2242SOL    HW1 6963   0.580   1.905   0.687 -0.0046  1.5058  2.4205
 2242SOL    HW2 6964   0.728   1.912   0.716  0.0669  0.6139  2.2934
 2243SOL     OW 6965   3.778   6.029   4.356  0.4588 -0.1099 -0.3394
 2243SOL    HW1 6966   3.808   6.010   4.267 -0.3559  0.4664 -0.7482
 2243SOL    HW2 6967   3.836   5.976   4.412  0.3767 -1.2092 -1.2482
 2244SOL     OW 6968   3.259   0.385   2.651 -0.2428 -0.2332  0.4502
 2244SOL    HW1 6969   3.290   0.459   2.705 -1.2566 -0.0641  0.8225
 2244SOL    HW2 6970   3.171   0.410   2.625  0.0715 -0.5192 -0.9522
 2245SOL     OW 6971   5.895   1.603   4.794 -0.0685 -0.0140  0.2134
 2245SOL    HW1 6972   5.906   1.695   4.819 -0.0173  0.1843 -0.4903
 2245SOL    HW2 6973   5.827   1.605   4.726 -1.0121 -0.6591  1.1250
 2246SOL     OW 6974   3.394   2.445   1.835  0.1481 -0.0289  0.2239
 2246SOL    HW1 6975   3.334   2.516   1.816 -1.2342 -0.7105  1.8122
 2246SOL    HW2 6976   3.416   2.456   1.928 -1.5435 -2.6397  1.0310
 2247SOL     OW 6977   3.659   1.222   4.008 -0.1963  0.1648 -0.3992
 2247SOL    HW1 6978   3.716   1.287   4.048  0.2465 -0.9741  0.9257
 2247SOL    HW2 6979   3.571   1.242   4.042  0.2129 -0.9538  1.4957
 2248SOL     OW 6980   1.154   1.952   3.786  0.8890  0.2842 -0.3762
 2248SOL    HW1 6981   1.178   2.040   3.815  0.5017  0.3685 -0.3050
 2248SOL    HW2 6982   1.096   1.919   3.854  0.3438  0.3048 -0.8288
 2249SOL     OW 6983   5.645   0.581   1.058  0.5948 -0.1125  0.1273
 2249SOL    HW1 6984   5.690   0.587   1.142 -0.7656 -2.1784  1.0864
 2249SOL    HW2 6985   5.557   0.616   1.074 -0.9558 -3.7617  0.7321
 2250SOL     OW 6986   4.819   3.519   1.675  0.1022  0.3991  0.2658
 2250SOL    HW1 6987   4.761   3.579   1.628  0.0376  1.3965  1.5855
 2250SOL    HW2 6988   4.789   3.432   1.649  0.8116  0.8538 -2.4540
 2251SOL     OW 6989   4.593   0.750   3.457  0.0179  0.2164  0.6063
 2251SOL    HW1 6990   4.567   0.786   3.372  0.3243 -0.7834  0.0639
 2251SOL    HW2 6991   4.590   0.824   3.517  1.4480  1.3301 -0.6292
 2252SOL     OW 6992   2.291   2.414   2.617  0.4896 -0.7353 -0.5432
 2252SOL    HW1 6993   2.356   2.374   2.675  1.4949 -0.7152 -1.6119
 2252SOL    HW2 6994   2.276   2.349   2.549  0.1603 -0.3295 -0.8619
 2253SOL     OW 6995   4.376   4.440   5.421  0.1878 -0.4986 -0.0416
 2253SOL    HW1 6996   4.321   4.516   5.400 -1.1553 -0.9750  1.5002
 2253SOL    HW2 6997   4.456   4.454   5.371 -1.0077  0.6433 -1.7744
 2254SOL     OW 6998   3.207   6.084   5.753  0.4460 -0.3205  0.3372
 2254SOL    HW1 6999   3.125   6.037   5.764 -0.9346  1.7241 -0.5671
 2254SOL    HW2 7000   3.227   6.118   5.840 -0.7191  0.7177  0.2357
 2255SOL     OW 7001   0.230   1.178   6.034  0.3560 -0.1611 -0.3923
 2255SOL    HW1 7002   0.291   1.210   5.968 -0.4749  1.4002 -0.4487
 2255SOL    HW2 7003   0.165   1.128   5.985  0.2949  0.1509 -0.6289
 2256SOL     OW 7004   1.933   2.896   1.917  0.3393 -0.2251  0.1067
 2256SOL    HW1 7005   1.899   2.959   1.853 -1.0234 -1.8386 -0.8389
 2256SOL    HW2 7006   2.027   2.911   1.917  0.1523  1.1725 -0.7708
 2257SOL     OW 7007   1.663   0.106   5.698 -0.2045 -0.2393 -0.1999
 2257SOL    HW1 7008   1.690   0.072   5.783  1.6099  1.7138  0.0881
 2257SOL    HW2 7009   1.607   0.180   5.719 -0.3615 -0.2074 -0.7246
 2258SOL     OW 7010   0.128   1.907   2.238  0.3333 -0.4361 -0.1996
 2258SOL    HW1 7011   0.055   1.907   2.300  0.3478 -0.0478 -0.1820
 2258SOL    HW2 7012   0.094   1.954   2.162  0.2023 -1.1877 -0.6230
 2259SOL     OW 7013   0.929   2.636   5.657  0.2940  0.2036  0.1575
 2259SOL    HW1 7014   0.869   2.709   5.644 -0.3984 -0.6069 -1.5556
 2259SOL    HW2 7015   0.872   2.564   5.686  0.6079 -0.2716 -0.4014
 2260SOL     OW 7016   0.929   6.107   0.619  0.6517 -0.2670 -0.0390
 2260SOL    HW1 7017   0.849   6.149   0.587  0.6915 -0.3690 -0.2777
 2260SOL    HW2 7018   0.996   6.132   0.556  0.9159  0.2062  0.4204
 2261SOL     OW 7019   1.342   2.385   4.915  0.4047  0.5419  0.6071
 2261SOL    HW1 7020   1.354   2.371   5.010 -0.5409  1.3581  0.8619
 2261SOL    HW2 7021   1.290   2.464   4.909  0.4144  0.4698 -0.6153
 2262SOL     OW 7022   0.353   5.094   3.680  0.1057 -0.0377 -0.1062
 2262SOL    HW1 7023   0.413   5.167   3.667 -0.5818  0.5849  0.1743
 2262SOL    HW2 7024   0.371   5.035   3.606 -0.8855  1.4744 -1.6277
 2263SOL     OW 7025   5.801   1.950   2.414 -0.2178 -0.8660  0.4288
 2263SOL    HW1 7026   5.754   1.883   2.463 -2.4654  0.1668 -0.1715
 2263SOL    HW2 7027   5.749   1.963   2.334  1.3650  0.0409 -0.5184
 2264SOL     OW 7028   3.298   1.965   4.045  0.3956 -0.3530  0.1114
 2264SOL    HW1 7029   3.382   1.995   4.013  0.4256  0.8427  1.2312
 2264SOL    HW2 7030   3.306   1.869   4.047  1.5424 -0.2753 -0.2620
 2265SOL     OW 7031   0.562   2.338   0.233  0.0993  0.0796  0.2362
 2265SOL    HW1 7032   0.494   2.272   0.221  0.3378 -0.2158  0.5193
 2265SOL    HW2 7033   0.519   2.407   0.284  0.1845 -0.3881  0.9569
 2266SOL     OW 7034   5.881   1.338   5.407 -0.4459 -0.1815  0.0934
 2266SOL    HW1 7035   5.872   1.373   5.496 -0.4511  0.8381 -0.2939
 2266SOL    HW2 7036   5.848   1.248   5.414 -3.4448  0.8105  0.5108
 2267SOL     OW 7037   0.492   0.127   2.899  0.0090 -0.2881 -0.3341
 2267SOL    HW1 7038   0.542   0.159   2.974 -0.9742  0.7782 -0.1047
 2267SOL    HW2 7039   0.540   0.159   2.823 -0.3952  0.9046 -0.1135
 2268SOL     OW 7040   4.666   2.463   5.079  0.1958  0.8200  0.2211
 2268SOL    HW1 7041   4.738   2.515   5.115  0.4227  1.3979 -1.0083
 2268SOL    HW2 7042   4.672   2.477   4.984 -1.3222  0.5916  0.0719
 2269SOL     OW 7043   4.469   1.140   0.088 -0.1886  0.3607 -0.2135
 2269SOL    HW1 7044   4.442   1.231   0.085 -0.8649  0.2171  1.0272
 2269SOL    HW2 7045   4.418   1.102   0.160 -0.6022 -1.2148 -1.2837
 2270SOL     OW 7046   3.945   2.794   3.010  0.0528 -0.6008 -0.0455
 2270SOL    HW1 7047   3.885   2.840   3.069 -0.4653 -1.6078  0.2446
 2270SOL    HW2 7048   3.912   2.814   2.922  0.9405  1.0608 -0.0306
 2271SOL     OW 7049   5.397   2.607   0.293  0.1065  0.1270  0.4753
 2271SOL    HW1 7050   5.329   2.554   0.252 -0.3219  1.1137 -0.1326
 2271SOL    HW2 7051   5.376   2.697   0.267  1.0672  0.5514  1.1101
 2272SOL     OW 7052   2.063   3.566   1.306 -0.1979  0.1476  0.8268
 2272SOL    HW1 7053   2.115   3.613   1.241 -0.1435  0.6811  1.2440
 2272SOL    HW2 7054   2.101   3.593   1.390  1.0562 -2.0635  1.0462
 2273SOL     OW 7055   0.094   3.727   1.440  0.6437  0.1434  0.6479
 2273SOL    HW1 7056   0.133   3.801   1.486  0.0980  1.1148 -0.4135
 2273SOL    HW2 7057   0.010   3.713   1.485  0.5631  0.4381  0.5941
 2274SOL     OW 7058   1.087   4.348   2.072 -0.3773 -0.0136 -0.3972
 2274SOL    HW1 7059   1.136   4.419   2.113 -0.5256 -0.6400  0.9281
 2274SOL    HW2 7060   1.016   4.391   2.025  0.1253  0.7616 -0.4582
 2275SOL     OW 7061   5.256   5.606   4.020 -0.2281  0.2964  0.3669
 2275SOL    HW1 7062   5.195   5.534   4.004  0.9110 -0.7090  0.3984
 2275SOL    HW2 7063   5.258   5.655   3.938 -1.1573  0.4224  0.4065
 2276SOL     OW 7064   1.752   4.380   0.435 -0.6517  0.3231 -0.5883
 2276SOL    HW1 7065   1.825   4.439   0.414 -0.4201  0.0683 -0.4955
 2276SOL    HW2 7066   1.734   4.397   0.528  1.4930 -1.9916  0.3539
 2277SOL     OW 7067   3.022   2.455   1.387 -0.3207 -0.3230 -0.2874
 2277SOL    HW1 7068   3.096   2.462   1.327  0.2775 -2.0720  0.1918
 2277SOL    HW2 7069   3.048   2.505   1.464  0.2247 -0.6687 -0.2489
 2278SOL     OW 7070   3.003   2.060   2.709 -0.2156 -0.2285  0.3482
 2278SOL    HW1 7071   2.988   2.149   2.740  0.8374  0.6130 -1.4252
 2278SOL    HW2 7072   2.923   2.037   2.662 -0.4314 -0.1808  0.6862
 2279SOL     OW 7073   2.650   3.133   1.039 -0.0907  0.0175 -0.3044
 2279SOL    HW1 7074   2.665   3.225   1.016  0.1279  0.3804  1.1783
 2279SOL    HW2 7075   2.609   3.096   0.961 -1.3206  1.6697 -0.5161
 2280SOL     OW 7076   3.098   2.378   2.054 -0.2403  0.2634 -0.9976
 2280SOL    HW1 7077   3.079   2.465   2.018  0.8328  0.6481 -0.6766
 2280SOL    HW2 7078   3.046   2.318   2.001  0.0254  0.9822 -2.0969
 2281SOL     OW 7079   3.976   0.805   2.959  0.2679 -0.1838 -0.0940
 2281SOL    HW1 7080   3.926   0.724   2.962 -1.4060  0.8230  2.1878
 2281SOL    HW2 7081   3.935   0.856   2.888 -0.8554 -0.0617  0.6201
 2282SOL     OW 7082   0.633   3.047   0.944 -0.3736 -0.6977  0.0151
 2282SOL    HW1 7083   0.652   2.975   0.884  0.3877 -0.1740 -0.3817
 2282SOL    HW2 7084   0.680   3.122   0.908 -1.6652  0.1741  0.0725
 2283SOL     OW 7085   2.150   2.737   4.527 -0.2091  0.4962  0.4300
 2283SOL    HW1 7086   2.226   2.772   4.480  0.2864 -0.2742  0.6395
 2283SOL    HW2 7087   2.151   2.644   4.508 -2.5157  0.7858 -1.5484
 2284SOL     OW 7088   3.382   4.978   1.225  0.0460 -0.5267 -0.1475
 2284SOL    HW1 7089   3.428   4.937   1.299  1.7921 -1.1208 -1.4888
 2284SOL    HW2 7090   3.369   5.068   1.252 -0.1166 -0.9287  1.2149
 2285SOL     OW 7091   3.467   4.554   2.465 -0.3391  0.0092  0.1065
 2285SOL    HW1 7092   3.480   4.649   2.457  1.3015 -0.2508 -0.9634
 2285SOL    HW2 7093   3.399   4.534   2.401 -2.0009  0.6596  1.5967
 2286SOL     OW 7094   2.682   3.387   4.795 -0.3794  0.1997  0.2588
 2286SOL    HW1 7095   2.729   3.410   4.715  0.9885 -0.7341  0.7479
 2286SOL    HW2 7096   2.592   3.372   4.767 -0.2605  1.3540 -0.8382
 2287SOL     OW 7097   1.220   2.873   1.375  0.2427  0.0022 -0.3979
 2287SOL    HW1 7098   1.177   2.806   1.323 -1.0177 -0.2317  0.8921
 2287SOL    HW2 7099   1.312   2.868   1.349 -0.2140 -0.6145 -2.0087
 2288SOL     OW 7100   4.347   4.482   4.848  0.2548 -0.2463 -0.1329
 2288SOL    HW1 7101   4.308   4.543   4.912 -0.3156 -0.6436 -0.0907
 2288SOL    HW2 7102   4.365   4.403   4.899 -0.7097 -0.7635 -0.5692
 2289SOL     OW 7103   5.627   0.427   2.788 -0.2735  0.2222 -0.0948
 2289SOL    HW1 7104   5.660   0.425   2.698 -0.6787 -1.6616 -0.2424
 2289SOL    HW2 7105   5.626   0.335   2.816  0.2686  0.7959  2.0059
 2290SOL     OW 7106   4.543   1.196   3.510  0.2480  0.1405 -0.5569
 2290SOL    HW1 7107   4.452   1.221   3.521  0.3283 -0.5135  2.2802
 2290SOL    HW2 7108   4.592   1.276   3.531  0.3589 -0.2389  0.6624
 2291SOL     OW 7109   4.647   5.939   4.069  0.3106  0.0810  0.6566
 2291SOL    HW1 7110   4.577   5.977   4.015  0.1035 -1.2722 -0.0906
 2291SOL    HW2 7111   4.600   5.892   4.138  0.4980 -0.2881  0.5345
 2292SOL     OW 7112   2.596   0.934   2.281  0.0121 -0.0224  0.5924
 2292SOL    HW1 7113   2.554   0.903   2.201 -0.4067  1.1421  0.3461
 2292SOL    HW2 7114   2.676   0.976   2.251  0.8630 -1.2875  0.9722
 2293SOL     OW 7115   1.641   1.670   4.813  0.6670 -0.7800  0.2238
 2293SOL    HW1 7116   1.715   1.610   4.818  0.7415 -0.6472  0.8035
 2293SOL    HW2 7117   1.574   1.630   4.867  0.2006 -1.0481 -0.5399
 2294SOL     OW 7118   4.103   3.727   0.974 -0.1383 -0.6473 -0.7697
 2294SOL    HW1 7119   4.010   3.717   0.953  0.1702 -1.4112 -1.8539
 2294SOL    HW2 7120   4.149   3.702   0.894  0.9508  2.8299 -1.3978
 2295SOL     OW 7121   5.179   3.045   4.700  0.8734 -0.2225  0.3745
 2295SOL    HW1 7122   5.238   3.008   4.634  2.6646  0.2203  1.6479
 2295SOL    HW2 7123   5.200   2.997   4.780 -0.1760  0.2941  0.9814
 2296SOL     OW 7124   3.364   2.011   3.669  0.8424  0.1195 -0.0665
 2296SOL    HW1 7125   3.269   2.018   3.672  0.5218 -2.2534 -1.7908
 2296SOL    HW2 7126   3.392   2.023   3.760 -1.2732 -0.9433  0.7826
 2297SOL     OW 7127   5.214   2.964   4.973  0.7549 -0.1825 -0.2238
 2297SOL    HW1 7128   5.289   2.924   5.018 -1.3688 -1.1046  2.7879
 2297SOL    HW2 7129   5.216   3.056   5.000  1.8954  0.3022 -1.8275
 2298SOL     OW 7130   3.621   1.801   4.194 -0.1883  0.3503  0.1713
 2298SOL    HW1 7131   3.676   1.879   4.203 -0.6823  0.5608  1.6593
 2298SOL    HW2 7132   3.660   1.738   4.255  0.8778 -1.0086 -1.7989
 2299SOL     OW 7133   0.044   0.249   0.979  0.1552 -0.3177 -0.1464
 2299SOL    HW1 7134  -0.019   0.322   0.979  0.1001 -0.3470  0.7891
 2299SOL    HW2 7135   0.093   0.260   1.061  2.4464  0.5956 -1.5442
 2300SOL     OW 7136   2.727   4.595   0.720 -0.1580  0.1398  0.1032
 2300SOL    HW1 7137   2.742   4.501   0.727 -1.7701 -0.1799 -0.4235
 2300SOL    HW2 7138   2.649   4.612   0.772  1.7031  1.7201  2.6428
 2301SOL     OW 7139   2.875   2.562   4.595 -0.9910 -0.5131  0.5109
 2301SOL    HW1 7140   2.847   2.653   4.592 -0.7752 -0.4792 -1.3810
 2301SOL    HW2 7141   2.816   2.516   4.537  1.3101 -0.8390 -1.7438
 2302SOL     OW 7142   2.223   3.411   0.502 -0.2129 -0.3749 -0.4556
 2302SOL    HW1 7143   2.141   3.460   0.503 -0.3970 -0.6309 -1.7688
 2302SOL    HW2 7144   2.207   3.337   0.444  1.0124 -0.3120 -0.9204
 2303SOL     OW 7145   5.649   5.810   4.609  0.8614  0.2283 -0.2207
 2303SOL    HW1 7146   5.606   5.854   4.535 -2.6339 -3.5351 -0.7751
 2303SOL    HW2 7147   5.610   5.851   4.686 -1.0633 -0.6091 -0.6865
 2304SOL     OW 7148   2.678   4.119   2.057 -0.3322 -0.3644  0.3225
 2304SOL    HW1 7149   2.643   4.031   2.070  1.6329 -1.0341  1.5633
 2304SOL    HW2 7150   2.752   4.106   1.997 -0.3429  0.5329  0.0993
 2305SOL     OW 7151   1.040   3.902   2.218  0.1235 -0.3896 -0.0448
 2305SOL    HW1 7152   1.063   3.934   2.131  1.4484 -1.2937 -0.0557
 2305SOL    HW2 7153   1.094   3.824   2.230  0.8078  0.3334  2.0285
 2306SOL     OW 7154   3.622   4.835   0.494 -0.3510 -0.0668 -0.0375
 2306SOL    HW1 7155   3.576   4.753   0.514  3.1194 -2.5488 -1.1466
 2306SOL    HW2 7156   3.591   4.858   0.406 -1.2931 -0.1985  0.2434
 2307SOL     OW 7157   2.100   1.194   4.390 -0.2689  0.1248 -0.1002
 2307SOL    HW1 7158   2.163   1.191   4.318  0.0966  0.1881  0.2143
 2307SOL    HW2 7159   2.139   1.253   4.454 -0.6631  0.1874  0.0839
 2308SOL     OW 7160   6.010   3.756   6.109  0.2902 -0.4369 -0.6713
 2308SOL    HW1 7161   6.043   3.756   6.199 -0.2096  0.4095 -0.4762
 2308SOL    HW2 7162   6.019   3.847   6.080  1.7688 -0.9730 -1.9863
 2309SOL     OW 7163   5.632   1.048   1.151 -0.1329 -0.3269 -0.1026
 2309SOL    HW1 7164   5.650   0.954   1.149 -0.7493 -0.4943  1.1983
 2309SOL    HW2 7165   5.716   1.089   1.129  0.1884 -1.1659 -0.4989
 2310SOL     OW 7166   5.716   5.803   1.701  0.1618 -0.1201 -0.0979
 2310SOL    HW1 7167   5.629   5.820   1.664  0.7814  2.6129 -0.5090
 2310SOL    HW2 7168   5.776   5.817   1.628  1.1078  1.1256  0.8605
 2311SOL     OW 7169   4.493   2.600   4.666 -0.0192 -0.4736 -0.4365
 2311SOL    HW1 7170   4.560   2.647   4.616 -0.4178  0.2446 -0.3234
 2311SOL    HW2 7171   4.459   2.535   4.605  1.0671 -1.1371 -0.3597
 2312SOL     OW 7172   1.827   1.057   1.356  0.1991 -0.4942 -0.3367
 2312SOL    HW1 7173   1.891   1.056   1.427  0.8042  0.4977 -0.8424
 2312SOL    HW2 7174   1.762   1.121   1.383  0.4608 -0.0717 -0.6848
 2313SOL     OW 7175   1.817   2.631   0.561  0.4987  0.6082 -0.1107
 2313SOL    HW1 7176   1.781   2.645   0.649  1.0910 -1.6111  0.5552
 2313SOL    HW2 7177   1.812   2.717   0.519 -2.7227  1.0711  0.9644
 2314SOL     OW 7178   2.925   3.848   6.010 -0.4811 -0.9908 -0.1283
 2314SOL    HW1 7179   2.837   3.867   6.045 -0.5998 -0.9809 -0.4291
 2314SOL    HW2 7180   2.922   3.755   5.987 -0.1000 -1.2331  0.7592
 2315SOL     OW 7181   5.518   5.574   4.852 -0.2310  0.3038 -0.0809
 2315SOL    HW1 7182   5.540   5.483   4.871 -1.3705  0.0584  0.1589
 2315SOL    HW2 7183   5.565   5.593   4.770  0.6044 -0.2583  0.2535
 2316SOL     OW 7184   1.620   5.209   0.677 -0.4998 -0.2007  0.1094
 2316SOL    HW1 7185   1.550   5.210   0.743 -0.5752  0.6683  0.0382
 2316SOL    HW2 7186   1.668   5.129   0.694 -1.0204 -0.4007  0.6958
 2317SOL     OW 7187   5.874   3.595   2.790  0.4025 -0.1224 -0.1202
 2317SOL    HW1 7188   5.918   3.556   2.866  1.6901  1.5755  0.0862
 2317SOL    HW2 7189   5.904   3.544   2.715 -1.4435 -2.2838  0.5038
 2318SOL     OW 7190   4.688   3.529   5.935 -0.5630  0.2294  0.3707
 2318SOL    HW1 7191   4.611   3.474   5.928 -0.4294  0.2169 -1.2072
 2318SOL    HW2 7192   4.760   3.469   5.954 -0.6871  0.0578  0.2936
 2319SOL     OW 7193   0.782   2.663   4.979 -0.4978  0.3019 -0.1258
 2319SOL    HW1 7194   0.828   2.615   4.909  0.1335  0.3685  0.2294
 2319SOL    HW2 7195   0.849   2.674   5.048 -0.9577  0.7038  0.2636
 2320SOL     OW 7196   4.843   0.269   5.510  0.5166 -0.3360 -0.3339
 2320SOL    HW1 7197   4.812   0.179   5.517 -1.5521 -0.1742 -4.3066
 2320SOL    HW2 7198   4.935   0.265   5.536  0.4743 -3.5648 -0.2928
 2321SOL     OW 7199   2.915   3.839   1.946  0.5385 -0.3805  0.4621
 2321SOL    HW1 7200   2.828   3.846   1.985 -0.8885  1.9022 -2.6549
 2321SOL    HW2 7201   2.975   3.855   2.018 -1.7607  1.3673  2.1336
 2322SOL     OW 7202   2.280   2.523   3.466 -0.6629 -0.3381 -0.0405
 2322SOL    HW1 7203   2.341   2.561   3.529  0.5246 -0.8768 -0.8183
 2322SOL    HW2 7204   2.200   2.505   3.516 -0.1661  0.3307  1.0147
 2323SOL     OW 7205   1.432   2.752   1.232  0.3380  0.1017  0.4086
 2323SOL    HW1 7206   1.366   2.706   1.180 -1.0586  1.3241  1.0122
 2323SOL    HW2 7207   1.497   2.685   1.252 -0.2811 -0.9615 -0.9073
 2324SOL     OW 7208   4.566   2.147   1.461 -0.5282 -0.3655 -0.2386
 2324SOL    HW1 7209   4.602   2.193   1.385  0.1442  2.0665  1.4179
 2324SOL    HW2 7210   4.507   2.211   1.501 -0.4963 -1.4061  1.5429
 2325SOL     OW 7211   4.050   0.916   2.696  0.0757 -0.4313  0.4858
 2325SOL    HW1 7212   4.059   1.008   2.671  0.2214 -0.7394 -0.6987
 2325SOL    HW2 7213   3.957   0.905   2.716  0.4741  0.5574  3.2652
 2326SOL     OW 7214   5.191   4.653   4.905  0.1087  0.5336  0.1621
 2326SOL    HW1 7215   5.254   4.581   4.907  0.9166  1.1217  3.5373
 2326SOL    HW2 7216   5.245   4.731   4.919 -1.0283  1.4735 -0.5797
 2327SOL     OW 7217   5.735   1.310   1.637 -0.2957  0.2092 -0.0377
 2327SOL    HW1 7218   5.672   1.310   1.709  0.0014 -0.0037  0.2241
 2327SOL    HW2 7219   5.687   1.347   1.563  0.0410  2.5884  0.8500
 2328SOL     OW 7220   4.634   0.678   0.132 -0.3176 -0.4889  0.0704
 2328SOL    HW1 7221   4.638   0.769   0.102  2.8434 -0.6771 -0.4651
 2328SOL    HW2 7222   4.587   0.682   0.215  0.6875  1.8548  0.6194
 2329SOL     OW 7223   1.781   3.476   2.381 -0.0203  0.9326  0.4300
 2329SOL    HW1 7224   1.746   3.396   2.421  1.6340 -0.4962 -0.8300
 2329SOL    HW2 7225   1.829   3.520   2.451  0.4136 -0.0324  0.7487
 2330SOL     OW 7226   4.626   2.509   1.098  0.4636  0.3132  0.0981
 2330SOL    HW1 7227   4.695   2.555   1.050 -0.9725  2.5221  0.0492
 2330SOL    HW2 7228   4.558   2.492   1.033 -0.3370  0.9145  0.7508
 2331SOL     OW 7229   4.900   5.939   3.922 -0.2559 -0.0929 -0.1864
 2331SOL    HW1 7230   4.812   5.939   3.959 -0.5546 -0.2875 -0.8631
 2331SOL    HW2 7231   4.958   5.924   3.996 -0.8579 -0.8704  0.1422
 2332SOL     OW 7232   4.089   3.106   1.146 -0.4076 -0.5112  0.3581
 2332SOL    HW1 7233   4.050   3.169   1.085  0.0168 -0.4855  0.1147
 2332SOL    HW2 7234   4.181   3.130   1.151 -0.4814 -0.3595  1.2063
 2333SOL     OW 7235   5.068   3.446   4.839  0.4172  0.1390  0.2290
 2333SOL    HW1 7236   5.116   3.486   4.912  1.2750 -1.3654  0.5460
 2333SOL    HW2 7237   5.131   3.385   4.801 -0.5409 -0.2266 -0.8029
 2334SOL     OW 7238   0.846   1.068   3.274 -0.0929 -0.2067  0.0633
 2334SOL    HW1 7239   0.825   0.993   3.330 -1.7830 -0.2933 -0.6059
 2334SOL    HW2 7240   0.796   1.140   3.311 -0.2944  0.0176 -0.6275
 2335SOL     OW 7241   3.433   5.455   1.663  0.1442 -0.3893  0.1685
 2335SOL    HW1 7242   3.351   5.504   1.653  2.0501  2.7738 -2.0294
 2335SOL    HW2 7243   3.467   5.483   1.748 -0.0165  0.1369  0.0680
 2336SOL     OW 7244   0.637   5.271   4.455 -0.3210  0.2519  0.1813
 2336SOL    HW1 7245   0.573   5.237   4.517 -0.8921 -3.8846 -2.2731
 2336SOL    HW2 7246   0.585   5.292   4.377  0.8312  1.1967 -0.3516
 2337SOL     OW 7247   0.919   3.833   5.219  0.5811 -0.1263  0.0952
 2337SOL    HW1 7248   0.832   3.794   5.223  0.3713  0.3208 -0.0349
 2337SOL    HW2 7249   0.939   3.839   5.125 -0.5045  2.4808 -0.0466
 2338SOL     OW 7250   5.567   4.730   1.076 -0.4861 -0.0470  0.4339
 2338SOL    HW1 7251   5.472   4.730   1.086 -0.6652  0.8099 -0.9703
 2338SOL    HW2 7252   5.588   4.820   1.049  0.9607  0.3387  2.6255
 2339SOL     OW 7253   3.676   3.003   2.619  0.3742 -0.0399 -0.0617
 2339SOL    HW1 7254   3.600   3.036   2.667  0.5306 -0.7790  0.7026
 2339SOL    HW2 7255   3.682   3.061   2.543 -0.2183  0.7920  0.4991
 2340SOL     OW 7256   2.709   1.920   1.310  0.2807  0.4974  0.1980
 2340SOL    HW1 7257   2.787   1.876   1.274  0.4379  0.4351  0.6037
 2340SOL    HW2 7258   2.692   1.874   1.392 -2.4249 -2.0150 -1.5760
 2341SOL     OW 7259   4.051   4.332   0.532 -0.1142  0.6835 -0.5561
 2341SOL    HW1 7260   4.094   4.376   0.606 -0.4114  0.2957 -0.1470
 2341SOL    HW2 7261   4.123   4.303   0.477  0.1376  0.4731 -0.1246
 2342SOL     OW 7262   2.707   0.288   1.993  0.0279  0.1898  0.5162
 2342SOL    HW1 7263   2.662   0.212   1.957  1.4675 -0.5835  0.2916
 2342SOL    HW2 7264   2.674   0.362   1.942 -1.3146 -0.2772  0.6700
 2343SOL     OW 7265   3.875   4.448   3.093 -0.2247 -0.2081 -0.9123
 2343SOL    HW1 7266   3.935   4.391   3.044  1.3446  2.0168 -1.7369
 2343SOL    HW2 7267   3.909   4.446   3.183  0.9825  0.8266 -1.3219
 2344SOL     OW 7268   1.405   5.295   3.439  0.3326  0.5111  0.2386
 2344SOL    HW1 7269   1.483   5.313   3.491 -0.2262  1.5541  0.7270
 2344SOL    HW2 7270   1.365   5.381   3.424  0.9488  0.3973 -2.6758
 2345SOL     OW 7271   5.823   0.880   1.750  0.2346  0.4799 -0.3139
 2345SOL    HW1 7272   5.737   0.924   1.746 -0.3330 -0.5557  0.1445
 2345SOL    HW2 7273   5.855   0.900   1.838  0.5087  0.9339 -0.5132
 2346SOL     OW 7274   2.064   4.012   3.819 -0.2957 -0.2571 -0.3180
 2346SOL    HW1 7275   2.073   4.003   3.913  3.1869 -1.2030 -0.6214
 2346SOL    HW2 7276   2.047   4.105   3.805  2.1698  0.4950  1.1610
 2347SOL     OW 7277   1.230   1.486   4.254 -0.4797  0.1422 -0.0686
 2347SOL    HW1 7278   1.254   1.396   4.274 -0.2997  0.5096  1.5280
 2347SOL    HW2 7279   1.313   1.529   4.232 -0.3913  0.1889  0.3447
 2348SOL     OW 7280   5.405   3.325   1.315 -0.2526  0.1495  0.2158
 2348SOL    HW1 7281   5.323   3.278   1.330  0.0758 -0.9254 -1.1267
 2348SOL    HW2 7282   5.470   3.257   1.298  0.8676  0.9973  0.9740
 2349SOL     OW 7283   2.669   4.329   3.413  0.0356  0.0480  0.0808
 2349SOL    HW1 7284   2.671   4.423   3.429 -0.4635 -0.0272  0.6264
 2349SOL    HW2 7285   2.606   4.295   3.477 -0.5399 -0.5237 -0.7627
 2350SOL     OW 7286   3.102   0.673   0.100 -0.0849 -0.3354  0.3985
 2350SOL    HW1 7287   3.020   0.707   0.136  0.4440 -0.0711  1.3779
 2350SOL    HW2 7288   3.170   0.716   0.152  0.6674 -0.7990 -0.1940
 2351SOL     OW 7289   1.399   1.561   4.916  0.0289  0.1917  0.2719
 2351SOL    HW1 7290   1.396   1.466   4.904  0.2546  0.2896 -0.6359
 2351SOL    HW2 7291   1.332   1.594   4.856  0.4130  0.6496  0.0945
 2352SOL     OW 7292   0.263   1.594   5.839  0.6512  0.5493 -0.5953
 2352SOL    HW1 7293   0.216   1.659   5.892  0.7227 -1.4498  2.1298
 2352SOL    HW2 7294   0.317   1.547   5.902  2.7258 -0.3571 -2.9166
 2353SOL     OW 7295   2.542   1.590   4.175  0.5528 -0.2332 -0.4818
 2353SOL    HW1 7296   2.585   1.507   4.198 -0.1865 -0.2934  0.7511
 2353SOL    HW2 7297   2.581   1.614   4.091 -0.6329 -2.8324 -1.8739
 2354SOL     OW 7298   0.432   0.853   4.343 -0.2303 -0.5430  0.2944
 2354SOL    HW1 7299   0.345   0.824   4.369 -1.0278  0.1758 -1.4684
 2354SOL    HW2 7300   0.449   0.807   4.261  0.6386  0.0784  0.1126
 2355SOL     OW 7301   3.184   4.601   2.906 -0.3978 -0.2342 -0.1302
 2355SOL    HW1 7302   3.189   4.667   2.837 -2.5927 -1.3540 -1.4414
 2355SOL    HW2 7303   3.117   4.540   2.877 -1.2361 -0.9150  2.8776
 2356SOL     OW 7304   3.661   5.163   1.881 -0.4719  0.4471  0.8768
 2356SOL    HW1 7305   3.712   5.083   1.870 -0.5398  0.5561 -0.3848
 2356SOL    HW2 7306   3.634   5.187   1.792 -0.0318  2.1444  1.1590
 2357SOL     OW 7307   4.783   2.247   0.686  0.2998 -0.1566  0.1392
 2357SOL    HW1 7308   4.754   2.171   0.636 -2.9673  0.8273  0.2933
 2357SOL    HW2 7309   4.832   2.300   0.623  1.6949 -1.8303 -0.2420
 2358SOL     OW 7310   3.264   3.724   4.979  0.2288  0.0974  0.2503
 2358SOL    HW1 7311   3.272   3.632   5.005  2.1080  0.1320 -0.0969
 2358SOL    HW2 7312   3.208   3.721   4.901 -2.7181 -0.3292  2.2479
 2359SOL     OW 7313   4.726   4.848   1.421 -0.1135 -0.1085 -0.0937
 2359SOL    HW1 7314   4.637   4.813   1.414  0.2384 -0.7832 -1.8821
 2359SOL    HW2 7315   4.777   4.779   1.462 -0.1493 -0.2709 -0.3197
 2360SOL     OW 7316   4.607   5.817   3.297 -0.0000  0.1114  0.3164
 2360SOL    HW1 7317   4.662   5.895   3.288  1.0352 -0.6776 -0.5808
 2360SOL    HW2 7318   4.610   5.776   3.210  0.2898 -1.4259  1.0175
 2361SOL     OW 7319   2.963   5.622   5.926 -0.3140 -0.1512 -0.1695
 2361SOL    HW1 7320   2.934   5.536   5.895  0.7499  0.7901 -4.4640
 2361SOL    HW2 7321   2.891   5.681   5.904 -0.4824  0.3417  1.5353
 2362SOL     OW 7322   3.837   1.595   2.152 -0.1966  0.1503  0.3194
 2362SOL    HW1 7323   3.928   1.568   2.144 -0.2301 -0.2804  1.2218
 2362SOL    HW2 7324   3.799   1.578   2.066 -0.0263 -2.0348  0.6227
 2363SOL     OW 7325   3.752   6.061   5.945  0.0434  0.2735  0.7314
 2363SOL    HW1 7326   3.661   6.074   5.972  0.6925  1.4321  2.6132
 2363SOL    HW2 7327   3.774   6.141   5.896  0.0344 -0.0573  0.1753
 2364SOL     OW 7328   0.548   4.860   1.026 -0.7399  0.0717 -0.1018
 2364SOL    HW1 7329   0.588   4.819   0.949 -1.7246 -0.6082 -0.2817
 2364SOL    HW2 7330   0.461   4.888   0.995 -2.4266 -2.9262  1.4466
 2365SOL     OW 7331   2.725   4.576   4.861 -0.4372 -0.3501  0.0524
 2365SOL    HW1 7332   2.703   4.504   4.921 -1.4823  0.1556  0.3011
 2365SOL    HW2 7333   2.643   4.594   4.814 -0.3496  1.0445  0.3941
 2366SOL     OW 7334   6.000   3.837   0.928  0.1539 -0.8315  0.5529
 2366SOL    HW1 7335   6.040   3.923   0.915  0.1623 -0.8824  0.2455
 2366SOL    HW2 7336   5.927   3.835   0.866 -0.2077 -0.8170  0.9674
 2367SOL     OW 7337   1.606   5.576   3.388  0.1685  0.3178  0.5045
 2367SOL    HW1 7338   1.516   5.591   3.359  0.5129  1.8788  0.1176
 2367SOL    HW2 7339   1.598   5.556   3.481 -0.8590 -3.5699 -0.2391
 2368SOL     OW 7340   3.114   4.200   1.977  0.0060  0.8162 -0.6626
 2368SOL    HW1 7341   3.180   4.183   2.044  1.7867  1.4091 -2.1949
 2368SOL    HW2 7342   3.083   4.113   1.951  1.2132  0.4432 -0.9025
 2369SOL     OW 7343   4.011   4.704   3.252  0.1320 -0.8549 -0.4389
 2369SOL    HW1 7344   3.961   4.779   3.284  1.5120  0.0760 -0.3721
 2369SOL    HW2 7345   4.006   4.710   3.157  1.5886  0.3039 -0.4681
 2370SOL     OW 7346   2.596   3.098   2.018  0.1271 -0.1912 -0.3987
 2370SOL    HW1 7347   2.531   3.168   2.012  0.2076 -0.0856 -0.0800
 2370SOL    HW2 7348   2.549   3.018   1.997  0.0130 -0.0520 -0.6769
 2371SOL     OW 7349   3.193   5.504   0.703  0.1423  0.1118 -0.2388
 2371SOL    HW1 7350   3.201   5.584   0.651 -1.3394  0.5395  0.1262
 2371SOL    HW2 7351   3.187   5.534   0.793 -1.4739 -0.2784 -0.1679
 2372SOL     OW 7352   5.891   3.725   5.528  0.0936  0.3019 -0.5472
 2372SOL    HW1 7353   5.865   3.723   5.436  0.5526  0.3153 -0.6835
 2372SOL    HW2 7354   5.809   3.729   5.577 -0.4035 -3.4958 -0.7733
 2373SOL     OW 7355   1.510   4.004   2.327  0.4410 -0.3229  0.1382
 2373SOL    HW1 7356   1.418   4.006   2.354  0.2995  0.0591 -0.3546
 2373SOL    HW2 7357   1.543   4.091   2.349 -0.1283  0.6282 -2.3726
 2374SOL     OW 7358   2.817   5.998   4.290 -0.0835  0.4826  0.2937
 2374SOL    HW1 7359   2.779   5.991   4.203 -0.0815 -0.0108  0.3300
 2374SOL    HW2 7360   2.847   6.089   4.296  0.9906  0.2042 -0.6524
 2375SOL     OW 7361   3.737   5.753   2.524 -0.1542  0.3795  0.0587
 2375SOL    HW1 7362   3.647   5.765   2.496 -0.8713 -1.0902  1.5102
 2375SOL    HW2 7363   3.790   5.783   2.451 -1.8221  1.1817 -0.8641
 2376SOL     OW 7364   0.342   2.264   0.039  0.1321 -0.0123  0.1622
 2376SOL    HW1 7365   0.372   2.204  -0.029 -0.1187 -0.2619  0.2695
 2376SOL    HW2 7366   0.290   2.209   0.098 -3.8866  0.9977 -2.0328
 2377SOL     OW 7367   0.413   0.374   0.350 -0.4074  0.7913  0.4598
 2377SOL    HW1 7368   0.350   0.355   0.280  1.4164 -2.1501 -0.5793
 2377SOL    HW2 7369   0.475   0.435   0.311  0.7533 -1.0394 -0.7039
 2378SOL     OW 7370   0.497   4.091   0.541  0.1975  0.2097 -0.5758
 2378SOL    HW1 7371   0.456   4.043   0.613 -0.1021  0.2085 -0.7471
 2378SOL    HW2 7372   0.555   4.027   0.499 -0.0514  0.0547 -0.6820
 2379SOL     OW 7373   1.501   4.018   1.082  0.2875 -1.1440  0.2506
 2379SOL    HW1 7374   1.543   4.101   1.107 -0.7243  0.1417 -2.0631
 2379SOL    HW2 7375   1.562   3.951   1.113  3.2830  0.5740 -1.4484
 2380SOL     OW 7376   1.497   5.367   5.200 -0.4396  0.0823  0.1798
 2380SOL    HW1 7377   1.484   5.385   5.294  0.2576  0.9581  0.1228
 2380SOL    HW2 7378   1.506   5.272   5.195  0.3371  0.0876  1.1173
 2381SOL     OW 7379   4.276   1.754   5.930 -0.1408  0.2522  0.1948
 2381SOL    HW1 7380   4.186   1.784   5.936  0.0517  0.6208  1.5540
 2381SOL    HW2 7381   4.329   1.834   5.932  0.2773 -0.0389  1.3623
 2382SOL     OW 7382   3.005   4.975   5.414 -0.2406  0.4747 -0.0856
 2382SOL    HW1 7383   2.958   5.011   5.339  0.7435  1.0147 -0.4694
 2382SOL    HW2 7384   3.067   5.044   5.438 -0.2726  0.1414  0.9692
 2383SOL     OW 7385   2.678   6.032   4.065  0.0079  0.0476  0.4264
 2383SOL    HW1 7386   2.608   6.080   4.110 -0.0435  0.2101  0.1741
 2383SOL    HW2 7387   2.654   6.036   3.972  1.9656  2.8048 -0.0555
 2384SOL     OW 7388   0.067   4.488   3.677  0.1409  0.4651 -0.1899
 2384SOL    HW1 7389   0.005   4.467   3.607 -0.8371 -0.0597  0.8132
 2384SOL    HW2 7390   0.075   4.583   3.675 -1.5774  0.6414  0.3906
 2385SOL     OW 7391   0.786   1.269   4.356  0.0274  0.0784 -0.3741
 2385SOL    HW1 7392   0.738   1.201   4.404 -0.9496  0.2603 -1.0588
 2385SOL    HW2 7393   0.725   1.298   4.289 -0.6513  3.5529  1.5448
 2386SOL     OW 7394   2.944   4.135   5.027  0.1818  0.0795  0.3418
 2386SOL    HW1 7395   2.993   4.063   4.986 -0.6313 -0.5661  0.4890
 2386SOL    HW2 7396   2.884   4.165   4.958  1.1455  1.2433 -0.0228
 2387SOL     OW 7397   1.505   5.914   0.399  0.1560  0.1202  0.5840
 2387SOL    HW1 7398   1.497   5.825   0.364  1.7216  0.1544  0.0616
 2387SOL    HW2 7399   1.566   5.906   0.472  0.4479  0.7832  0.4200
 2388SOL     OW 7400   0.584   1.836   3.573 -0.3002 -0.2816  0.1340
 2388SOL    HW1 7401   0.489   1.823   3.583 -0.2333 -1.3445 -0.4170
 2388SOL    HW2 7402   0.604   1.796   3.489  0.2777  2.0735 -0.9284
 2389SOL     OW 7403   3.919   5.134   1.630 -0.1696  0.4273 -0.3294
 2389SOL    HW1 7404   3.877   5.194   1.569  0.1867  0.9797 -0.0335
 2389SOL    HW2 7405   3.929   5.052   1.580  1.6938  1.3671 -1.6234
 2390SOL     OW 7406   4.485   2.019   5.843 -0.7402  0.5194  0.2116
 2390SOL    HW1 7407   4.534   1.984   5.768  0.1208  2.1425 -0.0143
 2390SOL    HW2 7408   4.418   2.075   5.804  0.6851  2.6228  0.6270
 2391SOL     OW 7409   4.408   1.037   5.196 -0.1475  0.8234 -0.2449
 2391SOL    HW1 7410   4.378   1.111   5.249 -2.3523  1.0689 -1.7336
 2391SOL    HW2 7411   4.491   1.067   5.159 -0.5114  2.1677 -0.0445
 2392SOL     OW 7412   1.225   1.914   5.930 -0.0139  0.0407  0.0106
 2392SOL    HW1 7413   1.188   1.913   6.018  0.8682 -1.0039  0.3916
 2392SOL    HW2 7414   1.225   1.822   5.903 -1.3965  0.4526 -1.5920
 2393SOL     OW 7415   4.313   0.659   1.733  0.0439 -0.3274 -0.4303
 2393SOL    HW1 7416   4.252   0.640   1.804 -0.1539 -2.8775 -1.1770
 2393SOL    HW2 7417   4.400   0.643   1.771  0.0484  0.0810 -0.2690
 2394SOL     OW 7418   4.126   3.244   5.261  0.4212 -0.3886 -0.0280
 2394SOL    HW1 7419   4.135   3.259   5.355  1.6651  1.0654 -0.3340
 2394SOL    HW2 7420   4.042   3.199   5.251 -1.1591  1.9928  1.5396
 2395SOL     OW 7421   1.677   4.260   4.086  0.1194  0.4348  0.3856
 2395SOL    HW1 7422   1.733   4.300   4.153 -0.4655  0.6889  0.7243
 2395SOL    HW2 7423   1.726   4.183   4.057 -0.1418 -0.3472  1.9356
 2396SOL     OW 7424   0.473   0.210   3.239  0.2803 -0.7361 -0.4115
 2396SOL    HW1 7425   0.549   0.197   3.182  0.2883  0.2736 -0.6640
 2396SOL    HW2 7426   0.489   0.153   3.314  1.2623 -0.5997 -0.4922
 2397SOL     OW 7427   0.894   2.115   4.744 -0.9362 -0.3619 -0.4038
 2397SOL    HW1 7428   0.974   2.166   4.754 -1.4906  0.6249 -0.9335
 2397SOL    HW2 7429   0.849   2.123   4.829  0.5838 -2.8680  0.7784
 2398SOL     OW 7430   4.258   5.631   3.712  0.1892 -0.0809 -0.4808
 2398SOL    HW1 7431   4.197   5.705   3.718 -1.3048 -1.2186 -0.9348
 2398SOL    HW2 7432   4.305   5.633   3.795 -1.5363 -0.0050  0.5579
 2399SOL     OW 7433   1.921   3.198   0.591  0.1759 -0.0239 -0.3985
 2399SOL    HW1 7434   1.839   3.245   0.603  0.0539  0.1390 -1.6889
 2399SOL    HW2 7435   1.969   3.210   0.674 -0.6281  0.8097 -0.0444
 2400SOL     OW 7436   4.106   5.070   0.792 -0.7522 -0.6042  0.1041
 2400SOL    HW1 7437   4.076   5.088   0.881  1.1400  1.0233  0.4755
 2400SOL    HW2 7438   4.141   5.153   0.761 -1.2896 -1.1457 -2.1626
 2401SOL     OW 7439   2.448   0.904   1.505  0.2056 -0.0217  0.4257
 2401SOL    HW1 7440   2.428   0.889   1.598  3.1583 -2.1054  0.8642
 2401SOL    HW2 7441   2.503   0.982   1.505  1.5085 -0.9034  0.6963
 2402SOL     OW 7442   2.930   2.300   5.164  0.3458  0.3272  0.5086
 2402SOL    HW1 7443   2.971   2.333   5.244  0.4695  0.1102  0.5356
 2402SOL    HW2 7444   2.843   2.271   5.193 -0.6079  2.6003  0.0847
 2403SOL     OW 7445   1.500   1.522   3.334 -0.4679  0.1112 -0.3664
 2403SOL    HW1 7446   1.537   1.483   3.255  1.4218  2.5281 -0.7747
 2403SOL    HW2 7447   1.561   1.498   3.404 -0.5704  0.3736 -0.1843
 2404SOL     OW 7448   2.764   2.734   3.446 -0.1322 -0.2826 -0.1154
 2404SOL    HW1 7449   2.839   2.743   3.504  0.8169 -0.1626 -1.3037
 2404SOL    HW2 7450   2.743   2.823   3.418 -0.4467 -0.3549 -0.1229
 2405SOL     OW 7451   5.783   0.644   0.179 -0.1246 -0.1124 -0.5365
 2405SOL    HW1 7452   5.754   0.571   0.233 -0.2133  0.0955 -0.3013
 2405SOL    HW2 7453   5.861   0.678   0.225 -0.4966  0.3831 -0.2613
 2406SOL     OW 7454   4.809   3.274   4.217  0.2356  0.3748 -0.1943
 2406SOL    HW1 7455   4.817   3.241   4.307 -1.5235  0.2253 -0.0683
 2406SOL    HW2 7456   4.802   3.196   4.163 -0.5146  0.4910 -0.2657
 2407SOL     OW 7457   0.569   4.749   4.591  0.3028 -0.0109  0.4419
 2407SOL    HW1 7458   0.521   4.801   4.655 -0.5929  1.8929 -1.6108
 2407SOL    HW2 7459   0.656   4.789   4.588 -0.3468  1.3943 -1.0456
 2408SOL     OW 7460   3.028   3.146   4.669  0.5888 -1.0545 -0.2976
 2408SOL    HW1 7461   3.094   3.205   4.704  0.2627 -0.9832  0.2009
 2408SOL    HW2 7462   3.015   3.175   4.579 -0.2413  0.2262  0.2168
 2409SOL     OW 7463   2.118   0.208   2.211  0.2236  0.0353 -0.1152
 2409SOL    HW1 7464   2.106   0.279   2.148 -0.9327 -1.5331 -1.7729
 2409SOL    HW2 7465   2.211   0.186   2.205  0.3396  0.6043 -0.4822
 2410SOL     OW 7466   1.850   0.859   5.746  0.0306 -0.3046  0.1868
 2410SOL    HW1 7467   1.923   0.814   5.703 -0.6701 -1.3386  0.0587
 2410SOL    HW2 7468   1.892   0.913   5.813  1.1165  1.0222 -1.4716
 2411SOL     OW 7469   4.290   0.949   5.457 -0.1304  0.3351 -0.0610
 2411SOL    HW1 7470   4.306   0.950   5.362 -0.0762  2.8009 -0.0966
 2411SOL    HW2 7471   4.210   0.897   5.466 -1.3368  1.7308 -1.7558
 2412SOL     OW 7472   4.070   5.707   4.724  0.3135  0.3517  0.2326
 2412SOL    HW1 7473   3.997   5.646   4.733  1.3632 -1.0587 -0.5016
 2412SOL    HW2 7474   4.046   5.781   4.780 -2.0014  0.2729 -0.5333
 2413SOL     OW 7475   2.205   4.128   0.174 -0.1348  0.2995 -0.2744
 2413SOL    HW1 7476   2.145   4.152   0.103  0.1078  1.1442 -0.2049
 2413SOL    HW2 7477   2.149   4.092   0.242 -0.3133 -1.0986 -1.1308
 2414SOL     OW 7478   3.956   5.984   0.724  0.2766  0.5007  0.8861
 2414SOL    HW1 7479   4.013   5.974   0.648  0.3372  1.3647  0.8000
 2414SOL    HW2 7480   4.005   6.040   0.784 -0.1380  0.5757  1.1630
 2415SOL     OW 7481   1.161   2.935   0.943  0.5832 -0.1280  0.4768
 2415SOL    HW1 7482   1.209   2.980   1.012 -1.2263 -0.6706  2.1897
 2415SOL    HW2 7483   1.091   2.889   0.989  1.3848 -3.4510 -1.3107
 2416SOL     OW 7484   5.773   1.220   2.230  0.1362 -0.0559  0.0929
 2416SOL    HW1 7485   5.702   1.170   2.270  1.1027 -2.3592 -0.8991
 2416SOL    HW2 7486   5.745   1.236   2.140  0.1277  0.6343  0.2102
 2417SOL     OW 7487   3.677   1.453   0.815  0.6950  0.3977  0.1309
 2417SOL    HW1 7488   3.621   1.453   0.892  1.2723  1.1736  0.5644
 2417SOL    HW2 7489   3.643   1.382   0.760  1.3648 -1.3533  1.8924
 2418SOL     OW 7490   0.987   2.404   5.199  0.5371 -0.0131  0.6386
 2418SOL    HW1 7491   1.058   2.440   5.147 -1.0737  0.7185 -1.1931
 2418SOL    HW2 7492   0.957   2.328   5.149 -1.0206  0.6866  0.4304
 2419SOL     OW 7493   3.522   2.061   3.919  0.5243 -0.4701 -0.1098
 2419SOL    HW1 7494   3.519   2.144   3.871 -0.5508 -0.8575 -0.7599
 2419SOL    HW2 7495   3.615   2.046   3.936  0.6290  1.7989  1.7011
 2420SOL     OW 7496   1.835   3.916   3.626  0.5830  0.3764  0.0822
 2420SOL    HW1 7497   1.889   3.934   3.702 -0.1439  0.2132  0.6437
 2420SOL    HW2 7498   1.780   3.995   3.617  1.1387  0.6889 -0.6884
 2421SOL     OW 7499   4.258   4.163   1.899 -1.2753 -0.0615 -0.0673
 2421SOL    HW1 7500   4.265   4.244   1.849 -0.6460  0.5193  0.9124
 2421SOL    HW2 7501   4.349   4.137   1.915 -1.4487 -0.0689  0.9964
 2422SOL     OW 7502   1.132   5.750   0.788 -0.2390  0.0772  0.4073
 2422SOL    HW1 7503   1.137   5.846   0.787  0.8911  0.0406 -0.2202
 2422SOL    HW2 7504   1.092   5.728   0.704 -1.9445  0.0267  1.1995
 2423SOL     OW 7505   3.440   3.774   6.074 -0.4989 -0.0935 -0.3279
 2423SOL    HW1 7506   3.453   3.869   6.081  0.5113 -0.1699 -1.0108
 2423SOL    HW2 7507   3.345   3.763   6.081 -0.7669  1.1043 -1.5640
 2424SOL     OW 7508   0.179   0.193   1.276 -0.1097  0.8696  0.0095
 2424SOL    HW1 7509   0.098   0.241   1.264  1.1042  2.4524 -2.5573
 2424SOL    HW2 7510   0.241   0.257   1.311  0.3553 -0.0741  1.0233
 2425SOL     OW 7511   3.968   3.577   2.482  0.4424  0.3386 -0.7936
 2425SOL    HW1 7512   4.036   3.535   2.430 -0.6286 -0.9945 -1.1739
 2425SOL    HW2 7513   3.907   3.506   2.504 -1.0732  1.5628 -0.8618
 2426SOL     OW 7514   5.887   2.172   2.820 -0.3877  0.0482 -0.0718
 2426SOL    HW1 7515   5.959   2.212   2.869 -1.6275  0.4529  1.4854
 2426SOL    HW2 7516   5.868   2.091   2.868  1.3165 -1.9920 -2.5117
 2427SOL     OW 7517   2.865   1.655   1.851  0.5372 -0.2559 -0.1810
 2427SOL    HW1 7518   2.783   1.615   1.880  0.1643  0.5395 -0.1185
 2427SOL    HW2 7519   2.926   1.639   1.924  0.5349 -1.1103 -0.3524
 2428SOL     OW 7520   1.617   5.455   2.318  0.0128 -0.1114 -0.5952
 2428SOL    HW1 7521   1.576   5.451   2.231 -0.0817 -1.3195 -0.5164
 2428SOL    HW2 7522   1.550   5.493   2.375  0.0736  0.6853 -1.0436
 2429SOL     OW 7523   1.753   6.145   2.651 -0.8091  0.2373  0.1653
 2429SOL    HW1 7524   1.768   6.239   2.659 -1.0117  0.1746  1.3442
 2429SOL    HW2 7525   1.702   6.136   2.570 -0.2014  1.0614 -0.3212
 2430SOL     OW 7526   5.058   3.150   3.948  0.1496 -0.4037  0.6384
 2430SOL    HW1 7527   5.048   3.216   3.880 -0.2097 -1.9916 -0.8993
 2430SOL    HW2 7528   4.971   3.110   3.955  0.4972 -1.0725  1.1802
 2431SOL     OW 7529   0.148   5.873   4.031 -0.6697 -0.6052  0.0613
 2431SOL    HW1 7530   0.104   5.820   3.966 -0.5361 -0.4286 -0.1749
 2431SOL    HW2 7531   0.237   5.838   4.036 -1.0975 -1.5984  1.2459
 2432SOL     OW 7532   5.160   5.558   0.925 -0.5365  0.8108 -0.2354
 2432SOL    HW1 7533   5.251   5.574   0.950 -0.7338  0.4660  0.7199
 2432SOL    HW2 7534   5.139   5.473   0.961 -0.6672 -0.0038 -2.0974
 2433SOL     OW 7535   2.845   5.222   2.666  0.1276 -0.2551  0.2186
 2433SOL    HW1 7536   2.895   5.260   2.593  1.2350  0.0118  1.0962
 2433SOL    HW2 7537   2.846   5.291   2.733  1.4522 -1.4712  1.5166
 2434SOL     OW 7538   5.396   0.953   0.929 -0.4382  0.1548  0.1059
 2434SOL    HW1 7539   5.478   0.922   0.892 -1.6928 -1.4604 -1.5207
 2434SOL    HW2 7540   5.419   1.034   0.975  1.9666 -0.0512 -0.6052
 2435SOL     OW 7541   3.594   0.882   3.796  0.3820 -0.2317 -0.3614
 2435SOL    HW1 7542   3.520   0.933   3.829  1.0345  1.3101 -1.2017
 2435SOL    HW2 7543   3.653   0.873   3.871  0.5024  0.7123 -0.3345
 2436SOL     OW 7544   2.330   4.984   1.494  0.1549  0.6608 -0.5174
 2436SOL    HW1 7545   2.281   4.910   1.529  0.3710  0.2910 -0.9959
 2436SOL    HW2 7546   2.272   5.023   1.429  0.3185  0.4835 -0.7726
 2437SOL     OW 7547   2.797   1.439   2.269 -0.8167  0.1417  0.2093
 2437SOL    HW1 7548   2.760   1.524   2.296 -1.7165 -0.2681  0.3167
 2437SOL    HW2 7549   2.801   1.444   2.174 -0.4741  0.4650  0.2410
 2438SOL     OW 7550   4.166   0.100   3.948  0.2233 -0.0768 -0.2204
 2438SOL    HW1 7551   4.182   0.171   4.010 -0.9982 -0.2406  0.3111
 2438SOL    HW2 7552   4.182   0.138   3.862 -0.4152  0.8470  0.0579
 2439SOL     OW 7553   3.388   0.553   4.399 -0.7587  1.0116 -0.2372
 2439SOL    HW1 7554   3.455   0.510   4.452 -0.2913  0.9974 -0.8333
 2439SOL    HW2 7555   3.314   0.563   4.459 -0.8319 -0.4901 -0.0485
 2440SOL     OW 7556   4.554   4.759   5.519  0.3363  0.4215  0.1883
 2440SOL    HW1 7557   4.554   4.671   5.556 -0.8186 -0.0677 -0.8955
 2440SOL    HW2 7558   4.482   4.804   5.563  0.4709  0.6012  0.2275
 2441SOL     OW 7559   4.050   0.266   2.987  0.6450  0.9131 -0.1412
 2441SOL    HW1 7560   4.106   0.264   2.909  0.7242  2.7622 -0.1766
 2441SOL    HW2 7561   4.089   0.333   3.043 -0.5559  1.0264  0.5936
 2442SOL     OW 7562   6.072   2.752   4.959 -0.3023 -0.0571 -0.3943
 2442SOL    HW1 7563   6.071   2.797   5.044  2.0539  1.2106 -0.9506
 2442SOL    HW2 7564   6.127   2.675   4.973  0.7811  0.5998 -0.9404
 2443SOL     OW 7565   2.390   2.360   5.989 -0.3288  0.5098 -0.1233
 2443SOL    HW1 7566   2.301   2.386   6.009 -0.2820  2.1502 -1.7429
 2443SOL    HW2 7567   2.445   2.422   6.036 -0.0254 -0.3994  0.7468
 2444SOL     OW 7568   0.636   4.490   2.221  1.3422 -0.6415 -0.3142
 2444SOL    HW1 7569   0.564   4.476   2.283  0.9040  2.1511 -0.0556
 2444SOL    HW2 7570   0.713   4.456   2.265  0.7171 -0.4838  0.9306
 2445SOL     OW 7571   5.983   4.682   4.914  0.2871  0.1590 -0.1229
 2445SOL    HW1 7572   6.066   4.654   4.874 -0.3636 -0.5475 -1.0109
 2445SOL    HW2 7573   5.932   4.718   4.842  0.1395  1.3976  0.5768
 2446SOL     OW 7574   2.135   2.795   3.530 -0.0807  0.4315 -0.4134
 2446SOL    HW1 7575   2.083   2.759   3.602  0.3253 -0.0686 -0.3672
 2446SOL    HW2 7576   2.074   2.853   3.483 -0.3658  0.7023  0.2823
 2447SOL     OW 7577   3.852   4.659   0.429  0.2329 -0.1460  0.7925
 2447SOL    HW1 7578   3.790   4.732   0.435  1.2223  0.6177  2.1236
 2447SOL    HW2 7579   3.815   4.602   0.362 -0.7794  1.3646  0.0205
 2448SOL     OW 7580   3.517   2.998   4.321  0.5918 -0.0187 -0.2138
 2448SOL    HW1 7581   3.542   2.906   4.332  1.0876  0.0229 -0.9012
 2448SOL    HW2 7582   3.435   2.994   4.272  0.6876 -0.0915 -0.3692
 2449SOL     OW 7583   2.792   0.358   4.504  0.5593  0.0509  0.6445
 2449SOL    HW1 7584   2.841   0.297   4.559  0.7402  0.3381  0.8020
 2449SOL    HW2 7585   2.810   0.444   4.541 -3.1753 -0.0407  3.2508
 2450SOL     OW 7586   5.086   3.462   1.625 -0.0816 -0.2549 -0.2876
 2450SOL    HW1 7587   5.002   3.507   1.612  0.4914  0.5312 -1.4368
 2450SOL    HW2 7588   5.079   3.423   1.712 -1.6578 -0.2465 -0.3910
 2451SOL     OW 7589   5.932   5.200   0.367 -0.0837  0.3437  0.6186
 2451SOL    HW1 7590   5.984   5.246   0.301  0.3896 -0.8621  0.1327
 2451SOL    HW2 7591   5.909   5.268   0.431 -0.7796  1.6024 -0.9063
 2452SOL     OW 7592   5.431   2.706   4.793  0.5608 -0.2694  0.0637
 2452SOL    HW1 7593   5.431   2.642   4.863  0.1232 -1.2226 -0.7796
 2452SOL    HW2 7594   5.339   2.728   4.781  0.5388 -0.7717 -0.7791
 2453SOL     OW 7595   5.375   5.814   1.847 -0.2046  0.0794  0.4475
 2453SOL    HW1 7596   5.327   5.896   1.862  0.6860  0.9432 -1.1104
 2453SOL    HW2 7597   5.420   5.828   1.763  0.4486 -1.7935  0.4450
 2454SOL     OW 7598   5.704   3.526   4.440  0.6576 -0.1461 -0.2426
 2454SOL    HW1 7599   5.721   3.511   4.347  0.8071 -0.3654 -0.1792
 2454SOL    HW2 7600   5.695   3.621   4.447  1.8978 -0.0112 -0.2709
 2455SOL     OW 7601   1.119   5.186   5.269 -0.4979  0.1943 -0.0221
 2455SOL    HW1 7602   1.192   5.195   5.330 -0.4341 -1.6437  0.2028
 2455SOL    HW2 7603   1.075   5.106   5.295 -1.4702  0.2588 -1.3589
 2456SOL     OW 7604   4.849   1.098   3.305  0.5588  0.3385 -0.3521
 2456SOL    HW1 7605   4.816   1.180   3.270  0.7704  1.4340  1.8068
 2456SOL    HW2 7606   4.774   1.058   3.349  0.9931  0.6027  0.6731
 2457SOL     OW 7607   1.325   2.898   3.564  0.4283 -0.5404  0.0624
 2457SOL    HW1 7608   1.298   2.853   3.484  0.0838 -0.5747  0.1954
 2457SOL    HW2 7609   1.367   2.978   3.533  1.5441 -1.2026 -0.1933
 2458SOL     OW 7610   2.162   3.949   2.624 -0.6034 -0.6898  0.2621
 2458SOL    HW1 7611   2.155   4.026   2.681 -0.3677 -0.8049  0.4490
 2458SOL    HW2 7612   2.209   3.884   2.677 -1.4617 -1.2319  0.3860
 2459SOL     OW 7613   1.116   0.543   1.501  0.1437 -0.2025 -0.2966
 2459SOL    HW1 7614   1.051   0.607   1.475  1.3565  1.1334 -0.1575
 2459SOL    HW2 7615   1.199   0.591   1.501  0.8057 -1.2140  1.8302
 2460SOL     OW 7616   0.368   4.660   3.211 -0.1638  0.1188 -0.2241
 2460SOL    HW1 7617   0.284   4.697   3.238  0.3754  0.5936  0.8886
 2460SOL    HW2 7618   0.386   4.592   3.276  2.0847  2.5708  1.9870
 2461SOL     OW 7619   5.716   5.486   3.298 -0.2825  0.2317  0.1478
 2461SOL    HW1 7620   5.789   5.433   3.268  0.1072  1.1430 -0.5558
 2461SOL    HW2 7621   5.685   5.442   3.377  0.6010 -0.5290  0.0832
 2462SOL     OW 7622   6.076   1.057   1.001  0.5236 -0.3307 -0.3470
 2462SOL    HW1 7623   5.988   1.076   1.035 -0.5751 -2.0188 -2.0167
 2462SOL    HW2 7624   6.112   0.992   1.062 -0.2166 -1.1089 -0.7178
 2463SOL     OW 7625   5.687   4.257   0.157 -0.2449  0.0879  0.3362
 2463SOL    HW1 7626   5.620   4.223   0.216 -1.3573  0.7536 -0.4922
 2463SOL    HW2 7627   5.661   4.225   0.071  0.1835  0.8203 -0.0724
 2464SOL     OW 7628   3.110   3.524   0.627  0.0122  0.2364  0.4367
 2464SOL    HW1 7629   3.033   3.495   0.577 -0.3724  0.5053  0.8759
 2464SOL    HW2 7630   3.123   3.615   0.601 -0.1293  0.3474  0.7609
 2465SOL     OW 7631   4.006   1.715   3.567  0.1317 -0.1428  0.3689
 2465SOL    HW1 7632   3.999   1.619   3.572 -1.6547 -0.1131 -0.7285
 2465SOL    HW2 7633   3.915   1.745   3.562  0.7144  1.4633 -1.6257
 2466SOL     OW 7634   5.636   5.203   3.355 -0.0002 -0.6500 -0.1677
 2466SOL    HW1 7635   5.702   5.248   3.407  0.9213 -2.2357  0.1144
 2466SOL    HW2 7636   5.554   5.220   3.400  0.3101  0.7254 -0.0903
 2467SOL     OW 7637   0.843   0.147   2.524 -1.3553 -0.1982  0.2940
 2467SOL    HW1 7638   0.759   0.144   2.570 -1.1606  2.9946  1.0799
 2467SOL    HW2 7639   0.870   0.239   2.530  2.4191 -1.1746  0.4588
 2468SOL     OW 7640   3.293   4.435   3.309  0.5008  0.0899  0.1527
 2468SOL    HW1 7641   3.366   4.485   3.271 -0.2585  1.1758  0.0867
 2468SOL    HW2 7642   3.224   4.500   3.322  0.0421 -0.6431  1.5523
 2469SOL     OW 7643   0.807   5.734   3.591 -0.3490  0.0618 -0.2232
 2469SOL    HW1 7644   0.834   5.642   3.594 -0.1824  0.0806 -0.9031
 2469SOL    HW2 7645   0.813   5.764   3.682  3.4727  0.4791 -0.4305
 2470SOL     OW 7646   0.756   5.109   6.084  0.0785  0.1399  0.7756
 2470SOL    HW1 7647   0.792   5.027   6.118  0.9172 -0.7630 -2.0291
 2470SOL    HW2 7648   0.774   5.173   6.153  2.0519 -1.4369  1.8503
 2471SOL     OW 7649   1.621   1.908   0.685 -0.2586  0.3339 -0.0589
 2471SOL    HW1 7650   1.700   1.861   0.657  0.3501  1.5153 -0.3685
 2471SOL    HW2 7651   1.587   1.947   0.604 -0.3732  0.9790  0.2966
 2472SOL     OW 7652   4.259   6.101   5.908 -0.8615  0.0047 -0.0279
 2472SOL    HW1 7653   4.291   6.151   5.834 -2.1560 -0.6337 -1.0728
 2472SOL    HW2 7654   4.213   6.165   5.962  1.0701  0.6960  0.8872
 2473SOL     OW 7655   1.807   3.847   5.820 -0.0710 -0.3774  0.9112
 2473SOL    HW1 7656   1.830   3.851   5.727 -0.8458 -1.2968  0.6541
 2473SOL    HW2 7657   1.825   3.935   5.854 -0.2370  0.1077 -0.2228
 2474SOL     OW 7658   2.235   3.773   4.952 -0.1882  0.3280  0.3104
 2474SOL    HW1 7659   2.283   3.705   4.998  0.0500  0.1801 -0.1472
 2474SOL    HW2 7660   2.151   3.734   4.930 -0.1486  0.2655  0.2712
 2475SOL     OW 7661   1.714   3.380   3.575 -0.3718 -0.0961 -0.2671
 2475SOL    HW1 7662   1.802   3.413   3.556  0.5831 -1.3556  1.6772
 2475SOL    HW2 7663   1.666   3.457   3.605 -0.0258  0.6482 -1.5419
 2476SOL     OW 7664   2.767   3.860   0.900 -0.2712  0.4845  0.3015
 2476SOL    HW1 7665   2.823   3.869   0.977 -0.3604  0.5932  0.3531
 2476SOL    HW2 7666   2.720   3.778   0.914 -0.7374  0.8101  0.6527
 2477SOL     OW 7667   0.152   3.615   4.818  0.1793 -0.2599  0.4755
 2477SOL    HW1 7668   0.082   3.585   4.760 -0.0584  1.8792 -0.4379
 2477SOL    HW2 7669   0.226   3.558   4.798 -0.0786  0.0484 -1.5662
 2478SOL     OW 7670   5.032   5.819   5.892  0.0006 -0.1256  0.5968
 2478SOL    HW1 7671   5.096   5.875   5.848  0.7791 -1.0817  0.4923
 2478SOL    HW2 7672   4.949   5.841   5.850  0.1997  1.2692  0.8679
 2479SOL     OW 7673   3.415   4.326   5.867  0.0935 -0.2485  0.0672
 2479SOL    HW1 7674   3.354   4.301   5.797  1.0595 -1.1958 -0.4667
 2479SOL    HW2 7675   3.428   4.420   5.856 -2.5150  0.3265  1.2086
 2480SOL     OW 7676   1.715   3.781   5.503  0.4940 -0.0468 -0.1188
 2480SOL    HW1 7677   1.623   3.778   5.479  0.1336 -0.9325  1.2837
 2480SOL    HW2 7678   1.745   3.691   5.494  1.4371  0.3585 -1.2878
 2481SOL     OW 7679   1.271   2.364   1.903  0.0201  0.2093  0.3066
 2481SOL    HW1 7680   1.221   2.320   1.834  2.2094 -0.2650 -1.0794
 2481SOL    HW2 7681   1.211   2.432   1.936 -1.1475  0.4073 -2.0057
 2482SOL     OW 7682   6.049   4.349   5.013  0.7094  0.0163  0.2532
 2482SOL    HW1 7683   5.960   4.324   4.989  0.0878  2.4093 -0.2650
 2482SOL    HW2 7684   6.105   4.292   4.961 -0.5496 -0.1449 -0.9961
 2483SOL     OW 7685   0.298   5.905   3.519 -0.0668 -0.4280 -0.1323
 2483SOL    HW1 7686   0.356   5.830   3.506  0.0033 -0.3570 -0.2282
 2483SOL    HW2 7687   0.333   5.949   3.597  0.0052 -0.3873 -0.1878
 2484SOL     OW 7688   4.316   5.831   4.726  0.2530  0.4534  0.8835
 2484SOL    HW1 7689   4.237   5.778   4.729  0.0535  0.7999  2.2898
 2484SOL    HW2 7690   4.298   5.905   4.783  2.0127 -0.0925  2.2782
 2485SOL     OW 7691   0.875   5.279   3.384 -0.0090  0.2798  0.2810
 2485SOL    HW1 7692   0.826   5.198   3.365  0.4562 -0.2020  1.0658
 2485SOL    HW2 7693   0.927   5.294   3.306  2.4590 -2.0887  1.3204
 2486SOL     OW 7694   0.339   6.151   1.116  0.4434 -0.0127  0.0515
 2486SOL    HW1 7695   0.279   6.182   1.184 -1.6916  0.6940 -2.0541
 2486SOL    HW2 7696   0.392   6.228   1.094 -0.6874  0.5111 -0.9082
 2487SOL     OW 7697   0.235   3.438   0.913 -0.1561  0.1071  0.3670
 2487SOL    HW1 7698   0.201   3.522   0.942 -0.7111 -0.4883  1.4967
 2487SOL    HW2 7699   0.288   3.459   0.836 -0.7398  1.4084  0.2943
 2488SOL     OW 7700   5.402   3.823   0.076 -0.1724  0.0539  0.1163
 2488SOL    HW1 7701   5.361   3.905   0.104  0.2183 -0.5269  2.5342
 2488SOL    HW2 7702   5.460   3.849   0.004 -0.9375  1.6959  0.0503
 2489SOL     OW 7703   4.664   0.265   0.528  0.2398 -0.2237  0.2533
 2489SOL    HW1 7704   4.720   0.341   0.508  0.5174  0.2742  2.6760
 2489SOL    HW2 7705   4.575   0.298   0.517  0.3509  0.6010  1.5792
 2490SOL     OW 7706   1.022   4.664   1.699  0.5539 -0.1501  0.1270
 2490SOL    HW1 7707   1.019   4.587   1.643  1.0734 -0.2750  0.2634
 2490SOL    HW2 7708   1.100   4.712   1.670  0.1873  0.3693 -0.0147
 2491SOL     OW 7709   3.094   1.040   1.995 -0.2508  0.1143 -0.2056
 2491SOL    HW1 7710   3.021   1.097   1.972 -0.3319  0.1852  0.2185
 2491SOL    HW2 7711   3.092   1.035   2.091  0.7073  0.6746 -0.1406
 2492SOL     OW 7712   5.640   4.341   1.475 -0.4736  0.4610  0.2509
 2492SOL    HW1 7713   5.548   4.360   1.492 -0.5789  1.6888 -1.4276
 2492SOL    HW2 7714   5.674   4.421   1.434  0.6460 -0.9033 -1.6305
 2493SOL     OW 7715   1.497   3.952   0.816  0.2121  0.2627  0.4615
 2493SOL    HW1 7716   1.480   3.983   0.905  1.2030  0.0783  0.7264
 2493SOL    HW2 7717   1.592   3.954   0.807  0.3275 -2.3474  0.3802
 2494SOL     OW 7718   4.147   0.244   5.389  0.2321 -0.7573 -0.1073
 2494SOL    HW1 7719   4.163   0.249   5.295 -1.3462  1.1792 -0.3493
 2494SOL    HW2 7720   4.202   0.313   5.426  0.9175 -1.5730  0.4288
 2495SOL     OW 7721   3.417   4.039   0.114  0.2872  0.7625  0.1018
 2495SOL    HW1 7722   3.509   4.033   0.138  0.4440  0.1446 -0.6329
 2495SOL    HW2 7723   3.409   4.125   0.072  0.6350  0.6216 -0.2599
 2496SOL     OW 7724   1.107   1.697   3.241  0.0804  0.2126  0.3557
 2496SOL    HW1 7725   1.116   1.610   3.281 -1.2242 -0.6894 -1.2062
 2496SOL    HW2 7726   1.097   1.756   3.316  0.2934 -1.0608  1.4328
 2497SOL     OW 7727   0.179   0.742   0.504  0.1984  0.6449  0.2574
 2497SOL    HW1 7728   0.260   0.696   0.525  0.4131  0.6522 -0.5375
 2497SOL    HW2 7729   0.204   0.807   0.438 -0.5518  0.2845 -0.3901
 2498SOL     OW 7730   3.393   4.447   0.848 -0.0842  0.3388  0.3128
 2498SOL    HW1 7731   3.484   4.476   0.842  0.0762 -0.1346  0.4090
 2498SOL    HW2 7732   3.380   4.432   0.942 -0.1765  0.1293  0.2653
 2499SOL     OW 7733   0.591   4.480   3.046  0.3351 -0.9336 -0.0786
 2499SOL    HW1 7734   0.628   4.504   2.961 -0.0452  0.9124  0.2324
 2499SOL    HW2 7735   0.499   4.505   3.039  0.6601  0.8948  1.4266
 2500SOL     OW 7736   1.393   1.385   2.859  0.4001 -0.7402  0.1519
 2500SOL    HW1 7737   1.352   1.308   2.898  1.0933 -1.1354  0.1090
 2500SOL    HW2 7738   1.420   1.438   2.934  0.9807 -1.1018  0.1995
 2501SOL     OW 7739   2.376   2.848   2.780 -0.1333 -0.3699 -0.6963
 2501SOL    HW1 7740   2.316   2.779   2.806  0.8168 -1.4183 -1.1849
 2501SOL    HW2 7741   2.412   2.882   2.862 -1.7366  0.6313 -0.3681
 2502SOL     OW 7742   1.002   3.942   3.227  0.2384 -0.2164 -0.6522
 2502SOL    HW1 7743   0.932   3.939   3.161 -0.4410 -0.5816  0.0740
 2502SOL    HW2 7744   0.958   3.920   3.309  0.7155  1.8731  0.2400
 2503SOL     OW 7745   1.834   4.145   0.937 -0.2799 -0.2026  0.2773
 2503SOL    HW1 7746   1.793   4.127   1.021  0.2252  0.4152  0.6610
 2503SOL    HW2 7747   1.771   4.201   0.891 -0.9681 -1.2622 -0.1425
 2504SOL     OW 7748   5.251   2.357   2.788 -0.4333 -0.1332 -0.1176
 2504SOL    HW1 7749   5.270   2.449   2.768 -0.0546 -0.0169  0.7262
 2504SOL    HW2 7750   5.229   2.318   2.703 -0.3078  0.6647 -0.5291
 2505SOL     OW 7751   2.409   2.282   2.840  0.1624  0.1691  0.4546
 2505SOL    HW1 7752   2.449   2.367   2.861  0.3083  0.2875 -0.2596
 2505SOL    HW2 7753   2.422   2.229   2.919 -0.0152  0.8380  0.9467
 2506SOL     OW 7754   4.813   5.577   3.402 -0.0438 -0.0124  0.1094
 2506SOL    HW1 7755   4.754   5.650   3.385 -0.8070 -0.5653  0.3745
 2506SOL    HW2 7756   4.761   5.499   3.387  0.6653 -0.5147  0.1815
 2507SOL     OW 7757   0.729   3.300   2.633  0.2628 -0.1471 -0.2663
 2507SOL    HW1 7758   0.824   3.289   2.627  0.1879 -0.1596 -2.1633
 2507SOL    HW2 7759   0.717   3.391   2.659  0.7771 -0.7452  2.2739
 2508SOL     OW 7760   5.682   5.851   2.531 -0.4191  0.1618  0.0227
 2508SOL    HW1 7761   5.748   5.861   2.462  0.6481 -0.7735  0.8618
 2508SOL    HW2 7762   5.601   5.885   2.493  0.5740  1.4839 -0.9881
 2509SOL     OW 7763   4.377   5.547   3.159 -0.6438  0.0077  0.0431
 2509SOL    HW1 7764   4.289   5.549   3.197  0.1792  1.3449  2.0331
 2509SOL    HW2 7765   4.435   5.571   3.232  1.3676 -0.6940 -1.2507
 2510SOL     OW 7766   3.407   5.673   4.545  0.7996  0.6507 -0.6481
 2510SOL    HW1 7767   3.467   5.723   4.490  2.4529 -0.3924  0.1061
 2510SOL    HW2 7768   3.404   5.586   4.504  1.4953  0.0767  0.4490
 2511SOL     OW 7769   0.409   1.198   0.107 -0.4100  0.6304  0.0659
 2511SOL    HW1 7770   0.336   1.187   0.047 -0.8608  0.4973  0.6229
 2511SOL    HW2 7771   0.399   1.285   0.144 -1.3905 -0.0545  1.5370
 2512SOL     OW 7772   5.649   1.759   4.850 -0.0388 -0.4126 -0.2069
 2512SOL    HW1 7773   5.626   1.722   4.765  2.1567 -1.0853 -0.5782
 2512SOL    HW2 7774   5.603   1.842   4.854  0.2271 -0.1244 -2.2966
 2513SOL     OW 7775   5.685   6.074   2.955 -0.6238  0.0924  0.1833
 2513SOL    HW1 7776   5.647   6.004   2.902 -0.5152 -0.1404  0.4109
 2513SOL    HW2 7777   5.717   6.138   2.892  0.7916 -0.8499 -0.0867
 2514SOL     OW 7778   5.886   3.858   1.198 -0.3565 -0.4853 -0.3242
 2514SOL    HW1 7779   5.915   3.774   1.235  2.5544  0.0532 -1.1272
 2514SOL    HW2 7780   5.922   3.859   1.109 -1.3821  1.1205 -0.7687
 2515SOL     OW 7781   0.782   0.277   3.706 -0.4119 -0.0488  0.1278
 2515SOL    HW1 7782   0.772   0.191   3.748 -0.3934 -0.4305 -0.6333
 2515SOL    HW2 7783   0.876   0.283   3.687 -0.1674  0.7583  1.4458
 2516SOL     OW 7784   5.964   2.299   2.350 -0.5097  0.4731 -0.1025
 2516SOL    HW1 7785   6.051   2.265   2.327 -1.1623 -1.0231 -0.5028
 2516SOL    HW2 7786   5.944   2.259   2.434 -0.7176  1.0125  0.1107
 2517SOL     OW 7787   0.325   3.041   5.108 -0.5044 -0.0204 -0.0355
 2517SOL    HW1 7788   0.288   3.048   5.197 -1.6546 -1.0133 -0.4056
 2517SOL    HW2 7789   0.329   3.131   5.077  2.3276  0.6740  1.9131
 2518SOL     OW 7790   0.382   2.556   4.268 -0.3173 -0.0816  0.5985
 2518SOL    HW1 7791   0.356   2.628   4.325 -4.0864  0.5940 -1.6160
 2518SOL    HW2 7792   0.388   2.596   4.181  0.7875 -1.8685 -0.2018
 2519SOL     OW 7793   5.244   0.452   3.748 -0.6267  0.2649 -0.1603
 2519SOL    HW1 7794   5.238   0.479   3.839  0.4436 -0.5857  0.1968
 2519SOL    HW2 7795   5.327   0.403   3.744 -1.0657 -0.4093 -1.3957
 2520SOL     OW 7796   1.340   0.760   2.116  0.2984 -0.4374 -0.7444
 2520SOL    HW1 7797   1.260   0.813   2.111  0.4931 -0.1863 -1.3715
 2520SOL    HW2 7798   1.311   0.671   2.098  0.0596 -0.4530 -0.2964
 2521SOL     OW 7799   2.906   5.370   1.712 -0.0411 -0.2604  0.0346
 2521SOL    HW1 7800   2.882   5.291   1.664 -4.8868 -1.5563  3.7727
 2521SOL    HW2 7801   2.855   5.439   1.669  0.9866  0.0327 -0.7402
 2522SOL     OW 7802   0.363   4.530   1.314  0.4845 -0.5101 -0.1564
 2522SOL    HW1 7803   0.388   4.595   1.248 -2.4974  0.2883 -0.6605
 2522SOL    HW2 7804   0.312   4.465   1.265  2.1348 -2.4871  0.6135
 2523SOL     OW 7805   2.173   4.136   3.087 -0.5479  0.4994  0.5145
 2523SOL    HW1 7806   2.109   4.196   3.125 -0.7317  0.9415 -0.4677
 2523SOL    HW2 7807   2.213   4.093   3.163 -0.4780  1.7868  1.2438
 2524SOL     OW 7808   5.475   1.182   2.895 -0.3882  0.2282  0.2988
 2524SOL    HW1 7809   5.383   1.191   2.868 -0.3909 -0.6483 -0.0171
 2524SOL    HW2 7810   5.476   1.105   2.951  0.1635  0.2171  0.2779
 2525SOL     OW 7811   1.674   2.569   1.295  0.2718 -0.1331 -0.2685
 2525SOL    HW1 7812   1.687   2.536   1.206 -0.0493  0.9203 -0.7284
 2525SOL    HW2 7813   1.758   2.610   1.318  0.8390 -1.6497  0.4957
 2526SOL     OW 7814   5.791   0.587   0.845 -0.0505  0.0540  0.3033
 2526SOL    HW1 7815   5.881   0.568   0.869  0.9087  1.2879 -2.0056
 2526SOL    HW2 7816   5.744   0.589   0.929  2.3151  0.7795  1.7127
 2527SOL     OW 7817   0.715   4.840   5.249 -0.6742  0.1697 -0.4620
 2527SOL    HW1 7818   0.749   4.820   5.162 -0.8514  0.7758 -0.6760
 2527SOL    HW2 7819   0.650   4.908   5.234 -1.2706 -0.2739  0.0592
 2528SOL     OW 7820   3.586   0.291   5.712  0.1267 -0.7881 -0.2296
 2528SOL    HW1 7821   3.513   0.349   5.734  0.7011 -0.8908  2.2742
 2528SOL    HW2 7822   3.545   0.207   5.691 -0.4959 -0.8881  1.2840
 2529SOL     OW 7823   2.786   4.559   5.293  0.1739 -0.4667 -0.2000
 2529SOL    HW1 7824   2.823   4.644   5.266 -0.2949 -0.2806 -0.2596
 2529SOL    HW2 7825   2.833   4.495   5.240 -0.3276 -0.1478 -1.0515
 2530SOL     OW 7826   0.052   1.077   2.979 -0.3783 -0.3260  0.4047
 2530SOL    HW1 7827   0.085   1.107   2.894  1.0185 -0.7219  0.7676
 2530SOL    HW2 7828  -0.024   1.023   2.958 -1.3866  1.3556 -0.4309
 2531SOL     OW 7829   5.970   5.649   2.538 -0.8700  0.4415  0.0144
 2531SOL    HW1 7830   5.920   5.645   2.620  0.2008 -0.9746  0.6480
 2531SOL    HW2 7831   5.959   5.562   2.500 -1.7945  1.2460 -1.6553
 2532SOL     OW 7832   0.732   0.694   0.515 -0.0651 -0.5248 -0.3980
 2532SOL    HW1 7833   0.732   0.787   0.536 -0.0193 -0.4389 -0.7688
 2532SOL    HW2 7834   0.724   0.650   0.600  1.0656 -0.2072 -0.1174
 2533SOL     OW 7835   3.858   0.976   6.118  0.3582  0.3817 -0.3879
 2533SOL    HW1 7836   3.910   0.912   6.070 -0.6909 -0.5556 -0.3288
 2533SOL    HW2 7837   3.777   0.930   6.139 -0.6769  1.9059 -0.8388
 2534SOL     OW 7838   4.747   0.952   4.343 -0.2270 -0.1993  0.0740
 2534SOL    HW1 7839   4.755   0.897   4.421 -1.3183  0.4954  0.7012
 2534SOL    HW2 7840   4.697   0.898   4.281 -0.7768 -0.1525  0.4699
 2535SOL     OW 7841   0.615   4.451   1.364 -0.5033 -0.0397  0.1977
 2535SOL    HW1 7842   0.525   4.477   1.343  0.2973  1.6579 -1.5309
 2535SOL    HW2 7843   0.626   4.366   1.322 -1.2157 -0.1288  0.1767
 2536SOL     OW 7844   0.515   2.632   2.346 -0.0346 -0.4095 -0.2872
 2536SOL    HW1 7845   0.562   2.679   2.277  2.1559 -2.0657 -0.0311
 2536SOL    HW2 7846   0.569   2.554   2.363 -1.7951 -1.3046  1.5815
 2537SOL     OW 7847   3.429   4.661   4.754  0.2306  0.4703  0.4842
 2537SOL    HW1 7848   3.415   4.754   4.772 -0.4830  0.9437 -2.0690
 2537SOL    HW2 7849   3.340   4.625   4.744  0.5170 -0.1647  0.1460
 2538SOL     OW 7850   3.221   3.996   6.043 -0.0747  0.1344  0.2250
 2538SOL    HW1 7851   3.155   3.929   6.058  0.6081 -0.4423  0.7348
 2538SOL    HW2 7852   3.245   4.026   6.130  0.4269  0.2336  0.0576
 2539SOL     OW 7853   2.654   4.591   5.912 -0.1847 -0.1184 -0.2635
 2539SOL    HW1 7854   2.687   4.564   5.998 -0.8915  0.3102  0.1572
 2539SOL    HW2 7855   2.596   4.665   5.931 -1.4362 -0.8833 -0.9392
 2540SOL     OW 7856   5.726   1.886   0.494  0.0352  0.1820  0.5885
 2540SOL    HW1 7857   5.674   1.930   0.561  0.2126 -0.8023  1.3855
 2540SOL    HW2 7858   5.753   1.804   0.534  1.2648  0.1693 -0.2116
 2541SOL     OW 7859   2.828   4.103   1.820  0.0209 -0.2560 -0.8152
 2541SOL    HW1 7860   2.793   4.153   1.747 -2.3997 -1.4047 -0.5506
 2541SOL    HW2 7861   2.851   4.018   1.782 -0.2033 -0.4745 -0.4747
 2542SOL     OW 7862   4.852   3.875   2.251 -0.2771 -0.5722  0.2279
 2542SOL    HW1 7863   4.923   3.900   2.192 -0.7949  0.2553 -0.0578
 2542SOL    HW2 7864   4.868   3.782   2.270 -0.0224 -0.8205 -1.1029
 2543SOL     OW 7865   1.633   1.735   3.950 -0.7893 -1.0079  0.2143
 2543SOL    HW1 7866   1.665   1.651   3.985  0.7778 -0.0246  1.2537
 2543SOL    HW2 7867   1.592   1.778   4.024 -0.1610 -0.1840  0.0898
 2544SOL     OW 7868   5.001   2.038   5.124  0.4473  0.6304  0.2818
 2544SOL    HW1 7869   5.008   1.998   5.038  3.7680  0.1876  0.6173
 2544SOL    HW2 7870   5.020   1.967   5.186 -0.0504  1.3275  1.2736
 2545SOL     OW 7871   1.217   1.180   1.120 -0.2095 -0.8897 -0.6162
 2545SOL    HW1 7872   1.214   1.089   1.149  0.7063 -0.7697 -0.1177
 2545SOL    HW2 7873   1.241   1.230   1.198 -3.6962  0.1865 -0.0874
 2546SOL     OW 7874   4.758   5.321   5.179 -0.0520 -0.7850 -0.1325
 2546SOL    HW1 7875   4.816   5.291   5.109 -1.3402 -1.3981 -0.9592
 2546SOL    HW2 7876   4.775   5.415   5.186  2.2077 -1.1948  0.7713
 2547SOL     OW 7877   2.170   4.330   5.330  0.3646 -0.1537  0.1284
 2547SOL    HW1 7878   2.084   4.361   5.358  0.3804  1.7831 -1.7763
 2547SOL    HW2 7879   2.226   4.407   5.333  1.0856 -0.5209 -2.1926
 2548SOL     OW 7880   3.607   5.699   0.757  0.5299  0.1207  0.0050
 2548SOL    HW1 7881   3.673   5.737   0.814 -0.3640  0.6512  0.7167
 2548SOL    HW2 7882   3.565   5.773   0.714  0.2883 -0.1952 -0.3167
 2549SOL     OW 7883   3.337   3.516   1.641 -0.0108 -0.0086 -0.1179
 2549SOL    HW1 7884   3.403   3.448   1.630 -1.1506 -1.5637  1.9581
 2549SOL    HW2 7885   3.385   3.591   1.676  0.8337 -0.7326  0.3147
 2550SOL     OW 7886   5.768   3.496   2.180  0.2328 -0.2694 -0.0508
 2550SOL    HW1 7887   5.752   3.524   2.090  1.0072 -0.5927 -0.2971
 2550SOL    HW2 7888   5.799   3.406   2.173  0.0543 -0.3891  0.5596
 2551SOL     OW 7889   4.379   1.156   0.416 -0.0878 -0.3887  0.4658
 2551SOL    HW1 7890   4.401   1.231   0.471 -0.0249  0.6701 -0.9680
 2551SOL    HW2 7891   4.298   1.181   0.372  0.1782 -0.9611 -0.3830
 2552SOL     OW 7892   2.755   4.945   3.385  0.6672  0.5181  0.0696
 2552SOL    HW1 7893   2.744   5.005   3.459  0.7605  0.3422  0.2251
 2552SOL    HW2 7894   2.839   4.970   3.346  1.0744 -0.0094  0.5931
 2553SOL     OW 7895   2.171   1.658   2.459  0.3260 -0.0621 -0.0653
 2553SOL    HW1 7896   2.174   1.721   2.531 -1.7605  0.1282 -0.0891
 2553SOL    HW2 7897   2.197   1.708   2.382 -0.8523  0.6950 -0.0023
 2554SOL     OW 7898   5.085   5.726   0.688  0.5138 -0.3207 -0.1231
 2554SOL    HW1 7899   5.093   5.679   0.771 -0.4874  0.1251  0.2377
 2554SOL    HW2 7900   5.174   5.756   0.669  0.8379 -0.8544  0.5360
 2555SOL     OW 7901   4.793   3.200   4.499 -0.0223  0.6504  0.3830
 2555SOL    HW1 7902   4.709   3.231   4.533 -0.1524  0.4766  0.2228
 2555SOL    HW2 7903   4.805   3.115   4.541  0.3829  0.9605  0.9033
 2556SOL     OW 7904   0.652   1.520   4.510  0.0146 -0.5873 -0.3236
 2556SOL    HW1 7905   0.739   1.479   4.510  1.0687  1.5225  0.1900
 2556SOL    HW2 7906   0.595   1.454   4.548  1.1361 -2.4621 -1.6964
 2557SOL     OW 7907   6.023   4.793   2.931 -0.2043 -0.0205 -0.3501
 2557SOL    HW1 7908   6.105   4.746   2.946  0.2905  0.7634 -0.5438
 2557SOL    HW2 7909   6.003   4.779   2.838 -0.3496 -0.3046 -0.2763
 2558SOL     OW 7910   0.615   0.914   5.634 -0.0176  0.1462  0.2862
 2558SOL    HW1 7911   0.583   0.826   5.652  0.8586 -0.5303 -1.2938
 2558SOL    HW2 7912   0.559   0.946   5.563  2.7165 -1.1617 -2.7228
 2559SOL     OW 7913   5.651   3.774   5.040 -0.0986 -0.0098 -0.8152
 2559SOL    HW1 7914   5.728   3.718   5.025 -0.4304 -0.9013  0.5944
 2559SOL    HW2 7915   5.638   3.820   4.957  1.0284 -0.9959 -1.5718
 2560SOL     OW 7916   6.123   2.325   2.646 -1.0590 -0.3236  0.5463
 2560SOL    HW1 7917   6.126   2.311   2.741 -2.3263 -2.7295  0.3240
 2560SOL    HW2 7918   6.067   2.402   2.634  1.4896  1.8764  1.7792
 2561SOL     OW 7919   4.499   4.574   3.923 -0.1600  0.1903 -0.0172
 2561SOL    HW1 7920   4.589   4.606   3.935 -0.1829  0.8048 -1.3226
 2561SOL    HW2 7921   4.485   4.578   3.828 -1.3378 -0.5488  0.1094
 2562SOL     OW 7922   0.276   0.855   1.660  0.5828 -0.4689 -0.0416
 2562SOL    HW1 7923   0.309   0.934   1.617  1.9325 -0.9033  0.1339
 2562SOL    HW2 7924   0.199   0.884   1.708  0.3197  0.4729 -0.9942
 2563SOL     OW 7925   2.379   0.618   0.393 -0.0846 -0.2246 -0.2816
 2563SOL    HW1 7926   2.400   0.537   0.439  1.5301 -0.2832 -1.0592
 2563SOL    HW2 7927   2.346   0.589   0.308 -0.8524 -0.0785 -0.0385
 2564SOL     OW 7928   3.732   3.917   4.461  0.0148 -0.2090  0.1156
 2564SOL    HW1 7929   3.733   3.940   4.367  0.3999 -0.4024  0.0739
 2564SOL    HW2 7930   3.650   3.956   4.493  0.6092  1.1910  0.0299
 2565SOL     OW 7931   2.963   4.476   4.930  0.0403  0.3890  0.2474
 2565SOL    HW1 7932   2.889   4.531   4.905 -0.7665 -0.6841  0.1728
 2565SOL    HW2 7933   2.939   4.442   5.017  0.7936  0.6139  0.5523
 2566SOL     OW 7934   2.314   2.469   5.503  0.3514  0.1862 -0.1251
 2566SOL    HW1 7935   2.272   2.491   5.419  1.1519  1.1337 -0.2919
 2566SOL    HW2 7936   2.302   2.547   5.557  1.4202  0.2713  0.0086
 2567SOL     OW 7937   5.504   4.909   3.796 -0.5528  0.2183  0.0545
 2567SOL    HW1 7938   5.413   4.892   3.775  0.0751 -3.0081 -0.5458
 2567SOL    HW2 7939   5.550   4.898   3.713  0.5425  0.2993  0.6258
 2568SOL     OW 7940   4.614   3.551   2.387 -0.4892  0.2266 -0.4744
 2568SOL    HW1 7941   4.576   3.471   2.423  1.4493 -0.3230  0.5138
 2568SOL    HW2 7942   4.549   3.582   2.324 -2.0321 -1.2071  0.3118
 2569SOL     OW 7943   3.797   5.901   1.168  0.0811 -0.0904 -0.0991
 2569SOL    HW1 7944   3.797   5.917   1.263 -1.6096 -1.4796  0.1900
 2569SOL    HW2 7945   3.840   5.816   1.158 -0.1605 -0.1687 -0.5091
 2570SOL     OW 7946   2.978   1.384   1.120  0.6801 -0.1261 -0.4561
 2570SOL    HW1 7947   3.032   1.340   1.185 -1.3382  0.2197  1.5748
 2570SOL    HW2 7948   2.919   1.316   1.087 -0.5152  0.3604  0.5783
 2571SOL     OW 7949   0.544   3.107   5.643 -0.4667  0.0695  0.4880
 2571SOL    HW1 7950   0.476   3.042   5.662 -0.1645 -0.3450  0.1885
 2571SOL    HW2 7951   0.512   3.188   5.682 -0.4792 -0.4439  1.5696
 2572SOL     OW 7952   2.110   4.024   4.106 -0.1749 -1.0125 -0.0278
 2572SOL    HW1 7953   2.181   4.043   4.168 -1.0730 -0.1554  0.7747
 2572SOL    HW2 7954   2.037   3.996   4.162 -0.7215 -1.0805 -0.7728
 2573SOL     OW 7955   1.178   3.090   1.995 -0.6583 -0.2754  0.2019
 2573SOL    HW1 7956   1.233   3.067   2.070  0.6287 -1.4143 -1.0261
 2573SOL    HW2 7957   1.166   3.184   2.002  0.7892 -0.1200  0.9575
 2574SOL     OW 7958   2.437   3.109   2.707  0.6504 -0.4719  0.2320
 2574SOL    HW1 7959   2.527   3.078   2.706  1.2339  1.1063 -1.7144
 2574SOL    HW2 7960   2.384   3.029   2.715  2.1827 -1.3928  1.8580
 2575SOL     OW 7961   0.632   3.953   5.280 -0.1531 -0.1109  0.0709
 2575SOL    HW1 7962   0.716   3.994   5.256 -0.3776  0.8079  0.7908
 2575SOL    HW2 7963   0.655   3.862   5.301  0.7850  0.2994  0.9117
 2576SOL     OW 7964   3.848   5.011   5.758  0.2027 -0.0347  0.0539
 2576SOL    HW1 7965   3.787   4.941   5.735  0.3936 -0.0734 -0.3340
 2576SOL    HW2 7966   3.810   5.050   5.837  0.9899 -1.6484  1.2655
 2577SOL     OW 7967   0.634   3.291   4.806  0.3090 -0.3188  0.6707
 2577SOL    HW1 7968   0.569   3.295   4.736  1.4170  1.4862 -0.3606
 2577SOL    HW2 7969   0.594   3.336   4.880  0.0585  0.0252  0.3282
 2578SOL     OW 7970   4.969   4.708   0.812  0.3985 -0.0305 -0.1059
 2578SOL    HW1 7971   5.000   4.752   0.733  0.3376 -1.1617 -0.7948
 2578SOL    HW2 7972   4.888   4.752   0.835  2.5115  3.2284  1.9240
 2579SOL     OW 7973   4.235   1.281   4.373 -0.6660  0.0532 -0.2775
 2579SOL    HW1 7974   4.202   1.360   4.332  0.9801  0.5450 -0.7348
 2579SOL    HW2 7975   4.241   1.217   4.302  0.2184  0.2595 -0.3988
 2580SOL     OW 7976   3.731   2.684   0.211 -0.3414 -0.1592 -0.3281
 2580SOL    HW1 7977   3.759   2.600   0.176 -1.5910 -0.5674 -0.3885
 2580SOL    HW2 7978   3.809   2.719   0.255  1.2315  0.2158 -3.1190
 2581SOL     OW 7979   4.373   3.843   4.321 -0.2595 -0.2204 -0.1011
 2581SOL    HW1 7980   4.442   3.796   4.368  0.3222  0.3038 -0.4314
 2581SOL    HW2 7981   4.419   3.908   4.268 -0.9437 -0.4123 -0.9623
 2582SOL     OW 7982   4.234   4.379   5.674  0.4494 -0.1698 -0.0460
 2582SOL    HW1 7983   4.142   4.402   5.683  0.4196 -0.8748  2.0311
 2582SOL    HW2 7984   4.256   4.399   5.583 -1.8638 -0.4088 -0.7026
 2583SOL     OW 7985   0.488   2.428   3.853 -0.3803  0.1004 -0.3843
 2583SOL    HW1 7986   0.495   2.399   3.944 -1.2697 -1.1706 -0.6787
 2583SOL    HW2 7987   0.571   2.404   3.813 -0.8407 -1.5428 -0.4425
 2584SOL     OW 7988   4.788   2.633   0.401 -0.2755 -0.3070  0.6165
 2584SOL    HW1 7989   4.722   2.700   0.387  0.4388  0.5828  1.3359
 2584SOL    HW2 7990   4.858   2.655   0.338 -0.5656 -1.1199 -0.0034
 2585SOL     OW 7991   6.094   2.054   1.397 -0.2225  0.2910  0.1063
 2585SOL    HW1 7992   6.060   2.085   1.313  1.4886  1.1684 -0.3063
 2585SOL    HW2 7993   6.135   1.969   1.376 -0.1159  0.3390  0.1170
 2586SOL     OW 7994   3.942   1.900   0.531 -0.1384  0.3492 -0.4148
 2586SOL    HW1 7995   3.870   1.871   0.588 -0.3649 -0.0505 -0.8971
 2586SOL    HW2 7996   3.973   1.981   0.571  0.8575 -0.7875  1.3126
 2587SOL     OW 7997   4.383   5.653   1.854  0.1237 -0.2354  0.2363
 2587SOL    HW1 7998   4.342   5.675   1.938  0.9615 -0.2139  0.6472
 2587SOL    HW2 7999   4.467   5.699   1.855  0.7172 -1.2748 -0.0502
 2588SOL     OW 8000   3.589   6.023   3.038  0.0254  0.3980 -0.2948
 2588SOL    HW1 8001   3.621   6.103   3.080 -1.6164 -0.2482  2.4891
 2588SOL    HW2 8002   3.507   6.004   3.083 -0.4657 -2.0006 -1.9915
 2589SOL     OW 8003   4.286   1.371   3.303  0.4271  0.3034 -0.4388
 2589SOL    HW1 8004   4.256   1.319   3.229  1.4303 -0.7728 -0.1231
 2589SOL    HW2 8005   4.280   1.312   3.378  1.3901  0.6888 -0.0381
 2590SOL     OW 8006   5.675   5.634   0.966  0.1550 -0.1569  0.7237
 2590SOL    HW1 8007   5.684   5.617   1.060  2.0959  0.0298  0.6307
 2590SOL    HW2 8008   5.763   5.662   0.939 -0.4326  0.0575 -1.0968
 2591SOL     OW 8009   2.757   5.393   3.154 -0.0640 -0.3407 -0.7471
 2591SOL    HW1 8010   2.751   5.319   3.214 -2.0492  0.1115 -0.3053
 2591SOL    HW2 8011   2.748   5.470   3.211  1.5693  0.2419 -1.2384
 2592SOL     OW 8012   5.062   1.455   2.064 -0.4322 -0.3876  0.7631
 2592SOL    HW1 8013   5.092   1.364   2.067  0.3397 -0.1591  0.2616
 2592SOL    HW2 8014   5.039   1.469   1.972 -0.1922  0.0355  0.7669
 2593SOL     OW 8015   1.876   1.304   5.017 -0.2967  0.0293  0.9706
 2593SOL    HW1 8016   1.886   1.215   4.983  0.7990  0.6868 -0.4883
 2593SOL    HW2 8017   1.958   1.321   5.063  0.2629  0.9107 -0.3021
 2594SOL     OW 8018   1.331   2.979   2.632 -0.4420  0.0913 -0.2152
 2594SOL    HW1 8019   1.407   2.964   2.575 -1.7416 -1.6377 -1.5840
 2594SOL    HW2 8020   1.299   2.892   2.653 -2.5605  0.7711 -0.3892
 2595SOL     OW 8021   4.581   1.652   0.185 -0.2604  0.5437  0.5621
 2595SOL    HW1 8022   4.637   1.684   0.114 -0.7015  0.2830  0.0805
 2595SOL    HW2 8023   4.495   1.689   0.165 -0.5419 -0.0907  0.5707
 2596SOL     OW 8024   5.290   2.466   4.888 -0.3739  0.3899 -0.8595
 2596SOL    HW1 8025   5.334   2.399   4.836 -1.3689 -0.4318 -0.6793
 2596SOL    HW2 8026   5.198   2.463   4.859 -0.6976  0.7622  0.0753
 2597SOL     OW 8027   2.494   4.640   2.822  0.3703 -0.2294 -0.4819
 2597SOL    HW1 8028   2.416   4.635   2.767  0.2041 -2.5816 -0.1263
 2597SOL    HW2 8029   2.484   4.569   2.885  2.1473  0.2958  0.4680
 2598SOL     OW 8030   0.246   5.552   4.203  0.3908  0.2420 -0.0981
 2598SOL    HW1 8031   0.180   5.588   4.262 -0.2734 -0.9704 -0.0587
 2598SOL    HW2 8032   0.209   5.564   4.116  0.7112  0.7249 -0.1690
 2599SOL     OW 8033   0.861   0.921   4.312 -0.2741  0.1819 -0.0939
 2599SOL    HW1 8034   0.844   0.982   4.384  2.1151  0.2019  0.5379
 2599SOL    HW2 8035   0.922   0.858   4.349  2.4663  1.1874 -2.5463
 2600SOL     OW 8036   1.120   4.031   0.612 -0.1440  0.1390  0.2368
 2600SOL    HW1 8037   1.070   4.062   0.687  0.7039 -0.9836  1.2985
 2600SOL    HW2 8038   1.090   3.942   0.597 -0.5904  0.4784 -1.0393
 2601SOL     OW 8039   0.757   3.012   2.702 -0.2957  0.2775  0.4647
 2601SOL    HW1 8040   0.853   3.014   2.700 -0.2765  0.8195  1.4224
 2601SOL    HW2 8041   0.735   2.922   2.677  0.4825  0.0072  0.7027
 2602SOL     OW 8042   4.978   3.228   3.420 -0.7091  0.0241  0.9119
 2602SOL    HW1 8043   5.005   3.299   3.363  0.4236  0.0976  1.4941
 2602SOL    HW2 8044   4.883   3.236   3.427 -0.7519  0.5639 -0.2077
 2603SOL     OW 8045   1.336   0.554   1.814 -0.3517  0.4204  0.0642
 2603SOL    HW1 8046   1.311   0.632   1.766 -0.6128  0.0587 -0.3983
 2603SOL    HW2 8047   1.277   0.552   1.889 -2.0779 -0.6582 -1.2398
 2604SOL     OW 8048   0.272   0.747   2.244  0.5236 -0.0222  0.1252
 2604SOL    HW1 8049   0.272   0.826   2.298 -0.2484  0.7405 -0.9456
 2604SOL    HW2 8050   0.355   0.703   2.266  0.0549  0.0355  2.1940
 2605SOL     OW 8051   3.435   0.720   0.581 -0.2071  0.0685 -0.2657
 2605SOL    HW1 8052   3.498   0.691   0.648  1.9722  1.4257 -1.5833
 2605SOL    HW2 8053   3.368   0.768   0.631 -0.5217 -1.8233  1.2456
 2606SOL     OW 8054   1.782   5.798   3.222  0.3620  0.4347 -0.4194
 2606SOL    HW1 8055   1.761   5.710   3.191  0.0227 -0.1992  1.5000
 2606SOL    HW2 8056   1.872   5.812   3.194  0.9056 -1.1050  0.4450
 2607SOL     OW 8057   4.084   3.739   6.075  0.4060 -0.0061  0.0358
 2607SOL    HW1 8058   4.119   3.823   6.045  0.7003 -0.9029 -2.3032
 2607SOL    HW2 8059   4.108   3.677   6.007 -3.4689 -1.2109 -0.4696
 2608SOL     OW 8060   4.378   0.183   4.301 -0.1801 -0.6029  0.3864
 2608SOL    HW1 8061   4.350   0.110   4.356 -1.7677 -0.4192 -0.1380
 2608SOL    HW2 8062   4.321   0.180   4.225 -0.8569  1.6659  0.7283
 2609SOL     OW 8063   5.526   0.114   3.565  0.2977  0.4758 -0.1334
 2609SOL    HW1 8064   5.532   0.189   3.507  0.9522  0.2938 -0.3042
 2609SOL    HW2 8065   5.460   0.058   3.525 -1.5972  1.7952  0.9649
 2610SOL     OW 8066   2.514   3.578   3.996  0.3881 -0.0347  0.9945
 2610SOL    HW1 8067   2.483   3.504   3.945  1.3056  0.5404 -0.4504
 2610SOL    HW2 8068   2.574   3.539   4.060 -1.6651 -0.9011  2.5235
 2611SOL     OW 8069   6.111   1.896   5.264 -0.4215  0.1317  0.4758
 2611SOL    HW1 8070   6.132   1.981   5.303 -0.6150  1.2445 -1.6450
 2611SOL    HW2 8071   6.016   1.899   5.249 -0.5190 -0.6948  0.8583
 2612SOL     OW 8072   0.259   4.211   4.982  0.8404  0.0607 -0.5495
 2612SOL    HW1 8073   0.184   4.155   5.002  1.4851 -0.5317  0.2681
 2612SOL    HW2 8074   0.239   4.248   4.896  0.2463 -1.1851 -0.9648
 2613SOL     OW 8075   3.339   1.369   3.084 -0.4027 -0.0625 -0.5355
 2613SOL    HW1 8076   3.259   1.336   3.042 -1.2362  3.0481 -1.6280
 2613SOL    HW2 8077   3.307   1.417   3.161  0.7312 -1.2708  0.7555
 2614SOL     OW 8078   2.653   3.015   1.608 -0.0906  0.0236  0.0698
 2614SOL    HW1 8079   2.695   2.929   1.609 -0.0206  0.0503 -0.4541
 2614SOL    HW2 8080   2.722   3.076   1.583 -0.0869  0.2647  0.6580
 2615SOL     OW 8081   3.385   1.519   4.262 -0.7522  0.0098  0.6833
 2615SOL    HW1 8082   3.311   1.523   4.323 -1.2302 -0.8007  0.1773
 2615SOL    HW2 8083   3.461   1.539   4.316 -1.1340 -0.9727  1.6158
 2616SOL     OW 8084   0.656   0.406   4.300 -0.3222 -0.1907  0.2515
 2616SOL    HW1 8085   0.712   0.358   4.240 -0.9638 -0.8938  0.1998
 2616SOL    HW2 8086   0.619   0.339   4.357 -1.5453  0.1937 -0.0721
 2617SOL     OW 8087   0.930   0.676   3.868 -0.2415  0.2269  0.6338
 2617SOL    HW1 8088   0.837   0.699   3.878  0.0971  2.4948 -0.7375
 2617SOL    HW2 8089   0.975   0.733   3.930  0.4229  1.4940 -0.9303
 2618SOL     OW 8090   5.537   5.335   3.779 -0.3032  0.0574  0.3126
 2618SOL    HW1 8091   5.554   5.419   3.822  1.1804  0.7986 -1.5693
 2618SOL    HW2 8092   5.443   5.334   3.762 -0.2802  1.5477  0.0083
 2619SOL     OW 8093   2.897   3.489   0.454  0.2953  0.0908 -0.3707
 2619SOL    HW1 8094   2.909   3.529   0.368  1.3369 -0.4840 -0.5184
 2619SOL    HW2 8095   2.910   3.395   0.438 -0.6735 -0.1535  0.2130
 2620SOL     OW 8096   4.483   4.343   1.794  0.4996  0.2626 -0.5678
 2620SOL    HW1 8097   4.504   4.333   1.702  0.7690  0.0766 -0.4885
 2620SOL    HW2 8098   4.395   4.380   1.795  0.3089 -0.1814 -0.8894
 2621SOL     OW 8099   5.192   0.605   5.018 -0.3368 -0.3615 -0.1281
 2621SOL    HW1 8100   5.127   0.660   4.974 -0.8467  2.2508  3.4517
 2621SOL    HW2 8101   5.151   0.519   5.022 -1.8296  0.2337 -1.3976
 2622SOL     OW 8102   6.003   2.880   0.202  0.4666  0.5519  0.0505
 2622SOL    HW1 8103   5.930   2.921   0.247  0.7951  0.7865  0.3810
 2622SOL    HW2 8104   6.036   2.948   0.143 -2.0382 -0.7358 -3.1364
 2623SOL     OW 8105   1.474   0.046   1.913  0.4784  0.2709 -0.1662
 2623SOL    HW1 8106   1.426  -0.034   1.891 -1.1978  1.5924 -1.5494
 2623SOL    HW2 8107   1.434   0.114   1.859  3.3310  1.6574 -0.7200
 2624SOL     OW 8108   4.859   6.008   3.230 -0.6237 -0.3100  0.7184
 2624SOL    HW1 8109   4.893   6.000   3.141 -1.0552 -0.4027  0.5578
 2624SOL    HW2 8110   4.905   6.084   3.267  0.6734 -1.1857  0.9493
 2625SOL     OW 8111   4.525   5.438   0.342  0.5509 -0.1458 -0.0955
 2625SOL    HW1 8112   4.509   5.367   0.279  0.8066 -0.2081 -0.0943
 2625SOL    HW2 8113   4.438   5.465   0.370  0.4674 -1.0221  0.5377
 2626SOL     OW 8114   2.556   5.146   1.164  0.5996 -0.6592  0.7335
 2626SOL    HW1 8115   2.475   5.107   1.131  0.9471  0.2958 -1.4242
 2626SOL    HW2 8116   2.547   5.142   1.259 -0.5830 -3.4068  0.6240
 2627SOL     OW 8117   5.527   4.279   4.400  0.1599 -0.9375  0.2864
 2627SOL    HW1 8118   5.616   4.312   4.413 -0.5656  0.6644  1.4448
 2627SOL    HW2 8119   5.514   4.282   4.305  0.2563  1.9177  0.2929
 2628SOL     OW 8120   3.816   0.731   4.968 -0.7816  0.0188 -0.0189
 2628SOL    HW1 8121   3.792   0.674   4.895 -1.6794  0.4971 -0.1101
 2628SOL    HW2 8122   3.887   0.785   4.934 -2.0503  1.1344 -0.9985
 2629SOL     OW 8123   0.601   2.631   0.621 -0.1798  0.5736 -0.6479
 2629SOL    HW1 8124   0.681   2.625   0.569  0.4485  0.8593  0.2551
 2629SOL    HW2 8125   0.551   2.552   0.598  0.4525  0.2947 -1.0760
 2630SOL     OW 8126   6.099   4.628   0.062  0.1986 -0.0676  0.0354
 2630SOL    HW1 8127   6.088   4.569  -0.013  1.3304 -1.1073  0.6525
 2630SOL    HW2 8128   6.194   4.642   0.068  0.0138  1.1923  0.3960
 2631SOL     OW 8129   4.824   3.904   4.400 -0.1600 -0.1979 -0.9843
 2631SOL    HW1 8130   4.883   3.926   4.328  0.8936 -1.3479 -0.5224
 2631SOL    HW2 8131   4.880   3.860   4.464 -0.9153  1.4209  0.8945
 2632SOL     OW 8132   2.671   3.766   1.268 -0.2016 -0.7320  0.0793
 2632SOL    HW1 8133   2.660   3.812   1.351  0.6413 -1.2460  0.4880
 2632SOL    HW2 8134   2.766   3.754   1.259 -0.3994 -2.7691  0.2136
 2633SOL     OW 8135   6.136   0.058   5.221  0.1519  0.2666  0.3864
 2633SOL    HW1 8136   6.204  -0.008   5.227  0.4245  0.4467 -0.5739
 2633SOL    HW2 8137   6.057   0.015   5.254  0.6113 -0.1134  0.9949
 2634SOL     OW 8138   5.828   0.139   5.116 -0.5802 -0.5344  0.1346
 2634SOL    HW1 8139   5.848   0.090   5.196 -2.6937 -1.1534  0.3507
 2634SOL    HW2 8140   5.744   0.102   5.086  1.3132 -2.1903 -3.8447
 2635SOL     OW 8141   3.271   0.231   1.800  0.9146 -0.2882  0.5537
 2635SOL    HW1 8142   3.334   0.294   1.835  1.2051 -1.3118  1.9416
 2635SOL    HW2 8143   3.185   0.268   1.823  1.0915 -1.1472  2.8808
 2636SOL     OW 8144   0.129   1.650   1.793  0.1005  0.1607  0.8444
 2636SOL    HW1 8145   0.217   1.689   1.794 -0.5583  1.7737 -0.6914
 2636SOL    HW2 8146   0.103   1.647   1.885  1.6913 -0.2332  1.3138
 2637SOL     OW 8147   0.694   0.294   5.490 -0.1863  0.3517  0.5910
 2637SOL    HW1 8148   0.622   0.304   5.553 -0.3581  1.4273  0.2480
 2637SOL    HW2 8149   0.760   0.357   5.518 -0.2292  0.7870 -0.2457
 2638SOL     OW 8150   3.458   1.335   1.302 -0.5622 -0.0505  0.0113
 2638SOL    HW1 8151   3.537   1.373   1.340  0.2409  1.8215 -3.1001
 2638SOL    HW2 8152   3.485   1.249   1.269 -0.4145 -0.3183  0.8280
 2639SOL     OW 8153   4.127   1.619   3.987  0.0686  0.1183 -0.3934
 2639SOL    HW1 8154   4.051   1.608   3.931 -0.8491 -0.3658  0.9092
 2639SOL    HW2 8155   4.187   1.674   3.936 -0.7654 -0.2213 -1.7833
 2640SOL     OW 8156   0.901   5.175   0.969 -0.0623  0.1686 -0.7805
 2640SOL    HW1 8157   0.810   5.183   0.996  0.2443  0.9406  0.0872
 2640SOL    HW2 8158   0.935   5.264   0.970  0.4092  0.0259 -2.2195
 2641SOL     OW 8159   4.960   5.357   1.548 -0.3189 -0.1927  0.2112
 2641SOL    HW1 8160   4.910   5.291   1.501 -2.5880  1.7882 -0.3413
 2641SOL    HW2 8161   4.907   5.378   1.625 -0.9619  2.6362 -0.8710
 2642SOL     OW 8162   0.740   1.943   2.466 -0.0186 -0.6173 -0.5724
 2642SOL    HW1 8163   0.682   1.920   2.394 -0.2749 -0.1337 -0.5278
 2642SOL    HW2 8164   0.804   1.872   2.470 -0.0875 -0.7141 -1.1837
 2643SOL     OW 8165   1.543   1.757   5.725 -0.1135 -0.3911 -0.0497
 2643SOL    HW1 8166   1.553   1.673   5.768  2.0343 -0.0883  0.1336
 2643SOL    HW2 8167   1.616   1.762   5.663 -2.0435 -0.0296 -2.4823
 2644SOL     OW 8168   2.707   3.099   4.483 -0.3676 -0.5504  0.4905
 2644SOL    HW1 8169   2.725   3.015   4.440  1.4806  0.3416 -0.5975
 2644SOL    HW2 8170   2.703   3.077   4.576  0.6189 -1.7841  0.2716
 2645SOL     OW 8171   0.188   1.254   5.172  0.0485 -0.0331  0.1313
 2645SOL    HW1 8172   0.101   1.292   5.181  0.4785  0.6997  1.5358
 2645SOL    HW2 8173   0.246   1.330   5.169  0.6687 -0.5187 -0.5025
 2646SOL     OW 8174   0.525   0.637   2.300 -0.3358 -0.3319  0.3715
 2646SOL    HW1 8175   0.585   0.667   2.231 -0.3880  0.6177  0.7272
 2646SOL    HW2 8176   0.562   0.553   2.329 -1.5573 -1.9540 -2.3523
 2647SOL     OW 8177   5.861   5.874   2.011 -0.6465  0.3440  0.1678
 2647SOL    HW1 8178   5.876   5.843   1.922  1.1819 -2.5171  1.3340
 2647SOL    HW2 8179   5.774   5.841   2.033 -1.0085  0.8643 -0.4553
 2648SOL     OW 8180   4.819   3.948   1.321 -0.5567 -0.4003  0.4518
 2648SOL    HW1 8181   4.863   3.921   1.241 -0.7115  0.2533  0.1426
 2648SOL    HW2 8182   4.814   4.043   1.315  2.2849  0.0280  2.6839
 2649SOL     OW 8183   1.546   3.429   3.239 -0.0202  0.0788 -0.2803
 2649SOL    HW1 8184   1.593   3.439   3.157 -2.1805 -0.2925 -1.6569
 2649SOL    HW2 8185   1.599   3.368   3.290  1.2965  0.2048 -1.4537
 2650SOL     OW 8186   0.725   1.808   5.022  0.3190  0.0838  0.1545
 2650SOL    HW1 8187   0.769   1.732   5.059 -0.1260 -0.9077 -1.2513
 2650SOL    HW2 8188   0.632   1.785   5.023  0.0573  1.0895  0.7405
 2651SOL     OW 8189   0.145   0.560   0.775 -0.2128 -0.3167  0.1818
 2651SOL    HW1 8190   0.189   0.626   0.829 -1.3406  0.9977 -0.4637
 2651SOL    HW2 8191   0.201   0.551   0.698  0.9942 -1.6317  1.1509
 2652SOL     OW 8192   4.351   0.755   1.296 -0.3470  0.3097 -0.2451
 2652SOL    HW1 8193   4.385   0.823   1.239 -0.8567 -0.3136 -1.3189
 2652SOL    HW2 8194   4.260   0.744   1.269 -0.2623 -0.8309 -0.1348
 2653SOL     OW 8195   2.542   2.407   5.368 -0.0956 -0.5043 -0.7611
 2653SOL    HW1 8196   2.536   2.314   5.345  0.3374 -0.8295  0.3731
 2653SOL    HW2 8197   2.468   2.422   5.426 -1.7837  0.5560 -3.0077
 2654SOL     OW 8198   3.009   0.227   0.637  0.0348  0.4967  0.1402
 2654SOL    HW1 8199   2.924   0.197   0.605  0.9147 -2.0341 -0.0512
 2654SOL    HW2 8200   3.058   0.248   0.557  0.6331 -1.2264  0.0084
 2655SOL     OW 8201   3.137   1.459   0.813 -0.0841  0.1714  0.5392
 2655SOL    HW1 8202   3.085   1.424   0.886  0.1134 -1.0473  0.1321
 2655SOL    HW2 8203   3.199   1.388   0.793  0.8812  1.0920  0.1838
 2656SOL     OW 8204   3.347   0.922   3.149  0.3025  0.3244 -0.4080
 2656SOL    HW1 8205   3.387   0.980   3.214 -1.0134  0.6480  0.1302
 2656SOL    HW2 8206   3.402   0.932   3.072  2.0359 -0.2214  0.6725
 2657SOL     OW 8207   1.469   1.996   5.850 -0.1454 -0.1011  0.3819
 2657SOL    HW1 8208   1.379   1.983   5.880 -0.7596  0.6631 -1.0242
 2657SOL    HW2 8209   1.491   1.916   5.802  0.0972 -0.4784  1.1178
 2658SOL     OW 8210   3.964   5.776   5.356 -0.0326 -0.5804 -0.1731
 2658SOL    HW1 8211   4.009   5.782   5.272  0.8718  1.7295  0.3881
 2658SOL    HW2 8212   4.015   5.714   5.407  2.0679  1.2554  0.1109
 2659SOL     OW 8213   6.081   4.030   4.005 -0.1007  0.2994 -0.1425
 2659SOL    HW1 8214   6.149   3.963   4.013 -0.2018  0.2273  0.1404
 2659SOL    HW2 8215   6.126   4.112   4.024  0.4925  0.5798 -2.4949
 2660SOL     OW 8216   0.941   2.548   1.395 -0.2268 -0.1474  0.1153
 2660SOL    HW1 8217   1.020   2.536   1.447  0.5612  0.8097 -0.8226
 2660SOL    HW2 8218   0.872   2.562   1.459  0.5772  0.1880  0.9220
 2661SOL     OW 8219   1.108   2.164   0.532 -0.3478  0.5304 -0.1400
 2661SOL    HW1 8220   1.181   2.209   0.489  0.5447 -0.6118  0.1247
 2661SOL    HW2 8221   1.039   2.230   0.537  0.5373  1.5387 -0.7197
 2662SOL     OW 8222   5.698   3.944   0.067  0.5035 -0.1389 -0.1343
 2662SOL    HW1 8223   5.794   3.942   0.068  0.6237 -3.7584 -1.6724
 2662SOL    HW2 8224   5.673   3.908   0.152  0.5473 -0.1775 -0.1378
 2663SOL     OW 8225   0.221   2.042   1.169  0.2475  0.0375 -0.2674
 2663SOL    HW1 8226   0.148   1.987   1.140  0.5617  0.0839 -1.2027
 2663SOL    HW2 8227   0.186   2.093   1.242 -0.4326 -0.4638 -0.2303
 2664SOL     OW 8228   3.169   0.284   0.440 -0.2987 -0.2206 -0.5192
 2664SOL    HW1 8229   3.208   0.203   0.408 -1.6664 -0.7996 -0.7648
 2664SOL    HW2 8230   3.238   0.350   0.427  1.0760 -1.4355  0.2943
 2665SOL     OW 8231   5.361   4.553   4.396  0.7492 -0.3938  0.3127
 2665SOL    HW1 8232   5.313   4.586   4.472 -2.1300 -1.7005 -0.7710
 2665SOL    HW2 8233   5.387   4.464   4.421  0.3002 -0.6204 -0.0192
 2666SOL     OW 8234   4.504   5.239   0.096  0.4276  0.3529 -0.4330
 2666SOL    HW1 8235   4.544   5.303   0.037 -0.7839 -0.1760 -1.8991
 2666SOL    HW2 8236   4.412   5.235   0.068 -0.1079 -0.1429  1.3122
 2667SOL     OW 8237   5.569   6.034   0.688  0.7417  0.0341 -0.5027
 2667SOL    HW1 8238   5.538   5.953   0.729  0.0371 -0.6985 -2.3763
 2667SOL    HW2 8239   5.518   6.103   0.729 -0.1905 -0.7116 -0.3676
 2668SOL     OW 8240   5.931   5.967   4.411 -0.2569  0.0534 -0.1595
 2668SOL    HW1 8241   5.973   5.984   4.496 -0.5495  1.6893 -0.3088
 2668SOL    HW2 8242   5.959   6.041   4.356 -1.8009  0.1654 -0.8254
 2669SOL     OW 8243   0.430   0.764   1.054 -0.7608  0.2071  0.1572
 2669SOL    HW1 8244   0.382   0.683   1.068 -0.6762  0.0771 -0.2800
 2669SOL    HW2 8245   0.518   0.746   1.089 -0.9049  0.3033  0.5726
 2670SOL     OW 8246   4.573   5.545   3.952 -0.0835 -0.5277 -0.2719
 2670SOL    HW1 8247   4.507   5.614   3.949  0.6099  0.2222  0.7369
 2670SOL    HW2 8248   4.603   5.545   4.043 -0.1922 -2.3048 -0.2100
 2671SOL     OW 8249   3.471   0.232   3.052 -0.2738  0.0337 -0.3472
 2671SOL    HW1 8250   3.531   0.190   3.113 -1.8401  0.0719  1.2804
 2671SOL    HW2 8251   3.455   0.318   3.089 -1.0617  0.1517 -0.9318
 2672SOL     OW 8252   0.017   5.805   5.975  1.1371  0.8114 -0.1074
 2672SOL    HW1 8253   0.097   5.828   5.928  0.1933  1.1690 -1.6104
 2672SOL    HW2 8254  -0.037   5.761   5.910  0.1532  0.4667  0.9140
 2673SOL     OW 8255   0.962   4.454   6.027 -0.6110 -0.1309  0.2705
 2673SOL    HW1 8256   1.002   4.375   6.062 -1.2088  0.0294  1.3346
 2673SOL    HW2 8257   1.018   4.478   5.953  0.7561 -0.3936  1.1904
 2674SOL     OW 8258   1.673   0.508   3.982 -0.3182  0.3014 -0.2839
 2674SOL    HW1 8259   1.666   0.417   4.011 -0.1303 -1.2648 -4.4602
 2674SOL    HW2 8260   1.766   0.527   3.986 -0.4682  0.9409  1.8825
 2675SOL     OW 8261   0.039   3.405   4.283  0.2812 -0.3165  0.5068
 2675SOL    HW1 8262  -0.043   3.396   4.234  0.2697  1.1567  0.1815
 2675SOL    HW2 8263   0.103   3.356   4.231  0.0488  0.3552 -0.4566
 2676SOL     OW 8264   6.131   2.182   5.306  0.0700  0.4952 -0.1622
 2676SOL    HW1 8265   6.052   2.233   5.287 -0.0573  0.4588  0.2603
 2676SOL    HW2 8266   6.178   2.179   5.222 -0.1128  0.9714 -0.2864
 2677SOL     OW 8267   0.627   2.051   3.720 -0.2264 -0.7611  0.4572
 2677SOL    HW1 8268   0.534   2.073   3.708 -0.0405  0.1060  0.5455
 2677SOL    HW2 8269   0.639   1.970   3.670 -0.7348 -0.1821 -0.6378
 2678SOL     OW 8270   0.987   3.179   4.890 -0.3030 -0.0246  0.1552
 2678SOL    HW1 8271   1.052   3.177   4.820 -1.8249  0.3426 -1.3258
 2678SOL    HW2 8272   0.961   3.088   4.902 -1.9537  0.1305 -1.6964
 2679SOL     OW 8273   3.520   3.296   1.608  0.4524  0.5870  0.0400
 2679SOL    HW1 8274   3.448   3.249   1.566  1.4151  0.8537 -2.0595
 2679SOL    HW2 8275   3.565   3.229   1.659 -1.8351  0.6352  2.3244
 2680SOL     OW 8276   4.417   2.899   5.183 -0.8380 -0.2835 -0.4825
 2680SOL    HW1 8277   4.333   2.872   5.220 -1.1794  2.7051  1.2777
 2680SOL    HW2 8278   4.397   2.975   5.129  0.7698  1.1031  0.7583
 2681SOL     OW 8279   4.977   3.820   5.073 -0.1140 -0.3079 -0.5441
 2681SOL    HW1 8280   5.072   3.824   5.067 -0.2527  1.7077 -3.4455
 2681SOL    HW2 8281   4.960   3.743   5.128  3.1443 -1.0002 -0.2837
 2682SOL     OW 8282   3.297   5.969   0.874  0.1000  0.4193 -0.2529
 2682SOL    HW1 8283   3.326   6.021   0.799  0.1427  1.3818  0.4113
 2682SOL    HW2 8284   3.285   6.033   0.945 -0.1473 -0.4363  0.5032
 2683SOL     OW 8285   2.665   2.177   3.759  0.1524 -0.4791  0.2283
 2683SOL    HW1 8286   2.699   2.175   3.669 -3.1181  0.6920 -1.1757
 2683SOL    HW2 8287   2.580   2.221   3.752  0.3025  0.8321  4.1234
 2684SOL     OW 8288   3.619   1.805   2.924 -0.0753  0.1598 -0.6034
 2684SOL    HW1 8289   3.550   1.814   2.859 -0.5615 -1.9426 -0.4511
 2684SOL    HW2 8290   3.638   1.895   2.952 -0.6766  1.0219 -2.7471
 2685SOL     OW 8291   2.326   2.482   0.322  0.2697 -0.2311 -0.2909
 2685SOL    HW1 8292   2.273   2.485   0.401  1.1354 -1.0441  0.3450
 2685SOL    HW2 8293   2.270   2.520   0.254 -0.9993 -0.7701  0.4187
 2686SOL     OW 8294   3.872   0.084   4.808 -0.3739 -0.1042  0.1360
 2686SOL    HW1 8295   3.870   0.176   4.836  1.3303  0.1420 -0.4368
 2686SOL    HW2 8296   3.785   0.068   4.772 -1.1422  0.8763  1.4749
 2687SOL     OW 8297   3.956   4.534   5.352  0.2986 -0.0193 -0.2653
 2687SOL    HW1 8298   4.037   4.576   5.322  1.6059 -1.4966  1.0188
 2687SOL    HW2 8299   3.973   4.440   5.344 -0.6339 -0.3991  1.5731
 2688SOL     OW 8300   1.892   1.051   4.920 -0.3307  0.4176 -0.2457
 2688SOL    HW1 8301   1.815   1.066   4.865 -0.9711 -1.0424  0.2012
 2688SOL    HW2 8302   1.864   0.984   4.982  0.9940  0.6119  0.5933
 2689SOL     OW 8303   3.295   2.871   6.117  0.2026  0.0184  0.7883
 2689SOL    HW1 8304   3.222   2.919   6.156  0.4208 -1.2101  2.8324
 2689SOL    HW2 8305   3.360   2.865   6.187 -0.0725 -3.7476  0.8886
 2690SOL     OW 8306   3.100   1.199   5.385  0.1858  0.2191 -0.5050
 2690SOL    HW1 8307   3.140   1.111   5.380 -1.7458 -0.7506  0.1276
 2690SOL    HW2 8308   3.116   1.236   5.298  0.2118 -1.1571 -1.1279
 2691SOL     OW 8309   0.840   4.855   1.694  0.1204  0.8205  0.3934
 2691SOL    HW1 8310   0.902   4.788   1.722  0.1009  0.7007  0.1583
 2691SOL    HW2 8311   0.830   4.839   1.600  1.5889  2.3532 -0.0660
 2692SOL     OW 8312   1.525   5.805   3.978  0.3494  0.0007  0.0106
 2692SOL    HW1 8313   1.511   5.873   4.044  1.2339  0.7499 -0.5448
 2692SOL    HW2 8314   1.620   5.790   3.980  0.5258  0.7249 -1.7467
 2693SOL     OW 8315   5.896   2.401   4.133  0.3146  0.5071 -0.1569
 2693SOL    HW1 8316   5.965   2.452   4.176 -0.5609  1.8699 -0.2892
 2693SOL    HW2 8317   5.885   2.444   4.048  0.8008 -1.0641 -1.0427
 2694SOL     OW 8318   2.525   5.458   4.220  0.0616 -0.2778 -0.4315
 2694SOL    HW1 8319   2.509   5.369   4.187  0.1121 -1.0104  1.4306
 2694SOL    HW2 8320   2.591   5.447   4.288 -0.5190  1.0856  0.3771
 2695SOL     OW 8321   0.144   1.889   0.544 -0.5154 -0.5427 -0.1783
 2695SOL    HW1 8322   0.239   1.890   0.535 -0.6807  0.4422 -2.4084
 2695SOL    HW2 8323   0.113   1.959   0.487 -2.5105  0.6418  2.1352
 2696SOL     OW 8324   5.454   3.671   3.923 -0.3291  0.0333  0.3121
 2696SOL    HW1 8325   5.479   3.583   3.951 -3.7971 -0.8955  0.9065
 2696SOL    HW2 8326   5.507   3.729   3.978 -0.2470 -1.7218  2.2167
 2697SOL     OW 8327   2.436   1.575   5.961 -0.1909 -0.0390  0.0262
 2697SOL    HW1 8328   2.463   1.518   5.889 -2.6206  0.2164 -1.1825
 2697SOL    HW2 8329   2.448   1.664   5.927 -1.2385  0.0816 -0.0806
 2698SOL     OW 8330   2.963   2.215   1.906 -0.1487 -0.2234 -0.0577
 2698SOL    HW1 8331   2.993   2.130   1.940  1.3154  1.2141  2.6368
 2698SOL    HW2 8332   2.868   2.207   1.901  0.0241 -2.3508 -0.9640
 2699SOL     OW 8333   3.077   0.641   5.818 -0.2266 -0.8783  0.4845
 2699SOL    HW1 8334   3.139   0.595   5.760  2.6421  1.4884  1.4676
 2699SOL    HW2 8335   3.062   0.579   5.890  0.3436 -1.8069 -0.1628
 2700SOL     OW 8336   1.553   4.893   3.215 -0.0951 -0.5614  0.1103
 2700SOL    HW1 8337   1.518   4.906   3.127  0.5155  0.9665  0.0558
 2700SOL    HW2 8338   1.641   4.858   3.200  0.5215  0.9483  0.0339
 2701SOL     OW 8339   3.710   2.272   5.169  0.1065 -0.1575 -0.4530
 2701SOL    HW1 8340   3.696   2.251   5.262 -1.5413 -0.7894 -0.8074
 2701SOL    HW2 8341   3.804   2.261   5.156  0.0149 -2.8099  0.5395
 2702SOL     OW 8342   3.229   5.861   3.846  0.2038 -0.7005 -0.4104
 2702SOL    HW1 8343   3.157   5.917   3.816 -0.8740 -0.5353  2.2200
 2702SOL    HW2 8344   3.282   5.918   3.902  1.3258 -1.3398 -0.7856
 2703SOL     OW 8345   0.334   2.914   5.662  0.0693  0.2182 -0.0189
 2703SOL    HW1 8346   0.250   2.872   5.682  0.7325 -1.1664  0.0071
 2703SOL    HW2 8347   0.398   2.863   5.711  0.9165  1.3822  0.1251
 2704SOL     OW 8348   1.807   3.751   1.471  0.2740  0.9188 -0.4891
 2704SOL    HW1 8349   1.761   3.671   1.496 -1.8479  2.0461 -0.5739
 2704SOL    HW2 8350   1.892   3.745   1.515  0.1638 -1.3475 -0.4974
 2705SOL     OW 8351   5.487   0.919   3.024  0.9888 -0.0218  0.4086
 2705SOL    HW1 8352   5.424   0.875   3.081 -0.2030  0.3433 -0.5803
 2705SOL    HW2 8353   5.573   0.897   3.061  0.3814 -2.0710  0.7123
 2706SOL     OW 8354   4.432   3.541   0.063 -0.1353 -0.1859  0.2572
 2706SOL    HW1 8355   4.382   3.568   0.140 -1.1766 -0.4935 -0.3005
 2706SOL    HW2 8356   4.452   3.449   0.079 -1.7535 -0.7154 -0.5417
 2707SOL     OW 8357   5.777   4.625   3.531 -0.0295 -0.2484 -0.1093
 2707SOL    HW1 8358   5.757   4.718   3.545  0.8588 -0.1133  0.3362
 2707SOL    HW2 8359   5.707   4.579   3.578 -0.6886  0.1813 -0.6400
 2708SOL     OW 8360   3.643   2.202   5.427 -0.0237  0.2283 -0.5724
 2708SOL    HW1 8361   3.718   2.145   5.443  1.8389  2.1540 -1.9101
 2708SOL    HW2 8362   3.584   2.150   5.372  1.3948 -0.5667 -1.3789
 2709SOL     OW 8363   5.945   0.169   2.621  0.2599 -0.3658  0.0532
 2709SOL    HW1 8364   5.913   0.086   2.657  0.7993 -0.1751  1.0094
 2709SOL    HW2 8365   5.923   0.165   2.528 -0.2258 -1.3370  0.1968
 2710SOL     OW 8366   1.493   1.616   4.262 -0.6218  0.4248  0.5209
 2710SOL    HW1 8367   1.557   1.594   4.330  0.2006  2.2365  0.3795
 2710SOL    HW2 8368   1.533   1.688   4.214 -1.4643 -0.3943 -1.5218
 2711SOL     OW 8369   4.488   3.159   3.047  0.5320 -0.4231 -0.2188
 2711SOL    HW1 8370   4.415   3.209   3.010 -0.1922 -1.0330  0.3385
 2711SOL    HW2 8371   4.556   3.162   2.980 -0.2554 -0.3914 -1.0297
 2712SOL     OW 8372   2.591   2.937   6.142  0.1293  0.4873 -0.4593
 2712SOL    HW1 8373   2.668   2.984   6.173 -0.2935 -0.0133  1.4788
 2712SOL    HW2 8374   2.547   2.908   6.221 -0.5574 -1.6880 -1.5609
 2713SOL     OW 8375   4.943   4.702   5.996  0.0155 -0.1214  0.4048
 2713SOL    HW1 8376   5.008   4.638   5.967  2.3084  2.2939 -0.1199
 2713SOL    HW2 8377   4.878   4.703   5.926 -0.5107 -2.3141  0.7683
 2714SOL     OW 8378   4.373   1.692   1.186  0.3471  1.2765 -0.0793
 2714SOL    HW1 8379   4.336   1.778   1.207  0.5880  1.7260 -1.3792
 2714SOL    HW2 8380   4.352   1.680   1.094 -2.0938 -1.3045  0.6718
 2715SOL     OW 8381   1.777   0.210   1.429 -0.0662 -0.4511  0.7906
 2715SOL    HW1 8382   1.783   0.304   1.444  1.0029 -0.3284 -0.2441
 2715SOL    HW2 8383   1.751   0.174   1.514  1.1344  0.6133  1.6482
 2716SOL     OW 8384   5.789   3.691   1.493 -0.2750 -0.1495 -0.2758
 2716SOL    HW1 8385   5.829   3.632   1.428  1.8578  0.1593  0.6485
 2716SOL    HW2 8386   5.695   3.680   1.482  0.0517 -1.6384 -2.0085
 2717SOL     OW 8387   3.338   1.778   6.013  0.1141  0.2393  0.1765
 2717SOL    HW1 8388   3.317   1.798   5.922 -0.4955 -1.9400 -0.2102
 2717SOL    HW2 8389   3.296   1.848   6.064 -0.8968  0.5874 -1.0998
 2718SOL     OW 8390   1.075   2.168   2.368  0.2393 -0.0034 -0.0074
 2718SOL    HW1 8391   1.086   2.242   2.309 -0.8267 -0.3726 -0.7049
 2718SOL    HW2 8392   1.069   2.091   2.311  1.1349 -0.6172  0.6901
 2719SOL     OW 8393   1.598   2.374   5.616 -0.1650  0.0708 -0.1451
 2719SOL    HW1 8394   1.671   2.330   5.660  0.1774  0.0566 -0.7154
 2719SOL    HW2 8395   1.542   2.302   5.587 -0.3476  0.0762  0.1925
 2720SOL     OW 8396   5.893   2.442   0.054  0.1495  0.0195  0.0907
 2720SOL    HW1 8397   5.937   2.464  -0.028  0.6536 -0.4546  0.2257
 2720SOL    HW2 8398   5.824   2.381   0.029  0.6177 -0.5066  0.0789
 2721SOL     OW 8399   4.474   4.769   0.424  0.1065  0.3079 -0.3695
 2721SOL    HW1 8400   4.520   4.773   0.508 -0.3893  0.4882 -0.1007
 2721SOL    HW2 8401   4.542   4.749   0.360  0.1736 -2.3084  0.3695
 2722SOL     OW 8402   5.861   0.400   0.397 -1.1001 -0.2033  0.1764
 2722SOL    HW1 8403   5.870   0.311   0.429 -1.0995  0.0345  0.8666
 2722SOL    HW2 8404   5.947   0.440   0.411 -1.8184  0.7110  2.4967
 2723SOL     OW 8405   5.355   4.610   3.868  0.4228  0.1967  0.4429
 2723SOL    HW1 8406   5.290   4.545   3.894 -1.5802  1.5481 -0.8772
 2723SOL    HW2 8407   5.332   4.688   3.918  0.8003  0.8018 -0.3079
 2724SOL     OW 8408   0.459   5.030   5.155  0.2622  0.1339 -0.0301
 2724SOL    HW1 8409   0.386   5.082   5.122 -1.5649 -2.4573 -0.4394
 2724SOL    HW2 8410   0.450   5.035   5.250 -0.8134 -0.5358 -0.0739
 2725SOL     OW 8411   0.864   3.004   0.032  0.2482 -0.2932  0.5602
 2725SOL    HW1 8412   0.935   3.003   0.096  1.0636 -0.3801 -0.3342
 2725SOL    HW2 8413   0.884   3.079  -0.025 -0.1612 -0.5578  0.0604
 2726SOL     OW 8414   5.981   5.874   1.216 -0.6443  0.0731  0.1817
 2726SOL    HW1 8415   5.938   5.790   1.200 -0.6217  0.2789 -1.0274
 2726SOL    HW2 8416   6.069   5.864   1.181 -1.5116  1.4915 -2.7581
 2727SOL     OW 8417   2.977   3.757   2.574 -0.4574  0.4264  0.0745
 2727SOL    HW1 8418   3.072   3.760   2.589 -0.5859  0.0421  1.0411
 2727SOL    HW2 8419   2.939   3.792   2.655 -1.1600 -0.2303  0.0375
 2728SOL     OW 8420   5.564   2.190   2.371  0.1139 -0.2646  0.4865
 2728SOL    HW1 8421   5.647   2.197   2.418  0.4549  2.1407 -0.3147
 2728SOL    HW2 8422   5.511   2.129   2.422  1.0765  0.9197  3.0357
 2729SOL     OW 8423   6.042   4.506   5.331 -0.3164  0.5112 -0.4413
 2729SOL    HW1 8424   5.983   4.484   5.404 -2.7956  3.3735 -1.4125
 2729SOL    HW2 8425   5.994   4.479   5.253  1.4934 -0.7380 -1.2070
 2730SOL     OW 8426   1.397   5.514   2.055  0.3995  0.1867 -0.4292
 2730SOL    HW1 8427   1.462   5.494   1.987  1.9231 -0.6817  1.2067
 2730SOL    HW2 8428   1.338   5.439   2.055  0.9134 -0.2221 -0.2239
 2731SOL     OW 8429   1.342   0.427   3.496  0.6204  0.1582 -0.1057
 2731SOL    HW1 8430   1.331   0.488   3.424  3.1818  2.6184  1.4188
 2731SOL    HW2 8431   1.430   0.391   3.485 -0.0012 -1.6391  0.2938
 2732SOL     OW 8432   2.704   5.123   3.131  0.1815 -0.1900  0.1091
 2732SOL    HW1 8433   2.642   5.173   3.079  0.4689  0.2579  0.1907
 2732SOL    HW2 8434   2.652   5.053   3.170  0.0220 -0.7467 -1.0525
 2733SOL     OW 8435   1.793   1.466   3.224 -0.2643 -0.3976 -0.0561
 2733SOL    HW1 8436   1.834   1.400   3.279  1.1707 -1.4762 -2.2570
 2733SOL    HW2 8437   1.858   1.535   3.216 -1.6313  1.2306  1.9612
 2734SOL     OW 8438   0.156   3.494   4.551 -0.4771  0.1161 -0.3450
 2734SOL    HW1 8439   0.241   3.451   4.547 -0.4923  0.1556 -1.7142
 2734SOL    HW2 8440   0.124   3.491   4.461 -1.0687  1.8055 -0.2209
 2735SOL     OW 8441   1.841   0.201   3.536  0.1307  0.1243  0.0771
 2735SOL    HW1 8442   1.824   0.112   3.569 -1.7722  0.1930 -0.6516
 2735SOL    HW2 8443   1.911   0.234   3.594 -1.0581 -0.8123  2.1687
 2736SOL     OW 8444   3.098   0.741   1.110  0.5634  0.0175  0.3992
 2736SOL    HW1 8445   3.150   0.799   1.165 -1.8250  0.0340  2.9067
 2736SOL    HW2 8446   3.011   0.781   1.109  0.2087 -0.5629 -2.6566
 2737SOL     OW 8447   3.244   0.128   1.085  0.6897 -0.5672  0.0687
 2737SOL    HW1 8448   3.319   0.171   1.125  1.9154 -0.7393 -1.9337
 2737SOL    HW2 8449   3.230   0.050   1.139  1.0236  0.1989  1.2959
 2738SOL     OW 8450   5.238   4.584   0.258 -0.5535  0.5537 -0.1629
 2738SOL    HW1 8451   5.308   4.607   0.319 -0.4193  0.8527 -0.4259
 2738SOL    HW2 8452   5.268   4.503   0.217  0.5746  1.6581 -1.6781
 2739SOL     OW 8453   1.546   1.702   0.008  0.0446  0.7927 -0.8726
 2739SOL    HW1 8454   1.506   1.787   0.028 -1.4187  0.3382 -1.6550
 2739SOL    HW2 8455   1.625   1.724  -0.040  0.1172  1.7271 -0.3548
 2740SOL     OW 8456   0.327   1.216   4.145 -0.1772  0.0939 -0.6552
 2740SOL    HW1 8457   0.235   1.201   4.166 -0.1821  1.6861  0.6280
 2740SOL    HW2 8458   0.329   1.304   4.107  0.7627 -0.1338 -1.1619
 2741SOL     OW 8459   2.599   4.914   0.762 -0.6258 -0.2731  0.5542
 2741SOL    HW1 8460   2.532   4.856   0.726 -0.0424 -0.1011 -0.8443
 2741SOL    HW2 8461   2.630   4.966   0.688  0.5720  0.1324  1.3000
 2742SOL     OW 8462   3.393   5.454   3.011 -0.6400 -0.7105 -0.5788
 2742SOL    HW1 8463   3.329   5.430   3.078 -1.1447 -1.1130 -1.1934
 2742SOL    HW2 8464   3.377   5.547   2.994 -1.4625 -0.9378 -1.1331
 2743SOL     OW 8465   1.563   1.207   3.683  0.2191  0.2506  0.1032
 2743SOL    HW1 8466   1.569   1.139   3.750  0.1482 -0.9582 -1.0831
 2743SOL    HW2 8467   1.521   1.164   3.608  2.4721  0.8436 -1.6237
 2744SOL     OW 8468   0.780   5.347   0.732 -0.3994 -0.1003  0.4396
 2744SOL    HW1 8469   0.873   5.329   0.720 -0.5360 -0.6084  0.1280
 2744SOL    HW2 8470   0.736   5.267   0.705 -0.8905 -0.1445  1.3324
 2745SOL     OW 8471   0.945   2.551   2.313 -0.4775  0.1100  0.8650
 2745SOL    HW1 8472   1.006   2.623   2.298 -1.7956  0.9815 -0.7228
 2745SOL    HW2 8473   0.982   2.477   2.264 -0.7320  0.6796 -0.2285
 2746SOL     OW 8474   4.307   0.696   4.683  0.4079 -0.2687 -0.5164
 2746SOL    HW1 8475   4.273   0.609   4.662  1.1753 -0.6379 -0.2522
 2746SOL    HW2 8476   4.345   0.687   4.770 -2.7999  1.2609  1.1818
 2747SOL     OW 8477   2.322   6.098   0.227  0.4349 -0.5655  0.7974
 2747SOL    HW1 8478   2.256   6.134   0.286  1.5411 -0.3592  1.9371
 2747SOL    HW2 8479   2.271   6.045   0.165 -1.2365  2.6093 -0.7738
 2748SOL     OW 8480   1.173   3.355   2.018  0.1943 -0.3162 -0.3601
 2748SOL    HW1 8481   1.258   3.397   2.023  0.3963 -0.8169  0.5646
 2748SOL    HW2 8482   1.131   3.395   1.941 -0.3748  2.8995  1.4537
 2749SOL     OW 8483   2.343   4.796   4.462 -0.3006  0.1220 -0.1605
 2749SOL    HW1 8484   2.271   4.856   4.443 -0.4900 -0.1900 -0.4269
 2749SOL    HW2 8485   2.391   4.790   4.379 -1.1350 -1.2512 -0.5674
 2750SOL     OW 8486   0.092   1.225   2.761  0.1360  0.3866  0.2253
 2750SOL    HW1 8487   0.133   1.290   2.704 -0.4638 -1.5185 -2.6178
 2750SOL    HW2 8488  -0.002   1.241   2.751 -0.0528 -1.1986 -1.0553
 2751SOL     OW 8489   5.816   5.715   2.756 -0.1259 -0.8269  0.3238
 2751SOL    HW1 8490   5.792   5.761   2.675 -0.9271  0.7649  1.4073
 2751SOL    HW2 8491   5.732   5.686   2.792  0.1295 -0.6411  1.0832
 2752SOL     OW 8492   3.651   3.939   1.911  0.0222  0.5909 -0.7640
 2752SOL    HW1 8493   3.692   3.862   1.950 -0.6375 -0.1266 -1.4425
 2752SOL    HW2 8494   3.705   3.958   1.834  0.6404  1.2970 -0.1722
 2753SOL     OW 8495   5.964   2.834   5.292  0.1838 -0.5322 -0.1563
 2753SOL    HW1 8496   5.988   2.834   5.384 -1.8958 -0.8018  0.4308
 2753SOL    HW2 8497   6.037   2.878   5.248  0.7517  0.5181  1.7403
 2754SOL     OW 8498   0.967   4.288   1.465 -0.6065 -0.7214 -0.4849
 2754SOL    HW1 8499   0.948   4.203   1.426 -0.8951 -0.8414 -0.0960
 2754SOL    HW2 8500   0.920   4.351   1.410  0.0306 -0.7526 -1.0833
 2755SOL     OW 8501   0.968   0.116   5.472  0.8178  0.0488 -0.4898
 2755SOL    HW1 8502   1.015   0.033   5.483  2.8673  1.0743 -1.0517
 2755SOL    HW2 8503   0.969   0.132   5.378 -2.0552 -0.5877 -0.7324
 2756SOL     OW 8504   3.828   3.957   5.103  0.0683  0.0883 -0.4431
 2756SOL    HW1 8505   3.767   4.028   5.126  0.1921 -0.0924  0.4750
 2756SOL    HW2 8506   3.787   3.915   5.027 -0.4100  0.6399 -0.5024
 2757SOL     OW 8507   2.484   5.853   4.658 -0.1847  0.1094  0.2926
 2757SOL    HW1 8508   2.509   5.834   4.568 -0.6349 -1.0200  0.3914
 2757SOL    HW2 8509   2.563   5.835   4.709 -0.0980  0.1913  0.1869
 2758SOL     OW 8510   4.232   4.166   1.281 -0.0923  0.1114  0.4516
 2758SOL    HW1 8511   4.293   4.230   1.319  0.6256  0.3100 -0.9292
 2758SOL    HW2 8512   4.254   4.084   1.324  1.5289  0.0823 -0.3305
 2759SOL     OW 8513   4.494   2.243   0.091  0.4781  0.0450  0.5368
 2759SOL    HW1 8514   4.583   2.207   0.083  0.6060  0.3950  0.3565
 2759SOL    HW2 8515   4.482   2.293   0.011  0.6067  1.0694  1.1402
 2760SOL     OW 8516   2.309   0.524   4.480  0.1962 -0.0606 -0.2563
 2760SOL    HW1 8517   2.250   0.546   4.408  0.0445  1.7500  0.3834
 2760SOL    HW2 8518   2.383   0.480   4.438 -1.1859 -1.6176 -1.1598
 2761SOL     OW 8519   4.033   1.395   2.165  0.5448 -0.7947  0.2162
 2761SOL    HW1 8520   4.126   1.392   2.185  0.1978 -0.2031  2.0891
 2761SOL    HW2 8521   3.998   1.314   2.201 -0.1408  0.4315  2.5171
 2762SOL     OW 8522   3.883   3.627   3.390  0.2512  0.3086  0.3067
 2762SOL    HW1 8523   3.962   3.587   3.353 -0.3781 -0.5820 -0.1160
 2762SOL    HW2 8524   3.813   3.599   3.331 -0.6682 -0.5041  1.7338
 2763SOL     OW 8525   4.883   1.901   3.865  0.2733  0.1452 -0.0705
 2763SOL    HW1 8526   4.838   1.956   3.800 -1.6607 -0.1720  0.9391
 2763SOL    HW2 8527   4.891   1.816   3.823 -0.8349 -0.0183  0.0430
 2764SOL     OW 8528   4.648   5.059   0.846 -0.4463  0.6025 -0.5690
 2764SOL    HW1 8529   4.569   5.039   0.795 -1.3358 -0.8540  1.2165
 2764SOL    HW2 8530   4.638   5.150   0.872 -0.9997  0.7487 -1.2694
 2765SOL     OW 8531   0.433   0.603   2.548 -0.5663 -0.1600 -0.3580
 2765SOL    HW1 8532   0.452   0.618   2.455  1.4299  0.5675  0.1007
 2765SOL    HW2 8533   0.410   0.511   2.553  0.6210 -0.5450 -1.4136
 2766SOL     OW 8534   5.383   5.480   5.155  0.2129  0.3328 -0.1566
 2766SOL    HW1 8535   5.475   5.506   5.150 -0.0967  1.4709 -0.3265
 2766SOL    HW2 8536   5.381   5.392   5.118  1.4165 -0.2266  1.0393
 2767SOL     OW 8537   0.538   2.450   4.727  0.2869  0.6473 -0.0892
 2767SOL    HW1 8538   0.619   2.421   4.685  1.8124  2.3623  1.4749
 2767SOL    HW2 8539   0.541   2.412   4.815  0.4724  2.3528  0.6848
 2768SOL     OW 8540   5.286   2.282   4.492 -0.5459  0.3317  0.5554
 2768SOL    HW1 8541   5.351   2.262   4.425 -1.2701 -1.8158  0.4250
 2768SOL    HW2 8542   5.283   2.378   4.494  1.3983  0.4735 -0.5819
 2769SOL     OW 8543   3.531   0.732   1.135  0.4275  0.0256 -0.5894
 2769SOL    HW1 8544   3.463   0.714   1.199 -0.4020  0.0432 -1.4392
 2769SOL    HW2 8545   3.613   0.728   1.184  0.1395 -3.4258 -0.1701
 2770SOL     OW 8546   0.220   2.852   4.940 -0.3858 -0.4126  0.2950
 2770SOL    HW1 8547   0.270   2.927   4.973  0.0689 -0.1472 -0.9493
 2770SOL    HW2 8548   0.285   2.783   4.929 -0.6385 -0.6878  0.5021
 2771SOL     OW 8549   0.205   3.143   1.475 -0.6176 -0.0479  0.2641
 2771SOL    HW1 8550   0.200   3.162   1.381 -1.1600  1.4460  0.5764
 2771SOL    HW2 8551   0.152   3.064   1.486  1.3169 -1.6324 -1.0047
 2772SOL     OW 8552   3.580   4.839   4.544  0.2121  0.6298 -0.2101
 2772SOL    HW1 8553   3.540   4.795   4.469 -0.8900  1.1263  0.0708
 2772SOL    HW2 8554   3.646   4.777   4.575  0.4201  0.2460 -1.3387
 2773SOL     OW 8555   1.478   2.084   5.517  0.3771 -0.3996 -0.5288
 2773SOL    HW1 8556   1.426   2.099   5.438 -0.5778  2.2030  0.4893
 2773SOL    HW2 8557   1.419   2.037   5.575 -0.3443  1.1681  0.0461
 2774SOL     OW 8558   2.077   3.745   1.589  0.3159 -0.3789  0.3906
 2774SOL    HW1 8559   2.158   3.727   1.542  0.3528 -1.9753  1.0450
 2774SOL    HW2 8560   2.078   3.840   1.602  0.8172 -0.0174 -1.8772
 2775SOL     OW 8561   0.028   3.414   3.867  0.4523 -0.4849 -0.1185
 2775SOL    HW1 8562   0.063   3.386   3.951  0.5325 -0.3982 -0.1230
 2775SOL    HW2 8563   0.094   3.474   3.832 -0.1640  0.4841  0.3367
 2776SOL     OW 8564   2.236   1.675   1.992 -0.1720  0.1340  0.0094
 2776SOL    HW1 8565   2.171   1.741   1.967 -0.4635  0.3857  1.3915
 2776SOL    HW2 8566   2.197   1.629   2.066  0.2056 -1.3278 -0.6620
 2777SOL     OW 8567   0.491   6.061   0.189  0.2937 -0.3997  0.0023
 2777SOL    HW1 8568   0.467   5.970   0.171 -1.1726  0.3227 -2.0782
 2777SOL    HW2 8569   0.435   6.088   0.261 -0.3558 -0.7225 -0.3750
 2778SOL     OW 8570   4.063   4.823   6.044 -0.5456  0.8455 -0.2537
 2778SOL    HW1 8571   4.158   4.824   6.058 -0.5019  1.0224 -0.5695
 2778SOL    HW2 8572   4.034   4.741   6.086 -0.2870  0.9039  0.0438
 2779SOL     OW 8573   2.311   0.029   0.678 -0.1568 -0.3838  0.0403
 2779SOL    HW1 8574   2.315   0.107   0.732 -0.3439 -0.8022  0.6727
 2779SOL    HW2 8575   2.401  -0.004   0.676 -0.3521 -1.0246  1.0985
 2780SOL     OW 8576   3.747   3.034   4.900  0.2123  0.5184  0.3681
 2780SOL    HW1 8577   3.673   2.998   4.852  0.8159  0.4084 -0.5114
 2780SOL    HW2 8578   3.819   3.036   4.836  0.7980  1.2094  1.0177
 2781SOL     OW 8579   1.422   2.913   1.898  0.2328 -0.3407 -0.2425
 2781SOL    HW1 8580   1.511   2.878   1.894  0.8199  0.9157  1.0090
 2781SOL    HW2 8581   1.428   2.998   1.854 -0.4190 -0.3594 -0.3745
 2782SOL     OW 8582   2.271   3.494   5.924 -0.1048  0.4318 -0.1723
 2782SOL    HW1 8583   2.235   3.582   5.915  0.4053  0.7566  0.7821
 2782SOL    HW2 8584   2.364   3.508   5.942  0.1633 -0.3385 -0.8588
 2783SOL     OW 8585   3.759   4.277   1.798  0.2436  0.3095  0.5914
 2783SOL    HW1 8586   3.690   4.212   1.786  1.2913 -0.8194  0.5544
 2783SOL    HW2 8587   3.761   4.325   1.715 -0.8945  0.7939  0.8100
 2784SOL     OW 8588   5.065   2.686   3.032  0.2734 -0.1958 -0.3902
 2784SOL    HW1 8589   4.979   2.675   3.072  0.0388 -1.1472 -1.1188
 2784SOL    HW2 8590   5.047   2.731   2.949  1.0592  4.9132  1.8474
 2785SOL     OW 8591   3.635   5.484   4.300 -0.4580  0.2597  0.0059
 2785SOL    HW1 8592   3.688   5.404   4.302  0.9761  0.9319 -3.3923
 2785SOL    HW2 8593   3.551   5.457   4.262  0.1475  0.3476 -1.4621
 2786SOL     OW 8594   1.587   2.852   2.960  0.0300 -0.4526 -0.7070
 2786SOL    HW1 8595   1.613   2.929   2.909 -0.0501 -0.5838 -0.9434
 2786SOL    HW2 8596   1.619   2.871   3.048  2.3028 -1.2692 -1.3023
 2787SOL     OW 8597   5.612   0.837   2.325 -0.2464 -0.9849  0.5699
 2787SOL    HW1 8598   5.633   0.789   2.245 -0.9540 -0.6193  0.1557
 2787SOL    HW2 8599   5.568   0.773   2.380 -0.7666 -0.9421  0.2089
 2788SOL     OW 8600   3.742   4.836   2.848 -0.2636 -0.1888  0.6717
 2788SOL    HW1 8601   3.767   4.782   2.923 -0.2281  0.0718  0.8505
 2788SOL    HW2 8602   3.779   4.922   2.867 -1.9226  0.4247  1.3067
 2789SOL     OW 8603   2.608   3.679   1.010  0.1109 -0.3823  0.1216
 2789SOL    HW1 8604   2.605   3.586   1.030  3.3344 -0.2985  1.4934
 2789SOL    HW2 8605   2.628   3.722   1.093  0.0016  1.4228 -0.7145
 2790SOL     OW 8606   1.983   2.877   2.308  0.5105 -0.6943  0.2077
 2790SOL    HW1 8607   2.025   2.914   2.386 -0.1379 -1.4986  0.9476
 2790SOL    HW2 8608   1.979   2.951   2.246  0.3805  0.1470  1.1963
 2791SOL     OW 8609   0.810   5.108   1.526  0.5785 -0.3364 -0.2621
 2791SOL    HW1 8610   0.827   5.076   1.438  0.7808 -0.6081 -0.1253
 2791SOL    HW2 8611   0.830   5.034   1.583  0.6250 -0.1048  0.0254
 2792SOL     OW 8612   3.276   2.360   3.383  0.3169  0.4013 -0.7055
 2792SOL    HW1 8613   3.293   2.410   3.463 -0.0177 -2.1758  1.0838
 2792SOL    HW2 8614   3.188   2.325   3.395  0.0622  0.3614 -2.4676
 2793SOL     OW 8615   3.004   2.262   2.929  0.0533  0.3625  0.2835
 2793SOL    HW1 8616   2.913   2.285   2.909  0.4900  0.4514 -1.8222
 2793SOL    HW2 8617   3.039   2.338   2.974 -1.2218 -0.1527  2.2586
 2794SOL     OW 8618   1.534   0.569   4.687 -0.5394 -0.4036 -0.1727
 2794SOL    HW1 8619   1.501   0.499   4.744 -0.9882  0.3072  0.4531
 2794SOL    HW2 8620   1.625   0.580   4.712 -0.3256 -1.0968 -0.6189
 2795SOL     OW 8621   2.049   2.105   2.648 -0.3203 -0.1809  0.1373
 2795SOL    HW1 8622   2.102   2.115   2.570 -0.4973 -2.5701 -0.3644
 2795SOL    HW2 8623   2.111   2.114   2.721  0.0893  0.6557 -0.3029
 2796SOL     OW 8624   1.738   6.145   4.374 -0.4324  0.6720  0.2461
 2796SOL    HW1 8625   1.731   6.183   4.461 -1.0202  0.6010  0.2375
 2796SOL    HW2 8626   1.832   6.133   4.360 -0.2202  2.3512  0.1314
 2797SOL     OW 8627   1.136   0.886   0.267  0.2400 -0.0815  0.0966
 2797SOL    HW1 8628   1.159   0.914   0.179 -2.5489  1.2198 -0.3311
 2797SOL    HW2 8629   1.085   0.806   0.255  0.4929 -0.3205  0.5834
 2798SOL     OW 8630   5.370   4.948   1.270  0.0534 -0.5729  0.8198
 2798SOL    HW1 8631   5.337   4.870   1.314  1.2415 -0.4997  1.9088
 2798SOL    HW2 8632   5.466   4.940   1.276  0.3416 -0.8819 -2.3788
 2799SOL     OW 8633   1.008   4.036   4.181  0.7741 -0.2082 -0.3449
 2799SOL    HW1 8634   0.928   4.020   4.132 -0.2359  0.5652  0.9837
 2799SOL    HW2 8635   1.061   3.958   4.166 -0.2339 -0.7545 -1.2205
 2800SOL     OW 8636   3.032   4.809   5.987  0.2971 -0.1058  1.0678
 2800SOL    HW1 8637   2.965   4.741   5.983  1.4096 -1.1797 -2.2661
 2800SOL    HW2 8638   2.986   4.886   6.019 -2.1173 -1.2419  0.5267
 2801SOL     OW 8639   5.319   5.178   3.065 -0.5883 -0.2320  0.3831
 2801SOL    HW1 8640   5.315   5.129   3.146  0.6091  0.4988  0.9030
 2801SOL    HW2 8641   5.245   5.145   3.013 -0.9528 -1.1823  1.4793
 2802SOL     OW 8642   5.896   4.985   4.508  0.3492 -0.4391  0.1225
 2802SOL    HW1 8643   5.971   4.971   4.450  0.2645  1.2806 -0.4525
 2802SOL    HW2 8644   5.836   5.040   4.457 -0.5622 -0.4248  1.1747
 2803SOL     OW 8645   2.587   2.761   5.739  0.2610 -0.1628 -0.5916
 2803SOL    HW1 8646   2.587   2.789   5.647 -1.1515 -0.1492 -0.6091
 2803SOL    HW2 8647   2.554   2.837   5.787 -0.9617 -0.8493 -0.3233
 2804SOL     OW 8648   0.404   2.690   4.622  0.2701  0.4344  0.2554
 2804SOL    HW1 8649   0.404   2.629   4.548  1.5660  0.8279 -0.0906
 2804SOL    HW2 8650   0.452   2.644   4.691 -0.2249  0.3989  0.5856
 2805SOL     OW 8651   1.562   0.018   2.454  0.0227 -0.3959  0.2268
 2805SOL    HW1 8652   1.597   0.015   2.365  0.4916 -0.6001  0.4102
 2805SOL    HW2 8653   1.550   0.111   2.473  1.1775 -0.2757  0.4224
 2806SOL     OW 8654   4.240   2.786   0.677 -1.0745  0.6607 -0.5056
 2806SOL    HW1 8655   4.303   2.857   0.691 -1.3276  1.1848 -1.8652
 2806SOL    HW2 8656   4.210   2.763   0.764  1.6104 -0.1815  0.3044
 2807SOL     OW 8657   2.803   5.237   4.637  0.2376  0.1123 -0.8237
 2807SOL    HW1 8658   2.888   5.224   4.679 -0.7032  1.0763  1.5799
 2807SOL    HW2 8659   2.745   5.173   4.678 -1.0547  2.0438  0.5925
 2808SOL     OW 8660   1.927   3.643   1.886  0.1765  0.0844  0.0422
 2808SOL    HW1 8661   1.898   3.582   1.819  0.1613  0.0428  0.0861
 2808SOL    HW2 8662   1.865   3.632   1.958  0.6610 -0.4604  0.3877
 2809SOL     OW 8663   1.492   4.589   3.392  0.6346 -0.0624 -0.0077
 2809SOL    HW1 8664   1.527   4.636   3.317 -1.7984 -0.1209 -1.2847
 2809SOL    HW2 8665   1.466   4.504   3.358 -0.7375 -0.0028  0.8099
 2810SOL     OW 8666   2.581   1.243   4.835  0.0937  0.6438  0.1141
 2810SOL    HW1 8667   2.599   1.317   4.777  2.3266 -0.2182 -0.3670
 2810SOL    HW2 8668   2.569   1.169   4.775 -1.0432  0.3710  0.6467
 2811SOL     OW 8669   3.047   5.597   0.043  0.0220 -0.0502 -0.3103
 2811SOL    HW1 8670   3.134   5.559   0.054  0.2228  0.5818  0.3795
 2811SOL    HW2 8671   3.033   5.599  -0.051 -0.0693 -1.9701 -0.3743
 2812SOL     OW 8672   4.206   0.843   1.563 -0.2405 -0.1485  0.1575
 2812SOL    HW1 8673   4.236   0.809   1.479 -1.2354  0.7479 -0.5963
 2812SOL    HW2 8674   4.245   0.785   1.629 -1.0533 -2.0851 -0.9983
 2813SOL     OW 8675   2.954   2.196   4.296 -0.5506 -0.0329 -0.1067
 2813SOL    HW1 8676   3.003   2.125   4.337  0.0928 -0.9890 -2.3849
 2813SOL    HW2 8677   2.963   2.270   4.357 -0.3682 -1.5530  1.8273
 2814SOL     OW 8678   1.287   4.686   5.151  0.0397 -0.2752  0.0667
 2814SOL    HW1 8679   1.261   4.757   5.092  1.3177  1.5616  1.5886
 2814SOL    HW2 8680   1.240   4.610   5.119 -0.1275  0.8716 -2.6620
 2815SOL     OW 8681   3.481   5.117   0.771 -0.1216  0.1972  0.2104
 2815SOL    HW1 8682   3.416   5.092   0.705  1.2602 -1.5338 -0.5740
 2815SOL    HW2 8683   3.465   5.058   0.844  1.3888 -1.2047 -0.5379
 2816SOL     OW 8684   0.980   5.445   2.787 -0.1329 -0.0045 -0.3498
 2816SOL    HW1 8685   1.032   5.514   2.746  0.1645 -0.2121 -0.3188
 2816SOL    HW2 8686   1.044   5.380   2.816 -0.3653  0.0050  0.1900
 2817SOL     OW 8687   2.286   3.712   0.568  0.2613 -0.0595 -0.3723
 2817SOL    HW1 8688   2.368   3.693   0.614  0.6977  2.6090  0.0901
 2817SOL    HW2 8689   2.221   3.657   0.613  1.4728 -0.9662  0.3572
 2818SOL     OW 8690   4.554   3.193   5.946 -0.5541 -0.1288  0.1421
 2818SOL    HW1 8691   4.532   3.188   5.853 -1.0776  0.0292  0.2539
 2818SOL    HW2 8692   4.541   3.285   5.968 -1.8792 -0.4365  0.7173
 2819SOL     OW 8693   5.459   3.267   0.595 -0.6979  0.5134  0.0692
 2819SOL    HW1 8694   5.387   3.205   0.609 -0.9933  0.4284 -1.5930
 2819SOL    HW2 8695   5.491   3.247   0.507  0.8613  1.0767  0.4708
 2820SOL     OW 8696   5.435   0.906   5.348  0.1785  0.2977  0.2748
 2820SOL    HW1 8697   5.385   0.875   5.272 -0.7888 -2.2341  1.8204
 2820SOL    HW2 8698   5.509   0.953   5.311 -0.7368 -0.0747 -2.1968
 2821SOL     OW 8699   0.436   1.074   3.400 -0.6619 -0.2741 -0.1235
 2821SOL    HW1 8700   0.351   1.093   3.440 -0.7634  2.6821 -1.4963
 2821SOL    HW2 8701   0.495   1.140   3.437  0.7552 -1.4719 -0.1599
 2822SOL     OW 8702   0.178   4.526   4.836  0.4270  0.1095 -0.7899
 2822SOL    HW1 8703   0.135   4.532   4.922 -1.5233 -0.6995 -1.6452
 2822SOL    HW2 8704   0.198   4.616   4.813  0.3385  0.3965  0.1974
 2823SOL     OW 8705   4.118   4.189   4.439  0.6947 -0.1971 -0.4192
 2823SOL    HW1 8706   4.188   4.238   4.481  0.5498 -1.1291  0.9523
 2823SOL    HW2 8707   4.150   4.175   4.349  0.4712  2.8873 -1.1169
 2824SOL     OW 8708   1.488   1.710   0.423 -0.7055  0.3428 -0.1021
 2824SOL    HW1 8709   1.507   1.731   0.331  0.2275  1.3625  0.2986
 2824SOL    HW2 8710   1.408   1.758   0.442 -0.1439  1.2717 -0.0094
 2825SOL     OW 8711   0.291   5.690   3.853 -0.0974 -0.3251  0.2723
 2825SOL    HW1 8712   0.359   5.662   3.914  0.5820 -0.7810 -0.6721
 2825SOL    HW2 8713   0.331   5.681   3.767 -1.4190 -0.8055 -0.3217
 2826SOL     OW 8714   0.679   3.418   6.007  0.0411  0.0356  0.0167
 2826SOL    HW1 8715   0.637   3.462   6.082 -0.0461 -0.3416  0.1917
 2826SOL    HW2 8716   0.638   3.332   6.004  0.4103 -0.1364 -0.1532
 2827SOL     OW 8717   4.255   6.042   5.522 -0.6779 -0.2880 -0.1351
 2827SOL    HW1 8718   4.330   5.985   5.504 -0.9808 -1.2529  1.5023
 2827SOL    HW2 8719   4.186   6.010   5.463 -0.6823 -1.2921  0.3995
 2828SOL     OW 8720   3.989   1.148   5.948  0.5884 -0.5133  0.4954
 2828SOL    HW1 8721   3.940   1.091   6.007  0.3277 -2.5709 -1.5662
 2828SOL    HW2 8722   4.081   1.124   5.962  0.7483  0.6262  1.6158
 2829SOL     OW 8723   4.589   0.675   5.725  0.2725 -0.3448 -0.0074
 2829SOL    HW1 8724   4.550   0.589   5.740 -1.3341  0.6346  1.9662
 2829SOL    HW2 8725   4.628   0.669   5.638  0.5990 -3.1802  0.2361
 2830SOL     OW 8726   4.182   2.498   2.419  0.3708  0.0335 -0.2854
 2830SOL    HW1 8727   4.139   2.443   2.484  1.1101 -0.1300  0.0797
 2830SOL    HW2 8728   4.232   2.436   2.365  0.4759  0.2587 -0.4457
 2831SOL     OW 8729   4.324   0.940   5.756 -0.3524  0.0990  0.0654
 2831SOL    HW1 8730   4.412   0.978   5.764  0.1119 -1.0357  0.5382
 2831SOL    HW2 8731   4.305   0.946   5.662  0.2842  0.2441 -0.0640
 2832SOL     OW 8732   3.877   5.850   1.703  0.0310  0.3947  0.6898
 2832SOL    HW1 8733   3.829   5.770   1.685  0.4365  0.3364 -0.1701
 2832SOL    HW2 8734   3.847   5.878   1.790  1.8016 -2.1325  2.2543
 2833SOL     OW 8735   3.075   1.239   5.129  0.2627  0.2701 -0.4890
 2833SOL    HW1 8736   2.983   1.264   5.123  0.7949  2.4046 -0.5382
 2833SOL    HW2 8737   3.084   1.167   5.066 -1.0886  0.8969 -1.4621
 2834SOL     OW 8738   4.129   0.087   1.983 -0.0271  0.5318  0.0178
 2834SOL    HW1 8739   4.071   0.087   1.907  0.6483  0.4364 -0.5047
 2834SOL    HW2 8740   4.180   0.007   1.974  1.1357  1.2905 -0.2635
 2835SOL     OW 8741   0.144   4.784   2.121  0.0945  0.5628 -0.1207
 2835SOL    HW1 8742   0.173   4.736   2.198 -0.5961  1.0516  0.4574
 2835SOL    HW2 8743   0.063   4.740   2.093  0.1450  0.6095 -0.3477
 2836SOL     OW 8744   1.390   1.107   3.495  0.4110 -0.3850  0.3510
 2836SOL    HW1 8745   1.428   1.108   3.407 -0.7357  0.7776 -0.1472
 2836SOL    HW2 8746   1.298   1.084   3.482 -0.4803  2.4749  0.9056
 2837SOL     OW 8747   3.683   5.147   1.374 -0.0304  0.7335  0.6033
 2837SOL    HW1 8748   3.636   5.189   1.301  2.0949  0.2779 -1.1564
 2837SOL    HW2 8749   3.690   5.055   1.348 -0.1573  0.3473  1.9106
 2838SOL     OW 8750   4.052   3.511   5.852 -0.6048 -0.0554  0.1918
 2838SOL    HW1 8751   4.030   3.419   5.871 -1.1132  0.1092  0.4127
 2838SOL    HW2 8752   3.972   3.548   5.817 -0.1005  0.0449 -0.9013
 2839SOL     OW 8753   3.197   5.892   0.035  0.3623 -0.3487 -0.3805
 2839SOL    HW1 8754   3.239   5.831   0.096  1.6806  0.0260 -0.8786
 2839SOL    HW2 8755   3.256   5.894  -0.041 -0.9822 -0.4224 -1.4649
 2840SOL     OW 8756   1.671   3.234   1.623 -0.2579  0.2992  0.4609
 2840SOL    HW1 8757   1.727   3.199   1.691 -1.1545 -0.4583  0.8335
 2840SOL    HW2 8758   1.674   3.169   1.553  1.0089  1.2829 -0.4413
 2841SOL     OW 8759   0.903   0.298   6.049 -0.5640  0.0673  0.0411
 2841SOL    HW1 8760   0.940   0.364   6.108  0.2587 -0.7007  0.4166
 2841SOL    HW2 8761   0.894   0.342   5.965  2.2889  0.0220 -0.3774
 2842SOL     OW 8762   5.801   5.667   0.556 -0.5296  0.7027  0.0634
 2842SOL    HW1 8763   5.858   5.722   0.503 -1.3401  0.5252 -1.0271
 2842SOL    HW2 8764   5.713   5.679   0.518 -0.8259 -0.8766  0.1529
 2843SOL     OW 8765   4.398   3.090   1.415 -0.8260  0.0634  0.3183
 2843SOL    HW1 8766   4.400   3.158   1.349 -1.1446 -1.2092 -1.0453
 2843SOL    HW2 8767   4.383   3.009   1.367  1.0022 -1.1977  1.7152
 2844SOL     OW 8768   1.267   0.516   4.385 -0.6023  0.4693  0.4266
 2844SOL    HW1 8769   1.195   0.551   4.437 -0.8725 -0.5925  0.8034
 2844SOL    HW2 8770   1.240   0.426   4.364  0.2501  0.3232 -0.1182
 2845SOL     OW 8771   1.264   0.760   4.213 -0.2429 -0.2693 -0.6524
 2845SOL    HW1 8772   1.279   0.671   4.246 -1.4582 -0.1326  0.3203
 2845SOL    HW2 8773   1.306   0.760   4.127  0.4769 -1.5321 -0.3343
 2846SOL     OW 8774   5.564   5.919   5.949  0.3386  0.6170  0.4754
 2846SOL    HW1 8775   5.606   5.892   5.867  0.5348  0.5270  0.6032
 2846SOL    HW2 8776   5.600   6.006   5.967 -0.8777  1.3082 -0.3371
 2847SOL     OW 8777   2.964   6.001   0.782 -0.0449 -0.2964 -0.1362
 2847SOL    HW1 8778   2.986   6.013   0.690  0.1627 -2.2855 -0.3777
 2847SOL    HW2 8779   2.877   6.040   0.791  0.5576  1.2672 -0.7993
 2848SOL     OW 8780   2.201   3.138   1.345 -0.7592  0.2487  0.3800
 2848SOL    HW1 8781   2.207   3.042   1.343  1.1078  0.1341  3.8684
 2848SOL    HW2 8782   2.256   3.163   1.419 -0.9108  4.0956 -0.6400
 2849SOL     OW 8783   2.970   0.516   2.684  0.0861 -0.2328 -0.9254
 2849SOL    HW1 8784   2.891   0.553   2.724 -0.6947 -2.1956 -0.5155
 2849SOL    HW2 8785   2.959   0.532   2.590 -0.2501  0.4822 -0.7687
 2850SOL     OW 8786   5.850   2.893   0.449 -0.6227 -0.2600 -0.2406
 2850SOL    HW1 8787   5.780   2.957   0.453 -0.5435 -0.2055  0.4008
 2850SOL    HW2 8788   5.809   2.810   0.476 -0.6104 -0.3721 -0.5705
 2851SOL     OW 8789   2.000   5.613   3.892 -0.6280 -0.0347  0.4597
 2851SOL    HW1 8790   2.081   5.567   3.870 -0.1267  0.3684  1.3946
 2851SOL    HW2 8791   1.962   5.638   3.808 -0.1905 -0.9175 -0.0108
 2852SOL     OW 8792   0.283   4.411   0.891  0.6005 -0.1877 -0.1750
 2852SOL    HW1 8793   0.345   4.482   0.905  0.3926 -0.3468  1.8695
 2852SOL    HW2 8794   0.333   4.332   0.914  0.3588 -0.5500 -0.8854
 2853SOL     OW 8795   1.972   0.248   0.395 -0.2241 -0.3790  0.1197
 2853SOL    HW1 8796   2.044   0.192   0.422  0.3428  0.9984  1.6708
 2853SOL    HW2 8797   2.011   0.310   0.333 -0.3239 -0.3420  0.0936
 2854SOL     OW 8798   3.905   5.013   4.175  0.2164  0.3533 -0.2388
 2854SOL    HW1 8799   3.997   5.020   4.200  0.4478 -1.1535 -0.5720
 2854SOL    HW2 8800   3.877   4.928   4.209 -1.8932  1.9140  2.3890
 2855SOL     OW 8801   0.682   0.580   5.207 -0.2185 -0.6314  0.7639
 2855SOL    HW1 8802   0.726   0.495   5.217  0.4202 -0.2190  1.5615
 2855SOL    HW2 8803   0.753   0.642   5.188 -0.6376 -0.2051  0.5648
 2856SOL     OW 8804   3.143   4.937   5.076 -0.1033  0.5791 -0.6519
 2856SOL    HW1 8805   3.101   4.934   4.990  1.3204  0.8134 -1.3893
 2856SOL    HW2 8806   3.223   4.988   5.062 -0.0540  0.9969  0.9204
 2857SOL     OW 8807   5.300   0.462   1.077 -0.2156 -0.0641  1.0147
 2857SOL    HW1 8808   5.362   0.395   1.049  0.5599  0.6648  0.9428
 2857SOL    HW2 8809   5.214   0.420   1.071  0.0880 -0.5049 -0.6735
 2858SOL     OW 8810   0.809   1.900   1.506  0.4050  0.7299 -0.3355
 2858SOL    HW1 8811   0.816   1.920   1.413 -1.9984  1.1630 -0.4907
 2858SOL    HW2 8812   0.855   1.817   1.517 -0.0402  0.2253 -2.0802
 2859SOL     OW 8813   2.619   4.040   4.239 -0.4212  0.6979  0.0256
 2859SOL    HW1 8814   2.686   4.069   4.177  0.5595  1.6424  1.4805
 2859SOL    HW2 8815   2.665   3.980   4.298 -0.6060  2.0105  1.5610
 2860SOL     OW 8816   0.379   3.311   1.625  0.0041  0.2430 -0.0234
 2860SOL    HW1 8817   0.305   3.256   1.653  0.6578 -0.0802  1.1355
 2860SOL    HW2 8818   0.338   3.391   1.591 -0.8793  0.1155  0.7016
 2861SOL     OW 8819   6.144   5.888   2.999  0.1043  0.4479 -0.0689
 2861SOL    HW1 8820   6.063   5.897   3.050 -0.0822 -1.1211 -0.0395
 2861SOL    HW2 8821   6.202   5.955   3.034 -1.2228  1.7165 -0.1996
 2862SOL     OW 8822   0.502   3.907   3.611  0.8348  0.0572  0.1770
 2862SOL    HW1 8823   0.490   3.825   3.563 -0.7331 -0.2228  0.9857
 2862SOL    HW2 8824   0.418   3.953   3.601  1.2608  0.9959  0.7951
 2863SOL     OW 8825   3.938   1.083   0.743 -0.1238 -0.0602 -0.4383
 2863SOL    HW1 8826   3.970   1.092   0.832 -0.9679  1.9874 -0.2758
 2863SOL    HW2 8827   4.015   1.096   0.688  0.5521 -2.1343 -0.0452
 2864SOL     OW 8828   2.990   3.803   2.238  0.3007 -0.4511 -0.3962
 2864SOL    HW1 8829   2.923   3.735   2.229 -0.2967  0.1610 -0.6892
 2864SOL    HW2 8830   3.073   3.755   2.247 -0.2236 -1.2345  0.4878
 2865SOL     OW 8831   5.389   1.937   0.294  0.3052 -0.2499  0.5299
 2865SOL    HW1 8832   5.357   2.001   0.230  1.3105 -0.6738 -0.4137
 2865SOL    HW2 8833   5.312   1.919   0.349 -0.3256  0.8236  0.0408
 2866SOL     OW 8834   0.319   5.308   1.326  0.4336  0.3439  0.1024
 2866SOL    HW1 8835   0.301   5.402   1.324  0.5609  0.3729  0.2717
 2866SOL    HW2 8836   0.386   5.298   1.394  0.8642  0.2127 -0.3295
 2867SOL     OW 8837   0.399   0.072   0.651 -0.2955  0.1600  0.5510
 2867SOL    HW1 8838   0.338   0.136   0.688  0.1714  0.7166  0.3718
 2867SOL    HW2 8839   0.432   0.024   0.727 -0.5385  0.2349  0.7047
 2868SOL     OW 8840   1.701   4.891   1.865 -0.0975 -0.0437 -0.4488
 2868SOL    HW1 8841   1.712   4.829   1.793 -0.6894 -0.9604  0.2185
 2868SOL    HW2 8842   1.606   4.902   1.872  0.0184  1.2973 -0.8370
 2869SOL     OW 8843   2.570   1.717   1.721 -0.1245  0.2122  0.1730
 2869SOL    HW1 8844   2.530   1.794   1.761 -0.5283 -0.1478  0.4691
 2869SOL    HW2 8845   2.508   1.646   1.737  0.0961 -0.1138 -0.3709
 2870SOL     OW 8846   2.749   5.000   0.542 -0.3392 -0.2184  0.2302
 2870SOL    HW1 8847   2.736   4.905   0.532 -2.3674 -0.0923  1.0868
 2870SOL    HW2 8848   2.754   5.033   0.452 -2.0763 -0.9024 -0.1684
 2871SOL     OW 8849   0.859   3.834   5.897 -0.6556 -0.0266 -0.3159
 2871SOL    HW1 8850   0.949   3.802   5.905 -0.1935  1.2821 -0.1139
 2871SOL    HW2 8851   0.809   3.757   5.869  0.7810 -0.4410 -1.9258
 2872SOL     OW 8852   5.148   5.739   1.470 -0.2699 -0.1400 -0.6113
 2872SOL    HW1 8853   5.144   5.716   1.563 -0.8094  1.6882 -0.1414
 2872SOL    HW2 8854   5.198   5.667   1.430  2.3733  0.3212  1.5303
 2873SOL     OW 8855   2.372   0.091   1.765 -0.0294 -0.5095  0.0261
 2873SOL    HW1 8856   2.358   0.166   1.822 -0.7459 -0.0152 -0.7664
 2873SOL    HW2 8857   2.466   0.073   1.771  0.1520  0.4461  0.2319
 2874SOL     OW 8858   3.975   5.988   5.527 -0.0763  0.1065 -0.5704
 2874SOL    HW1 8859   4.026   5.940   5.592 -1.4421  0.6922  1.0125
 2874SOL    HW2 8860   3.975   5.931   5.450  0.7084 -1.1109  0.2854
 2875SOL     OW 8861   4.991   1.467   1.771  0.2909 -0.1626  0.2777
 2875SOL    HW1 8862   4.935   1.541   1.745 -0.4825 -1.4971 -2.0915
 2875SOL    HW2 8863   4.933   1.391   1.768  0.7745 -0.8538  3.7419
 2876SOL     OW 8864   1.307   1.032   4.551 -0.1446  0.4307  0.1857
 2876SOL    HW1 8865   1.374   0.973   4.517  1.2621  0.4086  2.7128
 2876SOL    HW2 8866   1.238   0.974   4.582  1.7148 -0.2247  3.6939
 2877SOL     OW 8867   2.101   4.143   0.882  0.2348 -0.4807 -0.1607
 2877SOL    HW1 8868   2.108   4.057   0.841 -0.2165 -0.1016 -1.0543
 2877SOL    HW2 8869   2.007   4.154   0.899 -0.1733  1.1120 -2.9418
 2878SOL     OW 8870   0.493   4.867   3.077  0.7266 -0.5628  0.2077
 2878SOL    HW1 8871   0.485   4.829   2.990 -0.1943  0.0322  0.0199
 2878SOL    HW2 8872   0.458   4.800   3.136  1.5433 -1.0505  0.1526
 2879SOL     OW 8873   2.963   1.435   3.147 -0.1342 -0.3260 -0.1121
 2879SOL    HW1 8874   2.987   1.402   3.234  1.6619  0.3267 -0.3230
 2879SOL    HW2 8875   2.879   1.478   3.161  0.1958 -0.0841  1.3499
 2880SOL     OW 8876   4.119   3.500   0.115  0.4505  0.0829  0.0758
 2880SOL    HW1 8877   4.026   3.495   0.134  0.7334  0.5882  1.7883
 2880SOL    HW2 8878   4.127   3.571   0.051 -0.3063  0.2953  0.2124
 2881SOL     OW 8879   5.995   4.271   2.358  0.0906 -0.6473  0.2326
 2881SOL    HW1 8880   6.038   4.186   2.370 -1.0019 -1.1057  1.0931
 2881SOL    HW2 8881   5.971   4.299   2.446  0.2864  0.4841 -0.0651
 2882SOL     OW 8882   0.012   5.467   5.575 -0.3038  0.7521 -0.0931
 2882SOL    HW1 8883   0.027   5.374   5.557  0.3429  0.6180  1.0607
 2882SOL    HW2 8884   0.099   5.501   5.597 -0.4222  1.7903 -1.1302
 2883SOL     OW 8885   4.147   0.297   4.151 -0.1477 -0.1750 -0.1950
 2883SOL    HW1 8886   4.207   0.340   4.090 -0.6710 -0.1850 -0.7221
 2883SOL    HW2 8887   4.164   0.340   4.235  1.9889 -1.5038  0.1229
 2884SOL     OW 8888   5.242   1.551   1.845  0.1944  0.0261 -0.0653
 2884SOL    HW1 8889   5.190   1.570   1.923  1.5213  1.8666  0.4490
 2884SOL    HW2 8890   5.178   1.528   1.778 -1.1322  0.3735  1.0374
 2885SOL     OW 8891   4.899   2.273   2.599 -0.0811 -0.8987 -0.3085
 2885SOL    HW1 8892   4.981   2.315   2.625  0.7868 -2.5597 -0.1896
 2885SOL    HW2 8893   4.896   2.283   2.504 -0.7402  0.8297 -0.1391
 2886SOL     OW 8894   0.265   0.342   4.708  0.3815 -0.1689 -0.3461
 2886SOL    HW1 8895   0.199   0.323   4.641  1.7837  1.2761 -2.2881
 2886SOL    HW2 8896   0.246   0.432   4.735 -0.1988 -0.7604  1.2833
 2887SOL     OW 8897   5.367   2.279   5.306 -0.1074 -0.1901  0.1877
 2887SOL    HW1 8898   5.404   2.312   5.224  1.8190  0.6622  1.3418
 2887SOL    HW2 8899   5.365   2.184   5.294 -1.2870 -0.0048 -1.3879
 2888SOL     OW 8900   0.884   6.122   0.307 -0.5329  0.2670 -0.0534
 2888SOL    HW1 8901   0.802   6.131   0.355 -0.6258  0.1279 -0.1849
 2888SOL    HW2 8902   0.950   6.161   0.364 -0.5365 -0.5021  0.4925
 2889SOL     OW 8903   0.144   0.611   5.644  0.0974  0.5141 -0.4096
 2889SOL    HW1 8904   0.174   0.683   5.589  1.4996  0.2675 -0.0131
 2889SOL    HW2 8905   0.205   0.540   5.627 -0.2060  0.0043  0.5112
 2890SOL     OW 8906   1.570   4.546   0.282 -0.5492  0.4686 -0.4661
 2890SOL    HW1 8907   1.628   4.491   0.334 -0.0508 -0.1552 -1.6343
 2890SOL    HW2 8908   1.560   4.626   0.334  1.7930  0.8231 -0.4130
 2891SOL     OW 8909   0.031   3.070   4.941 -0.2696 -0.1865  0.2848
 2891SOL    HW1 8910   0.073   2.987   4.917 -0.0393 -0.0278  0.1369
 2891SOL    HW2 8911  -0.057   3.064   4.903 -0.4665 -0.6171  0.7917
 2892SOL     OW 8912   1.626   5.801   1.094 -0.0797  0.0022  0.1470
 2892SOL    HW1 8913   1.668   5.731   1.044 -0.2738 -0.8093  1.0862
 2892SOL    HW2 8914   1.656   5.882   1.052 -0.7263 -0.6462 -1.6576
 2893SOL     OW 8915   5.736   3.518   4.169 -0.0164 -0.0472  0.1523
 2893SOL    HW1 8916   5.729   3.609   4.138  1.9172  0.3985  0.9287
 2893SOL    HW2 8917   5.676   3.470   4.111 -0.5254  1.5827 -0.7719
 2894SOL     OW 8918   1.350   2.593   3.898  0.6733 -0.4956  0.1450
 2894SOL    HW1 8919   1.301   2.521   3.859  0.9841 -1.2016  1.0244
 2894SOL    HW2 8920   1.353   2.572   3.991 -1.1151  1.7577  0.8118
 2895SOL     OW 8921   0.846   1.093   2.342  0.4176 -0.3437  0.0722
 2895SOL    HW1 8922   0.850   1.026   2.410 -2.0481  1.0420  1.7462
 2895SOL    HW2 8923   0.755   1.091   2.312  0.2728  2.1470  0.1314
 2896SOL     OW 8924   2.191   4.989   5.957 -0.5408 -0.2843 -0.3417
 2896SOL    HW1 8925   2.267   4.973   5.900  1.0130 -1.3258  1.8707
 2896SOL    HW2 8926   2.228   5.035   6.033 -2.4056  0.3738  0.2133
 2897SOL     OW 8927   2.405   1.415   0.804  0.1144  0.5665  0.0466
 2897SOL    HW1 8928   2.488   1.453   0.778 -0.6236  2.2636  0.0433
 2897SOL    HW2 8929   2.368   1.381   0.723 -0.8780  3.2671 -0.7540
 2898SOL     OW 8930   0.607   1.253   2.971 -0.6537  0.6680 -0.0608
 2898SOL    HW1 8931   0.572   1.174   2.930  0.5758  0.6556 -1.1232
 2898SOL    HW2 8932   0.552   1.266   3.048 -1.0002 -1.1084  0.0229
 2899SOL     OW 8933   0.061   1.002   5.863  0.2291  0.0183 -0.1399
 2899SOL    HW1 8934  -0.026   1.034   5.842 -0.0448 -0.6423 -0.0187
 2899SOL    HW2 8935   0.114   1.023   5.787 -0.6231 -1.8856 -1.3222
 2900SOL     OW 8936   2.414   1.201   5.930  0.8274 -0.0212  0.5435
 2900SOL    HW1 8937   2.383   1.215   6.019  0.1995  2.3778  0.0256
 2900SOL    HW2 8938   2.341   1.231   5.875  1.4691 -0.8001 -0.7687
 2901SOL     OW 8939   4.363   3.896   0.180  0.4127  0.3073 -0.6527
 2901SOL    HW1 8940   4.429   3.956   0.214  1.6592 -1.9816  1.2487
 2901SOL    HW2 8941   4.304   3.952   0.129  1.8443  2.9836  0.4229
 2902SOL     OW 8942   5.514   2.735   5.412 -0.0489  0.3366 -0.2391
 2902SOL    HW1 8943   5.588   2.714   5.354 -1.2624  0.4140 -1.8861
 2902SOL    HW2 8944   5.452   2.664   5.398 -0.5102  0.5285  0.7552
 2903SOL     OW 8945   2.516   5.924   3.481  0.0279  0.2458  0.3792
 2903SOL    HW1 8946   2.558   5.960   3.402 -3.8483  0.7932 -1.7038
 2903SOL    HW2 8947   2.506   5.831   3.463 -0.6389  0.3258  0.3038
 2904SOL     OW 8948   5.869   3.347   4.915 -0.2072 -0.4828 -0.3561
 2904SOL    HW1 8949   5.791   3.329   4.968 -0.4659 -0.6008 -0.7695
 2904SOL    HW2 8950   5.837   3.401   4.843  0.5550  1.7182  0.8577
 2905SOL     OW 8951   3.998   2.458   5.135  0.0713  0.5608 -0.2108
 2905SOL    HW1 8952   4.042   2.533   5.096  0.5566  1.3790  1.7967
 2905SOL    HW2 8953   4.052   2.434   5.210 -0.1762 -1.7066 -0.6900
 2906SOL     OW 8954   4.382   2.720   3.534  0.2461  0.1642 -0.1013
 2906SOL    HW1 8955   4.436   2.640   3.532 -0.1784 -0.1661  0.9119
 2906SOL    HW2 8956   4.307   2.700   3.478  0.2767 -0.0503 -0.0665
 2907SOL     OW 8957   0.196   0.196   6.126  0.5291  0.3180  0.0656
 2907SOL    HW1 8958   0.291   0.206   6.122  0.5929 -0.5439 -1.6071
 2907SOL    HW2 8959   0.171   0.238   6.208  2.4582 -0.3595  1.0741
 2908SOL     OW 8960   4.461   1.987   2.378 -0.3119 -0.4056  0.3413
 2908SOL    HW1 8961   4.530   2.036   2.425  0.1457 -0.7564  0.0419
 2908SOL    HW2 8962   4.436   2.045   2.307  1.9355 -1.5189 -1.4945
 2909SOL     OW 8963   5.976   0.569   5.062  0.8131  0.3109 -0.1472
 2909SOL    HW1 8964   6.039   0.507   5.026  0.5641  0.9414 -1.7299
 2909SOL    HW2 8965   5.891   0.542   5.026  0.2598 -0.0673  1.3498
 2910SOL     OW 8966   3.242   3.680   2.324 -0.7251 -0.7142 -0.0815
 2910SOL    HW1 8967   3.285   3.605   2.282 -0.2608  0.4266 -1.7424
 2910SOL    HW2 8968   3.218   3.648   2.411  1.5173 -2.0925  0.1126
 2911SOL     OW 8969   1.191   3.781   1.034  0.6404  0.6017 -0.3988
 2911SOL    HW1 8970   1.235   3.732   0.965  0.8928 -1.0023  0.8612
 2911SOL    HW2 8971   1.243   3.765   1.112  0.5795  2.7013  0.1321
 2912SOL     OW 8972   5.610   3.504   6.147 -0.1482  0.0377 -0.5617
 2912SOL    HW1 8973   5.540   3.512   6.082 -0.1221  1.7324 -0.4221
 2912SOL    HW2 8974   5.675   3.569   6.121 -0.6784  1.6525  1.7855
 2913SOL     OW 8975   5.760   6.126   6.001  0.5207 -0.1321 -0.3128
 2913SOL    HW1 8976   5.754   6.196   6.066  2.0198 -0.9846  0.8219
 2913SOL    HW2 8977   5.847   6.087   6.016  0.4444 -1.0785 -2.0987
 2914SOL     OW 8978   3.707   5.328   5.163 -0.7122 -0.0774 -0.2794
 2914SOL    HW1 8979   3.760   5.294   5.091 -1.7961 -1.0074 -0.6794
 2914SOL    HW2 8980   3.633   5.268   5.168 -1.5617  0.9956  0.4735
 2915SOL     OW 8981   2.381   5.875   4.930 -0.0158 -0.0322 -0.3067
 2915SOL    HW1 8982   2.413   5.872   4.840  0.9384 -0.6944  0.0360
 2915SOL    HW2 8983   2.290   5.902   4.922 -0.4179 -1.5671 -1.6102
 2916SOL     OW 8984   1.071   2.799   3.595  0.4122  0.6994  0.7119
 2916SOL    HW1 8985   1.065   2.765   3.506  0.4605 -0.2130  1.0550
 2916SOL    HW2 8986   1.163   2.825   3.606  0.5087  0.3736  0.6592
 2917SOL     OW 8987   5.186   5.421   3.076 -0.6421 -0.8436  0.0524
 2917SOL    HW1 8988   5.143   5.410   3.161 -0.7373 -0.4554  0.0547
 2917SOL    HW2 8989   5.234   5.339   3.063  0.6487 -0.3033  1.2082
 2918SOL     OW 8990   0.408   5.446   2.179  0.2211 -0.4707  0.0664
 2918SOL    HW1 8991   0.499   5.429   2.204 -0.0972 -0.5233  1.2530
 2918SOL    HW2 8992   0.388   5.377   2.115  1.3534  0.2454 -1.1212
 2919SOL     OW 8993   5.498   4.210   2.778  0.4138  0.4458  0.2925
 2919SOL    HW1 8994   5.415   4.257   2.784  0.9602  1.2461  2.6959
 2919SOL    HW2 8995   5.477   4.120   2.804  0.2808  0.6627  0.9622
 2920SOL     OW 8996   5.603   4.561   2.933  0.6561  0.1312 -0.1611
 2920SOL    HW1 8997   5.613   4.592   2.843 -0.9553  0.0953 -0.3760
 2920SOL    HW2 8998   5.654   4.480   2.936 -1.0867 -1.1036 -1.7290
 2921SOL     OW 8999   5.105   0.525   2.595 -0.0069 -0.2368  0.3359
 2921SOL    HW1 9000   5.081   0.612   2.561 -1.4718 -0.8660 -0.3248
 2921SOL    HW2 9001   5.195   0.512   2.565  0.8636  1.7306  1.8808
 2922SOL     OW 9002   1.861   4.996   2.771 -0.3051 -0.1635 -0.4202
 2922SOL    HW1 9003   1.768   4.996   2.794 -0.8562 -0.6821 -2.4043
 2922SOL    HW2 9004   1.888   5.088   2.782 -1.1571  0.0684 -0.1696
 2923SOL     OW 9005   0.318   2.244   0.506  0.9847 -0.1762 -0.0348
 2923SOL    HW1 9006   0.330   2.327   0.461  0.2264 -1.0678 -2.0305
 2923SOL    HW2 9007   0.239   2.207   0.467  1.3517 -1.8705  0.7258
 2924SOL     OW 9008   2.733   2.674   2.720  0.2615 -0.0653  0.1468
 2924SOL    HW1 9009   2.657   2.686   2.662 -1.0317  0.0625  1.8060
 2924SOL    HW2 9010   2.696   2.639   2.801  2.0218 -0.2009  0.9336
 2925SOL     OW 9011   5.616   4.333   4.993 -0.6885  0.3259 -0.0389
 2925SOL    HW1 9012   5.637   4.356   5.083  0.4160 -0.5744 -0.0397
 2925SOL    HW2 9013   5.552   4.262   5.000  0.0294 -0.3223  0.0659
 2926SOL     OW 9014   3.350   4.800   0.326 -0.0147  0.3423  0.3498
 2926SOL    HW1 9015   3.376   4.749   0.403 -0.9543  1.8574  1.7339
 2926SOL    HW2 9016   3.341   4.736   0.256  2.0552 -0.9329  1.1691
 2927SOL     OW 9017   3.321   0.038   0.245 -0.6724 -0.0969 -0.1863
 2927SOL    HW1 9018   3.348   0.048   0.336 -1.0687  1.2142 -0.1955
 2927SOL    HW2 9019   3.371  -0.037   0.213  0.1310 -0.0213  0.8584
 2928SOL     OW 9020   4.248   3.608   1.768 -0.2296  0.0825  0.3077
 2928SOL    HW1 9021   4.264   3.526   1.815  0.4978 -0.7042 -1.2537
 2928SOL    HW2 9022   4.161   3.635   1.798 -0.2882 -1.0101  1.2022
 2929SOL     OW 9023   1.386   5.232   3.811 -0.3482  0.0587  0.1921
 2929SOL    HW1 9024   1.387   5.144   3.848 -1.1559  0.2564  0.7198
 2929SOL    HW2 9025   1.324   5.280   3.866 -0.4821  0.7560 -0.5496
 2930SOL     OW 9026   3.343   5.016   3.026 -0.4420  0.6841 -0.7885
 2930SOL    HW1 9027   3.334   4.957   2.952  0.3063  0.4285 -0.6866
 2930SOL    HW2 9028   3.411   4.976   3.080 -0.4521  1.2549 -0.3455
 2931SOL     OW 9029   0.127   2.324   5.493  0.0516 -0.3600  0.2387
 2931SOL    HW1 9030   0.070   2.277   5.432 -0.2325 -0.1364  0.3298
 2931SOL    HW2 9031   0.215   2.316   5.456  0.2899 -2.4391  1.1317
 2932SOL     OW 9032   4.567   2.961   1.111 -0.3178  0.2883 -0.0721
 2932SOL    HW1 9033   4.641   2.931   1.058 -1.1738 -0.7824 -0.6890
 2932SOL    HW2 9034   4.547   2.887   1.168 -1.0679  0.4923 -0.0660
 2933SOL     OW 9035   3.336   0.484   0.459 -0.2393 -0.1616  0.1959
 2933SOL    HW1 9036   3.425   0.448   0.461 -0.6310 -1.4853 -2.1912
 2933SOL    HW2 9037   3.347   0.575   0.485  1.4483 -0.8075  2.1401
 2934SOL     OW 9038   1.334   3.712   2.241  0.2440 -0.2235 -0.0208
 2934SOL    HW1 9039   1.366   3.671   2.160  2.9391 -0.4064  1.0367
 2934SOL    HW2 9040   1.389   3.675   2.310 -0.9786  1.0479  1.7276
 2935SOL     OW 9041   2.233   0.373   6.011  0.2792  0.0796 -0.0180
 2935SOL    HW1 9042   2.310   0.328   6.047 -0.1874  0.2677  1.2751
 2935SOL    HW2 9043   2.184   0.304   5.966  0.8762 -0.1699 -0.2980
 2936SOL     OW 9044   1.475   3.571   5.688 -0.1732  0.0729  0.0173
 2936SOL    HW1 9045   1.424   3.550   5.766  0.9463 -0.2201  0.7022
 2936SOL    HW2 9046   1.524   3.490   5.669  0.2534  0.4272 -0.4384
 2937SOL     OW 9047   2.185   3.246   2.090  0.1888  0.0501 -0.0774
 2937SOL    HW1 9048   2.182   3.339   2.113 -0.7855 -0.0173  0.1027
 2937SOL    HW2 9049   2.255   3.239   2.025  0.2885  0.8993 -0.0662
 2938SOL     OW 9050   1.519   4.983   1.246  0.1005  0.3298 -0.3859
 2938SOL    HW1 9051   1.424   4.992   1.245  0.1017  0.2951 -0.8007
 2938SOL    HW2 9052   1.541   4.941   1.163  0.5529  1.0920 -0.6683
 2939SOL     OW 9053   1.098   5.236   4.714 -0.5322 -0.2832 -0.2611
 2939SOL    HW1 9054   1.117   5.237   4.808 -1.8400  1.0198  0.0197
 2939SOL    HW2 9055   1.008   5.203   4.708 -0.8382  0.6451 -0.9557
 2940SOL     OW 9056   1.899   4.764   1.972 -0.1576  0.0275  0.0809
 2940SOL    HW1 9057   1.827   4.812   1.930 -1.5676 -0.3444  1.9423
 2940SOL    HW2 9058   1.892   4.675   1.935 -1.7906 -0.4728  1.4551
 2941SOL     OW 9059   5.044   4.408   2.611 -0.4195  0.1886 -0.6980
 2941SOL    HW1 9060   5.087   4.342   2.556 -0.1373  1.2464 -1.7715
 2941SOL    HW2 9061   5.064   4.491   2.570 -1.1902  0.9288  0.3641
 2942SOL     OW 9062   2.593   1.044   3.066  0.0685  0.0368  0.0190
 2942SOL    HW1 9063   2.517   1.023   3.011  0.7797  0.4615 -1.1600
 2942SOL    HW2 9064   2.556   1.089   3.142 -0.9149 -0.3819 -0.1977
 2943SOL     OW 9065   4.575   2.804   0.401  0.2592 -0.6476 -0.3347
 2943SOL    HW1 9066   4.498   2.755   0.431 -0.5245  0.9984  0.5141
 2943SOL    HW2 9067   4.553   2.830   0.311 -0.3484  0.0610 -0.0010
 2944SOL     OW 9068   2.842   5.398   2.892 -0.0971 -0.5562 -0.3530
 2944SOL    HW1 9069   2.811   5.402   2.983  3.0409  0.2858  0.8123
 2944SOL    HW2 9070   2.876   5.485   2.875 -0.6297 -0.7046 -2.4024
 2945SOL     OW 9071   5.768   0.504   4.403  0.0202  0.3341  0.8628
 2945SOL    HW1 9072   5.773   0.412   4.430  0.3073  0.1823  0.3052
 2945SOL    HW2 9073   5.697   0.541   4.455  0.4278 -0.0061  1.6735
 2946SOL     OW 9074   1.832   2.438   2.417  0.5508  0.8148 -0.0475
 2946SOL    HW1 9075   1.779   2.502   2.465  1.1560  1.2399  0.0723
 2946SOL    HW2 9076   1.830   2.359   2.471  0.4817  1.0040  0.2296
 2947SOL     OW 9077   2.702   3.486   3.093  0.4465  0.3187  0.2897
 2947SOL    HW1 9078   2.671   3.548   3.026 -0.3417 -0.8217 -0.4369
 2947SOL    HW2 9079   2.755   3.539   3.152  0.0363  1.6269 -0.4797
 2948SOL     OW 9080   4.753   4.278   3.630  0.0330  0.0478  0.4881
 2948SOL    HW1 9081   4.794   4.349   3.680 -0.8499  0.2091  1.0104
 2948SOL    HW2 9082   4.801   4.277   3.547  0.3548  0.9632  0.6425
 2949SOL     OW 9083   1.404   3.791   4.787 -0.4757  0.5839  0.0381
 2949SOL    HW1 9084   1.348   3.868   4.774 -0.8121  0.5874  1.3984
 2949SOL    HW2 9085   1.382   3.760   4.874  1.5296  0.4900  0.5551
 2950SOL     OW 9086   2.253   5.817   6.129 -0.2672  0.1145 -0.0262
 2950SOL    HW1 9087   2.244   5.824   6.224  0.9434 -1.5132  0.2588
 2950SOL    HW2 9088   2.164   5.801   6.097 -0.3873 -2.0966  1.1826
 2951SOL     OW 9089   2.467   3.035   0.723  0.0609 -0.4137  0.2625
 2951SOL    HW1 9090   2.384   3.078   0.742  0.3021 -0.4395  1.4378
 2951SOL    HW2 9091   2.442   2.948   0.692 -0.3640 -0.1233 -0.2346
 2952SOL     OW 9092   3.864   4.851   0.197  0.0625 -0.2137 -0.0474
 2952SOL    HW1 9093   3.866   4.758   0.174 -1.2655 -0.1941 -0.3639
 2952SOL    HW2 9094   3.865   4.896   0.113 -0.3978  0.0111  0.0638
 2953SOL     OW 9095   3.572   3.258   4.443  0.5572  0.7969  0.2091
 2953SOL    HW1 9096   3.632   3.269   4.517  1.1447 -1.2237  0.0844
 2953SOL    HW2 9097   3.555   3.164   4.439  0.8067  0.7851 -2.4280
 2954SOL     OW 9098   1.286   3.631   0.566  0.0794 -0.3044 -0.2564
 2954SOL    HW1 9099   1.262   3.546   0.529  1.2910  0.2371 -2.4583
 2954SOL    HW2 9100   1.355   3.664   0.509 -1.2206  2.7570 -0.2564
 2955SOL     OW 9101   4.748   1.789   0.643 -0.0920  0.0522 -0.6178
 2955SOL    HW1 9102   4.696   1.728   0.695  2.1550 -3.5312 -2.2275
 2955SOL    HW2 9103   4.838   1.774   0.670  0.9574 -0.5121 -3.9342
 2956SOL     OW 9104   3.608   3.373   2.754 -0.4150  0.2100 -0.4139
 2956SOL    HW1 9105   3.622   3.353   2.847 -2.8508  0.3233  0.0456
 2956SOL    HW2 9106   3.533   3.319   2.729  1.2405 -1.1510 -2.8624
 2957SOL     OW 9107   1.133   5.932   4.547  0.7582 -0.1753 -0.1014
 2957SOL    HW1 9108   1.047   5.892   4.537  0.1966  1.0778 -0.4888
 2957SOL    HW2 9109   1.159   5.910   4.637 -0.3653  0.1689  0.3236
 2958SOL     OW 9110   0.154   2.443   3.454 -0.8075  0.4937 -0.0108
 2958SOL    HW1 9111   0.133   2.525   3.409  1.6033  0.9714 -0.4141
 2958SOL    HW2 9112   0.178   2.382   3.384  0.7958  0.5445  0.4658
 2959SOL     OW 9113   3.894   3.860   3.054  0.1113 -0.2503  0.0836
 2959SOL    HW1 9114   3.870   3.936   3.000 -1.4259 -0.7813 -0.0235
 2959SOL    HW2 9115   3.850   3.875   3.138 -1.6680 -1.8295 -0.5106
 2960SOL     OW 9116   3.971   3.102   2.998  0.3163 -0.2694 -0.0524
 2960SOL    HW1 9117   3.964   3.194   2.972  1.1671 -0.7212 -2.0174
 2960SOL    HW2 9118   4.012   3.105   3.084  0.7655  1.1668 -0.2851
 2961SOL     OW 9119   1.338   2.800   2.927 -0.2343  0.1647  0.1828
 2961SOL    HW1 9120   1.431   2.788   2.947  0.1778 -0.7209 -1.9664
 2961SOL    HW2 9121   1.296   2.720   2.959  0.2910 -0.8972 -1.6730
 2962SOL     OW 9122   1.661   0.311   4.359 -0.1131 -0.2107  0.3613
 2962SOL    HW1 9123   1.628   0.400   4.361 -0.8662 -0.4706  0.0138
 2962SOL    HW2 9124   1.586   0.257   4.387  0.8782 -0.5904  2.5375
 2963SOL     OW 9125   2.896   4.856   2.535  0.0040 -0.3261 -0.2548
 2963SOL    HW1 9126   2.841   4.844   2.457 -1.1634 -0.2931  0.5479
 2963SOL    HW2 9127   2.835   4.873   2.606  0.9521 -1.8083  0.9822
 2964SOL     OW 9128   4.576   4.525   4.724 -0.2115 -0.2116  0.4032
 2964SOL    HW1 9129   4.495   4.533   4.774  0.0363  0.5963  0.6830
 2964SOL    HW2 9130   4.591   4.431   4.719 -0.6322 -0.3333  1.2194
 2965SOL     OW 9131   4.740   0.680   2.868 -0.1097  0.1802  0.2846
 2965SOL    HW1 9132   4.645   0.696   2.869 -0.1047  0.4055 -1.1861
 2965SOL    HW2 9133   4.767   0.695   2.958 -1.4422  0.3297  0.6860
 2966SOL     OW 9134   2.177   0.788   3.132  0.0515 -0.1103  0.0954
 2966SOL    HW1 9135   2.173   0.809   3.225  0.9794  0.2432  0.0657
 2966SOL    HW2 9136   2.236   0.712   3.127 -1.2050 -1.1087 -0.0630
 2967SOL     OW 9137   1.667   3.825   4.710  0.0887 -0.2443 -0.4870
 2967SOL    HW1 9138   1.688   3.917   4.695 -0.4550 -0.5377 -4.1536
 2967SOL    HW2 9139   1.575   3.825   4.736  0.9143  0.3122  2.8319
 2968SOL     OW 9140   3.726   0.657   5.900 -0.4258 -0.3749 -0.1575
 2968SOL    HW1 9141   3.771   0.672   5.817 -2.0263 -0.4484 -1.0784
 2968SOL    HW2 9142   3.747   0.566   5.923  0.2929 -0.2471 -0.3009
 2969SOL     OW 9143   4.101   4.726   4.847 -0.2355  0.2107 -0.3652
 2969SOL    HW1 9144   4.132   4.816   4.834 -0.0880  0.2597  0.2647
 2969SOL    HW2 9145   4.096   4.689   4.759  0.9283  0.4398 -0.5464
 2970SOL     OW 9146   2.802   2.935   1.374 -0.1416 -0.8624  0.1876
 2970SOL    HW1 9147   2.740   2.962   1.307  0.9254 -2.7186 -1.6709
 2970SOL    HW2 9148   2.767   2.853   1.408  0.6867 -1.3320 -0.0619
 2971SOL     OW 9149   3.341   5.853   5.964 -0.1718  0.5478  0.4746
 2971SOL    HW1 9150   3.340   5.842   5.869  0.0819 -0.9359  0.6236
 2971SOL    HW2 9151   3.402   5.787   5.995 -0.4078  0.8808  1.6952
 2972SOL     OW 9152   3.236   1.970   1.808  0.1456  0.5143  0.0927
 2972SOL    HW1 9153   3.287   1.944   1.731 -0.5144 -2.9756  0.6994
 2972SOL    HW2 9154   3.300   2.003   1.870  1.4608 -1.8351  0.0644
 2973SOL     OW 9155   3.281   5.664   2.642 -0.0872  0.4875 -0.3756
 2973SOL    HW1 9156   3.200   5.715   2.647  0.1141  0.7177  0.9621
 2973SOL    HW2 9157   3.258   5.588   2.589 -1.5650 -0.0760  0.9892
 2974SOL     OW 9158   3.386   5.941   3.205  0.0258  0.0063 -0.3248
 2974SOL    HW1 9159   3.344   5.859   3.228  0.9338 -0.1509  0.8947
 2974SOL    HW2 9160   3.316   6.006   3.211 -1.0535 -0.8158 -2.7282
 2975SOL     OW 9161   2.694   4.807   2.774 -0.4186 -0.6123  1.1807
 2975SOL    HW1 9162   2.626   4.755   2.817 -0.0874 -2.5950 -0.5341
 2975SOL    HW2 9163   2.645   4.871   2.721 -0.8487  0.1341  2.4424
 2976SOL     OW 9164   6.051   2.668   2.409 -0.2851  0.1629  0.4788
 2976SOL    HW1 9165   6.027   2.701   2.322 -0.5049 -0.6407  0.2250
 2976SOL    HW2 9166   6.102   2.589   2.391  0.2995  0.3905  1.0741
 2977SOL     OW 9167   4.626   2.252   0.914 -0.6999 -0.1494  0.6522
 2977SOL    HW1 9168   4.563   2.280   0.848 -1.1041 -1.4781  0.4428
 2977SOL    HW2 9169   4.710   2.251   0.868 -0.7788  0.1115  0.4993
 2978SOL     OW 9170   4.059   2.367   2.664  0.0722  0.0638 -0.2301
 2978SOL    HW1 9171   4.050   2.280   2.701 -0.0375  0.2742  0.2457
 2978SOL    HW2 9172   3.970   2.403   2.663  0.2541  0.5555  0.5424
 2979SOL     OW 9173   3.949   4.419   4.384  0.0016 -0.0013  0.0312
 2979SOL    HW1 9174   4.021   4.480   4.365  0.3353 -0.6858 -0.9955
 2979SOL    HW2 9175   3.992   4.335   4.398 -0.5397 -0.2259  0.3561
 2980SOL     OW 9176   5.644   3.783   4.474 -0.5337 -0.2716 -0.3708
 2980SOL    HW1 9177   5.584   3.856   4.488 -0.4822 -0.3174  0.1030
 2980SOL    HW2 9178   5.715   3.820   4.423 -0.2786  0.1333  0.2611
 2981SOL     OW 9179   5.948   3.440   3.542 -0.3257 -0.1227  0.1543
 2981SOL    HW1 9180   6.021   3.427   3.481  0.3768  0.3179  0.8880
 2981SOL    HW2 9181   5.871   3.409   3.494  0.1643  0.5097 -1.0730
 2982SOL     OW 9182   0.928   4.754   2.556  0.2009  0.4552  0.0899
 2982SOL    HW1 9183   0.833   4.761   2.556  0.2716  1.7089  0.4168
 2982SOL    HW2 9184   0.946   4.663   2.532 -1.0980 -0.3159  1.8668
 2983SOL     OW 9185   1.576   1.362   0.964  0.1538  0.2057  0.1951
 2983SOL    HW1 9186   1.664   1.400   0.961  0.6896 -1.0490 -0.7477
 2983SOL    HW2 9187   1.540   1.375   0.877 -1.5016  2.6377  1.1369
 2984SOL     OW 9188   3.317   5.808   1.609  0.4596  0.1004  0.2742
 2984SOL    HW1 9189   3.349   5.841   1.525 -0.7279  0.8231  0.0835
 2984SOL    HW2 9190   3.386   5.830   1.671  1.0708  0.1277 -0.4093
 2985SOL     OW 9191   3.109   5.776   5.722  0.2076 -0.0480 -0.4298
 2985SOL    HW1 9192   3.086   5.701   5.668 -1.8875  1.0735 -1.2246
 2985SOL    HW2 9193   3.093   5.747   5.812 -2.6610  0.0153 -0.8328
 2986SOL     OW 9194   5.543   2.643   3.388  1.0103  0.2816 -0.2737
 2986SOL    HW1 9195   5.611   2.660   3.453 -0.4274  1.0159  1.1094
 2986SOL    HW2 9196   5.530   2.548   3.391  0.6685  0.3534  0.8365
 2987SOL     OW 9197   4.581   5.486   5.606  0.2583 -0.7998 -0.0752
 2987SOL    HW1 9198   4.618   5.529   5.682 -1.5653 -3.0337  2.2555
 2987SOL    HW2 9199   4.615   5.396   5.610 -0.6933 -1.2504 -1.2797
 2988SOL     OW 9200   0.412   4.432   5.004 -0.3911 -0.0771  0.4652
 2988SOL    HW1 9201   0.332   4.380   5.011 -1.5175  1.4993 -0.0911
 2988SOL    HW2 9202   0.443   4.418   4.914 -0.5314  0.0040  0.4049
 2989SOL     OW 9203   0.420   2.413   1.749 -0.0791 -0.1375 -0.1584
 2989SOL    HW1 9204   0.348   2.363   1.711 -1.2404 -0.2715  2.0675
 2989SOL    HW2 9205   0.381   2.498   1.772  0.7399  0.1628  0.1670
 2990SOL     OW 9206   3.902   3.211   2.107  0.1903  0.0306  0.0665
 2990SOL    HW1 9207   3.810   3.225   2.125 -0.4181 -2.0612 -1.0031
 2990SOL    HW2 9208   3.905   3.191   2.013  1.8590  0.9608 -0.1153
 2991SOL     OW 9209   1.207   5.554   5.460 -0.1118  0.0602 -0.6721
 2991SOL    HW1 9210   1.297   5.563   5.428 -0.4495 -2.9269 -2.8173
 2991SOL    HW2 9211   1.216   5.555   5.556  2.4686 -1.7818 -0.7763
 2992SOL     OW 9212   2.004   1.551   3.849 -0.2297 -0.2393  0.8273
 2992SOL    HW1 9213   2.022   1.466   3.809 -2.5449 -0.1489 -0.5681
 2992SOL    HW2 9214   2.026   1.615   3.781 -3.5715 -0.0506 -0.2378
 2993SOL     OW 9215   2.998   2.126   4.982 -0.7018  0.0819 -0.1152
 2993SOL    HW1 9216   2.966   2.187   5.048 -0.0541  1.2394 -0.8407
 2993SOL    HW2 9217   3.043   2.057   5.032 -0.6621  0.6755  0.6706
 2994SOL     OW 9218   5.466   2.307   5.982  0.1416  0.2563  0.2651
 2994SOL    HW1 9219   5.494   2.348   5.900 -0.0492  0.6843  0.4118
 2994SOL    HW2 9220   5.414   2.374   6.027 -0.2209 -0.1615  0.4864
 2995SOL     OW 9221   0.714   4.763   5.993 -0.0028 -0.0496  0.7523
 2995SOL    HW1 9222   0.774   4.789   6.063 -0.9527 -0.2190  1.6566
 2995SOL    HW2 9223   0.652   4.704   6.035  1.2699 -2.7945 -0.9111
 2996SOL     OW 9224   0.810   1.552   2.242  0.2101  0.2729 -0.8945
 2996SOL    HW1 9225   0.860   1.628   2.273 -1.5593  1.5192 -0.9661
 2996SOL    HW2 9226   0.852   1.477   2.284  1.7551  1.3107 -0.4845
 2997SOL     OW 9227   0.110   2.389   0.230  0.2943  0.2792 -0.0058
 2997SOL    HW1 9228   0.026   2.362   0.267 -0.6418  2.7287 -0.2118
 2997SOL    HW2 9229   0.109   2.355   0.141 -1.5285  2.2041 -0.7813
 2998SOL     OW 9230   0.090   5.733   0.895 -0.0373  0.0117 -0.5378
 2998SOL    HW1 9231   0.028   5.765   0.829  0.8564 -1.1721 -2.0236
 2998SOL    HW2 9232   0.067   5.640   0.906  0.3831 -0.0103  0.1888
 2999SOL     OW 9233   1.355   1.281   1.419 -0.0153 -0.1453  0.5446
 2999SOL    HW1 9234   1.366   1.354   1.359  1.3070 -0.1710  0.7239
 2999SOL    HW2 9235   1.420   1.296   1.487 -1.8691  0.2232  2.3525
 3000SOL     OW 9236   2.492   3.011   3.092  0.2232 -0.0417 -0.4513
 3000SOL    HW1 9237   2.446   3.087   3.056  1.5176  1.1061  0.2106
 3000SOL    HW2 9238   2.423   2.957   3.130 -0.6230  1.6372  0.5255
 3001SOL     OW 9239   4.350   1.582   3.135  0.2604 -0.1665  0.4762
 3001SOL    HW1 9240   4.337   1.523   3.209  0.6277  1.7757  2.1856
 3001SOL    HW2 9241   4.327   1.668   3.169 -0.0496  0.7418 -1.8480
 3002SOL     OW 9242   3.860   2.403   1.466 -0.2477 -0.2727 -0.0220
 3002SOL    HW1 9243   3.831   2.317   1.436 -1.8393  0.4765 -0.7585
 3002SOL    HW2 9244   3.788   2.436   1.519  0.4943  0.4805  0.5538
 3003SOL     OW 9245   0.316   5.307   5.378  0.9529  0.2546 -0.2129
 3003SOL    HW1 9246   0.250   5.327   5.444  0.0773  1.4006 -1.3887
 3003SOL    HW2 9247   0.396   5.348   5.411  0.0724  2.5546 -0.7237
 3004SOL     OW 9248   0.313   2.024   0.832  0.1681  0.1379 -0.3788
 3004SOL    HW1 9249   0.312   1.932   0.858  0.0186  0.2964  0.1820
 3004SOL    HW2 9250   0.380   2.064   0.887 -1.3034  0.8175  0.9647
 3005SOL     OW 9251   4.852   6.135   2.634  0.2312 -0.2722 -0.5287
 3005SOL    HW1 9252   4.923   6.196   2.653  0.6770 -0.4747 -1.5332
 3005SOL    HW2 9253   4.867   6.106   2.545 -1.6011  0.3370 -1.0899
 3006SOL     OW 9254   5.966   1.165   2.749 -0.1403 -0.0150  0.4099
 3006SOL    HW1 9255   5.876   1.194   2.769 -1.0062 -1.5298 -1.0328
 3006SOL    HW2 9256   5.974   1.176   2.654  0.6580 -1.2846  0.3076
 3007SOL     OW 9257   3.262   5.114   1.677  0.4815 -0.2156 -0.3825
 3007SOL    HW1 9258   3.282   5.086   1.767  0.9775  0.6658 -0.2065
 3007SOL    HW2 9259   3.347   5.131   1.638  0.2656 -0.5836 -1.0309
 3008SOL     OW 9260   1.422   5.484   4.391 -0.2953  0.0243  0.1145
 3008SOL    HW1 9261   1.374   5.401   4.379  0.7075 -0.5279 -0.2104
 3008SOL    HW2 9262   1.436   5.491   4.485 -2.9429  1.3369  0.5019
 3009SOL     OW 9263   0.489   2.269   4.486 -0.0614  0.0760 -0.1143
 3009SOL    HW1 9264   0.518   2.210   4.556  0.6738 -1.0931 -1.3417
 3009SOL    HW2 9265   0.565   2.323   4.467 -0.4453  0.8020  0.3692
 3010SOL     OW 9266   6.118   0.567   0.480  0.4297 -0.1951  0.2705
 3010SOL    HW1 9267   6.169   0.637   0.522  0.8715 -0.3635  0.0158
 3010SOL    HW2 9268   6.183   0.503   0.452  0.0517 -0.5615  0.2154
 3011SOL     OW 9269   1.034   5.128   5.812 -0.4238  0.0463 -0.5703
 3011SOL    HW1 9270   1.012   5.214   5.777 -0.2244  0.4391  0.2657
 3011SOL    HW2 9271   1.070   5.080   5.737  1.2774  1.3180 -0.5938
 3012SOL     OW 9272   1.819   3.890   5.070 -0.1005 -0.2544 -0.3475
 3012SOL    HW1 9273   1.777   3.820   5.121  0.2388 -0.1672  0.0557
 3012SOL    HW2 9274   1.864   3.844   4.999 -2.2708 -0.2509 -1.8345
 3013SOL     OW 9275   2.884   1.407   0.080 -0.1796 -0.4521  0.0075
 3013SOL    HW1 9276   2.837   1.467   0.021 -2.2589 -1.2927  0.6915
 3013SOL    HW2 9277   2.894   1.456   0.161  1.1559  0.1105 -0.4769
 3014SOL     OW 9278   5.226   3.069   0.701  0.2685  0.0611 -0.1577
 3014SOL    HW1 9279   5.266   3.011   0.766 -1.2741  1.3197  2.0678
 3014SOL    HW2 9280   5.159   3.015   0.658  0.1592 -0.3513  0.5123
 3015SOL     OW 9281   4.258   3.041   5.896 -0.1789 -0.6659  0.1837
 3015SOL    HW1 9282   4.235   3.100   5.967  0.6232  1.2878 -1.0743
 3015SOL    HW2 9283   4.182   2.984   5.885  0.0565 -1.7165  3.1824
 3016SOL     OW 9284   0.732   4.163   1.244 -0.8952 -0.4800 -0.5057
 3016SOL    HW1 9285   0.638   4.163   1.259 -0.5994 -1.6358  1.7279
 3016SOL    HW2 9286   0.765   4.087   1.292  1.4638  1.2849  0.9509
 3017SOL     OW 9287   1.257   5.007   1.294  0.4726  0.2448 -0.1432
 3017SOL    HW1 9288   1.212   5.085   1.264 -1.8876 -0.4764  1.2233
 3017SOL    HW2 9289   1.250   4.945   1.221  0.4831  0.6227 -0.4641
 3018SOL     OW 9290   4.769   0.420   4.832 -0.6256  0.5169 -0.0654
 3018SOL    HW1 9291   4.723   0.402   4.751 -1.5114 -0.1930  0.5802
 3018SOL    HW2 9292   4.714   0.383   4.901  0.0648  1.1656  0.8773
 3019SOL     OW 9293   0.846   1.884   1.248  0.1789 -0.3124 -0.3965
 3019SOL    HW1 9294   0.811   1.893   1.159  0.7676 -1.5756 -0.7775
 3019SOL    HW2 9295   0.898   1.804   1.245 -0.5774 -0.8951  1.3569
 3020SOL     OW 9296   1.691   3.219   0.241  0.2779  0.4429  0.1956
 3020SOL    HW1 9297   1.765   3.167   0.210 -0.7868 -0.8658 -0.2338
 3020SOL    HW2 9298   1.622   3.202   0.177 -0.5428  1.2825  0.8363
 3021SOL     OW 9299   5.669   1.965   2.191  0.1973  0.4306 -0.6713
 3021SOL    HW1 9300   5.746   1.967   2.134 -0.6104  0.5824 -1.8010
 3021SOL    HW2 9301   5.612   2.033   2.156 -1.2206 -0.8757 -1.0196
 3022SOL     OW 9302   0.529   2.759   5.834 -0.3325  0.3159  0.2306
 3022SOL    HW1 9303   0.462   2.692   5.845  0.5373 -0.4926  0.7809
 3022SOL    HW2 9304   0.538   2.799   5.920 -0.1235  0.4477  0.1495
 3023SOL     OW 9305   4.884   1.681   2.929  0.1493  0.7817  0.2541
 3023SOL    HW1 9306   4.975   1.663   2.904  0.6086  1.0219  1.6394
 3023SOL    HW2 9307   4.873   1.775   2.912  0.8190  1.1917  1.9264
 3024SOL     OW 9308   2.577   2.287   3.475  0.0717 -0.2949  0.0059
 3024SOL    HW1 9309   2.547   2.200   3.450 -0.4294 -0.1339  0.0225
 3024SOL    HW2 9310   2.507   2.321   3.532  0.1064  0.2345 -0.2577
 3025SOL     OW 9311   5.200   2.745   3.844 -0.2023  0.0630  0.4600
 3025SOL    HW1 9312   5.151   2.666   3.822  1.8555 -1.3445  0.6404
 3025SOL    HW2 9313   5.257   2.760   3.768 -0.6592  1.4903  0.3649
 3026SOL     OW 9314   3.798   5.366   2.033 -0.2280 -0.0177 -0.3305
 3026SOL    HW1 9315   3.758   5.301   1.975  0.5892  0.7428 -1.7965
 3026SOL    HW2 9316   3.879   5.324   2.063 -1.0490 -0.7364  0.9707
 3027SOL     OW 9317   1.550   0.911   1.465 -0.0887  0.9501  0.0553
 3027SOL    HW1 9318   1.600   0.949   1.537 -0.2051 -0.2568  0.8055
 3027SOL    HW2 9319   1.613   0.857   1.418 -0.2201  1.0373 -0.2247
 3028SOL     OW 9320   4.911   2.918   0.768  0.1667 -0.0638  0.1963
 3028SOL    HW1 9321   4.887   2.927   0.676 -1.7857  0.1400  0.6873
 3028SOL    HW2 9322   4.969   2.842   0.770  2.6073  1.6005 -1.5482
 3029SOL     OW 9323   3.578   1.345   5.704  0.0246 -0.2011  0.5123
 3029SOL    HW1 9324   3.537   1.427   5.676 -0.6382 -0.8361 -0.4327
 3029SOL    HW2 9325   3.535   1.277   5.652 -0.1915 -1.2847  2.0308
 3030SOL     OW 9326   3.082   2.813   1.535 -0.4080  0.5241 -0.0156
 3030SOL    HW1 9327   3.067   2.723   1.563 -4.6385  1.1631  0.4437
 3030SOL    HW2 9328   3.054   2.815   1.444  1.0600  1.1213 -0.4753
 3031SOL     OW 9329   3.231   2.854   2.173 -0.0304  0.3691  0.0145
 3031SOL    HW1 9330   3.271   2.919   2.114  0.8650 -1.7575 -1.8802
 3031SOL    HW2 9331   3.172   2.905   2.228 -1.1820  2.5436 -2.9331
 3032SOL     OW 9332   2.889   5.342   0.107  0.7249 -0.5634 -0.1151
 3032SOL    HW1 9333   2.833   5.377   0.038  0.3156 -2.5268 -0.8500
 3032SOL    HW2 9334   2.971   5.318   0.062  1.0343 -0.4436  0.3745
 3033SOL     OW 9335   3.757   0.281   1.540 -0.3778  0.0502  0.5510
 3033SOL    HW1 9336   3.835   0.273   1.594  0.4767 -1.9061 -0.8415
 3033SOL    HW2 9337   3.778   0.347   1.475 -0.8288  1.2631  1.5876
 3034SOL     OW 9338   5.894   5.338   4.072  0.1090  0.3408  0.0593
 3034SOL    HW1 9339   5.914   5.425   4.106  1.2610 -0.1569  0.6989
 3034SOL    HW2 9340   5.916   5.279   4.144  2.0383 -0.7062 -1.3000
 3035SOL     OW 9341   2.551   4.426   3.744  0.2811  0.1890 -0.4821
 3035SOL    HW1 9342   2.643   4.404   3.762  0.6799  1.0886 -1.3821
 3035SOL    HW2 9343   2.521   4.356   3.686  0.5096  0.1197 -0.5191
 3036SOL     OW 9344   5.534   5.061   5.521  0.3458  0.2440 -0.1350
 3036SOL    HW1 9345   5.475   5.021   5.585  0.7644 -0.3325 -0.1052
 3036SOL    HW2 9346   5.476   5.114   5.465 -0.0553  0.5369  0.5441
 3037SOL     OW 9347   5.502   0.942   4.312 -0.0554 -0.3109 -0.1390
 3037SOL    HW1 9348   5.533   1.031   4.291  0.4879 -0.2566  0.8161
 3037SOL    HW2 9349   5.455   0.914   4.234  0.3129  0.5764 -0.6998
 3038SOL     OW 9350   0.788   5.831   0.345 -0.5909 -0.3708  0.0218
 3038SOL    HW1 9351   0.719   5.837   0.279 -1.0938 -1.4822  0.4316
 3038SOL    HW2 9352   0.828   5.919   0.346  0.2857 -0.6583 -2.6405
 3039SOL     OW 9353   3.658   0.942   0.973  0.5530 -0.2229  0.2758
 3039SOL    HW1 9354   3.703   0.987   1.044 -0.5113  0.3802  0.6014
 3039SOL    HW2 9355   3.593   0.887   1.017 -0.2303  0.2818 -0.2115
 3040SOL     OW 9356   4.615   6.000   4.513 -0.1053 -0.9792  0.3666
 3040SOL    HW1 9357   4.707   6.016   4.495 -0.3254 -0.0075 -0.0053
 3040SOL    HW2 9358   4.578   6.088   4.526 -1.0030 -1.3421  0.3422
 3041SOL     OW 9359   4.159   2.379   1.452 -0.3339  0.3350 -0.8916
 3041SOL    HW1 9360   4.076   2.397   1.497  0.5734 -0.8565  1.4704
 3041SOL    HW2 9361   4.152   2.288   1.424  0.5218 -0.1279  0.2974
 3042SOL     OW 9362   4.638   5.142   5.342 -0.1260  0.2160 -0.5569
 3042SOL    HW1 9363   4.670   5.157   5.430  0.1497 -0.3613 -0.5539
 3042SOL    HW2 9364   4.676   5.212   5.290  1.4675 -0.6538 -0.6249
 3043SOL     OW 9365   4.455   1.640   5.037  0.0128 -0.2388  0.0692
 3043SOL    HW1 9366   4.380   1.696   5.017 -1.3872 -1.5252  1.4570
 3043SOL    HW2 9367   4.482   1.606   4.952 -1.2069 -0.0099 -0.4355
 3044SOL     OW 9368   3.760   4.705   3.083  0.9709  0.5510  0.1974
 3044SOL    HW1 9369   3.806   4.621   3.090  0.4107  0.1824 -0.4482
 3044SOL    HW2 9370   3.700   4.705   3.157  1.2586  0.5677  0.4336
 3045SOL     OW 9371   5.064   0.306   2.380 -0.0844 -0.7096  0.3147
 3045SOL    HW1 9372   5.139   0.327   2.435  0.0897  0.5661 -0.3611
 3045SOL    HW2 9373   5.053   0.383   2.324 -2.5070 -0.4388  1.0506
 3046SOL     OW 9374   6.102   0.421   2.927 -0.7639  0.0479  0.2802
 3046SOL    HW1 9375   6.053   0.427   2.845  2.1850  2.0339 -1.5128
 3046SOL    HW2 9376   6.143   0.335   2.924 -0.9843 -0.0458 -0.1387
 3047SOL     OW 9377   2.849   6.007   1.104 -0.0892 -0.0454 -0.0364
 3047SOL    HW1 9378   2.874   5.978   1.192  0.1973  1.3979  0.3814
 3047SOL    HW2 9379   2.799   5.934   1.068 -2.0498  0.1234  2.1236
 3048SOL     OW 9380   2.511   3.561   1.421  0.3428  0.0346  0.4043
 3048SOL    HW1 9381   2.597   3.565   1.378 -0.2446 -0.0350 -0.8164
 3048SOL    HW2 9382   2.513   3.479   1.470  1.2634  0.4217  1.0473
 3049SOL     OW 9383   0.252   4.002   3.582  0.2523  0.6852 -0.0620
 3049SOL    HW1 9384   0.291   4.063   3.646 -1.2030  1.5466  0.0624
 3049SOL    HW2 9385   0.161   4.032   3.574  0.1463 -0.0148 -1.8208
 3050SOL     OW 9386   3.673   5.760   2.156  0.4234  0.5991 -0.3638
 3050SOL    HW1 9387   3.676   5.665   2.167 -1.5927  0.2194 -2.4149
 3050SOL    HW2 9388   3.741   5.793   2.216  1.4411 -2.1164  0.1261
 3051SOL     OW 9389   3.939   3.112   4.169  0.1607 -0.5670 -0.1262
 3051SOL    HW1 9390   3.977   3.071   4.091  0.0580  0.6231 -0.8349
 3051SOL    HW2 9391   3.848   3.081   4.171 -0.3947  0.8053 -1.5778
 3052SOL     OW 9392   1.336   2.278   4.287 -0.3132  0.4951  0.1325
 3052SOL    HW1 9393   1.370   2.351   4.338 -0.6794  0.9101 -0.2100
 3052SOL    HW2 9394   1.263   2.244   4.339  0.3312 -0.1193  0.6577
 3053SOL     OW 9395   5.090   4.845   5.773  0.3367  0.2018 -0.8503
 3053SOL    HW1 9396   5.106   4.751   5.758 -0.2555  0.0318 -0.4350
 3053SOL    HW2 9397   5.131   4.863   5.857 -1.5619 -0.2381  0.2256
 3054SOL     OW 9398   4.051   4.813   2.998  0.2243 -0.5645 -0.2519
 3054SOL    HW1 9399   4.033   4.861   2.918 -0.8310 -0.8981 -0.2366
 3054SOL    HW2 9400   4.026   4.723   2.978 -0.5128 -0.5658  0.5778
 3055SOL     OW 9401   1.271   1.916   2.682  0.1210  0.3748 -0.1901
 3055SOL    HW1 9402   1.180   1.945   2.687  0.1050  0.7019 -1.6711
 3055SOL    HW2 9403   1.270   1.826   2.713 -0.3526  0.9745  1.6630
 3056SOL     OW 9404   4.203   1.976   3.273  0.2773  0.1745 -0.3251
 3056SOL    HW1 9405   4.188   1.884   3.294  2.7821  0.0423  1.1870
 3056SOL    HW2 9406   4.117   2.017   3.283 -0.8285 -1.9003 -0.7376
 3057SOL     OW 9407   5.307   1.262   1.118  0.0995  0.0260 -0.1543
 3057SOL    HW1 9408   5.362   1.240   1.193  1.6165  2.8256 -0.3159
 3057SOL    HW2 9409   5.242   1.192   1.115  1.9962 -1.9692  1.7143
 3058SOL     OW 9410   3.513   1.322   5.352  0.1150 -0.3868 -0.2997
 3058SOL    HW1 9411   3.536   1.380   5.424  0.2213 -0.7344 -0.0460
 3058SOL    HW2 9412   3.427   1.353   5.323  0.7695  0.7550 -1.0906
 3059SOL     OW 9413   0.840   0.056   5.739 -0.2773 -0.2218  0.9418
 3059SOL    HW1 9414   0.839  -0.038   5.722 -1.9579 -0.1879  0.6910
 3059SOL    HW2 9415   0.867   0.095   5.656 -0.2203 -0.4572  0.8491
 3060SOL     OW 9416   2.406   5.175   6.037  0.2986 -0.1389 -0.2226
 3060SOL    HW1 9417   2.450   5.184   6.121 -0.7199  0.7468  0.2333
 3060SOL    HW2 9418   2.324   5.224   6.046 -0.1094 -0.5132 -1.5319
 3061SOL     OW 9419   4.266   4.290   0.837 -0.1107  0.1180  0.1363
 3061SOL    HW1 9420   4.179   4.319   0.866 -1.1343 -0.4571 -2.0633
 3061SOL    HW2 9421   4.300   4.365   0.788 -0.3038 -0.3705 -0.7697
 3062SOL     OW 9422   2.156   0.341   1.109 -0.2289 -0.3732  0.1786
 3062SOL    HW1 9423   2.102   0.343   1.030  0.3445 -1.0462 -0.2365
 3062SOL    HW2 9424   2.109   0.283   1.169 -2.1192  2.2313  1.4443
 3063SOL     OW 9425   5.924   5.645   0.819  0.1629 -0.1401  0.7652
 3063SOL    HW1 9426   5.957   5.582   0.755  0.9585 -0.5873  1.5927
 3063SOL    HW2 9427   5.909   5.725   0.768  0.9150 -0.4432  0.0408
 3064SOL     OW 9428   3.649   2.230   1.298  0.1543  0.1555 -0.3302
 3064SOL    HW1 9429   3.610   2.144   1.281  0.2074  0.1701 -0.5345
 3064SOL    HW2 9430   3.739   2.222   1.267 -0.1169  0.5792 -1.2585
 3065SOL     OW 9431   4.254   1.511   1.347  0.2748  0.5457  0.3209
 3065SOL    HW1 9432   4.304   1.572   1.293  2.1123  0.5483  1.9114
 3065SOL    HW2 9433   4.222   1.445   1.286  1.3166  1.1487 -0.9100
 3066SOL     OW 9434   3.938   5.247   3.024 -0.1580 -0.0429 -0.2909
 3066SOL    HW1 9435   3.985   5.330   3.017  1.9033 -1.1282  0.0240
 3066SOL    HW2 9436   3.898   5.235   2.938  0.4493  0.7537 -0.7038
 3067SOL     OW 9437   0.273   1.904   6.080  0.1150  0.7595 -0.3964
 3067SOL    HW1 9438   0.208   1.834   6.082 -0.6565  1.4205 -1.0770
 3067SOL    HW2 9439   0.321   1.890   5.998  0.9649  0.1729  0.1876
 3068SOL     OW 9440   4.026   0.552   2.486 -0.3634  0.0731 -0.0306
 3068SOL    HW1 9441   3.945   0.500   2.483 -0.7262  0.5816  0.5851
 3068SOL    HW2 9442   4.052   0.551   2.578 -0.2430  0.7725 -0.0476
 3069SOL     OW 9443   2.631   1.615   2.623  0.2738 -0.2116  0.3543
 3069SOL    HW1 9444   2.573   1.583   2.554 -0.7223 -0.2056  1.1649
 3069SOL    HW2 9445   2.580   1.606   2.704  0.3135  2.4028  0.7619
 3070SOL     OW 9446   3.506   1.317   6.064 -0.4836  0.0951  0.7357
 3070SOL    HW1 9447   3.426   1.370   6.061 -0.9797 -0.5831  1.6959
 3070SOL    HW2 9448   3.503   1.265   5.984 -1.9163 -1.2054  1.5882
 3071SOL     OW 9449   0.276   1.609   5.353 -0.0900  0.6337  0.2627
 3071SOL    HW1 9450   0.258   1.523   5.315  0.0117  0.6937  0.0786
 3071SOL    HW2 9451   0.334   1.592   5.426 -1.9619  0.2719  1.7435
 3072SOL     OW 9452   3.110   2.902   3.287 -0.4073 -0.1881  0.1714
 3072SOL    HW1 9453   3.157   2.934   3.210  0.5016 -0.5834  0.5483
 3072SOL    HW2 9454   3.175   2.904   3.357 -1.5003  1.2104  1.2073
 3073SOL     OW 9455   4.995   3.019   5.810  0.0124 -0.5712  0.0633
 3073SOL    HW1 9456   4.965   2.935   5.774  1.1475 -1.1797  0.4627
 3073SOL    HW2 9457   5.059   3.051   5.746  2.0634 -1.6719  1.4325
 3074SOL     OW 9458   3.646   1.120   1.453 -0.0587 -0.2650  0.0845
 3074SOL    HW1 9459   3.616   1.078   1.533  1.6701 -0.1980  0.8181
 3074SOL    HW2 9460   3.666   1.210   1.479 -0.4819  0.0504 -0.6649
 3075SOL     OW 9461   3.211   2.573   6.085  0.2143 -0.0837 -0.1778
 3075SOL    HW1 9462   3.141   2.576   6.150 -0.3957  1.4263 -0.8810
 3075SOL    HW2 9463   3.201   2.653   6.034 -0.0522 -1.7323 -2.9247
 3076SOL     OW 9464   5.561   0.544   3.521 -0.8629 -0.3090 -0.0897
 3076SOL    HW1 9465   5.572   0.454   3.491 -0.4970 -0.4110  0.3426
 3076SOL    HW2 9466   5.513   0.588   3.451 -2.2068 -1.1742  0.2616
 3077SOL     OW 9467   3.292   0.814   0.261 -0.3379 -1.2863 -0.0045
 3077SOL    HW1 9468   3.377   0.772   0.253  0.0032 -1.0476  1.9072
 3077SOL    HW2 9469   3.250   0.769   0.334 -1.1925 -0.3312  0.1139
 3078SOL     OW 9470   1.976   5.902   4.515 -0.4582 -0.0462 -0.3109
 3078SOL    HW1 9471   1.999   5.967   4.448 -0.1685 -1.2063 -1.3865
 3078SOL    HW2 9472   2.059   5.863   4.540 -0.5938  0.2140  0.5809
 3079SOL     OW 9473   5.220   0.366   3.486 -0.2275 -0.0285 -0.0892
 3079SOL    HW1 9474   5.225   0.385   3.579  0.4864 -2.1640  0.3698
 3079SOL    HW2 9475   5.137   0.404   3.458  0.2575  1.9809  1.0366
 3080SOL     OW 9476   0.591   0.655   1.403  0.2978  0.0994  0.1344
 3080SOL    HW1 9477   0.665   0.681   1.458 -0.0069  1.7071 -0.1754
 3080SOL    HW2 9478   0.526   0.620   1.465  0.5810  0.4269  0.6195
 3081SOL     OW 9479   3.494   0.944   2.888  0.7573 -0.5819  0.0300
 3081SOL    HW1 9480   3.534   0.926   2.802 -2.4318 -1.8244 -1.3451
 3081SOL    HW2 9481   3.419   1.000   2.869  0.8175  0.3487  2.2489
 3082SOL     OW 9482   3.480   0.383   1.894  0.2571  0.1274  0.0256
 3082SOL    HW1 9483   3.539   0.319   1.855  1.0649  1.0248 -0.2850
 3082SOL    HW2 9484   3.524   0.410   1.975 -0.4790 -0.3157  0.5836
 3083SOL     OW 9485   3.026   0.979   0.582  0.5337 -0.6088 -0.1049
 3083SOL    HW1 9486   2.967   0.959   0.654  0.3745 -2.5099 -0.7249
 3083SOL    HW2 9487   2.970   1.023   0.517  0.7117  1.2521  0.9254
 3084SOL     OW 9488   4.658   3.521   1.214  0.1516  0.7265 -0.8235
 3084SOL    HW1 9489   4.611   3.484   1.139 -0.3752  0.2183 -0.2504
 3084SOL    HW2 9490   4.653   3.616   1.201 -0.4533  0.6602 -1.1109
 3085SOL     OW 9491   2.714   5.251   1.852  0.6282 -0.2285 -0.0589
 3085SOL    HW1 9492   2.791   5.308   1.855  1.2502 -1.0554  2.7043
 3085SOL    HW2 9493   2.647   5.298   1.902 -0.1547 -0.2641 -1.0287
 3086SOL     OW 9494   2.282   5.924   0.448 -0.1945  0.3565 -0.2153
 3086SOL    HW1 9495   2.300   5.875   0.527 -0.0625 -1.0711 -1.0979
 3086SOL    HW2 9496   2.367   5.959   0.421 -0.3680  1.5190  0.6736
 3087SOL     OW 9497   0.293   5.158   4.381 -0.2752  0.5847  0.3479
 3087SOL    HW1 9498   0.210   5.116   4.403  0.4347 -2.5259 -2.1940
 3087SOL    HW2 9499   0.358   5.089   4.391  1.5951  2.1476 -0.4490
 3088SOL     OW 9500   3.390   0.588   5.992  0.1518  0.1014  0.3612
 3088SOL    HW1 9501   3.396   0.542   6.076 -2.9205 -0.6361  0.3152
 3088SOL    HW2 9502   3.412   0.679   6.012  1.0959 -0.3838  1.5973
 3089SOL     OW 9503   4.233   2.768   2.447 -0.4508  0.4409 -0.4841
 3089SOL    HW1 9504   4.260   2.781   2.538 -1.5297  3.5558 -0.4638
 3089SOL    HW2 9505   4.208   2.676   2.442  1.4651 -0.3054  1.8151
 3090SOL     OW 9506   0.238   1.191   4.716  0.0732  0.2598 -0.1684
 3090SOL    HW1 9507   0.313   1.135   4.738  0.8898  1.5602  0.4467
 3090SOL    HW2 9508   0.255   1.219   4.626  0.5520  0.8884  0.1130
 3091SOL     OW 9509   3.090   4.931   4.825  0.1847  0.1675  0.0335
 3091SOL    HW1 9510   3.067   4.849   4.781 -0.0185 -0.6691  1.6131
 3091SOL    HW2 9511   3.146   4.977   4.763 -1.4537 -0.1573 -1.7745
 3092SOL     OW 9512   2.831   4.132   5.714  0.6593 -0.7343  0.2355
 3092SOL    HW1 9513   2.875   4.116   5.630 -0.4049 -0.2711 -0.4362
 3092SOL    HW2 9514   2.870   4.213   5.747 -0.3134  0.2113 -0.8272
 3093SOL     OW 9515   5.731   3.641   0.919 -0.2940 -0.2520 -0.0384
 3093SOL    HW1 9516   5.799   3.607   0.977 -1.4749 -2.2018  0.2883
 3093SOL    HW2 9517   5.744   3.593   0.837 -0.4824  0.3282 -0.4115
 3094SOL     OW 9518   1.198   3.349   0.002  0.1023  0.0728 -0.2413
 3094SOL    HW1 9519   1.135   3.281  -0.023  0.6711 -1.1538  1.4676
 3094SOL    HW2 9520   1.165   3.384   0.084 -0.1140  1.8319 -1.0383
 3095SOL     OW 9521   5.779   3.479   0.682  0.2342  0.0858  0.2397
 3095SOL    HW1 9522   5.749   3.396   0.718 -0.1141  0.6160  1.2187
 3095SOL    HW2 9523   5.866   3.460   0.646 -0.3190 -0.9456 -0.5837
 3096SOL     OW 9524   3.046   3.179   0.801 -0.1097 -0.1230 -0.0157
 3096SOL    HW1 9525   3.022   3.097   0.843  1.5141  0.4747  2.2838
 3096SOL    HW2 9526   3.107   3.153   0.732  0.0747 -0.8819  0.4195
 3097SOL     OW 9527   2.767   3.221   1.833 -0.8256  0.4557 -0.2125
 3097SOL    HW1 9528   2.701   3.220   1.902  0.8631  0.9894  1.5108
 3097SOL    HW2 9529   2.814   3.138   1.843 -0.5047  0.5818 -0.6393
 3098SOL     OW 9530   2.738   1.568   3.139  0.3441 -0.3566 -0.5234
 3098SOL    HW1 9531   2.763   1.654   3.107 -1.3224  0.4551  0.2186
 3098SOL    HW2 9532   2.644   1.562   3.121  0.2138 -1.5892  0.4038
 3099SOL     OW 9533   1.327   2.152   2.515 -0.0101  0.2977 -0.0515
 3099SOL    HW1 9534   1.347   2.072   2.565  0.6295  1.2265  1.2405
 3099SOL    HW2 9535   1.247   2.131   2.467  1.2253 -1.7962 -1.3458
 3100SOL     OW 9536   5.095   2.720   0.779 -0.3801  0.5277 -0.2234
 3100SOL    HW1 9537   5.126   2.689   0.694 -0.6056  0.5853 -0.3271
 3100SOL    HW2 9538   5.097   2.642   0.834 -1.0715  0.2972 -0.5192
 3101SOL     OW 9539   0.383   0.825   4.740  0.1500 -0.0986  0.1140
 3101SOL    HW1 9540   0.300   0.785   4.716 -0.0389  0.0407  0.5277
 3101SOL    HW2 9541   0.401   0.794   4.828  0.3582  0.1532  0.1631
 3102SOL     OW 9542   4.031   1.803   5.456  0.5557  0.4062 -0.1690
 3102SOL    HW1 9543   4.098   1.789   5.522 -0.5929  2.0188  1.4368
 3102SOL    HW2 9544   3.976   1.724   5.459 -0.6514  1.2622  2.3061
 3103SOL     OW 9545   5.404   5.897   0.322 -0.4728  0.2634 -0.1001
 3103SOL    HW1 9546   5.333   5.906   0.386 -0.7470  0.3228 -0.4082
 3103SOL    HW2 9547   5.367   5.842   0.253  0.5617 -1.7109  0.8464
 3104SOL     OW 9548   1.378   0.262   1.034  0.0994 -0.4581 -0.5044
 3104SOL    HW1 9549   1.350   0.294   1.120 -0.7214  0.7489 -1.1982
 3104SOL    HW2 9550   1.321   0.186   1.017 -0.5530  0.0230 -0.4920
 3105SOL     OW 9551   5.098   3.472   0.015  0.2788 -0.5367  0.1316
 3105SOL    HW1 9552   5.172   3.513  -0.030  0.9183 -2.0401 -0.2653
 3105SOL    HW2 9553   5.036   3.451  -0.055  0.7231 -1.7602  0.0865
 3106SOL     OW 9554   0.105   4.406   5.838  0.5540  0.2935  0.5620
 3106SOL    HW1 9555   0.195   4.390   5.870  0.3443 -2.2284  0.1062
 3106SOL    HW2 9556   0.111   4.488   5.789  2.1900  1.1304  2.0243
 3107SOL     OW 9557   3.117   1.716   2.502 -0.1345 -0.0205  0.6275
 3107SOL    HW1 9558   3.159   1.631   2.508  0.0034  0.0078  0.0948
 3107SOL    HW2 9559   3.024   1.699   2.516 -0.4808 -0.6391 -2.0340
 3108SOL     OW 9560   0.941   1.733   0.724  0.3915  0.3285  0.2492
 3108SOL    HW1 9561   0.976   1.768   0.806 -0.0757  1.7691 -0.1386
 3108SOL    HW2 9562   0.865   1.788   0.705  0.4320 -0.0523 -1.1026
 3109SOL     OW 9563   3.268   2.215   0.061  0.1171 -0.1894  0.5195
 3109SOL    HW1 9564   3.245   2.254  -0.024 -0.1898 -0.6251  0.3972
 3109SOL    HW2 9565   3.304   2.287   0.112 -0.3576  0.2298  0.2641
 3110SOL     OW 9566   3.653   5.099   4.892  0.0477  0.2272  0.7664
 3110SOL    HW1 9567   3.715   5.029   4.870 -1.0718 -0.3047 -0.8137
 3110SOL    HW2 9568   3.709   5.171   4.922  1.6226  0.3295 -2.0544
 3111SOL     OW 9569   4.255   0.672   5.839 -0.0027  0.1648  0.2688
 3111SOL    HW1 9570   4.313   0.595   5.834 -0.0480  0.1835 -0.7170
 3111SOL    HW2 9571   4.314   0.745   5.856  0.0996 -0.0192  0.7084
 3112SOL     OW 9572   4.309   1.733   1.883 -0.0639 -0.3572 -0.0374
 3112SOL    HW1 9573   4.242   1.667   1.870  0.7781 -1.1104 -0.6638
 3112SOL    HW2 9574   4.337   1.721   1.974 -1.8678  1.0354  0.7588
 3113SOL     OW 9575   3.915   0.609   0.052 -0.4521 -0.1530 -0.0800
 3113SOL    HW1 9576   3.845   0.668   0.026 -1.7599 -1.0834  1.1554
 3113SOL    HW2 9577   3.878   0.521   0.041 -0.4915 -0.6427  2.9968
 3114SOL     OW 9578   3.942   4.789   1.173 -0.4441  0.4493  0.5018
 3114SOL    HW1 9579   4.006   4.853   1.206  1.6509 -0.4910 -1.4604
 3114SOL    HW2 9580   3.897   4.835   1.102 -1.2456  0.7649  1.1995
 3115SOL     OW 9581   5.031   0.375   4.906  0.3095 -0.8302 -0.4328
 3115SOL    HW1 9582   5.024   0.329   4.989  0.5976 -0.4997 -0.2213
 3115SOL    HW2 9583   4.945   0.365   4.865  0.3821 -1.5741 -0.4038
 3116SOL     OW 9584   5.112   1.220   0.502 -0.2619  0.1891 -0.1005
 3116SOL    HW1 9585   5.090   1.129   0.485 -0.3923  0.2081 -0.0331
 3116SOL    HW2 9586   5.173   1.244   0.432  0.8461 -0.3588  0.6356
 3117SOL     OW 9587   5.366   4.424   1.300  0.7391 -0.3163 -0.2368
 3117SOL    HW1 9588   5.324   4.410   1.215 -0.4450 -0.3306  0.3378
 3117SOL    HW2 9589   5.382   4.336   1.333  0.9129 -0.3089 -0.2994
 3118SOL     OW 9590   3.828   3.486   0.132 -0.2923  0.6112  0.3296
 3118SOL    HW1 9591   3.774   3.416   0.170 -0.4134  1.0991  1.0754
 3118SOL    HW2 9592   3.781   3.512   0.053 -0.8188  0.6032  0.6369
 3119SOL     OW 9593   5.178   3.112   5.631 -0.8541  0.1126  0.4325
 3119SOL    HW1 9594   5.252   3.059   5.600 -0.2200  0.4039  1.3891
 3119SOL    HW2 9595   5.103   3.080   5.582 -0.1121 -0.2875 -0.4639
 3120SOL     OW 9596   4.325   3.133   5.101  0.4402 -0.5376  0.1716
 3120SOL    HW1 9597   4.268   3.202   5.134  0.6453 -1.0094  1.5569
 3120SOL    HW2 9598   4.294   3.118   5.011  0.6618  1.6195 -0.3232
 3121SOL     OW 9599   1.314   1.814   3.115  0.1950 -0.4337  0.2502
 3121SOL    HW1 9600   1.280   1.892   3.071  1.4226 -0.7418 -1.3346
 3121SOL    HW2 9601   1.240   1.780   3.165 -1.5055 -0.4638 -2.1502
 3122SOL     OW 9602   1.228   1.412   1.748 -0.2473  0.3086  0.3933
 3122SOL    HW1 9603   1.192   1.420   1.836 -0.7091  0.9955  0.1567
 3122SOL    HW2 9604   1.215   1.498   1.709  1.9804  0.6823  0.3917
 3123SOL     OW 9605   4.409   5.387   0.828  0.1153 -0.6569  0.0142
 3123SOL    HW1 9606   4.463   5.412   0.753  0.2958 -0.1106  0.3151
 3123SOL    HW2 9607   4.469   5.342   0.887  0.1725 -0.3332  0.2057
 3124SOL     OW 9608   2.857   4.171   0.024  0.1868  0.4304 -0.3229
 3124SOL    HW1 9609   2.776   4.221   0.030  0.3730  0.5821  1.4091
 3124SOL    HW2 9610   2.834   4.094  -0.029 -0.4758  1.5581 -1.7694
 3125SOL     OW 9611   3.948   3.376   1.692 -0.0358 -0.0635  0.2134
 3125SOL    HW1 9612   4.035   3.347   1.663 -0.6473 -1.1489 -0.6141
 3125SOL    HW2 9613   3.965   3.454   1.744  1.4598 -0.3802  0.2470
 3126SOL     OW 9614   0.775   5.252   4.140 -0.3117  0.0472  0.0966
 3126SOL    HW1 9615   0.753   5.161   4.119 -0.7436 -0.0367  0.8702
 3126SOL    HW2 9616   0.730   5.303   4.073 -1.2300 -0.2392  0.4719
 3127SOL     OW 9617   0.425   2.388   2.640 -0.3531 -0.1129  0.0519
 3127SOL    HW1 9618   0.474   2.335   2.577 -0.9091 -2.4221  1.4744
 3127SOL    HW2 9619   0.380   2.325   2.696  0.7401  1.7920  3.3263
 3128SOL     OW 9620   3.341   5.738   0.203 -0.6237  0.1394 -0.1383
 3128SOL    HW1 9621   3.317   5.698   0.287  3.0705  1.8364  2.0183
 3128SOL    HW2 9622   3.378   5.667   0.151 -1.3545 -0.6407  0.3983
 3129SOL     OW 9623   2.969   2.761   3.631 -0.0179 -0.5520 -0.0049
 3129SOL    HW1 9624   2.913   2.800   3.699 -0.3534 -0.1025 -0.5380
 3129SOL    HW2 9625   3.003   2.681   3.672  1.4448  0.7635  1.4617
 3130SOL     OW 9626   1.985   5.758   5.528  0.0031 -0.3407 -0.0357
 3130SOL    HW1 9627   2.035   5.677   5.542 -0.2395 -0.1730  2.1437
 3130SOL    HW2 9628   1.897   5.737   5.558 -0.1083  0.6881  0.3735
 3131SOL     OW 9629   1.533   5.082   5.180 -0.1799 -0.1596  0.4545
 3131SOL    HW1 9630   1.598   5.088   5.109  1.0517 -0.3480  1.5255
 3131SOL    HW2 9631   1.525   4.989   5.197 -0.4240 -0.1087  0.6248
 3132SOL     OW 9632   4.238   1.816   4.996  0.4257 -0.5105  0.0205
 3132SOL    HW1 9633   4.226   1.892   4.940 -2.7333 -2.3780 -2.1288
 3132SOL    HW2 9634   4.197   1.841   5.079  0.1999  0.4405 -0.3631
 3133SOL     OW 9635   4.420   4.329   4.030 -0.1494  0.1694 -0.1177
 3133SOL    HW1 9636   4.484   4.298   4.095 -0.3345  0.6566  0.3065
 3133SOL    HW2 9637   4.447   4.418   4.011 -1.8111  1.1123  1.5599
 3134SOL     OW 9638   3.571   0.693   2.944  0.3164  0.1781  0.1499
 3134SOL    HW1 9639   3.485   0.651   2.939 -0.6119  0.9594  4.6264
 3134SOL    HW2 9640   3.552   0.787   2.943  1.6530  0.4989 -2.8138
 3135SOL     OW 9641   3.497   3.660   4.508  0.1437  0.1586  0.2632
 3135SOL    HW1 9642   3.447   3.582   4.481  0.1625 -0.0173  0.7117
 3135SOL    HW2 9643   3.576   3.657   4.455  0.1157 -0.0970  0.2314
 3136SOL     OW 9644   2.823   4.574   1.382 -0.3502 -0.7955  0.3944
 3136SOL    HW1 9645   2.732   4.605   1.386 -1.1805 -3.0631  0.3877
 3136SOL    HW2 9646   2.823   4.510   1.311  1.3606 -0.5982  0.1855
 3137SOL     OW 9647   4.017   4.992   2.758  0.6048  0.0434  0.5372
 3137SOL    HW1 9648   4.040   4.917   2.704  2.7433  1.2487 -0.3360
 3137SOL    HW2 9649   4.000   5.063   2.696 -1.6044  0.3132  1.3281
 3138SOL     OW 9650   4.855   3.335   6.027 -0.0486 -0.2115  0.2313
 3138SOL    HW1 9651   4.873   3.246   6.057  1.7700  0.3011  0.7970
 3138SOL    HW2 9652   4.833   3.383   6.107 -0.4708 -0.0155  0.0020
 3139SOL     OW 9653   5.153   1.885   5.338 -0.3213 -0.1573  0.4975
 3139SOL    HW1 9654   5.191   1.971   5.358  0.4330 -0.5990  1.0157
 3139SOL    HW2 9655   5.090   1.871   5.409  0.2196 -0.4254  0.9355
 3140SOL     OW 9656   4.050   2.182   5.818 -0.0616 -0.1627  0.0042
 3140SOL    HW1 9657   4.002   2.258   5.783  1.1360  1.7584  2.2504
 3140SOL    HW2 9658   3.983   2.115   5.831 -1.1508  0.4042 -2.1455
 3141SOL     OW 9659   5.573   4.981   0.669 -0.1996 -0.2003  0.1790
 3141SOL    HW1 9660   5.627   4.906   0.642 -0.1488  0.2484 -1.0390
 3141SOL    HW2 9661   5.603   5.052   0.612 -2.1056  0.0422 -0.5796
 3142SOL     OW 9662   5.976   1.427   6.061 -0.6124 -0.2282 -0.4390
 3142SOL    HW1 9663   5.975   1.450   6.154  3.1485 -1.7880  0.1354
 3142SOL    HW2 9664   5.911   1.357   6.053 -1.3721  0.3009  0.8689
 3143SOL     OW 9665   3.847   2.371   5.748 -0.1038  0.1668  0.5168
 3143SOL    HW1 9666   3.787   2.445   5.752  0.0446  0.2385  3.2513
 3143SOL    HW2 9667   3.790   2.294   5.741 -0.3909  0.3620  0.7117
 3144SOL     OW 9668   2.489   2.521   0.532  0.2197 -0.4933  0.4386
 3144SOL    HW1 9669   2.580   2.492   0.531  0.2126 -0.5349 -1.1997
 3144SOL    HW2 9670   2.464   2.527   0.440 -0.9299  1.1055  0.7944
 3145SOL     OW 9671   0.557   4.049   0.186  0.3374  0.0199  0.0523
 3145SOL    HW1 9672   0.617   4.024   0.256  0.2018  0.1559  0.2175
 3145SOL    HW2 9673   0.593   4.130   0.150  1.5259 -1.0774 -1.3739
 3146SOL     OW 9674   3.419   2.018   3.183 -0.3423 -0.1640  0.1756
 3146SOL    HW1 9675   3.462   2.081   3.126 -0.8880  0.8739  0.8695
 3146SOL    HW2 9676   3.437   2.050   3.272 -1.6042 -0.3148  0.5114
 3147SOL     OW 9677   2.116   0.675   4.337 -0.0470 -0.6514 -0.3639
 3147SOL    HW1 9678   2.097   0.743   4.272  0.3657 -0.0957  0.0917
 3147SOL    HW2 9679   2.062   0.699   4.412 -0.3513 -1.1681 -0.4096
 3148SOL     OW 9680   1.114   3.325   1.371  0.6102  0.0912  0.4858
 3148SOL    HW1 9681   1.085   3.405   1.414 -2.0151  0.2080 -1.2674
 3148SOL    HW2 9682   1.120   3.348   1.279  0.8296 -1.4781  0.0800
 3149SOL     OW 9683   3.070   2.075   1.384  0.1794 -0.7303 -0.2480
 3149SOL    HW1 9684   2.976   2.057   1.396 -0.6113  0.8316 -3.1213
 3149SOL    HW2 9685   3.084   2.158   1.429 -0.2349 -0.1568 -1.1528
 3150SOL     OW 9686   2.354   4.174   1.997 -0.5742  0.1971 -0.5950
 3150SOL    HW1 9687   2.430   4.227   1.972 -0.6651  0.0728 -1.1404
 3150SOL    HW2 9688   2.307   4.159   1.915 -0.3655 -1.0311 -0.5119
 3151SOL     OW 9689   3.118   4.610   0.488 -0.3913  0.2683  0.0363
 3151SOL    HW1 9690   3.098   4.619   0.582 -0.9990  0.5907 -0.1188
 3151SOL    HW2 9691   3.196   4.555   0.486  0.3140  1.1933  0.7830
 3152SOL     OW 9692   4.104   0.650   4.099 -0.6940  0.3742  0.4831
 3152SOL    HW1 9693   4.058   0.604   4.030  0.0892  0.7478 -0.3126
 3152SOL    HW2 9694   4.072   0.611   4.180 -0.1697 -1.4763 -0.1404
 3153SOL     OW 9695   6.065   0.394   5.407  0.2719 -0.4092  0.0076
 3153SOL    HW1 9696   6.119   0.321   5.375  1.8680  0.4483  0.5977
 3153SOL    HW2 9697   6.106   0.472   5.369 -0.3949  0.2976  0.7062
 3154SOL     OW 9698   1.057   4.520   0.156 -0.0652  0.2753  0.0449
 3154SOL    HW1 9699   0.981   4.461   0.163 -1.8222  2.4487  0.2703
 3154SOL    HW2 9700   1.094   4.522   0.244 -2.1500  2.1459  0.9591
 3155SOL     OW 9701   3.087   1.124   1.449  0.6136 -0.0057 -0.1584
 3155SOL    HW1 9702   3.138   1.179   1.390  1.0405  0.4983  0.6731
 3155SOL    HW2 9703   3.001   1.118   1.407  1.5603 -1.6377 -2.0629
 3156SOL     OW 9704   1.692   3.477   4.348  0.7017  0.3644 -0.1856
 3156SOL    HW1 9705   1.607   3.432   4.349  0.8801  0.0298  0.2564
 3156SOL    HW2 9706   1.756   3.407   4.349  0.9893  0.6164 -0.7006
 3157SOL     OW 9707   5.574   3.118   6.058  0.0436  0.5686  0.8774
 3157SOL    HW1 9708   5.572   3.141   5.965  1.6597 -1.0611  0.3887
 3157SOL    HW2 9709   5.482   3.105   6.081 -0.3014 -0.2672 -0.8460
 3158SOL     OW 9710   5.420   2.098   2.639  0.0848 -0.2014  0.0681
 3158SOL    HW1 9711   5.404   2.142   2.722 -1.9998 -0.4534 -0.1587
 3158SOL    HW2 9712   5.487   2.032   2.660 -0.4962 -0.3485  1.5907
 3159SOL     OW 9713   4.989   5.288   3.559 -0.0307  0.2201  0.5273
 3159SOL    HW1 9714   4.943   5.339   3.626  1.0586  0.4475  1.1371
 3159SOL    HW2 9715   4.927   5.220   3.534 -0.8582  0.7816  0.9790
 3160SOL     OW 9716   3.892   1.665   2.671  0.8967 -0.0063 -0.1766
 3160SOL    HW1 9717   3.805   1.706   2.662  1.2533  0.6558 -0.6727
 3160SOL    HW2 9718   3.933   1.677   2.586  0.8258 -1.8924 -0.5251
 3161SOL     OW 9719   0.272   2.353   4.670  0.1165 -0.2071 -0.2936
 3161SOL    HW1 9720   0.360   2.385   4.690 -0.4024  0.6442  0.6859
 3161SOL    HW2 9721   0.274   2.337   4.576  1.2662 -0.0348 -0.3153
 3162SOL     OW 9722   4.739   3.191   3.575 -0.4242 -0.4253 -0.5434
 3162SOL    HW1 9723   4.785   3.257   3.628  1.9076 -0.4757 -2.3193
 3162SOL    HW2 9724   4.764   3.108   3.614  0.4673 -0.4138 -1.0441
 3163SOL     OW 9725   5.623   3.037   3.985 -0.2505 -0.6215 -0.4470
 3163SOL    HW1 9726   5.557   3.095   4.024 -1.0364 -1.8378  0.0875
 3163SOL    HW2 9727   5.577   2.997   3.911  0.3677 -0.3890 -0.9646
 3164SOL     OW 9728   4.815   5.112   1.549  0.1151 -0.0536 -0.1689
 3164SOL    HW1 9729   4.849   5.055   1.618  0.8538 -0.2030 -0.6493
 3164SOL    HW2 9730   4.784   5.052   1.481  0.9846  0.1054 -0.7189
 3165SOL     OW 9731   3.824   5.006   6.052  0.2338 -0.2548 -0.0096
 3165SOL    HW1 9732   3.899   4.951   6.031 -0.2724 -0.8075 -0.4153
 3165SOL    HW2 9733   3.750   4.945   6.058 -0.3667  0.3940 -0.6338
 3166SOL     OW 9734   2.158   6.086   1.892  0.2232  0.3549 -0.7384
 3166SOL    HW1 9735   2.232   6.140   1.861 -0.2499  0.9570 -0.8329
 3166SOL    HW2 9736   2.091   6.149   1.915  0.0849 -0.1568  0.2848
 3167SOL     OW 9737   0.665   2.257   1.538 -0.0286  0.6615  0.3344
 3167SOL    HW1 9738   0.591   2.202   1.513  0.9885 -0.6928  0.2059
 3167SOL    HW2 9739   0.718   2.263   1.459  1.5764 -0.9879  1.2326
 3168SOL     OW 9740   2.806   2.007   3.533  0.0159 -0.1651 -0.3001
 3168SOL    HW1 9741   2.857   2.045   3.461 -0.4855 -1.8683 -1.6172
 3168SOL    HW2 9742   2.718   1.998   3.499 -0.4185 -0.3297  0.8057
 3169SOL     OW 9743   4.245   0.842   3.951  0.1080  0.5385 -0.4169
 3169SOL    HW1 9744   4.156   0.864   3.924 -0.4148 -1.0324 -0.0852
 3169SOL    HW2 9745   4.234   0.768   4.010  1.6756  0.0228 -0.7408
 3170SOL     OW 9746   0.896   4.766   3.506 -1.1064 -0.3821  0.4110
 3170SOL    HW1 9747   0.861   4.846   3.465  1.0061 -0.1675 -1.1704
 3170SOL    HW2 9748   0.901   4.703   3.433  2.0761 -0.2386  0.3874
 3171SOL     OW 9749   2.574   4.570   1.875 -0.1547 -0.7019  0.2898
 3171SOL    HW1 9750   2.578   4.475   1.884  0.8236 -0.6575  0.5187
 3171SOL    HW2 9751   2.665   4.596   1.860 -0.6311  0.0339 -1.5677
 3172SOL     OW 9752   5.840   0.175   1.702  0.4498 -0.3317  0.5139
 3172SOL    HW1 9753   5.929   0.188   1.735 -0.3438  0.6723  2.4386
 3172SOL    HW2 9754   5.802   0.110   1.762 -0.3389 -0.1822  0.1808
 3173SOL     OW 9755   3.465   0.403   5.420 -0.8883  0.3074  0.0355
 3173SOL    HW1 9756   3.507   0.480   5.457 -0.1281 -0.6695  1.2446
 3173SOL    HW2 9757   3.525   0.373   5.352 -1.1149  0.6735 -0.3346
 3174SOL     OW 9758   5.330   2.685   3.603  0.1540  0.5292 -0.5774
 3174SOL    HW1 9759   5.368   2.698   3.516  1.6397 -0.2837 -0.0853
 3174SOL    HW2 9760   5.402   2.651   3.656 -0.9895  0.0152  0.7092
 3175SOL     OW 9761   5.142   4.662   1.700 -0.1314 -0.3790 -0.0257
 3175SOL    HW1 9762   5.226   4.646   1.657 -0.1659  1.1381 -0.6913
 3175SOL    HW2 9763   5.106   4.574   1.715  2.2509 -1.1444  1.7018
 3176SOL     OW 9764   4.611   3.802   2.801 -0.0918 -0.3850  0.2347
 3176SOL    HW1 9765   4.541   3.751   2.763 -0.5424 -1.2264  2.0621
 3176SOL    HW2 9766   4.636   3.865   2.733 -1.0795 -1.5284 -1.2326
 3177SOL     OW 9767   3.345   0.248   4.829  0.1331  0.1519 -0.3055
 3177SOL    HW1 9768   3.391   0.280   4.906 -0.0283  1.9838 -0.9240
 3177SOL    HW2 9769   3.371   0.156   4.821  1.8997  0.5436  0.6348
 3178SOL     OW 9770   4.578   1.898   3.825  0.0205  0.2302  0.2664
 3178SOL    HW1 9771   4.622   1.835   3.768 -1.0524 -0.2504 -0.0538
 3178SOL    HW2 9772   4.615   1.982   3.800  0.1913 -0.0775 -0.5450
 3179SOL     OW 9773   4.398   2.480   1.839  0.0557 -0.8589 -0.0139
 3179SOL    HW1 9774   4.424   2.489   1.931  0.2632 -0.6574 -0.0914
 3179SOL    HW2 9775   4.382   2.387   1.827  1.3975 -1.0913 -0.1343
 3180SOL     OW 9776   0.151   4.731   5.367  0.1188 -0.2913  0.6384
 3180SOL    HW1 9777   0.151   4.656   5.426 -1.0753 -2.0251 -1.4346
 3180SOL    HW2 9778   0.065   4.770   5.378 -0.2685 -0.8757 -0.2091
 3181SOL     OW 9779   0.743   1.272   0.359  0.3136 -0.5732  0.7491
 3181SOL    HW1 9780   0.662   1.276   0.411  0.5469  0.0149  1.0794
 3181SOL    HW2 9781   0.813   1.269   0.424  0.6536  1.0298  0.4942
 3182SOL     OW 9782   0.930   4.418   4.876  0.3991 -0.2396 -0.1931
 3182SOL    HW1 9783   0.955   4.332   4.842  0.6289  0.2626 -1.3525
 3182SOL    HW2 9784   0.892   4.463   4.801  1.3428  1.0848  0.0947
 3183SOL     OW 9785   4.313   0.093   5.669  0.3557  0.3933  0.3300
 3183SOL    HW1 9786   4.280   0.007   5.642 -2.5699  1.1808  0.9920
 3183SOL    HW2 9787   4.270   0.154   5.610 -0.0520  1.5783  1.7832
 3184SOL     OW 9788   4.369   3.273   1.219  0.4589 -0.6527  0.1947
 3184SOL    HW1 9789   4.391   3.261   1.126 -1.6057 -2.1419 -0.1764
 3184SOL    HW2 9790   4.339   3.363   1.225  0.1279 -0.6944 -0.7093
 3185SOL     OW 9791   4.059   4.519   1.487 -0.2800 -0.0004 -0.1652
 3185SOL    HW1 9792   4.094   4.567   1.563 -0.6313 -2.0316  1.3648
 3185SOL    HW2 9793   4.136   4.492   1.438 -0.0742  2.0008 -1.0213
 3186SOL     OW 9794   4.797   2.931   3.624  0.0162  0.3856 -0.5831
 3186SOL    HW1 9795   4.814   2.862   3.560 -1.0653  0.9991 -1.5723
 3186SOL    HW2 9796   4.813   2.890   3.709 -0.4637 -1.0417 -1.1526
 3187SOL     OW 9797   1.858   0.964   4.059 -0.0152  0.2481 -0.0278
 3187SOL    HW1 9798   1.877   1.002   3.973  1.6963 -1.3366 -0.4301
 3187SOL    HW2 9799   1.782   0.907   4.044  0.2344  0.0323 -0.4942
 3188SOL     OW 9800   0.938   2.740   2.838 -0.1639 -0.0635 -1.1706
 3188SOL    HW1 9801   0.940   2.644   2.832  0.1077 -0.6462  3.8927
 3188SOL    HW2 9802   0.848   2.764   2.819 -0.7407 -1.6079 -0.5390
 3189SOL     OW 9803   5.749   4.227   2.263  0.7140  0.2282 -0.5887
 3189SOL    HW1 9804   5.733   4.137   2.291  1.0453 -1.1114 -4.1822
 3189SOL    HW2 9805   5.832   4.251   2.305 -0.5286 -0.1701  2.2907
 3190SOL     OW 9806   2.076   3.372   3.991 -0.4360 -0.0929 -0.4876
 3190SOL    HW1 9807   2.142   3.304   3.976 -1.5752 -0.9780 -1.7859
 3190SOL    HW2 9808   2.097   3.440   3.927 -0.8888 -0.4673 -1.0406
 3191SOL     OW 9809   0.521   2.669   1.436 -0.1892  0.4591 -0.4252
 3191SOL    HW1 9810   0.440   2.706   1.472 -0.5182 -0.8066  0.2039
 3191SOL    HW2 9811   0.496   2.581   1.408  0.7237  0.4492 -1.2435
 3192SOL     OW 9812   3.658   4.157   0.202 -0.3706 -0.0772  0.3614
 3192SOL    HW1 9813   3.713   4.079   0.201 -1.0487 -0.5724  0.4625
 3192SOL    HW2 9814   3.693   4.211   0.273  0.0414 -0.3385  0.3563
 3193SOL     OW 9815   2.256   1.879   2.315  0.0281  0.5946 -0.0157
 3193SOL    HW1 9816   2.251   1.971   2.341 -0.9659  0.6732 -0.4309
 3193SOL    HW2 9817   2.232   1.880   2.222  1.2892  0.0619 -0.3674
 3194SOL     OW 9818   3.144   4.823   1.541  0.4256 -0.1415  0.0347
 3194SOL    HW1 9819   3.091   4.752   1.577  0.7525 -0.0238  0.7494
 3194SOL    HW2 9820   3.122   4.900   1.594  0.1479  0.2780 -0.6711
 3195SOL     OW 9821   4.090   5.228   1.840 -0.1726  0.1484 -0.0230
 3195SOL    HW1 9822   4.032   5.202   1.769  0.4255 -0.5663 -0.2578
 3195SOL    HW2 9823   4.166   5.267   1.795 -1.3252  3.0578  0.3037
 3196SOL     OW 9824   5.600   3.155   0.368 -0.4074 -0.6924  0.2381
 3196SOL    HW1 9825   5.570   3.065   0.365 -0.8909 -0.6015  1.5156
 3196SOL    HW2 9826   5.613   3.180   0.277 -1.5759 -1.6161 -0.1950
 3197SOL     OW 9827   3.515   0.537   1.660  0.2441 -0.6027 -0.2522
 3197SOL    HW1 9828   3.476   0.476   1.723 -1.4817  1.1047  0.4115
 3197SOL    HW2 9829   3.578   0.587   1.711  0.3164 -0.5823 -0.3613
 3198SOL     OW 9830   1.842   4.953   3.923 -0.2666  0.3991  0.2635
 3198SOL    HW1 9831   1.764   5.008   3.930 -0.1394  0.4870  1.2241
 3198SOL    HW2 9832   1.908   5.010   3.883 -0.1424  0.9645  1.2378
 3199SOL     OW 9833   1.290   4.973   0.828 -0.3438  0.0353  0.8465
 3199SOL    HW1 9834   1.202   5.003   0.807 -0.3716  0.2772  1.2866
 3199SOL    HW2 9835   1.347   5.046   0.805 -0.0623 -0.7201 -1.0012
 3200SOL     OW 9836   3.776   5.828   5.731  0.2574  0.4418 -0.2792
 3200SOL    HW1 9837   3.774   5.922   5.746 -0.2467  0.3629  0.1762
 3200SOL    HW2 9838   3.836   5.795   5.799 -2.4261  0.0228  2.0836
 3201SOL     OW 9839   3.499   1.814   4.604 -0.1000  0.6499  0.4196
 3201SOL    HW1 9840   3.424   1.872   4.592 -0.9034 -0.2223  1.0403
 3201SOL    HW2 9841   3.570   1.856   4.556 -1.2356  1.0243 -0.9951
 3202SOL     OW 9842   2.065   1.465   4.666 -0.4632  0.7831  0.1238
 3202SOL    HW1 9843   2.137   1.526   4.650 -0.7206  1.0680  0.0390
 3202SOL    HW2 9844   2.107   1.388   4.703  0.0953  0.2856 -1.4860
 3203SOL     OW 9845   0.062   5.168   5.523  0.3389 -0.4117  0.0936
 3203SOL    HW1 9846   0.030   5.125   5.603  0.0860 -0.3356  0.0349
 3203SOL    HW2 9847   0.150   5.134   5.511 -0.2550 -1.7782 -0.5682
 3204SOL     OW 9848   0.300   2.811   1.454 -0.2213  0.0015 -0.8076
 3204SOL    HW1 9849   0.265   2.827   1.366 -0.8130  0.9547 -0.4094
 3204SOL    HW2 9850   0.223   2.791   1.507  0.2785 -2.3473 -0.8399
 3205SOL     OW 9851   3.160   3.808   0.865 -0.3274  0.0870  0.0825
 3205SOL    HW1 9852   3.218   3.748   0.913  0.2609  0.3946 -0.2305
 3205SOL    HW2 9853   3.100   3.841   0.931 -0.5489 -0.7125  0.2968
 3206SOL     OW 9854   5.511   1.505   4.064  0.0373 -0.3905  0.1189
 3206SOL    HW1 9855   5.603   1.527   4.080  0.0606  0.2572 -0.7934
 3206SOL    HW2 9856   5.515   1.430   4.005 -0.0170 -0.3375  0.0477
 3207SOL     OW 9857   1.739   5.489   2.769  0.0226  0.4434 -0.2338
 3207SOL    HW1 9858   1.797   5.435   2.823 -1.6305 -0.7209  0.4386
 3207SOL    HW2 9859   1.757   5.461   2.679  1.5802  1.2096 -0.2012
 3208SOL     OW 9860   3.672   3.572   1.027 -1.0377  0.4689 -0.0375
 3208SOL    HW1 9861   3.621   3.634   1.078 -1.5211  0.1556 -0.1388
 3208SOL    HW2 9862   3.747   3.623   0.995 -0.6798  0.6464  1.0435
 3209SOL     OW 9863   0.265   2.230   4.140  0.4415 -0.6171  0.1367
 3209SOL    HW1 9864   0.318   2.183   4.075  0.6354 -0.7981  0.4212
 3209SOL    HW2 9865   0.243   2.313   4.097 -0.1902 -1.1018 -0.4993
 3210SOL     OW 9866   6.052   3.419   1.916 -0.0455  0.2595 -0.0109
 3210SOL    HW1 9867   6.005   3.335   1.917  0.8038 -0.2317  1.8538
 3210SOL    HW2 9868   6.125   3.407   1.976  1.2062  1.7473 -1.1464
 3211SOL     OW 9869   2.666   1.682   2.276  0.3669  0.3662  0.0912
 3211SOL    HW1 9870   2.695   1.725   2.356  1.0354  0.1933 -0.0584
 3211SOL    HW2 9871   2.612   1.748   2.232 -0.4964  0.2630  0.9602
 3212SOL     OW 9872   0.166   0.972   2.659 -0.0478  0.4392 -0.7638
 3212SOL    HW1 9873   0.165   1.063   2.690  0.8237  0.3055 -0.2954
 3212SOL    HW2 9874   0.228   0.928   2.718 -0.3290 -0.4196 -1.0996
 3213SOL     OW 9875   6.032   5.175   4.224 -0.1652 -0.1323  0.0504
 3213SOL    HW1 9876   6.111   5.155   4.175 -0.8883  1.2190 -1.7558
 3213SOL    HW2 9877   6.057   5.245   4.284  0.5622 -1.3603  1.2392
 3214SOL     OW 9878   5.184   1.055   0.083  0.3137 -0.0500 -0.3937
 3214SOL    HW1 9879   5.095   1.025   0.102  0.4791  0.8981  2.2634
 3214SOL    HW2 9880   5.202   1.021  -0.005 -1.7263 -2.4055 -0.0192
 3215SOL     OW 9881   2.539   2.105   6.080  0.2683  0.0074 -0.4929
 3215SOL    HW1 9882   2.499   2.186   6.049 -1.1322 -0.0715  0.9665
 3215SOL    HW2 9883   2.601   2.133   6.147 -0.4283 -0.1142  0.2213
 3216SOL     OW 9884   4.606   0.952   2.016 -0.1670  0.1521 -0.1323
 3216SOL    HW1 9885   4.575   1.042   2.027  1.1264  0.5335  0.6672
 3216SOL    HW2 9886   4.580   0.928   1.927  1.0202  1.9570 -1.0095
 3217SOL     OW 9887   3.464   3.602   3.566 -0.4356 -0.4848 -0.5228
 3217SOL    HW1 9888   3.525   3.673   3.549  3.3901 -2.9991  1.3619
 3217SOL    HW2 9889   3.413   3.632   3.641  1.3228  0.2365  0.4416
 3218SOL     OW 9890   0.950   1.351   2.380 -0.1659  0.2026 -0.6042
 3218SOL    HW1 9891   0.905   1.267   2.382 -1.4907  0.8926 -0.7583
 3218SOL    HW2 9892   1.043   1.328   2.393 -0.7845 -1.0213  2.8439
 3219SOL     OW 9893   1.225   3.540   3.988 -0.2062  0.2355 -0.0844
 3219SOL    HW1 9894   1.280   3.466   3.962 -0.1318  0.0040  0.7107
 3219SOL    HW2 9895   1.193   3.517   4.075 -1.1051  0.6308 -0.2991
 3220SOL     OW 9896   0.954   3.758   2.895  0.5860 -0.1217  0.2016
 3220SOL    HW1 9897   1.030   3.811   2.872  0.6803 -0.1822  0.3704
 3220SOL    HW2 9898   0.880   3.818   2.889  0.5752 -0.2039 -0.5158
 3221SOL     OW 9899   5.979   0.344   1.420  0.1802  0.1719 -0.0591
 3221SOL    HW1 9900   6.046   0.301   1.473  1.5841  1.3768 -0.7892
 3221SOL    HW2 9901   5.898   0.298   1.442  0.5298  0.9586  3.5719
 3222SOL     OW 9902   5.082   2.045   2.348 -0.3906  0.6337  0.5737
 3222SOL    HW1 9903   5.162   2.047   2.294  0.5340 -0.0290  1.8543
 3222SOL    HW2 9904   5.031   1.972   2.314  0.4757 -0.1725  0.9501
 3223SOL     OW 9905   4.701   2.306   4.301 -0.0325  0.5359  0.4755
 3223SOL    HW1 9906   4.687   2.276   4.391 -0.4138  0.1930  0.3064
 3223SOL    HW2 9907   4.748   2.389   4.310  1.1344 -0.1515  0.9568
 3224SOL     OW 9908   2.571   2.320   1.665  0.2492 -0.3829 -0.4951
 3224SOL    HW1 9909   2.550   2.238   1.711 -1.3901  0.6637  0.7469
 3224SOL    HW2 9910   2.544   2.304   1.575  1.2078 -1.6513 -0.5878
 3225SOL     OW 9911   0.862   5.860   4.545 -0.0189  0.0350  0.5714
 3225SOL    HW1 9912   0.775   5.893   4.569 -0.5358 -0.2350 -0.8303
 3225SOL    HW2 9913   0.845   5.794   4.478  1.1119 -1.8953  2.0723
 3226SOL     OW 9914   5.750   2.655   0.525  0.1869  0.1260 -0.4658
 3226SOL    HW1 9915   5.815   2.601   0.570 -1.0602 -0.3914  0.7631
 3226SOL    HW2 9916   5.728   2.606   0.446 -1.1165 -1.3601  0.7506
 3227SOL     OW 9917   3.335   1.244   3.461 -0.7449  0.4586 -0.2824
 3227SOL    HW1 9918   3.291   1.318   3.502 -1.3052  0.0342 -0.1114
 3227SOL    HW2 9919   3.332   1.175   3.527 -0.2098  0.2811 -0.4359
 3228SOL     OW 9920   0.037   6.013   5.478  0.1866 -0.9421 -0.9815
 3228SOL    HW1 9921   0.078   6.085   5.430 -0.9081 -0.1052 -0.6827
 3228SOL    HW2 9922   0.013   6.051   5.563 -3.4265 -0.6390 -1.9837
 3229SOL     OW 9923   5.047   0.020   4.024  0.0618  0.5299 -0.2055
 3229SOL    HW1 9924   5.109  -0.045   4.058  1.0558  1.1213 -0.8120
 3229SOL    HW2 9925   5.017  -0.017   3.941 -0.6720  0.0850  0.2544
 3230SOL     OW 9926   0.175   0.825   2.014  0.2809 -0.3002 -0.7146
 3230SOL    HW1 9927   0.249   0.875   1.978  1.6181 -1.7094 -0.0322
 3230SOL    HW2 9928   0.201   0.803   2.103 -1.3972 -0.0387 -0.1157
 3231SOL     OW 9929   3.862   1.275   2.602 -0.3656 -0.1163  0.3844
 3231SOL    HW1 9930   3.956   1.290   2.617 -0.3699  0.2402  0.0925
 3231SOL    HW2 9931   3.830   1.236   2.683 -0.1013  0.3956  0.7382
 3232SOL     OW 9932   0.890   4.243   4.466 -0.5373  0.0372  0.0945
 3232SOL    HW1 9933   0.820   4.195   4.510  1.9346 -3.1098  0.9600
 3232SOL    HW2 9934   0.872   4.231   4.372 -2.5475  1.6929  0.1741
 3233SOL     OW 9935   4.463   2.600   5.823 -0.1517 -0.1768  0.0460
 3233SOL    HW1 9936   4.507   2.550   5.754 -1.6976 -0.4236 -0.7851
 3233SOL    HW2 9937   4.465   2.690   5.793 -0.9179 -0.2988 -0.3715
 3234SOL     OW 9938   2.300   1.721   3.984 -0.4700  0.0718  0.5523
 3234SOL    HW1 9939   2.288   1.752   4.074 -2.6005  3.3099 -0.6534
 3234SOL    HW2 9940   2.382   1.762   3.956  0.9848 -2.1169  1.3344
 3235SOL     OW 9941   1.194   0.056   2.085 -0.0459  0.1199  0.1393
 3235SOL    HW1 9942   1.149   0.026   2.164  0.7245  0.9044  0.8840
 3235SOL    HW2 9943   1.277   0.091   2.116  0.7900 -0.6328 -1.1421
 3236SOL     OW 9944   3.301   1.902   1.537 -0.0661  0.0213 -0.4698
 3236SOL    HW1 9945   3.235   1.944   1.481 -0.3952  0.2604  0.0901
 3236SOL    HW2 9946   3.374   1.964   1.538 -1.4035  1.7666  2.1717
 3237SOL     OW 9947   4.705   4.736   5.306  0.5131 -0.2208 -0.1206
 3237SOL    HW1 9948   4.640   4.755   5.373 -0.4178 -0.0162 -1.0677
 3237SOL    HW2 9949   4.667   4.665   5.253  0.3724  0.9026 -1.5932
 3238SOL     OW 9950   6.124   5.495   5.924 -0.0467 -0.3985 -0.2323
 3238SOL    HW1 9951   6.160   5.528   6.007  1.7044  1.6456 -1.6989
 3238SOL    HW2 9952   6.173   5.414   5.908  0.7204  0.0156 -0.0253
 3239SOL     OW 9953   2.732   3.883   0.278  0.1562  0.0694  1.1093
 3239SOL    HW1 9954   2.661   3.919   0.332 -0.0274 -0.4373  1.2150
 3239SOL    HW2 9955   2.798   3.952   0.276 -1.8060  2.1374 -1.9716
 3240SOL     OW 9956   1.059   1.660   1.308 -0.2531 -0.1026  0.3371
 3240SOL    HW1 9957   1.153   1.670   1.322  0.0225 -2.7602  0.9668
 3240SOL    HW2 9958   1.052   1.623   1.220 -0.9053  2.0231 -0.5505
 3241SOL     OW 9959   0.924   5.880   1.631  0.4064 -0.2259  0.2660
 3241SOL    HW1 9960   0.887   5.815   1.572 -0.2289  2.0857 -2.0429
 3241SOL    HW2 9961   0.866   5.879   1.707 -1.2186 -0.4509 -0.9324
 3242SOL     OW 9962   5.291   4.093   3.157  0.0182 -0.3931  0.3175
 3242SOL    HW1 9963   5.261   4.167   3.104  1.9728  0.7037  0.6346
 3242SOL    HW2 9964   5.386   4.094   3.148  0.2069 -1.9459  1.5795
 3243SOL     OW 9965   0.040   1.309   4.843 -0.1144 -0.2682 -0.0927
 3243SOL    HW1 9966   0.005   1.318   4.754  0.9719  1.2508 -0.4110
 3243SOL    HW2 9967   0.121   1.259   4.832  0.3328  0.4336 -0.0626
 3244SOL     OW 9968   4.943   5.078   5.493  0.3943  0.0076  0.4977
 3244SOL    HW1 9969   4.914   5.090   5.584  1.1536 -0.1225  0.7611
 3244SOL    HW2 9970   4.877   5.019   5.455  0.6164 -0.7628  1.2593
 3245SOL     OW 9971   4.142   3.038   2.438  0.4737 -0.2916 -0.4793
 3245SOL    HW1 9972   4.155   2.945   2.453  1.4535  0.0136  0.7900
 3245SOL    HW2 9973   4.161   3.079   2.523 -0.8130  0.9887 -0.7514
 3246SOL     OW 9974   5.512   3.559   1.397  0.1624  0.2598  0.4777
 3246SOL    HW1 9975   5.465   3.481   1.367 -0.7599  1.0429 -0.1557
 3246SOL    HW2 9976   5.521   3.613   1.319  0.2517  1.0575  1.0343
 3247SOL     OW 9977   2.687   4.601   3.470 -0.3051  0.2897 -0.0011
 3247SOL    HW1 9978   2.765   4.645   3.505 -0.2277 -0.6937  1.1309
 3247SOL    HW2 9979   2.614   4.645   3.514 -0.2393 -0.4996  0.9402
 3248SOL     OW 9980   3.522   3.771   5.232  0.9188 -0.1111 -0.2737
 3248SOL    HW1 9981   3.479   3.694   5.269 -0.4764  0.9415  0.3851
 3248SOL    HW2 9982   3.613   3.745   5.222  0.4053 -1.9674 -0.4324
 3249SOL     OW 9983   2.369   1.716   5.309  0.0519 -0.3811  0.0050
 3249SOL    HW1 9984   2.308   1.660   5.356 -0.3095  0.9323  1.1633
 3249SOL    HW2 9985   2.418   1.762   5.378 -0.0598  1.1348 -0.8901
 3250SOL     OW 9986   5.811   5.902   0.977  0.4079  0.2903  0.1678
 3250SOL    HW1 9987   5.796   5.955   0.899  1.8877 -0.2137 -0.4970
 3250SOL    HW2 9988   5.825   5.967   1.047  1.0074  0.7838 -0.3938
 3251SOL     OW 9989   0.787   4.359   5.820 -0.5275  0.0023 -0.3103
 3251SOL    HW1 9990   0.816   4.395   5.903 -0.7114  0.5464 -0.4728
 3251SOL    HW2 9991   0.868   4.343   5.771 -0.1918 -3.2417  1.0940
 3252SOL     OW 9992   3.644   3.375   2.102 -0.1140  0.3153  0.3549
 3252SOL    HW1 9993   3.567   3.403   2.052 -1.2515  1.0091  2.3675
 3252SOL    HW2 9994   3.631   3.281   2.114  1.1401 -0.2514 -2.1555
 3253SOL     OW 9995   4.086   0.462   2.744  0.1271  0.8781 -0.1711
 3253SOL    HW1 9996   4.062   0.369   2.734  1.6847  0.6071 -1.8906
 3253SOL    HW2 9997   4.134   0.465   2.827 -0.6346  0.3180  0.3073
 3254SOL     OW 9998   1.768   3.711   3.102  0.2714  0.0414 -0.3077
 3254SOL    HW1 9999   1.826   3.775   3.059 -0.6412  0.3315 -1.1413
 3254SOL    HW210000   1.688   3.760   3.121 -0.6138 -0.9343 -1.3520
 3255SOL     OW10001   4.443   4.687   3.014  0.3359  0.1572 -0.1095
 3255SOL    HW110002   4.515   4.747   3.032 -1.0663  1.7170  0.5484
 3255SOL    HW210003   4.422   4.647   3.099  1.1526 -1.1902 -0.5115
 3256SOL     OW10004   0.701   5.726   3.073 -0.4733  0.2614  0.2440
 3256SOL    HW110005   0.748   5.786   3.015  0.3618  1.5009  2.1050
 3256SOL    HW210006   0.769   5.671   3.111 -1.0416 -0.7220 -0.1361
 3257SOL     OW10007   1.807   5.703   2.177 -0.7564  0.1834 -0.1860
 3257SOL    HW110008   1.807   5.770   2.245 -0.4128 -0.7135  0.7303
 3257SOL    HW210009   1.716   5.674   2.170 -0.8361  0.4606 -0.2992
 3258SOL     OW10010   1.543   0.568   4.393 -0.6331 -0.0769  0.3408
 3258SOL    HW110011   1.457   0.548   4.355 -0.8845 -0.6183  1.1587
 3258SOL    HW210012   1.526   0.578   4.487 -0.1691  2.0934  0.2456
 3259SOL     OW10013   3.906   1.498   0.397 -0.3261  0.1252  0.1285
 3259SOL    HW110014   3.866   1.411   0.394 -0.6019  0.2718 -2.5583
 3259SOL    HW210015   3.839   1.557   0.363  1.2680  0.7195 -2.2306
 3260SOL     OW10016   1.737   4.113   3.339  0.0679  0.3570 -0.1759
 3260SOL    HW110017   1.705   4.094   3.427 -1.1666  0.4874 -0.5613
 3260SOL    HW210018   1.661   4.097   3.283  1.1709 -0.9077 -1.3776
 3261SOL     OW10019   5.936   2.126   5.758  0.2469  0.0825  0.4139
 3261SOL    HW110020   5.891   2.207   5.782  1.0517  0.1236  1.9289
 3261SOL    HW210021   5.875   2.056   5.782  0.0473  0.2054  0.2647
 3262SOL     OW10022   3.783   1.412   2.369 -0.0058 -0.2257  0.8302
 3262SOL    HW110023   3.831   1.462   2.303 -2.0967 -0.9811 -1.3746
 3262SOL    HW210024   3.851   1.379   2.428  1.7612  2.0416  0.1837
 3263SOL     OW10025   4.998   1.869   3.469 -0.4563 -0.7460  0.1677
 3263SOL    HW110026   5.082   1.845   3.431 -0.5168 -0.3739 -0.2131
 3263SOL    HW210027   4.998   1.965   3.469 -1.2618 -0.7327 -0.7085
 3264SOL     OW10028   5.539   2.385   3.073  0.1045  0.2062  0.1299
 3264SOL    HW110029   5.466   2.439   3.102 -0.1262 -0.5337  0.9549
 3264SOL    HW210030   5.576   2.432   2.998  2.0270  3.2588  2.7742
 3265SOL     OW10031   3.029   3.812   5.706  0.2351  0.3751 -0.2941
 3265SOL    HW110032   3.024   3.896   5.751  1.4973  0.7086 -0.7294
 3265SOL    HW210033   3.055   3.834   5.617  0.6775 -0.4866 -0.3852
 3266SOL     OW10034   0.649   1.638   2.029  0.3245  0.2500 -0.0798
 3266SOL    HW110035   0.724   1.676   1.984 -0.0743  0.6176 -0.4434
 3266SOL    HW210036   0.685   1.603   2.110  1.2102 -1.1361 -1.0135
 3267SOL     OW10037   2.459   3.924   2.866  0.1040  0.3420 -0.5685
 3267SOL    HW110038   2.512   3.894   2.792 -0.5445  0.7576 -1.2059
 3267SOL    HW210039   2.517   3.984   2.914  1.1594 -1.3023  0.3145
 3268SOL     OW10040   4.401   5.226   4.237  0.1951 -0.3641  1.1423
 3268SOL    HW110041   4.495   5.225   4.220  0.1890 -0.2332  1.0939
 3268SOL    HW210042   4.392   5.274   4.319  0.0916  0.6073  0.5838
 3269SOL     OW10043   1.984   3.978   1.364  0.0896 -0.2927 -0.6663
 3269SOL    HW110044   1.922   4.033   1.412  1.8202  0.1370  1.2023
 3269SOL    HW210045   1.965   3.889   1.394  0.0775 -0.2170 -0.4486
 3270SOL     OW10046   0.850   4.364   2.354  0.1483 -0.1851 -0.1597
 3270SOL    HW110047   0.872   4.275   2.324  1.4849  0.7171 -2.0562
 3270SOL    HW210048   0.934   4.409   2.359 -0.4523  0.8407  1.3823
 3271SOL     OW10049   5.316   0.153   1.262 -0.1957 -0.0452 -0.7579
 3271SOL    HW110050   5.239   0.110   1.298  0.1020  0.9497  1.1929
 3271SOL    HW210051   5.287   0.185   1.176 -1.5857 -0.6830 -0.5577
 3272SOL     OW10052   0.268   5.720   1.565 -0.2073 -0.3609  0.2534
 3272SOL    HW110053   0.223   5.754   1.643 -0.2482  1.3965 -0.4869
 3272SOL    HW210054   0.247   5.783   1.496 -0.2260 -1.8990 -1.2315
 3273SOL     OW10055   3.516   1.243   0.348  0.0515  0.6759  0.0055
 3273SOL    HW110056   3.438   1.194   0.374  0.0964 -0.8711 -2.4197
 3273SOL    HW210057   3.482   1.315   0.295  0.2228 -0.2579 -1.4315
 3274SOL     OW10058   3.129   3.149   1.656 -0.5403 -0.7058 -0.5316
 3274SOL    HW110059   3.084   3.105   1.728  1.8608  0.6964  2.0362
 3274SOL    HW210060   3.112   3.242   1.671  0.1836 -0.3787 -1.6574
 3275SOL     OW10061   1.154   3.458   4.244 -0.4073  0.3986 -0.5780
 3275SOL    HW110062   1.180   3.519   4.313  0.7457 -0.7187  0.0147
 3275SOL    HW210063   1.061   3.441   4.260 -0.5170  1.3176 -0.2255
 3276SOL     OW10064   2.640   5.934   5.013  0.1602 -0.2365  0.4972
 3276SOL    HW110065   2.558   5.891   5.036  0.2294  0.3956  2.0373
 3276SOL    HW210066   2.616   5.998   4.947 -1.0021  1.3597  2.3692
 3277SOL     OW10067   5.660   2.569   3.992  0.1481 -1.0274  0.2435
 3277SOL    HW110068   5.731   2.543   3.933 -0.3884 -0.7986 -0.5159
 3277SOL    HW210069   5.691   2.650   4.032 -0.2763 -0.1172 -1.2013
 3278SOL     OW10070   3.953   0.820   3.728  0.5172 -0.3716 -0.7466
 3278SOL    HW110071   3.899   0.861   3.795  2.6955  0.9773  0.2950
 3278SOL    HW210072   3.942   0.875   3.650 -0.3561 -0.6973 -0.8604
 3279SOL     OW10073   5.767   2.224   4.492 -0.2721  0.4066 -0.0113
 3279SOL    HW110074   5.719   2.212   4.411 -1.6489  0.6514  0.7310
 3279SOL    HW210075   5.758   2.318   4.511 -0.2490  0.2919  0.5823
 3280SOL     OW10076   5.011   5.000   2.698  0.2025 -0.6022  0.0389
 3280SOL    HW110077   4.921   4.998   2.664  0.2286  1.5265 -0.3074
 3280SOL    HW210078   5.064   4.963   2.627 -0.2298 -0.2707 -0.4724
 3281SOL     OW10079   3.097   5.741   3.542  0.7891  0.4616  0.1067
 3281SOL    HW110080   3.116   5.693   3.462  0.9471  2.2327 -0.9890
 3281SOL    HW210081   3.184   5.761   3.579  1.0849  3.6094 -1.8454
 3282SOL     OW10082   2.799   1.070   2.166  0.1347  0.3918 -0.3749
 3282SOL    HW110083   2.799   1.133   2.094 -0.6532 -0.4998 -1.1818
 3282SOL    HW210084   2.848   0.995   2.133  0.7143  0.4048  0.4291
 3283SOL     OW10085   4.844   6.134   5.530 -0.0804  0.0810 -0.0414
 3283SOL    HW110086   4.923   6.108   5.576  0.5060  0.5676 -0.7404
 3283SOL    HW210087   4.808   6.052   5.495  0.2129 -0.1221  0.1307
 3284SOL     OW10088   1.654   4.852   0.695 -0.3079 -0.1277 -0.0810
 3284SOL    HW110089   1.720   4.794   0.657  1.0944  0.6084  1.0904
 3284SOL    HW210090   1.571   4.818   0.664  0.6727 -0.0089 -3.1244
 3285SOL     OW10091   4.029   1.472   5.211  0.7327 -0.6759  0.1231
 3285SOL    HW110092   3.982   1.394   5.242 -0.5471 -0.0466 -0.1784
 3285SOL    HW210093   4.110   1.473   5.263  0.4577 -1.8259  0.6062
 3286SOL     OW10094   1.315   1.090   4.819  0.5413  0.4729 -1.0163
 3286SOL    HW110095   1.306   1.080   4.724  0.3344 -2.0448 -0.8100
 3286SOL    HW210096   1.346   1.004   4.849 -1.3884  0.5006  1.4198
 3287SOL     OW10097   4.673   4.701   3.630 -0.3920  0.9068 -0.4410
 3287SOL    HW110098   4.593   4.649   3.633 -1.0725  1.9710  0.3487
 3287SOL    HW210099   4.651   4.777   3.577  0.9940 -0.1723 -2.7191
 3288SOL     OW10100   1.867   0.654   3.279 -0.2559 -0.2151  0.0158
 3288SOL    HW110101   1.794   0.639   3.218 -0.9506 -1.1747  1.0308
 3288SOL    HW210102   1.855   0.744   3.309 -1.5721 -0.6296  0.8257
 3289SOL     OW10103   3.056   1.014   1.131 -0.2861 -0.3427  0.5268
 3289SOL    HW110104   3.030   1.050   1.047 -1.7020  2.5680  2.0558
 3289SOL    HW210105   2.986   1.040   1.191 -0.1007 -3.5681  2.4228
 3290SOL     OW10106   0.231   0.252   0.755 -0.6385 -0.4068 -0.7498
 3290SOL    HW110107   0.175   0.219   0.825 -0.6040  0.2048 -0.4235
 3290SOL    HW210108   0.282   0.321   0.796 -1.1478  0.4742 -1.5498
 3291SOL     OW10109   0.702   5.869   1.812  0.4871  0.3591  0.3805
 3291SOL    HW110110   0.634   5.812   1.850  1.3662 -1.5167 -0.6927
 3291SOL    HW210111   0.758   5.891   1.887  0.8566 -1.3285  0.6595
 3292SOL     OW10112   5.896   1.726   3.674 -0.2365  0.7365  0.6154
 3292SOL    HW110113   5.975   1.780   3.668  1.0508 -1.1809 -2.4998
 3292SOL    HW210114   5.853   1.737   3.589 -1.3428 -1.0326  0.8993
 3293SOL     OW10115   4.098   4.612   4.559  0.2137 -0.3394 -0.4992
 3293SOL    HW110116   4.119   4.705   4.566 -1.9617  0.2011 -0.1137
 3293SOL    HW210117   4.159   4.577   4.495  0.9512  1.4051 -0.7926
 3294SOL     OW10118   3.656   4.508   0.939 -0.1536 -0.1856  0.0620
 3294SOL    HW110119   3.697   4.590   0.911 -1.2416  0.5247  0.4885
 3294SOL    HW210120   3.705   4.483   1.017 -0.6444  0.7763  0.7014
 3295SOL     OW10121   1.899   6.022   5.535 -0.2122  0.2765 -0.5141
 3295SOL    HW110122   1.950   5.943   5.516  0.4387  0.5304  0.1346
 3295SOL    HW210123   1.812   5.989   5.558  0.5662 -0.4357  1.7076
 3296SOL     OW10124   1.591   0.346   3.583  0.1704  0.0835 -0.2430
 3296SOL    HW110125   1.661   0.369   3.523  0.1691  1.2130  0.1548
 3296SOL    HW210126   1.635   0.327   3.666  0.0266  0.8114  0.0125
 3297SOL     OW10127   4.369   0.230   3.319  0.1199 -0.9210 -0.4320
 3297SOL    HW110128   4.283   0.213   3.358 -0.3631 -1.2544 -1.5828
 3297SOL    HW210129   4.397   0.144   3.286  0.7839 -0.7597 -0.3068
 3298SOL     OW10130   5.338   2.930   4.506 -0.4794 -0.1825 -0.0829
 3298SOL    HW110131   5.415   2.884   4.473  0.0771  1.1697 -0.7445
 3298SOL    HW210132   5.269   2.912   4.442 -0.6645 -1.1668  0.3677
 3299SOL     OW10133   4.240   3.313   6.036  0.0119  0.0763  0.8872
 3299SOL    HW110134   4.218   3.381   6.099  0.7078 -1.0161  2.3573
 3299SOL    HW210135   4.308   3.353   5.981  1.5783  0.0907  2.7427
 3300SOL     OW10136   3.169   2.740   5.044  0.1890 -0.0410  0.1407
 3300SOL    HW110137   3.219   2.666   5.076  0.7004  0.2689  0.0735
 3300SOL    HW210138   3.121   2.707   4.969  2.0946  0.2074 -1.2587
 3301SOL     OW10139   0.273   4.793   0.521  0.6959 -0.1852 -0.3302
 3301SOL    HW110140   0.212   4.721   0.507  1.6007 -1.6786  2.6204
 3301SOL    HW210141   0.325   4.796   0.441 -2.1713  0.1830 -2.3183
 3302SOL     OW10142   5.137   4.298   2.047 -0.4156  0.1305 -0.0183
 3302SOL    HW110143   5.189   4.378   2.055  0.1336 -0.1420 -0.7999
 3302SOL    HW210144   5.050   4.323   2.080 -0.6992  1.5049 -1.6434
 3303SOL     OW10145   0.453   4.812   5.813 -0.0560 -0.8145 -0.1010
 3303SOL    HW110146   0.437   4.770   5.898  1.8542 -0.7477  0.3276
 3303SOL    HW210147   0.482   4.901   5.835  0.1149 -0.6778 -0.8503
 3304SOL     OW10148   1.940   2.903   5.542 -0.1634  0.5111  0.4444
 3304SOL    HW110149   1.853   2.863   5.540  0.2185 -0.4316  1.5328
 3304SOL    HW210150   1.924   2.997   5.532 -1.2557  0.3037  0.1492
 3305SOL     OW10151   3.056   5.277   4.268  0.8039  0.3147  0.0298
 3305SOL    HW110152   2.998   5.204   4.248  0.0442  0.5542  1.2151
 3305SOL    HW210153   3.090   5.305   4.183 -0.1633 -0.3741 -0.6075
 3306SOL     OW10154   2.914   5.190   0.779  0.4776  0.3163 -0.0666
 3306SOL    HW110155   2.845   5.143   0.826  1.0783  1.0083  1.5549
 3306SOL    HW210156   2.867   5.235   0.708 -0.2990 -1.4873 -0.7630
 3307SOL     OW10157   2.424   2.267   3.706 -0.2100  0.0558 -0.2341
 3307SOL    HW110158   2.360   2.223   3.650 -0.7561 -0.3318  0.6806
 3307SOL    HW210159   2.388   2.354   3.721 -0.0174  0.1932 -0.5448
 3308SOL     OW10160   0.789   3.962   0.863 -0.1903 -0.7461 -0.0960
 3308SOL    HW110161   0.756   4.052   0.852  1.8098 -0.0563 -1.0515
 3308SOL    HW210162   0.726   3.920   0.921 -0.9357  1.4205  0.7722
 3309SOL     OW10163   4.242   4.625   5.059  0.1529  0.6351 -0.2336
 3309SOL    HW110164   4.179   4.691   5.033 -2.1140 -0.3914  2.1827
 3309SOL    HW210165   4.189   4.549   5.082  2.3797 -0.7779  0.5997
 3310SOL     OW10166   0.807   5.710   5.259  0.4745 -0.7282  0.4926
 3310SOL    HW110167   0.826   5.779   5.196 -0.8886 -0.7926 -0.0335
 3310SOL    HW210168   0.891   5.667   5.274  0.9048 -0.5071 -1.0644
 3311SOL     OW10169   5.749   1.091   4.555  0.3384  0.3755 -0.4446
 3311SOL    HW110170   5.800   1.156   4.603 -0.4425  0.8721 -0.2637
 3311SOL    HW210171   5.686   1.143   4.505 -1.7614 -0.2750  1.3742
 3312SOL     OW10172   2.774   1.992   4.300 -0.2197  0.3418 -0.4331
 3312SOL    HW110173   2.768   1.988   4.396  0.5681 -0.0692 -0.3912
 3312SOL    HW210174   2.842   2.058   4.284 -0.8292  0.9056 -0.7301
 3313SOL     OW10175   4.947   5.826   0.118 -0.4408 -0.6610  0.7450
 3313SOL    HW110176   4.897   5.776   0.183 -1.9064  2.3752  2.2027
 3313SOL    HW210177   5.032   5.841   0.159 -0.5945 -0.5844  1.0387
 3314SOL     OW10178   0.283   5.600   5.387  0.0676 -0.6415 -0.2315
 3314SOL    HW110179   0.218   5.617   5.455 -0.3906  1.1515 -1.0536
 3314SOL    HW210180   0.354   5.662   5.406  0.3422 -0.7612 -0.8471
 3315SOL     OW10181   6.005   1.312   4.023 -0.0417  0.1409 -0.2010
 3315SOL    HW110182   6.063   1.246   3.987  0.5332 -0.0840  1.0840
 3315SOL    HW210183   6.014   1.387   3.964  2.3894  0.5001  0.5203
 3316SOL     OW10184   3.700   5.431   4.586  0.0032 -0.6482  0.2903
 3316SOL    HW110185   3.662   5.361   4.639 -1.0475  0.5439  1.1635
 3316SOL    HW210186   3.676   5.408   4.496 -0.0791 -1.5561  0.5330
 3317SOL     OW10187   1.131   4.992   5.587 -0.2604  0.5279 -0.7084
 3317SOL    HW110188   1.225   4.977   5.594 -0.2431  0.6295 -0.7262
 3317SOL    HW210189   1.107   4.955   5.502  0.2109  2.7808 -1.8921
 3318SOL     OW10190   5.662   4.260   4.040 -0.7976 -0.8455  0.3700
 3318SOL    HW110191   5.570   4.288   4.034 -0.5467 -0.2592 -1.8425
 3318SOL    HW210192   5.692   4.259   3.949  1.0410 -2.2917  0.9361
 3319SOL     OW10193   1.174   2.810   2.278 -0.6199 -0.5354  0.0662
 3319SOL    HW110194   1.225   2.877   2.232 -1.7085  2.0815  2.3986
 3319SOL    HW210195   1.239   2.742   2.301  1.3812  1.5215  0.8737
 3320SOL     OW10196   3.341   3.383   4.432 -0.1223  0.0884  0.1124
 3320SOL    HW110197   3.279   3.337   4.375 -0.6102  1.7425 -0.7730
 3320SOL    HW210198   3.421   3.331   4.427  0.1123  0.5116 -2.7661
 3321SOL     OW10199   1.838   0.448   5.599 -0.0748 -0.2280 -0.2156
 3321SOL    HW110200   1.849   0.429   5.693  0.6857 -0.6587 -0.3854
 3321SOL    HW210201   1.766   0.511   5.596  0.8147  0.8875  0.7821
 3322SOL     OW10202   6.102   0.008   3.742  0.6729 -0.2277 -0.2619
 3322SOL    HW110203   6.138   0.096   3.746 -1.2569  0.5956  0.0945
 3322SOL    HW210204   6.111  -0.018   3.651 -0.0735  0.9569 -0.6907
 3323SOL     OW10205   2.836   0.740   2.168  0.4413 -1.2261  0.0791
 3323SOL    HW110206   2.767   0.739   2.234  0.8274 -2.7179  0.5148
 3323SOL    HW210207   2.917   0.731   2.219  0.8634 -0.7630 -0.5004
 3324SOL     OW10208   2.502   3.368   3.273 -0.1971 -0.2529 -0.4985
 3324SOL    HW110209   2.414   3.398   3.251 -0.3426 -0.8135 -0.7126
 3324SOL    HW210210   2.556   3.392   3.197 -0.6517 -1.9724 -1.4371
 3325SOL     OW10211   1.611   4.671   4.604  0.0581  0.0891 -0.5239
 3325SOL    HW110212   1.533   4.634   4.645  0.1643  1.4986  1.0913
 3325SOL    HW210213   1.588   4.762   4.585  2.2159  1.6291  3.1391
 3326SOL     OW10214   2.166   3.640   5.284 -0.1067  0.0436  0.2788
 3326SOL    HW110215   2.143   3.586   5.360  0.0772  1.5304  1.4318
 3326SOL    HW210216   2.084   3.649   5.236 -0.6917  0.7086  1.3721
 3327SOL     OW10217   5.950   2.474   5.262 -0.0262  0.4151 -0.2378
 3327SOL    HW110218   5.895   2.530   5.317 -0.5266  0.8834 -1.1906
 3327SOL    HW210219   6.039   2.505   5.277 -0.0480 -0.0915  1.0250
 3328SOL     OW10220   5.440   0.108   2.397 -0.3025  0.5500  0.0001
 3328SOL    HW110221   5.521   0.150   2.425  0.5137 -0.2339 -1.1035
 3328SOL    HW210222   5.380   0.120   2.470  0.7168  1.4045  0.7147
 3329SOL     OW10223   1.922   0.840   2.668 -1.1867  0.8770  0.0178
 3329SOL    HW110224   1.914   0.931   2.696 -1.1413  0.8882 -0.0059
 3329SOL    HW210225   1.961   0.795   2.744 -0.5003  1.0230 -0.2434
 3330SOL     OW10226   2.848   5.466   0.834 -0.2082 -0.3015 -0.5553
 3330SOL    HW110227   2.872   5.525   0.906 -2.4091  0.4768 -0.3988
 3330SOL    HW210228   2.777   5.413   0.868  0.4016 -1.6961 -1.3697
 3331SOL     OW10229   4.663   0.096   4.310  0.0772 -0.0725 -0.2043
 3331SOL    HW110230   4.574   0.121   4.333  0.5591  0.9331  0.6978
 3331SOL    HW210231   4.713   0.178   4.316  1.7255 -1.1226  2.8263
 3332SOL     OW10232   4.317   3.700   3.038  0.1279  0.3974 -0.2295
 3332SOL    HW110233   4.331   3.644   3.115  4.0414  0.4597 -0.7036
 3332SOL    HW210234   4.247   3.759   3.065 -2.4427 -2.9279  1.2252
 3333SOL     OW10235   1.263   4.097   2.011 -0.6082 -0.2537 -0.6444
 3333SOL    HW110236   1.228   4.182   2.038 -1.9189 -0.3426 -1.9361
 3333SOL    HW210237   1.341   4.119   1.959 -0.3506  0.0829 -0.1310
 3334SOL     OW10238   3.377   5.037   2.623 -0.1309 -0.7011  0.6553
 3334SOL    HW110239   3.452   5.083   2.586 -0.1684 -0.2423  1.1330
 3334SOL    HW210240   3.302   5.066   2.571 -0.3077  0.5647  1.5768
 3335SOL     OW10241   1.004   1.818   3.968  0.3367 -0.1481  0.0367
 3335SOL    HW110242   1.019   1.724   3.981 -0.3057 -0.2333  0.1790
 3335SOL    HW210243   1.013   1.856   4.055  1.0579 -0.0053 -0.0923
 3336SOL     OW10244   1.328   2.279   0.415  0.6800 -0.1677  0.2741
 3336SOL    HW110245   1.309   2.282   0.321  1.2145  0.5321  0.1851
 3336SOL    HW210246   1.351   2.369   0.438  3.1325 -0.7883  0.5284
 3337SOL     OW10247   1.815   5.951   4.753  0.1974 -0.1974 -0.5070
 3337SOL    HW110248   1.784   5.869   4.792  3.2258 -0.6211  1.3535
 3337SOL    HW210249   1.873   5.923   4.682  2.0935  0.1656  0.8081
 3338SOL     OW10250   2.557   0.917   2.545 -0.0588  0.6865  0.1647
 3338SOL    HW110251   2.539   0.928   2.452 -0.2134 -0.8365 -0.0205
 3338SOL    HW210252   2.470   0.911   2.585 -0.0219 -0.3721  0.1386
 3339SOL     OW10253   0.393   1.301   1.409 -0.1120 -0.3321 -0.0959
 3339SOL    HW110254   0.470   1.357   1.394  0.4599 -1.4478 -1.5657
 3339SOL    HW210255   0.343   1.307   1.327 -1.0100 -0.5326  0.4212
 3340SOL     OW10256   5.533   4.409   5.788  0.1819 -0.0901  0.1217
 3340SOL    HW110257   5.616   4.458   5.786 -0.4328  0.9734  0.0890
 3340SOL    HW210258   5.465   4.476   5.781 -0.6657 -1.0543 -1.8140
 3341SOL     OW10259   1.442   1.169   2.459  0.5789 -0.0908  0.5533
 3341SOL    HW110260   1.438   1.078   2.429 -0.9781  0.5579 -1.4762
 3341SOL    HW210261   1.375   1.174   2.527 -0.1840 -0.2149 -0.1706
 3342SOL     OW10262   2.740   3.994   5.217 -0.3617 -0.2994  0.4795
 3342SOL    HW110263   2.650   4.008   5.188 -0.3283  0.6027  0.7561
 3342SOL    HW210264   2.793   4.049   5.159  0.1292 -1.5680 -0.3165
 3343SOL     OW10265   4.943   4.803   4.368  0.3602 -0.2819  0.3044
 3343SOL    HW110266   4.923   4.802   4.462  1.9227 -3.1095  0.7149
 3343SOL    HW210267   5.028   4.846   4.362 -0.8465  2.2222 -0.2145
 3344SOL     OW10268   2.532   4.302   4.245  0.1477  0.1371 -0.3047
 3344SOL    HW110269   2.531   4.277   4.152  1.1602  2.6378 -1.0840
 3344SOL    HW210270   2.587   4.236   4.287  0.5494 -0.4474 -1.6815
 3345SOL     OW10271   2.367   3.197   1.884  0.7546 -0.1474 -1.1915
 3345SOL    HW110272   2.375   3.194   1.789  2.3314  2.8620 -1.2688
 3345SOL    HW210273   2.409   3.279   1.909 -0.8358 -0.1646  2.0024
 3346SOL     OW10274   0.732   1.054   4.581 -0.0726 -0.2663 -0.8233
 3346SOL    HW110275   0.751   0.966   4.616  2.0159  1.0782  1.7856
 3346SOL    HW210276   0.664   1.088   4.639  0.5126  0.5153 -0.5747
 3347SOL     OW10277   4.416   0.218   1.412 -0.6659  0.5226  0.0821
 3347SOL    HW110278   4.468   0.228   1.491  0.0956  0.3484 -0.3897
 3347SOL    HW210279   4.479   0.198   1.344 -1.3980 -0.1749 -0.4095
 3348SOL     OW10280   4.150   4.498   0.190 -0.6548 -0.5010  0.2214
 3348SOL    HW110281   4.240   4.484   0.161 -0.9999 -0.2811 -1.0062
 3348SOL    HW210282   4.159   4.547   0.272  0.3372  2.7365 -1.6265
 3349SOL     OW10283   3.501   2.780   2.026  0.2759  0.1021  0.0413
 3349SOL    HW110284   3.531   2.746   1.942 -1.1260 -0.7641 -0.1522
 3349SOL    HW210285   3.469   2.868   2.007 -1.0385 -0.4870 -0.5793
 3350SOL     OW10286   1.891   1.883   0.299  0.3412 -0.6611  0.4662
 3350SOL    HW110287   1.965   1.939   0.324  2.3838 -3.0530  0.1670
 3350SOL    HW210288   1.838   1.938   0.241  1.0864  1.5968  1.8136
 3351SOL     OW10289   2.048   1.975   3.183  0.2236  0.0542 -0.3562
 3351SOL    HW110290   2.021   1.896   3.230  0.5672  0.9313  1.3897
 3351SOL    HW210291   2.037   1.953   3.090 -0.5505 -1.7141  0.1217
 3352SOL     OW10292   5.383   1.717   5.290 -0.7288 -0.1192 -0.2082
 3352SOL    HW110293   5.357   1.628   5.269 -0.2174 -0.6893  1.4211
 3352SOL    HW210294   5.301   1.765   5.300 -0.9979 -0.3048 -1.4446
 3353SOL     OW10295   5.426   5.540   0.995 -0.5708 -0.2080  0.1060
 3353SOL    HW110296   5.517   5.556   0.967 -1.2859 -0.1599 -2.4497
 3353SOL    HW210297   5.434   5.511   1.086  2.2395 -2.7830 -0.7792
 3354SOL     OW10298   4.379   3.775   1.999 -0.1807 -0.1501  0.0201
 3354SOL    HW110299   4.342   3.761   1.911 -0.8584 -0.0328  0.2784
 3354SOL    HW210300   4.417   3.862   1.995  1.2930 -0.7946 -0.6562
 3355SOL     OW10301   0.725   3.012   0.654  0.1030 -0.1794  0.0521
 3355SOL    HW110302   0.768   3.097   0.646  1.4804 -0.7832  0.6757
 3355SOL    HW210303   0.797   2.950   0.670 -1.0178 -1.1551  1.6538
 3356SOL     OW10304   1.681   0.293   1.073 -0.3446 -0.2496 -0.7885
 3356SOL    HW110305   1.721   0.216   1.030 -1.4368 -0.3915 -1.6030
 3356SOL    HW210306   1.590   0.290   1.045 -0.4879  1.1344 -0.4974
 3357SOL     OW10307   4.123   2.083   2.767 -0.3991 -0.5483  0.3423
 3357SOL    HW110308   4.069   2.032   2.706 -2.4490 -0.4137  1.9451
 3357SOL    HW210309   4.171   2.018   2.818 -0.7890 -0.7713  0.4292
 3358SOL     OW10310   0.569   1.099   6.052  0.2304  0.4062  0.2909
 3358SOL    HW110311   0.605   1.012   6.068  0.1425  0.4067  0.4930
 3358SOL    HW210312   0.549   1.133   6.139  0.1848  0.5945  0.2069
 3359SOL     OW10313   4.347   5.245   3.092 -0.0301 -0.5086 -0.2466
 3359SOL    HW110314   4.343   5.340   3.088  1.7471 -0.2060  2.3189
 3359SOL    HW210315   4.433   5.223   3.054 -0.1896 -1.0366 -0.3074
 3360SOL     OW10316   5.213   5.745   3.796 -0.3212 -0.2094 -0.3639
 3360SOL    HW110317   5.153   5.819   3.788 -0.9022 -0.7114 -0.8280
 3360SOL    HW210318   5.194   5.691   3.719  0.4486 -0.5774 -0.2997
 3361SOL     OW10319   0.062   2.094   0.843 -0.4510 -0.0705  0.0333
 3361SOL    HW110320   0.051   2.164   0.779 -0.7512  0.2454  0.4237
 3361SOL    HW210321   0.157   2.082   0.849 -0.4062  0.1536 -0.1921
 3362SOL     OW10322   2.123   3.094   4.706 -0.1207 -0.1855  0.2495
 3362SOL    HW110323   2.077   3.167   4.749  0.2508 -1.3129  2.7349
 3362SOL    HW210324   2.058   3.024   4.701  0.1104 -0.3711 -0.1660
 3363SOL     OW10325   0.137   0.510   2.102 -0.3760 -0.0020  0.1862
 3363SOL    HW110326   0.069   0.443   2.090 -0.7510 -0.0441  2.1898
 3363SOL    HW210327   0.089   0.587   2.130  0.2386  0.5840 -0.3444
 3364SOL     OW10328   2.778   0.112   0.771  0.1109  0.3385  0.0461
 3364SOL    HW110329   2.862   0.101   0.816  0.0085  0.2103  0.2027
 3364SOL    HW210330   2.733   0.179   0.821  0.4653  1.0216 -0.5273
 3365SOL     OW10331   1.325   3.097   1.573 -0.5433 -0.4920 -0.0841
 3365SOL    HW110332   1.299   3.028   1.511 -0.5698 -0.6522  0.1052
 3365SOL    HW210333   1.348   3.171   1.517  0.6221 -1.0337 -0.3599
 3366SOL     OW10334   0.393   1.729   2.037  0.2334  0.2798  0.3816
 3366SOL    HW110335   0.474   1.699   1.995 -0.5970 -0.3406 -0.8573
 3366SOL    HW210336   0.360   1.653   2.084 -0.3929  0.0564 -0.3842
 3367SOL     OW10337   1.695   3.335   0.687  0.4006 -0.2655  0.8072
 3367SOL    HW110338   1.669   3.332   0.779 -1.4646 -2.9181  0.3310
 3367SOL    HW210339   1.686   3.427   0.663 -3.0198 -0.0241  2.3266
 3368SOL     OW10340   4.182   0.360   0.619 -0.5611  0.0324 -0.2211
 3368SOL    HW110341   4.171   0.452   0.643 -1.4336 -0.5464  1.8338
 3368SOL    HW210342   4.154   0.312   0.697 -0.0102 -1.9781 -1.2106
 3369SOL     OW10343   1.746   3.422   5.450 -0.7574 -0.3876 -0.0775
 3369SOL    HW110344   1.652   3.436   5.439 -0.4152  1.4139 -0.9763
 3369SOL    HW210345   1.753   3.330   5.476 -2.6554 -1.0624 -1.6749
 3370SOL     OW10346   4.501   5.286   2.015  0.4793  0.4429  0.0738
 3370SOL    HW110347   4.495   5.378   2.041 -1.6354  0.7848 -1.2952
 3370SOL    HW210348   4.544   5.242   2.088 -0.6786  2.1177  1.8628
 3371SOL     OW10349   5.023   0.766   5.979 -0.3657 -0.1513  0.6703
 3371SOL    HW110350   4.984   0.702   6.038  1.4294 -0.5356  1.5126
 3371SOL    HW210351   5.115   0.769   6.005 -0.2778  2.3958  0.3204
 3372SOL     OW10352   3.910   1.785   1.892  0.1918  0.0259  0.0801
 3372SOL    HW110353   3.953   1.852   1.839 -0.2186 -0.5133 -0.9744
 3372SOL    HW210354   3.817   1.793   1.871 -0.1293  0.5316  1.5913
 3373SOL     OW10355   0.628   3.422   2.197  0.5170  0.3620  0.4096
 3373SOL    HW110356   0.714   3.383   2.213 -0.1476 -2.2722 -1.6734
 3373SOL    HW210357   0.594   3.374   2.121 -1.6116  3.2972 -0.6610
 3374SOL     OW10358   2.983   4.941   1.830 -0.5467  0.0062 -0.3656
 3374SOL    HW110359   2.901   4.981   1.855 -0.3364  0.7207 -0.7992
 3374SOL    HW210360   3.040   4.952   1.906  0.6852  3.7710 -1.5987
 3375SOL     OW10361   3.082   0.088   5.334 -0.6379 -0.1813 -0.1054
 3375SOL    HW110362   3.142   0.149   5.377 -0.2755 -1.3046  1.0118
 3375SOL    HW210363   3.004   0.141   5.315  0.1471  0.9383 -0.3104
 3376SOL     OW10364   5.512   1.994   1.937  0.5397 -0.0493 -0.1453
 3376SOL    HW110365   5.518   1.927   1.869 -1.8832 -0.3915 -0.1094
 3376SOL    HW210366   5.549   2.073   1.896 -0.2797 -0.4084 -1.6614
 3377SOL     OW10367   5.856   5.769   6.137 -0.2358  0.0571 -0.3031
 3377SOL    HW110368   5.899   5.850   6.110 -1.8161  1.0082 -0.0889
 3377SOL    HW210369   5.774   5.798   6.178  0.4209 -1.4964  2.2986
 3378SOL     OW10370   5.828   0.903   5.889  0.3195  0.4255  0.6135
 3378SOL    HW110371   5.807   0.955   5.967  0.9706  2.5799 -0.5748
 3378SOL    HW210372   5.899   0.951   5.846 -0.7388 -0.0765 -1.8656
 3379SOL     OW10373   1.695   4.835   2.167 -0.3140  0.8183  0.3065
 3379SOL    HW110374   1.779   4.801   2.136 -0.7886  1.4869 -1.8792
 3379SOL    HW210375   1.671   4.901   2.102 -2.0801  1.3219  1.4155
 3380SOL     OW10376   5.248   0.407   4.739  0.0778  0.1056 -0.0445
 3380SOL    HW110377   5.322   0.357   4.774 -0.0270  0.5531  0.8364
 3380SOL    HW210378   5.179   0.397   4.804 -0.1290  0.9197 -0.1274
 3381SOL     OW10379   3.587   0.084   2.409 -0.0916 -0.1373 -0.2207
 3381SOL    HW110380   3.529   0.087   2.485  2.5402 -1.3161  2.0440
 3381SOL    HW210381   3.627   0.171   2.406  1.1020 -0.6081  0.9523
 3382SOL     OW10382   4.192   5.024   4.205  0.0211  0.2060  0.3836
 3382SOL    HW110383   4.167   5.004   4.115 -0.6222 -0.4975  0.7074
 3382SOL    HW210384   4.275   5.071   4.198 -0.0485  0.1889 -0.5747
 3383SOL     OW10385   1.764   2.281   2.811 -0.1806 -0.3861  0.7413
 3383SOL    HW110386   1.767   2.215   2.742 -1.4161  0.4267 -0.1224
 3383SOL    HW210387   1.697   2.250   2.871 -1.3184  0.4342 -0.0713
 3384SOL     OW10388   1.934   3.544   3.398 -0.7326  0.1359 -0.0886
 3384SOL    HW110389   2.017   3.592   3.401 -0.3624 -0.4275 -1.0080
 3384SOL    HW210390   1.867   3.611   3.384 -0.4602  0.6063  0.7494
 3385SOL     OW10391   4.681   3.835   4.753  0.3637 -0.2948 -0.1563
 3385SOL    HW110392   4.608   3.785   4.716 -0.5699  0.2737  0.8564
 3385SOL    HW210393   4.759   3.791   4.720 -0.4239 -2.0214  0.1809
 3386SOL     OW10394   3.348   3.333   2.654  0.1734  0.1414  0.5631
 3386SOL    HW110395   3.403   3.345   2.576  1.0455  0.6716  1.2380
 3386SOL    HW210396   3.259   3.340   2.621  0.5188  0.0126 -0.4493
 3387SOL     OW10397   2.743   2.396   1.351 -0.7488 -0.1084  0.2235
 3387SOL    HW110398   2.726   2.336   1.424 -0.5035  1.4680  1.6451
 3387SOL    HW210399   2.837   2.415   1.358 -1.0834  1.4859  0.6640
 3388SOL     OW10400   4.054   5.516   2.935 -0.3732 -0.3521 -0.2447
 3388SOL    HW110401   4.092   5.542   3.019  0.1931 -0.6645 -0.4026
 3388SOL    HW210402   3.972   5.565   2.930 -0.6104 -0.6393  0.6730
 3389SOL     OW10403   3.968   5.642   1.190  0.6755 -0.4186  0.5658
 3389SOL    HW110404   3.934   5.562   1.150  1.8356 -1.4592  1.5970
 3389SOL    HW210405   4.053   5.617   1.225  0.8819  1.1706  1.2702
 3390SOL     OW10406   0.476   5.348   4.913 -0.1177  0.4623 -0.0347
 3390SOL    HW110407   0.539   5.283   4.943 -0.7676 -0.6438 -0.9614
 3390SOL    HW210408   0.528   5.426   4.896  0.5201  0.5741  2.1832
 3391SOL     OW10409   2.640   4.367   5.018  0.1547  0.2876  0.2712
 3391SOL    HW110410   2.613   4.390   5.107 -1.6673 -0.7214  0.0216
 3391SOL    HW210411   2.559   4.340   4.974  0.8085  1.7832 -2.0504
 3392SOL     OW10412   2.847   0.622   4.575  0.6951  0.1512 -0.0895
 3392SOL    HW110413   2.844   0.687   4.645  0.9283  0.1395 -0.0676
 3392SOL    HW210414   2.821   0.669   4.496 -0.7401 -0.0982  0.1933
 3393SOL     OW10415   0.466   5.699   1.941  0.1966 -0.3666  0.0303
 3393SOL    HW110416   0.403   5.628   1.951 -1.8385  1.4460  0.5818
 3393SOL    HW210417   0.499   5.715   2.029 -0.8588  0.6812  0.2487
 3394SOL     OW10418   0.016   5.820   2.539 -0.7534  0.3925  0.2389
 3394SOL    HW110419   0.094   5.764   2.539 -1.2017 -0.2449 -0.0529
 3394SOL    HW210420  -0.057   5.759   2.549 -1.2685  0.8949 -0.3798
 3395SOL     OW10421   4.359   4.462   5.877 -0.3636  0.5730  0.4300
 3395SOL    HW110422   4.330   4.452   5.787 -0.5527  1.9401  0.3141
 3395SOL    HW210423   4.454   4.449   5.874 -0.4393  0.0908  0.1275
 3396SOL     OW10424   4.649   4.497   0.064 -0.9352 -0.2355 -0.2930
 3396SOL    HW110425   4.723   4.441   0.090  0.3780  0.9773 -1.2793
 3396SOL    HW210426   4.647   4.566   0.130 -0.5986  0.2206 -0.7482
 3397SOL     OW10427   0.386   0.363   1.378 -0.2400  0.5182  0.1310
 3397SOL    HW110428   0.458   0.309   1.347 -0.0257 -0.3458  1.9946
 3397SOL    HW210429   0.427   0.444   1.406  0.2084 -0.2772  1.9621
 3398SOL     OW10430   2.704   5.932   3.278 -0.5060 -0.5245  0.0174
 3398SOL    HW110431   2.751   5.976   3.207  1.4094 -1.9443  0.3173
 3398SOL    HW210432   2.772   5.911   3.341 -1.9260 -0.7831  1.5115
 3399SOL     OW10433   2.705   2.383   4.744 -0.4818 -0.1056  0.3307
 3399SOL    HW110434   2.791   2.340   4.748 -0.5760 -0.3595 -0.2945
 3399SOL    HW210435   2.722   2.473   4.773 -0.2846 -0.5418  1.6616
 3400SOL     OW10436   5.318   4.952   5.661  0.1738  0.2326  0.0408
 3400SOL    HW110437   5.224   4.962   5.649  0.3468  0.8437 -0.9531
 3400SOL    HW210438   5.331   4.957   5.756 -0.4997  3.1640  0.0638
 3401SOL     OW10439   5.281   4.559   0.857  0.7415  0.0552  0.3404
 3401SOL    HW110440   5.258   4.595   0.942  1.8414 -0.0820  0.7184
 3401SOL    HW210441   5.272   4.464   0.868 -1.4672  0.1156 -0.4432
 3402SOL     OW10442   0.719   1.560   3.035  0.2524  0.3145 -0.3314
 3402SOL    HW110443   0.637   1.514   3.017  0.5594  0.2748 -1.6799
 3402SOL    HW210444   0.787   1.499   3.008  0.7049  0.8519 -0.4176
 3403SOL     OW10445   0.943   5.049   1.242 -0.2948 -0.5982 -0.0519
 3403SOL    HW110446   0.940   5.037   1.147  1.5288 -1.3807 -0.0566
 3403SOL    HW210447   0.988   5.132   1.255 -1.5058  0.0511  0.1465
 3404SOL     OW10448   1.979   0.664   0.239  0.6747  0.0449 -0.0408
 3404SOL    HW110449   1.902   0.620   0.276  0.6972  1.1595  1.4148
 3404SOL    HW210450   1.965   0.757   0.259  0.8372  0.7041 -2.6452
 3405SOL     OW10451   2.169   3.057   5.398 -0.1193 -0.0579 -0.3130
 3405SOL    HW110452   2.228   3.040   5.324 -2.3867 -2.2863 -1.7854
 3405SOL    HW210453   2.135   2.971   5.421 -2.6286  1.0735  0.5548
 3406SOL     OW10454   3.847   0.593   1.729 -0.3976  0.2958  0.1314
 3406SOL    HW110455   3.824   0.598   1.822 -0.1900 -1.4030  0.3070
 3406SOL    HW210456   3.887   0.507   1.719  0.8148  0.9711 -1.2791
 3407SOL     OW10457   0.924   4.106   2.000  0.1089  0.0067 -0.5707
 3407SOL    HW110458   0.961   4.077   1.916  1.2099 -1.4662  0.3581
 3407SOL    HW210459   0.981   4.178   2.028  0.7454 -0.5640 -0.3574
 3408SOL     OW10460   1.596   6.138   1.285 -0.0794 -0.7926  0.1167
 3408SOL    HW110461   1.502   6.152   1.290 -0.3886 -1.5014 -2.3067
 3408SOL    HW210462   1.634   6.213   1.331 -1.7940  0.3362 -0.2105
 3409SOL     OW10463   1.810   2.477   3.013  0.4408 -0.2760 -0.1029
 3409SOL    HW110464   1.753   2.459   3.088  0.0084  0.0257 -0.3546
 3409SOL    HW210465   1.787   2.410   2.949 -0.3435  0.4465 -0.5894
 3410SOL     OW10466   5.440   4.341   3.633 -0.4728 -0.0450  0.2168
 3410SOL    HW110467   5.469   4.405   3.568  1.4412 -0.6136  0.4676
 3410SOL    HW210468   5.466   4.256   3.596  0.3676 -0.3928  1.5610
 3411SOL     OW10469   0.450   2.563   0.992  0.0860  0.3387 -0.0541
 3411SOL    HW110470   0.389   2.634   0.973  0.0683  0.0098 -1.2985
 3411SOL    HW210471   0.420   2.490   0.939 -0.2427 -0.8232  1.6378
 3412SOL     OW10472   3.411   4.938   4.748  1.0369 -0.0020  0.4621
 3412SOL    HW110473   3.463   4.936   4.667  0.5070  0.8792  0.0990
 3412SOL    HW210474   3.353   5.013   4.738 -0.2133 -0.8845  0.9369
 3413SOL     OW10475   0.681   2.074   4.954  0.1017 -0.4773 -0.5961
 3413SOL    HW110476   0.702   1.988   4.990  0.5823 -0.5456 -1.0398
 3413SOL    HW210477   0.644   2.123   5.028  1.9777 -0.2838  0.2580
 3414SOL     OW10478   1.652   4.253   2.704  0.3567  0.3167 -0.1664
 3414SOL    HW110479   1.629   4.344   2.725 -0.7609 -0.1955  0.9435
 3414SOL    HW210480   1.729   4.235   2.759  0.9117  0.7318 -0.7830
 3415SOL     OW10481   4.592   1.040   2.287 -0.3418  0.5868  0.2963
 3415SOL    HW110482   4.645   1.010   2.213 -0.6811  0.5658  0.0606
 3415SOL    HW210483   4.537   1.110   2.250 -1.1777 -0.0513  0.3075
 3416SOL     OW10484   1.367   5.065   3.015 -0.0861 -0.9360  0.6910
 3416SOL    HW110485   1.275   5.087   2.995  0.1349 -1.4482 -1.0278
 3416SOL    HW210486   1.395   5.134   3.075 -1.2693 -0.1117  0.3401
 3417SOL     OW10487   5.957   6.123   2.096 -0.3107  0.1645  0.2608
 3417SOL    HW110488   6.023   6.102   2.031  0.2280  0.0331  0.8416
 3417SOL    HW210489   5.897   6.048   2.095 -0.7583  0.5252 -0.6404
 3418SOL     OW10490   3.317   0.644   2.385 -0.1132  0.5840 -0.4170
 3418SOL    HW110491   3.328   0.701   2.310  0.4649 -0.3708 -1.0874
 3418SOL    HW210492   3.356   0.692   2.458 -0.7830  1.5626 -0.7016
 3419SOL     OW10493   6.097   1.675   1.587 -0.2742 -0.6363  0.1258
 3419SOL    HW110494   6.175   1.668   1.641 -0.0876  0.4805  0.0355
 3419SOL    HW210495   6.102   1.601   1.526  0.8705 -0.4190 -0.0726
 3420SOL     OW10496   2.529   0.258   0.437 -0.5622  0.0865  0.0587
 3420SOL    HW110497   2.616   0.247   0.397 -0.6015 -0.7331  0.1754
 3420SOL    HW210498   2.469   0.263   0.363 -0.4395  0.4337 -0.0182
 3421SOL     OW10499   2.432   3.678   4.736  0.3217 -0.6030  0.1594
 3421SOL    HW110500   2.469   3.738   4.800 -1.6706  0.2868  0.5506
 3421SOL    HW210501   2.345   3.714   4.716  1.0085 -0.5335 -3.4130
 3422SOL     OW10502   3.541   3.499   5.337 -0.0628  0.0955  0.1914
 3422SOL    HW110503   3.587   3.450   5.269 -0.1107 -0.5952  0.6576
 3422SOL    HW210504   3.606   3.513   5.406 -0.3186 -0.1664  0.4892
 3423SOL     OW10505   4.515   0.323   5.965 -0.0626  0.1194  0.5995
 3423SOL    HW110506   4.606   0.352   5.956  0.1602  0.0002  2.1427
 3423SOL    HW210507   4.520   0.247   6.024 -1.2886  1.0392  1.9466
 3424SOL     OW10508   2.205   1.286   4.793  0.9728 -0.0459  0.0875
 3424SOL    HW110509   2.245   1.363   4.833  0.7357  0.8026 -1.2352
 3424SOL    HW210510   2.180   1.231   4.867  0.5656  1.4398  1.1078
 3425SOL     OW10511   4.071   0.803   6.012 -0.0285  0.2995  0.1814
 3425SOL    HW110512   4.104   0.749   5.940 -0.9309 -0.5249  0.3588
 3425SOL    HW210513   4.148   0.852   6.042  0.0291  2.0833 -2.4902
 3426SOL     OW10514   0.484   2.932   6.049 -0.4033  0.5965 -0.5347
 3426SOL    HW110515   0.434   2.931   6.131  0.1130  0.7152 -0.2169
 3426SOL    HW210516   0.526   3.018   6.048  1.9571 -0.4439  0.5195
 3427SOL     OW10517   3.247   1.738   0.852 -0.3919  0.4875  0.0888
 3427SOL    HW110518   3.214   1.656   0.816 -0.0444 -0.4288  1.7679
 3427SOL    HW210519   3.191   1.806   0.813 -2.0102 -0.7155  0.2359
 3428SOL     OW10520   3.695   1.688   4.977  0.1915 -0.2823  0.5358
 3428SOL    HW110521   3.644   1.764   4.947 -0.6594 -1.3076 -0.7407
 3428SOL    HW210522   3.770   1.726   5.021 -0.2995  1.3113  0.0806
 3429SOL     OW10523   1.174   3.043   3.914  0.3155  0.3775  0.3434
 3429SOL    HW110524   1.210   2.955   3.914  0.5084  0.4470 -0.6596
 3429SOL    HW210525   1.100   3.040   3.853 -0.8741  0.4571  1.7096
 3430SOL     OW10526   5.753   3.335   3.433  0.2154 -0.2918 -0.3710
 3430SOL    HW110527   5.685   3.362   3.495  0.1525  1.3797 -1.1321
 3430SOL    HW210528   5.716   3.259   3.389 -1.9886  1.6000 -2.0112
 3431SOL     OW10529   4.458   3.075   2.155 -0.4065  0.6103 -0.4451
 3431SOL    HW110530   4.434   2.993   2.114 -2.1264  1.6870 -1.6970
 3431SOL    HW210531   4.377   3.124   2.161  0.6402  2.3964 -0.1142
 3432SOL     OW10532   1.981   2.880   1.550  0.0727  0.3005 -1.1146
 3432SOL    HW110533   2.063   2.857   1.594 -0.2204  0.9540 -0.1953
 3432SOL    HW210534   1.961   2.804   1.496  0.1720 -0.7601  0.2812
 3433SOL     OW10535   2.431   5.949   0.930  0.0197  0.3183 -0.6530
 3433SOL    HW110536   2.410   5.999   1.008 -1.5726 -1.0127 -0.1751
 3433SOL    HW210537   2.509   5.899   0.954  0.1425  0.6885 -0.2806
 3434SOL     OW10538   1.854   2.551   3.902 -0.2700  0.1980  0.5181
 3434SOL    HW110539   1.894   2.579   3.820  1.6062 -0.9558  0.9817
 3434SOL    HW210540   1.801   2.475   3.880 -0.5832  0.5042  0.2175
 3435SOL     OW10541   6.085   0.511   0.020  0.7726 -0.5045  1.3794
 3435SOL    HW110542   6.068   0.421  -0.009  2.6812 -0.5228  0.1266
 3435SOL    HW210543   6.020   0.564  -0.025  1.8156 -0.9079 -0.7349
 3436SOL     OW10544   1.801   3.773   3.394  0.5459  0.5997 -0.4458
 3436SOL    HW110545   1.719   3.744   3.353  0.9120 -0.4960 -0.4456
 3436SOL    HW210546   1.773   3.805   3.480  0.2609 -1.3660  0.2556
 3437SOL     OW10547   3.148   1.227   4.000  0.3218  0.5644  0.6012
 3437SOL    HW110548   3.154   1.139   4.037 -0.5212  1.0357  1.9171
 3437SOL    HW210549   3.094   1.217   3.922  1.1422 -0.2547  0.1187
 3438SOL     OW10550   6.060   1.750   0.010  0.3985 -0.1128  0.1111
 3438SOL    HW110551   6.135   1.694  -0.009  1.4160  0.2981  2.5484
 3438SOL    HW210552   6.012   1.703   0.078 -1.5255 -0.2903 -1.2910
 3439SOL     OW10553   0.869   1.890   3.354 -0.0995  0.0831 -0.0672
 3439SOL    HW110554   0.917   1.958   3.307  0.8391 -0.1807  0.4724
 3439SOL    HW210555   0.856   1.926   3.442  0.3304 -0.3971  0.1954
 3440SOL     OW10556   1.076   2.431   0.895 -0.4449 -0.0767  0.2104
 3440SOL    HW110557   1.037   2.384   0.969  0.2256 -1.2181 -0.1344
 3440SOL    HW210558   1.168   2.404   0.896 -0.0207  1.3261  0.0474
 3441SOL     OW10559   3.305   2.945   1.707  0.4271 -0.1187  0.1069
 3441SOL    HW110560   3.270   2.859   1.730  1.2157 -0.5083 -0.1454
 3441SOL    HW210561   3.319   2.988   1.791  1.2658 -0.7303  0.2876
 3442SOL     OW10562   4.978   3.402   5.798 -0.1370  0.5035  0.4932
 3442SOL    HW110563   4.932   3.346   5.735  2.4240 -1.0359 -0.1531
 3442SOL    HW210564   4.954   3.366   5.883  0.7781 -1.0954  0.1156
 3443SOL     OW10565   5.790   0.025   0.168  0.3312  0.3299  0.2875
 3443SOL    HW110566   5.764   0.095   0.108 -1.6748 -0.9877 -0.4745
 3443SOL    HW210567   5.733   0.037   0.244  1.2508  0.5758  0.9627
 3444SOL     OW10568   1.332   5.910   3.397  0.0314 -0.2359 -0.3805
 3444SOL    HW110569   1.262   5.961   3.357 -0.4635 -0.0281  0.7231
 3444SOL    HW210570   1.338   5.943   3.487  0.2284 -1.5748  0.1260
 3445SOL     OW10571   6.105   0.656   1.784 -0.2250 -0.0046  0.4890
 3445SOL    HW110572   6.103   0.749   1.759  0.8246 -0.3818 -1.1668
 3445SOL    HW210573   6.014   0.635   1.806 -1.1085  0.6734 -2.1458
 3446SOL     OW10574   3.165   0.811   2.721  0.4520  0.8405 -0.3212
 3446SOL    HW110575   3.143   0.838   2.810  1.0802 -1.7240  0.7031
 3446SOL    HW210576   3.166   0.893   2.671  1.1440  2.5302  2.2282
 3447SOL     OW10577   3.643   3.625   1.410 -0.1202 -0.3395 -0.1072
 3447SOL    HW110578   3.728   3.662   1.387  0.2533 -1.8686 -1.4264
 3447SOL    HW210579   3.663   3.537   1.442 -1.1840 -0.7268 -0.4571
 3448SOL     OW10580   5.906   3.978   2.254  0.1279 -0.9817  0.6138
 3448SOL    HW110581   5.896   3.944   2.165  0.2107 -0.5074  0.4187
 3448SOL    HW210582   5.974   4.045   2.246  0.5070 -1.3025  1.1333
 3449SOL     OW10583   2.039   4.790   0.063  0.6735 -0.1015 -0.2002
 3449SOL    HW110584   2.009   4.798  -0.028 -0.6650  1.0008  0.3038
 3449SOL    HW210585   1.966   4.825   0.115  0.3361 -3.0425  1.4711
 3450SOL     OW10586   1.731   2.095   3.910  0.1582 -0.0837 -0.2807
 3450SOL    HW110587   1.811   2.054   3.942  0.8944  0.2718 -1.5926
 3450SOL    HW210588   1.701   2.038   3.840 -1.3940 -0.8183  0.9198
 3451SOL     OW10589   1.846   4.600   4.718 -0.2982 -0.1011 -0.3583
 3451SOL    HW110590   1.788   4.585   4.644 -0.2164  0.8457 -0.6298
 3451SOL    HW210591   1.812   4.543   4.787  0.2142 -1.7394 -1.4007
 3452SOL     OW10592   3.523   2.079   0.427 -0.4117 -0.0725 -0.0624
 3452SOL    HW110593   3.522   2.153   0.366  1.0237 -0.7575 -0.9592
 3452SOL    HW210594   3.603   2.090   0.477  0.6035 -1.7737 -1.2125
 3453SOL     OW10595   4.203   5.881   6.061 -0.0173  0.1285 -0.1454
 3453SOL    HW110596   4.109   5.871   6.048 -0.2496  0.9153  0.8653
 3453SOL    HW210597   4.231   5.941   5.992 -0.3809  0.4297 -0.0322
 3454SOL     OW10598   2.617   0.459   2.250 -0.2845  0.5250 -0.3535
 3454SOL    HW110599   2.630   0.432   2.159 -1.1488 -1.2376 -0.0076
 3454SOL    HW210600   2.529   0.496   2.252 -0.5438 -0.0983 -0.1043
 3455SOL     OW10601   1.091   0.551   3.030 -0.5210 -0.8603  0.4376
 3455SOL    HW110602   1.185   0.546   3.015 -0.6632  0.1461 -0.8742
 3455SOL    HW210603   1.082   0.600   3.112  0.0937 -1.8955  1.1598
 3456SOL     OW10604   5.380   4.522   5.308 -0.2680 -0.1508 -0.2426
 3456SOL    HW110605   5.461   4.559   5.343 -1.2483 -0.0272  2.0702
 3456SOL    HW210606   5.328   4.598   5.283 -0.5126 -0.1282  0.3184
 3457SOL     OW10607   2.363   5.437   0.321 -0.4420 -0.3949  0.5094
 3457SOL    HW110608   2.285   5.486   0.348 -0.1996  0.7696 -0.7878
 3457SOL    HW210609   2.368   5.364   0.382 -1.2234  0.8103  2.0840
 3458SOL     OW10610   2.632   0.834   1.000 -0.0545  0.5157 -0.0866
 3458SOL    HW110611   2.624   0.787   0.917  0.6223  0.7878 -0.3118
 3458SOL    HW210612   2.633   0.765   1.067  2.3825  0.0635 -0.4954
 3459SOL     OW10613   2.547   6.023   3.747 -0.7475  0.0819 -0.3000
 3459SOL    HW110614   2.537   5.998   3.655  1.7703 -0.8014 -0.4013
 3459SOL    HW210615   2.466   5.992   3.788 -0.9857 -1.5226 -1.8245
 3460SOL     OW10616   5.080   1.088   5.458 -0.7685  0.0062 -0.3320
 3460SOL    HW110617   5.139   1.074   5.533  0.3028  0.8567 -0.9779
 3460SOL    HW210618   5.133   1.138   5.396 -1.2452 -1.6428 -2.1441
 3461SOL     OW10619   2.331   1.315   5.197  0.4686 -0.5754  0.6076
 3461SOL    HW110620   2.343   1.225   5.165  1.7329  0.1069 -1.0151
 3461SOL    HW210621   2.413   1.359   5.174 -0.7559  1.4336 -0.1966
 3462SOL     OW10622   3.618   5.412   0.829  0.4263 -0.0004  0.2804
 3462SOL    HW110623   3.593   5.490   0.779  0.9241  0.1518  0.2624
 3462SOL    HW210624   3.706   5.432   0.862  0.3848 -0.3835  0.6319
 3463SOL     OW10625   0.039   2.572   5.326  0.0710 -0.0987 -0.0141
 3463SOL    HW110626   0.089   2.651   5.350 -1.0433  0.1746  1.5736
 3463SOL    HW210627   0.073   2.504   5.384  0.2706 -0.5369 -0.6310
 3464SOL     OW10628   3.889   4.514   2.745 -0.5141 -0.1263 -0.5847
 3464SOL    HW110629   3.900   4.592   2.691 -0.3822 -0.4875 -1.0846
 3464SOL    HW210630   3.797   4.490   2.735 -0.9723  0.8923  0.8570
 3465SOL     OW10631   1.486   1.169   6.017 -0.0320 -0.8595  0.3644
 3465SOL    HW110632   1.526   1.252   5.990  0.4169 -1.3103 -0.3762
 3465SOL    HW210633   1.553   1.127   6.070 -0.0460 -1.0043  0.2672
 3466SOL     OW10634   2.398   5.947   5.627  0.4968  0.0136 -0.0912
 3466SOL    HW110635   2.312   5.981   5.653  1.3777  1.6494  0.8500
 3466SOL    HW210636   2.447   5.943   5.708  1.9796  1.1834 -0.8778
 3467SOL     OW10637   1.423   1.441   4.596 -0.1699 -0.1631 -0.5408
 3467SOL    HW110638   1.481   1.383   4.647 -0.3853 -1.1583 -1.4083
 3467SOL    HW210639   1.483   1.498   4.548  0.0414  0.8003  0.7841
 3468SOL     OW10640   2.251   3.823   4.556  0.0401  0.0542  0.3091
 3468SOL    HW110641   2.230   3.915   4.541 -1.0691 -0.0536  1.0499
 3468SOL    HW210642   2.298   3.796   4.477 -1.7463  0.6212 -1.0299
 3469SOL     OW10643   4.728   1.220   4.292  0.2091  0.4408 -0.1028
 3469SOL    HW110644   4.729   1.130   4.324  0.2504  0.0724 -1.1124
 3469SOL    HW210645   4.801   1.224   4.230  0.2228  1.1816 -0.0426
 3470SOL     OW10646   4.996   1.670   0.112  0.2607 -0.1095 -0.2878
 3470SOL    HW110647   5.011   1.691   0.204 -0.8225 -1.2850  0.1866
 3470SOL    HW210648   4.960   1.581   0.113 -3.8845  1.3071 -1.4433
 3471SOL     OW10649   3.021   1.932   1.964  0.7385 -0.3965 -0.0034
 3471SOL    HW110650   3.075   1.947   1.886 -0.5013 -2.4440 -1.3455
 3471SOL    HW210651   3.064   1.860   2.009  0.9009  0.1320  0.7026
 3472SOL     OW10652   0.725   4.211   1.803  0.2232 -0.2733  0.2291
 3472SOL    HW110653   0.811   4.195   1.843  0.2174  0.2902  0.4870
 3472SOL    HW210654   0.741   4.283   1.742  0.1754 -0.9615 -0.5963
 3473SOL     OW10655   2.924   2.069   2.336 -0.2695 -0.0467 -0.2732
 3473SOL    HW110656   2.977   1.997   2.300  0.1797 -0.9653  2.0619
 3473SOL    HW210657   2.984   2.143   2.340  0.5773 -0.7681  1.2808
 3474SOL     OW10658   3.897   3.122   1.839 -1.1147 -0.1237  0.1679
 3474SOL    HW110659   3.902   3.198   1.781  0.3538 -1.1546 -1.1403
 3474SOL    HW210660   3.811   3.084   1.821 -1.5299  0.7584  0.2476
 3475SOL     OW10661   1.357   0.917   3.743  0.1207  0.1427 -0.2079
 3475SOL    HW110662   1.326   0.938   3.655  1.4387  0.8430 -0.5247
 3475SOL    HW210663   1.452   0.922   3.737  0.2402  0.0239  1.2220
 3476SOL     OW10664   4.227   0.856   3.124 -0.6408  0.4899 -0.0448
 3476SOL    HW110665   4.217   0.916   3.050 -0.1318  1.2924  0.5326
 3476SOL    HW210666   4.169   0.783   3.103  0.6688 -0.0622 -2.0121
 3477SOL     OW10667   0.098   5.926   5.245 -0.0880 -0.2249  0.0332
 3477SOL    HW110668   0.183   5.938   5.287 -0.6525  1.8093  0.6827
 3477SOL    HW210669   0.055   5.858   5.298  0.3102  0.2830  1.0278
 3478SOL     OW10670   4.833   3.248   1.814  0.2785 -0.3280  0.3829
 3478SOL    HW110671   4.766   3.281   1.874 -0.5231  1.8191 -1.5166
 3478SOL    HW210672   4.913   3.293   1.841  0.2423 -0.4431  0.6891
 3479SOL     OW10673   1.714   5.787   5.604  0.1817  0.2408  0.4111
 3479SOL    HW110674   1.648   5.719   5.615  0.1078  0.1472 -0.5517
 3479SOL    HW210675   1.719   5.830   5.690 -0.1821 -0.5969  0.8596
 3480SOL     OW10676   3.120   3.893   4.134  0.2913 -0.3951  0.0747
 3480SOL    HW110677   3.127   3.815   4.079 -1.6515 -1.1499  0.7917
 3480SOL    HW210678   3.209   3.907   4.168  1.4217 -0.2233 -2.7184
 3481SOL     OW10679   2.615   5.213   5.312  0.4956 -0.0236 -0.5529
 3481SOL    HW110680   2.568   5.145   5.264  0.7991  0.0742 -0.9978
 3481SOL    HW210681   2.549   5.278   5.333  0.1467 -0.5832  0.1210
 3482SOL     OW10682   0.936   3.660   2.488 -0.0075  0.1827 -0.2833
 3482SOL    HW110683   1.019   3.632   2.449  0.2927  0.2613  0.2776
 3482SOL    HW210684   0.929   3.609   2.569  1.0136  2.3032  1.2531
 3483SOL     OW10685   0.801   0.799   5.444 -0.1635  0.3506 -0.1913
 3483SOL    HW110686   0.761   0.858   5.507 -2.0249 -0.7186 -0.2993
 3483SOL    HW210687   0.808   0.851   5.364 -0.4537  0.8455  0.0987
 3484SOL     OW10688   0.236   1.219   1.883 -0.2680  0.1551 -0.3238
 3484SOL    HW110689   0.258   1.268   1.804  0.0762  0.6571  0.0838
 3484SOL    HW210690   0.144   1.239   1.899 -0.9931 -1.6484 -1.8119
 3485SOL     OW10691   4.998   1.069   1.603  1.0161 -0.0306  0.4693
 3485SOL    HW110692   4.966   1.097   1.518  0.8164  0.2839  0.6432
 3485SOL    HW210693   5.076   1.122   1.618  0.3443  0.8414  1.0303
 3486SOL     OW10694   1.558   0.510   5.972 -0.0796  0.8180  0.3365
 3486SOL    HW110695   1.553   0.480   6.063  1.8984 -2.6050 -0.4932
 3486SOL    HW210696   1.618   0.584   5.974  1.6973 -0.5473  1.6725
 3487SOL     OW10697   1.976   5.391   3.275  0.3903 -0.2552  0.0607
 3487SOL    HW110698   2.064   5.359   3.254  0.1058 -0.1496 -1.3814
 3487SOL    HW210699   1.979   5.485   3.256 -0.6242 -0.6167 -2.2509
 3488SOL     OW10700   4.463   2.343   5.981  0.7516  0.5100 -0.0681
 3488SOL    HW110701   4.516   2.331   5.903 -1.1943 -0.0712 -1.3777
 3488SOL    HW210702   4.430   2.433   5.973 -0.6303 -0.0177 -0.7602
 3489SOL     OW10703   2.202   3.957   2.108  0.3200  0.3439  0.1365
 3489SOL    HW110704   2.257   4.028   2.072  1.3559 -0.2390  0.5213
 3489SOL    HW210705   2.262   3.907   2.164 -0.7910  0.0795  1.1150
 3490SOL     OW10706   2.610   1.755   0.064  0.1246 -0.2549  0.0463
 3490SOL    HW110707   2.548   1.785  -0.002 -0.3719 -1.4414 -0.0379
 3490SOL    HW210708   2.684   1.721   0.014  0.5613  0.5379  0.1389
 3491SOL     OW10709   3.315   4.168   1.716 -0.0461 -0.4388 -0.1612
 3491SOL    HW110710   3.343   4.255   1.688 -0.0072 -0.7419 -1.0956
 3491SOL    HW210711   3.354   4.157   1.803 -0.5743  0.7236  0.2503
 3492SOL     OW10712   4.623   5.582   4.225  0.3556  0.1293 -0.2949
 3492SOL    HW110713   4.587   5.669   4.243  3.5830  1.8761 -1.4522
 3492SOL    HW210714   4.653   5.551   4.311 -1.6858 -0.3814  0.2934
 3493SOL     OW10715   1.617   1.984   1.683 -0.5964  0.2717 -0.4243
 3493SOL    HW110716   1.660   2.038   1.749 -2.5885  0.9419  0.4043
 3493SOL    HW210717   1.684   1.920   1.657 -0.0312 -0.8084  3.1093
 3494SOL     OW10718   2.459   0.012   4.153 -0.1725  0.2940 -0.0787
 3494SOL    HW110719   2.371  -0.019   4.135  0.7158 -2.1409 -0.5630
 3494SOL    HW210720   2.460   0.030   4.247 -1.3311  0.9816 -0.1831
 3495SOL     OW10721   0.019   4.021   2.114 -0.3070 -0.1842  0.1937
 3495SOL    HW110722   0.098   3.973   2.092  0.1201  0.3581  0.5203
 3495SOL    HW210723   0.041   4.113   2.098  0.1620  0.3091  3.1699
 3496SOL     OW10724   0.307   2.112   2.249 -0.5078  0.0430 -0.2596
 3496SOL    HW110725   0.288   2.020   2.228  0.0502  0.3491 -2.2889
 3496SOL    HW210726   0.302   2.157   2.165  0.5446  1.6469  0.4970
 3497SOL     OW10727   3.663   4.725   1.976 -0.2757 -0.4360 -0.1308
 3497SOL    HW110728   3.745   4.773   1.971 -0.4066 -0.0213  1.2286
 3497SOL    HW210729   3.600   4.789   2.011 -0.4869 -1.5195  1.5615
 3498SOL     OW10730   0.073   2.366   3.961  0.5855  0.6204 -0.2905
 3498SOL    HW110731   0.093   2.409   3.878 -2.9693  0.9679 -1.1271
 3498SOL    HW210732   0.047   2.437   4.019 -0.7099  0.0408 -0.1453
 3499SOL     OW10733   1.743   5.039   4.731  0.1823  0.1308  0.1637
 3499SOL    HW110734   1.683   4.981   4.684  1.4705  0.3743 -1.8970
 3499SOL    HW210735   1.763   5.109   4.669  2.4731  0.1112  0.7711
 3500SOL     OW10736   0.964   0.418   2.592 -0.4522 -0.4026  0.1476
 3500SOL    HW110737   0.994   0.496   2.640  0.4790 -1.8421  2.0689
 3500SOL    HW210738   0.995   0.431   2.503 -2.1970  2.3810 -0.1743
 3501SOL     OW10739   1.382   3.288   1.377 -0.4497  0.6537 -0.1117
 3501SOL    HW110740   1.303   3.337   1.354 -0.2793  1.6797  1.3844
 3501SOL    HW210741   1.453   3.333   1.330 -0.4560  1.1098  0.3142
 3502SOL     OW10742   2.124   4.600   4.775 -0.0863  0.3927  0.2136
 3502SOL    HW110743   2.127   4.523   4.831  0.3094  1.1781  1.3041
 3502SOL    HW210744   2.032   4.609   4.751 -0.2264 -0.0812  0.5702
 3503SOL     OW10745   1.323   5.241   0.420 -0.4862 -0.0386  0.3575
 3503SOL    HW110746   1.306   5.284   0.336  0.8159  0.8344  0.5216
 3503SOL    HW210747   1.245   5.187   0.435 -0.2773 -1.0952 -1.9314
 3504SOL     OW10748   2.545   3.643   2.929  0.4487  0.0137  0.2675
 3504SOL    HW110749   2.455   3.617   2.910  0.2783  0.4994  0.3919
 3504SOL    HW210750   2.538   3.735   2.955  0.8476 -0.2287  1.2721
 3505SOL     OW10751   4.899   5.055   5.770  0.4920  0.1805  0.1262
 3505SOL    HW110752   4.944   4.970   5.775 -1.6181 -1.0835 -0.6968
 3505SOL    HW210753   4.968   5.120   5.783  2.1398 -1.6554  1.1492
 3506SOL     OW10754   4.226   0.393   3.130 -0.0197  0.6704 -0.1732
 3506SOL    HW110755   4.266   0.316   3.169 -1.1638  0.2169  0.1509
 3506SOL    HW210756   4.228   0.459   3.200 -3.2374 -0.5340  1.2449
 3507SOL     OW10757   0.003   2.467   2.033 -0.2352 -0.4190  0.2124
 3507SOL    HW110758   0.065   2.394   2.029 -0.2787 -0.4781  0.5825
 3507SOL    HW210759   0.055   2.544   2.011 -0.3648 -0.6585 -0.9960
 3508SOL     OW10760   1.989   5.390   0.083 -0.4499  0.1176  0.2930
 3508SOL    HW110761   1.902   5.430   0.075 -0.2265  0.7343  0.8761
 3508SOL    HW210762   2.040   5.454   0.132  0.4168 -0.1299 -0.2757
 3509SOL     OW10763   2.136   1.005   2.501  0.0103  0.3669 -0.1541
 3509SOL    HW110764   2.077   0.998   2.576 -0.6155 -0.0280 -0.6720
 3509SOL    HW210765   2.217   1.040   2.537 -0.6361  1.1968  0.5179
 3510SOL     OW10766   0.681   0.682   1.147 -0.3392  0.1208 -0.0604
 3510SOL    HW110767   0.713   0.763   1.186 -1.6427  0.0991  1.1156
 3510SOL    HW210768   0.679   0.619   1.219 -0.6493 -0.5762 -0.6611
 3511SOL     OW10769   2.924   4.084   0.260  0.4211 -0.1082  0.1675
 3511SOL    HW110770   2.964   4.155   0.311 -0.5778 -0.4458  1.4790
 3511SOL    HW210771   2.896   4.125   0.179  1.4215  0.6110  0.1688
 3512SOL     OW10772   0.815   2.394   4.629 -1.0873  0.1394 -0.2624
 3512SOL    HW110773   0.811   2.459   4.560  0.1485 -0.4064 -0.8870
 3512SOL    HW210774   0.833   2.311   4.584 -0.5345 -0.2763  0.6751
 3513SOL     OW10775   3.411   2.357   2.922 -0.1184 -0.1214  0.2177
 3513SOL    HW110776   3.474   2.291   2.952  1.1427  0.9942  0.1734
 3513SOL    HW210777   3.341   2.355   2.987 -0.2054 -1.5936  0.1200
 3514SOL     OW10778   4.946   6.090   1.592 -0.2671 -0.4626 -0.3428
 3514SOL    HW110779   4.901   6.174   1.599 -0.6422 -0.5445 -1.4973
 3514SOL    HW210780   5.037   6.114   1.573 -0.3706 -0.3170 -0.6580
 3515SOL     OW10781   3.753   5.654   6.089  0.1618  0.1959 -0.3737
 3515SOL    HW110782   3.659   5.651   6.071 -0.0566 -1.0614  0.7916
 3515SOL    HW210783   3.759   5.666   6.183  1.1900  1.0058 -0.5281
 3516SOL     OW10784   0.898   2.033   2.046  0.6917 -0.0483 -0.3132
 3516SOL    HW110785   0.967   2.091   2.014  2.9499 -2.3749  0.0431
 3516SOL    HW210786   0.839   2.091   2.094  2.5668  2.0181 -0.3363
 3517SOL     OW10787   3.175   2.915   4.710 -0.0974  0.1592  0.1141
 3517SOL    HW110788   3.126   2.978   4.658  0.1125  0.4144  0.2230
 3517SOL    HW210789   3.163   2.944   4.801  1.1364  0.8577  0.0670
 3518SOL     OW10790   1.326   4.312   2.769 -0.2681 -0.6792 -0.6610
 3518SOL    HW110791   1.243   4.297   2.813  0.0513  0.6133  0.4759
 3518SOL    HW210792   1.383   4.241   2.801  0.0794  0.4523  1.4377
 3519SOL     OW10793   4.980   0.625   0.112  0.0493  0.1205  0.5501
 3519SOL    HW110794   4.913   0.578   0.161  1.6487 -0.6107  2.1554
 3519SOL    HW210795   4.996   0.704   0.163  1.3922 -0.4080  0.9868
 3520SOL     OW10796   1.040   0.215   5.226 -0.4836 -0.4211  0.2427
 3520SOL    HW110797   1.069   0.173   5.145 -1.4331  1.6516 -1.2655
 3520SOL    HW210798   1.076   0.303   5.222 -1.8023  0.2071  1.3266
 3521SOL     OW10799   0.875   1.244   1.901  0.4495  0.1668  0.3323
 3521SOL    HW110800   0.903   1.324   1.945  0.3466 -0.1385  0.9635
 3521SOL    HW210801   0.780   1.251   1.895  0.5628  0.9392 -1.2993
 3522SOL     OW10802   3.925   2.198   3.743  0.0004  0.1401  0.1636
 3522SOL    HW110803   4.006   2.165   3.703 -0.3071 -1.2189  0.5926
 3522SOL    HW210804   3.855   2.166   3.687 -0.4823 -2.3703  2.0200
 3523SOL     OW10805   2.330   4.072   5.667  0.3059 -0.4315  0.0074
 3523SOL    HW110806   2.250   4.072   5.616  0.9970  2.4342 -1.2901
 3523SOL    HW210807   2.393   4.024   5.614  0.7314  1.6132 -1.4223
 3524SOL     OW10808   3.051   1.149   4.403 -0.4269 -0.3328 -0.3058
 3524SOL    HW110809   3.047   1.061   4.442 -0.1307 -1.0876 -1.8705
 3524SOL    HW210810   3.135   1.151   4.358 -1.0826  0.1873 -1.5453
 3525SOL     OW10811   4.679   2.457   2.877 -0.3510  0.5145 -0.7124
 3525SOL    HW110812   4.636   2.373   2.890 -1.7051  1.5689  2.7715
 3525SOL    HW210813   4.771   2.435   2.863 -0.3674 -1.6047  1.7645
 3526SOL     OW10814   5.241   0.825   1.437  0.0832  0.0539 -0.0441
 3526SOL    HW110815   5.331   0.811   1.407  0.0664  0.5182 -0.3225
 3526SOL    HW210816   5.250   0.876   1.518  0.0969 -0.5132  0.3144
 3527SOL     OW10817   3.979   2.632   2.283 -0.0547  0.4728 -0.0453
 3527SOL    HW110818   3.920   2.557   2.297 -0.3203  0.8034  0.6436
 3527SOL    HW210819   4.062   2.605   2.323  0.4915 -0.2538 -1.5836
 3528SOL     OW10820   3.288   3.571   1.262 -0.3286  0.0536 -0.4015
 3528SOL    HW110821   3.323   3.485   1.237  1.6007  1.0936 -1.4991
 3528SOL    HW210822   3.298   3.574   1.358 -0.4881 -0.9632 -0.3447
 3529SOL     OW10823   1.698   5.203   5.586 -0.1822 -0.1897  0.4820
 3529SOL    HW110824   1.778   5.224   5.635 -0.2197  1.3927 -0.0775
 3529SOL    HW210825   1.696   5.107   5.584  1.9800 -0.2833  0.0572
 3530SOL     OW10826   4.259   5.475   2.359  0.1318  0.1472  0.4953
 3530SOL    HW110827   4.300   5.555   2.392 -2.2963  1.6736  0.0416
 3530SOL    HW210828   4.249   5.419   2.437 -0.1524  1.2022  1.2285
 3531SOL     OW10829   1.961   2.271   0.646  0.1147  0.1431 -0.0014
 3531SOL    HW110830   1.867   2.254   0.641 -0.0625 -0.2583  3.0677
 3531SOL    HW210831   2.000   2.210   0.583 -1.6804  1.4996 -2.6160
 3532SOL     OW10832   4.057   5.141   0.365  0.0814  0.0681 -0.4840
 3532SOL    HW110833   4.115   5.069   0.340  0.9274 -0.0589  1.6755
 3532SOL    HW210834   3.972   5.099   0.379  0.6163 -0.5871  0.9684
 3533SOL     OW10835   5.783   1.576   4.037 -0.1011  0.4063  0.0909
 3533SOL    HW110836   5.785   1.666   4.006  0.1604  0.5981  0.6519
 3533SOL    HW210837   5.875   1.550   4.043 -0.1167  0.5138  1.0627
 3534SOL     OW10838   0.265   4.384   0.621 -0.2387 -0.1201 -0.4178
 3534SOL    HW110839   0.272   4.378   0.716  1.3805  0.3451 -0.4848
 3534SOL    HW210840   0.355   4.392   0.590 -0.7976  0.9562 -1.9183
 3535SOL     OW10841   0.502   0.055   3.437  0.4832  0.1617  0.1948
 3535SOL    HW110842   0.491  -0.036   3.465  0.9390  0.1640  0.4020
 3535SOL    HW210843   0.502   0.105   3.519 -0.4283  0.4235  0.0361
 3536SOL     OW10844   2.565   0.050   0.640  0.1976 -0.3541  0.6918
 3536SOL    HW110845   2.647   0.064   0.686  1.1988 -1.0286 -0.8045
 3536SOL    HW210846   2.546   0.133   0.597  1.1668 -0.7530 -0.5575
 3537SOL     OW10847   1.948   0.110   5.694  0.1017 -0.7638  0.4863
 3537SOL    HW110848   1.852   0.109   5.685  0.0997  2.5749 -1.5047
 3537SOL    HW210849   1.980   0.141   5.609  2.5482  2.9023  2.4858
 3538SOL     OW10850   5.447   1.624   4.323  0.1479 -0.2573 -0.0541
 3538SOL    HW110851   5.447   1.708   4.278 -1.8757 -0.9680 -1.5455
 3538SOL    HW210852   5.470   1.560   4.255 -1.4108 -1.2035  0.2638
 3539SOL     OW10853   3.675   2.627   5.091  0.3114  0.1455  0.0899
 3539SOL    HW110854   3.593   2.634   5.140  0.4477  0.9643  0.2178
 3539SOL    HW210855   3.743   2.626   5.158  0.4776  0.9023 -0.0552
 3540SOL     OW10856   4.457   5.540   4.873  0.2154  0.2602 -0.1786
 3540SOL    HW110857   4.484   5.618   4.920  1.1943  0.5345 -1.1494
 3540SOL    HW210858   4.539   5.496   4.849 -0.3101 -1.6037  1.1864
 3541SOL     OW10859   4.557   3.926   0.916  0.3710 -0.0258  0.5271
 3541SOL    HW110860   4.578   3.853   0.973 -1.1774 -1.4486 -0.6193
 3541SOL    HW210861   4.516   3.991   0.973 -0.6580 -1.1801  1.1400
 3542SOL     OW10862   2.849   0.101   4.199 -0.2340 -0.4802  0.0592
 3542SOL    HW110863   2.759   0.105   4.230  0.0582  0.1809  0.8508
 3542SOL    HW210864   2.843   0.114   4.104 -1.1610 -2.8075 -0.2424
 3543SOL     OW10865   2.545   2.076   1.802  0.1673  0.3123 -0.0457
 3543SOL    HW110866   2.492   1.997   1.806  0.0795  0.2482 -1.7507
 3543SOL    HW210867   2.627   2.053   1.847 -0.5899 -0.1063  1.1610
 3544SOL     OW10868   1.289   0.633   0.313  0.2651  0.0296  0.4064
 3544SOL    HW110869   1.237   0.556   0.290  1.7250 -0.8416 -0.1056
 3544SOL    HW210870   1.226   0.692   0.355 -1.3623 -0.5126 -1.1226
 3545SOL     OW10871   6.117   5.650   0.040 -0.3616  0.0548 -0.1576
 3545SOL    HW110872   6.150   5.715  -0.022 -0.2795  2.8205  2.5411
 3545SOL    HW210873   6.021   5.659   0.036 -0.4840 -1.3237 -1.3195
 3546SOL     OW10874   3.388   3.373   1.949  0.1647  0.2177 -0.0403
 3546SOL    HW110875   3.372   3.389   1.856 -0.8400 -0.1049  0.0687
 3546SOL    HW210876   3.363   3.282   1.962 -2.3955  0.9848  1.0967
 3547SOL     OW10877   0.024   1.309   2.375 -0.1324  0.1309  0.2348
 3547SOL    HW110878  -0.016   1.370   2.314  0.3595 -0.9252 -1.1930
 3547SOL    HW210879  -0.050   1.265   2.417 -0.4792  1.2553  0.8488
 3548SOL     OW10880   2.170   5.198   1.772  0.4986 -0.4351  0.2040
 3548SOL    HW110881   2.248   5.143   1.781  2.7940  2.5462  0.1283
 3548SOL    HW210882   2.165   5.246   1.854 -0.1747  0.6553 -0.4448
 3549SOL     OW10883   5.168   0.264   0.653 -0.8544 -0.3089  0.3810
 3549SOL    HW110884   5.170   0.221   0.567 -0.2790  2.2228 -0.9564
 3549SOL    HW210885   5.245   0.230   0.698  1.9587  2.1509 -2.1905
 3550SOL     OW10886   6.015   0.124   4.060  0.4521  0.4399 -0.3132
 3550SOL    HW110887   6.080   0.185   4.025  0.0924  0.4816 -0.9189
 3550SOL    HW210888   5.950   0.116   3.990 -1.8359  2.7868  1.3360
 3551SOL     OW10889   3.071   1.165   0.231 -0.6656 -0.4427  0.1271
 3551SOL    HW110890   3.022   1.111   0.169 -1.7650  1.7448 -1.0414
 3551SOL    HW210891   3.159   1.128   0.230 -0.6188 -0.4944 -2.8516
 3552SOL     OW10892   5.030   2.459   4.818  0.2899 -0.1610 -0.1559
 3552SOL    HW110893   4.969   2.532   4.829  1.2406  0.8157 -1.1178
 3552SOL    HW210894   4.976   2.388   4.784 -0.3415  0.6683 -0.9460
 3553SOL     OW10895   1.962   1.820   2.641 -0.5710 -0.1851 -0.3974
 3553SOL    HW110896   1.965   1.910   2.609 -1.2391  0.1970  0.5751
 3553SOL    HW210897   1.977   1.766   2.563  2.4843  0.7896 -0.6058
 3554SOL     OW10898   5.222   3.954   1.344  0.3177 -0.1611 -0.0541
 3554SOL    HW110899   5.264   4.038   1.365  2.5782 -0.6337 -2.2078
 3554SOL    HW210900   5.232   3.902   1.424  1.2508  0.7590  0.4645
 3555SOL     OW10901   5.443   5.194   1.813  0.2996 -0.2356 -0.5016
 3555SOL    HW110902   5.414   5.103   1.808 -0.1188 -0.0329 -3.2303
 3555SOL    HW210903   5.538   5.189   1.818  0.2756 -0.8432 -0.6144
 3556SOL     OW10904   1.713   3.984   3.893 -0.1862  0.4633  0.6121
 3556SOL    HW110905   1.766   3.926   3.949  1.4508  0.9508 -0.3684
 3556SOL    HW210906   1.628   3.941   3.889  0.4660 -0.9846  1.3071
 3557SOL     OW10907   4.246   2.389   0.378 -0.3991 -0.3809 -0.1276
 3557SOL    HW110908   4.240   2.391   0.473 -1.7592 -0.4195 -0.1867
 3557SOL    HW210909   4.229   2.297   0.355 -2.2763  0.0010 -0.4753
 3558SOL     OW10910   2.798   4.253   3.815  0.0367 -0.3972 -0.4121
 3558SOL    HW110911   2.856   4.327   3.794  0.1454 -0.4311 -0.2298
 3558SOL    HW210912   2.836   4.179   3.768  0.6052 -0.6004  0.3416
 3559SOL     OW10913   5.130   3.913   3.312 -0.2133 -0.1162  0.6182
 3559SOL    HW110914   5.185   3.961   3.250  0.4415 -0.1803  1.1450
 3559SOL    HW210915   5.100   3.836   3.263 -0.1742  0.1358  0.1967
 3560SOL     OW10916   2.172   4.165   5.873  0.5098  0.0877  0.0380
 3560SOL    HW110917   2.241   4.181   5.936  0.8890  2.3924 -0.8362
 3560SOL    HW210918   2.216   4.124   5.798  0.3241 -1.3004  0.6652
 3561SOL     OW10919   2.931   2.104   3.251  0.1675  0.8400 -0.1661
 3561SOL    HW110920   3.013   2.068   3.219 -0.9717  0.2207 -2.6988
 3561SOL    HW210921   2.884   2.130   3.171 -1.5223  2.4767  1.2568
 3562SOL     OW10922   2.125   5.722   1.410  0.0636 -0.2951  0.2172
 3562SOL    HW110923   2.130   5.779   1.487 -0.1338  0.8112 -0.5513
 3562SOL    HW210924   2.141   5.781   1.336 -0.2618 -1.2330 -0.6242
 3563SOL     OW10925   5.058   3.913   2.094 -0.1136 -0.8224 -0.0032
 3563SOL    HW110926   4.992   3.931   2.027  0.7033 -1.6410 -1.0751
 3563SOL    HW210927   5.137   3.955   2.062 -0.4510  1.7403  2.1543
 3564SOL     OW10928   5.821   4.508   0.543 -0.1083  0.3589 -0.4922
 3564SOL    HW110929   5.791   4.521   0.453 -2.3970  2.0091  0.3937
 3564SOL    HW210930   5.748   4.462   0.586  0.0083  1.4904  1.0013
 3565SOL     OW10931   1.150   4.086   3.706  0.1598  0.0546 -0.6025
 3565SOL    HW110932   1.221   4.060   3.648  0.8742  0.6544 -0.0269
 3565SOL    HW210933   1.194   4.117   3.785 -0.7949 -0.7976  0.2908
 3566SOL     OW10934   0.175   5.490   1.014 -0.7373 -0.5429 -0.0267
 3566SOL    HW110935   0.169   5.515   1.106 -0.4776 -0.5324 -0.0111
 3566SOL    HW210936   0.161   5.395   1.014 -0.4488 -0.5844  0.0547
 3567SOL     OW10937   3.848   0.505   5.126  0.6270  0.3564 -0.1632
 3567SOL    HW110938   3.910   0.549   5.184 -0.8250  1.5776  0.5517
 3567SOL    HW210939   3.813   0.575   5.071 -0.9772 -0.0667  0.2716
 3568SOL     OW10940   0.087   1.676   2.058 -0.3712 -0.1546 -0.0661
 3568SOL    HW110941   0.121   1.755   2.101  0.9099 -0.5548 -0.3134
 3568SOL    HW210942  -0.008   1.683   2.068 -0.3434  1.8109 -0.7534
 3569SOL     OW10943   0.611   1.298   4.970  0.0127 -0.4964  0.0152
 3569SOL    HW110944   0.669   1.293   4.893  1.9919 -1.1340  1.4604
 3569SOL    HW210945   0.590   1.206   4.989 -1.2330 -0.2841 -0.2826
 3570SOL     OW10946   2.973   3.867   1.333 -0.4747  0.0454  0.5832
 3570SOL    HW110947   3.004   3.824   1.413 -1.1639  0.3705  1.0379
 3570SOL    HW210948   2.917   3.937   1.364 -1.6585 -0.5203 -0.2189
 3571SOL     OW10949   0.681   5.785   4.189  0.1526  0.4822 -0.1135
 3571SOL    HW110950   0.642   5.704   4.157  0.6768 -0.2713  1.1024
 3571SOL    HW210951   0.752   5.757   4.246  2.2574  1.8141 -1.9200
 3572SOL     OW10952   1.049   3.772   0.580  0.1253  0.1834  0.1365
 3572SOL    HW110953   1.024   3.745   0.491 -0.0202  0.4234  0.1022
 3572SOL    HW210954   1.134   3.731   0.594  1.0519  1.6609 -0.8510
 3573SOL     OW10955   3.111   3.841   0.332  0.4154 -0.6252 -0.0058
 3573SOL    HW110956   3.105   3.927   0.291  0.4361 -0.4676  0.3180
 3573SOL    HW210957   3.054   3.847   0.409 -0.8064 -1.3901 -0.8102
 3574SOL     OW10958   3.372   1.132   0.078 -0.2589 -0.1657 -0.4670
 3574SOL    HW110959   3.440   1.192   0.108 -0.0516 -0.3295 -0.6042
 3574SOL    HW210960   3.415   1.047   0.072 -0.8108 -0.5434  0.7111
 3575SOL     OW10961   1.550   2.936   2.484 -0.0517  0.1296 -0.6908
 3575SOL    HW110962   1.618   2.948   2.549 -0.6093 -1.1074  0.1619
 3575SOL    HW210963   1.595   2.896   2.409  0.5187  1.2108 -0.9377
 3576SOL     OW10964   1.953   6.095   2.124 -0.3239  0.9281  0.3638
 3576SOL    HW110965   1.999   6.147   2.190  0.0776  1.9945 -0.7143
 3576SOL    HW210966   1.896   6.158   2.080  1.2661  0.8543 -1.9804
 3577SOL     OW10967   5.722   5.197   1.824 -0.2064  0.0870  0.5508
 3577SOL    HW110968   5.804   5.176   1.778 -0.9223  2.1273 -1.8798
 3577SOL    HW210969   5.750   5.238   1.905  1.1193 -2.5880  1.5796
 3578SOL     OW10970   5.809   5.825   5.351 -0.1487  0.3081  0.2500
 3578SOL    HW110971   5.871   5.765   5.393 -0.5854  0.4394  1.1011
 3578SOL    HW210972   5.724   5.804   5.390 -0.8114 -0.4023 -1.4682
 3579SOL     OW10973   0.653   6.131   1.028  0.6323  0.4585 -0.1598
 3579SOL    HW110974   0.718   6.184   0.982  0.3158 -0.4586 -1.7262
 3579SOL    HW210975   0.592   6.195   1.065  0.8974  1.2394 -1.0305
 3580SOL     OW10976   1.161   2.597   6.122 -0.0211  0.3810 -0.5027
 3580SOL    HW110977   1.066   2.588   6.115  0.0147 -1.9450  0.8805
 3580SOL    HW210978   1.196   2.538   6.056  0.4568  0.4082 -0.2817
 3581SOL     OW10979   5.689   0.922   0.314  0.3068 -0.5733 -0.1949
 3581SOL    HW110980   5.735   0.962   0.241 -0.4372 -0.6511 -0.7143
 3581SOL    HW210981   5.655   0.996   0.365 -1.9132 -0.4555 -1.6859
 3582SOL     OW10982   0.479   2.771   5.246 -0.5918 -0.0244 -0.0928
 3582SOL    HW110983   0.541   2.698   5.248  0.3901  0.7694  2.0728
 3582SOL    HW210984   0.532   2.846   5.219 -0.9852  0.3401  0.1318
 3583SOL     OW10985   0.816   1.097   0.083  0.3855 -0.6127 -0.0677
 3583SOL    HW110986   0.891   1.089   0.024 -0.3699  1.4614 -1.3951
 3583SOL    HW210987   0.741   1.114   0.026 -0.4342  1.2020  1.4230
 3584SOL     OW10988   3.821   4.958   0.980  0.2776 -0.2893  0.5465
 3584SOL    HW110989   3.732   4.994   0.984  0.0926 -0.7945  1.5280
 3584SOL    HW210990   3.878   5.033   0.995  0.0818  0.2366 -1.1929
 3585SOL     OW10991   0.790   4.412   1.627  0.0542 -0.0779  0.3638
 3585SOL    HW110992   0.861   4.363   1.584 -1.3033 -1.5242 -0.3332
 3585SOL    HW210993   0.749   4.461   1.556  0.0380  0.3585  0.6725
 3586SOL     OW10994   5.043   0.910   2.085  0.3638 -0.1211 -0.1119
 3586SOL    HW110995   4.964   0.864   2.114  1.0881 -2.8362 -2.0953
 3586SOL    HW210996   5.084   0.939   2.167 -0.9840 -1.5911  1.1626
 3587SOL     OW10997   5.227   5.228   0.154  0.5998  0.0630 -0.3706
 3587SOL    HW110998   5.147   5.175   0.155 -0.2840  1.3508  0.9832
 3587SOL    HW210999   5.297   5.165   0.134 -0.3285 -1.7710  1.6665
 3588SOL     OW11000   5.787   4.656   5.582 -0.3843  0.7118 -0.0661
 3588SOL    HW111001   5.831   4.583   5.624 -0.0737  0.4494 -0.8264
 3588SOL    HW211002   5.777   4.722   5.651  0.6320  0.5288  0.2695
 3589SOL     OW11003   2.142   1.310   3.054 -0.3694 -0.1995  0.3033
 3589SOL    HW111004   2.080   1.239   3.048 -0.5827  0.0511 -0.4875
 3589SOL    HW211005   2.212   1.276   3.110 -0.6368 -0.8946  0.2183
 3590SOL     OW11006   1.921   2.655   2.025  0.1555  0.3385 -0.4378
 3590SOL    HW111007   1.851   2.670   2.089  0.2921 -0.6894 -0.0193
 3590SOL    HW211008   1.924   2.735   1.974 -1.3138  0.4233 -0.4505
 3591SOL     OW11009   5.243   2.071   3.229  0.1961  0.4873 -0.1653
 3591SOL    HW111010   5.259   1.995   3.173  0.8342 -0.7388  1.5850
 3591SOL    HW211011   5.235   2.144   3.169  0.0893 -0.8815 -1.8880
 3592SOL     OW11012   1.050   3.535   2.711 -0.3409  0.1903 -0.6210
 3592SOL    HW111013   1.143   3.556   2.702 -0.8117  2.2136 -1.2206
 3592SOL    HW211014   1.010   3.616   2.743 -1.6957 -1.0897  1.1419
 3593SOL     OW11015   6.080   0.347   1.799 -0.3685  0.0543 -0.2512
 3593SOL    HW111016   6.081   0.442   1.802  0.5993  0.0348  0.7789
 3593SOL    HW211017   6.076   0.320   1.891 -3.0763 -0.9159 -0.5609
 3594SOL     OW11018   4.316   4.217   3.294 -0.1586 -0.8448  0.9182
 3594SOL    HW111019   4.242   4.242   3.350 -1.9068 -0.0791 -1.5909
 3594SOL    HW211020   4.276   4.173   3.219  1.9425 -0.4925 -0.4949
 3595SOL     OW11021   3.861   4.900   3.357  0.4983  0.0909  0.0430
 3595SOL    HW111022   3.795   4.873   3.421  0.0106 -0.1905 -0.5634
 3595SOL    HW211023   3.901   4.978   3.395 -1.0384  0.9924 -0.1265
 3596SOL     OW11024   2.639   1.339   5.887 -0.0315  0.2220  0.3852
 3596SOL    HW111025   2.561   1.285   5.897  0.1553  0.0255  0.7915
 3596SOL    HW211026   2.712   1.277   5.890  0.1323  0.3754 -0.2455
 3597SOL     OW11027   2.267   3.456   1.569  0.1513 -0.8420  0.0523
 3597SOL    HW111028   2.358   3.439   1.591 -0.3948 -1.7969  1.6747
 3597SOL    HW211029   2.272   3.510   1.489  2.1231 -0.3102  0.4784
 3598SOL     OW11030   1.760   1.495   4.055  0.1989 -0.4533 -0.1627
 3598SOL    HW111031   1.695   1.430   4.080 -1.2801  0.5542 -1.2209
 3598SOL    HW211032   1.775   1.479   3.961  1.5765 -0.7409  0.0901
 3599SOL     OW11033   4.591   1.650   1.851  0.2380  0.2075 -0.4580
 3599SOL    HW111034   4.499   1.670   1.832 -0.0570  1.1187  1.6199
 3599SOL    HW211035   4.587   1.586   1.922  1.1892  0.4306 -0.1967
 3600SOL     OW11036   1.086   4.786   2.036  0.4373  0.1397  0.0864
 3600SOL    HW111037   1.075   4.853   1.969  2.1656 -0.7508 -1.1619
 3600SOL    HW211038   1.002   4.739   2.037  0.0817  0.7397 -0.8180
 3601SOL     OW11039   3.361   4.846   1.914  0.0571 -0.0001 -0.4950
 3601SOL    HW111040   3.301   4.910   1.953  1.7420  0.3779  1.6926
 3601SOL    HW211041   3.328   4.761   1.942  0.1367  0.1644  0.1084
 3602SOL     OW11042   2.278   2.578   4.284 -0.2012 -0.6862 -0.8746
 3602SOL    HW111043   2.246   2.647   4.225 -1.4978 -0.4900  0.0262
 3602SOL    HW211044   2.368   2.603   4.303 -1.2589  2.0265  1.1612
 3603SOL     OW11045   0.904   6.092   3.619  0.5674  0.3699  1.1110
 3603SOL    HW111046   0.830   6.079   3.678  0.5868 -1.9127  0.7113
 3603SOL    HW211047   0.864   6.107   3.533  0.5119 -1.4040  0.7909
 3604SOL     OW11048   0.337   4.150   0.319  0.1468  0.6700 -0.3924
 3604SOL    HW111049   0.395   4.125   0.391 -0.4016  0.5021 -0.0025
 3604SOL    HW211050   0.353   4.085   0.251 -0.0584  0.2374 -0.0301
 3605SOL     OW11051   5.343   1.887   4.991  0.0224  0.2668  0.2374
 3605SOL    HW111052   5.326   1.860   4.900 -0.2425 -1.1848  0.6878
 3605SOL    HW211053   5.319   1.979   4.993 -1.3458 -0.0169 -0.8357
 3606SOL     OW11054   2.441   0.588   0.997 -0.0733  0.5961  0.1698
 3606SOL    HW111055   2.394   0.670   1.007  1.8891  1.9064 -0.8724
 3606SOL    HW211056   2.457   0.559   1.087 -0.7343  1.3574  0.5456
 3607SOL     OW11057   1.353   0.752   3.949 -0.1172 -0.2065 -0.3850
 3607SOL    HW111058   1.345   0.674   3.894  1.0132 -0.2552 -0.4959
 3607SOL    HW211059   1.353   0.825   3.886  0.9219 -0.2489 -0.4585
 3608SOL     OW11060   0.182   2.237   1.652  0.0169 -0.2830 -0.2961
 3608SOL    HW111061   0.105   2.266   1.602  0.4601  2.3500  0.3986
 3608SOL    HW211062   0.203   2.151   1.615 -0.5176  0.8744 -3.6851
 3609SOL     OW11063   4.246   2.448   3.950  0.0650  0.1490 -0.3879
 3609SOL    HW111064   4.264   2.507   3.877 -2.0628  0.1372 -0.9783
 3609SOL    HW211065   4.329   2.443   3.998  1.7838 -0.4692 -3.2172
 3610SOL     OW11066   5.157   1.231   4.475 -0.0972  0.2865  0.0921
 3610SOL    HW111067   5.253   1.227   4.481 -0.0701  0.4681 -0.2164
 3610SOL    HW211068   5.137   1.200   4.387 -0.3620 -0.3336  0.3716
 3611SOL     OW11069   2.484   4.552   0.111  0.5568  0.2770  0.2027
 3611SOL    HW111070   2.415   4.599   0.065  0.5427 -0.8939 -1.0059
 3611SOL    HW211071   2.488   4.595   0.197 -1.2621  0.7357  0.0967
 3612SOL     OW11072   1.590   2.849   0.850  0.0986 -0.0691 -0.4735
 3612SOL    HW111073   1.577   2.900   0.931  1.1800  0.6986 -0.7647
 3612SOL    HW211074   1.501   2.832   0.819 -0.3332  2.6461 -0.9585
 3613SOL     OW11075   1.082   2.901   4.305 -0.8969  0.0209 -0.1851
 3613SOL    HW111076   1.120   2.977   4.349  1.4142 -1.9173  1.3939
 3613SOL    HW211077   0.994   2.894   4.342 -0.2779  0.5318  1.4908
 3614SOL     OW11078   5.944   3.064   3.442  0.0478 -0.0044  0.3378
 3614SOL    HW111079   5.972   3.027   3.358 -0.3662  0.3461  0.0409
 3614SOL    HW211080   5.934   3.157   3.424 -2.5702 -0.2728  0.0692
 3615SOL     OW11081   1.771   5.287   3.131  0.7783 -0.0927 -0.2653
 3615SOL    HW111082   1.848   5.329   3.168 -0.3403  1.0754  0.8245
 3615SOL    HW211083   1.795   5.194   3.125  3.0866  0.5125 -2.1676
 3616SOL     OW11084   2.708   1.658   1.487  0.1918  0.4012 -0.3497
 3616SOL    HW111085   2.627   1.660   1.436 -0.2165  3.2006  0.2083
 3616SOL    HW211086   2.680   1.670   1.577  1.1154 -0.8753  0.1279
 3617SOL     OW11087   0.739   2.556   1.579  0.1426  0.8227 -0.0592
 3617SOL    HW111088   0.709   2.465   1.579  1.4673  0.3724  0.2198
 3617SOL    HW211089   0.676   2.601   1.522 -0.7708 -0.1705  0.1222
 3618SOL     OW11090   3.620   5.482   3.778  0.0615 -0.2982 -0.2937
 3618SOL    HW111091   3.629   5.395   3.815 -1.6159 -0.7589 -0.8754
 3618SOL    HW211092   3.628   5.541   3.853 -0.9715 -1.0841  0.4534
 3619SOL     OW11093   4.005   3.849   4.311  0.9486  0.4551  0.1566
 3619SOL    HW111094   4.013   3.763   4.353  1.3884  0.0576 -0.7175
 3619SOL    HW211095   4.065   3.905   4.360  1.7928 -0.1105 -0.1934
 3620SOL     OW11096   1.518   5.464   6.127  0.0258  0.0677 -0.1414
 3620SOL    HW111097   1.534   5.536   6.066  2.3627 -0.5322 -0.3419
 3620SOL    HW211098   1.424   5.448   6.122 -0.1983  1.6152 -1.7658
 3621SOL     OW11099   2.197   5.253   4.333 -0.1155 -0.7431 -0.3214
 3621SOL    HW111100   2.136   5.325   4.350  0.2151 -0.1089 -1.6294
 3621SOL    HW211101   2.257   5.254   4.407  0.0019  0.4952 -0.4050
 3622SOL     OW11102   3.112   3.184   1.124  0.2346  0.2643 -0.3949
 3622SOL    HW111103   3.188   3.169   1.068  2.6090  0.6936  2.4378
 3622SOL    HW211104   3.055   3.241   1.073  1.0659 -1.2275 -3.1887
 3623SOL     OW11105   1.886   4.435   5.353  0.6097 -0.1360  0.0505
 3623SOL    HW111106   1.895   4.444   5.258  0.3598  2.2209  0.1884
 3623SOL    HW211107   1.807   4.382   5.364  1.3244 -1.4908 -1.0361
 3624SOL     OW11108   1.732   2.850   4.995 -1.1318  0.4928  0.2293
 3624SOL    HW111109   1.687   2.883   5.073 -0.8840 -0.1744  0.6616
 3624SOL    HW211110   1.733   2.925   4.935 -1.8243  0.8437  0.6415
 3625SOL     OW11111   0.866   4.549   1.299 -0.0818  0.2243 -0.5936
 3625SOL    HW111112   0.771   4.533   1.299  0.1598 -1.4039 -0.9597
 3625SOL    HW211113   0.896   4.514   1.215  0.8594  0.5734 -0.4135
 3626SOL     OW11114   3.647   3.140   3.877  0.3313 -0.4270 -0.2852
 3626SOL    HW111115   3.689   3.151   3.792  1.0164  1.5679  0.2532
 3626SOL    HW211116   3.555   3.162   3.861  0.7571  1.6246 -0.2553
 3627SOL     OW11117   4.928   5.757   2.235  0.9819 -0.0507 -0.0402
 3627SOL    HW111118   4.949   5.687   2.297  3.4510  0.3934 -0.2882
 3627SOL    HW211119   4.926   5.714   2.150 -1.2039 -0.4391  0.1628
 3628SOL     OW11120   0.200   4.626   1.509  0.0800 -0.2645  0.4413
 3628SOL    HW111121   0.134   4.676   1.461 -0.6195 -0.5377  1.0752
 3628SOL    HW211122   0.263   4.598   1.443 -0.4990 -0.0784 -0.2052
 3629SOL     OW11123   0.365   3.906   1.293 -0.0268 -0.0389 -0.3459
 3629SOL    HW111124   0.305   3.878   1.224 -0.9042 -1.2169  0.8332
 3629SOL    HW211125   0.404   3.824   1.324 -0.0939  0.3968  0.9321
 3630SOL     OW11126   4.168   1.734   0.679  0.2405 -0.2311  0.6867
 3630SOL    HW111127   4.253   1.713   0.641  0.4604 -0.0885  1.0983
 3630SOL    HW211128   4.107   1.729   0.605  0.5299 -0.7862  0.4780
 3631SOL     OW11129   3.176   5.578   2.389 -0.0362  0.3788  0.0711
 3631SOL    HW111130   3.148   5.591   2.299 -2.6959 -1.9586  0.4212
 3631SOL    HW211131   3.255   5.524   2.383  0.4178  1.1322 -0.8517
 3632SOL     OW11132   5.016   5.407   4.916  0.5799 -0.4273  0.0378
 3632SOL    HW111133   4.982   5.317   4.915  0.7231 -0.4851 -1.1104
 3632SOL    HW211134   5.059   5.417   4.831  1.0794  0.5412  0.3923
 3633SOL     OW11135   6.017   2.539   0.570 -0.1454  0.2805  0.5327
 3633SOL    HW111136   6.074   2.607   0.607 -0.0187 -0.3262  1.4854
 3633SOL    HW211137   6.010   2.562   0.478 -1.7329  2.7640  1.1650
 3634SOL     OW11138   5.606   0.651   5.358 -0.4857  0.4051  0.3840
 3634SOL    HW111139   5.676   0.660   5.422 -0.9679 -0.5591  1.0529
 3634SOL    HW211140   5.547   0.724   5.377  0.8382  1.8992 -0.8897
 3635SOL     OW11141   4.648   3.989   5.483  0.0528  0.2714 -0.5438
 3635SOL    HW111142   4.555   4.012   5.489 -0.0218  0.0988 -1.0265
 3635SOL    HW211143   4.651   3.920   5.417  0.3893 -0.4490  0.2079
 3636SOL     OW11144   5.134   2.437   0.491  0.2870 -0.1261  0.1761
 3636SOL    HW111145   5.145   2.532   0.501 -2.2310  0.7694 -3.5275
 3636SOL    HW211146   5.174   2.417   0.407 -0.5172 -2.0876  0.2195
 3637SOL     OW11147   5.787   0.128   3.351  0.8538 -0.2940 -0.0161
 3637SOL    HW111148   5.880   0.141   3.367  1.2665 -0.8645 -1.7331
 3637SOL    HW211149   5.777   0.034   3.339  0.2975 -0.1085 -1.1347
 3638SOL     OW11150   2.142   5.871   2.340  0.3830 -0.5590 -0.2027
 3638SOL    HW111151   2.073   5.876   2.407 -0.4148 -0.1426 -1.0361
 3638SOL    HW211152   2.129   5.785   2.300  0.4630 -0.5536 -0.2381
 3639SOL     OW11153   2.684   1.163   3.427 -0.3862 -0.0953  0.2580
 3639SOL    HW111154   2.746   1.235   3.414  0.1758 -0.0422  2.6814
 3639SOL    HW211155   2.616   1.177   3.361  1.0533  1.1055 -1.0527
 3640SOL     OW11156   2.241   1.787   1.125 -0.0219  0.1022 -0.0170
 3640SOL    HW111157   2.161   1.760   1.080  0.4112  1.0771 -1.4455
 3640SOL    HW211158   2.312   1.752   1.072  0.5215  2.3900 -0.9332
 3641SOL     OW11159   2.535   2.630   4.714 -0.4661 -0.5337  0.0431
 3641SOL    HW111160   2.590   2.624   4.791  0.2097 -2.2897 -0.5238
 3641SOL    HW211161   2.446   2.644   4.748  0.1497  1.3580  0.9912
 3642SOL     OW11162   2.125   1.534   2.205  0.1359  0.0262  0.3175
 3642SOL    HW111163   2.144   1.445   2.174 -1.3184 -0.0707 -0.3732
 3642SOL    HW211164   2.165   1.538   2.292  2.6452 -0.3526 -0.7059
 3643SOL     OW11165   2.413   0.657   1.907  0.1400 -0.3882  0.3295
 3643SOL    HW111166   2.331   0.611   1.921  0.3235 -0.3345  1.7309
 3643SOL    HW211167   2.477   0.588   1.888  0.2784 -0.6905  1.7704
 3644SOL     OW11168   1.874   0.909   3.359  0.1482 -0.1397 -0.1943
 3644SOL    HW111169   1.815   0.960   3.414 -0.0381 -1.1952  0.6013
 3644SOL    HW211170   1.924   0.975   3.311 -0.1382  0.7913  0.7494
 3645SOL     OW11171   5.548   1.392   2.414 -0.2460  0.2944  0.3449
 3645SOL    HW111172   5.632   1.435   2.427 -0.2091  0.0746  0.8429
 3645SOL    HW211173   5.549   1.366   2.322  0.1857  0.3834  0.3212
 3646SOL     OW11174   1.160   3.361   3.167  0.5460  0.2245 -0.0077
 3646SOL    HW111175   1.208   3.401   3.239  0.4143  0.2782  0.0502
 3646SOL    HW211176   1.068   3.381   3.185  0.3339 -1.2468  0.7523
 3647SOL     OW11177   5.359   1.667   0.655  0.1599  0.0538 -0.3771
 3647SOL    HW111178   5.283   1.640   0.603  1.0347  1.0565 -2.2736
 3647SOL    HW211179   5.337   1.754   0.687  0.3642  0.1939 -0.6181
 3648SOL     OW11180   4.128   5.804   2.482 -0.4503  0.0134  0.3199
 3648SOL    HW111181   4.114   5.772   2.571  0.5132  0.7762  0.7673
 3648SOL    HW211182   4.223   5.796   2.469 -0.7429 -1.5565 -1.2326
 3649SOL     OW11183   5.268   5.125   4.178  0.5617  0.0466  1.0308
 3649SOL    HW111184   5.321   5.137   4.099 -1.4823  1.6057 -0.2175
 3649SOL    HW211185   5.295   5.195   4.237 -1.2901  2.0736 -0.3756
 3650SOL     OW11186   4.007   2.128   4.141 -0.1503  0.1789 -0.3345
 3650SOL    HW111187   4.041   2.067   4.075  1.8093  1.1937 -0.3394
 3650SOL    HW211188   3.912   2.120   4.135  0.0154 -0.9123 -2.1651
 3651SOL     OW11189   5.669   0.497   4.148 -0.5409 -0.2807  0.4586
 3651SOL    HW111190   5.710   0.514   4.233  3.3738 -0.4197 -1.2055
 3651SOL    HW211191   5.678   0.403   4.136  4.2608  0.1860 -2.2234
 3652SOL     OW11192   4.698   1.850   5.003  0.2984  0.4744  0.2793
 3652SOL    HW111193   4.741   1.830   5.086  2.0557  0.8079 -0.5022
 3652SOL    HW211194   4.755   1.915   4.961 -0.9023  0.8256 -0.8975
 3653SOL     OW11195   4.398   0.272   2.557  0.1108 -0.2765 -0.1746
 3653SOL    HW111196   4.414   0.361   2.589 -0.7104 -0.6207  1.2881
 3653SOL    HW211197   4.326   0.239   2.612 -1.0510 -1.1000 -2.0940
 3654SOL     OW11198   3.407   4.091   4.886  0.3312  0.0616 -0.0713
 3654SOL    HW111199   3.475   4.153   4.914  0.6012  0.3930 -1.3770
 3654SOL    HW211200   3.451   4.006   4.887  0.6859  0.2321 -0.5951
 3655SOL     OW11201   0.937   1.015   4.881  0.2734 -0.7219 -0.1744
 3655SOL    HW111202   0.913   0.942   4.939 -0.4591 -0.0189  0.4357
 3655SOL    HW211203   0.991   0.975   4.814  1.1066 -1.5755  0.9668
 3656SOL     OW11204   2.156   5.974   0.910 -0.2827 -0.4118 -0.0872
 3656SOL    HW111205   2.246   5.940   0.909 -0.6665 -1.5531 -2.0972
 3656SOL    HW211206   2.167   6.069   0.898  0.6769 -0.2844  1.5325
 3657SOL     OW11207   4.290   2.656   1.662 -0.4774 -0.2779 -0.1148
 3657SOL    HW111208   4.318   2.589   1.725  1.2617 -0.9964 -1.5676
 3657SOL    HW211209   4.208   2.690   1.698 -0.0103 -1.2711  2.0636
 3658SOL     OW11210   1.360   5.099   5.402  0.0817  0.2153  0.1795
 3658SOL    HW111211   1.396   5.022   5.448 -0.9736 -0.9152 -0.8412
 3658SOL    HW211212   1.415   5.108   5.324  0.2845  0.5826  0.3629
 3659SOL     OW11213   0.110   0.256   2.518 -0.2055  0.0400 -0.1035
 3659SOL    HW111214   0.063   0.260   2.601  0.8156  1.2341  0.4674
 3659SOL    HW211215   0.182   0.194   2.533  1.0575  1.5854  0.5511
 3660SOL     OW11216   4.907   5.661   3.107 -0.1806  0.3674  0.1879
 3660SOL    HW111217   4.940   5.709   3.182 -0.5722  1.0735 -0.0773
 3660SOL    HW211218   4.985   5.624   3.065 -0.0700 -1.3465  1.7859
 3661SOL     OW11219   3.456   2.513   2.122 -0.0884  0.0382 -0.4329
 3661SOL    HW111220   3.372   2.518   2.168 -0.1325  2.0405 -0.6332
 3661SOL    HW211221   3.483   2.604   2.112  2.2033 -0.5673 -0.2420
 3662SOL     OW11222   0.804   0.995   5.226  0.4342  0.2476  0.0951
 3662SOL    HW111223   0.881   1.051   5.234 -0.1171  0.9880  0.3846
 3662SOL    HW211224   0.839   0.908   5.205  1.4490  0.2192  1.6742
 3663SOL     OW11225   0.692   0.551   3.100  0.2828  0.6033 -0.1629
 3663SOL    HW111226   0.772   0.527   3.146  0.0258  2.9185  1.7335
 3663SOL    HW211227   0.622   0.533   3.163 -0.3254  1.7381 -0.4818
 3664SOL     OW11228   1.703   1.349   1.345  0.0208  0.0317 -0.1063
 3664SOL    HW111229   1.788   1.393   1.337 -0.0065 -0.0996 -1.2562
 3664SOL    HW211230   1.639   1.421   1.344 -0.0328  0.0165 -2.1324
 3665SOL     OW11231   0.787   3.106   4.637  0.0450  0.1011 -0.4346
 3665SOL    HW111232   0.775   3.156   4.718  2.5457  0.7405 -0.4056
 3665SOL    HW211233   0.775   3.015   4.664  1.3963  0.2561  0.8145
 3666SOL     OW11234   3.904   2.748   4.179 -0.1926  0.1225 -0.6054
 3666SOL    HW111235   3.862   2.677   4.130  1.6073 -0.6301 -1.1584
 3666SOL    HW211236   3.853   2.826   4.157 -1.2959 -0.7379 -1.1929
 3667SOL     OW11237   0.754   4.553   0.086  0.2341 -0.0752  0.1627
 3667SOL    HW111238   0.677   4.512   0.046  0.2280  1.3592 -1.4147
 3667SOL    HW211239   0.824   4.542   0.021  1.5432 -1.7292  1.7395
 3668SOL     OW11240   5.280   1.752   4.748  0.4997 -0.6145 -0.1408
 3668SOL    HW111241   5.187   1.765   4.762  0.6431  0.8466 -0.3855
 3668SOL    HW211242   5.286   1.674   4.692 -0.5535 -0.7406 -0.0932
 3669SOL     OW11243   5.282   3.664   3.710 -0.0707  0.7411 -0.2112
 3669SOL    HW111244   5.333   3.658   3.790 -0.3914 -1.1946 -0.0978
 3669SOL    HW211245   5.347   3.677   3.641  0.6031 -1.1621 -0.0087
 3670SOL     OW11246   2.329   4.349   2.303 -0.0214 -0.1614  0.4382
 3670SOL    HW111247   2.285   4.322   2.384 -0.5934  0.2567  0.2703
 3670SOL    HW211248   2.420   4.365   2.329 -0.3911  0.8230  1.1868
 3671SOL     OW11249   4.905   1.114   2.844  0.9025  0.3019 -0.2001
 3671SOL    HW111250   4.994   1.098   2.813  1.3267  0.3710  0.9404
 3671SOL    HW211251   4.899   1.065   2.926  0.0034  0.5961 -0.0790
 3672SOL     OW11252   3.873   4.912   1.992 -0.3473 -0.0654 -0.2451
 3672SOL    HW111253   3.910   4.997   2.016 -1.3838  0.4779 -0.5428
 3672SOL    HW211254   3.938   4.849   2.024  1.6123  0.8813 -2.0508
 3673SOL     OW11255   1.731   0.170   0.345  0.3406 -0.2638 -0.0649
 3673SOL    HW111256   1.727   0.078   0.321 -0.6643 -0.3624  0.4232
 3673SOL    HW211257   1.824   0.189   0.352  0.5574 -1.2508 -0.1308
 3674SOL     OW11258   4.550   3.002   4.501  0.2026 -0.5586  0.1491
 3674SOL    HW111259   4.494   3.076   4.480  0.6678  0.4745  2.3429
 3674SOL    HW211260   4.536   2.986   4.594  2.5418 -1.1253  0.4766
 3675SOL     OW11261   0.266   0.595   0.199  0.7078 -0.4903 -0.7847
 3675SOL    HW111262   0.301   0.590   0.111 -1.2048 -0.0581 -1.6268
 3675SOL    HW211263   0.329   0.648   0.248  1.2099  0.2499 -2.1992
 3676SOL     OW11264   5.268   5.269   3.748 -0.3749  0.1891  0.2184
 3676SOL    HW111265   5.258   5.175   3.768 -0.0317  0.3928  1.4203
 3676SOL    HW211266   5.179   5.300   3.732 -0.5381 -0.2411  0.2754
 3677SOL     OW11267   2.253   4.424   4.578  0.4257  0.1428  0.3540
 3677SOL    HW111268   2.244   4.336   4.617 -3.4235 -0.4216 -1.2937
 3677SOL    HW211269   2.194   4.479   4.631 -0.3390  0.7067 -1.0335
 3678SOL     OW11270   3.187   0.629   5.535 -0.6498  0.0585  0.1318
 3678SOL    HW111271   3.137   0.675   5.467 -1.1470 -1.4213 -0.5594
 3678SOL    HW211272   3.272   0.673   5.537  0.0496 -0.9377 -2.7715
 3679SOL     OW11273   2.979   3.924   1.057  0.6602  0.1904 -0.2307
 3679SOL    HW111274   2.975   4.017   1.034 -0.9192  0.4993  1.0605
 3679SOL    HW211275   2.985   3.924   1.153 -1.9027 -0.9692  0.0339
 3680SOL     OW11276   3.489   1.128   3.268  0.0588  0.2615 -0.3390
 3680SOL    HW111277   3.466   1.159   3.356  0.5941 -0.0962 -0.0633
 3680SOL    HW211278   3.480   1.205   3.212  1.1841  0.8903  0.2983
 3681SOL     OW11279   2.286   1.800   5.748 -0.5975  0.2848  0.4429
 3681SOL    HW111280   2.301   1.867   5.682 -0.5279 -0.7358 -0.6093
 3681SOL    HW211281   2.285   1.718   5.699  1.2467 -0.6962  1.8989
 3682SOL     OW11282   0.674   2.326   3.473 -0.2801 -0.0356  0.0521
 3682SOL    HW111283   0.692   2.282   3.390 -2.1173  1.1116 -1.0158
 3682SOL    HW211284   0.714   2.413   3.462  0.7445 -0.3628  0.9859
 3683SOL     OW11285   4.014   2.527   4.046 -0.1247 -0.0432 -0.6283
 3683SOL    HW111286   4.100   2.498   4.015 -1.1032 -3.2798 -0.6638
 3683SOL    HW211287   4.010   2.497   4.137 -0.7975  1.1347 -0.2514
 3684SOL     OW11288   6.128   5.347   4.756 -0.4044 -0.1226 -0.1990
 3684SOL    HW111289   6.156   5.320   4.843  0.3959 -0.7771 -0.6441
 3684SOL    HW211290   6.100   5.438   4.767 -1.5364 -0.5963  0.9777
 3685SOL     OW11291   5.362   5.206   5.870 -0.4210  0.0651  0.3492
 3685SOL    HW111292   5.449   5.245   5.864 -0.8191  0.8132 -1.7126
 3685SOL    HW211293   5.378   5.112   5.882  0.6080  0.4195  1.9707
 3686SOL     OW11294   3.127   1.035   5.665 -0.8310  0.4012 -0.3202
 3686SOL    HW111295   3.113   0.984   5.585  2.7077 -0.3821 -0.6052
 3686SOL    HW211296   3.157   0.971   5.729 -2.2682  1.2599  1.2924
 3687SOL     OW11297   2.054   4.379   3.534  0.4349 -0.1008 -0.3652
 3687SOL    HW111298   2.064   4.328   3.615  0.7603 -2.0546 -1.5782
 3687SOL    HW211299   1.998   4.453   3.559  0.4934 -0.6756  1.6249
 3688SOL     OW11300   3.712   5.514   2.251  0.2453  0.0880  0.1254
 3688SOL    HW111301   3.763   5.458   2.193  0.2837 -0.4915  0.6972
 3688SOL    HW211302   3.776   5.549   2.313 -0.0401 -0.7956  0.9664
 3689SOL     OW11303   3.285   5.757   1.995 -0.7259 -0.6133  0.0665
 3689SOL    HW111304   3.351   5.800   1.941 -0.7589  0.5417  0.9146
 3689SOL    HW211305   3.248   5.689   1.939  0.9874 -1.1047 -0.5259
 3690SOL     OW11306   3.916   2.676   0.736  0.4421 -0.6099 -0.1817
 3690SOL    HW111307   3.971   2.598   0.727  0.7989 -0.3465 -0.2701
 3690SOL    HW211308   3.946   2.735   0.667  2.1772  0.8150  1.6584
 3691SOL     OW11309   1.448   0.120   3.160 -0.4647  0.3802 -0.4370
 3691SOL    HW111310   1.519   0.057   3.172  1.3195  2.3957  0.2291
 3691SOL    HW211311   1.404   0.124   3.245 -0.0604  0.6232 -0.2376
 3692SOL     OW11312   4.081   3.755   2.099  0.1440  0.1587 -0.2329
 3692SOL    HW111313   4.057   3.666   2.124  0.9968 -0.5183 -1.6753
 3692SOL    HW211314   4.173   3.763   2.124 -0.7056  1.8094  2.8391
 3693SOL     OW11315   2.954   5.755   0.470 -0.2794  0.7803  0.3454
 3693SOL    HW111316   2.923   5.752   0.379  0.5647  0.6182  0.0456
 3693SOL    HW211317   2.905   5.686   0.515 -1.0959  1.2239  0.1434
 3694SOL     OW11318   1.822   5.245   4.566  0.5642  0.0040  0.7685
 3694SOL    HW111319   1.782   5.250   4.479  0.1298  1.7309  1.0276
 3694SOL    HW211320   1.875   5.325   4.573  0.2997  0.0856  2.2067
 3695SOL     OW11321   5.103   5.611   5.097 -0.3920 -0.0578  0.4006
 3695SOL    HW111322   5.156   5.563   5.161 -0.7590 -0.0422  0.7236
 3695SOL    HW211323   5.074   5.544   5.035  0.8912  0.1019 -0.4159
 3696SOL     OW11324   0.652   4.724   2.507  0.0836  0.4638 -0.3111
 3696SOL    HW111325   0.609   4.771   2.436  2.6418 -0.4449 -2.6394
 3696SOL    HW211326   0.611   4.638   2.508  0.3396  0.3248 -1.0428
 3697SOL     OW11327   3.243   4.690   0.761  0.0516 -0.8926 -0.0019
 3697SOL    HW111328   3.153   4.711   0.783  0.4561  0.8546  0.1407
 3697SOL    HW211329   3.277   4.645   0.838 -0.8013 -1.9799 -0.2326
 3698SOL     OW11330   3.572   3.880   4.927 -0.7846  0.1211 -0.2111
 3698SOL    HW111331   3.546   3.847   5.013  0.7522  1.7565  0.9521
 3698SOL    HW211332   3.609   3.804   4.883  1.5574 -0.1027  1.9166
 3699SOL     OW11333   4.900   1.429   0.042  0.0711 -0.5269 -0.1703
 3699SOL    HW111334   4.817   1.440  -0.004 -0.2004 -0.5075  0.3268
 3699SOL    HW211335   4.908   1.335   0.056 -1.9013 -0.3229  3.4735
 3700SOL     OW11336   2.454   2.916   4.676  0.2725  0.2702 -0.2538
 3700SOL    HW111337   2.436   2.975   4.749  1.0736 -0.2081  0.3416
 3700SOL    HW211338   2.469   2.831   4.717  0.2025 -0.1219 -1.0229
 3701SOL     OW11339   3.836   5.100   2.382 -0.1963 -0.4187  0.4970
 3701SOL    HW111340   3.887   5.123   2.304 -0.7578 -2.0601 -0.3925
 3701SOL    HW211341   3.875   5.152   2.452  1.3188 -0.0440 -0.5762
 3702SOL     OW11342   2.647   5.984   0.519  0.1547 -0.2490 -0.1126
 3702SOL    HW111343   2.683   5.922   0.582 -0.5290 -0.5384  0.0019
 3702SOL    HW211344   2.605   6.052   0.572 -1.5582 -1.1549 -0.2127
 3703SOL     OW11345   4.256   3.836   4.051  0.6884 -0.0329 -0.0048
 3703SOL    HW111346   4.265   3.741   4.038  1.6268  0.0649 -0.1422
 3703SOL    HW211347   4.247   3.847   4.146  1.2509 -0.2149  0.0726
 3704SOL     OW11348   3.597   5.725   3.018 -0.6713  0.0664  0.3375
 3704SOL    HW111349   3.589   5.729   3.113  0.9161 -0.2442  0.5121
 3704SOL    HW211350   3.554   5.804   2.987  0.1229  0.9636  1.4255
 3705SOL     OW11351   1.867   4.677   4.032 -0.1580  0.1941 -0.0701
 3705SOL    HW111352   1.827   4.722   3.958 -0.2590 -1.6451 -1.2078
 3705SOL    HW211353   1.921   4.744   4.075  0.5454  1.1487 -2.2839
 3706SOL     OW11354   0.072   5.904   1.104 -0.1542  0.0267  0.2279
 3706SOL    HW111355   0.064   5.985   1.054  3.1236  0.0662 -0.4428
 3706SOL    HW211356   0.061   5.834   1.040 -2.4761 -0.1350  0.7194
 3707SOL     OW11357   0.484   5.133   0.482 -0.2247 -0.1860  0.2752
 3707SOL    HW111358   0.395   5.103   0.463 -0.7940  1.3939  0.2677
 3707SOL    HW211359   0.505   5.094   0.566 -0.9847 -0.4848  0.3367
 3708SOL     OW11360   5.882   2.511   3.853  0.5271 -0.3081 -0.5063
 3708SOL    HW111361   5.882   2.447   3.781  0.8501 -1.3459  0.3864
 3708SOL    HW211362   5.962   2.562   3.838  0.2270 -0.0488 -1.2783
 3709SOL     OW11363   3.593   4.011   3.695 -0.4718  0.8811 -0.1245
 3709SOL    HW111364   3.610   4.105   3.696 -0.4761  0.8817 -0.0595
 3709SOL    HW211365   3.595   3.986   3.788  0.6443  0.6170 -0.1981
 3710SOL     OW11366   3.981   5.201   4.499  0.2021  0.3239 -0.7227
 3710SOL    HW111367   3.996   5.277   4.443 -1.0132  0.5162 -0.8029
 3710SOL    HW211368   3.892   5.173   4.479 -0.2363  0.3306  1.0347
 3711SOL     OW11369   2.319   1.309   5.471  0.2936  0.3684 -0.1496
 3711SOL    HW111370   2.318   1.320   5.376 -1.3825 -3.0551 -0.6826
 3711SOL    HW211371   2.360   1.223   5.484 -2.6622 -0.8855  1.8752
 3712SOL     OW11372   4.664   2.743   4.468  0.7675  0.1124  0.5702
 3712SOL    HW111373   4.617   2.707   4.393 -0.0546 -2.0090  2.0157
 3712SOL    HW211374   4.623   2.828   4.483 -0.0525 -0.0716 -0.5051
 3713SOL     OW11375   0.464   5.611   5.826 -0.5262  0.6239  0.1487
 3713SOL    HW111376   0.405   5.678   5.791  0.7025  1.4109 -0.4986
 3713SOL    HW211377   0.502   5.650   5.904 -0.8569  0.1255  0.5622
 3714SOL     OW11378   1.517   0.347   1.817 -0.3344 -0.0491  0.6213
 3714SOL    HW111379   1.538   0.340   1.724  0.1557 -2.0733  0.8454
 3714SOL    HW211380   1.459   0.423   1.822 -1.9892 -1.0233 -1.6366
 3715SOL     OW11381   3.392   3.094   4.833 -0.2838  0.4869 -0.5274
 3715SOL    HW111382   3.377   3.020   4.773 -0.7958 -0.9525  1.2762
 3715SOL    HW211383   3.322   3.155   4.814  0.1343  0.5359 -2.0537
 3716SOL     OW11384   1.991   5.636   0.562  0.0689 -0.4217 -0.2035
 3716SOL    HW111385   1.926   5.566   0.571  1.2170 -1.3876  0.9090
 3716SOL    HW211386   2.022   5.652   0.651  0.3564  1.0160 -0.5326
 3717SOL     OW11387   1.863   3.617   4.152 -0.5852 -0.7232  0.1610
 3717SOL    HW111388   1.771   3.643   4.156 -0.8852 -1.7569  0.2824
 3717SOL    HW211389   1.909   3.695   4.122 -1.4905 -0.1662  0.1971
 3718SOL     OW11390   3.788   4.065   2.919  0.2607  0.1300 -0.4143
 3718SOL    HW111391   3.780   4.094   2.828 -1.8281  0.0097 -0.3219
 3718SOL    HW211392   3.753   4.138   2.970 -1.4169 -0.9569  0.0708
 3719SOL     OW11393   3.502   5.652   5.986 -0.2688  0.3584  0.5194
 3719SOL    HW111394   3.507   5.625   5.894 -0.2226 -0.4809  0.7659
 3719SOL    HW211395   3.468   5.576   6.032  0.9726  0.3074  1.4038
 3720SOL     OW11396   0.601   3.341   0.148  0.4275 -0.0966 -0.2152
 3720SOL    HW111397   0.566   3.422   0.185 -1.4733 -1.0187  0.1356
 3720SOL    HW211398   0.668   3.313   0.211  0.7881  0.9565 -0.1137
 3721SOL     OW11399   4.934   5.695   1.979  0.7253  0.0372  0.5483
 3721SOL    HW111400   4.936   5.744   1.897  0.1042 -0.3956  0.2674
 3721SOL    HW211401   4.980   5.614   1.961  2.6418  0.9001  1.2970
 3722SOL     OW11402   0.298   3.662   6.020 -0.2273  0.4233  0.0918
 3722SOL    HW111403   0.226   3.722   6.040 -0.2496  0.9788 -1.4805
 3722SOL    HW211404   0.313   3.673   5.926  0.2256 -1.5432 -0.1163
 3723SOL     OW11405   4.969   3.086   6.077  0.9349 -0.3897  0.0758
 3723SOL    HW111406   4.967   3.010   6.134 -0.9080 -0.3697  0.0971
 3723SOL    HW211407   4.976   3.050   5.989  1.6607 -0.5018  0.1713
 3724SOL     OW11408   0.428   3.659   1.377  0.1277 -0.1552 -0.4785
 3724SOL    HW111409   0.419   3.668   1.471  0.9642  0.1771 -0.4184
 3724SOL    HW211410   0.391   3.572   1.357 -0.0039 -0.2453  0.1569
 3725SOL     OW11411   2.145   4.567   0.190 -0.3404  0.0198  0.0735
 3725SOL    HW111412   2.152   4.523   0.105 -0.0022  0.5322 -0.1675
 3725SOL    HW211413   2.107   4.653   0.170  2.0262  1.1291  0.0912
 3726SOL     OW11414   0.266   3.338   5.976 -0.4366  0.1567 -0.3674
 3726SOL    HW111415   0.256   3.322   6.070 -0.5507  2.2137  0.0141
 3726SOL    HW211416   0.239   3.429   5.964  0.3890  0.1964 -2.2771
 3727SOL     OW11417   2.696   6.002   2.786 -0.0872 -0.6903  0.3608
 3727SOL    HW111418   2.654   6.086   2.766 -1.2410 -1.0136  1.3033
 3727SOL    HW211419   2.659   5.941   2.722 -2.2024 -1.2718  1.9985
 3728SOL     OW11420   4.633   0.316   3.811  0.2999  0.0065 -0.4961
 3728SOL    HW111421   4.539   0.333   3.813  0.2336 -0.3022 -0.8458
 3728SOL    HW211422   4.648   0.254   3.883  0.4422  1.0169  0.3715
 3729SOL     OW11423   4.643   0.544   4.262  0.0062  0.1789  0.0695
 3729SOL    HW111424   4.561   0.540   4.310 -0.4517  1.0568 -0.6174
 3729SOL    HW211425   4.620   0.583   4.178  1.0735  0.1552 -0.2475
 3730SOL     OW11426   4.343   4.897   5.675 -0.0112  0.1955 -0.3879
 3730SOL    HW111427   4.404   4.879   5.747  1.5363  1.6773 -1.2402
 3730SOL    HW211428   4.257   4.877   5.710  0.8374 -0.5634  1.3658
 3731SOL     OW11429   1.189   4.572   5.405 -0.3160 -0.4913 -0.2940
 3731SOL    HW111430   1.212   4.623   5.328 -1.1999 -1.9519 -1.5725
 3731SOL    HW211431   1.260   4.507   5.412  0.2920  0.2515  0.7474
 3732SOL     OW11432   0.066   5.943   3.364 -0.1500 -0.2075  0.0030
 3732SOL    HW111433   0.078   6.033   3.334 -1.2064  0.2654  0.9066
 3732SOL    HW211434   0.129   5.933   3.435 -0.7583  0.1820  0.6050
 3733SOL     OW11435   2.404   3.361   4.456  0.0222 -0.7454 -0.3366
 3733SOL    HW111436   2.450   3.445   4.458  0.1206 -0.7924 -0.5884
 3733SOL    HW211437   2.440   3.316   4.380 -1.2007 -0.3548 -1.1574
 3734SOL     OW11438   2.556   0.683   0.760  0.0923  0.4521 -0.8811
 3734SOL    HW111439   2.523   0.633   0.835  0.8900 -0.3597 -1.0544
 3734SOL    HW211440   2.605   0.619   0.708 -0.5532  0.9765 -2.1705
 3735SOL     OW11441   2.679   3.516   5.580 -0.1469  0.3402 -0.1578
 3735SOL    HW111442   2.647   3.470   5.658  0.1502 -1.0457 -0.8335
 3735SOL    HW211443   2.601   3.558   5.544 -0.6143 -0.4084 -0.0496
 3736SOL     OW11444   2.500   0.878   2.027  0.0329 -0.2536 -0.3704
 3736SOL    HW111445   2.482   0.791   1.992  0.4935 -0.5267  0.0652
 3736SOL    HW211446   2.548   0.922   1.956 -0.0543 -0.4082 -0.5265
 3737SOL     OW11447   3.054   4.306   0.995  0.0756  0.2776  0.2157
 3737SOL    HW111448   3.112   4.275   0.925 -2.2637 -0.0335 -1.6973
 3737SOL    HW211449   3.057   4.402   0.988  0.8600  0.2909  0.6008
 3738SOL     OW11450   4.369   4.419   0.022  0.2244 -0.2904  0.2012
 3738SOL    HW111451   4.454   4.463   0.026 -1.0337  2.3092  1.6715
 3738SOL    HW211452   4.331   4.449  -0.060  0.5405 -1.1443 -0.2690
 3739SOL     OW11453   2.079   1.402   1.930  0.0372 -0.1992 -0.1638
 3739SOL    HW111454   2.099   1.473   1.869  0.3677 -0.0192  0.1535
 3739SOL    HW211455   2.047   1.445   2.009  1.8030 -0.2922  0.6543
 3740SOL     OW11456   1.239   4.122   2.375  0.0198  0.5295  0.3579
 3740SOL    HW111457   1.266   4.212   2.389 -0.6277  0.6676  0.7617
 3740SOL    HW211458   1.214   4.118   2.283 -0.2881  0.8549  0.4252
 3741SOL     OW11459   5.256   1.940   0.759 -0.6523  0.7678 -0.3518
 3741SOL    HW111460   5.161   1.938   0.743 -1.1519  0.5100  2.2582
 3741SOL    HW211461   5.278   2.033   0.760 -0.7153  0.8183 -1.5895
 3742SOL     OW11462   5.390   1.703   2.270 -0.2007 -0.4631 -0.0445
 3742SOL    HW111463   5.396   1.796   2.249  0.3002 -0.7090 -1.0404
 3742SOL    HW211464   5.472   1.665   2.236 -1.4553 -1.6741 -1.9007
 3743SOL     OW11465   1.237   2.546   5.656  0.0212  0.1490 -0.2329
 3743SOL    HW111466   1.176   2.476   5.634  1.0421 -0.9352  0.3155
 3743SOL    HW211467   1.290   2.559   5.578 -0.7645  0.9874 -0.6564
 3744SOL     OW11468   3.441   3.591   4.032 -0.0203 -0.3212  0.2269
 3744SOL    HW111469   3.506   3.599   4.102 -0.7867  0.1269  0.9128
 3744SOL    HW211470   3.358   3.613   4.074 -0.1344  3.2749 -1.5161
 3745SOL     OW11471   4.177   3.987   3.428  0.1257 -0.2716  0.4509
 3745SOL    HW111472   4.173   4.035   3.511  0.2365  0.4363  0.0577
 3745SOL    HW211473   4.265   4.006   3.394 -0.2284  0.1670 -0.2429
 3746SOL     OW11474   5.349   4.942   4.569  0.4158 -0.2576  0.1091
 3746SOL    HW111475   5.316   5.024   4.607 -1.9898 -0.5389 -1.1889
 3746SOL    HW211476   5.430   4.968   4.525  0.9194  0.9306  1.6391
 3747SOL     OW11477   0.247   3.133   1.951  0.5512 -0.2184 -0.2553
 3747SOL    HW111478   0.221   3.225   1.950  1.2789  0.0240  1.2241
 3747SOL    HW211479   0.254   3.111   2.044  2.4582 -1.1647 -0.5885
 3748SOL     OW11480   2.513   3.643   0.703 -0.2960  0.7233  0.6632
 3748SOL    HW111481   2.502   3.594   0.784  0.8394  1.3340  1.1968
 3748SOL    HW211482   2.598   3.616   0.669 -0.5005  0.9138 -0.0324
 3749SOL     OW11483   3.801   4.331   5.686 -0.3082  0.2196 -0.1204
 3749SOL    HW111484   3.738   4.325   5.614  1.1861 -2.1910 -1.3457
 3749SOL    HW211485   3.846   4.415   5.672 -0.8899  0.3569 -1.2533
 3750SOL     OW11486   3.606   4.273   3.749 -0.0415 -0.1301  0.3680
 3750SOL    HW111487   3.644   4.349   3.704 -0.1582 -0.4566 -0.2871
 3750SOL    HW211488   3.541   4.310   3.809 -1.0035  0.2080 -0.8545
 3751SOL     OW11489   1.893   3.197   3.331 -0.0939 -0.3111  0.4189
 3751SOL    HW111490   1.839   3.161   3.260  0.4665 -0.3663  0.0212
 3751SOL    HW211491   1.869   3.290   3.334  0.7634 -0.0306 -0.6656
 3752SOL     OW11492   1.189   4.641   1.280 -0.0928 -0.1601 -0.0988
 3752SOL    HW111493   1.187   4.733   1.251  0.4519 -0.5610 -1.5228
 3752SOL    HW211494   1.202   4.592   1.199  1.5478 -1.3807  0.8605
 3753SOL     OW11495   2.559   3.294   5.941  0.3149  0.2840  0.3063
 3753SOL    HW111496   2.515   3.312   5.858 -2.1358  0.3813  1.5234
 3753SOL    HW211497   2.577   3.380   5.978 -0.6761  0.2750  0.8529
 3754SOL     OW11498   2.933   3.249   4.437  1.0505 -0.8612  0.0906
 3754SOL    HW111499   2.852   3.200   4.448  0.4873  0.0933  0.2573
 3754SOL    HW211500   2.915   3.336   4.473  2.2206 -0.7008  0.3531
 3755SOL     OW11501   0.220   0.975   3.206 -0.2891  0.0082  0.7855
 3755SOL    HW111502   0.185   1.019   3.129  0.7375  1.7614  1.2783
 3755SOL    HW211503   0.285   0.914   3.172  0.0323  0.6479  0.2390
 3756SOL     OW11504   2.160   2.273   4.771  0.2803  0.1609 -0.2645
 3756SOL    HW111505   2.068   2.253   4.752  0.0909  0.2759  0.4807
 3756SOL    HW211506   2.172   2.363   4.740 -0.3512  0.7736  1.1693
 3757SOL     OW11507   2.986   0.754   5.004  0.2650 -0.2390  0.3171
 3757SOL    HW111508   3.010   0.686   4.941  1.9625  1.8163 -1.4604
 3757SOL    HW211509   2.932   0.815   4.953  1.4585  1.3443  0.8293
 3758SOL     OW11510   2.984   1.422   5.483  1.3504  0.0409  0.0518
 3758SOL    HW111511   2.942   1.396   5.565  0.7452 -1.8105 -0.7933
 3758SOL    HW211512   3.028   1.343   5.452  1.0950  0.5239 -1.6891
 3759SOL     OW11513   3.980   0.011   0.023 -0.0916  0.0732  0.1484
 3759SOL    HW111514   3.935   0.074   0.079 -1.7202 -1.2499  0.4006
 3759SOL    HW211515   3.921  -0.001  -0.052 -0.2076 -1.6836  0.4746
 3760SOL     OW11516   1.551   1.441   3.812 -0.1115 -0.6473  0.2537
 3760SOL    HW111517   1.561   1.365   3.755 -0.5937  0.3590 -1.2500
 3760SOL    HW211518   1.562   1.516   3.753  0.3160  0.4551  1.6775
 3761SOL     OW11519   4.967   0.794   1.669 -0.9025  0.6029  0.3124
 3761SOL    HW111520   5.050   0.747   1.681 -0.4110  0.5261 -2.5563
 3761SOL    HW211521   4.993   0.884   1.649 -1.6183  0.9805  1.0260
 3762SOL     OW11522   4.636   0.282   1.644 -1.0090 -0.1034  0.7212
 3762SOL    HW111523   4.609   0.366   1.606 -1.1889 -1.1006 -1.5200
 3762SOL    HW211524   4.731   0.291   1.656 -0.8080  0.0129 -0.7291
 3763SOL     OW11525   0.247   3.061   0.346 -0.1609 -0.0108 -0.4083
 3763SOL    HW111526   0.208   2.973   0.350  0.7327 -0.3701  1.3987
 3763SOL    HW211527   0.271   3.081   0.437  2.6248  0.7212 -1.2200
 3764SOL     OW11528   5.546   3.426   3.621  0.0638  0.5521 -0.1052
 3764SOL    HW111529   5.505   3.422   3.707  3.2771  1.0462  1.5692
 3764SOL    HW211530   5.493   3.491   3.573 -3.0733 -1.2701  0.6057
 3765SOL     OW11531   5.381   4.728   0.668  0.2150  0.0642 -0.0765
 3765SOL    HW111532   5.362   4.679   0.748  1.6659  0.4502  0.5447
 3765SOL    HW211533   5.339   4.813   0.682 -0.7133 -0.3452 -0.3391
 3766SOL     OW11534   3.025   5.626   2.144  0.3124 -0.1784 -0.8112
 3766SOL    HW111535   3.066   5.690   2.086  1.2918  1.2016  1.2806
 3766SOL    HW211536   2.947   5.671   2.178 -0.5481 -1.1658 -1.4090
 3767SOL     OW11537   4.787   3.337   1.395 -0.4093  0.1888  0.1773
 3767SOL    HW111538   4.772   3.253   1.352  1.4622  0.2929 -0.7481
 3767SOL    HW211539   4.740   3.401   1.341 -0.5308 -0.0577 -0.0086
 3768SOL     OW11540   5.187   2.662   5.483 -0.3665  0.1445 -0.0725
 3768SOL    HW111541   5.095   2.654   5.509 -0.0199 -3.6523  0.6921
 3768SOL    HW211542   5.189   2.634   5.392 -0.0102  0.7180 -0.2455
 3769SOL     OW11543   0.937   3.229   6.076  0.6706 -0.3558  0.2575
 3769SOL    HW111544   0.879   3.304   6.060 -1.1251 -1.8084 -0.3252
 3769SOL    HW211545   0.980   3.214   5.992 -0.6324 -1.2870 -0.2835
 3770SOL     OW11546   2.389   0.045   4.782  0.0626 -0.0182 -0.4276
 3770SOL    HW111547   2.472  -0.000   4.798 -0.4628 -0.3813  1.5374
 3770SOL    HW211548   2.363   0.079   4.868 -1.0698  1.4284 -1.2868
 3771SOL     OW11549   0.015   5.782   3.805 -0.1985  0.6986  0.0748
 3771SOL    HW111550  -0.005   5.690   3.786 -0.8551  0.9100 -0.3089
 3771SOL    HW211551   0.095   5.800   3.755  0.0666  0.2764  0.3375
 3772SOL     OW11552   4.662   1.721   3.654 -0.4266  0.5339  0.5291
 3772SOL    HW111553   4.748   1.708   3.613 -0.9166  0.8073 -0.6174
 3772SOL    HW211554   4.601   1.677   3.596 -0.9635 -0.6320  1.9276
 3773SOL     OW11555   3.727   4.747   3.565  0.0006 -0.3173  0.5412
 3773SOL    HW111556   3.666   4.794   3.621 -0.4612  1.5768 -1.4194
 3773SOL    HW211557   3.674   4.715   3.492  0.9858 -0.5729 -0.0869
 3774SOL     OW11558   3.141   0.116   3.610 -0.4253 -0.0707  0.4678
 3774SOL    HW111559   3.154   0.096   3.517  1.7091 -0.1368  0.7113
 3774SOL    HW211560   3.064   0.172   3.613 -1.5589 -1.4457 -1.1453
 3775SOL     OW11561   0.769   5.118   5.635 -0.4648  0.0880 -0.0676
 3775SOL    HW111562   0.819   5.044   5.601 -2.9836 -1.3917 -0.8184
 3775SOL    HW211563   0.805   5.133   5.722  2.7429  0.6477 -1.3372
 3776SOL     OW11564   4.962   3.604   2.685  0.0259 -0.2901 -0.5371
 3776SOL    HW111565   4.936   3.568   2.600 -0.2932 -1.3757 -0.0013
 3776SOL    HW211566   5.043   3.559   2.707 -0.2869 -0.5694  0.0697
 3777SOL     OW11567   1.369   1.056   4.054 -0.3812 -0.2923  0.2301
 3777SOL    HW111568   1.300   1.072   3.990  0.8964  0.7747 -0.9272
 3777SOL    HW211569   1.333   1.089   4.137 -1.3587 -0.0259 -0.2910
 3778SOL     OW11570   2.295   0.784   1.105 -0.0486  0.4722  0.1764
 3778SOL    HW111571   2.354   0.859   1.111  0.5842 -0.0023  0.0535
 3778SOL    HW211572   2.228   0.810   1.042  0.8331  0.5087 -0.7757
 3779SOL     OW11573   3.434   5.439   2.307 -0.1920  0.3520 -0.1125
 3779SOL    HW111574   3.529   5.431   2.299 -0.0601 -0.1599  1.5527
 3779SOL    HW211575   3.401   5.412   2.221  1.0892 -1.5901 -0.0711
 3780SOL     OW11576   4.663   3.680   1.507  1.1062  0.2117 -0.3064
 3780SOL    HW111577   4.568   3.691   1.511  1.0607 -0.5027  1.2295
 3780SOL    HW211578   4.680   3.658   1.416 -0.6369 -2.8678 -0.0551
 3781SOL     OW11579   0.209   0.052   3.038  0.2477 -0.7744 -0.0100
 3781SOL    HW111580   0.274  -0.017   3.033  1.4968  0.4295 -1.8697
 3781SOL    HW211581   0.217   0.087   3.127  2.2506 -0.5867 -0.2305
 3782SOL     OW11582   1.467   3.658   4.547 -0.3436 -0.3496 -0.1660
 3782SOL    HW111583   1.468   3.563   4.561 -3.2769 -0.4691 -0.0929
 3782SOL    HW211584   1.440   3.694   4.631  0.7514  0.5821 -0.1962
 3783SOL     OW11585   2.871   3.456   3.639 -0.6677  0.0245 -0.1185
 3783SOL    HW111586   2.910   3.520   3.579  0.1124 -1.4028 -1.2210
 3783SOL    HW211587   2.786   3.435   3.600 -1.4386  1.1947  0.8649
 3784SOL     OW11588   3.802   2.993   3.638 -0.5425 -0.0182  0.0139
 3784SOL    HW111589   3.820   3.084   3.660 -0.1175  0.1237 -0.8855
 3784SOL    HW211590   3.875   2.966   3.582 -0.3772 -1.0814  0.6986
 3785SOL     OW11591   4.585   1.419   2.072 -0.5874  0.5244  0.3588
 3785SOL    HW111592   4.505   1.445   2.118 -1.2144  1.2007 -1.0458
 3785SOL    HW211593   4.638   1.374   2.138 -1.9260  0.4761  1.4292
 3786SOL     OW11594   1.115   5.256   1.231 -0.1569 -0.2962 -0.0490
 3786SOL    HW111595   1.177   5.274   1.161 -0.9879 -2.3388 -1.4162
 3786SOL    HW211596   1.080   5.342   1.256 -0.5600  0.4611 -2.8536
 3787SOL     OW11597   4.592   1.811   4.086 -0.0622 -0.0941 -0.1290
 3787SOL    HW111598   4.587   1.829   3.992 -0.6275 -1.9706 -0.4978
 3787SOL    HW211599   4.502   1.823   4.118  0.3895  2.0322  0.5261
 3788SOL     OW11600   5.525   0.972   1.813 -0.1991 -0.8120 -0.2248
 3788SOL    HW111601   5.467   0.953   1.886 -0.6177 -0.3897 -0.4406
 3788SOL    HW211602   5.593   1.029   1.851 -0.1657 -0.9541 -0.0694
 3789SOL     OW11603   1.424   4.388   4.021  0.2778  0.2827  0.2753
 3789SOL    HW111604   1.507   4.347   4.046 -0.5217 -1.8486 -0.3782
 3789SOL    HW211605   1.433   4.403   3.926 -0.3574 -0.6665  0.0593
 3790SOL     OW11606   4.449   3.663   0.339  0.2976  0.0303  0.1954
 3790SOL    HW111607   4.541   3.688   0.328  0.1858 -0.2473 -1.6937
 3790SOL    HW211608   4.400   3.741   0.314 -0.0157  0.3060  1.5737
 3791SOL     OW11609   1.512   0.773   0.650 -0.0876 -0.1641 -0.3893
 3791SOL    HW111610   1.598   0.806   0.674 -0.9488  0.8560  1.5567
 3791SOL    HW211611   1.496   0.701   0.712 -1.4820  1.0957  0.8167
 3792SOL     OW11612   1.803   2.317   1.658 -0.3392  0.2568 -0.1986
 3792SOL    HW111613   1.773   2.255   1.724 -1.9444 -0.7409 -1.7815
 3792SOL    HW211614   1.886   2.350   1.692 -0.5756 -1.0294  1.7726
 3793SOL     OW11615   3.911   4.644   1.823  0.0547 -0.3596 -0.1896
 3793SOL    HW111616   3.825   4.682   1.810 -0.5747 -0.3443  3.2781
 3793SOL    HW211617   3.972   4.708   1.787 -1.2822 -0.0703 -2.0731
 3794SOL     OW11618   3.301   1.480   2.500 -0.0061 -0.6128  0.6881
 3794SOL    HW111619   3.397   1.477   2.495  0.0176 -2.4228  1.4520
 3794SOL    HW211620   3.275   1.388   2.509 -1.8577 -0.1926 -0.0758
 3795SOL     OW11621   1.532   1.390   5.809  0.2552 -0.3603 -0.0421
 3795SOL    HW111622   1.440   1.376   5.830  0.3843 -0.4323  0.4847
 3795SOL    HW211623   1.546   1.340   5.728 -0.4335  0.5484 -0.7414
 3796SOL     OW11624   2.194   4.432   2.777 -0.1737 -0.2933  0.2158
 3796SOL    HW111625   2.265   4.456   2.718 -1.1812 -0.0946 -0.9568
 3796SOL    HW211626   2.210   4.340   2.797  1.2635  0.1453  1.2241
 3797SOL     OW11627   5.142   1.395   2.763  0.1044  0.4117  0.3698
 3797SOL    HW111628   5.112   1.466   2.707  0.4499  0.4567  0.2417
 3797SOL    HW211629   5.071   1.330   2.758 -0.4731  0.9826  0.9378
 3798SOL     OW11630   6.137   3.488   5.836  0.3140 -0.2447 -0.1102
 3798SOL    HW111631   6.127   3.456   5.925  0.0650  0.1760  0.0129
 3798SOL    HW211632   6.214   3.441   5.803 -0.0748 -1.0059  0.0446
 3799SOL     OW11633   3.376   4.792   3.943  0.5457  0.1492 -0.7678
 3799SOL    HW111634   3.306   4.853   3.967  1.4199  0.5346  0.9897
 3799SOL    HW211635   3.412   4.828   3.862  0.1781  1.2454 -0.4701
 3800SOL     OW11636   2.814   5.150   0.286 -0.2050 -0.2877 -1.0184
 3800SOL    HW111637   2.859   5.210   0.227  0.1838  1.0619  0.5695
 3800SOL    HW211638   2.782   5.205   0.357 -0.4953 -1.8638  0.1435
 3801SOL     OW11639   0.626   4.334   4.742  0.1809 -0.3064  0.0950
 3801SOL    HW111640   0.694   4.380   4.693 -1.5805  1.3916 -0.8888
 3801SOL    HW211641   0.608   4.256   4.690  0.7788 -0.3425 -0.0703
 3802SOL     OW11642   1.924   2.700   3.645  0.0086 -0.1873 -0.4821
 3802SOL    HW111643   1.891   2.687   3.557 -1.1798 -1.6158  0.1453
 3802SOL    HW211644   1.870   2.771   3.681 -1.3792 -1.4341 -0.0097
 3803SOL     OW11645   5.444   5.132   3.964 -0.0142 -0.0746  0.1246
 3803SOL    HW111646   5.471   5.211   3.918  0.6459 -0.3944 -0.0558
 3803SOL    HW211647   5.438   5.065   3.896  1.3830 -0.6502  0.5288
 3804SOL     OW11648   1.490   1.416   0.700  0.1879 -0.2783 -0.1036
 3804SOL    HW111649   1.559   1.474   0.667  1.2623 -2.1088 -1.2795
 3804SOL    HW211650   1.523   1.328   0.682 -1.9575 -1.2427  0.4160
 3805SOL     OW11651   0.309   1.811   3.627 -0.5537  0.0251  0.3915
 3805SOL    HW111652   0.260   1.835   3.706 -3.1133  1.1629 -1.3925
 3805SOL    HW211653   0.259   1.738   3.590 -0.3815  0.6089 -1.0274
 3806SOL     OW11654   2.221   4.144   1.780 -0.2233 -0.5848 -0.0223
 3806SOL    HW111655   2.176   4.060   1.781 -1.7787  0.2091  0.5334
 3806SOL    HW211656   2.260   4.149   1.692 -2.1037 -0.9176 -0.9439
 3807SOL     OW11657   2.804   0.484   1.564 -0.0660  0.7153 -0.0673
 3807SOL    HW111658   2.883   0.538   1.562 -0.3528  1.1339 -0.1994
 3807SOL    HW211659   2.743   0.529   1.506  0.5212 -1.0694 -2.1720
 3808SOL     OW11660   2.519   5.393   1.461 -0.1821 -0.2709 -0.0893
 3808SOL    HW111661   2.531   5.298   1.466  1.1575 -0.1631 -0.7095
 3808SOL    HW211662   2.596   5.424   1.412 -0.6196  1.1258  0.0705
 3809SOL     OW11663   0.472   1.724   5.049  0.2052  0.3134  0.1218
 3809SOL    HW111664   0.435   1.777   5.120  0.6252  2.7357 -1.3597
 3809SOL    HW211665   0.402   1.718   4.985  1.2983  2.4749 -1.4146
 3810SOL     OW11666   0.215   2.905   3.177  0.3872  0.4064  0.1784
 3810SOL    HW111667   0.237   2.986   3.224  3.0972  0.3083 -0.7565
 3810SOL    HW211668   0.230   2.835   3.240  1.0923  0.4690  0.0928
 3811SOL     OW11669   6.135   3.577   5.043 -0.2766  0.8000 -1.1018
 3811SOL    HW111670   6.133   3.481   5.036 -0.3526  0.9050 -2.7216
 3811SOL    HW211671   6.198   3.605   4.977 -2.0161  2.0000 -2.3102
 3812SOL     OW11672   5.906   1.845   5.576 -0.0383 -0.0370  0.4458
 3812SOL    HW111673   5.871   1.853   5.665 -0.9333  0.5000  0.0640
 3812SOL    HW211674   5.970   1.915   5.568 -1.8124  1.6098 -0.1449
 3813SOL     OW11675   3.682   3.097   1.105 -0.7688  0.4086 -0.6971
 3813SOL    HW111676   3.763   3.046   1.097 -1.8216 -1.9155  1.9181
 3813SOL    HW211677   3.709   3.175   1.155 -0.1620 -0.5281  0.4949
 3814SOL     OW11678   4.452   1.162   2.095 -0.6334 -0.3264 -1.1279
 3814SOL    HW111679   4.470   1.256   2.087  1.2116 -0.7796 -3.1138
 3814SOL    HW211680   4.358   1.154   2.076 -1.5214  1.3349  1.8973
 3815SOL     OW11681   0.769   1.847   4.094  0.0732 -0.5420  0.0487
 3815SOL    HW111682   0.830   1.846   4.021 -0.9624 -1.3755 -0.8385
 3815SOL    HW211683   0.810   1.793   4.161  1.8116  1.5493  0.8189
 3816SOL     OW11684   4.313   2.630   1.381 -0.9389  0.0270  0.5981
 3816SOL    HW111685   4.283   2.539   1.393  1.6717 -0.7106  2.3754
 3816SOL    HW211686   4.325   2.663   1.470  0.7827  1.1578  0.0025
 3817SOL     OW11687   3.626   5.533   5.324  0.0268 -0.4004 -0.3313
 3817SOL    HW111688   3.693   5.557   5.388  1.7631  0.0634 -2.1912
 3817SOL    HW211689   3.670   5.468   5.268 -0.7607  0.5323 -2.1131
 3818SOL     OW11690   0.942   1.647   1.577 -0.1537  0.1610  0.5969
 3818SOL    HW111691   1.019   1.667   1.630 -0.2386  0.2921  0.6738
 3818SOL    HW211692   0.977   1.627   1.490  0.1621 -2.1643  1.2066
 3819SOL     OW11693   1.994   2.263   1.171  0.4899 -0.0177  0.7311
 3819SOL    HW111694   1.966   2.295   1.085 -1.6655 -0.6998  1.1158
 3819SOL    HW211695   1.998   2.168   1.161  1.9341  0.0108  0.9363
 3820SOL     OW11696   1.427   2.031   1.473 -0.2949 -0.7487 -0.0207
 3820SOL    HW111697   1.433   1.937   1.493  0.6755 -1.2737 -2.4244
 3820SOL    HW211698   1.476   2.073   1.544 -0.8792 -2.0127  1.1860
 3821SOL     OW11699   1.769   0.903   5.132  0.0894  0.2709  0.1518
 3821SOL    HW111700   1.823   0.873   5.206  0.6979 -0.1323 -0.4424
 3821SOL    HW211701   1.750   0.823   5.084  1.3871  0.7549 -1.2399
 3822SOL     OW11702   4.596   5.635   5.370 -0.2639 -0.0655  0.8292
 3822SOL    HW111703   4.597   5.577   5.446  0.1365  0.1218  0.9672
 3822SOL    HW211704   4.688   5.643   5.345 -0.5071 -1.5597 -0.7692
 3823SOL     OW11705   3.162   4.045   1.529 -0.5063  0.2079 -0.1299
 3823SOL    HW111706   3.203   4.070   1.612 -3.2112 -0.3567  1.4839
 3823SOL    HW211707   3.207   3.964   1.504 -0.1734 -0.0368  1.2058
 3824SOL     OW11708   1.699   0.042   1.643 -0.7279 -0.1420  0.2433
 3824SOL    HW111709   1.717  -0.049   1.621 -0.0593  0.5026 -2.1828
 3824SOL    HW211710   1.603   0.048   1.640 -0.7383 -0.5218 -0.8278
 3825SOL     OW11711   1.014   2.959   2.439  0.4370 -0.6639  0.1467
 3825SOL    HW111712   1.089   2.923   2.392  0.0898 -0.6150 -0.4543
 3825SOL    HW211713   1.052   3.008   2.512  0.9496 -1.5236  0.4738
 3826SOL     OW11714   1.853   3.580   3.808 -0.2501 -0.0867 -0.3139
 3826SOL    HW111715   1.890   3.536   3.731  0.0256 -0.0813 -0.1824
 3826SOL    HW211716   1.909   3.656   3.823  0.1042 -0.4658  0.3075
 3827SOL     OW11717   4.359   3.374   2.526 -0.2340 -0.4085  0.2916
 3827SOL    HW111718   4.364   3.418   2.611  0.7978 -3.1876  1.8270
 3827SOL    HW211719   4.333   3.284   2.548 -1.2201 -0.9092 -2.4958
 3828SOL     OW11720   2.238   4.770   5.146 -0.1758 -0.0297  0.1061
 3828SOL    HW111721   2.292   4.781   5.067  1.8605 -0.4109  1.3513
 3828SOL    HW211722   2.253   4.851   5.195  0.5488 -0.7757  1.1681
 3829SOL     OW11723   1.567   6.040   5.528  0.5275  0.6910 -0.3614
 3829SOL    HW111724   1.575   5.966   5.587 -1.0130  1.5366  0.9879
 3829SOL    HW211725   1.615   6.111   5.572  1.1165  0.7970 -1.1442
 3830SOL     OW11726   1.722   2.989   1.277 -0.2514  0.3096  0.2859
 3830SOL    HW111727   1.679   2.956   1.356 -0.9139 -0.2603 -0.3051
 3830SOL    HW211728   1.655   2.986   1.209  0.5889 -0.1454 -0.5518
 3831SOL     OW11729   3.449   4.515   5.539  0.1575  0.4129  0.4909
 3831SOL    HW111730   3.509   4.442   5.522  1.4454  0.7164  3.2100
 3831SOL    HW211731   3.454   4.568   5.460 -0.8157 -2.3376 -1.5849
 3832SOL     OW11732   5.387   5.415   2.012 -0.0516 -0.3433 -0.7855
 3832SOL    HW111733   5.450   5.411   2.084  2.8344  3.9954 -2.6630
 3832SOL    HW211734   5.427   5.364   1.942 -0.9235 -1.2836 -0.6247
 3833SOL     OW11735   0.279   5.718   2.547 -0.1442  0.0954 -0.2344
 3833SOL    HW111736   0.341   5.767   2.599 -1.0346  0.8623  0.1362
 3833SOL    HW211737   0.299   5.626   2.565  0.3206  0.3420  0.5335
 3834SOL     OW11738   1.649   1.028   0.043  0.1710  0.0627  0.0214
 3834SOL    HW111739   1.609   0.941   0.051 -1.3949  0.6567 -0.9536
 3834SOL    HW211740   1.676   1.050   0.132 -1.4060 -0.5119  0.6652
 3835SOL     OW11741   0.214   2.327   4.393 -0.0662  0.7044  0.1506
 3835SOL    HW111742   0.268   2.257   4.355  1.8323  0.8780  2.2887
 3835SOL    HW211743   0.212   2.395   4.326 -1.4005 -1.0332 -1.7210
 3836SOL     OW11744   4.545   0.650   4.006 -0.7414  0.0474  0.2365
 3836SOL    HW111745   4.625   0.681   3.963  0.2507  0.1254  2.0388
 3836SOL    HW211746   4.489   0.622   3.934  0.9828 -0.2278 -1.0830
 3837SOL     OW11747   3.175   4.785   2.714  0.3851 -0.3607 -0.0309
 3837SOL    HW111748   3.226   4.811   2.638  1.1876  0.0273  0.6222
 3837SOL    HW211749   3.122   4.862   2.735  1.0957 -0.0136  0.5452
 3838SOL     OW11750   0.656   5.283   1.043  0.0123 -1.0828 -0.5673
 3838SOL    HW111751   0.601   5.269   0.966 -0.6935 -0.6526 -0.1443
 3838SOL    HW211752   0.626   5.366   1.080  0.9036 -0.8642 -0.2906
 3839SOL     OW11753   2.370   4.628   2.157  0.1299 -0.5055  0.0451
 3839SOL    HW111754   2.289   4.651   2.111  0.3930 -0.5761 -0.4649
 3839SOL    HW211755   2.364   4.533   2.171 -0.9847 -0.1700  2.2066
 3840SOL     OW11756   1.351   0.065   5.590 -0.2071 -0.1241 -0.3680
 3840SOL    HW111757   1.393  -0.017   5.562 -1.5426 -1.0238  0.1600
 3840SOL    HW211758   1.356   0.063   5.686 -1.6643 -0.4180 -0.2641
 3841SOL     OW11759   0.735   0.028   3.830  0.1728 -0.3982 -0.8002
 3841SOL    HW111760   0.655  -0.021   3.808  1.0556 -1.9658 -0.6368
 3841SOL    HW211761   0.759  -0.004   3.917  0.5954  0.5895 -0.5456
 3842SOL     OW11762   2.399   1.690   0.933 -0.7755  0.1924 -0.0266
 3842SOL    HW111763   2.371   1.606   0.895  1.8689 -0.0294 -1.7307
 3842SOL    HW211764   2.397   1.751   0.859 -0.1724  0.9798  0.5932
 3843SOL     OW11765   5.934   2.848   2.183 -0.5073 -0.2712  0.3194
 3843SOL    HW111766   5.880   2.807   2.114  0.8770 -1.5285 -0.0751
 3843SOL    HW211767   5.872   2.864   2.254 -1.3615 -2.1103  0.0734
 3844SOL     OW11768   3.080   5.889   4.129  0.5122 -0.0468  0.0368
 3844SOL    HW111769   3.027   5.946   4.072 -1.9918  0.0872  2.2868
 3844SOL    HW211770   3.116   5.948   4.195 -2.0256 -0.8608  2.3353
 3845SOL     OW11771   5.847   4.160   0.910  0.4920  0.5395 -0.9685
 3845SOL    HW111772   5.779   4.097   0.889  0.3495 -0.3241  1.7713
 3845SOL    HW211773   5.880   4.189   0.824 -1.8000 -0.6123 -2.3279
 3846SOL     OW11774   1.753   5.256   1.377 -0.2977 -0.1777  0.0613
 3846SOL    HW111775   1.798   5.211   1.449 -1.6717  2.4085  2.7658
 3846SOL    HW211776   1.697   5.188   1.338  0.5315 -1.7066  1.3870
 3847SOL     OW11777   0.530   1.054   4.751 -0.2782  0.8296  0.6219
 3847SOL    HW111778   0.532   1.065   4.846  0.5139 -0.9682  0.8717
 3847SOL    HW211779   0.492   0.967   4.738 -1.0939  1.3536 -0.7626
 3848SOL     OW11780   5.732   5.374   3.559 -0.6724 -0.0497  0.2977
 3848SOL    HW111781   5.679   5.318   3.614  0.2300  0.0362  1.2875
 3848SOL    HW211782   5.801   5.407   3.617 -0.0450  0.5209 -0.7313
 3849SOL     OW11783   4.882   0.536   2.094  0.0239 -0.5082 -0.1150
 3849SOL    HW111784   4.838   0.477   2.155 -2.3519  0.6109 -0.6068
 3849SOL    HW211785   4.962   0.563   2.140 -2.1132  1.0596  3.0652
 3850SOL     OW11786   2.504   2.613   0.805  0.3821 -0.3981  0.1887
 3850SOL    HW111787   2.509   2.575   0.717  0.2699 -2.7242  1.1130
 3850SOL    HW211788   2.411   2.626   0.820  0.4493  0.7379 -0.3038
 3851SOL     OW11789   2.138   1.473   0.876 -0.4292 -0.5587  0.0295
 3851SOL    HW111790   2.147   1.388   0.920  0.5233 -1.2104 -1.3344
 3851SOL    HW211791   2.211   1.475   0.814 -0.0555  1.5580  0.4789
 3852SOL     OW11792   3.252   4.205   5.622  0.0084  0.0305 -0.2510
 3852SOL    HW111793   3.247   4.234   5.531  0.4080  0.3247 -0.1788
 3852SOL    HW211794   3.186   4.257   5.668 -0.3140 -0.2410 -0.4025
 3853SOL     OW11795   1.956   1.022   3.792 -0.2860 -0.1564  0.0029
 3853SOL    HW111796   1.968   0.927   3.793 -0.9857 -0.2592  1.0103
 3853SOL    HW211797   2.039   1.057   3.761 -0.2091 -1.1143 -0.9157
 3854SOL     OW11798   2.522   4.059   0.419 -0.6513  0.1560 -0.0019
 3854SOL    HW111799   2.569   4.055   0.502 -0.5246 -1.8121 -0.1179
 3854SOL    HW211800   2.430   4.052   0.443 -0.7369  1.2209  0.0444
 3855SOL     OW11801   2.801   5.492   5.397 -0.6868  0.0007  0.1540
 3855SOL    HW111802   2.723   5.460   5.443 -0.8389  0.0321 -0.0777
 3855SOL    HW211803   2.809   5.434   5.321 -1.4176  0.9761 -0.6984
 3856SOL     OW11804   0.713   5.305   3.850 -0.4753 -0.4967 -0.2987
 3856SOL    HW111805   0.726   5.226   3.798  0.7292 -0.6897  0.2462
 3856SOL    HW211806   0.635   5.346   3.813 -0.4970 -1.3834 -1.2854
 3857SOL     OW11807   3.193   3.771   0.604  0.1415 -0.0081  0.1033
 3857SOL    HW111808   3.266   3.802   0.550 -1.1127  0.2096 -1.5382
 3857SOL    HW211809   3.214   3.800   0.692  2.3418 -0.4899 -0.2130
 3858SOL     OW11810   3.428   0.066   5.666 -0.3496  0.1204  0.2567
 3858SOL    HW111811   3.351   0.010   5.677 -1.5437  1.5165 -0.5564
 3858SOL    HW211812   3.463   0.041   5.580  0.1596 -0.5562  0.6528
 3859SOL     OW11813   4.128   3.762   0.673 -0.6728  0.0616  0.2693
 3859SOL    HW111814   4.139   3.813   0.593 -0.7281 -0.1537  0.1235
 3859SOL    HW211815   4.140   3.825   0.744 -0.3498  0.1992  0.0938
 3860SOL     OW11816   5.029   0.294   4.515 -0.1999  0.4037  0.2784
 3860SOL    HW111817   5.112   0.311   4.559  0.7817  1.2029 -1.7288
 3860SOL    HW211818   5.054   0.242   4.438 -1.9930 -2.1284  1.2622
 3861SOL     OW11819   2.296   5.983   2.131  0.4807 -0.2049  0.0548
 3861SOL    HW111820   2.245   5.923   2.185  0.6275  1.0424  1.6596
 3861SOL    HW211821   2.249   5.987   2.048 -1.2025 -0.2183  0.9742
 3862SOL     OW11822   1.976   4.497   0.940 -0.0230 -0.1413 -0.4090
 3862SOL    HW111823   2.042   4.476   0.874  0.7827  2.6788 -0.6408
 3862SOL    HW211824   2.005   4.450   1.018  1.0855 -0.6080 -1.0745
 3863SOL     OW11825   1.989   5.964   0.478  0.6660 -0.4424  0.3632
 3863SOL    HW111826   2.065   5.908   0.494  1.0761 -0.0859 -0.3017
 3863SOL    HW211827   1.962   5.944   0.389  0.4374 -0.0269  0.3341
 3864SOL     OW11828   4.635   2.092   3.172 -0.0455  0.0705 -0.3112
 3864SOL    HW111829   4.716   2.114   3.126 -0.2650 -1.2304 -1.3862
 3864SOL    HW211830   4.570   2.084   3.103 -0.8021 -0.1659  0.4129
 3865SOL     OW11831   0.076   3.943   4.437  0.1579  0.1525  0.3245
 3865SOL    HW111832   0.130   3.893   4.498  1.7452  0.6445 -0.6255
 3865SOL    HW211833   0.049   3.880   4.371  1.3524  0.3022 -0.3403
 3866SOL     OW11834   1.312   0.608   3.318 -0.6210 -0.5525 -0.1747
 3866SOL    HW111835   1.376   0.676   3.298  1.7432 -2.7492 -0.7284
 3866SOL    HW211836   1.227   0.651   3.310  0.7294  2.5263  0.5216
 3867SOL     OW11837   4.647   3.741   4.129 -0.5038 -0.4364 -0.1715
 3867SOL    HW111838   4.697   3.801   4.073 -1.1738  1.2205  0.9294
 3867SOL    HW211839   4.706   3.720   4.201 -0.2200 -1.2395 -0.6287
 3868SOL     OW11840   0.313   4.753   2.631 -0.1079  0.4975 -0.1301
 3868SOL    HW111841   0.300   4.840   2.593 -0.1326 -0.0312 -1.3817
 3868SOL    HW211842   0.258   4.695   2.578  2.3113 -0.7826 -1.4453
 3869SOL     OW11843   5.024   3.639   0.254 -0.1475  0.2223 -0.3285
 3869SOL    HW111844   5.106   3.668   0.293 -0.4992 -1.5251  1.8879
 3869SOL    HW211845   5.051   3.579   0.184  0.4873 -0.1198  0.1980
 3870SOL     OW11846   0.345   2.451   0.341  0.6646 -0.0759 -0.5460
 3870SOL    HW111847   0.329   2.544   0.358  2.4705  0.1932 -0.0908
 3870SOL    HW211848   0.266   2.421   0.295 -0.1024  1.5828 -0.3906
 3871SOL     OW11849   3.387   1.227   4.917  0.2416  0.1392 -0.1990
 3871SOL    HW111850   3.352   1.145   4.954  0.9687  0.7544  2.0008
 3871SOL    HW211851   3.343   1.236   4.833 -1.2321 -1.5783  0.3277
 3872SOL     OW11852   0.746   4.401   3.928 -0.1769 -0.1827 -0.1157
 3872SOL    HW111853   0.829   4.367   3.895 -0.4443  0.2693 -1.2892
 3872SOL    HW211854   0.767   4.489   3.960  0.0733 -0.6052  0.9343
 3873SOL     OW11855   3.243   0.259   5.511  0.0047 -0.1137 -0.5345
 3873SOL    HW111856   3.312   0.308   5.467  0.2655 -1.9126 -2.2616
 3873SOL    HW211857   3.284   0.223   5.589  0.3920  0.6259 -0.3901
 3874SOL     OW11858   1.826   1.315   3.791  0.1273 -0.3872  0.4340
 3874SOL    HW111859   1.815   1.228   3.829  3.1300 -0.8874  0.4490
 3874SOL    HW211860   1.908   1.309   3.742 -0.1791  2.1392 -0.5331
 3875SOL     OW11861   1.719   3.871   1.132  0.1832  0.1619 -0.5151
 3875SOL    HW111862   1.811   3.846   1.143 -0.2319 -2.1369 -1.6489
 3875SOL    HW211863   1.679   3.852   1.217  0.6099  0.4842 -0.2391
 3876SOL     OW11864   5.752   0.240   4.550  0.5086 -0.5450  0.5318
 3876SOL    HW111865   5.835   0.209   4.585  0.7611 -0.8366 -0.3046
 3876SOL    HW211866   5.686   0.210   4.613  0.8552 -1.8650  0.2896
 3877SOL     OW11867   0.881   2.304   5.925  0.4074  0.4904  0.1888
 3877SOL    HW111868   0.944   2.250   5.878  0.3049  0.6435 -0.1229
 3877SOL    HW211869   0.883   2.269   6.015 -1.8027 -2.0293 -0.5977
 3878SOL     OW11870   6.001   0.446   3.193 -0.2842  0.0752 -0.8127
 3878SOL    HW111871   6.038   0.444   3.105  1.5654 -1.0951 -0.0798
 3878SOL    HW211872   5.931   0.510   3.189  1.3058  1.8171 -2.5321
 3879SOL     OW11873   3.710   5.966   2.713 -0.0796  0.3960 -0.0787
 3879SOL    HW111874   3.626   6.011   2.707 -1.2927 -1.5588  1.2077
 3879SOL    HW211875   3.699   5.885   2.664  1.5566  0.7370 -1.0936
 3880SOL     OW11876   1.773   1.511   1.675 -0.6310  0.3493 -0.0581
 3880SOL    HW111877   1.788   1.416   1.671  1.4548  0.6418 -0.5219
 3880SOL    HW211878   1.698   1.521   1.734 -1.2396 -1.5992 -0.4258
 3881SOL     OW11879   2.259   2.944   6.124 -0.4037  0.0154 -0.1122
 3881SOL    HW111880   2.312   2.887   6.068 -1.5955 -0.1110 -1.1700
 3881SOL    HW211881   2.290   3.033   6.104  1.6978 -0.2131  1.7973
 3882SOL     OW11882   3.395   4.359   0.278  0.4840 -0.3714  0.4820
 3882SOL    HW111883   3.410   4.265   0.271  0.0775 -0.2894 -2.4549
 3882SOL    HW211884   3.386   4.389   0.188  0.2300  2.4442  1.3565
 3883SOL     OW11885   1.857   1.634   0.204  0.2210 -0.0303 -0.6058
 3883SOL    HW111886   1.847   1.725   0.232  2.2898  0.0825 -0.0535
 3883SOL    HW211887   1.923   1.638   0.135  1.6228 -1.2715  0.6218
 3884SOL     OW11888   5.326   3.636   4.717 -0.1911  0.2796  0.1026
 3884SOL    HW111889   5.295   3.564   4.772 -0.0897  0.4227  0.3516
 3884SOL    HW211890   5.336   3.598   4.630 -2.6845  0.6125 -0.4042
 3885SOL     OW11891   4.535   4.396   0.505  0.2656 -0.7634 -0.2097
 3885SOL    HW111892   4.588   4.474   0.489 -0.0677 -0.6078 -0.5559
 3885SOL    HW211893   4.592   4.323   0.482  1.4807 -0.7770  2.4228
 3886SOL     OW11894   2.996   0.232   2.770  0.4251  0.1982  0.0082
 3886SOL    HW111895   2.998   0.328   2.771  0.6202  0.1941  0.0672
 3886SOL    HW211896   2.935   0.208   2.840  1.3541  0.2565  0.8547
 3887SOL     OW11897   4.965   0.657   4.865  0.1589 -0.1902  0.7912
 3887SOL    HW111898   4.902   0.713   4.910  0.4025  0.0884  0.7919
 3887SOL    HW211899   4.917   0.577   4.845 -0.8276  0.7886 -1.0592
 3888SOL     OW11900   0.868   0.985   0.363 -0.3569 -0.6767 -0.4827
 3888SOL    HW111901   0.810   1.014   0.293  1.4696  0.0896 -1.7616
 3888SOL    HW211902   0.942   0.944   0.318 -0.6482 -3.1914  1.1307
 3889SOL     OW11903   1.089   2.534   2.027 -0.7591 -0.6374  0.1289
 3889SOL    HW111904   1.010   2.547   1.975  0.9947  0.4345 -2.5130
 3889SOL    HW211905   1.139   2.614   2.015  1.9057 -2.2663 -0.6115
 3890SOL     OW11906   1.941   2.836   1.202  0.0668 -0.1277  0.6001
 3890SOL    HW111907   1.870   2.887   1.242  0.2372 -0.5261  1.4252
 3890SOL    HW211908   1.968   2.888   1.126 -0.5474  0.4362  0.7591
 3891SOL     OW11909   5.073   0.110   2.990 -0.2991  0.1617  0.3813
 3891SOL    HW111910   5.134   0.183   2.990  1.2880 -1.0374 -1.8486
 3891SOL    HW211911   5.055   0.093   3.082  3.2610  0.1795  1.2098
 3892SOL     OW11912   3.619   2.932   0.474 -0.5015 -0.7001  0.3719
 3892SOL    HW111913   3.621   2.938   0.570 -0.6884  0.0318  0.3351
 3892SOL    HW211914   3.706   2.959   0.446 -1.2821  1.9316  0.2162
 3893SOL     OW11915   6.091   2.160   3.822 -0.4711  0.4145 -0.1604
 3893SOL    HW111916   6.092   2.226   3.752  1.7315  0.4750 -0.1293
 3893SOL    HW211917   6.138   2.202   3.894  0.3246 -0.9174  0.1154
 3894SOL     OW11918   3.541   2.664   4.822 -0.0907 -0.6456 -0.0786
 3894SOL    HW111919   3.589   2.664   4.905 -1.2130 -0.4986  0.5953
 3894SOL    HW211920   3.606   2.638   4.757  0.9057 -0.4213  0.7869
 3895SOL     OW11921   4.824   5.830   0.642  0.5438  0.3831 -0.3421
 3895SOL    HW111922   4.912   5.800   0.622  0.0305 -0.7565 -0.9928
 3895SOL    HW211923   4.823   5.841   0.737  1.5654  1.0439 -0.3943
 3896SOL     OW11924   5.222   5.622   0.398  0.5387  0.7412  0.1710
 3896SOL    HW111925   5.188   5.696   0.347  3.5663  0.7808 -2.1463
 3896SOL    HW211926   5.266   5.662   0.473 -0.1139  1.0607  0.3869
 3897SOL     OW11927   2.041   1.780   5.936  0.1394 -0.2598  0.2976
 3897SOL    HW111928   2.107   1.815   5.875 -1.5634  1.1284 -0.8495
 3897SOL    HW211929   2.066   1.815   6.021  0.8185  0.3346 -0.1313
 3898SOL     OW11930   3.056   0.591   1.582  0.2102  0.3102 -0.5283
 3898SOL    HW111931   3.099   0.674   1.558  1.8822  0.1318  1.5170
 3898SOL    HW211932   3.119   0.524   1.556  1.1061  0.0141  2.1050
 3899SOL     OW11933   3.208   1.277   1.269 -0.0863  0.3049 -0.1631
 3899SOL    HW111934   3.298   1.303   1.288 -0.4762  2.0850 -0.5360
 3899SOL    HW211935   3.213   1.234   1.184  0.5095 -0.3801  0.2025
 3900SOL     OW11936   2.484   1.076   3.639  0.2116 -0.8354  0.1676
 3900SOL    HW111937   2.553   1.136   3.609 -0.3906 -0.4125 -0.3967
 3900SOL    HW211938   2.445   1.042   3.558 -0.8859 -0.3125  0.4578
 3901SOL     OW11939   3.838   0.351   5.604  0.3814  0.2869 -0.1478
 3901SOL    HW111940   3.770   0.334   5.669  0.7041 -0.8023 -0.0782
 3901SOL    HW211941   3.852   0.267   5.561  1.4604  0.5714 -0.3878
 3902SOL     OW11942   1.661   2.773   2.085  0.1034  0.9894  0.7082
 3902SOL    HW111943   1.681   2.752   2.176 -0.6725  0.8026  0.8356
 3902SOL    HW211944   1.641   2.689   2.044 -3.2890  1.3667  1.2863
 3903SOL     OW11945   0.659   0.968   4.115  0.1318 -0.1939 -0.4846
 3903SOL    HW111946   0.672   0.957   4.209 -2.1605  0.1244 -0.0733
 3903SOL    HW211947   0.641   1.062   4.104  1.8835  0.0715 -1.4925
 3904SOL     OW11948   5.291   2.865   0.238  0.4002  0.3491  0.9040
 3904SOL    HW111949   5.236   2.928   0.284 -2.1539 -0.8969 -0.2095
 3904SOL    HW211950   5.279   2.888   0.145  1.9442  0.1282  0.6316
 3905SOL     OW11951   2.048   1.945   4.980 -0.3475  0.8230 -0.3833
 3905SOL    HW111952   2.016   1.986   4.900 -1.9372  2.8021  1.1404
 3905SOL    HW211953   1.983   1.969   5.046  0.8371 -0.8291  1.4829
 3906SOL     OW11954   4.583   0.872   0.826  0.6492  0.0327  0.4090
 3906SOL    HW111955   4.492   0.876   0.856  0.4029  2.9981 -0.3925
 3906SOL    HW211956   4.584   0.802   0.761 -0.8577 -0.5656  0.9887
 3907SOL     OW11957   2.433   1.860   1.911  0.1644  0.0317  0.3200
 3907SOL    HW111958   2.386   1.780   1.935  0.8714 -0.0796  1.3870
 3907SOL    HW211959   2.475   1.889   1.992  2.7096 -0.3842 -0.7481
 3908SOL     OW11960   0.449   2.373   3.132 -0.7893  0.7064 -0.3533
 3908SOL    HW111961   0.372   2.348   3.183 -1.0828  0.7905 -0.7453
 3908SOL    HW211962   0.418   2.373   3.041  0.1153 -1.0500 -0.7064
 3909SOL     OW11963   0.667   0.329   0.133  0.5366  0.3246  0.6198
 3909SOL    HW111964   0.618   0.349   0.212 -0.0314  0.4481  0.2463
 3909SOL    HW211965   0.720   0.407   0.117  3.5430 -1.0659  2.9329
 3910SOL     OW11966   1.968   0.752   0.553 -0.3709  0.7501  0.3830
 3910SOL    HW111967   2.045   0.740   0.609  0.3457 -3.3340 -1.1781
 3910SOL    HW211968   2.003   0.795   0.474  0.0266  0.1973  0.2539
 3911SOL     OW11969   0.232   6.028   3.793  0.3940  0.3111 -0.3314
 3911SOL    HW111970   0.230   5.999   3.884 -0.4356 -0.4950 -0.5927
 3911SOL    HW211971   0.151   6.076   3.782 -0.6407 -1.5223 -1.2283
 3912SOL     OW11972   1.326   3.750   0.191 -0.6817 -0.2541  0.0313
 3912SOL    HW111973   1.404   3.698   0.175  0.2443  1.1715 -0.1895
 3912SOL    HW211974   1.328   3.819   0.125 -1.4955  0.4939  0.7532
 3913SOL     OW11975   6.004   3.618   1.248 -1.0369 -0.0389  0.1589
 3913SOL    HW111976   6.013   3.569   1.166 -0.8345 -0.0623  0.1938
 3913SOL    HW211977   5.996   3.550   1.315  1.2658 -0.0855  0.4496
 3914SOL     OW11978   3.416   0.391   4.007 -0.2510 -0.2408  0.0839
 3914SOL    HW111979   3.468   0.313   3.993  0.2797 -0.1835  1.5370
 3914SOL    HW211980   3.434   0.447   3.931  0.6840 -0.8200 -0.1320
 3915SOL     OW11981   5.599   3.671   2.445  0.2332  0.0560 -0.0791
 3915SOL    HW111982   5.680   3.720   2.457 -0.4281  0.9974  0.8034
 3915SOL    HW211983   5.589   3.664   2.350  1.0996  0.3535 -0.2041
 3916SOL     OW11984   4.440   4.856   1.825  0.8800  0.2505  1.1267
 3916SOL    HW111985   4.409   4.940   1.860 -0.1216  0.8866 -1.1082
 3916SOL    HW211986   4.398   4.790   1.881 -0.3503  1.2167  1.3781
 3917SOL     OW11987   1.521   5.418   5.674 -0.1217  0.2682  0.6394
 3917SOL    HW111988   1.433   5.378   5.672  0.7962 -1.9107 -0.6610
 3917SOL    HW211989   1.581   5.343   5.676  1.7332  1.6844  0.6237
 3918SOL     OW11990   4.158   1.226   3.821  0.3103 -0.1834  0.2180
 3918SOL    HW111991   4.161   1.244   3.915  0.0434 -2.5118  0.7213
 3918SOL    HW211992   4.067   1.242   3.796  0.1403 -0.5741  0.5856
 3919SOL     OW11993   3.257   5.165   4.718 -0.0075  0.1263  0.4628
 3919SOL    HW111994   3.204   5.237   4.752  0.1043  0.8392 -0.8100
 3919SOL    HW211995   3.227   5.154   4.628  1.9248  0.5217 -0.2914
 3920SOL     OW11996   1.215   5.490   2.354  0.1050  0.9084  0.0023
 3920SOL    HW111997   1.233   5.576   2.315 -0.5271  1.3931  0.7519
 3920SOL    HW211998   1.221   5.429   2.280  2.3302  1.3300 -0.2303
 3921SOL     OW11999   0.947   2.490   4.856 -0.5448 -0.4305 -0.2977
 3921SOL    HW112000   0.883   2.457   4.793 -0.5486 -1.7411  0.3800
 3921SOL    HW212001   1.018   2.426   4.855  0.2133  0.3762 -0.1341
 3922SOL     OW12002   4.130   4.162   3.087 -0.1572  0.1387  0.0260
 3922SOL    HW112003   4.104   4.101   3.018  0.7500 -0.3265  0.0741
 3922SOL    HW212004   4.118   4.248   3.048  1.5060 -0.1268 -1.1850
 3923SOL     OW12005   6.046   1.668   2.385 -0.0725 -0.2252  0.4455
 3923SOL    HW112006   6.037   1.759   2.359  1.8603 -0.1340 -0.0659
 3923SOL    HW212007   6.073   1.671   2.477  0.0081 -0.2810  0.4241
 3924SOL     OW12008   4.045   3.586   4.645  0.4179 -0.1305  0.2948
 3924SOL    HW112009   3.993   3.616   4.569  1.7271  0.5765 -0.3529
 3924SOL    HW212010   4.067   3.667   4.692 -0.4058 -0.5651  1.4887
 3925SOL     OW12011   4.250   0.875   2.233 -0.0932  0.5233 -0.5227
 3925SOL    HW112012   4.266   0.856   2.141 -0.6959 -2.5412 -0.0831
 3925SOL    HW212013   4.156   0.895   2.237 -0.4370 -1.0296 -0.3762
 3926SOL     OW12014   1.390   4.412   1.395 -0.2640 -0.1359 -0.6178
 3926SOL    HW112015   1.313   4.406   1.452 -0.1240 -0.0447 -0.4168
 3926SOL    HW212016   1.392   4.504   1.368  0.6407  0.2311  0.6053
 3927SOL     OW12017   3.053   4.899   0.409 -0.2338 -0.0864  0.5201
 3927SOL    HW112018   3.026   4.938   0.492 -3.5115 -1.8743  0.4815
 3927SOL    HW212019   3.086   4.813   0.432  0.3231 -0.0037  0.0592
 3928SOL     OW12020   2.176   2.692   2.247  0.1900  0.5309  0.0414
 3928SOL    HW112021   2.169   2.599   2.265  0.5176  0.6523  0.8102
 3928SOL    HW212022   2.094   2.729   2.279 -0.0806  0.4701 -0.5600
 3929SOL     OW12023   2.959   2.204   0.370  0.6746 -0.0778 -0.2561
 3929SOL    HW112024   3.037   2.151   0.354  1.6067  1.6711 -1.8057
 3929SOL    HW212025   2.989   2.274   0.428 -0.1736 -0.3093  0.4934
 3930SOL     OW12026   1.237   2.044   4.979  0.6919  0.3193 -0.6158
 3930SOL    HW112027   1.258   2.108   5.046 -0.9329  0.6186 -0.3364
 3930SOL    HW212028   1.203   1.968   5.027 -1.0642  0.7691 -1.0751
 3931SOL     OW12029   3.510   4.837   3.704  0.3747  0.7832  0.0848
 3931SOL    HW112030   3.499   4.930   3.724 -1.2126  0.4898  0.7856
 3931SOL    HW212031   3.465   4.824   3.621  1.1468  0.7596 -0.3295
 3932SOL     OW12032   2.750   0.962   4.490  0.3566 -0.7636 -0.0004
 3932SOL    HW112033   2.695   0.886   4.468 -1.2364  0.6469 -1.0949
 3932SOL    HW212034   2.775   0.946   4.581 -4.5816 -0.0429  1.8240
 3933SOL     OW12035   4.575   1.985   4.369 -0.0277  0.0126 -0.3001
 3933SOL    HW112036   4.566   2.061   4.425 -0.5570 -1.0730  1.1497
 3933SOL    HW212037   4.493   1.982   4.318 -0.5693 -0.2886  0.5691
 3934SOL     OW12038   5.115   2.004   2.884 -0.5383  0.0005 -0.2925
 3934SOL    HW112039   5.121   1.994   2.789  0.4976 -0.3253 -0.2045
 3934SOL    HW212040   5.184   1.947   2.918  0.9312  2.1554  0.5332
 3935SOL     OW12041   4.903   1.480   1.005 -0.4188  0.4519 -0.5123
 3935SOL    HW112042   4.879   1.390   1.025  0.6843  0.2581 -0.0099
 3935SOL    HW212043   4.869   1.531   1.078  0.3127  0.2302 -0.0060
 3936SOL     OW12044   5.784   5.188   5.881  0.1444  0.1422  0.0869
 3936SOL    HW112045   5.719   5.228   5.823  1.9457 -0.8241 -2.7877
 3936SOL    HW212046   5.848   5.258   5.897  0.6326 -0.1212 -0.6889
 3937SOL     OW12047   1.600   1.194   0.676  0.1647 -0.3460  0.1428
 3937SOL    HW112048   1.649   1.161   0.751 -0.6064 -0.3079  0.6769
 3937SOL    HW212049   1.665   1.240   0.623  0.5177  0.6129  1.3672
 3938SOL     OW12050   4.682   5.176   2.182  0.1154  0.1919  0.2728
 3938SOL    HW112051   4.721   5.149   2.265  0.0336  2.0436  0.9610
 3938SOL    HW212052   4.757   5.186   2.123  0.0450 -2.9124 -0.5199
 3939SOL     OW12053   2.805   5.675   3.628 -0.2594 -0.2166 -0.6190
 3939SOL    HW112054   2.888   5.707   3.594  0.2423 -0.2812  0.5201
 3939SOL    HW212055   2.818   5.667   3.722 -1.4534 -0.5406 -0.4580
 3940SOL     OW12056   3.207   5.356   3.230  0.4930 -0.1168  0.3984
 3940SOL    HW112057   3.236   5.265   3.244 -0.5419 -0.6487 -0.8168
 3940SOL    HW212058   3.138   5.369   3.295 -0.6952 -0.8630 -0.6715
 3941SOL     OW12059   3.531   2.327   3.838  0.4592 -0.5165  0.8728
 3941SOL    HW112060   3.488   2.375   3.767  0.0343  1.5356  2.4203
 3941SOL    HW212061   3.615   2.372   3.850 -0.0144  0.0403  2.4538
 3942SOL     OW12062   2.735   4.236   4.490 -0.0974 -0.6902  0.0546
 3942SOL    HW112063   2.779   4.181   4.425  0.4328  0.0917 -0.2690
 3942SOL    HW212064   2.760   4.326   4.466 -0.9260 -0.3058  0.5770
 3943SOL     OW12065   4.950   2.631   2.546 -0.4698  0.1828  0.3209
 3943SOL    HW112066   4.856   2.612   2.538 -0.9193  0.3695  3.6614
 3943SOL    HW212067   4.980   2.572   2.615  1.8971  0.1932 -0.6264
 3944SOL     OW12068   4.710   5.891   5.200 -0.6223 -0.1939  0.1342
 3944SOL    HW112069   4.658   5.958   5.154  1.7861  1.6050 -0.1327
 3944SOL    HW212070   4.798   5.902   5.166  0.2087 -2.3754  1.4192
 3945SOL     OW12071   0.458   0.752   5.297  0.1565 -0.5938 -0.0650
 3945SOL    HW112072   0.533   0.693   5.304  1.3342  0.3496 -2.9499
 3945SOL    HW212073   0.483   0.830   5.346 -1.0864 -2.0152  3.1005
 3946SOL     OW12074   0.650   0.252   2.733  0.1097 -0.0255 -0.2818
 3946SOL    HW112075   0.577   0.272   2.675 -0.2306  2.7281  0.9375
 3946SOL    HW212076   0.684   0.337   2.758  2.0970 -1.1966  1.2701
 3947SOL     OW12077   0.947   5.281   2.076 -0.5461 -0.5819 -0.3761
 3947SOL    HW112078   0.853   5.262   2.082 -1.1219  1.6053 -1.4609
 3947SOL    HW212079   0.952   5.360   2.022  1.6805  1.5238  2.5847
 3948SOL     OW12080   5.643   4.258   2.017 -0.0738  0.4745  0.0198
 3948SOL    HW112081   5.701   4.331   1.995 -1.0684  1.7343  1.4475
 3948SOL    HW212082   5.673   4.229   2.103  0.2881 -0.8258 -0.5113
 3949SOL     OW12083   2.700   3.778   3.617  0.8279  0.1504 -0.3193
 3949SOL    HW112084   2.685   3.684   3.613 -3.6102  0.6928 -2.1645
 3949SOL    HW212085   2.690   3.801   3.710  0.2254 -0.9901 -0.0923
 3950SOL     OW12086   2.793   6.151   3.720  0.0121  1.3336 -0.1467
 3950SOL    HW112087   2.775   6.220   3.657 -0.4976  2.0097  0.7209
 3950SOL    HW212088   2.709   6.107   3.733  0.3075  0.6125 -0.6050
 3951SOL     OW12089   3.066   2.656   5.803 -0.4656  0.0606  0.1102
 3951SOL    HW112090   3.162   2.649   5.805 -0.3782  1.1371  1.4708
 3951SOL    HW212091   3.035   2.566   5.796  0.6368 -0.3290  0.0692
 3952SOL     OW12092   3.182   0.668   2.041  0.0988  0.1554 -0.2283
 3952SOL    HW112093   3.215   0.580   2.025 -0.3207  0.0085 -0.2959
 3952SOL    HW212094   3.110   0.656   2.104  1.5025  0.6804  1.5622
 3953SOL     OW12095   2.939   4.050   3.645  0.2011  0.0995  0.3466
 3953SOL    HW112096   2.860   4.005   3.615  0.4123 -0.8526  1.1860
 3953SOL    HW212097   3.007   4.023   3.583  0.3824 -0.9724  0.9821
 3954SOL     OW12098   0.952   1.761   4.851  0.6794 -0.4108 -0.2052
 3954SOL    HW112099   0.871   1.803   4.882  1.1320 -0.8594  1.7534
 3954SOL    HW212100   0.942   1.669   4.874  1.3753 -0.6403 -0.7776
 3955SOL     OW12101   1.055   4.194   6.035 -0.2942  0.2468 -0.0888
 3955SOL    HW112102   1.076   4.139   6.111  2.1706  2.1333  0.7373
 3955SOL    HW212103   1.080   4.141   5.959  2.7572  0.3797  0.7064
 3956SOL     OW12104   0.763   1.368   5.580 -0.0175 -0.4891  0.5376
 3956SOL    HW112105   0.798   1.385   5.667  0.3814 -0.6762  0.4193
 3956SOL    HW212106   0.837   1.331   5.531 -0.0458  0.2544 -0.0851
 3957SOL     OW12107   3.784   4.154   2.420  0.2191  0.6612  0.0554
 3957SOL    HW112108   3.855   4.137   2.358  1.0634 -0.9796  1.3812
 3957SOL    HW212109   3.714   4.095   2.391  0.4588  0.2054  0.3801
 3958SOL     OW12110   4.813   5.688   2.817 -0.2395  0.5291  0.5147
 3958SOL    HW112111   4.828   5.782   2.809  0.7152  0.2677 -1.4387
 3958SOL    HW212112   4.833   5.668   2.908  0.0757  2.1136  0.8291
 3959SOL     OW12113   4.807   0.611   1.793  0.1118  0.1832 -0.5467
 3959SOL    HW112114   4.846   0.661   1.721 -0.0043 -0.8771 -1.3730
 3959SOL    HW212115   4.867   0.625   1.867  1.5353 -0.6014 -1.5068
 3960SOL     OW12116   0.517   1.885   3.976 -0.2302 -0.5890  0.2985
 3960SOL    HW112117   0.541   1.967   3.932 -0.7488 -0.2499  0.6477
 3960SOL    HW212118   0.596   1.860   4.024  0.1042 -0.5776 -0.2358
 3961SOL     OW12119   2.176   1.380   2.447 -0.2899  0.7935 -0.0762
 3961SOL    HW112120   2.143   1.417   2.529  0.1610  0.1151  0.4243
 3961SOL    HW212121   2.099   1.341   2.406 -0.2591 -0.2819  0.8135
 3962SOL     OW12122   2.472   3.922   4.944 -0.1503 -0.0886 -0.3379
 3962SOL    HW112123   2.477   3.998   5.002  0.1248 -0.0389 -0.4240
 3962SOL    HW212124   2.383   3.888   4.956 -0.2586  0.2190 -0.2638
 3963SOL     OW12125   3.514   2.791   3.567 -0.3932 -0.1586  0.0566
 3963SOL    HW112126   3.559   2.875   3.576  0.2380 -0.6306  1.5235
 3963SOL    HW212127   3.431   2.813   3.525 -0.0137  1.1266 -0.0504
 3964SOL     OW12128   0.959   4.161   4.742  0.3531 -0.0501  0.1755
 3964SOL    HW112129   0.876   4.155   4.695 -0.2417  0.8886  1.0603
 3964SOL    HW212130   0.982   4.069   4.760 -1.2255 -0.3163  1.1142
 3965SOL     OW12131   4.651   0.295   3.377 -0.7564  0.0334 -0.7587
 3965SOL    HW112132   4.561   0.270   3.401 -0.8189  0.9036 -0.0330
 3965SOL    HW212133   4.706   0.240   3.433 -0.7801 -1.3348 -2.0122
 3966SOL     OW12134   3.465   5.455   4.075  0.2389 -0.1406  0.3954
 3966SOL    HW112135   3.386   5.498   4.041  1.0694  0.6657 -0.6143
 3966SOL    HW212136   3.535   5.519   4.059  1.3055 -1.3548  0.0449
 3967SOL     OW12137   4.653   5.188   3.087 -0.1254  0.2132 -0.1401
 3967SOL    HW112138   4.676   5.130   3.160  0.3946 -0.4813 -0.8416
 3967SOL    HW212139   4.687   5.144   3.009  0.2393  1.4445 -0.6995
 3968SOL     OW12140   2.228   1.297   5.756  0.1224 -0.0267 -0.3525
 3968SOL    HW112141   2.274   1.300   5.672 -0.2780  0.6692 -0.5563
 3968SOL    HW212142   2.180   1.379   5.760 -0.2008 -0.2406  0.3722
 3969SOL     OW12143   0.594   5.083   0.720 -0.1386 -0.0915 -0.4404
 3969SOL    HW112144   0.560   5.130   0.796  0.7084  0.4435 -0.3786
 3969SOL    HW212145   0.610   4.994   0.753  1.9791  0.5991  0.5573
 3970SOL     OW12146   5.174   1.221   3.957  0.1372 -0.3507  0.5643
 3970SOL    HW112147   5.134   1.170   3.885  0.5367 -3.2962  2.2559
 3970SOL    HW212148   5.268   1.219   3.938  0.0940  0.4872  0.2306
 3971SOL     OW12149   3.521   5.213   4.676  0.1393 -0.5199  0.4695
 3971SOL    HW112150   3.427   5.196   4.680  0.1145 -0.4051  0.3846
 3971SOL    HW212151   3.556   5.173   4.756  0.0408 -0.7006  0.4231
 3972SOL     OW12152   4.918   3.924   3.470  0.2917 -0.0106 -0.8638
 3972SOL    HW112153   4.939   3.984   3.541  0.2239  0.1140 -0.9485
 3972SOL    HW212154   4.986   3.940   3.404 -1.1177  1.7826 -1.9920
 3973SOL     OW12155   3.456   0.016   4.241  0.1212  0.2047 -0.2050
 3973SOL    HW112156   3.544  -0.017   4.222 -0.3297 -0.9531 -0.3727
 3973SOL    HW212157   3.465   0.058   4.326  0.5990 -0.9785  0.3608
 3974SOL     OW12158   1.652   2.280   4.908  0.2882 -0.0771  0.2043
 3974SOL    HW112159   1.617   2.192   4.896  0.8506 -0.2920  0.1168
 3974SOL    HW212160   1.578   2.338   4.890  0.1297 -0.5111 -0.5998
 3975SOL     OW12161   0.018   2.795   4.717 -0.1172  0.1589 -0.0658
 3975SOL    HW112162   0.027   2.705   4.688  0.6080  0.1772  0.0757
 3975SOL    HW212163  -0.024   2.789   4.803  0.0913 -0.0599  0.0226
 3976SOL     OW12164   1.905   4.869   0.820  0.0410 -0.1593  0.5803
 3976SOL    HW112165   1.927   4.961   0.802  2.2133 -1.0749 -2.0618
 3976SOL    HW212166   1.818   4.857   0.781  0.2416  0.5017 -0.0931
 3977SOL     OW12167   3.318   3.260   5.985  0.5614 -0.0632 -0.2576
 3977SOL    HW112168   3.331   3.239   5.892  1.7386  0.5030 -0.2436
 3977SOL    HW212169   3.224   3.276   5.993  0.1840 -1.7082 -1.0047
 3978SOL     OW12170   3.348   0.837   6.135  0.0675 -0.8033 -0.2508
 3978SOL    HW112171   3.435   0.876   6.137  0.7428 -2.2313 -0.6302
 3978SOL    HW212172   3.314   0.849   6.223  0.3864  0.3234 -0.2700
 3979SOL     OW12173   0.431   1.332   5.642 -0.2996 -0.2953  0.3007
 3979SOL    HW112174   0.510   1.339   5.697 -1.2693 -1.6389  1.9783
 3979SOL    HW212175   0.460   1.284   5.564  0.4463 -1.3026  1.1608
 3980SOL     OW12176   1.706   1.709   5.285  0.7231  0.2146 -0.0684
 3980SOL    HW112177   1.737   1.618   5.286  1.4461  0.4601  0.5341
 3980SOL    HW212178   1.642   1.712   5.214  0.3033 -0.8961  0.2418
 3981SOL     OW12179   4.831   1.711   1.746  0.1133  0.1435  0.1486
 3981SOL    HW112180   4.811   1.696   1.653 -0.8710  1.8311  0.0528
 3981SOL    HW212181   4.749   1.693   1.791  0.1679  0.7725  0.5084
 3982SOL     OW12182   4.877   3.515   2.445 -0.2210 -0.2136 -0.4930
 3982SOL    HW112183   4.789   3.513   2.409 -0.2399 -1.7752 -0.4353
 3982SOL    HW212184   4.923   3.581   2.394 -1.5571  1.0100 -0.1698
 3983SOL     OW12185   0.184   2.901   3.791 -0.6997 -0.0022  0.7476
 3983SOL    HW112186   0.089   2.903   3.781 -0.7591  3.4350  0.8709
 3983SOL    HW212187   0.199   2.942   3.877  0.9006 -0.5263  0.7421
 3984SOL     OW12188   5.236   4.534   2.427 -0.1718 -0.5873  0.4063
 3984SOL    HW112189   5.307   4.470   2.420  1.0620  0.7401  0.4262
 3984SOL    HW212190   5.254   4.582   2.507  0.7957  1.9134 -1.1929
 3985SOL     OW12191   3.656   5.987   4.800 -0.6655 -0.1103 -0.1567
 3985SOL    HW112192   3.672   5.934   4.879  0.9517  0.0011 -0.3739
 3985SOL    HW212193   3.725   5.961   4.739  0.5860  2.6200 -0.0727
 3986SOL     OW12194   0.348   5.421   6.113 -0.4094  0.2498 -0.0303
 3986SOL    HW112195   0.300   5.394   6.191 -0.7335  2.2652  0.5242
 3986SOL    HW212196   0.322   5.512   6.099  0.8864  0.4344 -1.5421
 3987SOL     OW12197   4.024   4.039   5.688  0.1604 -0.7094 -0.0980
 3987SOL    HW112198   3.949   4.099   5.684  1.0454  0.5848  1.5488
 3987SOL    HW212199   3.989   3.955   5.658 -2.3599 -0.5423  2.0360
 3988SOL     OW12200   1.399   3.651   1.764 -0.2431  0.1674  0.1102
 3988SOL    HW112201   1.403   3.576   1.823 -1.4235 -0.5401 -0.6428
 3988SOL    HW212202   1.468   3.636   1.700 -0.3377 -0.1718  0.0880
 3989SOL     OW12203   2.589   5.667   2.973 -0.2332  0.1399  0.5323
 3989SOL    HW112204   2.576   5.761   2.983 -1.1695  0.0443  0.2781
 3989SOL    HW212205   2.681   5.659   2.945 -0.1027  0.9597  0.6982
 3990SOL     OW12206   1.702   2.233   1.338  0.1315  0.3196  0.4743
 3990SOL    HW112207   1.691   2.243   1.432  1.0600 -1.5427  0.8110
 3990SOL    HW212208   1.784   2.279   1.319  0.9816 -0.9536  0.9342
 3991SOL     OW12209   3.494   5.224   1.193 -0.0398 -0.6382 -0.1902
 3991SOL    HW112210   3.494   5.169   1.115 -0.5348 -2.0493  0.7442
 3991SOL    HW212211   3.428   5.291   1.176  1.3329  0.3785 -1.7871
 3992SOL     OW12212   5.705   2.548   2.314  0.0316 -0.1503  0.1283
 3992SOL    HW112213   5.639   2.571   2.248  0.3717 -0.0728 -0.1836
 3992SOL    HW212214   5.783   2.525   2.264  0.2731 -0.1562  0.5016
 3993SOL     OW12215   6.049   1.386   4.287 -0.0475  0.0329  0.7443
 3993SOL    HW112216   6.117   1.319   4.288  0.8341  0.8300 -0.8073
 3993SOL    HW212217   5.995   1.364   4.211  0.2523  1.0407  0.2194
 3994SOL     OW12218   4.004   5.565   3.215 -0.5276 -0.2932 -0.3877
 3994SOL    HW112219   4.010   5.489   3.272 -1.6357 -0.0231  0.1087
 3994SOL    HW212220   3.915   5.598   3.227 -0.0695  1.0870 -0.5905
 3995SOL     OW12221   5.031   4.339   4.512  0.3052  0.1006 -0.3079
 3995SOL    HW112222   5.048   4.289   4.592 -0.9583 -0.5956 -0.4460
 3995SOL    HW212223   5.040   4.431   4.538 -1.2362 -0.0722  0.9307
 3996SOL     OW12224   5.975   3.595   2.350 -0.3839 -0.0050  0.0634
 3996SOL    HW112225   5.980   3.543   2.431 -0.7756  1.3145  0.9755
 3996SOL    HW212226   5.894   3.566   2.309 -0.0250 -0.9157 -0.0462
 3997SOL     OW12227   4.644   1.013   2.829 -0.4651 -0.2684 -0.4979
 3997SOL    HW112228   4.616   0.982   2.743  0.6376  0.7803 -1.2655
 3997SOL    HW212229   4.728   1.057   2.813 -0.5497  0.5089  1.0079
 3998SOL     OW12230   2.913   4.849   2.108  0.1392  0.4394 -0.4143
 3998SOL    HW112231   2.948   4.910   2.173  0.4032 -0.7612  0.6058
 3998SOL    HW212232   2.818   4.866   2.108  0.1074  0.3083  0.4541
 3999SOL     OW12233   4.120   0.785   1.954 -0.4357  0.0565  0.3400
 3999SOL    HW112234   4.084   0.838   1.883  1.4761 -0.0827 -0.7969
 3999SOL    HW212235   4.054   0.718   1.971 -0.7447 -0.1757 -1.6272
 4000SOL     OW12236   2.992   6.008   4.827 -0.0126 -0.3676 -0.5367
 4000SOL    HW112237   2.987   5.920   4.866 -1.1940 -0.2256 -0.3119
 4000SOL    HW212238   3.076   6.010   4.782  0.6890 -1.1046  0.6754
 4001SOL     OW12239   5.495   1.646   5.719 -0.4782 -0.6409  0.1127
 4001SOL    HW112240   5.451   1.730   5.728  0.0551 -0.3239 -0.2256
 4001SOL    HW212241   5.478   1.601   5.802  0.5183  0.4034  0.9050
 4002SOL     OW12242   6.001   6.001   6.037  0.4890  0.1158 -0.0875
 4002SOL    HW112243   6.041   6.088   6.026  1.5445  0.0709  2.5504
 4002SOL    HW212244   6.071   5.940   6.015  0.5882  0.0009  0.5085
 4003SOL     OW12245   4.156   1.077   1.410 -0.6851  0.6781  0.1332
 4003SOL    HW112246   4.137   1.135   1.483 -1.7439 -0.4877  0.8309
 4003SOL    HW212247   4.183   0.995   1.451 -1.1137  0.0668 -0.7715
 4004SOL     OW12248   4.591   3.275   0.248  0.2767 -0.1927 -0.3176
 4004SOL    HW112249   4.624   3.342   0.188  0.6801  0.2265  0.3522
 4004SOL    HW212250   4.630   3.298   0.333  0.3727 -1.2517 -0.0687
 4005SOL     OW12251   2.529   4.326   0.403  0.6707 -0.3494 -0.1330
 4005SOL    HW112252   2.545   4.232   0.405  0.6014 -0.4084 -1.3800
 4005SOL    HW212253   2.446   4.336   0.357  0.8346  0.3265 -0.2999
 4006SOL     OW12254   3.743   5.508   2.643 -0.0560 -0.2317  0.3036
 4006SOL    HW112255   3.736   5.587   2.590  1.3534  0.4266  1.0314
 4006SOL    HW212256   3.667   5.455   2.618 -1.8994  1.9889  0.8766
 4007SOL     OW12257   1.982   2.111   2.263 -0.3316  0.0977  0.2328
 4007SOL    HW112258   1.934   2.030   2.283 -1.1141  0.8780  1.7061
 4007SOL    HW212259   2.056   2.110   2.323  0.2418 -0.0127 -0.4680
 4008SOL     OW12260   3.540   0.564   2.616 -0.0061 -0.7614 -0.0071
 4008SOL    HW112261   3.488   0.594   2.690  0.6789  2.3813 -0.6649
 4008SOL    HW212262   3.611   0.513   2.655 -0.5596 -0.5184  1.3459
 4009SOL     OW12263   2.209   0.677   0.666  0.6074 -0.4878  0.1097
 4009SOL    HW112264   2.215   0.581   0.666  1.8095 -0.5265  2.9836
 4009SOL    HW212265   2.300   0.706   0.656  0.2830  0.3732 -0.4484
 4010SOL     OW12266   4.313   4.339   4.572  0.0751 -0.8939  0.4125
 4010SOL    HW112267   4.289   4.408   4.633  0.6118 -1.2286  1.0195
 4010SOL    HW212268   4.365   4.382   4.504 -1.6468 -0.2835 -0.5528
 4011SOL     OW12269   2.582   3.899   3.389 -0.4978  0.7048  0.2848
 4011SOL    HW112270   2.627   3.877   3.471 -2.5745 -1.1160  1.0394
 4011SOL    HW212271   2.524   3.824   3.372 -0.7026  1.3687 -2.4696
 4012SOL     OW12272   3.799   4.663   2.247 -0.4572  0.5127  0.2018
 4012SOL    HW112273   3.794   4.634   2.156 -0.1995  1.4025 -0.1036
 4012SOL    HW212274   3.812   4.582   2.297 -0.9263 -0.0251 -0.5121
 4013SOL     OW12275   2.782   1.801   3.025 -0.6347  0.7826  0.1039
 4013SOL    HW112276   2.876   1.812   3.010 -0.6489  0.3973 -0.3122
 4013SOL    HW212277   2.741   1.859   2.960 -0.6857  1.6271  0.8744
 4014SOL     OW12278   4.440   2.723   4.293 -0.5923  0.8387  0.2600
 4014SOL    HW112279   4.419   2.659   4.225 -2.6407  0.9502  0.7154
 4014SOL    HW212280   4.365   2.782   4.295  0.0439  1.6639  1.6647
 4015SOL     OW12281   6.039   0.468   0.788 -0.1563  0.0864 -0.3379
 4015SOL    HW112282   6.016   0.414   0.713 -2.2582  1.4434 -0.7354
 4015SOL    HW212283   6.126   0.502   0.767  0.4320 -1.6344 -0.8872
 4016SOL     OW12284   4.999   0.062   1.935  0.1217 -0.1969  0.5390
 4016SOL    HW112285   4.947  -0.005   1.979  0.1052  1.3212  2.9951
 4016SOL    HW212286   4.936   0.108   1.878 -0.1751 -1.2789 -0.0309
 4017SOL     OW12287   4.137   2.136   1.373  0.5465  0.8787  0.1837
 4017SOL    HW112288   4.162   2.071   1.439  1.2475 -0.4060 -1.2745
 4017SOL    HW212289   4.178   2.105   1.293 -3.0425  0.4835 -1.6741
 4018SOL     OW12290   3.288   2.925   3.819  0.3006 -0.6826  0.3434
 4018SOL    HW112291   3.193   2.925   3.828  0.2503 -2.2116  0.1449
 4018SOL    HW212292   3.316   2.843   3.860  1.4856 -0.4771 -0.0056
 4019SOL     OW12293   0.381   1.988   3.297  0.1722  0.1496 -0.0882
 4019SOL    HW112294   0.360   1.898   3.321  0.4366  0.0804 -0.1092
 4019SOL    HW212295   0.466   1.982   3.254  0.2414  0.4234  0.0072
 4020SOL     OW12296   6.057   4.841   2.449 -0.4666  0.4623  0.1596
 4020SOL    HW112297   6.032   4.879   2.364 -0.3799  1.1962  0.4517
 4020SOL    HW212298   6.103   4.912   2.494 -0.7795  0.1783  0.9416
 4021SOL     OW12299   0.202   4.967   1.406 -0.0367 -0.6457 -0.2171
 4021SOL    HW112300   0.285   4.980   1.360  0.2231 -0.0395  0.3974
 4021SOL    HW212301   0.167   4.886   1.370 -1.1814  1.1134 -3.4535
 4022SOL     OW12302   4.407   0.519   3.783 -0.3747 -0.4586  0.3278
 4022SOL    HW112303   4.460   0.544   3.707  0.0538 -0.4460  0.6348
 4022SOL    HW212304   4.320   0.554   3.763 -0.7868 -2.1207 -1.0777
 4023SOL     OW12305   3.594   1.640   0.146 -0.8178  0.3241 -0.2324
 4023SOL    HW112306   3.534   1.565   0.151 -0.0688 -0.4115 -1.6699
 4023SOL    HW212307   3.644   1.636   0.228 -1.4764 -0.1576  0.1511
 4024SOL     OW12308   5.946   4.941   5.918  0.4058 -0.1218  0.0613
 4024SOL    HW112309   5.887   5.015   5.906 -0.1391 -0.5039  0.3213
 4024SOL    HW212310   5.910   4.893   5.993  1.4033 -0.0235  0.6181
 4025SOL     OW12311   2.858   1.217   0.935 -0.9570  0.1368  0.0657
 4025SOL    HW112312   2.846   1.273   0.858  1.7528 -1.0588 -1.3805
 4025SOL    HW212313   2.810   1.137   0.913 -0.3057 -0.1483 -0.3524
 4026SOL     OW12314   3.551   2.225   4.481  0.2951 -0.2784  0.1759
 4026SOL    HW112315   3.591   2.261   4.560  0.4568 -1.3317  0.5982
 4026SOL    HW212316   3.495   2.154   4.513 -0.0776 -0.3472 -0.6075
 4027SOL     OW12317   4.321   5.397   1.754  0.5263 -0.0914 -0.1954
 4027SOL    HW112318   4.343   5.484   1.787 -1.0852  0.2575  0.0221
 4027SOL    HW212319   4.275   5.414   1.672  0.4565 -0.7631 -0.3000
 4028SOL     OW12320   5.439   4.859   1.667  0.1329  0.0992 -0.0249
 4028SOL    HW112321   5.369   4.889   1.609 -0.6349  0.5005  1.0951
 4028SOL    HW212322   5.520   4.882   1.620 -0.4663  0.5900 -0.8439
 4029SOL     OW12323   1.694   3.931   2.077 -0.1566 -0.5345 -0.0727
 4029SOL    HW112324   1.758   3.915   2.147 -1.3450 -1.7028  0.8091
 4029SOL    HW212325   1.632   3.992   2.116  1.3253  2.1184 -1.5540
 4030SOL     OW12326   3.066   4.005   2.706 -0.6780 -0.2023  0.3131
 4030SOL    HW112327   3.157   4.011   2.737 -0.3437  3.1163 -0.8100
 4030SOL    HW212328   3.074   3.995   2.611 -1.3462  1.7420 -0.0093
 4031SOL     OW12329   2.622   1.757   0.524  0.2516 -0.6289 -0.4226
 4031SOL    HW112330   2.702   1.804   0.546 -0.0111  0.0313 -0.8565
 4031SOL    HW212331   2.620   1.756   0.428 -0.1974 -0.7466 -0.4167
 4032SOL     OW12332   5.506   3.682   2.167  0.1680 -0.1571 -0.2119
 4032SOL    HW112333   5.434   3.739   2.193  0.7901  0.4075  0.2833
 4032SOL    HW212334   5.534   3.715   2.082 -1.2122 -1.3923 -1.2004
 4033SOL     OW12335   6.105   3.744   2.845 -0.1374 -0.2352 -0.0915
 4033SOL    HW112336   6.094   3.779   2.933 -1.5021  0.5591 -0.5515
 4033SOL    HW212337   6.016   3.726   2.815  0.1825  0.8827 -1.8354
 4034SOL     OW12338   5.117   4.468   3.929  0.1581  0.3033  0.1716
 4034SOL    HW112339   5.071   4.423   3.858 -0.2686 -0.8071  1.1224
 4034SOL    HW212340   5.054   4.533   3.960  0.7257  1.5116 -1.1159
 4035SOL     OW12341   0.822   5.624   2.121 -0.4275 -0.0635  0.2559
 4035SOL    HW112342   0.738   5.630   2.167  0.3657  0.1392  1.7183
 4035SOL    HW212343   0.858   5.712   2.123  0.3127 -0.3638  0.5972
 4036SOL     OW12344   1.971   5.080   0.073  0.1421 -0.3826 -0.2407
 4036SOL    HW112345   1.943   5.171   0.065  0.1223 -0.4193 -0.5948
 4036SOL    HW212346   1.912   5.042   0.138  0.1568 -0.1393 -0.0884
 4037SOL     OW12347   2.609   1.816   3.258  0.1042  0.2338  0.3081
 4037SOL    HW112348   2.693   1.818   3.212  0.1612  2.2935  0.4266
 4037SOL    HW212349   2.550   1.868   3.203 -0.3489  1.1103  1.5730
 4038SOL     OW12350   2.529   0.109   3.883  0.7322 -0.5963 -1.0703
 4038SOL    HW112351   2.557   0.023   3.853  1.1020  0.0989 -2.8287
 4038SOL    HW212352   2.496   0.094   3.972 -0.1919 -2.7257 -1.7075
 4039SOL     OW12353   5.315   3.488   4.988  0.0973 -0.2352  0.2170
 4039SOL    HW112354   5.279   3.468   5.074 -0.9984 -1.4627 -0.4861
 4039SOL    HW212355   5.383   3.554   5.005 -0.8922  0.4295  1.8632
 4040SOL     OW12356   0.682   4.090   4.944  0.3591  0.0811  0.3987
 4040SOL    HW112357   0.727   4.136   5.015 -0.5248 -0.7026  1.5038
 4040SOL    HW212358   0.623   4.157   4.907 -0.5592  0.0247  1.6723
 4041SOL     OW12359   1.323   3.210   4.994 -0.0194  0.5215  0.7887
 4041SOL    HW112360   1.394   3.215   5.058 -0.7246  0.2781  1.6177
 4041SOL    HW212361   1.246   3.241   5.042 -0.8731 -1.1122  0.5411
 4042SOL     OW12362   2.132   0.701   5.145 -0.3351 -0.3746 -0.4002
 4042SOL    HW112363   2.173   0.720   5.061 -3.0964 -0.2376 -1.8612
 4042SOL    HW212364   2.073   0.627   5.126 -2.1955  0.6612  0.9659
 4043SOL     OW12365   0.200   3.491   1.482  0.0302  0.3826 -0.6007
 4043SOL    HW112366   0.154   3.573   1.467 -1.0729 -0.2693 -0.8717
 4043SOL    HW212367   0.233   3.465   1.396  1.5336  1.1864 -0.2998
 4044SOL     OW12368   2.170   2.532   5.987  0.0362  0.4764 -0.1342
 4044SOL    HW112369   2.090   2.528   5.935  1.8660 -2.2069 -3.1490
 4044SOL    HW212370   2.212   2.613   5.961 -1.3395  1.5974  1.0056
 4045SOL     OW12371   5.279   4.966   0.826  0.2380  0.0916 -0.1209
 4045SOL    HW112372   5.355   4.979   0.768 -0.2985  2.9354 -0.3429
 4045SOL    HW212373   5.203   4.972   0.768 -0.2310 -0.3200  0.4390
 4046SOL     OW12374   3.235   2.677   1.816  0.3103 -0.3897 -0.0734
 4046SOL    HW112375   3.172   2.649   1.750 -0.3429  2.0438 -0.5572
 4046SOL    HW212376   3.183   2.686   1.896  0.3876 -0.0370 -0.0606
 4047SOL     OW12377   2.752   1.748   5.848  0.2665  0.0114  0.2301
 4047SOL    HW112378   2.782   1.815   5.909  1.8820  0.6631 -1.2054
 4047SOL    HW212379   2.664   1.777   5.823  0.0251  0.3186  1.3959
 4048SOL     OW12380   0.576   2.531   2.805 -0.3996  0.1847 -0.2325
 4048SOL    HW112381   0.656   2.490   2.772 -0.1271  1.8916 -1.8960
 4048SOL    HW212382   0.505   2.491   2.755 -0.6196 -1.1898  1.1070
 4049SOL     OW12383   3.011   5.965   3.047  0.0520 -0.2060  0.0064
 4049SOL    HW112384   3.037   5.953   2.955 -0.2039  0.0667 -0.1011
 4049SOL    HW212385   2.920   5.994   3.043  0.6166  1.7616  0.2482
 4050SOL     OW12386   2.443   5.508   3.118 -0.0322  0.0297  0.0125
 4050SOL    HW112387   2.482   5.567   3.054 -0.4509  0.4207  0.1075
 4050SOL    HW212388   2.426   5.564   3.194  1.9868 -0.7448  1.1318
 4051SOL     OW12389   1.379   1.994   3.375  0.4026 -0.6394 -0.4790
 4051SOL    HW112390   1.422   1.910   3.390  0.7399 -0.5574 -0.9613
 4051SOL    HW212391   1.396   2.013   3.283  0.8923  0.2688 -0.2162
 4052SOL     OW12392   2.276   5.782   2.973  0.1819 -0.3900 -0.0236
 4052SOL    HW112393   2.266   5.832   2.892  1.0652  1.2241  0.8166
 4052SOL    HW212394   2.360   5.810   3.009 -0.5021 -0.5370  1.8091
 4053SOL     OW12395   4.330   5.194   1.468 -0.3169  0.2167  0.9663
 4053SOL    HW112396   4.259   5.249   1.504 -0.4890  0.8392 -0.2888
 4053SOL    HW212397   4.296   5.163   1.384 -0.7174 -2.8536  2.1250
 4054SOL     OW12398   3.902   0.207   0.188  0.5129 -0.0568  0.0327
 4054SOL    HW112399   3.950   0.269   0.243  0.2962 -0.4180  0.6366
 4054SOL    HW212400   3.837   0.168   0.246  2.0143 -2.4306  0.2499
 4055SOL     OW12401   4.396   5.758   3.924  0.2180  0.1877 -0.2574
 4055SOL    HW112402   4.331   5.777   3.991 -0.0403 -1.1321 -0.1044
 4055SOL    HW212403   4.397   5.836   3.868 -0.7192  0.6482  0.3477
 4056SOL     OW12404   1.018   5.574   0.982  0.0269 -0.0876  0.1481
 4056SOL    HW112405   0.928   5.564   0.949 -0.8595  0.2976  2.2764
 4056SOL    HW212406   1.053   5.648   0.933 -1.8536  1.6192  1.2426
 4057SOL     OW12407   2.674   0.117   2.192  0.4735 -0.0637  0.1071
 4057SOL    HW112408   2.711   0.195   2.151  0.7008 -0.3642 -0.2754
 4057SOL    HW212409   2.748   0.057   2.200  0.1321 -0.5653 -0.4113
 4058SOL     OW12410   5.518   0.507   0.392 -0.1228  0.7400 -0.2439
 4058SOL    HW112411   5.589   0.499   0.455 -1.0656  2.3824  1.1010
 4058SOL    HW212412   5.490   0.417   0.377  2.0113  0.0734 -0.6055
 4059SOL     OW12413   0.105   2.461   3.017  0.4201  0.0438 -1.1191
 4059SOL    HW112414   0.156   2.524   2.966  1.2701 -0.1977 -0.5941
 4059SOL    HW212415   0.078   2.509   3.095 -0.3840  0.2438 -1.5133
 4060SOL     OW12416   0.488   2.202   2.446  0.3054  0.8063 -0.8527
 4060SOL    HW112417   0.414   2.176   2.391 -0.3696  1.8951 -0.4818
 4060SOL    HW212418   0.566   2.184   2.392 -0.3128  1.3403 -1.9512
 4061SOL     OW12419   5.946   4.310   2.618 -0.4053  0.1377  0.1115
 4061SOL    HW112420   5.864   4.336   2.658 -0.5419  0.7449 -0.5377
 4061SOL    HW212421   5.969   4.227   2.661 -0.7811  0.5236  1.0781
 4062SOL     OW12422   4.063   2.468   6.142 -0.1451  0.4182  0.2950
 4062SOL    HW112423   4.091   2.380   6.117 -0.5800  0.4556 -0.3539
 4062SOL    HW212424   4.142   2.510   6.175 -0.2232 -0.6997  2.0704
 4063SOL     OW12425   4.348   4.532   3.234  0.7051  0.4713 -0.2952
 4063SOL    HW112426   4.316   4.601   3.292  0.6626  0.3517 -0.1771
 4063SOL    HW212427   4.329   4.450   3.280 -1.8370  0.1961 -1.6303
 4064SOL     OW12428   4.311   6.039   0.871 -0.0903 -0.3586 -0.3987
 4064SOL    HW112429   4.240   6.103   0.869 -1.3932 -1.7309 -2.6334
 4064SOL    HW212430   4.388   6.087   0.841 -0.4826  0.7051  0.2571
 4065SOL     OW12431   2.580   3.417   2.312 -0.1631  0.3432  0.2144
 4065SOL    HW112432   2.528   3.361   2.369 -0.2012  0.6654  0.5010
 4065SOL    HW212433   2.667   3.378   2.313 -0.4433 -0.3104 -0.4277
 4066SOL     OW12434   1.754   2.965   2.673  0.0906 -0.2268  0.0684
 4066SOL    HW112435   1.826   2.907   2.698  0.3472  0.3620  0.7389
 4066SOL    HW212436   1.732   3.012   2.754 -1.6976 -1.0788  0.1245
 4067SOL     OW12437   5.134   1.590   2.284 -0.1899 -0.0118  0.1082
 4067SOL    HW112438   5.228   1.604   2.272 -0.3416  2.0029  0.9223
 4067SOL    HW212439   5.104   1.553   2.201  1.0762  0.6896 -0.6897
 4068SOL     OW12440   1.715   2.355   0.497 -0.4439  0.2641  0.3912
 4068SOL    HW112441   1.718   2.441   0.538  0.0782  1.0512 -1.1871
 4068SOL    HW212442   1.681   2.297   0.564 -2.6562  2.0501  0.9278
 4069SOL     OW12443   1.749   4.111   1.423  0.0533 -0.0675 -0.3623
 4069SOL    HW112444   1.698   4.033   1.401 -1.9126  0.9859  0.2255
 4069SOL    HW212445   1.743   4.117   1.518  0.4222  0.6256 -0.3773
 4070SOL     OW12446   0.758   4.872   4.335 -0.5408  0.1524  0.1675
 4070SOL    HW112447   0.776   4.785   4.300  0.8626  0.9225 -1.1497
 4070SOL    HW212448   0.833   4.892   4.390 -1.1422  0.3019  0.9450
 4071SOL     OW12449   5.070   2.607   3.336 -0.6632 -0.4595 -0.4925
 4071SOL    HW112450   5.021   2.689   3.332  2.2256  1.5094  0.7355
 4071SOL    HW212451   5.143   2.619   3.275  1.4025 -0.8092  1.7022
 4072SOL     OW12452   0.177   1.660   0.014 -0.2705 -0.3606 -0.1856
 4072SOL    HW112453   0.157   1.566   0.013  0.6772 -0.5980 -1.6940
 4072SOL    HW212454   0.205   1.678   0.103  1.2559 -1.9414 -0.2831
 4073SOL     OW12455   2.324   2.849   3.341 -0.0768  0.0460  0.9196
 4073SOL    HW112456   2.279   2.907   3.403 -2.2757 -1.3661  0.7459
 4073SOL    HW212457   2.316   2.762   3.379  1.2751 -0.4626  0.1202
 4074SOL     OW12458   4.024   1.762   2.425 -0.0557  0.8333  0.6013
 4074SOL    HW112459   3.994   1.775   2.335  0.6487 -0.6057  0.1311
 4074SOL    HW212460   4.119   1.769   2.419  0.2260 -1.9052  0.7021
 4075SOL     OW12461   0.034   2.505   5.055 -0.7650  0.4942  0.8387
 4075SOL    HW112462   0.026   2.545   5.141 -4.6831  1.7424  0.0944
 4075SOL    HW212463   0.018   2.412   5.070 -1.6112  0.7282  1.4634
 4076SOL     OW12464   4.515   1.990   1.812 -0.1213 -0.8195 -0.2999
 4076SOL    HW112465   4.519   1.903   1.851 -1.4911 -0.4079  0.8314
 4076SOL    HW212466   4.588   2.038   1.853  0.2170 -1.2251 -0.4202
 4077SOL     OW12467   6.135   2.040   5.592  0.4197 -0.4991 -0.0927
 4077SOL    HW112468   6.146   1.985   5.670 -0.8069 -0.8376 -0.1484
 4077SOL    HW212469   6.066   2.101   5.615  0.3761 -0.2935 -0.7525
 4078SOL     OW12470   0.319   2.565   5.014  0.4669 -0.7971 -0.1326
 4078SOL    HW112471   0.229   2.555   5.044  0.6636  1.1229  1.3125
 4078SOL    HW212472   0.357   2.478   5.021 -0.4380 -1.0641  2.2134
 4079SOL     OW12473   1.728   4.074   4.548  0.2268 -0.0859  0.9232
 4079SOL    HW112474   1.658   4.135   4.572  0.8690  1.6871 -1.3237
 4079SOL    HW212475   1.753   4.100   4.459  1.8119 -2.5076  0.5637
 4080SOL     OW12476   5.151   3.536   5.624 -0.0911  0.2281  0.4909
 4080SOL    HW112477   5.170   3.471   5.555 -1.7591  0.9422 -0.7359
 4080SOL    HW212478   5.104   3.486   5.691 -1.5620  0.1164 -0.5472
 4081SOL     OW12479   6.028   1.469   2.187 -0.2055 -0.2388  0.2291
 4081SOL    HW112480   6.026   1.523   2.266  1.5804  0.0400  0.1286
 4081SOL    HW212481   5.936   1.458   2.163 -0.6997  1.1280  1.3489
 4082SOL     OW12482   3.959   5.184   3.968  0.0209 -0.0488 -0.4450
 4082SOL    HW112483   4.023   5.245   4.004  0.1444  0.0032 -0.7451
 4082SOL    HW212484   3.929   5.133   4.043  0.6518 -0.2972 -0.3575
 4083SOL     OW12485   1.887   2.682   4.863 -0.1939 -0.5929 -0.0821
 4083SOL    HW112486   1.895   2.602   4.915 -0.5253  0.2047  1.2433
 4083SOL    HW212487   1.844   2.744   4.922  0.0351  0.5526 -1.0980
 4084SOL     OW12488   2.084   2.125   5.312 -0.4264 -0.3607 -0.2621
 4084SOL    HW112489   2.054   2.082   5.232  0.2411 -1.3914  0.0242
 4084SOL    HW212490   2.122   2.208   5.283  0.6307 -1.1337 -1.1172
 4085SOL     OW12491   4.553   5.449   2.926  0.2352  0.3358  0.0655
 4085SOL    HW112492   4.487   5.486   2.985  0.7261 -0.2021  0.9774
 4085SOL    HW212493   4.502   5.407   2.857 -0.4019 -0.2982  0.8930
 4086SOL     OW12494   1.351   1.642   2.423  0.3185  0.0842 -0.3918
 4086SOL    HW112495   1.336   1.646   2.517 -0.4188 -0.0636 -0.4965
 4086SOL    HW212496   1.443   1.618   2.414  0.3410 -0.0968  0.2895
 4087SOL     OW12497   1.014   4.971   6.022  0.0051  0.0713 -0.1264
 4087SOL    HW112498   1.004   4.887   5.978 -2.0157 -0.2626  0.8738
 4087SOL    HW212499   1.008   5.036   5.951 -1.1058 -0.5289 -0.6073
 4088SOL     OW12500   3.987   1.340   3.058  0.2151 -0.1539  0.0107
 4088SOL    HW112501   4.043   1.267   3.034  0.9039  0.5808 -0.6857
 4088SOL    HW212502   3.971   1.387   2.975 -1.0396 -0.0718  0.2695
 4089SOL     OW12503   4.181   4.748   1.628 -1.0023 -0.1949  0.2697
 4089SOL    HW112504   4.235   4.807   1.680 -2.7672  0.7436  1.1234
 4089SOL    HW212505   4.242   4.711   1.563  0.4283  1.5391  0.5428
 4090SOL     OW12506   4.563   0.125   5.443  0.0256  0.0867 -0.4272
 4090SOL    HW112507   4.511   0.202   5.465  1.4760  0.6710  1.2515
 4090SOL    HW212508   4.586   0.086   5.528 -0.3090 -1.9772 -1.2159
 4091SOL     OW12509   1.054   6.151   1.863 -0.5726  0.4042 -0.1356
 4091SOL    HW112510   1.113   6.135   1.790 -1.1504  1.2508 -0.8002
 4091SOL    HW212511   1.109   6.188   1.932 -0.7354  4.4742 -1.8937
 4092SOL     OW12512   1.083   1.439   1.111 -0.1376  0.5837  0.3927
 4092SOL    HW112513   1.080   1.472   1.021  1.8002  1.2308  0.5296
 4092SOL    HW212514   1.176   1.424   1.128 -0.4930  0.2844  2.2382
 4093SOL     OW12515   2.906   5.132   1.596  0.0203  0.3770  0.1661
 4093SOL    HW112516   2.927   5.085   1.676  4.2011 -1.5129 -1.7197
 4093SOL    HW212517   2.845   5.075   1.549  0.7170 -0.4884  0.2980
 4094SOL     OW12518   3.048   4.904   4.025 -0.3720 -0.6817 -0.6678
 4094SOL    HW112519   2.989   4.871   3.956 -0.3086 -1.5805 -0.3083
 4094SOL    HW212520   2.994   4.965   4.075 -0.6478 -0.6082 -1.0450
 4095SOL     OW12521   6.061   0.186   3.260  0.0211  0.4104  0.2157
 4095SOL    HW112522   6.028   0.275   3.246  1.0853  0.7063 -0.5054
 4095SOL    HW212523   6.151   0.198   3.289 -0.7188 -0.3546  3.0826
 4096SOL     OW12524   2.259   5.519   4.658 -0.2198 -0.6617 -0.1356
 4096SOL    HW112525   2.267   5.489   4.749  0.2276  0.4122  0.1952
 4096SOL    HW212526   2.318   5.462   4.609 -1.0505 -1.7560  0.1129
 4097SOL     OW12527   0.872   3.305   2.261  0.5587 -0.3047 -0.1933
 4097SOL    HW112528   0.838   3.227   2.216  1.0067 -1.1935  0.9422
 4097SOL    HW212529   0.905   3.271   2.345  0.7842  1.1143  0.3150
 4098SOL     OW12530   4.900   4.612   4.940 -0.2898  0.3384 -0.1847
 4098SOL    HW112531   4.922   4.701   4.913  1.8127  0.5086  1.7672
 4098SOL    HW212532   4.964   4.591   5.009 -1.6000 -2.1659  0.4014
 4099SOL     OW12533   2.399   2.864   0.359  0.8944 -0.4297 -0.3317
 4099SOL    HW112534   2.434   2.952   0.343  2.5510 -0.7244  1.2755
 4099SOL    HW212535   2.424   2.814   0.281  1.4602  0.1230 -0.5131
 4100SOL     OW12536   5.885   0.842   5.369 -0.4475  0.5005 -0.2953
 4100SOL    HW112537   5.953   0.782   5.338 -0.5910  0.7906 -1.2247
 4100SOL    HW212538   5.876   0.823   5.462  1.3466  0.8590  0.0014
 4101SOL     OW12539   5.485   4.566   0.119  0.0689 -0.1490  0.0614
 4101SOL    HW112540   5.442   4.483   0.105  0.7423 -0.5487  0.2966
 4101SOL    HW212541   5.419   4.632   0.097  0.4399 -0.6958 -3.0733
 4102SOL     OW12542   4.874   3.376   3.706  0.1813  0.4711 -0.8667
 4102SOL    HW112543   4.849   3.443   3.642  0.9860  1.2681 -0.3584
 4102SOL    HW212544   4.969   3.384   3.713  0.0941  0.4401  0.4758
 4103SOL     OW12545   0.353   0.271   3.864  0.1715 -0.6320  0.3898
 4103SOL    HW112546   0.418   0.281   3.933 -1.0215  0.6848  1.3781
 4103SOL    HW212547   0.403   0.237   3.789  1.6049 -1.4961  1.6729
 4104SOL     OW12548   2.492   3.198   3.822  0.5560 -0.4330 -0.0797
 4104SOL    HW112549   2.551   3.141   3.772  0.5942  0.3807 -0.9877
 4104SOL    HW212550   2.409   3.150   3.826  1.3056 -1.7326  1.4694
 4105SOL     OW12551   2.780   0.622   3.266 -0.0823  0.0945 -0.5958
 4105SOL    HW112552   2.745   0.576   3.190  0.0714 -0.7913 -0.1475
 4105SOL    HW212553   2.743   0.709   3.261  0.0933  0.1121 -1.8015
 4106SOL     OW12554   1.341   0.507   2.340 -0.1631  0.1006 -0.2702
 4106SOL    HW112555   1.248   0.527   2.342 -0.5050 -1.2607 -1.2667
 4106SOL    HW212556   1.375   0.543   2.422 -1.3648  1.4805 -0.3392
 4107SOL     OW12557   5.032   2.787   2.775 -0.4634  0.3165  0.4812
 4107SOL    HW112558   4.960   2.760   2.719  0.6853 -0.8423 -0.5044
 4107SOL    HW212559   5.101   2.814   2.715  1.2135 -1.9952  1.2193
 4108SOL     OW12560   2.545   0.097   2.439  0.0449  0.0678  0.0691
 4108SOL    HW112561   2.484   0.024   2.433 -0.0677  0.1522  0.1692
 4108SOL    HW212562   2.576   0.111   2.350 -0.8611  0.6871 -0.1622
 4109SOL     OW12563   1.564   4.916   4.540  0.7058 -0.4741 -0.3500
 4109SOL    HW112564   1.589   4.907   4.448  1.2318  0.4333 -0.3073
 4109SOL    HW212565   1.491   4.978   4.539  0.9048 -0.2340 -0.1289
 4110SOL     OW12566   0.596   0.205   5.730  0.4115 -0.2360 -0.2768
 4110SOL    HW112567   0.534   0.134   5.714 -0.0538  0.2345 -0.5852
 4110SOL    HW212568   0.680   0.161   5.743 -0.3087 -1.0234  2.0979
 4111SOL     OW12569   0.328   6.080   0.442  0.3807 -0.6191 -0.4163
 4111SOL    HW112570   0.349   6.154   0.500 -0.6242 -1.6873  1.3871
 4111SOL    HW212571   0.265   6.116   0.380  1.4250  0.5368 -0.8484
 4112SOL     OW12572   0.979   2.891   3.082 -0.0412 -0.2974 -0.1336
 4112SOL    HW112573   0.994   2.834   3.158 -0.3114 -1.6750 -1.0625
 4112SOL    HW212574   0.964   2.830   3.010 -0.5660  0.9826 -1.1420
 4113SOL     OW12575   3.953   4.838   5.361  0.0310  0.1551  0.0772
 4113SOL    HW112576   4.037   4.850   5.404  0.3723  0.8328 -0.7510
 4113SOL    HW212577   3.889   4.839   5.433  0.6804  0.1437  0.6658
 4114SOL     OW12578   3.850   2.047   5.505  0.2041  0.1581 -0.1273
 4114SOL    HW112579   3.922   2.033   5.444  2.3021  3.5581  1.2937
 4114SOL    HW212580   3.868   1.985   5.576 -0.2440 -1.3311 -1.2646
 4115SOL     OW12581   2.316   0.345   5.269  0.0272 -0.7827  0.0805
 4115SOL    HW112582   2.315   0.339   5.365 -0.4096 -0.9422  0.0690
 4115SOL    HW212583   2.336   0.437   5.252 -0.1282 -0.7007  0.3287
 4116SOL     OW12584   2.611   0.731   4.405 -0.3568 -0.3792 -0.0222
 4116SOL    HW112585   2.531   0.764   4.365 -0.8773  0.5695  1.6795
 4116SOL    HW212586   2.607   0.636   4.394 -2.2271 -0.4416  0.8764
 4117SOL     OW12587   3.386   1.209   2.810  0.1284 -0.0962  0.2975
 4117SOL    HW112588   3.330   1.285   2.824 -1.6313 -0.8880 -1.7979
 4117SOL    HW212589   3.455   1.240   2.751 -0.6205 -0.0796 -0.6020
 4118SOL     OW12590   2.681   0.651   1.202 -0.4141  0.2466 -0.2683
 4118SOL    HW112591   2.644   0.580   1.254  1.9403  0.4301  1.8603
 4118SOL    HW212592   2.768   0.621   1.178 -0.1079  1.6332 -1.0220
 4119SOL     OW12593   2.714   5.014   5.059  0.1090  0.4939  0.2345
 4119SOL    HW112594   2.657   4.992   4.985 -1.2827  0.4466  1.2733
 4119SOL    HW212595   2.773   5.082   5.025  1.0428 -1.1153 -1.5410
 4120SOL     OW12596   2.427   4.589   4.854 -0.0143  0.7491  0.7170
 4120SOL    HW112597   2.387   4.647   4.790 -0.6727 -0.1541  0.2835
 4120SOL    HW212598   2.443   4.644   4.930 -1.1247  1.3691  0.5181
 4121SOL     OW12599   1.514   1.889   2.345  0.1719  0.0536 -0.4091
 4121SOL    HW112600   1.509   1.901   2.440  0.1323 -0.0593 -0.3971
 4121SOL    HW212601   1.555   1.804   2.334 -1.4597 -0.7695 -0.4670
 4122SOL     OW12602   4.348   2.414   2.989  0.3293  0.2001  0.3273
 4122SOL    HW112603   4.366   2.452   3.075 -0.6545  0.8648  0.2527
 4122SOL    HW212604   4.260   2.444   2.968 -0.2257 -1.5533 -0.0412
 4123SOL     OW12605   0.272   3.170   3.282  0.9161  0.1562  0.2645
 4123SOL    HW112606   0.206   3.196   3.218 -0.1170  1.5555  1.8235
 4123SOL    HW212607   0.355   3.178   3.235  0.0796 -0.9907 -1.5351
 4124SOL     OW12608   2.519   1.605   0.282 -0.1217 -0.4905  0.0690
 4124SOL    HW112609   2.458   1.548   0.236 -1.6952  1.4036 -0.3053
 4124SOL    HW212610   2.556   1.661   0.213  0.6958 -0.4273  0.5479
 4125SOL     OW12611   3.363   5.012   5.920 -0.1475 -0.9572 -0.3439
 4125SOL    HW112612   3.270   5.024   5.935 -0.2861 -1.6726 -0.5743
 4125SOL    HW212613   3.382   5.060   5.840 -0.2439 -0.5207 -0.1066
 4126SOL     OW12614   2.143   2.683   1.324  0.6152  0.1707 -0.2158
 4126SOL    HW112615   2.221   2.738   1.336 -0.3621  1.1176  2.3096
 4126SOL    HW212616   2.082   2.739   1.274  0.3613  0.6610  0.6300
 4127SOL     OW12617   2.890   4.813   5.169  0.7678  0.3268  0.4131
 4127SOL    HW112618   2.976   4.846   5.145  0.0933  1.2154 -0.9087
 4127SOL    HW212619   2.828   4.875   5.129 -0.4889  0.3996  2.3405
 4128SOL     OW12620   0.417   4.179   3.311 -0.0488  0.4488 -0.0518
 4128SOL    HW112621   0.508   4.153   3.299  0.6319  1.1248  2.9687
 4128SOL    HW212622   0.367   4.098   3.295  0.8447  0.3500 -2.9795
 4129SOL     OW12623   1.867   3.353   2.774  0.3720  0.4587  0.0043
 4129SOL    HW112624   1.918   3.306   2.840 -0.2576 -2.0806 -1.1853
 4129SOL    HW212625   1.888   3.309   2.692 -1.8849  0.9020 -0.8858
 4130SOL     OW12626   3.463   0.149   4.482  0.7975 -0.5394 -0.3798
 4130SOL    HW112627   3.413   0.122   4.558 -0.0545 -1.1872 -1.1585
 4130SOL    HW212628   3.543   0.187   4.518 -0.1770  0.3809  0.8782
 4131SOL     OW12629   2.349   5.165   0.366 -0.2244 -0.2812  0.2512
 4131SOL    HW112630   2.430   5.114   0.360  1.5564  2.4708 -1.3451
 4131SOL    HW212631   2.300   5.141   0.288  0.6937  0.4952 -0.5945
 4132SOL     OW12632   2.378   4.514   1.173  0.4677 -0.2051 -0.0950
 4132SOL    HW112633   2.454   4.570   1.190  1.2093 -0.3862 -2.3712
 4132SOL    HW212634   2.307   4.576   1.155  1.0545  0.0639 -1.6715
 4133SOL     OW12635   0.285   0.544   1.171  0.4504  0.0820 -0.4917
 4133SOL    HW112636   0.196   0.546   1.136 -0.4901  3.8634  1.4742
 4133SOL    HW212637   0.275   0.509   1.260  1.0305 -0.0664 -0.4813
 4134SOL     OW12638   0.799   5.508   0.446  0.0443  0.5784 -0.2046
 4134SOL    HW112639   0.879   5.459   0.468 -0.1695  0.2925 -0.0595
 4134SOL    HW212640   0.762   5.533   0.530 -0.8520 -0.6393 -0.2167
 4135SOL     OW12641   5.770   2.842   2.393  0.3703  0.3522  0.0606
 4135SOL    HW112642   5.782   2.853   2.487  1.3618 -3.5391  0.5511
 4135SOL    HW212643   5.728   2.756   2.383  0.0239  0.7432 -3.0477
 4136SOL     OW12644   5.363   3.255   5.207  0.2924  0.5791 -0.6235
 4136SOL    HW112645   5.399   3.228   5.123  0.1738  2.1644 -1.2092
 4136SOL    HW212646   5.438   3.282   5.259  0.2436  0.8738 -0.7050
 4137SOL     OW12647   3.925   1.473   2.844 -0.0940 -0.4394  0.1184
 4137SOL    HW112648   3.903   1.538   2.777  1.6064 -0.1524 -0.2105
 4137SOL    HW212649   3.841   1.452   2.886 -0.9602  0.5226 -1.0584
 4138SOL     OW12650   1.885   5.513   4.727  0.0597 -0.0058 -0.1345
 4138SOL    HW112651   1.910   5.527   4.636  1.7985  0.3127  0.3441
 4138SOL    HW212652   1.939   5.576   4.776 -1.8838  0.8576  1.0144
 4139SOL     OW12653   4.902   4.684   0.114 -0.4375  0.4437 -0.2830
 4139SOL    HW112654   4.940   4.597   0.124  0.5795  0.9364  0.3949
 4139SOL    HW212655   4.896   4.698   0.020 -1.7087 -0.8074 -0.4059
 4140SOL     OW12656   3.618   2.076   0.115  0.0837  0.1700  0.2495
 4140SOL    HW112657   3.612   2.133   0.192  0.5653  1.0574 -0.3550
 4140SOL    HW212658   3.545   2.014   0.125 -2.2267  2.6204 -0.4843
 4141SOL     OW12659   4.937   4.624   5.390  0.1974 -0.7929  1.0256
 4141SOL    HW112660   4.854   4.660   5.362  0.2695 -0.7700  0.8413
 4141SOL    HW212661   4.966   4.569   5.317  1.9737  1.8075 -0.4103
 4142SOL     OW12662   0.509   1.488   1.821 -0.4248 -0.7802 -0.1295
 4142SOL    HW112663   0.526   1.526   1.907 -4.2287 -1.2168  1.0266
 4142SOL    HW212664   0.571   1.531   1.763  1.0317  0.9383  2.5044
 4143SOL     OW12665   0.447   1.877   1.153  0.3732  0.0833 -0.5771
 4143SOL    HW112666   0.382   1.945   1.168  1.3432  0.8748  0.1808
 4143SOL    HW212667   0.456   1.833   1.237  1.2043  0.3394 -0.5225
 4144SOL     OW12668   4.618   3.347   3.837  0.2312 -0.1753 -0.5669
 4144SOL    HW112669   4.682   3.372   3.771 -0.0058 -0.3087 -0.8543
 4144SOL    HW212670   4.589   3.260   3.810 -0.2754 -0.0019 -0.6036
 4145SOL     OW12671   2.869   6.136   0.305 -0.2788 -0.3557  0.3002
 4145SOL    HW112672   2.777   6.161   0.297  0.0702  0.5225 -1.3339
 4145SOL    HW212673   2.888   6.085   0.226  1.1428  1.2320 -0.4601
 4146SOL     OW12674   3.657   5.906   5.062  0.4659 -0.2330  0.2417
 4146SOL    HW112675   3.585   5.966   5.042  0.7535  0.5317  1.4164
 4146SOL    HW212676   3.674   5.920   5.155  2.4538 -0.0422 -0.1252
 4147SOL     OW12677   5.882   3.855   4.346  0.4634  1.0280  0.4695
 4147SOL    HW112678   5.924   3.939   4.330  1.0266  0.1477 -3.9698
 4147SOL    HW212679   5.955   3.792   4.348 -0.1610  0.2892  0.4103
 4148SOL     OW12680   0.974   5.356   1.606 -0.4054  0.2309  0.4251
 4148SOL    HW112681   0.894   5.396   1.641 -1.3399  0.1121 -1.3954
 4148SOL    HW212682   0.944   5.274   1.568  0.1972  0.9838 -1.8489
 4149SOL     OW12683   5.500   6.150   1.140  0.4286 -0.0025 -0.6655
 4149SOL    HW112684   5.463   6.199   1.214 -0.3889  0.7652 -1.5600
 4149SOL    HW212685   5.595   6.163   1.149  0.4182 -0.6412  0.7200
 4150SOL     OW12686   2.615   0.777   5.012  0.7714 -0.0582 -0.2176
 4150SOL    HW112687   2.670   0.794   4.936  0.5535 -1.6190 -0.7562
 4150SOL    HW212688   2.575   0.862   5.033  2.1288  0.7455 -0.7877
 4151SOL     OW12689   0.259   5.741   0.308 -0.1088 -0.3088 -0.5441
 4151SOL    HW112690   0.189   5.676   0.300 -1.3426  0.9146 -0.0989
 4151SOL    HW212691   0.299   5.724   0.393  1.5783 -2.3453 -1.6633
 4152SOL     OW12692   2.961   4.069   5.463 -0.0989 -0.2192  0.3480
 4152SOL    HW112693   2.921   4.056   5.377 -1.2916 -0.9355  0.9789
 4152SOL    HW212694   3.033   4.005   5.466  0.2182  0.1031 -0.2669
 4153SOL     OW12695   0.790   3.726   5.559  0.5318  0.0657 -0.2473
 4153SOL    HW112696   0.763   3.690   5.475 -0.0758 -0.9504  0.3616
 4153SOL    HW212697   0.803   3.649   5.615 -3.0694  0.7260  1.8007
 4154SOL     OW12698   4.599   2.262   1.229  0.1440  0.1593 -0.1401
 4154SOL    HW112699   4.611   2.347   1.186 -1.1513 -0.2405 -1.3915
 4154SOL    HW212700   4.566   2.205   1.160 -1.4351 -0.6903  1.2435
 4155SOL     OW12701   1.315   1.250   4.369 -0.2533 -0.3206 -0.7126
 4155SOL    HW112702   1.330   1.309   4.443 -1.7754  0.7665 -1.2315
 4155SOL    HW212703   1.288   1.168   4.410 -0.8628  0.2036 -0.0394
 4156SOL     OW12704   0.303   4.793   5.025 -0.1093  0.0260 -0.1704
 4156SOL    HW112705   0.319   4.831   5.111  0.3313  0.6272 -0.5045
 4156SOL    HW212706   0.294   4.699   5.040 -0.0071  0.1258  0.5214
 4157SOL     OW12707   3.526   5.697   5.714  0.3419 -0.5283  0.3788
 4157SOL    HW112708   3.476   5.760   5.662  0.0318 -1.9909 -1.1714
 4157SOL    HW212709   3.611   5.739   5.727 -0.2147  0.6684  0.3700
 4158SOL     OW12710   2.785   3.433   0.075  0.1623  0.4696  0.2196
 4158SOL    HW112711   2.822   3.505   0.126 -2.5171  1.2303  1.2743
 4158SOL    HW212712   2.747   3.475  -0.002  0.8872 -0.1954 -0.5188
 4159SOL     OW12713   1.165   0.017   1.591 -0.0082  0.7527  0.0882
 4159SOL    HW112714   1.125   0.103   1.579  0.7537  0.9182 -1.4181
 4159SOL    HW212715   1.119  -0.040   1.530 -0.3930  0.1145  0.9598
 4160SOL     OW12716   1.452   0.088   2.860  0.1655 -0.3377 -0.0431
 4160SOL    HW112717   1.408   0.028   2.920 -0.5278  1.1279  1.0013
 4160SOL    HW212718   1.535   0.109   2.904  0.8380 -1.2323 -0.8529
 4161SOL     OW12719   1.301   3.189   5.865  0.3726  0.1906  0.1702
 4161SOL    HW112720   1.229   3.138   5.902  1.3741 -0.5472  1.1733
 4161SOL    HW212721   1.267   3.278   5.860 -0.3248  0.0202  1.4594
 4162SOL     OW12722   3.495   2.021   2.570 -0.1767 -0.1688  0.4775
 4162SOL    HW112723   3.479   2.056   2.482  0.0869  0.1366  0.5495
 4162SOL    HW212724   3.410   1.986   2.597 -0.2463 -0.3161  0.0803
 4163SOL     OW12725   0.754   2.248   2.771 -0.3400 -0.5698 -0.1297
 4163SOL    HW112726   0.761   2.207   2.685  0.2297 -0.5834 -0.0763
 4163SOL    HW212727   0.676   2.208   2.810 -1.1454  0.0972 -0.9960
 4164SOL     OW12728   3.112   3.078   0.541  0.0655 -0.2362  0.7401
 4164SOL    HW112729   3.156   3.013   0.596 -0.4284 -0.9958  0.2610
 4164SOL    HW212730   3.174   3.095   0.470 -0.1771 -0.9071  0.3540
 4165SOL     OW12731   0.477   0.986   5.414  0.4573  0.1627 -0.6155
 4165SOL    HW112732   0.518   1.072   5.422 -0.5770  0.5820  0.6061
 4165SOL    HW212733   0.384   1.006   5.401 -0.2505 -0.7100  2.3525
 4166SOL     OW12734   3.813   0.550   2.946 -0.3474  0.9924 -0.1801
 4166SOL    HW112735   3.723   0.581   2.934 -2.0929 -3.8963 -3.1088
 4166SOL    HW212736   3.806   0.482   3.013  1.0770  0.4454 -0.5542
 4167SOL     OW12737   0.932   3.220   2.886 -1.2018  0.4324  0.6522
 4167SOL    HW112738   0.999   3.288   2.896  0.9771 -1.4473 -0.1904
 4167SOL    HW212739   0.973   3.155   2.829 -3.4791 -1.2382  0.7887
 4168SOL     OW12740   5.721   0.118   2.068  0.0929  0.3183  0.0618
 4168SOL    HW112741   5.806   0.076   2.077 -0.6100 -1.1227  0.3696
 4168SOL    HW212742   5.673   0.062   2.007 -0.8404  0.7492  0.3755
 4169SOL     OW12743   1.825   5.984   0.022 -0.3490 -0.2022 -0.2040
 4169SOL    HW112744   1.870   6.064  -0.004  1.7138 -1.5676 -1.1655
 4169SOL    HW212745   1.743   5.984  -0.027  1.2547 -0.3613 -3.1370
 4170SOL     OW12746   1.503   0.317   5.755 -0.7160 -0.3082  0.3497
 4170SOL    HW112747   1.421   0.319   5.803 -0.1011  2.7440  1.4407
 4170SOL    HW212748   1.556   0.388   5.792  1.7608 -1.0269 -1.4791
 4171SOL     OW12749   4.585   2.546   3.555 -0.1744  0.0766  0.6106
 4171SOL    HW112750   4.662   2.564   3.501  0.5480 -0.6125  1.3729
 4171SOL    HW212751   4.616   2.481   3.619 -1.8514 -1.5940 -0.1809
 4172SOL     OW12752   5.075   6.025   5.599  0.0006 -0.1689 -0.6079
 4172SOL    HW112753   5.125   5.951   5.563 -0.4703 -1.1333  0.6371
 4172SOL    HW212754   5.118   6.045   5.682 -0.2264  0.5900 -0.6681
 4173SOL     OW12755   2.586   0.247   5.213  0.2692 -0.1093 -0.1295
 4173SOL    HW112756   2.519   0.304   5.253  0.8618 -0.3673  1.3115
 4173SOL    HW212757   2.580   0.166   5.263  1.7150 -0.0989  0.0888
 4174SOL     OW12758   4.771   2.622   3.351 -0.1968  0.4278 -0.4268
 4174SOL    HW112759   4.816   2.705   3.364  1.1798 -0.3970  0.2542
 4174SOL    HW212760   4.766   2.611   3.256  0.6976  0.7065 -0.5079
 4175SOL     OW12761   4.394   2.002   6.109  0.1720  0.6340 -0.3231
 4175SOL    HW112762   4.432   2.067   6.169  1.3337 -0.4865  0.2035
 4175SOL    HW212763   4.434   2.022   6.024 -0.0450  1.0671 -0.3247
 4176SOL     OW12764   3.126   3.903   3.835 -0.0239 -0.0495 -0.0034
 4176SOL    HW112765   3.048   3.955   3.817  0.0491 -0.1781 -0.7470
 4176SOL    HW212766   3.199   3.964   3.824  0.1163 -0.4591 -1.7057
 4177SOL     OW12767   3.394   4.629   5.792 -0.1860 -0.2960  0.8928
 4177SOL    HW112768   3.329   4.700   5.788  0.0830 -0.0901  0.0473
 4177SOL    HW212769   3.417   4.612   5.701 -1.0139 -2.1939  0.9840
 4178SOL     OW12770   5.882   6.138   5.563 -0.3355 -0.3054 -0.3799
 4178SOL    HW112771   5.967   6.146   5.607 -0.4792 -0.6056 -0.0463
 4178SOL    HW212772   5.819   6.171   5.627 -0.4661 -0.0072 -0.6560
 4179SOL     OW12773   0.292   4.430   0.267 -0.3436 -0.3304 -0.0007
 4179SOL    HW112774   0.384   4.414   0.248  0.0238  0.8191  0.7279
 4179SOL    HW212775   0.256   4.343   0.286  0.4297 -0.8677 -0.8932
 4180SOL     OW12776   4.675   5.063   3.802  0.0096  0.4091 -0.5944
 4180SOL    HW112777   4.601   5.042   3.858  0.3009  1.2718  0.1444
 4180SOL    HW212778   4.708   5.146   3.836  1.4614 -0.0759 -0.7507
 4181SOL     OW12779   3.629   3.008   5.677 -0.1799  0.1343  0.2487
 4181SOL    HW112780   3.658   2.943   5.741 -1.0266 -0.5566 -0.0572
 4181SOL    HW212781   3.652   2.972   5.592  0.4807  0.8207  0.1212
 4182SOL     OW12782   0.501   3.433   3.780  0.2375  0.4444 -0.3815
 4182SOL    HW112783   0.579   3.399   3.737  1.1463  1.1965  0.6142
 4182SOL    HW212784   0.461   3.490   3.715 -0.3651 -1.1392 -1.4499
 4183SOL     OW12785   1.907   4.077   5.272  0.4443 -0.6864 -0.5728
 4183SOL    HW112786   1.927   4.155   5.220  0.1147 -1.8304 -2.5320
 4183SOL    HW212787   1.877   4.013   5.207 -0.5175 -2.0315  1.1330
 4184SOL     OW12788   4.156   4.440   2.494  0.4680 -0.4495 -0.7743
 4184SOL    HW112789   4.128   4.433   2.403 -0.2430 -0.2824 -0.5673
 4184SOL    HW212790   4.227   4.504   2.493 -0.3579  0.4758 -1.0300
 4185SOL     OW12791   1.749   0.914   0.602 -0.2006  0.2130  0.3691
 4185SOL    HW112792   1.783   0.964   0.677  0.4092  1.4127 -0.6668
 4185SOL    HW212793   1.825   0.869   0.567 -0.2676  0.4963 -0.1513
 4186SOL     OW12794   5.179   0.815   4.744  0.7915  0.0588 -0.1524
 4186SOL    HW112795   5.140   0.747   4.799  1.4325  1.0359  1.5753
 4186SOL    HW212796   5.224   0.767   4.675  0.1679 -1.2165  0.2904
 4187SOL     OW12797   3.479   4.041   4.496  0.3998  0.1382 -0.3237
 4187SOL    HW112798   3.433   4.109   4.545  1.4778  0.4443  0.3008
 4187SOL    HW212799   3.413   3.973   4.482 -0.8831  1.5605 -1.5281
 4188SOL     OW12800   1.858   2.656   3.338 -0.3005  0.3460  0.1758
 4188SOL    HW112801   1.776   2.658   3.387 -0.1381 -0.2365  0.4822
 4188SOL    HW212802   1.893   2.568   3.354 -0.6969 -0.2122 -1.7408
 4189SOL     OW12803   3.652   4.347   6.144 -0.4020 -0.4838  0.7119
 4189SOL    HW112804   3.647   4.292   6.222  1.8223  0.4604  1.6083
 4189SOL    HW212805   3.699   4.293   6.080  1.6176  0.2114  1.5309
 4190SOL     OW12806   5.261   0.816   6.104 -0.1643 -0.5941 -0.0559
 4190SOL    HW112807   5.313   0.852   6.031 -0.0682  0.3999  0.4805
 4190SOL    HW212808   5.318   0.822   6.180 -0.2934 -1.5544  0.1221
 4191SOL     OW12809   0.752   0.790   4.675  0.4098 -0.4839 -0.1979
 4191SOL    HW112810   0.711   0.726   4.617  0.3637 -0.6669  0.0366
 4191SOL    HW212811   0.731   0.760   4.764 -1.1727  0.8770 -0.0810
 4192SOL     OW12812   5.475   0.233   2.146 -0.1233  0.1707 -0.0628
 4192SOL    HW112813   5.568   0.214   2.134 -0.0325 -0.5392  1.4152
 4192SOL    HW212814   5.453   0.189   2.229 -1.8134  0.1753 -0.4762
 4193SOL     OW12815   2.411   5.123   4.639 -0.2741 -0.3709  0.1743
 4193SOL    HW112816   2.467   5.082   4.705 -1.0278  0.9005  1.6616
 4193SOL    HW212817   2.322   5.104   4.668 -0.6722 -1.2777 -1.4714
 4194SOL     OW12818   2.794   4.097   4.037  0.4214 -0.2012  0.0797
 4194SOL    HW112819   2.793   4.155   3.960  0.1436 -1.1829 -0.6745
 4194SOL    HW212820   2.887   4.091   4.061  0.5756 -0.3207 -0.5279
 4195SOL     OW12821   2.955   3.680   3.919  0.1424  0.4205  0.0421
 4195SOL    HW112822   2.987   3.723   3.840 -1.1873  0.6243 -0.4137
 4195SOL    HW212823   2.871   3.722   3.937 -0.2024 -0.5449  0.7925
 4196SOL     OW12824   5.533   5.384   2.247 -0.1411  0.4065  0.2169
 4196SOL    HW112825   5.563   5.305   2.292 -1.3425  0.0855  0.4991
 4196SOL    HW212826   5.493   5.437   2.316  1.2086  1.5654  0.1398
 4197SOL     OW12827   1.002   3.301   4.568 -0.1600  0.1412  0.3189
 4197SOL    HW112828   0.971   3.358   4.498  1.2961 -1.4347 -1.7125
 4197SOL    HW212829   0.927   3.246   4.590 -0.4694  0.2736 -0.3881
 4198SOL     OW12830   3.966   0.108   5.560  0.9221 -0.0248  0.3877
 4198SOL    HW112831   4.020   0.156   5.498  2.1577  1.3542  2.4216
 4198SOL    HW212832   3.952   0.023   5.519  2.8413  0.3388 -1.1540
 4199SOL     OW12833   6.006   1.910   4.289 -0.2461 -0.0478 -0.0618
 4199SOL    HW112834   5.927   1.938   4.243 -0.5049 -0.1377  0.3171
 4199SOL    HW212835   6.023   1.822   4.257 -0.8860 -0.4237  0.5865
 4200SOL     OW12836   5.092   2.468   0.939  0.2295 -0.2696  0.7125
 4200SOL    HW112837   5.078   2.377   0.913  0.3544 -0.6478  1.9433
 4200SOL    HW212838   5.185   2.473   0.959 -0.0378 -0.2477  2.0191
 4201SOL     OW12839   3.442   5.236   5.168 -0.4767  0.2135  0.1945
 4201SOL    HW112840   3.435   5.172   5.098  3.6315  0.9988 -1.2043
 4201SOL    HW212841   3.431   5.185   5.248 -1.6848 -1.3888 -0.9414
 4202SOL     OW12842   0.475   5.604   0.546 -0.5955 -0.1903  0.0819
 4202SOL    HW112843   0.456   5.695   0.525 -1.0720  0.0842  1.5680
 4202SOL    HW212844   0.448   5.594   0.637  1.6852 -1.1686  0.7355
 4203SOL     OW12845   5.362   4.680   3.590 -0.2587 -0.5086  0.2533
 4203SOL    HW112846   5.407   4.603   3.554  1.5255 -0.2972  1.9145
 4203SOL    HW212847   5.382   4.678   3.683 -1.7821  0.9489  0.6601
 4204SOL     OW12848   0.871   3.543   3.003 -0.3863  0.4292  0.0661
 4204SOL    HW112849   0.909   3.559   3.090  1.8680  0.0100 -0.7854
 4204SOL    HW212850   0.908   3.611   2.947  0.1916 -0.7911 -1.0929
 4205SOL     OW12851   6.123   5.089   2.554 -0.2063  0.0409 -0.3402
 4205SOL    HW112852   6.061   5.043   2.610  0.9273 -2.8604 -1.2686
 4205SOL    HW212853   6.182   5.134   2.615 -0.5852 -0.8088  0.6850
 4206SOL     OW12854   5.669   3.023   5.629 -0.0263  0.0431  0.0730
 4206SOL    HW112855   5.694   2.943   5.582  0.2321  0.1697 -0.0087
 4206SOL    HW212856   5.684   3.093   5.566 -1.8809  0.0193 -0.4605
 4207SOL     OW12857   4.185   1.730   3.352  0.2307  0.0063  0.0242
 4207SOL    HW112858   4.132   1.665   3.306 -0.1164 -0.0812  0.5401
 4207SOL    HW212859   4.143   1.740   3.437 -0.6522  2.0730 -0.5964
 4208SOL     OW12860   2.234   2.178   3.503  0.1565  0.2061 -0.4294
 4208SOL    HW112861   2.245   2.083   3.499 -0.2068  0.1473 -0.1166
 4208SOL    HW212862   2.208   2.203   3.414  1.8508  0.2340 -0.9495
 4209SOL     OW12863   4.649   0.500   0.897  0.0564  0.5130  0.1505
 4209SOL    HW112864   4.671   0.516   0.806 -1.1764 -0.5018 -0.3687
 4209SOL    HW212865   4.723   0.534   0.947 -0.1942  3.0553 -1.0736
 4210SOL     OW12866   4.594   1.755   0.960 -0.1576 -0.3844 -0.0737
 4210SOL    HW112867   4.573   1.848   0.951 -1.5010 -0.6334  0.2346
 4210SOL    HW212868   4.509   1.712   0.972  0.5747 -1.3871  2.1717
 4211SOL     OW12869   4.642   4.449   5.014 -0.6822  0.0712 -0.2817
 4211SOL    HW112870   4.655   4.366   4.967  0.2610  0.6616 -1.1017
 4211SOL    HW212871   4.724   4.497   5.000 -0.7806  0.6825  1.1365
 4212SOL     OW12872   5.099   3.538   4.001 -0.3013 -0.0033 -0.5131
 4212SOL    HW112873   5.161   3.505   3.935 -1.0734  0.8474 -1.7071
 4212SOL    HW212874   5.013   3.512   3.968 -0.7192  0.7064 -0.0053
 4213SOL     OW12875   0.264   1.797   4.170 -0.4076  0.1612  0.2374
 4213SOL    HW112876   0.317   1.836   4.239 -0.5473  0.4321  0.1904
 4213SOL    HW212877   0.328   1.757   4.111 -0.0031  3.0261 -1.4454
 4214SOL     OW12878   4.443   3.520   3.988  0.1591 -0.6093  0.2062
 4214SOL    HW112879   4.500   3.571   4.046 -1.0973  1.3717 -0.2117
 4214SOL    HW212880   4.501   3.453   3.951  1.7499  0.1414  1.2301
 4215SOL     OW12881   1.951   3.919   0.512 -0.1472  0.7205 -0.5264
 4215SOL    HW112882   1.873   3.930   0.458 -1.1653 -1.0508  0.4892
 4215SOL    HW212883   1.967   3.824   0.512  1.2248  0.9216  0.3465
 4216SOL     OW12884   0.381   0.845   5.864  0.2854  0.1278  0.2223
 4216SOL    HW112885   0.405   0.880   5.950  1.1393  0.2818 -0.0704
 4216SOL    HW212886   0.383   0.920   5.806 -1.8183  0.3426  0.3198
 4217SOL     OW12887   1.546   0.967   4.277  0.3230  0.0793  0.1625
 4217SOL    HW112888   1.464   0.935   4.238  0.3756 -1.4273  1.2120
 4217SOL    HW212889   1.615   0.921   4.228  0.5088  0.4548  0.0651
 4218SOL     OW12890   0.401   0.420   5.501  0.8411  0.3593  0.1003
 4218SOL    HW112891   0.389   0.328   5.524 -2.7455  0.5252 -0.6162
 4218SOL    HW212892   0.378   0.425   5.409 -2.7226  2.4431  0.9330
 4219SOL     OW12893   5.148   4.090   4.994 -0.6674  0.0184 -0.5694
 4219SOL    HW112894   5.134   4.183   5.013 -0.8562 -0.0355 -0.4425
 4219SOL    HW212895   5.065   4.060   4.958 -1.3148 -0.6130  1.3741
 4220SOL     OW12896   4.401   4.928   4.796 -0.1341  0.2202 -0.2034
 4220SOL    HW112897   4.395   4.899   4.705 -0.3771 -1.2104  0.2432
 4220SOL    HW212898   4.317   4.971   4.813  0.6161  2.1683 -1.1705
 4221SOL     OW12899   2.949   3.689   3.475  0.8432  0.2223  0.2118
 4221SOL    HW112900   2.983   3.718   3.390 -1.6813  2.1572 -0.2699
 4221SOL    HW212901   2.883   3.755   3.498 -2.6655 -3.1715  0.9161
 4222SOL     OW12902   2.085   2.208   6.058 -0.5342 -0.4740 -0.2352
 4222SOL    HW112903   2.110   2.142   5.994 -0.6433  0.9843 -1.8543
 4222SOL    HW212904   2.040   2.275   6.007 -0.6971  0.7087  1.3845
 4223SOL     OW12905   0.601   0.809   3.020  0.0300 -0.3724 -0.5007
 4223SOL    HW112906   0.620   0.721   3.050 -0.6324 -0.4494 -0.2890
 4223SOL    HW212907   0.514   0.828   3.055 -1.0422 -0.6848 -2.8505
 4224SOL     OW12908   1.770   3.606   5.234 -0.3284  0.2008 -0.1811
 4224SOL    HW112909   1.753   3.567   5.149 -0.4451  2.5259 -1.3117
 4224SOL    HW212910   1.761   3.534   5.296 -0.9333 -1.4180 -2.0513
 4225SOL     OW12911   1.239   5.411   1.032  0.1630 -0.3467  0.3004
 4225SOL    HW112912   1.175   5.457   0.978 -0.6498 -1.0760  0.6320
 4225SOL    HW212913   1.293   5.481   1.069 -1.2009  0.3801  1.0025
 4226SOL     OW12914   1.253   2.133   5.269  0.0689 -0.5576  0.2371
 4226SOL    HW112915   1.233   2.222   5.299 -1.3564 -0.3305 -1.2212
 4226SOL    HW212916   1.216   2.076   5.336 -1.5586 -0.0503 -0.1741
 4227SOL     OW12917   6.065   4.045   1.565 -0.2570 -0.0089 -0.0536
 4227SOL    HW112918   6.154   4.019   1.541  1.0132  3.9294 -0.2527
 4227SOL    HW212919   6.072   4.071   1.657 -1.3969 -0.1837  0.0982
 4228SOL     OW12920   0.020   1.040   4.578  0.4586 -0.1375  0.2854
 4228SOL    HW112921   0.078   0.966   4.562  0.5101  0.0983 -0.6681
 4228SOL    HW212922   0.071   1.098   4.636  0.9503 -0.2105 -0.0625
 4229SOL     OW12923   1.762   3.699   6.074 -0.0553 -0.3087 -0.2694
 4229SOL    HW112924   1.817   3.625   6.098  0.6243 -0.5981 -2.4932
 4229SOL    HW212925   1.793   3.726   5.988 -0.3668  2.5207  0.3825
 4230SOL     OW12926   5.425   5.803   4.355  0.5530 -0.3511  0.1048
 4230SOL    HW112927   5.455   5.876   4.301 -0.5133 -0.1412 -0.2413
 4230SOL    HW212928   5.436   5.726   4.299  1.9466 -0.5105  0.5746
 4231SOL     OW12929   2.248   5.259   4.045  1.0236 -0.5047  0.3313
 4231SOL    HW112930   2.175   5.224   3.993  1.6126 -1.3650  0.0707
 4231SOL    HW212931   2.205   5.312   4.113  0.2646  2.6575 -2.3621
 4232SOL     OW12932   4.654   1.374   0.263  0.2983 -0.1378 -0.5109
 4232SOL    HW112933   4.645   1.468   0.244  0.7441  0.2943  1.2160
 4232SOL    HW212934   4.645   1.332   0.178  1.2006  1.5496 -1.5104
 4233SOL     OW12935   2.560   2.095   1.158 -0.2621  0.2613  0.5826
 4233SOL    HW112936   2.608   2.029   1.207  0.4038  0.6119  0.4128
 4233SOL    HW212937   2.477   2.103   1.204  0.0615  0.0574  1.2155
 4234SOL     OW12938   3.692   4.632   4.704  0.0281  0.5276  0.7040
 4234SOL    HW112939   3.596   4.630   4.715 -0.0477  3.2155  1.4526
 4234SOL    HW212940   3.707   4.593   4.618 -1.6763 -0.4548  0.7906
 4235SOL     OW12941   0.680   1.677   3.372  0.6616 -0.4653 -0.7677
 4235SOL    HW112942   0.702   1.585   3.357  3.4449 -0.4568  2.3206
 4235SOL    HW212943   0.755   1.726   3.339  0.5151  0.4626  0.2206
 4236SOL     OW12944   2.624   3.770   2.047  0.5076  0.0530  0.1375
 4236SOL    HW112945   2.571   3.732   2.118  0.0348 -1.0530 -0.7664
 4236SOL    HW212946   2.572   3.754   1.968  2.4279 -1.6558 -0.8815
 4237SOL     OW12947   0.729   3.614   5.856  0.4513  0.0351  0.7520
 4237SOL    HW112948   0.660   3.584   5.797  1.2651 -1.5938  0.5490
 4237SOL    HW212949   0.732   3.547   5.925  1.4014  0.4054  1.0983
 4238SOL     OW12950   4.881   4.698   1.566 -0.2206  0.2636 -0.4290
 4238SOL    HW112951   4.816   4.664   1.627 -0.0868 -1.3505 -1.1333
 4238SOL    HW212952   4.955   4.723   1.621  0.5655 -2.7091  0.0448
 4239SOL     OW12953   3.711   5.605   0.206  0.4878  0.2925 -0.3045
 4239SOL    HW112954   3.764   5.527   0.222  0.8223  0.5783 -0.0064
 4239SOL    HW212955   3.737   5.667   0.274  1.9757  1.5378 -1.9206
 4240SOL     OW12956   3.431   4.047   2.532  0.3609  0.5240  0.4155
 4240SOL    HW112957   3.433   3.962   2.489 -3.1501  1.0163 -1.0546
 4240SOL    HW212958   3.392   4.030   2.618  1.0611  0.4654  0.7263
 4241SOL     OW12959   5.095   5.107   2.133  0.2244  0.0894 -0.2016
 4241SOL    HW112960   5.080   5.149   2.218  0.3014 -2.1958  1.0056
 4241SOL    HW212961   5.092   5.013   2.152  0.8148 -0.4725 -2.6412
 4242SOL     OW12962   3.737   5.580   4.018  0.2753  0.9883 -0.1419
 4242SOL    HW112963   3.764   5.553   4.106 -1.5818 -2.7037 -0.5236
 4242SOL    HW212964   3.807   5.548   3.961  0.0729  0.7420 -0.2526
 4243SOL     OW12965   1.964   3.856   2.190 -0.2188 -0.4980  0.6802
 4243SOL    HW112966   1.962   3.837   2.284 -1.2994  0.8103  0.9603
 4243SOL    HW212967   2.049   3.898   2.177  0.2851 -1.4214  0.8986
 4244SOL     OW12968   5.486   6.148   5.674  0.1408  0.2539 -0.4286
 4244SOL    HW112969   5.571   6.172   5.713  0.2986  0.8868 -1.1400
 4244SOL    HW212970   5.506   6.071   5.621 -0.2995 -1.3477  1.5859
 4245SOL     OW12971   3.584   4.052   5.200  0.0590  0.3974 -0.2624
 4245SOL    HW112972   3.600   4.040   5.293 -1.1895  1.0849  0.0744
 4245SOL    HW212973   3.505   4.000   5.182 -0.0492  0.7334 -0.8009
 4246SOL     OW12974   1.262   2.046   0.744 -0.2832  0.5587 -0.1933
 4246SOL    HW112975   1.321   2.117   0.769  1.0968 -0.2912 -0.8789
 4246SOL    HW212976   1.225   2.074   0.660  0.3769  0.4262 -0.5374
 4247SOL     OW12977   1.820   3.482   0.250 -0.0349 -0.2010  0.2849
 4247SOL    HW112978   1.911   3.456   0.233  0.2339  0.1684  1.1232
 4247SOL    HW212979   1.770   3.402   0.237  0.4864 -0.5534  0.3970
 4248SOL     OW12980   3.688   1.868   2.484 -0.3948 -0.1188 -0.0576
 4248SOL    HW112981   3.650   1.782   2.500 -1.4512  0.0238 -1.5787
 4248SOL    HW212982   3.613   1.926   2.475  0.2651  0.6961 -0.3968
 4249SOL     OW12983   4.244   0.187   3.698 -0.1029 -0.3620 -0.0658
 4249SOL    HW112984   4.225   0.265   3.645  0.3401  1.2062  1.9263
 4249SOL    HW212985   4.320   0.147   3.656  1.7751  2.2028  0.6413
 4250SOL     OW12986   5.181   3.805   4.034 -0.0364  0.0077  0.5480
 4250SOL    HW112987   5.146   3.719   4.009 -0.4111  0.2624  0.1780
 4250SOL    HW212988   5.261   3.785   4.082 -0.1957 -0.5554  0.5893
 4251SOL     OW12989   1.128   3.965   1.492  0.1755  0.3449  0.7336
 4251SOL    HW112990   1.132   3.910   1.571  0.5493  1.0348  1.2000
 4251SOL    HW212991   1.214   4.006   1.487 -0.0634  0.7968  0.3137
 4252SOL     OW12992   6.014   3.161   5.547 -0.0386 -0.0021 -0.0907
 4252SOL    HW112993   5.994   3.186   5.637 -1.8475  0.3722 -0.5563
 4252SOL    HW212994   6.109   3.154   5.544  0.0772  0.4963  1.7098
 4253SOL     OW12995   5.434   5.011   4.917  0.2719 -0.3780  0.7204
 4253SOL    HW112996   5.345   5.011   4.883  0.1455 -2.0807  0.9968
 4253SOL    HW212997   5.480   4.944   4.867  0.7586 -1.1597  2.1534
 4254SOL     OW12998   5.110   4.790   3.398  0.2857 -0.1552  0.0431
 4254SOL    HW112999   5.193   4.826   3.430 -0.3630  0.5977  0.9263
 4254SOL    HW213000   5.052   4.866   3.391 -0.3789 -0.6960 -0.4111
 4255SOL     OW13001   6.012   0.324   4.717  0.1026  0.7171 -0.1778
 4255SOL    HW113002   6.024   0.260   4.787 -1.1154  0.3630 -0.2631
 4255SOL    HW213003   6.074   0.298   4.649  0.6308  0.5055  0.3753
 4256SOL     OW13004   3.305   5.515   6.146 -0.0098  0.3039 -0.3451
 4256SOL    HW113005   3.252   5.479   6.076  1.6955  0.4432 -1.7868
 4256SOL    HW213006   3.369   5.447   6.167  1.1170  1.1937 -0.7513
 4257SOL     OW13007   5.868   4.382   3.789 -0.2412  0.1322 -0.1819
 4257SOL    HW113008   5.816   4.443   3.737 -1.2738 -0.3694  0.2314
 4257SOL    HW213009   5.819   4.300   3.785 -1.1432  0.4145  2.7163
 4258SOL     OW13010   3.826   0.483   1.350  0.4265 -0.1664 -0.7390
 4258SOL    HW113011   3.807   0.558   1.407 -1.5587 -1.2834  0.1862
 4258SOL    HW213012   3.826   0.520   1.262 -0.0493  1.0188 -0.2717
 4259SOL     OW13013   4.384   0.580   0.029 -0.6010  0.0585  0.2760
 4259SOL    HW113014   4.454   0.565  -0.033  0.2838 -0.1046  1.2879
 4259SOL    HW213015   4.338   0.657  -0.004  0.0216  0.1383 -0.4145
 4260SOL     OW13016   4.851   4.545   1.242  0.0681 -0.4209 -0.5517
 4260SOL    HW113017   4.881   4.564   1.330 -1.2818  2.2526 -0.5761
 4260SOL    HW213018   4.918   4.583   1.185  0.5762 -1.5173 -0.7246
 4261SOL     OW13019   2.708   4.979   1.870  0.5095 -0.2712 -0.0800
 4261SOL    HW113020   2.711   5.075   1.876  0.6196 -0.2078 -1.0607
 4261SOL    HW213021   2.623   4.961   1.830  0.9012 -0.5305 -0.8102
 4262SOL     OW13022   0.688   2.753   2.639 -0.2379  0.1344 -0.6532
 4262SOL    HW113023   0.707   2.776   2.548  0.8212 -2.1955 -1.0933
 4262SOL    HW213024   0.681   2.658   2.639  0.4101  0.0097  1.8166
 4263SOL     OW13025   3.432   3.552   3.281  0.2104 -0.1821 -0.3889
 4263SOL    HW113026   3.489   3.540   3.357 -0.1758  0.6548  0.0489
 4263SOL    HW213027   3.366   3.614   3.310 -0.7475 -0.8950 -0.9948
 4264SOL     OW13028   5.285   6.131   3.509 -0.0581 -0.3566  0.2411
 4264SOL    HW113029   5.264   6.046   3.471 -1.7691  0.0952  0.1121
 4264SOL    HW213030   5.267   6.194   3.438 -0.6515  0.2660  0.9356
 4265SOL     OW13031   2.323   4.947   0.956  0.2248 -0.0666  0.1889
 4265SOL    HW113032   2.258   4.890   0.915 -1.0251  1.1755  0.3736
 4265SOL    HW213033   2.401   4.938   0.901 -0.5068 -0.6015 -0.8001
 4266SOL     OW13034   2.129   5.138   1.308 -0.3275 -0.0280 -0.1329
 4266SOL    HW113035   2.052   5.171   1.262 -0.0817 -0.7362 -1.0734
 4266SOL    HW213036   2.124   5.179   1.394 -1.3469  0.5262 -0.4350
 4267SOL     OW13037   2.371   2.500   1.740 -0.0434 -0.0012  0.4097
 4267SOL    HW113038   2.313   2.463   1.807  0.1623 -1.1257 -0.0207
 4267SOL    HW213039   2.423   2.426   1.709 -0.2902  0.4480 -1.1697
 4268SOL     OW13040   5.925   3.177   1.896 -0.4678 -0.2039 -0.0741
 4268SOL    HW113041   5.979   3.111   1.940  0.5762  1.7854  1.8769
 4268SOL    HW213042   5.846   3.183   1.950 -0.6656 -0.0428 -0.3799
 4269SOL     OW13043   0.746   3.028   2.991  0.1882 -0.3060  0.1706
 4269SOL    HW113044   0.725   2.935   2.989 -0.0631 -0.2527  0.3149
 4269SOL    HW213045   0.838   3.031   3.019 -0.1416 -0.4677  1.3134
 4270SOL     OW13046   0.368   4.068   5.225  0.0966 -0.1201 -0.1160
 4270SOL    HW113047   0.370   4.089   5.132  1.6610  0.1506 -0.0579
 4270SOL    HW213048   0.458   4.039   5.245  0.4616  1.9818  1.7495
 4271SOL     OW13049   5.790   1.821   3.952  0.1726 -0.4310 -0.3683
 4271SOL    HW113050   5.828   1.883   3.890  0.0398  1.2164  1.0968
 4271SOL    HW213051   5.792   1.868   4.036  0.4011 -2.5686  0.8863
 4272SOL     OW13052   2.502   1.878   5.947  0.2441  0.3396 -0.0826
 4272SOL    HW113053   2.530   1.966   5.971 -2.0891  1.1287 -0.0220
 4272SOL    HW213054   2.445   1.890   5.871 -0.1049 -1.1136 -0.0896
 4273SOL     OW13055   5.137   5.489   5.337 -0.3445  0.0078  0.2401
 4273SOL    HW113056   5.131   5.426   5.409  0.6591  0.6761  0.9209
 4273SOL    HW213057   5.218   5.467   5.291  0.8127  1.6823  1.3709
 4274SOL     OW13058   4.161   3.701   2.683 -0.2724  0.2145  0.3473
 4274SOL    HW113059   4.079   3.658   2.662 -0.4954 -0.2228  2.0322
 4274SOL    HW213060   4.167   3.773   2.620 -1.3315 -0.4744 -0.5758
 4275SOL     OW13061   0.590   0.173   1.436 -0.2278 -0.2716 -0.5027
 4275SOL    HW113062   0.555   0.184   1.525 -0.4871 -3.3170 -0.1371
 4275SOL    HW213063   0.652   0.101   1.443  0.7167  0.2490 -2.6075
 4276SOL     OW13064   0.388   2.417   5.395 -0.0920 -0.3804 -0.0017
 4276SOL    HW113065   0.449   2.444   5.327 -0.5210 -0.0035 -0.2397
 4276SOL    HW213066   0.380   2.493   5.452 -1.3398  0.0485 -0.7027
 4277SOL     OW13067   6.078   2.405   3.628 -0.2306 -0.3262  0.1721
 4277SOL    HW113068   6.151   2.421   3.568 -0.4053  1.3032  0.3454
 4277SOL    HW213069   6.004   2.384   3.570 -0.1838  0.3681 -0.1566
 4278SOL     OW13070   3.475   2.150   3.424  0.1464  0.0470 -0.3799
 4278SOL    HW113071   3.421   2.229   3.414  0.7572  0.8944  2.2525
 4278SOL    HW213072   3.424   2.093   3.481  0.2458 -0.9853 -1.2924
 4279SOL     OW13073   4.056   6.083   4.658  0.2588  0.2962 -1.0145
 4279SOL    HW113074   4.123   6.076   4.726  0.2618 -1.6499 -1.1718
 4279SOL    HW213075   3.995   6.150   4.690  0.1715 -0.6963  1.0069
 4280SOL     OW13076   5.498   5.800   0.831 -0.2869 -0.4887 -0.0447
 4280SOL    HW113077   5.451   5.785   0.913 -0.3781 -0.2955 -0.0618
 4280SOL    HW213078   5.577   5.747   0.838  0.0679  0.1089  0.4795
 4281SOL     OW13079   6.121   0.563   4.478  0.1180 -0.4853 -0.1005
 4281SOL    HW113080   6.084   0.607   4.555  0.6929  0.7675 -0.5124
 4281SOL    HW213081   6.047   0.553   4.418  0.0226  0.0981 -0.0793
 4282SOL     OW13082   5.226   2.076   3.596  0.8164  0.5624 -0.2658
 4282SOL    HW113083   5.225   2.039   3.684  2.6134  2.0501  0.4600
 4282SOL    HW213084   5.257   2.005   3.541  1.0487  0.0188  0.5398
 4283SOL     OW13085   4.963   2.564   3.811  0.4057  0.1189  0.5238
 4283SOL    HW113086   4.954   2.488   3.752  0.5347 -0.5610  1.3622
 4283SOL    HW213087   5.016   2.531   3.883  0.5280  1.0451  0.8636
 4284SOL     OW13088   3.613   1.764   5.997  0.3810 -0.0935 -0.5817
 4284SOL    HW113089   3.532   1.779   6.044  1.3120  1.3054  0.6874
 4284SOL    HW213090   3.659   1.697   6.048  1.0582  0.8727  0.1125
 4285SOL     OW13091   0.230   5.082   2.959  1.0857 -0.1606  0.1920
 4285SOL    HW113092   0.215   5.102   3.051 -0.1639 -0.8349  0.1531
 4285SOL    HW213093   0.321   5.052   2.956  0.5613 -2.0848  1.5690
 4286SOL     OW13094   6.122   3.298   3.349  0.1225  0.0109  0.3663
 4286SOL    HW113095   6.096   3.303   3.257  0.6953  1.6235  0.2536
 4286SOL    HW213096   6.152   3.208   3.361 -0.5277 -0.3844 -0.8685
 4287SOL     OW13097   0.593   0.314   1.924 -0.6744 -0.1792  0.0276
 4287SOL    HW113098   0.653   0.292   1.995 -0.2837 -2.0048 -0.8127
 4287SOL    HW213099   0.543   0.389   1.957  1.0723  0.4958  1.2961
 4288SOL     OW13100   1.680   0.598   3.105  0.1140  0.7190 -0.6004
 4288SOL    HW113101   1.623   0.525   3.127  0.4506  0.2093 -1.3786
 4288SOL    HW213102   1.732   0.567   3.031  1.0184  1.3639 -0.2574
 4289SOL     OW13103   2.993   2.028   5.727  0.1436  0.1517 -0.7423
 4289SOL    HW113104   3.060   2.064   5.785  0.9615  0.6225 -1.9558
 4289SOL    HW213105   3.029   1.945   5.696  0.8643  1.0931 -2.5560
 4290SOL     OW13106   4.004   3.573   4.310  0.6213 -0.4445  0.4967
 4290SOL    HW113107   4.010   3.477   4.302 -0.5862 -0.4972  0.0619
 4290SOL    HW213108   4.086   3.605   4.272  0.5126 -1.2657 -0.4801
 4291SOL     OW13109   0.489   1.565   4.147 -0.0242 -0.5905 -0.0753
 4291SOL    HW113110   0.428   1.531   4.081 -1.7791 -0.0994  1.2107
 4291SOL    HW213111   0.574   1.533   4.120 -1.1903 -3.6646 -0.4811
 4292SOL     OW13112   0.883   3.842   4.409 -0.0030  0.5441 -0.5120
 4292SOL    HW113113   0.919   3.903   4.345  0.0912 -1.1860 -2.2007
 4292SOL    HW213114   0.806   3.805   4.367  0.0694 -0.6695  0.3574
 4293SOL     OW13115   5.729   4.327   2.818 -0.0075  0.0389 -0.4875
 4293SOL    HW113116   5.641   4.298   2.795 -0.4194  0.2541  0.7737
 4293SOL    HW213117   5.769   4.250   2.858  0.0712  0.2053 -0.2470
 4294SOL     OW13118   5.173   0.645   0.875  0.7535 -0.5637  0.3092
 4294SOL    HW113119   5.185   0.682   0.962 -0.1053 -2.8572  1.4978
 4294SOL    HW213120   5.223   0.563   0.877 -1.0266 -1.7514 -0.5189
 4295SOL     OW13121   4.422   0.002   1.147 -0.6762  0.2737 -0.2541
 4295SOL    HW113122   4.425  -0.042   1.232  1.5619  0.7572 -0.0199
 4295SOL    HW213123   4.382  -0.061   1.088  1.4063 -1.7157  0.3066
 4296SOL     OW13124   5.675   1.599   3.165  0.2997 -0.1331 -0.0195
 4296SOL    HW113125   5.709   1.513   3.190 -0.3670 -0.9917 -1.8573
 4296SOL    HW213126   5.729   1.625   3.090 -0.9381  0.0022 -0.8933
 4297SOL     OW13127   4.527   1.714   2.844 -0.3398 -0.3792 -0.0421
 4297SOL    HW113128   4.547   1.634   2.893 -0.0677  0.5386  1.4213
 4297SOL    HW213129   4.602   1.727   2.787 -0.6251 -1.4336 -0.6853
 4298SOL     OW13130   3.886   5.365   0.306 -0.2345  0.0909 -0.0510
 4298SOL    HW113131   3.853   5.316   0.231  0.0643 -1.4593  0.7857
 4298SOL    HW213132   3.970   5.323   0.327 -0.1161  0.7627  0.8936
 4299SOL     OW13133   0.099   2.881   2.280  0.0255 -0.3000 -0.0625
 4299SOL    HW113134   0.182   2.897   2.325  0.0342 -0.3492 -0.0607
 4299SOL    HW213135   0.095   2.785   2.272  1.7008 -0.2603 -3.2179
 4300SOL     OW13136   1.145   2.768   5.825 -0.6036 -0.2104 -0.4332
 4300SOL    HW113137   1.064   2.742   5.868 -0.6801  1.4204  0.4748
 4300SOL    HW213138   1.156   2.705   5.753 -2.3627 -0.7868 -0.2287
 4301SOL     OW13139   2.150   4.990   3.704 -0.1914 -0.0939  0.0883
 4301SOL    HW113140   2.062   4.965   3.675 -0.2247 -1.0135  0.9423
 4301SOL    HW213141   2.204   4.982   3.626 -0.9821  1.1830 -0.6298
 4302SOL     OW13142   2.763   4.437   5.695  0.2006  0.4878 -0.4209
 4302SOL    HW113143   2.761   4.484   5.779 -0.1676  0.4609 -0.4138
 4302SOL    HW213144   2.707   4.360   5.710 -0.2001  0.6966 -0.8161
 4303SOL     OW13145   0.623   5.961   4.578  0.1641  0.0265  0.3126
 4303SOL    HW113146   0.635   6.028   4.645 -0.1684 -0.3663  0.7672
 4303SOL    HW213147   0.529   5.955   4.566  0.2334  0.3480 -0.4553
 4304SOL     OW13148   3.218   5.720   0.526 -0.4010 -0.8497  0.0099
 4304SOL    HW113149   3.233   5.797   0.581  2.0666  0.4339 -2.1908
 4304SOL    HW213150   3.132   5.735   0.487 -0.2395  0.5099  0.1266
 4305SOL     OW13151   2.881   4.064   4.351 -0.1733 -0.2667 -0.2839
 4305SOL    HW113152   2.833   3.994   4.395  0.4876 -0.9892 -0.6919
 4305SOL    HW213153   2.970   4.058   4.387  0.0625 -0.0791 -0.8244
 4306SOL     OW13154   5.810   1.120   0.752 -0.2047 -0.2588  0.0900
 4306SOL    HW113155   5.805   1.203   0.800  0.1123 -2.4148  4.3416
 4306SOL    HW213156   5.723   1.110   0.713 -0.7889  1.3243  0.8723
 4307SOL     OW13157   2.874   0.218   5.234  0.4803 -0.1217  0.3521
 4307SOL    HW113158   2.920   0.300   5.248  1.4681 -0.3942 -1.0747
 4307SOL    HW213159   2.782   0.242   5.228  0.6539  0.7350  0.9621
 4308SOL     OW13160   5.943   3.090   4.841  0.3376  0.1205  0.5710
 4308SOL    HW113161   5.890   3.028   4.890  0.5265  1.1999  2.2297
 4308SOL    HW213162   5.905   3.176   4.862  0.3515  0.6366 -1.3024
 4309SOL     OW13163   4.806   2.842   4.919 -0.2243  0.3653 -0.2232
 4309SOL    HW113164   4.847   2.916   4.875 -0.0039 -0.6474 -1.7810
 4309SOL    HW213165   4.715   2.870   4.933  0.1682  1.4052  0.3997
 4310SOL     OW13166   2.485   4.571   4.523 -0.3749  0.0215  0.2625
 4310SOL    HW113167   2.441   4.653   4.499  1.4889  0.6593 -1.2941
 4310SOL    HW213168   2.416   4.517   4.561 -2.2863  1.3089 -1.1523
 4311SOL     OW13169   2.098   0.985   0.037  0.0142 -0.1366  0.3329
 4311SOL    HW113170   2.122   0.896   0.012  0.9732 -0.1035  1.0991
 4311SOL    HW213171   2.073   0.978   0.129 -1.6908  0.0702 -0.0814
 4312SOL     OW13172   0.151   0.678   4.703  0.0799  0.4422  0.1350
 4312SOL    HW113173   0.171   0.663   4.610  0.1250 -0.0282  0.2163
 4312SOL    HW213174   0.057   0.661   4.711  0.2423 -0.4467  0.3436
 4313SOL     OW13175   5.125   0.042   2.238 -0.4960 -0.1053 -0.3171
 4313SOL    HW113176   5.125   0.061   2.144  0.1118 -0.9319 -0.4990
 4313SOL    HW213177   5.136   0.127   2.280  0.8898  0.0989 -1.0537
 4314SOL     OW13178   5.050   0.775   2.453  0.4044  1.1919 -0.2664
 4314SOL    HW113179   5.099   0.856   2.440  0.4322  0.8900 -2.6002
 4314SOL    HW213180   4.978   0.799   2.511 -0.3816  3.2868 -1.9839
 4315SOL     OW13181   0.835   2.718   3.697  0.3340  0.4011  0.6517
 4315SOL    HW113182   0.922   2.748   3.671 -0.5385  0.6446 -2.3541
 4315SOL    HW213183   0.803   2.667   3.622 -2.1003  0.2852  1.6567
 4316SOL     OW13184   1.764   4.481   0.708  0.4194  0.3501  0.0113
 4316SOL    HW113185   1.771   4.559   0.653 -0.2775 -0.0111 -0.6074
 4316SOL    HW213186   1.830   4.494   0.776 -1.0099  2.4199  1.1176
 4317SOL     OW13187   1.421   0.232   2.633  0.0167  0.3068 -0.0920
 4317SOL    HW113188   1.425   0.187   2.718 -0.3824  1.6602  0.6635
 4317SOL    HW213189   1.336   0.208   2.597  0.5059 -0.9031 -0.4915
 4318SOL     OW13190   0.700   1.925   1.024  0.4018  0.8240 -0.1224
 4318SOL    HW113191   0.677   1.912   0.932  0.5683  0.4754 -0.1152
 4318SOL    HW213192   0.617   1.941   1.068  0.2589  0.4141 -0.2394
 4319SOL     OW13193   4.443   3.943   3.318  0.5380 -0.1981 -0.0061
 4319SOL    HW113194   4.506   4.005   3.355 -0.1498  0.3731  0.2615
 4319SOL    HW213195   4.446   3.958   3.224  1.1746 -0.5468 -0.0448
 4320SOL     OW13196   0.749   5.572   0.922 -0.3977 -0.3310 -0.4882
 4320SOL    HW113197   0.728   5.514   0.848 -0.7698 -1.8633  0.7707
 4320SOL    HW213198   0.667   5.577   0.972 -0.6368  1.9910 -0.9591
 4321SOL     OW13199   0.541   3.249   4.268  0.2657 -0.1982 -0.8021
 4321SOL    HW113200   0.537   3.197   4.348  0.5927 -0.8515 -1.2017
 4321SOL    HW213201   0.633   3.247   4.242  0.4469  1.3085 -0.3702
 4322SOL     OW13202   0.137   5.064   3.469  0.2019 -0.4360 -0.1841
 4322SOL    HW113203   0.148   5.036   3.560 -1.7494  0.8347  0.5051
 4322SOL    HW213204   0.200   5.135   3.458  0.5972 -0.7409  0.1078
 4323SOL     OW13205   3.092   5.310   2.961 -0.1722 -0.0624  0.0191
 4323SOL    HW113206   3.091   5.338   3.052 -1.9372 -2.8626  0.9971
 4323SOL    HW213207   3.000   5.313   2.934  0.2464  0.1068 -1.4744
 4324SOL     OW13208   4.784   1.645   1.495 -0.0225 -0.2851 -0.6097
 4324SOL    HW113209   4.847   1.704   1.454  0.5812 -0.6848 -0.2779
 4324SOL    HW213210   4.702   1.659   1.448  0.0417  1.0108 -0.3692
 4325SOL     OW13211   2.523   3.690   5.280 -0.0875 -0.5363 -0.2008
 4325SOL    HW113212   2.603   3.730   5.315  0.7816 -2.8111  0.5626
 4325SOL    HW213213   2.542   3.673   5.188  0.5500 -1.5863  0.1134
 4326SOL     OW13214   4.139   2.371   1.064  0.5991 -0.5033  0.1190
 4326SOL    HW113215   4.090   2.297   1.101 -1.0067  0.2483 -0.4229
 4326SOL    HW213216   4.125   2.443   1.125  0.3064 -0.0403 -0.4817
 4327SOL     OW13217   2.306   3.827   2.357  0.0451  0.6699  0.2679
 4327SOL    HW113218   2.256   3.758   2.399  0.1082 -0.3873 -1.2918
 4327SOL    HW213219   2.383   3.782   2.321  0.5579  1.7238  0.0013
 4328SOL     OW13220   1.965   6.020   4.965 -0.7000 -0.0640 -0.0686
 4328SOL    HW113221   1.941   5.994   4.876 -0.3159  0.6171 -0.3758
 4328SOL    HW213222   1.943   6.113   4.969  0.4343  0.1988  0.1525
 4329SOL     OW13223   2.810   2.693   1.127 -0.2603 -0.0180  0.0178
 4329SOL    HW113224   2.780   2.604   1.146 -0.0742 -0.1792 -0.4331
 4329SOL    HW213225   2.767   2.716   1.045 -0.6722  0.4884  0.3683
 4330SOL     OW13226   5.537   1.470   0.665  0.0169 -0.3538  0.3723
 4330SOL    HW113227   5.521   1.421   0.746  0.1219 -1.2296 -0.1151
 4330SOL    HW213228   5.477   1.544   0.669 -0.9597 -1.1362  0.6285
 4331SOL     OW13229   0.941   4.538   3.346  0.7287  0.1894  0.1279
 4331SOL    HW113230   1.033   4.525   3.324  1.3323 -0.1801  2.5217
 4331SOL    HW213231   0.898   4.457   3.321  1.4295 -0.3546  0.6357
 4332SOL     OW13232   1.192   2.779   1.967 -0.1968  0.2048  0.3728
 4332SOL    HW113233   1.277   2.825   1.969 -0.3531  0.4717  1.7372
 4332SOL    HW213234   1.127   2.849   1.964 -0.4119  0.0845  1.6013
 4333SOL     OW13235   3.795   5.278   2.783  0.0372 -0.0532 -0.3242
 4333SOL    HW113236   3.796   5.368   2.752  0.3356  1.1992  2.9713
 4333SOL    HW213237   3.713   5.269   2.831 -0.0177 -1.5906 -0.6474
 4334SOL     OW13238   1.246   5.610   5.811  0.4161  0.0256  0.0498
 4334SOL    HW113239   1.180   5.560   5.762  0.6298 -1.7209  1.4572
 4334SOL    HW213240   1.194   5.663   5.872  0.2688 -0.4728  0.3623
 4335SOL     OW13241   0.055   1.705   3.967  0.0429  0.7406 -0.5335
 4335SOL    HW113242   0.022   1.784   4.009 -1.3962 -0.3329  0.4666
 4335SOL    HW213243   0.138   1.731   3.928 -0.5415  2.8006 -0.4952
 4336SOL     OW13244   2.606   4.325   1.402  0.2904 -0.4331  0.2652
 4336SOL    HW113245   2.589   4.419   1.404 -1.2195 -0.6490 -0.8074
 4336SOL    HW213246   2.638   4.308   1.313  3.2444 -0.5707  1.2401
 4337SOL     OW13247   0.730   3.418   0.395  0.8101  0.3149 -0.8719
 4337SOL    HW113248   0.812   3.457   0.365  0.0282  0.8179 -2.5166
 4337SOL    HW213249   0.706   3.468   0.473  0.2197  2.7534 -2.4787
 4338SOL     OW13250   0.290   1.708   4.519 -0.0796 -0.1849 -0.3091
 4338SOL    HW113251   0.314   1.624   4.557  0.5159 -0.2242 -0.7465
 4338SOL    HW213252   0.356   1.769   4.552 -0.3055  0.0378 -0.2674
 4339SOL     OW13253   5.927   3.277   5.769  0.3210  0.0185 -0.2185
 4339SOL    HW113254   5.853   3.316   5.816 -0.1888 -0.7257 -0.3820
 4339SOL    HW213255   6.002   3.290   5.827 -0.3659 -1.2398  1.0194
 4340SOL     OW13256   0.568   0.163   1.705 -0.2516  0.3118 -0.0426
 4340SOL    HW113257   0.661   0.147   1.723 -0.0781  1.6895  0.4221
 4340SOL    HW213258   0.545   0.236   1.762 -1.2994  0.7970 -1.0400
 4341SOL     OW13259   0.596   3.484   5.645  0.2178  0.4958  0.4640
 4341SOL    HW113260   0.671   3.425   5.656 -0.2656 -1.0043 -2.8407
 4341SOL    HW213261   0.521   3.434   5.678  0.0052 -0.2953 -1.0975
 4342SOL     OW13262   3.748   3.227   5.732  0.1571 -0.4723 -0.3908
 4342SOL    HW113263   3.830   3.181   5.715 -0.2550 -1.2537 -0.3100
 4342SOL    HW213264   3.680   3.160   5.723 -0.5869  0.3980 -1.6082
 4343SOL     OW13265   4.337   3.691   2.258  0.2586 -0.0445  0.0273
 4343SOL    HW113266   4.388   3.748   2.316  0.2833 -0.5591  0.5181
 4343SOL    HW213267   4.373   3.707   2.171  0.7695  0.1313  0.2671
 4344SOL     OW13268   2.736   5.113   2.373  0.6464 -0.5087  0.2518
 4344SOL    HW113269   2.642   5.117   2.354  0.4018 -0.5597  1.3535
 4344SOL    HW213270   2.741   5.071   2.459  1.6011  0.5894  0.7687
 4345SOL     OW13271   1.686   2.451   5.879 -0.1639  0.1003 -0.0765
 4345SOL    HW113272   1.599   2.464   5.841 -0.2788 -1.0235 -0.2208
 4345SOL    HW213273   1.720   2.374   5.835  0.6361  0.1314  0.4700
 4346SOL     OW13274   2.810   3.808   5.403  0.1123 -0.3430  0.5338
 4346SOL    HW113275   2.770   3.881   5.356 -3.6034 -2.5781 -0.2267
 4346SOL    HW213276   2.753   3.795   5.478  1.1709 -1.9464  1.0970
 4347SOL     OW13277   2.785   4.233   4.803 -0.3187 -0.5260  0.3086
 4347SOL    HW113278   2.734   4.266   4.729  0.0246 -1.8161 -0.5330
 4347SOL    HW213279   2.744   4.273   4.880 -1.5359 -0.2185 -0.4703
 4348SOL     OW13280   2.110   3.859   0.855 -0.1534  0.8437  0.3591
 4348SOL    HW113281   2.115   3.785   0.793  0.9549 -1.4927  3.0002
 4348SOL    HW213282   2.202   3.884   0.869 -0.4603  2.0294  0.3024
 4349SOL     OW13283   0.211   0.200   3.266  0.2135  0.0274  0.2186
 4349SOL    HW113284   0.197   0.292   3.287 -0.0385 -0.1034  0.6305
 4349SOL    HW213285   0.302   0.195   3.238 -0.2571  0.7387 -1.6428
 4350SOL     OW13286   3.606   4.303   5.485  0.2436  0.3403  0.1144
 4350SOL    HW113287   3.557   4.221   5.479  1.3126 -0.2634 -0.7360
 4350SOL    HW213288   3.660   4.305   5.406  0.7937  1.5016  0.4960
 4351SOL     OW13289   3.183   5.935   5.259 -0.1530 -0.1233 -0.1722
 4351SOL    HW113290   3.156   5.846   5.284 -2.4121  0.4690 -0.2856
 4351SOL    HW213291   3.279   5.934   5.269 -0.3611 -1.0248  5.0325
 4352SOL     OW13292   3.745   0.394   0.020  0.0753  0.8798  0.4903
 4352SOL    HW113293   3.733   0.366  -0.070  0.1296  2.6460 -0.1155
 4352SOL    HW213294   3.773   0.316   0.067 -0.4884 -0.1873 -0.9028
 4353SOL     OW13295   6.075   3.016   0.584  0.5532  0.2197 -0.2499
 4353SOL    HW113296   6.005   2.968   0.539 -0.2302 -0.5727  1.7243
 4353SOL    HW213297   6.147   2.953   0.591  0.3489  0.0499  0.3634
 4354SOL     OW13298   1.826   3.441   1.287  0.0923 -0.3594  0.1208
 4354SOL    HW113299   1.862   3.353   1.296  0.4074 -0.6555 -2.9949
 4354SOL    HW213300   1.903   3.498   1.285 -0.0416 -0.1488  0.8076
 4355SOL     OW13301   1.455   1.078   3.187 -0.1233  0.6138  0.3862
 4355SOL    HW113302   1.467   0.983   3.186  0.3657  0.6435 -1.7253
 4355SOL    HW213303   1.537   1.112   3.221  0.1438  0.3061  0.0603
 4356SOL     OW13304   4.618   4.929   2.032 -0.2528  0.2665  0.5657
 4356SOL    HW113305   4.546   4.920   1.968 -1.1711  1.0647  1.4551
 4356SOL    HW213306   4.591   5.001   2.088  1.1049  0.3470  1.1407
 4357SOL     OW13307   2.873   4.850   1.247  0.0363 -0.4504 -0.2584
 4357SOL    HW113308   2.834   4.762   1.246 -0.9588 -0.0523  0.8156
 4357SOL    HW213309   2.967   4.834   1.250  0.0327 -1.4479 -2.8309
 4358SOL     OW13310   3.588   2.025   1.595 -0.2036  0.3461  0.3237
 4358SOL    HW113311   3.572   2.116   1.619  1.4995  0.1198  2.5939
 4358SOL    HW213312   3.626   2.029   1.507  1.1088  1.9611  0.9290
 4359SOL     OW13313   5.463   0.807   2.788 -0.5255  0.2181  0.0904
 4359SOL    HW113314   5.416   0.840   2.865 -0.5169  0.4400 -0.0003
 4359SOL    HW213315   5.552   0.791   2.819 -0.5153  0.3327  0.1206
 4360SOL     OW13316   4.068   4.149   2.376 -0.1724 -0.1428  0.4881
 4360SOL    HW113317   4.136   4.103   2.424 -1.6752 -2.5400  0.5369
 4360SOL    HW213318   4.036   4.084   2.313 -1.3843  1.3845 -0.5487
 4361SOL     OW13319   3.818   4.748   2.599 -0.0773  0.1420 -0.2134
 4361SOL    HW113320   3.789   4.765   2.689 -1.7863  2.3282 -1.0705
 4361SOL    HW213321   3.738   4.720   2.554  0.6263 -0.3166 -1.2035
 4362SOL     OW13322   1.047   0.465   0.436  0.2061  0.4738 -0.7352
 4362SOL    HW113323   1.071   0.462   0.529  0.5363  1.4610 -0.7780
 4362SOL    HW213324   1.091   0.389   0.398  0.1418  0.1094 -0.1101
 4363SOL     OW13325   4.280   5.096   3.866 -0.3697 -0.3434  0.1001
 4363SOL    HW113326   4.296   5.142   3.784  0.8617  0.6154  0.8523
 4363SOL    HW213327   4.366   5.084   3.905 -0.8982 -1.0519  1.1141
 4364SOL     OW13328   4.019   0.397   0.847  0.2699  0.4084 -0.3818
 4364SOL    HW113329   3.966   0.338   0.901  1.1000 -1.4261 -1.4896
 4364SOL    HW213330   3.957   0.462   0.814 -0.6170  0.3650  1.1057
 4365SOL     OW13331   4.904   5.473   2.677  0.5555 -0.6067 -0.1923
 4365SOL    HW113332   4.865   5.553   2.712  0.0182 -0.0662 -1.9013
 4365SOL    HW213333   4.878   5.405   2.739 -1.7881  0.0092 -0.3763
 4366SOL     OW13334   0.910   0.646   3.582 -0.3358 -0.2661 -0.6038
 4366SOL    HW113335   0.910   0.667   3.676  0.3996 -2.5796 -0.0340
 4366SOL    HW213336   0.984   0.586   3.570  0.5019  1.0825 -2.9812
 4367SOL     OW13337   3.327   4.966   0.591 -0.5029 -0.0839 -0.3163
 4367SOL    HW113338   3.372   4.903   0.647 -0.3007  0.5988  0.3134
 4367SOL    HW213339   3.238   4.968   0.625 -0.8700 -0.9972 -1.1850
 4368SOL     OW13340   5.398   3.512   5.955 -0.1265  0.4448 -0.5008
 4368SOL    HW113341   5.447   3.499   5.874 -0.3032 -1.1650 -0.3856
 4368SOL    HW213342   5.326   3.450   5.950 -1.5665  2.0266 -0.1806
 4369SOL     OW13343   2.853   2.594   1.851 -0.1984 -0.1045  0.1058
 4369SOL    HW113344   2.881   2.643   1.929  1.3856  1.1123 -1.1549
 4369SOL    HW213345   2.800   2.657   1.801 -0.3972 -0.5572 -0.2553
 4370SOL     OW13346   3.140   2.218   4.057  0.3561  0.2491  0.3804
 4370SOL    HW113347   3.083   2.185   4.126 -0.1276  0.7194  0.2137
 4370SOL    HW213348   3.192   2.142   4.031  0.1540 -0.0683  0.8713
 4371SOL     OW13349   1.095   5.103   3.587  0.0050 -0.0409  0.7134
 4371SOL    HW113350   1.005   5.081   3.612  0.0957 -0.9691  0.2880
 4371SOL    HW213351   1.106   5.194   3.614 -1.1760  0.1930  0.4769
 4372SOL     OW13352   0.341   5.162   3.215 -0.6368 -0.0169  0.0175
 4372SOL    HW113353   0.288   5.240   3.233  0.0779  0.3860  0.4491
 4372SOL    HW213354   0.426   5.197   3.189  0.3473 -0.6089  2.1852
 4373SOL     OW13355   3.811   0.275   0.984  0.1214 -0.2247 -0.3894
 4373SOL    HW113356   3.722   0.304   0.963 -0.3697 -1.7116 -0.5026
 4373SOL    HW213357   3.801   0.184   1.010  1.8182 -0.9867 -2.1454
 4374SOL     OW13358   1.412   2.668   5.889  0.2769 -0.1674 -0.1499
 4374SOL    HW113359   1.351   2.739   5.870  0.7012  0.1000 -0.5275
 4374SOL    HW213360   1.369   2.590   5.855 -0.1431 -0.0790  0.1695
 4375SOL     OW13361   1.292   0.905   0.799  0.0421 -0.2560  0.0941
 4375SOL    HW113362   1.272   0.998   0.796  1.9541  0.2072  0.5088
 4375SOL    HW213363   1.361   0.893   0.734  2.3573 -0.6480  2.4482
 4376SOL     OW13364   2.035   3.501   5.478  0.1101 -0.0936 -0.2737
 4376SOL    HW113365   2.072   3.433   5.534  0.4055  1.0893  1.0240
 4376SOL    HW213366   1.940   3.484   5.481  0.3333 -3.6037 -4.2312
 4377SOL     OW13367   3.559   6.081   1.008  0.5354 -0.2618 -1.0034
 4377SOL    HW113368   3.549   6.152   1.072 -1.8249 -0.5184 -0.9935
 4377SOL    HW213369   3.570   6.002   1.060 -1.2434 -0.4512 -0.8594
 4378SOL     OW13370   4.076   4.424   5.942  0.1974 -0.3373 -0.2452
 4378SOL    HW113371   4.164   4.441   5.908  0.4803 -1.2942 -0.0305
 4378SOL    HW213372   4.017   4.466   5.880  0.8139  0.8279 -0.0787
 4379SOL     OW13373   5.909   3.923   3.606  0.1288 -0.4671 -0.2902
 4379SOL    HW113374   5.929   3.831   3.624 -1.3315 -0.4407  1.8526
 4379SOL    HW213375   5.994   3.966   3.607  0.7589 -1.6552 -0.3369
 4380SOL     OW13376   5.534   1.477   1.788  0.5415  0.5054  0.5852
 4380SOL    HW113377   5.574   1.410   1.844  1.1975  0.9151  0.6123
 4380SOL    HW213378   5.440   1.472   1.808  0.1834 -2.1109 -1.2067
 4381SOL     OW13379   1.845   2.688   5.255 -0.2258 -0.4215  0.3779
 4381SOL    HW113380   1.793   2.610   5.234  0.8097 -1.0187 -0.0593
 4381SOL    HW213381   1.895   2.663   5.333  2.8859 -1.6356 -1.7873
 4382SOL     OW13382   5.897   4.805   6.142  0.4101  0.2148  0.1033
 4382SOL    HW113383   5.829   4.786   6.206  0.4137  0.7086  0.2535
 4382SOL    HW213384   5.973   4.755   6.171 -0.0748 -0.8636 -0.4281
 4383SOL     OW13385   3.146   3.223   0.136  0.1738  0.2672  0.0664
 4383SOL    HW113386   3.238   3.239   0.154  0.0761  0.1374  0.6764
 4383SOL    HW213387   3.136   3.128   0.142 -0.3588  0.3994  1.7981
 4384SOL     OW13388   0.586   4.466   3.538  0.3154  0.3480  0.0878
 4384SOL    HW113389   0.495   4.471   3.508 -0.1238  0.4676  1.3699
 4384SOL    HW213390   0.638   4.500   3.465 -0.6322 -0.0821 -0.8031
 4385SOL     OW13391   0.184   3.946   1.586  0.0192 -0.1848 -0.1254
 4385SOL    HW113392   0.261   3.972   1.535  0.3886 -0.3890  0.3265
 4385SOL    HW213393   0.188   4.000   1.665  0.0742 -0.6893  0.2162
 4386SOL     OW13394   1.483   0.384   1.553 -0.0183 -0.0831 -0.2727
 4386SOL    HW113395   1.529   0.416   1.475 -0.1681  0.3992 -0.1649
 4386SOL    HW213396   1.445   0.462   1.592  1.4859 -0.0608  1.2293
 4387SOL     OW13397   3.031   0.903   4.520 -0.4209  0.2152  0.2868
 4387SOL    HW113398   2.997   0.851   4.448  0.0173  2.6564 -1.8333
 4387SOL    HW213399   2.968   0.890   4.591 -1.7922 -0.9824 -1.0819
 4388SOL     OW13400   5.750   1.914   4.213  0.3724  0.3240  0.0337
 4388SOL    HW113401   5.722   1.999   4.246 -1.3611 -1.1435  2.7226
 4388SOL    HW213402   5.669   1.874   4.181  0.7068 -1.1642  0.9616
 4389SOL     OW13403   1.307   2.827   3.291  0.0726 -0.5960  0.5094
 4389SOL    HW113404   1.390   2.785   3.268  0.8765  0.9020  0.5554
 4389SOL    HW213405   1.309   2.911   3.246 -1.2322 -0.3455  0.8772
 4390SOL     OW13406   4.447   2.988   0.584 -0.5197 -0.4470  0.0758
 4390SOL    HW113407   4.413   3.075   0.565 -0.5448 -0.5938 -0.5607
 4390SOL    HW213408   4.485   2.958   0.502  0.1533 -0.7422  0.4820
 4391SOL     OW13409   4.318   1.395   2.285 -0.2582 -0.4958 -0.5099
 4391SOL    HW113410   4.259   1.409   2.359 -2.2572 -1.5448 -1.8260
 4391SOL    HW213411   4.353   1.307   2.299  1.4812  0.3127  0.5345
 4392SOL     OW13412   0.023   2.020   0.342  0.2951  0.3687  0.4179
 4392SOL    HW113413  -0.067   1.989   0.333  0.3807  0.0244  0.7287
 4392SOL    HW213414   0.045   2.057   0.257 -0.6413  1.7913  0.7670
 4393SOL     OW13415   1.668   1.336   2.539  0.2636 -0.3458  0.7811
 4393SOL    HW113416   1.755   1.297   2.533 -0.0256 -0.7538 -1.4998
 4393SOL    HW213417   1.607   1.264   2.522 -0.4443  0.2731  0.6060
 4394SOL     OW13418   4.262   2.182   5.173  0.3420 -0.2406 -0.8448
 4394SOL    HW113419   4.340   2.133   5.144  0.6593 -0.3885  0.2317
 4394SOL    HW213420   4.280   2.272   5.148 -0.0945 -0.5851 -2.5318
 4395SOL     OW13421   4.784   0.597   4.500  0.8103  0.2046  0.4054
 4395SOL    HW113422   4.743   0.600   4.413  1.3255  2.4946  0.1708
 4395SOL    HW213423   4.729   0.538   4.551 -0.8675  0.6218 -0.8474
 4396SOL     OW13424   3.141   4.735   2.170  0.1319  0.3238 -0.3019
 4396SOL    HW113425   3.054   4.762   2.139 -0.3683 -2.3025 -1.3969
 4396SOL    HW213426   3.188   4.709   2.090  0.7029 -1.5325  0.5823
 4397SOL     OW13427   0.028   4.073   5.028  0.1503 -0.3723  0.0086
 4397SOL    HW113428   0.057   3.986   5.056 -1.2852 -0.7555  0.3827
 4397SOL    HW213429  -0.027   4.104   5.100 -0.1774  0.4208 -0.5739
 4398SOL     OW13430   2.155   1.564   2.995  0.1188 -0.5294 -0.2878
 4398SOL    HW113431   2.160   1.469   3.001  1.0041 -0.4543  0.4583
 4398SOL    HW213432   2.217   1.595   3.060 -0.7300  0.5720  0.0309
 4399SOL     OW13433   2.149   0.030   1.272  0.0652 -0.1753  0.6194
 4399SOL    HW113434   2.170   0.026   1.365  0.6657  1.2779  0.5644
 4399SOL    HW213435   2.064   0.073   1.268 -0.0374 -0.3840  0.4965
 4400SOL     OW13436   2.733   3.552   1.845  0.5721  0.2616 -0.3365
 4400SOL    HW113437   2.820   3.514   1.839  0.1535 -1.1456  1.6568
 4400SOL    HW213438   2.744   3.632   1.896  0.4206 -1.2742  2.2938
 4401SOL     OW13439   3.927   4.089   4.615  0.3806  0.1430  0.4377
 4401SOL    HW113440   4.010   4.108   4.572  1.4779 -1.3565  1.7651
 4401SOL    HW213441   3.888   4.020   4.562  1.3931 -1.1963  1.3698
 4402SOL     OW13442   1.433   4.115   0.581  0.6489  0.5513  0.3800
 4402SOL    HW113443   1.457   4.059   0.655  0.3410 -1.6875 -1.1046
 4402SOL    HW213444   1.338   4.120   0.584  0.5314 -0.6907 -0.5950
 4403SOL     OW13445   1.573   1.446   6.129 -0.7078  0.7062  0.3747
 4403SOL    HW113446   1.580   1.542   6.136 -0.1354  0.7745 -0.8351
 4403SOL    HW213447   1.483   1.427   6.157 -0.9213  1.6294  0.3655
 4404SOL     OW13448   3.058   1.248   3.333 -0.8605  0.1636  0.3756
 4404SOL    HW113449   3.091   1.319   3.389  0.1039  1.9268 -2.2351
 4404SOL    HW213450   3.135   1.219   3.285 -1.7881 -0.7643 -0.5743
 4405SOL     OW13451   3.964   4.498   5.013  0.0675 -0.1624 -0.2082
 4405SOL    HW113452   3.981   4.491   4.919  0.3836  2.0477 -0.3552
 4405SOL    HW213453   3.959   4.592   5.031  0.3825 -0.5070  2.0641
 4406SOL     OW13454   4.354   1.341   5.022  0.1422 -0.0384  0.1184
 4406SOL    HW113455   4.361   1.427   5.065  0.2447  0.1005 -0.1746
 4406SOL    HW213456   4.445   1.319   5.000  0.1764 -0.4574  0.6465
 4407SOL     OW13457   0.024   3.505   5.323  0.1711 -0.3179 -0.1613
 4407SOL    HW113458   0.050   3.527   5.234 -1.4316  1.8797 -0.1568
 4407SOL    HW213459  -0.058   3.457   5.313 -0.1038  0.0861  0.1073
 4408SOL     OW13460   1.423   2.034   4.566  0.4885 -0.2875 -0.5684
 4408SOL    HW113461   1.511   2.017   4.532  1.5051  0.6358  1.3833
 4408SOL    HW213462   1.427   2.125   4.596 -0.8329 -0.5322  0.4129
 4409SOL     OW13463   2.407   2.805   0.619  0.1909  0.4548  0.3641
 4409SOL    HW113464   2.403   2.825   0.526 -4.1825  1.4877  0.5298
 4409SOL    HW213465   2.386   2.711   0.624 -0.6501  0.6225  0.2630
 4410SOL     OW13466   2.125   1.104   0.747 -0.0096  0.4360 -0.0071
 4410SOL    HW113467   2.064   1.144   0.686 -1.3266 -1.3073  0.0842
 4410SOL    HW213468   2.204   1.087   0.695 -0.6037  0.2432 -0.8604
 4411SOL     OW13469   0.289   2.619   5.823  0.1038  0.4123 -0.2118
 4411SOL    HW113470   0.261   2.529   5.812  0.7478  0.0255  1.0843
 4411SOL    HW213471   0.208   2.670   5.820 -0.4603 -0.3908  0.6562
 4412SOL     OW13472   5.128   4.965   0.364 -0.2560  0.3518  0.6798
 4412SOL    HW113473   5.058   5.011   0.318  0.3288  1.1026  0.5154
 4412SOL    HW213474   5.147   4.889   0.309 -0.9730  0.1123  0.7561
 4413SOL     OW13475   1.410   5.065   4.851 -0.0909  0.3544 -0.4613
 4413SOL    HW113476   1.439   5.092   4.764  1.1819 -1.5583 -0.7009
 4413SOL    HW213477   1.459   5.120   4.911 -0.3125  1.0753 -0.9258
 4414SOL     OW13478   2.604   4.408   2.329  0.6420 -0.0942 -0.3901
 4414SOL    HW113479   2.662   4.335   2.307 -0.9680 -0.3768 -4.4900
 4414SOL    HW213480   2.634   4.481   2.274  0.6653  1.6742  1.8024
 4415SOL     OW13481   1.927   3.196   1.312  0.8136  0.5425 -0.3821
 4415SOL    HW113482   1.864   3.125   1.323 -0.0624  1.4505  0.8572
 4415SOL    HW213483   2.013   3.154   1.313  0.2697 -0.6017 -0.8576
 4416SOL     OW13484   0.248   5.090   0.063  0.0421  0.3215 -0.3757
 4416SOL    HW113485   0.158   5.058   0.050  0.5720 -1.1956 -0.5578
 4416SOL    HW213486   0.270   5.134  -0.019  0.0018 -0.7212 -0.9647
 4417SOL     OW13487   2.164   3.474   4.206  0.4612  0.6488 -0.4283
 4417SOL    HW113488   2.242   3.419   4.209 -0.1507 -0.2376  3.3001
 4417SOL    HW213489   2.115   3.443   4.129  3.0443  0.3656 -2.0733
 4418SOL     OW13490   5.971   5.612   2.275 -0.1531 -0.0474 -0.0269
 4418SOL    HW113491   5.965   5.629   2.369 -0.8486  0.1399 -0.1039
 4418SOL    HW213492   5.884   5.582   2.251 -0.2628  0.8730 -0.8122
 4419SOL     OW13493   5.258   0.906   3.376 -0.7214  0.3987  0.1835
 4419SOL    HW113494   5.346   0.870   3.380 -0.5173  0.6417 -1.3150
 4419SOL    HW213495   5.224   0.899   3.465 -0.4576 -2.8683  0.1285
 4420SOL     OW13496   1.097   0.443   3.868 -0.2564 -0.6304  0.2967
 4420SOL    HW113497   1.080   0.399   3.785 -1.2867  0.1432  0.0797
 4420SOL    HW213498   1.035   0.516   3.870 -0.7477 -1.0411  2.0661
 4421SOL     OW13499   4.482   0.700   2.925 -0.1629 -0.4177  0.1998
 4421SOL    HW113500   4.407   0.756   2.903  0.6832  0.0059 -1.8233
 4421SOL    HW213501   4.446   0.611   2.926 -0.8192 -0.1622 -0.1400
 4422SOL     OW13502   1.402   3.183   0.640  0.3586  0.3683  0.1110
 4422SOL    HW113503   1.369   3.093   0.646  1.0371  0.1880  1.8405
 4422SOL    HW213504   1.481   3.176   0.586 -0.1895  0.1094 -0.6559
 4423SOL     OW13505   5.458   5.999   2.164 -0.3167 -0.1596  0.3741
 4423SOL    HW113506   5.427   5.968   2.250 -1.7491  0.2804  0.0552
 4423SOL    HW213507   5.432   6.091   2.162  1.2715  0.2980  0.1484
 4424SOL     OW13508   2.763   1.923   1.860 -0.5276  0.5097  0.0547
 4424SOL    HW113509   2.762   1.829   1.839 -0.5373  0.6332 -0.5053
 4424SOL    HW213510   2.847   1.937   1.902 -0.3073  0.3464 -0.3226
 4425SOL     OW13511   2.959   4.474   5.518  0.2216 -0.2979  0.1636
 4425SOL    HW113512   2.883   4.463   5.575  0.1736 -2.1045 -0.1899
 4425SOL    HW213513   2.924   4.468   5.429  0.8521 -2.3913 -0.0100
 4426SOL     OW13514   3.955   3.995   2.168 -0.3875  0.1088 -0.2482
 4426SOL    HW113515   3.973   3.903   2.151 -0.0376  0.1735 -0.2335
 4426SOL    HW213516   3.977   4.040   2.087 -0.3554  0.2053 -0.1866
 4427SOL     OW13517   2.128   4.578   0.463  0.3085  0.7166 -0.3126
 4427SOL    HW113518   2.097   4.553   0.376 -0.1930  0.4131 -0.0530
 4427SOL    HW213519   2.147   4.495   0.507  0.2232  0.8530 -0.0144
 4428SOL     OW13520   0.634   3.017   0.212 -0.5163 -0.1897 -0.4261
 4428SOL    HW113521   0.720   3.029   0.170 -0.4479  0.5977 -0.0714
 4428SOL    HW213522   0.655   2.979   0.297 -0.5426 -0.2655 -0.4533
 4429SOL     OW13523   1.437   4.859   5.530 -0.1397  0.1766  0.1900
 4429SOL    HW113524   1.365   4.824   5.583  0.3993 -0.7184  0.3497
 4429SOL    HW213525   1.516   4.821   5.568  0.2122 -1.2837 -1.8235
 4430SOL     OW13526   0.330   5.653   1.280 -0.0140  0.5941 -0.0978
 4430SOL    HW113527   0.317   5.748   1.283  1.1115  0.7958 -0.9195
 4430SOL    HW213528   0.310   5.624   1.369  0.0101  1.6612  0.2769
 4431SOL     OW13529   2.202   2.395   4.475  0.4050  0.6275 -0.3587
 4431SOL    HW113530   2.236   2.448   4.403 -1.4895  1.5424 -0.6349
 4431SOL    HW213531   2.107   2.403   4.468  0.1505  0.8074  2.2758
 4432SOL     OW13532   0.523   2.115   1.922 -0.0073  0.2209  0.5735
 4432SOL    HW113533   0.590   2.062   1.880  0.3522 -0.4513  1.9436
 4432SOL    HW213534   0.549   2.205   1.904  0.7335 -0.0367  0.3017
 4433SOL     OW13535   4.002   1.604   3.161  0.4551 -0.8228 -0.5458
 4433SOL    HW113536   3.989   1.531   3.101 -2.5432  1.0924 -2.5181
 4433SOL    HW213537   3.925   1.604   3.217 -0.2168  1.3623 -1.3506
 4434SOL     OW13538   6.129   1.473   0.801  0.1542  0.3230 -0.2771
 4434SOL    HW113539   6.189   1.548   0.803 -1.1152  1.3993  2.7704
 4434SOL    HW213540   6.133   1.436   0.889 -0.8210 -1.9648 -1.1130
 4435SOL     OW13541   4.704   5.962   3.622  0.5228  0.2236 -0.1586
 4435SOL    HW113542   4.637   5.893   3.627 -0.0570  0.7621 -0.4002
 4435SOL    HW213543   4.787   5.914   3.622  0.1652 -0.4287  0.8153
 4436SOL     OW13544   2.707   1.341   4.205 -0.2622 -0.2614 -0.1581
 4436SOL    HW113545   2.743   1.353   4.293  0.6432  1.0275 -0.6739
 4436SOL    HW213546   2.740   1.255   4.178  1.1011  0.1642  0.0310
 4437SOL     OW13547   4.466   2.008   0.959  0.4214  0.6789 -0.0157
 4437SOL    HW113548   4.390   2.005   0.902 -0.4042  0.7051  1.0503
 4437SOL    HW213549   4.511   2.089   0.935  0.3414  0.4547 -0.9275
 4438SOL     OW13550   1.415   1.691   1.103  0.2912 -0.3879 -0.2103
 4438SOL    HW113551   1.441   1.714   1.014  0.1286 -2.6363 -0.8912
 4438SOL    HW213552   1.347   1.755   1.126 -0.9248 -0.8074 -2.3775
 4439SOL     OW13553   2.811   0.805   2.496  0.3392 -0.0283 -0.5979
 4439SOL    HW113554   2.797   0.711   2.489 -0.1757 -0.0295  0.2872
 4439SOL    HW213555   2.724   0.843   2.492  0.4887  0.3586 -0.2902
 4440SOL     OW13556   3.920   2.880   0.248  0.4650  0.2592 -0.6205
 4440SOL    HW113557   4.010   2.847   0.246  0.1303 -0.6376 -1.6720
 4440SOL    HW213558   3.924   2.963   0.201  0.7164  0.1792 -0.7427
 4441SOL     OW13559   5.285   4.798   1.047 -0.2054 -0.3808  0.0193
 4441SOL    HW113560   5.296   4.866   1.114  2.6160  0.6170 -1.2981
 4441SOL    HW213561   5.295   4.844   0.964  3.3043 -2.4786 -0.9193
 4442SOL     OW13562   5.651   4.794   5.987  0.2143  0.6577  0.0256
 4442SOL    HW113563   5.717   4.739   6.029  0.2005  0.4897 -0.1711
 4442SOL    HW213564   5.675   4.794   5.895  0.4620  1.3333  0.0850
 4443SOL     OW13565   5.629   2.139   4.955  0.4333  0.3378  0.0590
 4443SOL    HW113566   5.650   2.077   5.025  0.4251  0.4348  0.1491
 4443SOL    HW213567   5.613   2.085   4.878 -1.6073  0.0651  0.6202
 4444SOL     OW13568   1.918   2.148   4.802 -0.4997  0.1546  0.2284
 4444SOL    HW113569   1.871   2.067   4.783 -0.3910 -0.1080  1.0482
 4444SOL    HW213570   1.863   2.194   4.865  0.7745 -0.6284  1.9976
 4445SOL     OW13571   2.623   0.729   2.958  1.2232 -0.2629  0.1009
 4445SOL    HW113572   2.706   0.734   2.911  1.6455 -2.0278  0.6005
 4445SOL    HW213573   2.618   0.639   2.990  0.5292  0.5714  2.6342
 4446SOL     OW13574   2.970   2.885   2.628  0.2425  0.5014 -0.1986
 4446SOL    HW113575   2.989   2.930   2.710 -2.1253  0.3318  0.5123
 4446SOL    HW213576   3.047   2.830   2.612  0.5911  0.2395  2.1019
 4447SOL     OW13577   4.729   1.083   0.311 -0.3014  0.6811  0.3430
 4447SOL    HW113578   4.717   1.173   0.340 -1.8469  0.2819  1.0721
 4447SOL    HW213579   4.650   1.037   0.342  1.0026 -1.1932  1.0728
 4448SOL     OW13580   3.701   2.788   1.349 -0.0535 -0.0276 -0.1647
 4448SOL    HW113581   3.622   2.821   1.306  0.0521  0.3566 -0.0735
 4448SOL    HW213582   3.773   2.830   1.302  0.1417 -1.2038 -0.9377
 4449SOL     OW13583   5.872   5.419   4.501 -0.0448 -0.2463 -0.1226
 4449SOL    HW113584   5.967   5.407   4.490 -0.0426  0.3984 -0.9112
 4449SOL    HW213585   5.855   5.508   4.470 -1.3435 -1.3538 -2.9222
 4450SOL     OW13586   5.958   3.381   4.100 -0.2404 -0.5816  0.2451
 4450SOL    HW113587   5.929   3.329   4.025 -0.2499 -0.0137 -0.1449
 4450SOL    HW213588   5.876   3.409   4.142 -0.2455 -0.0826 -0.0958
 4451SOL     OW13589   4.228   2.388   3.400 -0.6829  0.4247  0.2211
 4451SOL    HW113590   4.176   2.417   3.475  0.3706  0.3737  0.9866
 4451SOL    HW213591   4.184   2.427   3.324 -1.6532  0.6255  0.8775
 4452SOL     OW13592   0.112   2.037   4.232  0.3330  0.7730  0.5683
 4452SOL    HW113593   0.159   2.111   4.195 -1.3411  0.7583 -1.8285
 4452SOL    HW213594   0.153   1.960   4.191 -2.2190  0.8007 -2.4315
 4453SOL     OW13595   3.883   3.034   0.533 -0.4175  0.5868 -0.2237
 4453SOL    HW113596   3.932   2.953   0.519 -0.5107  0.3196  0.9033
 4453SOL    HW213597   3.937   3.102   0.491  0.9888  0.3061  1.0431
 4454SOL     OW13598   0.557   5.701   2.196 -0.3971 -0.1122 -0.4530
 4454SOL    HW113599   0.561   5.747   2.279 -2.3917  0.7611 -0.7945
 4454SOL    HW213600   0.504   5.623   2.213  1.2343 -1.2496 -0.3696
 4455SOL     OW13601   2.239   1.209   2.027  0.7773  0.0784  0.1521
 4455SOL    HW113602   2.180   1.278   1.996  1.2842  0.5671  0.2531
 4455SOL    HW213603   2.194   1.170   2.102 -0.2042 -0.7345 -0.8270
 4456SOL     OW13604   5.355   2.459   5.528 -0.0484 -0.6192 -0.2048
 4456SOL    HW113605   5.276   2.510   5.508  0.1987  0.1148  0.6636
 4456SOL    HW213606   5.351   2.385   5.467 -0.6835  0.1484 -1.1321
 4457SOL     OW13607   6.031   2.256   0.349 -0.2433 -0.2342  0.2822
 4457SOL    HW113608   5.976   2.273   0.272 -0.2248 -1.2262  0.0374
 4457SOL    HW213609   6.063   2.167   0.336 -0.5525 -0.5624  1.6343
 4458SOL     OW13610   3.170   1.611   5.413 -0.4387 -1.0639  0.0408
 4458SOL    HW113611   3.093   1.563   5.444 -0.9451 -1.6361 -1.9461
 4458SOL    HW213612   3.216   1.549   5.356  0.2960 -0.0219 -0.5330
 4459SOL     OW13613   3.878   1.270   3.759  0.0599  0.6152  0.6310
 4459SOL    HW113614   3.877   1.251   3.853 -0.8407 -1.4757  0.2510
 4459SOL    HW213615   3.802   1.224   3.724  0.5300  1.1246 -1.1865
 4460SOL     OW13616   3.458   5.820   2.484  0.1422  0.3748  0.2505
 4460SOL    HW113617   3.420   5.839   2.398 -1.5813  3.5827  1.5697
 4460SOL    HW213618   3.387   5.778   2.533  1.1714 -1.6057  0.1801
 4461SOL     OW13619   4.390   3.794   3.551  0.7447  0.1884 -0.1425
 4461SOL    HW113620   4.369   3.844   3.472  0.0811  0.9479  0.4891
 4461SOL    HW213621   4.477   3.824   3.575  1.6152 -1.1943 -1.4332
 4462SOL     OW13622   5.147   5.874   4.071 -0.1342 -0.5240 -0.3096
 4462SOL    HW113623   5.215   5.898   4.008 -1.3475 -0.0182 -1.4693
 4462SOL    HW213624   5.168   5.784   4.095  0.8973 -0.4082 -0.7015
 4463SOL     OW13625   0.254   2.696   0.058  0.3866 -0.0043 -0.3203
 4463SOL    HW113626   0.264   2.782   0.019  0.3481 -0.1265 -0.5964
 4463SOL    HW213627   0.343   2.672   0.087  0.5885 -0.3258 -1.1892
 4464SOL     OW13628   4.754   4.640   2.541 -0.7126  0.4051 -0.0989
 4464SOL    HW113629   4.729   4.685   2.460  1.0207  1.3717 -0.1430
 4464SOL    HW213630   4.832   4.590   2.517  0.7819  1.9622  1.3212
 4465SOL     OW13631   1.621   5.908   5.800  0.4618 -0.0686 -0.3107
 4465SOL    HW113632   1.537   5.882   5.837  0.4700 -0.1358 -0.3406
 4465SOL    HW213633   1.644   5.988   5.847  1.3398 -1.1187  1.0905
 4466SOL     OW13634   6.148   6.074   2.405  0.0544 -0.3297 -0.7153
 4466SOL    HW113635   6.196   6.131   2.466  0.8323 -0.5295 -1.1254
 4466SOL    HW213636   6.172   5.985   2.432 -1.4179 -0.4938  0.1373
 4467SOL     OW13637   5.064   0.515   0.470  0.4429 -0.7414  0.4878
 4467SOL    HW113638   5.126   0.588   0.466 -0.2136 -0.1895  0.4396
 4467SOL    HW213639   5.100   0.457   0.537  0.0099  0.5009  1.8364
 4468SOL     OW13640   3.835   0.076   1.328  0.7478  0.2887 -0.1090
 4468SOL    HW113641   3.772   0.143   1.357 -0.8155 -0.6594 -1.1297
 4468SOL    HW213642   3.920   0.111   1.352 -0.1633  1.6639  1.3063
 4469SOL     OW13643   3.677   2.974   0.060 -0.3102  0.4242  0.1173
 4469SOL    HW113644   3.684   2.880   0.078 -0.1681  0.0983 -1.4935
 4469SOL    HW213645   3.737   2.989  -0.013  0.0284  1.8717  0.6625
 4470SOL     OW13646   1.917   4.560   5.931 -0.8048  0.1694  0.0889
 4470SOL    HW113647   1.894   4.521   5.847  0.8415  0.1863 -0.3845
 4470SOL    HW213648   1.927   4.653   5.912 -3.0666  0.6575  0.8862
 4471SOL     OW13649   1.889   4.292   5.087  0.1941  0.1039 -0.2018
 4471SOL    HW113650   1.830   4.367   5.075  1.9937  1.4202 -1.4274
 4471SOL    HW213651   1.877   4.239   5.009  0.3720  0.1695 -0.2731
 4472SOL     OW13652   4.047   4.104   5.028  0.0088 -0.0217 -0.0539
 4472SOL    HW113653   3.977   4.059   5.075  0.2900  0.5285  0.9252
 4472SOL    HW213654   4.004   4.181   4.989  0.4000  1.5419  2.3566
 4473SOL     OW13655   5.147   6.046   0.631 -0.5710 -0.3247 -0.1241
 4473SOL    HW113656   5.216   6.049   0.696 -0.2072 -0.7978 -0.4771
 4473SOL    HW213657   5.066   6.052   0.681 -0.2734  0.9274  0.2377
 4474SOL     OW13658   0.975   3.671   0.334 -0.4145  0.3264  0.3373
 4474SOL    HW113659   0.921   3.715   0.269 -0.0017 -0.5078 -0.6097
 4474SOL    HW213660   1.031   3.612   0.282  1.2356  0.9985  1.2881
 4475SOL     OW13661   5.208   5.501   2.270  0.2144  0.2912  0.3245
 4475SOL    HW113662   5.267   5.563   2.226 -0.7587  0.5036 -0.7047
 4475SOL    HW213663   5.136   5.555   2.302 -1.1119 -0.3763 -1.3748
 4476SOL     OW13664   4.275   5.587   3.434 -0.7191 -0.1621  0.0362
 4476SOL    HW113665   4.249   5.679   3.424 -3.0703 -0.6781  0.8681
 4476SOL    HW213666   4.304   5.580   3.525  0.6365 -0.0229 -0.3585
 4477SOL     OW13667   2.013   3.500   3.138 -0.2669  0.2658  0.6558
 4477SOL    HW113668   1.944   3.563   3.115  0.0622  0.8253  1.2013
 4477SOL    HW213669   1.999   3.481   3.230  0.3149  0.3873  0.7726
 4478SOL     OW13670   4.645   4.509   5.643 -0.1127 -0.2902  0.0002
 4478SOL    HW113671   4.655   4.439   5.707  0.0866  0.6868  1.0723
 4478SOL    HW213672   4.663   4.468   5.559 -2.1928 -2.0574  0.3191
 4479SOL     OW13673   5.081   2.288   5.232  0.6159 -0.0001  0.4134
 4479SOL    HW113674   5.165   2.267   5.273  1.1666 -0.4076 -0.8539
 4479SOL    HW213675   5.050   2.204   5.197  0.6831  0.4851 -0.8833
 4480SOL     OW13676   3.964   3.904   5.316  0.0222  0.1779 -0.4056
 4480SOL    HW113677   3.894   3.883   5.254  0.2174 -0.2275 -0.4971
 4480SOL    HW213678   3.929   3.877   5.401 -0.8383  2.1058 -0.0884
 4481SOL     OW13679   0.546   1.008   2.838 -0.7757  0.3636  0.3121
 4481SOL    HW113680   0.504   0.956   2.770  0.8746  1.1275 -1.3663
 4481SOL    HW213681   0.572   0.944   2.904 -0.1559 -0.7959 -0.9939
 4482SOL     OW13682   2.732   3.748   2.434  0.5220 -0.1500  0.6861
 4482SOL    HW113683   2.699   3.801   2.506  1.5897  1.0970  0.3013
 4482SOL    HW213684   2.817   3.786   2.413  1.2951 -1.9668  0.3081
 4483SOL     OW13685   4.406   1.926   0.417  0.1991 -0.0995  0.0046
 4483SOL    HW113686   4.456   1.963   0.344  1.0389 -1.8485 -0.3705
 4483SOL    HW213687   4.330   1.885   0.376  0.4572 -0.7231  0.1303
 4484SOL     OW13688   1.425   3.065   4.419 -0.2648 -0.6517 -0.2264
 4484SOL    HW113689   1.449   3.156   4.403  0.0507 -0.6411  0.2914
 4484SOL    HW213690   1.330   3.065   4.425 -0.2127 -0.2126  0.6399
 4485SOL     OW13691   3.440   5.508   5.522  0.0652  0.0864 -0.2247
 4485SOL    HW113692   3.509   5.507   5.455 -0.4351 -0.7158 -0.7423
 4485SOL    HW213693   3.467   5.576   5.583  0.1356  1.4176 -1.6736
 4486SOL     OW13694   5.679   5.548   6.075 -0.4057 -0.5883 -0.4804
 4486SOL    HW113695   5.584   5.560   6.076 -0.7950 -3.0001  1.7450
 4486SOL    HW213696   5.714   5.630   6.109 -1.7932 -0.1839  0.0264
 4487SOL     OW13697   1.268   5.397   6.041 -0.2257 -0.2943 -0.0678
 4487SOL    HW113698   1.233   5.331   6.101 -0.5952 -0.2785 -0.2647
 4487SOL    HW213699   1.236   5.371   5.955 -0.6820  0.3380 -0.1033
 4488SOL     OW13700   3.984   5.932   0.189  0.4918 -0.3097 -0.0185
 4488SOL    HW113701   4.048   5.861   0.196  0.7268  0.0061  1.1667
 4488SOL    HW213702   4.026   5.996   0.132  0.4776 -0.8989 -0.7047
 4489SOL     OW13703   3.864   0.138   3.932  0.4503  0.3708  0.3026
 4489SOL    HW113704   3.959   0.125   3.927  0.4499 -0.4275  1.8610
 4489SOL    HW213705   3.840   0.166   3.844  2.2536  1.4839  0.1075
 4490SOL     OW13706   1.232   2.567   5.164  0.2299  0.0634  0.6417
 4490SOL    HW113707   1.272   2.505   5.225 -0.7357  0.2709  1.5058
 4490SOL    HW213708   1.300   2.632   5.148  0.8921 -0.6381  0.5647
 4491SOL     OW13709   3.770   1.380   6.143  0.0068 -0.2270  0.2072
 4491SOL    HW113710   3.677   1.356   6.140  0.1736 -0.8008 -1.8420
 4491SOL    HW213711   3.802   1.363   6.054  1.1435  3.7205 -0.3339
 4492SOL     OW13712   3.609   4.858   1.368  0.1160 -0.4881  0.1388
 4492SOL    HW113713   3.678   4.792   1.371  1.7440  1.1870  1.4550
 4492SOL    HW213714   3.562   4.847   1.451 -0.1779 -0.5727 -0.0385
 4493SOL     OW13715   4.562   3.289   4.825  0.2068  0.0307  0.0082
 4493SOL    HW113716   4.525   3.206   4.794  1.2760 -0.7594  0.7910
 4493SOL    HW213717   4.569   3.279   4.919 -3.3401  2.5501  0.7743
 4494SOL     OW13718   4.765   5.558   0.278 -0.0217  0.2772  0.1494
 4494SOL    HW113719   4.717   5.581   0.198  0.6905 -0.0824 -0.3914
 4494SOL    HW213720   4.702   5.508   0.330 -0.7115  1.0999  0.1276
 4495SOL     OW13721   2.480   2.735   1.123  0.2566  0.4662  0.2421
 4495SOL    HW113722   2.435   2.720   1.040 -0.7656 -0.1376  0.8727
 4495SOL    HW213723   2.555   2.676   1.121 -1.0005 -1.2375  0.6468
 4496SOL     OW13724   2.136   4.056   4.465  0.0747 -0.1371 -0.2631
 4496SOL    HW113725   2.201   4.095   4.407  0.3856  0.1184  0.2479
 4496SOL    HW213726   2.080   4.130   4.490  1.2361  0.2229  1.4771
 4497SOL     OW13727   4.069   1.041   3.409  0.3452  0.1628  0.6252
 4497SOL    HW113728   4.084   1.006   3.321  0.2483 -0.8148  0.9900
 4497SOL    HW213729   4.028   1.127   3.393  0.6459  0.1550 -0.2813
 4498SOL     OW13730   1.106   0.333   1.654  0.1424  0.3328 -0.3243
 4498SOL    HW113731   1.120   0.411   1.601  1.4145 -0.7671 -1.6938
 4498SOL    HW213732   1.143   0.355   1.739 -1.7852  2.0720  0.1543
 4499SOL     OW13733   4.911   2.616   5.526  0.0655  0.0753 -0.2699
 4499SOL    HW113734   4.903   2.531   5.570  1.7633  0.3261  0.5759
 4499SOL    HW213735   4.846   2.611   5.456 -0.3686 -1.6487  0.1814
 4500SOL     OW13736   3.455   0.418   3.719  0.2858 -0.5374  0.1334
 4500SOL    HW113737   3.448   0.326   3.741  0.2614 -0.5407  0.1127
 4500SOL    HW213738   3.529   0.423   3.659  0.6695 -0.4560  0.6100
 4501SOL     OW13739   1.781   5.249   2.384  0.2034 -0.0875 -0.2310
 4501SOL    HW113740   1.727   5.191   2.437  1.6610  0.8713  2.5092
 4501SOL    HW213741   1.727   5.327   2.371 -0.4247 -0.6078 -0.7991
 4502SOL     OW13742   1.325   0.729   1.485  0.7850 -0.2852  0.6531
 4502SOL    HW113743   1.288   0.783   1.555 -1.0771  0.3452 -0.7691
 4502SOL    HW213744   1.406   0.775   1.460 -0.4001  1.5165 -0.0481
 4503SOL     OW13745   1.254   5.463   4.874  0.3187 -0.7482  0.4244
 4503SOL    HW113746   1.211   5.384   4.905  0.6826 -1.2109 -0.2336
 4503SOL    HW213747   1.182   5.520   4.846  0.0034 -0.4896  1.6596
 4504SOL     OW13748   1.797   0.337   3.298 -0.0868  0.2559  0.4659
 4504SOL    HW113749   1.867   0.394   3.268  0.5078  0.2060  1.6937
 4504SOL    HW213750   1.838   0.279   3.362 -0.0284 -3.3276 -2.4803
 4505SOL     OW13751   3.684   6.055   0.688 -0.7317 -0.0042  0.2115
 4505SOL    HW113752   3.779   6.050   0.692 -0.7597 -3.2034  0.0706
 4505SOL    HW213753   3.656   6.037   0.778 -1.1301 -2.4749 -0.3322
 4506SOL     OW13754   2.029   3.310   1.558  0.1117 -0.8503 -0.4131
 4506SOL    HW113755   2.109   3.361   1.565 -1.0946  1.0174  0.3462
 4506SOL    HW213756   2.022   3.288   1.465  0.5876  0.5074 -0.7788
 4507SOL     OW13757   1.500   4.303   3.312  0.0612  0.1911 -0.4057
 4507SOL    HW113758   1.591   4.309   3.284  0.3784  2.5308  0.8976
 4507SOL    HW213759   1.463   4.233   3.258  2.1896  0.2774 -2.1145
 4508SOL     OW13760   1.071   0.821   2.432 -0.4928 -0.2214  0.1238
 4508SOL    HW113761   1.084   0.848   2.341  4.6706 -1.3868  0.1977
 4508SOL    HW213762   1.016   0.890   2.469  0.1195  2.2445 -3.0436
 4509SOL     OW13763   1.526   1.973   2.065 -0.5298  0.1769 -1.0318
 4509SOL    HW113764   1.611   2.014   2.054 -0.7929  0.5573 -1.6727
 4509SOL    HW213765   1.528   1.939   2.155  0.0379  0.7786 -0.8064
 4510SOL     OW13766   1.069   1.488   0.835 -0.3044  0.3857  0.4712
 4510SOL    HW113767   1.025   1.539   0.767 -2.5804 -1.2230  0.6240
 4510SOL    HW213768   1.111   1.416   0.787  2.8309  2.1572  0.2633
 4511SOL     OW13769   1.901   2.890   0.501  0.3044 -0.4136 -0.1879
 4511SOL    HW113770   1.907   2.973   0.455  0.9405 -0.2443  0.1921
 4511SOL    HW213771   1.966   2.896   0.571 -1.5043 -0.1415  1.5585
 4512SOL     OW13772   3.324   4.039   2.779 -0.0090 -0.5127  0.1044
 4512SOL    HW113773   3.350   4.119   2.824  1.7337 -1.1302  0.2818
 4512SOL    HW213774   3.374   3.970   2.822 -2.3830 -1.9260  0.7679
 4513SOL     OW13775   1.512   4.832   5.251  0.0563  0.3246 -0.1525
 4513SOL    HW113776   1.447   4.763   5.242  0.6138 -0.1322 -0.7085
 4513SOL    HW213777   1.551   4.817   5.337 -0.0485  0.1473 -0.1363
 4514SOL     OW13778   2.994   2.604   2.309 -0.4757 -0.0615  0.5476
 4514SOL    HW113779   2.965   2.549   2.235 -2.3865 -0.0145  1.2023
 4514SOL    HW213780   2.916   2.655   2.332  0.3514  0.5810  2.0239
 4515SOL     OW13781   2.983   5.046   3.238 -0.0486  0.4281 -0.2749
 4515SOL    HW113782   2.926   5.123   3.242  1.5759  1.7221 -0.8343
 4515SOL    HW213783   2.964   5.006   3.153 -0.6447  0.3939 -0.1344
 4516SOL     OW13784   2.245   4.845   0.479 -0.2036  0.1226 -0.0716
 4516SOL    HW113785   2.232   4.750   0.468  0.0461  0.0315  0.3811
 4516SOL    HW213786   2.207   4.884   0.401 -0.8021 -0.3221 -0.0100
 4517SOL     OW13787   1.266   3.871   3.361 -0.4776  0.0910 -0.0276
 4517SOL    HW113788   1.193   3.926   3.332 -1.5444 -2.0959 -1.7072
 4517SOL    HW213789   1.316   3.853   3.282  1.0659  0.2938  0.8579
 4518SOL     OW13790   4.513   0.080   6.118 -0.1858  0.4925 -0.0104
 4518SOL    HW113791   4.517  -0.015   6.133 -0.2518  0.4242 -0.4012
 4518SOL    HW213792   4.420   0.102   6.125 -0.4191  0.2082 -1.7135
 4519SOL     OW13793   2.489   4.112   5.167 -0.4763 -0.2724 -0.6220
 4519SOL    HW113794   2.393   4.107   5.170 -0.5440  1.0570  0.3474
 4519SOL    HW213795   2.509   4.203   5.188  1.0451 -0.8662  0.7501
 4520SOL     OW13796   1.034   0.821   4.070 -0.6186  0.1166  0.0197
 4520SOL    HW113797   0.959   0.851   4.121  0.0858  0.6379  0.7874
 4520SOL    HW213798   1.103   0.808   4.135  0.0387 -0.0676 -0.6997
 4521SOL     OW13799   3.322   2.525   3.593  0.1055 -0.2680 -0.6079
 4521SOL    HW113800   3.371   2.603   3.619 -0.0446  0.3519 -2.0907
 4521SOL    HW213801   3.241   2.529   3.644  1.2700 -0.9767  1.4029
 4522SOL     OW13802   4.043   3.324   4.301 -0.2306 -0.4208 -0.4192
 4522SOL    HW113803   4.006   3.255   4.245  0.8077 -0.6081 -0.8977
 4522SOL    HW213804   4.107   3.278   4.355 -0.9360 -0.1683  0.6767
 4523SOL     OW13805   5.332   2.194   3.894  0.8002  0.3896  0.0157
 4523SOL    HW113806   5.324   2.102   3.869 -0.1441  0.3207  0.5104
 4523SOL    HW213807   5.324   2.193   3.990  0.6385  0.9944  0.0134
 4524SOL     OW13808   2.249   1.409   3.442  0.1254  0.5581  0.6036
 4524SOL    HW113809   2.269   1.357   3.364  0.2625 -2.3085  2.3816
 4524SOL    HW213810   2.335   1.429   3.480  0.0122  0.0233  1.1517
 4525SOL     OW13811   4.109   0.368   1.915 -0.0576 -0.1703 -0.0910
 4525SOL    HW113812   4.108   0.292   1.973 -0.9297 -1.1861 -1.3571
 4525SOL    HW213813   4.188   0.415   1.938  1.2626 -2.2140 -0.1822
 4526SOL     OW13814   1.095   2.281   0.003 -0.0077 -0.4840  0.3980
 4526SOL    HW113815   1.167   2.315   0.057 -0.7400  0.1911  0.9774
 4526SOL    HW213816   1.017   2.321   0.040 -0.6270 -0.7457 -0.5965
 4527SOL     OW13817   4.035   2.806   0.527 -0.2814 -0.3744  0.3369
 4527SOL    HW113818   4.061   2.792   0.436 -0.5350 -1.4987  0.4237
 4527SOL    HW213819   4.117   2.809   0.576 -0.1394  0.3607  0.0608
 4528SOL     OW13820   0.286   6.025   6.039  0.5053 -0.3653 -0.0963
 4528SOL    HW113821   0.268   6.084   6.111  0.8975  0.9317 -1.0346
 4528SOL    HW213822   0.381   6.008   6.044  0.3256 -1.3045  0.4367
 4529SOL     OW13823   5.464   1.653   0.377 -0.0052  0.0692  0.1320
 4529SOL    HW113824   5.452   1.745   0.401  1.2141 -0.1486  1.7343
 4529SOL    HW213825   5.436   1.604   0.454 -2.8042 -1.0910 -1.4723
 4530SOL     OW13826   2.245   5.007   5.264  0.2344  0.4169 -0.5828
 4530SOL    HW113827   2.257   5.102   5.255 -0.2866  0.5726  0.2464
 4530SOL    HW213828   2.178   4.998   5.332  0.3478 -0.5503 -0.5903
 4531SOL     OW13829   2.094   0.658   5.403  0.7968 -0.1787 -0.5621
 4531SOL    HW113830   2.062   0.568   5.397 -1.4585  0.6280 -1.5807
 4531SOL    HW213831   2.148   0.669   5.324  0.7301 -0.5006 -0.6550
 4532SOL     OW13832   2.065   1.613   3.520  0.3837 -0.2152 -0.1848
 4532SOL    HW113833   2.103   1.531   3.488 -0.0906 -1.4756  2.2421
 4532SOL    HW213834   2.133   1.650   3.576 -0.4593 -0.4929  1.0649
 4533SOL     OW13835   5.254   3.303   4.660 -0.3608 -0.0258 -0.2703
 4533SOL    HW113836   5.208   3.308   4.576  2.9758 -1.7881 -2.3999
 4533SOL    HW213837   5.248   3.211   4.685  0.1313  0.1575  0.5614
 4534SOL     OW13838   5.304   3.532   2.388  0.1898  0.1304 -0.3042
 4534SOL    HW113839   5.368   3.469   2.355 -0.2589 -0.4024 -0.1809
 4534SOL    HW213840   5.346   3.572   2.464  0.5530  0.1089 -0.4947
 4535SOL     OW13841   3.558   1.495   3.667  0.8513  0.6676 -0.2631
 4535SOL    HW113842   3.589   1.580   3.699  0.5240  0.5034  0.5080
 4535SOL    HW213843   3.481   1.476   3.720 -0.1420  0.7094 -1.6202
 4536SOL     OW13844   1.144   5.842   1.238 -0.0431 -0.0525 -0.3275
 4536SOL    HW113845   1.232   5.878   1.233 -0.2755  0.8908  1.5155
 4536SOL    HW213846   1.156   5.747   1.232  0.9395  0.1262 -1.4486
 4537SOL     OW13847   4.396   0.577   0.297 -0.3628  0.2938  0.1249
 4537SOL    HW113848   4.381   0.557   0.205 -2.8891 -0.4542  0.6248
 4537SOL    HW213849   4.352   0.662   0.311  0.1065  0.4645  0.6185
 4538SOL     OW13850   4.917   4.171   2.633  0.0824  0.3310 -0.0689
 4538SOL    HW113851   4.897   4.163   2.539  2.7826  0.7628 -0.7703
 4538SOL    HW213852   4.969   4.251   2.639  0.6954 -0.1696  1.6551
 4539SOL     OW13853   4.327   4.754   6.012  0.0602  0.4893 -0.1184
 4539SOL    HW113854   4.343   4.665   5.978 -0.9317  0.3911 -0.3545
 4539SOL    HW213855   4.394   4.807   5.969 -1.4926  0.4682 -2.7604
 4540SOL     OW13856   2.670   4.984   4.682  0.1258 -0.0216  0.0309
 4540SOL    HW113857   2.751   4.940   4.706  0.0894  1.1004  2.5728
 4540SOL    HW213858   2.608   4.958   4.751 -0.9122  1.1698 -0.4175
 4541SOL     OW13859   3.273   4.291   5.358 -0.2407 -0.3037 -0.5098
 4541SOL    HW113860   3.290   4.380   5.388 -2.3942  0.0521 -0.2108
 4541SOL    HW213861   3.270   4.298   5.263 -3.1311  0.5675 -0.4388
 4542SOL     OW13862   6.124   0.924   1.288  0.4376  0.3314 -0.0775
 4542SOL    HW113863   6.192   0.962   1.343  0.3927  0.0127  0.2071
 4542SOL    HW213864   6.055   0.899   1.349 -0.4276  1.6723 -0.4837
 4543SOL     OW13865   0.858   4.538   0.860  0.0073 -0.6568 -0.2201
 4543SOL    HW113866   0.903   4.487   0.927  0.2707 -1.3717 -0.9283
 4543SOL    HW213867   0.923   4.602   0.831  0.4191 -1.3370 -0.8565
 4544SOL     OW13868   4.275   1.090   5.980  0.5177  0.6360  0.3011
 4544SOL    HW113869   4.283   1.030   5.905  0.9876 -0.6821  1.3570
 4544SOL    HW213870   4.347   1.152   5.969 -0.1270  1.1977 -0.9529
 4545SOL     OW13871   3.993   1.767   5.947  0.0278 -0.4080  0.5732
 4545SOL    HW113872   3.929   1.744   6.015 -1.6347  2.1368  0.0139
 4545SOL    HW213873   3.963   1.851   5.914  2.0148 -0.5521 -1.8664
 4546SOL     OW13874   5.208   3.301   5.451 -0.0050  0.1901 -0.4238
 4546SOL    HW113875   5.276   3.259   5.399 -1.3997  0.2675 -2.4099
 4546SOL    HW213876   5.201   3.247   5.530  3.6158  1.2704  0.8170
 4547SOL     OW13877   4.293   0.556   2.038 -0.1046  0.4571  0.3701
 4547SOL    HW113878   4.387   0.564   2.024  0.1361 -1.5579  0.6112
 4547SOL    HW213879   4.263   0.646   2.052  1.9130  1.0564  1.1208
 4548SOL     OW13880   0.069   4.978   4.700 -0.1047  0.1939  0.1883
 4548SOL    HW113881  -0.009   5.033   4.716  0.1222  0.4179  0.5402
 4548SOL    HW213882   0.071   4.967   4.605 -0.9157 -0.3236  0.2201
 4549SOL     OW13883   5.987   4.263   0.693 -0.5577  0.0865 -0.2511
 4549SOL    HW113884   5.997   4.282   0.600  3.7717 -0.7577 -0.1540
 4549SOL    HW213885   5.996   4.348   0.736 -0.1984  0.1717 -0.4931
 4550SOL     OW13886   3.636   2.566   4.093 -0.5620  0.1942 -0.1656
 4550SOL    HW113887   3.591   2.506   4.153  0.2785  0.2826  0.5582
 4550SOL    HW213888   3.687   2.509   4.036  1.4798  0.2193  1.5108
 4551SOL     OW13889   2.437   3.120   0.336  0.4310  0.0515 -0.2923
 4551SOL    HW113890   2.459   3.182   0.406 -0.2185 -0.5254  0.4273
 4551SOL    HW213891   2.454   3.170   0.256 -0.8954  1.4914  0.2599
 4552SOL     OW13892   3.593   0.911   0.474  0.0457  0.0690  0.4104
 4552SOL    HW113893   3.614   0.962   0.553  0.3422  1.1531 -0.3465
 4552SOL    HW213894   3.523   0.852   0.502 -0.3883  0.9685  1.3004
 4553SOL     OW13895   2.953   5.672   2.896  0.3252  0.1567  0.1437
 4553SOL    HW113896   3.041   5.664   2.934 -0.1477  1.8831  1.6839
 4553SOL    HW213897   2.952   5.759   2.855 -0.8720  0.4328  0.7241
 4554SOL     OW13898   3.375   1.446   3.855 -0.2443  0.6039  0.5023
 4554SOL    HW113899   3.382   1.405   3.941  1.0556  0.8884  0.5573
 4554SOL    HW213900   3.286   1.479   3.851 -0.9478 -1.1176  0.9470
 4555SOL     OW13901   1.196   0.409   0.046  0.1410  0.2636 -0.8098
 4555SOL    HW113902   1.114   0.388   0.090  1.0900  0.3944  1.1514
 4555SOL    HW213903   1.185   0.499   0.016 -0.5647  0.1414 -0.9265
 4556SOL     OW13904   0.538   2.695   0.158 -0.1085 -0.2646  0.4064
 4556SOL    HW113905   0.612   2.656   0.203  0.8801  1.1187  0.0485
 4556SOL    HW213906   0.575   2.734   0.079 -1.3913 -0.4248 -0.3130
 4557SOL     OW13907   1.640   5.407   0.402  0.0101 -0.5073 -0.9448
 4557SOL    HW113908   1.721   5.360   0.421  1.2578  2.2755  1.3153
 4557SOL    HW213909   1.595   5.412   0.486 -0.8261  0.9045 -1.4506
 4558SOL     OW13910   3.542   3.099   5.081  0.2153 -0.3359  0.0434
 4558SOL    HW113911   3.628   3.076   5.049  0.4400  0.9458 -0.3477
 4558SOL    HW213912   3.485   3.092   5.005  0.7503  2.7143 -0.7720
 4559SOL     OW13913   0.202   5.442   2.993  0.5088  0.2399 -0.0935
 4559SOL    HW113914   0.292   5.410   2.984  0.7220  1.0307 -0.8279
 4559SOL    HW213915   0.209   5.537   2.984 -0.5399  0.2233 -1.2399
 4560SOL     OW13916   4.314   1.766   2.455  0.2190 -0.6027  0.4783
 4560SOL    HW113917   4.383   1.831   2.440  0.3154 -0.8636 -0.2145
 4560SOL    HW213918   4.355   1.700   2.510  0.5851 -0.8608 -0.1032
 4561SOL     OW13919   1.619   1.592   2.355  0.2485  0.5882 -0.3192
 4561SOL    HW113920   1.670   1.607   2.276 -0.6622  0.2655 -0.9782
 4561SOL    HW213921   1.672   1.532   2.407 -0.2322 -1.1876 -1.7976
 4562SOL     OW13922   1.212   1.219   5.897 -0.6374 -0.4020  0.4187
 4562SOL    HW113923   1.236   1.181   5.813  0.1100 -0.4073  0.6267
 4562SOL    HW213924   1.284   1.196   5.956 -1.4336 -0.9264  1.2250
 4563SOL     OW13925   5.405   2.266   4.769  0.1439 -0.2738 -0.3672
 4563SOL    HW113926   5.409   2.318   4.689 -0.1272  0.0608 -0.1656
 4563SOL    HW213927   5.490   2.222   4.773  0.5303  0.4618 -0.3416
 4564SOL     OW13928   5.471   3.640   3.350 -0.0971 -0.8709 -0.5501
 4564SOL    HW113929   5.564   3.618   3.340 -0.0763 -0.6495 -0.8632
 4564SOL    HW213930   5.439   3.650   3.261 -0.0001  0.7435 -0.4372
 4565SOL     OW13931   0.247   2.580   2.276 -0.4727 -0.6540  0.1671
 4565SOL    HW113932   0.320   2.598   2.336 -0.2002 -0.9955 -0.0580
 4565SOL    HW213933   0.181   2.537   2.331 -1.4755  1.6741  0.9020
 4566SOL     OW13934   3.332   5.490   5.247 -0.0681  0.1450  0.1146
 4566SOL    HW113935   3.383   5.413   5.224 -0.1478  0.2558 -0.4365
 4566SOL    HW213936   3.373   5.523   5.327  0.3261 -0.1307  0.0263
 4567SOL     OW13937   0.558   3.635   2.387  0.0297  0.3248 -0.5754
 4567SOL    HW113938   0.594   3.557   2.344  0.6468  2.2275 -3.7999
 4567SOL    HW213939   0.588   3.708   2.333 -2.2278  2.6637  1.1278
 4568SOL     OW13940   0.631   0.337   4.973 -0.0760  0.1289  0.0723
 4568SOL    HW113941   0.648   0.335   5.067 -0.4200  0.1554  0.1363
 4568SOL    HW213942   0.706   0.384   4.936  0.9039 -1.3011  0.1444
 4569SOL     OW13943   0.288   5.637   4.631  0.0172 -0.4495 -0.2644
 4569SOL    HW113944   0.370   5.655   4.585 -0.8690  1.9264 -1.0328
 4569SOL    HW213945   0.311   5.643   4.724  0.9510 -1.1327 -0.4339
 4570SOL     OW13946   5.581   5.687   2.848  0.0007  0.5032 -0.2637
 4570SOL    HW113947   5.496   5.705   2.808  0.1755  0.2827 -0.7387
 4570SOL    HW213948   5.561   5.629   2.922 -0.2199  0.1418 -0.6050
 4571SOL     OW13949   2.719   4.312   3.079 -0.0345  0.0359  0.3172
 4571SOL    HW113950   2.693   4.275   2.994  1.4813  0.7514 -0.4952
 4571SOL    HW213951   2.704   4.241   3.141 -2.5268 -0.0600 -0.2620
 4572SOL     OW13952   0.743   1.037   5.836 -0.2162 -0.8022  0.5368
 4572SOL    HW113953   0.702   0.986   5.767  0.4800  2.3282 -2.4871
 4572SOL    HW213954   0.670   1.075   5.885 -0.8253 -0.3949 -0.6618
 4573SOL     OW13955   5.773   2.501   4.607  0.0207 -0.7157  0.1278
 4573SOL    HW113956   5.714   2.556   4.555  0.7217  0.7832  0.8725
 4573SOL    HW213957   5.771   2.539   4.694  1.8128 -0.8391  0.2652
 4574SOL     OW13958   6.068   2.609   3.189  0.4617  0.3263 -0.1433
 4574SOL    HW113959   5.979   2.641   3.173 -0.0470 -0.9097  0.0907
 4574SOL    HW213960   6.091   2.645   3.275  0.2431  0.7528 -0.2597
 4575SOL     OW13961   2.269   5.174   1.086  0.3994 -0.3454  0.2568
 4575SOL    HW113962   2.222   5.138   1.161  1.5096  0.8896  1.5989
 4575SOL    HW213963   2.277   5.101   1.025  0.7032 -1.7840  1.9418
 4576SOL     OW13964   0.343   5.383   0.438 -0.3718  0.1486  0.3988
 4576SOL    HW113965   0.395   5.457   0.472 -0.3871 -0.1758  1.1401
 4576SOL    HW213966   0.383   5.306   0.478 -0.5680 -0.2203 -0.1152
 4577SOL     OW13967   1.199   0.721   3.609  0.0268 -0.3791 -0.3349
 4577SOL    HW113968   1.248   0.670   3.673  2.1557 -0.4899 -1.9528
 4577SOL    HW213969   1.142   0.777   3.662 -0.4850 -2.5139  1.5456
 4578SOL     OW13970   3.207   5.984   2.836  0.4600 -0.5212 -0.2603
 4578SOL    HW113971   3.283   6.000   2.780 -0.1761 -1.5364 -1.4706
 4578SOL    HW213972   3.187   6.070   2.874 -0.0398  0.6285 -2.8888
 4579SOL     OW13973   4.588   4.411   3.230 -0.3791  0.0832 -0.3768
 4579SOL    HW113974   4.499   4.437   3.209 -0.8924  0.2177  1.7961
 4579SOL    HW213975   4.587   4.316   3.228  0.4050 -0.0002 -3.9049
 4580SOL     OW13976   1.436   2.841   3.803 -0.1078 -0.1912  0.4871
 4580SOL    HW113977   1.397   2.845   3.716 -2.3948 -0.4155  1.4532
 4580SOL    HW213978   1.408   2.756   3.839  0.0598  0.2724  1.7777
 4581SOL     OW13979   5.188   3.486   2.749  0.2538  0.3004  0.3612
 4581SOL    HW113980   5.260   3.547   2.764  0.7705 -0.3594  0.6472
 4581SOL    HW213981   5.160   3.459   2.836 -1.4206  1.7499  0.3080
 4582SOL     OW13982   4.632   0.371   4.579  0.1441  0.2282 -0.3535
 4582SOL    HW113983   4.555   0.402   4.532 -0.3356 -0.8178 -0.2964
 4582SOL    HW213984   4.644   0.281   4.547 -0.0072 -0.3984  1.2671
 4583SOL     OW13985   4.268   5.272   6.136 -0.3004  0.6864  0.2443
 4583SOL    HW113986   4.192   5.295   6.189  0.4960 -1.1518  2.3343
 4583SOL    HW213987   4.232   5.242   6.053 -1.7097  1.7780  0.4236
 4584SOL     OW13988   3.637   2.583   6.009 -0.1465  0.0408  0.0070
 4584SOL    HW113989   3.673   2.545   6.090  0.1861 -0.3094 -0.3001
 4584SOL    HW213990   3.612   2.507   5.957 -0.8093  0.2795 -0.0192
 4585SOL     OW13991   5.765   2.449   4.888  0.5259 -0.5019 -0.0588
 4585SOL    HW113992   5.746   2.363   4.926  0.8755 -0.0374  1.2196
 4585SOL    HW213993   5.786   2.504   4.963  1.6678  0.3602 -0.9821
 4586SOL     OW13994   0.866   2.590   4.251 -0.2303  0.1538  0.1865
 4586SOL    HW113995   0.892   2.672   4.294 -0.8325  0.4168  0.0654
 4586SOL    HW213996   0.866   2.611   4.157  2.1845 -0.7289 -0.0832
 4587SOL     OW13997   2.394   3.707   3.428 -1.3175  0.2109  0.6233
 4587SOL    HW113998   2.336   3.653   3.374  0.6024 -2.7544  1.3127
 4587SOL    HW213999   2.355   3.703   3.516  0.1810 -2.4745  1.2721
 4588SOL     OW14000   1.891   1.267   3.401 -0.2347  0.0812 -0.5941
 4588SOL    HW114001   1.857   1.198   3.459  0.0443  0.3910 -0.0509
 4588SOL    HW214002   1.975   1.233   3.370  0.0572  0.3055 -0.0678
 4589SOL     OW14003   4.590   5.141   1.320  0.1401 -0.2290  0.3471
 4589SOL    HW114004   4.599   5.066   1.260 -1.0906  0.9756 -1.4512
 4589SOL    HW214005   4.645   5.209   1.281 -0.7683  0.6143  0.5193
 4590SOL     OW14006   6.059   2.202   1.610  0.5558  0.0053 -0.7618
 4590SOL    HW114007   6.115   2.137   1.652 -1.3935 -1.0853  0.2910
 4590SOL    HW214008   6.038   2.165   1.525 -0.1841 -0.5374 -0.3463
 4591SOL     OW14009   0.090   6.092   4.202  0.6269  0.8224  0.1396
 4591SOL    HW114010   0.091   6.027   4.132 -0.0872  1.7370 -0.7563
 4591SOL    HW214011   0.034   6.162   4.168  0.5418  1.4352  1.5015
 4592SOL     OW14012   3.764   2.519   5.353 -0.0674 -0.9298  0.1374
 4592SOL    HW114013   3.674   2.488   5.362 -0.5011 -0.2150 -1.3477
 4592SOL    HW214014   3.803   2.461   5.287 -0.4130  0.6049 -1.4919
 4593SOL     OW14015   2.117   0.995   5.559 -0.5040 -0.2387  0.3659
 4593SOL    HW114016   2.185   0.936   5.592  1.2081  0.3802 -1.8396
 4593SOL    HW214017   2.149   1.083   5.581  0.2941  0.1430 -2.0997
 4594SOL     OW14018   3.558   1.513   3.396  0.2241  0.1645  0.2473
 4594SOL    HW114019   3.539   1.422   3.370 -2.9347  0.1199  2.0938
 4594SOL    HW214020   3.551   1.512   3.492  0.6938  2.2829  0.3567
 4595SOL     OW14021   4.267   0.776   5.174 -0.3738 -0.1791  0.3122
 4595SOL    HW114022   4.182   0.815   5.194 -0.1841  0.4797 -0.1622
 4595SOL    HW214023   4.323   0.849   5.150 -0.1510 -0.7710 -1.0920
 4596SOL     OW14024   5.206   4.719   5.283 -0.0941 -0.5379 -0.4153
 4596SOL    HW114025   5.212   4.802   5.235  1.1392 -0.6107 -0.4263
 4596SOL    HW214026   5.127   4.727   5.336  1.2887  1.7005  1.4873
 4597SOL     OW14027   2.944   4.441   2.959  0.0731 -0.2474  0.8148
 4597SOL    HW114028   2.992   4.379   3.013  1.2361 -1.2936 -1.2944
 4597SOL    HW214029   2.855   4.440   2.994  0.7468 -0.8762  2.6421
 4598SOL     OW14030   2.646   4.637   3.881 -0.1853  0.2724 -0.3247
 4598SOL    HW114031   2.606   4.577   3.817 -0.3903  0.3491 -0.2686
 4598SOL    HW214032   2.590   4.631   3.958  0.4067 -0.2892  0.0757
 4599SOL     OW14033   2.211   5.808   1.893 -0.4473 -0.0678 -0.0394
 4599SOL    HW114034   2.275   5.833   1.826  1.8069  0.1269  2.0359
 4599SOL    HW214035   2.154   5.884   1.901  0.4909  0.7003 -0.4040
 4600SOL     OW14036   4.868   3.781   1.009 -0.5527  0.2249  0.2088
 4600SOL    HW114037   4.886   3.729   1.088  0.7389 -0.2503 -0.3802
 4600SOL    HW214038   4.880   3.720   0.937 -0.2603  1.0272 -0.4335
 4601SOL     OW14039   0.352   4.495   5.566 -0.5988  0.0640  0.3913
 4601SOL    HW114040   0.430   4.440   5.573  0.5958  1.3887 -1.5838
 4601SOL    HW214041   0.307   4.463   5.487 -0.9893  0.5879  0.3958
 4602SOL     OW14042   1.099   6.152   3.079 -0.0845 -0.4798 -0.2426
 4602SOL    HW114043   1.182   6.105   3.065  1.3649  0.8938  2.7319
 4602SOL    HW214044   1.120   6.244   3.063 -1.5081 -0.2675 -1.0277
 4603SOL     OW14045   0.062   0.183   2.827 -0.2076  0.3444  0.0438
 4603SOL    HW114046   0.116   0.130   2.886  1.4092 -0.4928 -2.0591
 4603SOL    HW214047  -0.015   0.130   2.811  1.6075 -1.7771 -2.4147
 4604SOL     OW14048   3.204   2.380   4.750 -0.0488 -0.1779  0.0003
 4604SOL    HW114049   3.243   2.467   4.745 -0.0633  0.0119  2.3789
 4604SOL    HW214050   3.153   2.380   4.831 -0.2549 -2.3278 -0.0620
 4605SOL     OW14051   2.511   2.992   4.943  0.1761 -0.2561 -0.6489
 4605SOL    HW114052   2.541   2.948   5.022 -1.2159 -1.3320 -0.6790
 4605SOL    HW214053   2.498   3.083   4.969  3.3969  0.3140 -0.6579
 4606SOL     OW14054   1.660   5.402   4.818  0.3331 -0.6208 -0.3822
 4606SOL    HW114055   1.748   5.408   4.781  0.8361  0.0817  0.8733
 4606SOL    HW214056   1.668   5.339   4.890 -0.3446 -1.0214 -0.6393
 4607SOL     OW14057   3.983   2.180   3.284 -0.5918 -0.1491  0.2517
 4607SOL    HW114058   3.890   2.193   3.266 -0.8552  0.6943  1.9738
 4607SOL    HW214059   4.026   2.258   3.248 -1.0044  1.0966  2.2804
 4608SOL     OW14060   1.050   1.537   5.268 -0.2435  0.3421 -0.1719
 4608SOL    HW114061   0.987   1.466   5.281 -0.4215  0.4227 -0.5776
 4608SOL    HW214062   1.019   1.608   5.324 -1.1414  0.7754 -1.2001
 4609SOL     OW14063   4.336   5.480   5.284 -0.0634 -0.7409 -0.0453
 4609SOL    HW114064   4.306   5.507   5.197 -1.8876  0.9788  1.0225
 4609SOL    HW214065   4.406   5.541   5.305 -0.2490 -0.5598  0.0505
 4610SOL     OW14066   1.338   4.362   3.534  0.0693 -0.0110  0.3743
 4610SOL    HW114067   1.352   4.368   3.439 -0.1793  0.3084  0.3551
 4610SOL    HW214068   1.331   4.268   3.551 -0.1245 -0.0630  0.0367
 4611SOL     OW14069   0.494   0.218   4.761 -0.0221 -0.0649  0.4184
 4611SOL    HW114070   0.418   0.271   4.736  0.3929  0.1379 -0.4555
 4611SOL    HW214071   0.549   0.278   4.813  0.2546  0.2518 -0.2284
 4612SOL     OW14072   2.343   3.203   6.113 -0.3079  0.1208  0.3880
 4612SOL    HW114073   2.419   3.232   6.062  0.6255  0.7542  2.0494
 4612SOL    HW214074   2.329   3.274   6.177 -2.3218  0.0213  0.1169
 4613SOL     OW14075   3.393   5.026   5.036  0.0672  0.1286 -0.0068
 4613SOL    HW114076   3.464   4.970   5.068 -0.7520 -0.8438  0.1571
 4613SOL    HW214077   3.399   5.019   4.940 -0.7063 -1.1465  0.0190
 4614SOL     OW14078   0.573   3.847   3.872  0.2413  0.2775 -0.4603
 4614SOL    HW114079   0.651   3.796   3.848  0.0156  0.0173 -0.6555
 4614SOL    HW214080   0.513   3.834   3.799  0.0817  0.6207 -0.3905
 4615SOL     OW14081   2.906   0.175   3.937  0.2601  0.1098  0.0993
 4615SOL    HW114082   2.884   0.107   3.873  1.3524 -1.8279  1.6849
 4615SOL    HW214083   2.956   0.239   3.886  0.8199 -1.1992 -1.0908
 4616SOL     OW14084   0.130   2.718   4.064 -0.0188  0.2871  0.2404
 4616SOL    HW114085   0.160   2.779   4.130 -0.1451 -0.3512  0.9039
 4616SOL    HW214086   0.209   2.692   4.017 -0.1467  2.0509 -1.0213
 4617SOL     OW14087   4.961   1.710   3.692  0.4330 -0.3122  0.2701
 4617SOL    HW114088   5.023   1.637   3.687  0.7407  0.0097 -0.9784
 4617SOL    HW214089   4.965   1.751   3.605 -2.8330 -1.3503 -0.5114
 4618SOL     OW14090   2.335   1.478   4.914  0.5132 -0.0979 -0.0064
 4618SOL    HW114091   2.426   1.497   4.891  0.8975 -1.3872  0.3244
 4618SOL    HW214092   2.312   1.544   4.978  1.4667 -0.1672  0.4288
 4619SOL     OW14093   2.087   3.890   1.845 -0.2051 -0.0771  0.2177
 4619SOL    HW114094   2.051   3.802   1.839 -0.9067  0.2333 -0.1713
 4619SOL    HW214095   2.080   3.913   1.938  0.7273 -0.7314  0.4632
 4620SOL     OW14096   4.392   3.588   0.625 -0.3720  0.0148 -0.5548
 4620SOL    HW114097   4.321   3.633   0.670 -1.0873 -1.7142  0.1380
 4620SOL    HW214098   4.400   3.632   0.541 -2.3490  0.1540 -0.6986
 4621SOL     OW14099   1.735   2.143   1.868  0.0272 -0.1175  0.4443
 4621SOL    HW114100   1.652   2.185   1.890 -0.4260 -0.6717 -0.1875
 4621SOL    HW214101   1.800   2.190   1.921 -0.6666  0.3909  0.8615
 4622SOL     OW14102   0.505   3.103   3.621  0.0323  0.1955 -0.3495
 4622SOL    HW114103   0.466   3.025   3.662  0.9004  0.1051  0.3235
 4622SOL    HW214104   0.436   3.168   3.623 -0.2425 -0.1076  0.4122
 4623SOL     OW14105   0.974   5.755   0.554  0.0464 -0.0633  0.2261
 4623SOL    HW114106   1.013   5.838   0.524  0.3344  0.1536  1.1800
 4623SOL    HW214107   0.910   5.733   0.485  1.2174  0.0231 -0.9260
 4624SOL     OW14108   0.842   4.096   2.267 -0.4449 -0.4504 -0.1456
 4624SOL    HW114109   0.844   4.077   2.173  1.9859  1.0398 -0.4652
 4624SOL    HW214110   0.909   4.040   2.305 -0.1063  0.2964  0.3870
 4625SOL     OW14111   3.122   2.324   0.746 -0.6620 -0.8174  0.0591
 4625SOL    HW114112   3.190   2.367   0.799 -0.5498 -1.0430  0.0969
 4625SOL    HW214113   3.159   2.239   0.724 -0.0808 -0.1751 -1.6400
 4626SOL     OW14114   5.128   4.179   1.158  0.4199  0.2390 -0.0555
 4626SOL    HW114115   5.180   4.178   1.078 -0.3918 -1.9606 -0.6134
 4626SOL    HW214116   5.165   4.108   1.211 -0.4390  0.2641  0.5975
 4627SOL     OW14117   4.539   0.878   2.596 -0.5814 -0.3311  0.6248
 4627SOL    HW114118   4.582   0.815   2.539  0.6771 -1.2603  2.5064
 4627SOL    HW214119   4.445   0.867   2.577 -0.2508 -1.0447 -0.7635
 4628SOL     OW14120   5.693   1.871   0.888 -0.1514 -0.0546  0.1251
 4628SOL    HW114121   5.786   1.886   0.873 -0.1789 -0.7136 -0.7729
 4628SOL    HW214122   5.649   1.925   0.822 -0.4252  0.3460  0.6209
 4629SOL     OW14123   2.553   5.636   0.405 -0.1183  0.2996 -0.2215
 4629SOL    HW114124   2.622   5.676   0.352 -0.3080 -1.1369 -1.6099
 4629SOL    HW214125   2.483   5.616   0.344  0.0559 -2.3274  0.2985
 4630SOL     OW14126   4.227   5.272   0.555 -0.7626 -0.5603 -0.1685
 4630SOL    HW114127   4.181   5.304   0.633 -2.4217 -1.5559 -0.7021
 4630SOL    HW214128   4.158   5.245   0.495  0.4274  0.8619 -2.3389
 4631SOL     OW14129   6.106   5.085   3.162 -0.3253 -0.1066 -0.1447
 4631SOL    HW114130   6.048   5.011   3.145 -1.9815  1.0746  0.1544
 4631SOL    HW214131   6.162   5.056   3.234 -0.5877 -1.2472 -0.3859
 4632SOL     OW14132   4.395   2.260   3.587 -0.6616 -0.2239  0.3291
 4632SOL    HW114133   4.338   2.183   3.592 -1.6008  0.3037 -1.2975
 4632SOL    HW214134   4.350   2.319   3.525  1.6646  0.1845 -1.1008
 4633SOL     OW14135   4.037   0.880   5.291 -0.3857  0.6694 -0.1440
 4633SOL    HW114136   4.040   0.947   5.223  0.3881  0.2526 -0.5310
 4633SOL    HW214137   3.948   0.845   5.287  0.0806 -0.4269 -2.0215
 4634SOL     OW14138   6.062   4.477   6.004 -0.1353  0.1648  0.0966
 4634SOL    HW114139   6.132   4.428   5.960 -0.7183 -0.2115 -0.4359
 4634SOL    HW214140   6.048   4.554   5.950 -0.6973 -0.1813 -0.2532
 4635SOL     OW14141   3.206   1.713   1.956  0.3931  0.0066 -0.3646
 4635SOL    HW114142   3.214   1.622   1.926  1.2746 -0.1887  0.4358
 4635SOL    HW214143   3.277   1.759   1.910 -0.7452  0.5546 -1.6547
 4636SOL     OW14144   2.626   3.769   1.538 -0.3132  0.2040  0.7638
 4636SOL    HW114145   2.553   3.816   1.580 -1.6112 -0.4315 -0.7116
 4636SOL    HW214146   2.594   3.680   1.527 -0.4659  0.5528 -2.4455
 4637SOL     OW14147   4.486   0.500   1.544 -0.3477 -0.3549  0.0911
 4637SOL    HW114148   4.455   0.549   1.620  1.0243  1.8939 -0.7027
 4637SOL    HW214149   4.419   0.515   1.477 -0.1311  0.1305 -0.0228
 4638SOL     OW14150   1.834   4.702   1.679 -0.2974  0.0758  0.2066
 4638SOL    HW114151   1.917   4.719   1.635  0.3619 -0.0256  1.3890
 4638SOL    HW214152   1.846   4.619   1.724 -0.7913  0.4185  0.9870
 4639SOL     OW14153   2.014   4.610   5.128 -0.2631 -0.3377 -0.2680
 4639SOL    HW114154   2.049   4.577   5.045 -1.1803 -0.0048 -0.8032
 4639SOL    HW214155   2.081   4.670   5.161 -0.4118  0.4633 -1.3854
 4640SOL     OW14156   1.321   3.542   5.969  0.0349  0.0832  0.2971
 4640SOL    HW114157   1.412   3.547   5.998  0.6484 -1.9682 -1.0546
 4640SOL    HW214158   1.279   3.483   6.031  0.5557 -1.7640 -1.0291
 4641SOL     OW14159   5.345   0.502   4.318 -0.0462  0.6037  0.4178
 4641SOL    HW114160   5.356   0.406   4.319  0.5204  0.6600  0.1616
 4641SOL    HW214161   5.431   0.535   4.291  0.3711  1.2902  2.4490
 4642SOL     OW14162   4.263   3.511   1.379  0.7214  0.1713 -0.2119
 4642SOL    HW114163   4.204   3.525   1.305 -0.7678 -0.4599  0.7989
 4642SOL    HW214164   4.244   3.422   1.408  1.5230  0.2844  0.7161
 4643SOL     OW14165   1.682   1.916   3.338  0.3434 -0.2902 -0.0923
 4643SOL    HW114166   1.705   1.983   3.402  0.6798  0.3399 -0.8675
 4643SOL    HW214167   1.636   1.849   3.389 -0.9416  1.0042  0.5263
 4644SOL     OW14168   2.654   3.025   3.680 -0.0785 -0.7649  0.0568
 4644SOL    HW114169   2.620   2.997   3.595  0.2229 -0.1857 -0.2659
 4644SOL    HW214170   2.746   3.044   3.663 -0.1363 -0.1541  0.3882
 4645SOL     OW14171   2.611   5.677   5.143 -0.5780  0.0746 -0.8861
 4645SOL    HW114172   2.646   5.606   5.088 -0.0186 -0.3167 -0.0400
 4645SOL    HW214173   2.646   5.757   5.102 -1.3779 -0.0949 -1.9644
 4646SOL     OW14174   2.272   5.549   1.842  0.0084  0.3722  0.7093
 4646SOL    HW114175   2.350   5.544   1.787  1.3913 -0.6344  2.6235
 4646SOL    HW214176   2.268   5.640   1.870  0.1379  0.5578  0.1389
 4647SOL     OW14177   0.979   4.453   5.266  0.1431 -0.1916 -0.2979
 4647SOL    HW114178   1.026   4.450   5.183  1.2029 -0.1410  0.2755
 4647SOL    HW214179   1.041   4.493   5.327 -0.6797 -0.0578  0.4822
 4648SOL     OW14180   5.292   3.770   5.881  0.0438 -0.3463  0.0400
 4648SOL    HW114181   5.344   3.699   5.918  0.3795 -0.9824 -1.5731
 4648SOL    HW214182   5.201   3.743   5.893  0.0757  0.2013  1.7728
 4649SOL     OW14183   1.158   2.348   5.409  0.0707 -0.0334 -0.0874
 4649SOL    HW114184   1.075   2.372   5.367  0.3461  2.1158  0.5078
 4649SOL    HW214185   1.136   2.338   5.502 -0.4150 -4.1859 -0.4417
 4650SOL     OW14186   3.067   3.433   1.858 -0.4266 -0.1334  0.1509
 4650SOL    HW114187   3.121   3.512   1.871  1.0515 -1.1881  0.6398
 4650SOL    HW214188   3.065   3.392   1.945 -0.0661 -1.3119 -0.3835
 4651SOL     OW14189   6.033   1.650   4.184  0.4689 -0.5038  0.0025
 4651SOL    HW114190   6.062   1.568   4.223  0.0580 -1.3671 -1.4060
 4651SOL    HW214191   6.100   1.671   4.119  0.1081 -0.2453 -0.2954
 4652SOL     OW14192   2.721   2.369   4.453  0.3579  0.4173 -0.2616
 4652SOL    HW114193   2.696   2.289   4.406  0.1012  0.2384  0.1825
 4652SOL    HW214194   2.715   2.346   4.545  1.1693  0.6799 -0.1321
 4653SOL     OW14195   3.769   5.654   3.321  0.0879  0.3860  0.6827
 4653SOL    HW114196   3.755   5.748   3.307  1.0424  0.3128 -1.0503
 4653SOL    HW214197   3.743   5.639   3.412  1.6492  2.6950  1.6240
 4654SOL     OW14198   4.079   2.528   2.964  0.3291 -0.3102  0.0465
 4654SOL    HW114199   4.029   2.607   2.982  0.8382 -0.3549  1.9022
 4654SOL    HW214200   4.116   2.541   2.877 -1.3302  0.5378 -0.5643
 4655SOL     OW14201   3.992   2.118   5.163  0.4555 -0.7015 -0.3655
 4655SOL    HW114202   4.087   2.125   5.172  0.6355 -3.9041  1.8981
 4655SOL    HW214203   3.974   2.025   5.176 -2.9625 -0.3352 -1.5794
 4656SOL     OW14204   4.830   4.013   5.216  0.3942  0.1302 -0.1984
 4656SOL    HW114205   4.739   3.987   5.208  0.4014  0.3452 -1.1721
 4656SOL    HW214206   4.876   3.958   5.152  0.8164  0.5858 -0.2962
 4657SOL     OW14207   2.689   4.923   4.337  0.2239 -0.3443  0.2014
 4657SOL    HW114208   2.640   4.949   4.415 -0.2565  0.1189 -0.2495
 4657SOL    HW214209   2.628   4.867   4.289  0.4255 -0.4101  0.0215
 4658SOL     OW14210   2.918   2.906   5.724  0.1648 -0.8446  0.0013
 4658SOL    HW114211   2.963   2.822   5.722  1.8707  0.0290 -0.8301
 4658SOL    HW214212   2.985   2.970   5.701 -1.3710  0.6139 -0.7023
 4659SOL     OW14213   4.954   4.978   3.813 -0.3842  0.0901  0.4021
 4659SOL    HW114214   4.977   4.885   3.816 -0.1908  0.0603 -1.3014
 4659SOL    HW214215   4.860   4.979   3.795 -0.3161  0.2259  0.0502
 4660SOL     OW14216   1.634   4.347   3.059 -0.5846  0.3954  0.6396
 4660SOL    HW114217   1.564   4.407   3.035  0.0413  0.5817 -0.8329
 4660SOL    HW214218   1.713   4.402   3.063 -0.2270 -0.1011  0.5615
 4661SOL     OW14219   3.102   5.292   1.867 -0.3778  0.2345  0.0845
 4661SOL    HW114220   3.122   5.220   1.808  1.3652  0.2997  0.5481
 4661SOL    HW214221   3.034   5.342   1.822 -0.3209 -0.6775 -1.0511
 4662SOL     OW14222   5.815   5.334   3.020  0.7053 -0.3032 -0.6721
 4662SOL    HW114223   5.867   5.314   3.098  0.2607  1.2522  0.0508
 4662SOL    HW214224   5.724   5.330   3.049  0.5661  2.0503 -0.5966
 4663SOL     OW14225   5.393   4.946   5.939  0.2844 -0.3518  0.0224
 4663SOL    HW114226   5.479   4.909   5.960  0.6309  0.5276  0.2136
 4663SOL    HW214227   5.334   4.909   6.004  0.3913 -1.4531 -0.4955
 4664SOL     OW14228   2.475   5.171   2.294 -0.0490 -0.1261  0.1573
 4664SOL    HW114229   2.469   5.221   2.213 -1.3446  0.1932  0.4296
 4664SOL    HW214230   2.398   5.115   2.294  1.0270 -1.6554  0.1968
 4665SOL     OW14231   5.856   0.184   3.733 -0.4690  0.0843 -0.2746
 4665SOL    HW114232   5.784   0.204   3.674 -0.8319  0.0783  0.1591
 4665SOL    HW214233   5.858   0.088   3.736  0.3942  0.0529 -1.2909
 4666SOL     OW14234   2.691   2.380   1.897  0.0664  0.3487  0.6045
 4666SOL    HW114235   2.764   2.442   1.889  2.0403 -1.9377 -0.4629
 4666SOL    HW214236   2.660   2.370   1.807 -2.6584  2.3485  1.1951
 4667SOL     OW14237   3.981   3.502   2.141 -0.1317 -0.0676 -0.0130
 4667SOL    HW114238   4.039   3.493   2.216 -0.3134  0.1675  0.1562
 4667SOL    HW214239   3.940   3.416   2.132 -0.7551  0.1466  0.6864
 4668SOL     OW14240   5.844   2.317   1.751 -0.4475 -0.3559 -0.1310
 4668SOL    HW114241   5.810   2.388   1.696 -0.6385 -1.6277 -1.7253
 4668SOL    HW214242   5.930   2.297   1.716  0.4704  0.3903  1.5839
 4669SOL     OW14243   0.832   1.995   5.885 -0.0385 -0.1815 -0.3154
 4669SOL    HW114244   0.802   2.050   5.958 -1.5298  1.1389 -1.8399
 4669SOL    HW214245   0.758   1.938   5.866  0.5358 -0.8852 -0.4645
 4670SOL     OW14246   3.965   4.056   0.936  0.4449 -0.0305  0.1966
 4670SOL    HW114247   4.053   4.039   0.901  0.2108 -0.7214 -0.0744
 4670SOL    HW214248   3.908   4.049   0.859  0.1851  0.6934  0.3243
 4671SOL     OW14249   0.475   5.338   4.071  0.7401  0.1390  0.0136
 4671SOL    HW114250   0.493   5.377   4.156  2.3909 -1.9438  0.6752
 4671SOL    HW214251   0.431   5.256   4.090  1.2185 -0.4087 -1.1332
 4672SOL     OW14252   1.168   1.471   3.837 -0.0756 -0.0877 -0.2030
 4672SOL    HW114253   1.192   1.477   3.744  0.0288  1.1436 -0.1207
 4672SOL    HW214254   1.251   1.459   3.883  0.1596  1.5575 -0.1216
 4673SOL     OW14255   0.214   0.482   1.731  0.6259  0.2369  0.0341
 4673SOL    HW114256   0.210   0.462   1.825  0.8019 -2.4278 -0.4378
 4673SOL    HW214257   0.153   0.554   1.719 -0.6814 -0.4582  1.9753
 4674SOL     OW14258   4.927   5.231   4.095 -0.2407 -0.3761 -0.1803
 4674SOL    HW114259   4.929   5.289   4.019  0.1031  0.1918  0.2514
 4674SOL    HW214260   4.979   5.156   4.069  0.4005  0.0977 -0.2990
 4675SOL     OW14261   4.909   1.157   0.111  0.0495  0.0264  0.3497
 4675SOL    HW114262   4.867   1.122   0.190 -0.7242 -0.2613 -0.1819
 4675SOL    HW214263   4.888   1.094   0.042 -1.2243  1.4060 -0.5942
 4676SOL     OW14264   1.477   3.213   2.071 -0.3912 -0.1728 -0.1506
 4676SOL    HW114265   1.455   3.210   1.978 -4.3186 -0.9778  0.5978
 4676SOL    HW214266   1.545   3.147   2.083  0.1030 -0.1356 -2.3959
 4677SOL     OW14267   3.434   0.830   1.875  0.2232 -0.6003 -0.5087
 4677SOL    HW114268   3.364   0.773   1.845  0.6905 -0.6903 -1.4437
 4677SOL    HW214269   3.514   0.778   1.867  0.3554 -0.7428  1.1990
 4678SOL     OW14270   0.170   5.571   1.953  0.1505 -0.3046  0.2040
 4678SOL    HW114271   0.138   5.481   1.940 -1.5960 -0.1520  2.6975
 4678SOL    HW214272   0.131   5.598   2.036 -0.1949  3.1433 -0.9312
 4679SOL     OW14273   2.391   6.116   1.168 -0.1388 -0.2348  0.7121
 4679SOL    HW114274   2.306   6.151   1.195 -0.9487 -0.9959 -0.7264
 4679SOL    HW214275   2.448   6.193   1.166 -1.1107  0.5130  0.5465
 4680SOL     OW14276   4.739   5.882   5.491  0.0230  0.0644 -0.2708
 4680SOL    HW114277   4.732   5.910   5.400 -1.3594  0.5107 -0.0481
 4680SOL    HW214278   4.773   5.793   5.487  2.0564  0.8083 -1.1104
 4681SOL     OW14279   4.267   5.652   1.272  0.7830  0.4496  0.2431
 4681SOL    HW114280   4.292   5.719   1.208  0.1634 -1.1687 -1.7947
 4681SOL    HW214281   4.319   5.575   1.248  0.5567 -0.2151  1.7280
 4682SOL     OW14282   2.706   0.220   3.548 -0.3455  0.5989  0.0912
 4682SOL    HW114283   2.696   0.219   3.453  0.1069 -0.0938  0.0429
 4682SOL    HW214284   2.656   0.297   3.577 -0.5781  0.7491 -0.6902
 4683SOL     OW14285   0.410   2.283   4.958  0.2292 -0.2013  0.1487
 4683SOL    HW114286   0.378   2.237   5.036 -0.7664  0.0892 -0.0721
 4683SOL    HW214287   0.407   2.218   4.888 -0.4878 -0.0071 -0.0066
 4684SOL     OW14288   4.008   5.150   2.070 -0.4630  0.2213  0.3481
 4684SOL    HW114289   4.082   5.178   2.122 -0.5406  0.5946  0.2566
 4684SOL    HW214290   4.030   5.174   1.980 -0.3063 -0.4664  0.1927
 4685SOL     OW14291   1.155   1.982   0.028  0.0601 -0.5188  0.3301
 4685SOL    HW114292   1.143   2.063  -0.021  3.3904 -0.6145 -0.8722
 4685SOL    HW214293   1.188   2.010   0.113  1.1399 -0.5485 -0.0597
 4686SOL     OW14294   5.953   2.868   5.583  0.1962 -0.3758 -0.0553
 4686SOL    HW114295   5.960   2.963   5.582 -1.0396 -0.2633  0.0301
 4686SOL    HW214296   5.927   2.847   5.673  2.1693 -0.9641  0.4221
 4687SOL     OW14297   5.877   4.161   0.377 -0.2215 -0.0584 -0.1654
 4687SOL    HW114298   5.912   4.250   0.390  0.8280 -0.7242  2.0652
 4687SOL    HW214299   5.819   4.169   0.302 -0.1106  2.5132 -0.0640
 4688SOL     OW14300   1.415   3.363   4.264 -0.1520 -0.5907 -0.3784
 4688SOL    HW114301   1.328   3.400   4.281 -0.2092 -0.5966 -0.6649
 4688SOL    HW214302   1.414   3.342   4.171  0.3768 -0.0308 -0.5134
 4689SOL     OW14303   4.100   1.272   0.372  0.0596 -0.3899  0.2731
 4689SOL    HW114304   4.012   1.268   0.409  0.2863 -1.3869  0.7381
 4689SOL    HW214305   4.088   1.254   0.279 -0.4630  1.6643 -0.1022
 4690SOL     OW14306   1.034   5.574   1.252  0.6861 -0.0965  0.1128
 4690SOL    HW114307   0.952   5.529   1.274  0.7392  0.0965  0.7216
 4690SOL    HW214308   1.040   5.567   1.157 -0.5914  0.8401 -0.0552
 4691SOL     OW14309   3.032   1.905   4.113 -0.6766  0.3580  0.2807
 4691SOL    HW114310   2.982   1.937   4.037 -1.4563 -1.0476  0.1751
 4691SOL    HW214311   3.122   1.930   4.094 -0.7591 -0.4638 -1.4158
 4692SOL     OW14312   2.150   5.417   0.986  0.0556  0.1012  0.2253
 4692SOL    HW114313   2.206   5.348   1.023  0.8663 -0.1406 -1.3542
 4692SOL    HW214314   2.174   5.496   1.034  0.3432 -0.3906  0.9054
 4693SOL     OW14315   0.466   4.873   3.528 -0.2051  0.7423  0.1507
 4693SOL    HW114316   0.527   4.896   3.458  0.7732 -3.3134 -0.5800
 4693SOL    HW214317   0.518   4.824   3.591 -2.0055  0.2272  1.3344
 4694SOL     OW14318   0.253   5.443   2.611 -0.5223 -0.0926  0.1889
 4694SOL    HW114319   0.167   5.451   2.653 -0.0325  2.0867  0.8824
 4694SOL    HW214320   0.292   5.365   2.652 -1.2385  0.2599  1.6261
 4695SOL     OW14321   3.311   4.188   4.654  0.0188 -0.6951  0.8309
 4695SOL    HW114322   3.323   4.144   4.738  1.2677 -0.2339  0.9103
 4695SOL    HW214323   3.234   4.244   4.668  0.8500  0.2133  2.0564
 4696SOL     OW14324   0.065   2.504   4.736  0.9904 -0.0050  0.4428
 4696SOL    HW114325   0.146   2.465   4.704  0.4206 -0.7205 -0.1685
 4696SOL    HW214326   0.074   2.504   4.831  0.1215 -3.7233  0.6557
 4697SOL     OW14327   4.794   0.502   0.446  0.1007 -0.4344  0.6697
 4697SOL    HW114328   4.889   0.513   0.448  0.1933 -1.2191  1.1717
 4697SOL    HW214329   4.759   0.589   0.468  0.7464 -0.5581  2.3792
 4698SOL     OW14330   3.375   1.200   2.247  0.5415 -0.2370  0.0713
 4698SOL    HW114331   3.356   1.149   2.168  1.7055 -0.6995  0.0750
 4698SOL    HW214332   3.444   1.260   2.221  2.4847 -1.8471  1.2457
 4699SOL     OW14333   5.969   1.822   1.065 -0.7499 -0.3605 -0.6580
 4699SOL    HW114334   5.984   1.834   0.971  0.3017 -0.3754 -0.5048
 4699SOL    HW214335   5.961   1.727   1.076 -0.0466 -0.4159 -0.6183
 4700SOL     OW14336   4.120   5.862   3.477  0.7977 -0.1842  0.4603
 4700SOL    HW114337   4.132   5.843   3.570 -0.4726  1.6461  1.0692
 4700SOL    HW214338   4.179   5.936   3.460  0.7958 -0.3133 -0.1017
 4701SOL     OW14339   3.770   5.575   1.681  0.0448  0.1811  0.5144
 4701SOL    HW114340   3.738   5.485   1.683 -0.2118  0.2798  1.0144
 4701SOL    HW214341   3.766   5.600   1.589  0.6124 -0.4913  0.2941
 4702SOL     OW14342   5.099   0.754   1.095 -0.1388 -0.3435  0.0873
 4702SOL    HW114343   5.021   0.803   1.069 -1.1518 -2.9157 -2.2101
 4702SOL    HW214344   5.081   0.726   1.184 -0.6651  1.2154  0.5019
 4703SOL     OW14345   0.133   3.458   2.892  0.4112 -0.4424  0.1290
 4703SOL    HW114346   0.105   3.550   2.891 -0.6675 -0.7451  0.7838
 4703SOL    HW214347   0.094   3.420   2.814 -0.2987 -0.6627  0.5865
 4704SOL     OW14348   2.917   6.023   5.103 -0.1599 -0.0099 -0.2339
 4704SOL    HW114349   2.840   5.967   5.090  0.2997 -0.4223 -1.2588
 4704SOL    HW214350   2.940   6.052   5.015 -1.4808  3.3317  0.3464
 4705SOL     OW14351   0.689   3.914   4.111 -0.3485  0.1968 -0.2883
 4705SOL    HW114352   0.653   3.886   4.027 -1.3502  1.3266 -0.2701
 4705SOL    HW214353   0.685   4.010   4.108  1.5825  0.3386  0.2261
 4706SOL     OW14354   3.041   1.792   1.674  0.2040 -0.5461  0.1260
 4706SOL    HW114355   3.107   1.832   1.730 -0.5183  1.7555 -0.5906
 4706SOL    HW214356   2.979   1.751   1.735  0.8477 -0.3841  0.8960
 4707SOL     OW14357   3.295   2.645   4.706 -0.3126 -0.1670  0.3540
 4707SOL    HW114358   3.270   2.736   4.692  1.4714  0.0326 -2.1803
 4707SOL    HW214359   3.371   2.650   4.765  0.7913  0.1594 -1.0588
 4708SOL     OW14360   0.224   4.156   5.468  0.1818 -1.0034 -0.2772
 4708SOL    HW114361   0.281   4.149   5.391  0.8390  1.0780 -0.0237
 4708SOL    HW214362   0.207   4.065   5.492  1.2798 -1.7017 -1.9135
 4709SOL     OW14363   0.028   6.135   0.960  0.5625 -0.8499 -1.2115
 4709SOL    HW114364   0.007   6.228   0.954 -1.9287 -1.3032 -0.7228
 4709SOL    HW214365   0.040   6.108   0.869 -0.7282 -0.4263 -1.5343
 4710SOL     OW14366   3.327   2.816   5.843  0.2791 -0.0030 -0.1335
 4710SOL    HW114367   3.266   2.885   5.816  0.7182  0.5774  0.3494
 4710SOL    HW214368   3.335   2.826   5.937  0.1114 -0.9147 -0.0171
 4711SOL     OW14369   4.223   3.579   5.608 -0.3262 -0.0407 -0.3118
 4711SOL    HW114370   4.198   3.668   5.585  0.3260  0.5273  1.1064
 4711SOL    HW214371   4.185   3.563   5.694 -0.5594 -1.1884 -0.6058
 4712SOL     OW14372   2.564   3.378   2.014 -0.5408  0.8584  0.0010
 4712SOL    HW114373   2.603   3.457   1.976 -1.0239  1.4404  0.6905
 4712SOL    HW214374   2.565   3.394   2.108  0.0721 -0.2989  0.2118
 4713SOL     OW14375   1.554   5.667   0.267  0.0621  0.6797  0.4916
 4713SOL    HW114376   1.489   5.643   0.333  0.8057  0.5848  1.1980
 4713SOL    HW214377   1.617   5.595   0.268 -0.1890  0.4190 -0.6983
 4714SOL     OW14378   1.919   2.597   1.469 -0.4173  0.1365  0.2338
 4714SOL    HW114379   1.946   2.535   1.537  0.9990 -0.6960 -1.0067
 4714SOL    HW214380   1.997   2.605   1.413 -1.6281  0.5389 -1.4506
 4715SOL     OW14381   0.207   2.064   2.665 -0.3170  0.4285 -0.3425
 4715SOL    HW114382   0.143   1.994   2.656 -0.1129 -0.5387  3.6986
 4715SOL    HW214383   0.158   2.137   2.703  0.0377  1.5694 -1.9599
 4716SOL     OW14384   1.604   0.502   5.327  0.0161 -0.2301 -0.5778
 4716SOL    HW114385   1.559   0.567   5.380  0.3196  1.3126 -2.1319
 4716SOL    HW214386   1.563   0.419   5.351 -1.7956  0.7754  0.0101
 4717SOL     OW14387   1.628   3.117   0.501  0.5725  0.1627 -0.2293
 4717SOL    HW114388   1.673   3.180   0.556 -0.5220  0.8313 -0.0732
 4717SOL    HW214389   1.656   3.138   0.412  1.6371 -0.3402 -0.0348
 4718SOL     OW14390   2.276   3.547   2.884  0.4665  0.1905  0.5095
 4718SOL    HW114391   2.196   3.498   2.902 -1.7768  1.9796 -3.2307
 4718SOL    HW214392   2.330   3.487   2.833 -0.9764  0.4757 -1.5152
 4719SOL     OW14393   1.477   0.549   2.800  0.3518 -0.3454 -0.0389
 4719SOL    HW114394   1.535   0.484   2.761  0.3637 -0.0444 -0.5355
 4719SOL    HW214395   1.508   0.633   2.765  0.4020 -0.0587  0.6683
 4720SOL     OW14396   0.954   3.555   2.144  0.1473 -0.0464 -0.2604
 4720SOL    HW114397   0.928   3.490   2.209  1.4577  0.3664  0.7118
 4720SOL    HW214398   0.991   3.504   2.072  0.9003 -0.4063  0.3709
 4721SOL     OW14399   1.918   2.770   4.270 -0.6303  0.0324 -0.2143
 4721SOL    HW114400   2.008   2.800   4.282  0.1795 -1.7665 -1.4464
 4721SOL    HW214401   1.917   2.682   4.306 -1.7003 -0.2617 -0.9154
 4722SOL     OW14402   1.321   6.008   5.382 -0.7354  0.0334  0.5233
 4722SOL    HW114403   1.402   6.010   5.432 -0.0364 -0.3169 -0.5551
 4722SOL    HW214404   1.334   5.939   5.317 -1.6824  0.3399 -0.0195
 4723SOL     OW14405   5.819   5.446   0.194  0.3971 -0.1693 -0.1471
 4723SOL    HW114406   5.785   5.422   0.280  1.3659 -2.1420 -0.2516
 4723SOL    HW214407   5.763   5.400   0.132  0.6831 -0.0646 -0.4876
 4724SOL     OW14408   3.303   3.699   3.768 -0.0060  0.1264  0.4120
 4724SOL    HW114409   3.250   3.774   3.798  1.3961  1.4605 -0.3177
 4724SOL    HW214410   3.336   3.659   3.849 -0.3335  0.6264  0.7975
 4725SOL     OW14411   0.118   4.583   0.499 -0.5553 -0.1401 -0.0928
 4725SOL    HW114412   0.155   4.495   0.502 -1.3795 -0.4924  2.9622
 4725SOL    HW214413   0.033   4.572   0.457  0.2559 -0.3563 -1.7500
 4726SOL     OW14414   2.441   1.148   4.189  0.2817  0.1626 -0.2200
 4726SOL    HW114415   2.457   1.228   4.238 -0.6481 -0.0289  0.4184
 4726SOL    HW214416   2.372   1.172   4.126 -1.0094 -0.4715  0.9098
 4727SOL     OW14417   3.349   1.964   2.111  0.0912  0.3224 -0.0006
 4727SOL    HW114418   3.345   2.028   2.181  1.2566 -0.6184  0.9672
 4727SOL    HW214419   3.269   1.913   2.120 -0.4470  1.1024 -0.2687
 4728SOL     OW14420   4.161   1.400   2.757  0.5191  0.3872  0.7846
 4728SOL    HW114421   4.083   1.449   2.782 -0.1374 -0.0161 -0.4008
 4728SOL    HW214422   4.226   1.423   2.823 -1.3564 -1.3298  3.3954
 4729SOL     OW14423   1.295   2.179   3.877  0.1639  0.3456 -0.1081
 4729SOL    HW114424   1.371   2.235   3.861  0.2829 -0.0960 -1.2013
 4729SOL    HW214425   1.322   2.122   3.950  1.1189 -0.1931 -0.8553
 4730SOL     OW14426   3.515   0.484   4.930 -0.0999 -0.2927 -0.7791
 4730SOL    HW114427   3.426   0.516   4.945  0.2568  0.3953 -0.0987
 4730SOL    HW214428   3.566   0.563   4.910  0.6015 -0.5418 -0.0023
 4731SOL     OW14429   1.804   1.969   0.042 -0.1115 -0.3164  0.1131
 4731SOL    HW114430   1.768   2.046  -0.002  1.9670  0.4799 -0.3254
 4731SOL    HW214431   1.813   1.904  -0.028 -0.2263 -0.3338  0.1147
 4732SOL     OW14432   2.252   3.995   0.525  0.2083 -0.4197 -0.1973
 4732SOL    HW114433   2.158   4.007   0.530  0.0587 -2.0485  2.1011
 4732SOL    HW214434   2.265   3.900   0.530  1.9793 -0.1930  0.2371
 4733SOL     OW14435   1.518   4.150   1.889 -0.1970 -0.4765  0.1517
 4733SOL    HW114436   1.543   4.058   1.898  0.9311 -0.3647 -1.4518
 4733SOL    HW214437   1.576   4.197   1.949 -0.5194 -0.7517  0.6927
 4734SOL     OW14438   4.572   5.159   3.575 -0.3672  0.0535  0.2062
 4734SOL    HW114439   4.617   5.125   3.652  1.6990  1.1866 -0.4271
 4734SOL    HW214440   4.485   5.118   3.578  0.3435 -1.4717  2.0254
 4735SOL     OW14441   1.126   0.461   4.753 -0.6219 -0.5746  0.0137
 4735SOL    HW114442   1.200   0.430   4.805 -0.2045  3.7556  2.5250
 4735SOL    HW214443   1.166   0.508   4.679 -0.9599 -0.6435 -0.2152
 4736SOL     OW14444   2.945   0.467   5.267 -0.0636 -0.9789 -0.5713
 4736SOL    HW114445   2.995   0.537   5.308  0.1144 -0.9513 -0.8266
 4736SOL    HW214446   2.862   0.507   5.241  0.1595 -0.7839 -0.9894
 4737SOL     OW14447   2.128   0.188   4.082 -0.5903  0.3452  0.3699
 4737SOL    HW114448   2.048   0.206   4.131 -0.1617  0.0288  1.2160
 4737SOL    HW214449   2.115   0.101   4.044 -1.2591  0.9358 -0.7991
 4738SOL     OW14450   0.225   0.846   0.749  0.2409 -0.7324  0.8209
 4738SOL    HW114451   0.193   0.808   0.667  1.9123 -0.2473 -0.0903
 4738SOL    HW214452   0.153   0.901   0.780 -0.6469 -1.4176  0.0176
 4739SOL     OW14453   5.032   0.740   4.090  0.1591  0.0075 -0.0685
 4739SOL    HW114454   5.010   0.709   4.178  0.2400  0.5769  0.1577
 4739SOL    HW214455   4.948   0.742   4.044  0.1442 -0.4745 -0.0650
 4740SOL     OW14456   5.346   5.771   0.593 -0.3477 -0.3704 -0.2222
 4740SOL    HW114457   5.407   5.727   0.535  0.1207 -0.3526  0.2471
 4740SOL    HW214458   5.389   5.769   0.679 -1.9321 -2.3154  0.6190
 4741SOL     OW14459   2.878   4.785   4.461 -0.6354  0.3182 -0.5228
 4741SOL    HW114460   2.927   4.729   4.401 -1.6088 -1.2628  0.0864
 4741SOL    HW214461   2.835   4.849   4.404  3.4900  3.0438 -0.9631
 4742SOL     OW14462   1.603   3.679   0.153 -0.0249 -0.0746 -0.5598
 4742SOL    HW114463   1.676   3.634   0.194 -0.4540 -0.8109 -0.5837
 4742SOL    HW214464   1.630   3.691   0.062  0.9644  1.6396 -0.0896
 4743SOL     OW14465   4.010   2.202   4.491 -0.0398  0.2128  0.0725
 4743SOL    HW114466   4.023   2.264   4.563 -1.4045  1.7417 -0.9299
 4743SOL    HW214467   4.078   2.136   4.503  0.5933  1.1564  1.9812
 4744SOL     OW14468   0.814   2.278   2.134  0.1077 -0.0202  0.4260
 4744SOL    HW114469   0.762   2.323   2.200  0.3042 -0.8640  1.1719
 4744SOL    HW214470   0.774   2.304   2.051 -0.9040  0.0980  0.9345
 4745SOL     OW14471   4.338   4.659   2.510 -0.0355 -0.4076  0.4156
 4745SOL    HW114472   4.405   4.670   2.578 -0.9851  0.0011  1.3112
 4745SOL    HW214473   4.358   4.727   2.446  0.1939 -0.0395  0.8655
 4746SOL     OW14474   5.780   0.758   0.575  0.3588 -0.2204 -0.2819
 4746SOL    HW114475   5.816   0.845   0.560 -1.8787  0.8486  0.2358
 4746SOL    HW214476   5.837   0.720   0.642  1.4063  0.7847 -0.5688
 4747SOL     OW14477   1.984   0.759   1.100  0.2318 -0.7012  0.0158
 4747SOL    HW114478   1.889   0.761   1.085  0.0595 -1.5642  0.9017
 4747SOL    HW214479   2.022   0.757   1.013 -0.5654 -0.3146 -0.3528
 4748SOL     OW14480   0.725   4.483   0.371 -0.1962  0.1750  0.5205
 4748SOL    HW114481   0.753   4.515   0.285 -0.2850 -0.3376  0.2961
 4748SOL    HW214482   0.745   4.555   0.431  0.3479  0.3377  0.1549
 4749SOL     OW14483   4.463   5.229   2.373  0.4247 -0.0152 -0.4818
 4749SOL    HW114484   4.532   5.189   2.320  0.2931 -2.1831  0.8308
 4749SOL    HW214485   4.510   5.276   2.442  0.5766  2.0626 -1.9013
 4750SOL     OW14486   1.118   5.120   0.589 -0.8956  0.9078 -0.1182
 4750SOL    HW114487   1.139   5.049   0.528 -1.0027  1.0309 -0.2980
 4750SOL    HW214488   1.032   5.096   0.625  0.5056 -0.8297  2.3950
 4751SOL     OW14489   2.726   3.879   4.478 -0.3355  0.3375  0.7243
 4751SOL    HW114490   2.758   3.789   4.466  1.9951  0.6525  3.4743
 4751SOL    HW214491   2.749   3.900   4.568 -1.0294  3.6421  0.2392
 4752SOL     OW14492   2.047   2.014   4.230  0.3840  0.4481 -0.6117
 4752SOL    HW114493   2.115   1.974   4.284 -0.8196 -0.0909  0.5860
 4752SOL    HW214494   2.092   2.082   4.180  1.9379 -0.4512 -0.4993
 4753SOL     OW14495   3.589   2.908   1.571  1.0274 -0.5466  0.2066
 4753SOL    HW114496   3.613   2.868   1.488  0.3668  0.3517 -0.4325
 4753SOL    HW214497   3.582   2.835   1.632 -0.6173 -1.4809 -1.0210
 4754SOL     OW14498   5.297   4.274   5.801  0.1535 -0.1077 -0.4505
 4754SOL    HW114499   5.309   4.199   5.859 -0.8305 -0.1656 -0.3076
 4754SOL    HW214500   5.384   4.316   5.797  0.2437 -0.1005  1.0645
 4755SOL     OW14501   0.829   2.845   0.351  0.2929  0.0745 -0.9450
 4755SOL    HW114502   0.816   2.761   0.307  1.9333 -0.0970 -1.1406
 4755SOL    HW214503   0.881   2.824   0.428  1.5779  1.0339 -1.5182
 4756SOL     OW14504   5.740   1.006   5.163  0.7643  0.7188 -0.3157
 4756SOL    HW114505   5.713   0.943   5.097 -0.6310 -0.1477  1.0120
 4756SOL    HW214506   5.777   0.952   5.233  0.8569  1.4863  0.2346
 4757SOL     OW14507   5.710   1.986   6.118 -0.5707 -0.0987  0.0018
 4757SOL    HW114508   5.685   1.952   6.204  1.0554 -0.2596  0.4496
 4757SOL    HW214509   5.767   1.919   6.081  1.0234  1.1578  0.0328
 4758SOL     OW14510   4.873   0.056   3.588  0.4568 -0.5787  0.5903
 4758SOL    HW114511   4.935  -0.011   3.614  2.4640  0.9906  0.1391
 4758SOL    HW214512   4.829   0.020   3.511  1.2001 -1.5130  0.5932
 4759SOL     OW14513   5.439   0.866   0.229 -0.1784 -0.1457  0.1826
 4759SOL    HW114514   5.520   0.848   0.276  0.3341 -0.1909 -0.7094
 4759SOL    HW214515   5.390   0.924   0.288 -0.0921 -1.1745  1.2993
 4760SOL     OW14516   2.129   5.961   1.579 -0.1288  0.8309  0.0732
 4760SOL    HW114517   2.106   5.948   1.671  0.4357 -1.2047 -0.0277
 4760SOL    HW214518   2.170   6.047   1.577  1.7561  0.0904  2.1432
 4761SOL     OW14519   2.104   3.293   5.977 -0.2118  0.2373 -0.3362
 4761SOL    HW114520   2.140   3.227   6.037  0.4261  1.2602  0.4351
 4761SOL    HW214521   2.180   3.336   5.940 -0.6144 -0.0951 -1.5994
 4762SOL     OW14522   0.704   5.669   5.532 -0.1525  0.1863  0.6343
 4762SOL    HW114523   0.676   5.754   5.499 -0.8040  0.1979  1.1983
 4762SOL    HW214524   0.800   5.670   5.523 -0.2590  0.4392 -0.6066
 4763SOL     OW14525   1.372   5.000   3.572  0.1400  0.7504 -0.4504
 4763SOL    HW114526   1.294   5.011   3.628  2.2160  2.4844  2.3779
 4763SOL    HW214527   1.384   5.086   3.532  1.2922  0.9162  0.2095
 4764SOL     OW14528   2.167   2.579   0.126 -0.6924 -0.3528 -0.5922
 4764SOL    HW114529   2.109   2.650   0.154  0.0160  0.4592 -1.1217
 4764SOL    HW214530   2.112   2.524   0.070 -1.7938 -1.3467  1.3700
 4765SOL     OW14531   0.294   1.497   4.687  0.5490  0.2219 -0.0059
 4765SOL    HW114532   0.350   1.419   4.694  0.1706 -0.3085 -2.0131
 4765SOL    HW214533   0.205   1.463   4.696  0.3720  0.3666 -1.0963
 4766SOL     OW14534   2.785   3.485   2.623 -1.1872  0.2838 -0.5627
 4766SOL    HW114535   2.828   3.540   2.688  0.2875  0.4477 -1.6335
 4766SOL    HW214536   2.758   3.546   2.554 -4.3876  0.4017  0.6149
 4767SOL     OW14537   5.623   3.927   1.233  0.3803 -0.3463  0.7422
 4767SOL    HW114538   5.586   3.845   1.201 -0.4357  0.0943  0.5200
 4767SOL    HW214539   5.716   3.908   1.246  0.4972 -0.9083 -0.6949
 4768SOL     OW14540   0.555   3.620   1.935 -0.5467 -0.0473 -0.4936
 4768SOL    HW114541   0.599   3.705   1.940 -0.4474 -0.1569  1.1926
 4768SOL    HW214542   0.620   3.559   1.970 -1.0182 -0.6568 -0.6775
 4769SOL     OW14543   4.093   1.552   1.852  0.5595  0.5006 -0.4572
 4769SOL    HW114544   4.026   1.617   1.872  1.2359  1.0384  0.0899
 4769SOL    HW214545   4.087   1.539   1.757 -2.4234 -1.7769 -0.1221
 4770SOL     OW14546   0.547   0.195   1.168 -0.0802  0.1142 -0.3069
 4770SOL    HW114547   0.534   0.152   1.252 -1.4766 -0.3514 -0.7372
 4770SOL    HW214548   0.621   0.254   1.182  0.4982 -0.8542  0.8915
 4771SOL     OW14549   3.742   2.520   0.881 -0.2858  0.0434  0.0127
 4771SOL    HW114550   3.791   2.551   0.957 -1.8151 -0.3947  1.2305
 4771SOL    HW214551   3.784   2.562   0.806 -0.0386  2.1837  1.2705
 4772SOL     OW14552   5.721   2.494   4.315 -0.0448  0.7538 -0.3883
 4772SOL    HW114553   5.748   2.584   4.294  1.8905  0.5845  1.1194
 4772SOL    HW214554   5.780   2.439   4.265  0.3337  0.3352  0.5128
 4773SOL     OW14555   0.380   3.317   5.711 -0.3206 -0.3937  0.0159
 4773SOL    HW114556   0.318   3.351   5.647 -0.2942  1.3282  0.8401
 4773SOL    HW214557   0.343   3.341   5.796  0.0384 -1.9153  0.6464
 4774SOL     OW14558   0.534   5.357   3.183  0.2966  0.3402  0.4449
 4774SOL    HW114559   0.500   5.447   3.182  0.6385  0.5159 -1.8673
 4774SOL    HW214560   0.613   5.361   3.129 -0.4596 -1.5875 -0.9384
 4775SOL     OW14561   1.834   6.024   2.913  0.5274 -0.3678 -0.2886
 4775SOL    HW114562   1.821   6.075   2.833 -0.3305 -0.1743 -0.0358
 4775SOL    HW214563   1.869   6.087   2.976 -0.5115 -0.0739  0.0171
 4776SOL     OW14564   4.608   5.799   1.402 -0.4712 -0.2599 -0.0371
 4776SOL    HW114565   4.576   5.730   1.460 -0.8308  0.1756  0.2922
 4776SOL    HW214566   4.694   5.823   1.438 -0.1919 -0.7699 -0.3561
 4777SOL     OW14567   3.732   0.560   4.769 -0.4037  0.1726 -0.5815
 4777SOL    HW114568   3.789   0.577   4.694 -1.1633  1.2514 -0.9370
 4777SOL    HW214569   3.649   0.601   4.746 -1.2156 -1.0134  0.1031
 4778SOL     OW14570   5.970   2.044   4.590  0.0147 -1.1565  0.6093
 4778SOL    HW114571   5.894   2.102   4.596  1.2311  0.8568 -1.4616
 4778SOL    HW214572   5.934   1.956   4.597 -2.6276 -0.3133 -0.8251
 4779SOL     OW14573   2.247   6.043   3.109  0.6236 -0.5997  0.7495
 4779SOL    HW114574   2.234   5.951   3.086 -0.2301 -0.3280  0.0836
 4779SOL    HW214575   2.286   6.082   3.031  1.0402 -0.4043  1.0503
 4780SOL     OW14576   4.684   0.748   2.397  0.2470  0.2821  0.2643
 4780SOL    HW114577   4.745   0.734   2.324  0.3940  2.6020 -0.1423
 4780SOL    HW214578   4.598   0.724   2.362  0.3824  0.9378 -0.5477
 4781SOL     OW14579   4.472   0.045   1.686  0.0853  0.5959 -0.1014
 4781SOL    HW114580   4.486   0.001   1.770 -1.2215 -0.0064 -0.1705
 4781SOL    HW214581   4.537   0.115   1.685  2.4224 -1.4496 -0.1069
 4782SOL     OW14582   3.283   0.079   5.967 -0.2499 -0.4827  0.1784
 4782SOL    HW114583   3.274   0.113   6.056  0.4572 -0.7671  0.3641
 4782SOL    HW214584   3.252   0.150   5.911 -1.6294 -0.6628  0.6795
 4783SOL     OW14585   2.797   2.795   2.398 -0.6096  0.1019  0.2107
 4783SOL    HW114586   2.716   2.761   2.436 -0.5194  0.0646  0.3699
 4783SOL    HW214587   2.855   2.807   2.473  0.6006 -2.6724 -0.1482
 4784SOL     OW14588   1.270   1.631   2.717  0.0699 -0.1473  0.0180
 4784SOL    HW114589   1.304   1.547   2.747 -0.5523 -0.5660 -0.4195
 4784SOL    HW214590   1.179   1.613   2.693 -0.4235  0.8835  0.9570
 4785SOL     OW14591   5.228   1.130   3.160  0.1107 -0.0355 -0.1055
 4785SOL    HW114592   5.148   1.180   3.178  0.4247 -0.2624  2.3879
 4785SOL    HW214593   5.235   1.070   3.234  3.2100  0.8179  0.4487
 4786SOL     OW14594   1.773   2.015   4.242  0.0498 -0.0044 -0.2601
 4786SOL    HW114595   1.868   2.027   4.247  0.0065 -0.1172  2.0480
 4786SOL    HW214596   1.742   2.088   4.187  1.3888  0.5443 -0.3175
 4787SOL     OW14597   0.886   1.461   3.839 -0.0389 -0.1715  0.5134
 4787SOL    HW114598   0.859   1.539   3.792 -1.4648 -1.4239 -0.8466
 4787SOL    HW214599   0.982   1.463   3.835 -0.0859  0.5773 -1.0644
 4788SOL     OW14600   3.549   0.537   2.123  0.3358 -0.1032  0.6402
 4788SOL    HW114601   3.530   0.621   2.164  3.9281  1.6269 -0.8615
 4788SOL    HW214602   3.577   0.480   2.195  0.6154  0.9098  1.3475
 4789SOL     OW14603   2.347   4.295   2.576 -0.2926 -0.3611 -0.2983
 4789SOL    HW114604   2.428   4.345   2.583 -1.1852  0.9684  1.1776
 4789SOL    HW214605   2.362   4.217   2.631 -0.5335  0.6784  1.3213
 4790SOL     OW14606   5.597   3.767   0.307 -0.1481  0.2696  0.1500
 4790SOL    HW114607   5.583   3.753   0.401  0.9608  0.7156  0.3935
 4790SOL    HW214608   5.511   3.752   0.268 -0.4208 -0.8484  1.1185
 4791SOL     OW14609   0.320   0.698   3.959  0.1010 -0.4029 -0.2959
 4791SOL    HW114610   0.248   0.753   3.991  0.7130 -0.2331  0.8601
 4791SOL    HW214611   0.380   0.692   4.034  0.1615 -2.4739 -0.4643
 4792SOL     OW14612   2.575   4.818   6.029 -0.5506 -0.2775 -0.6335
 4792SOL    HW114613   2.612   4.875   6.097 -0.4488 -1.5802  0.4589
 4792SOL    HW214614   2.483   4.808   6.055 -0.6137 -0.4446 -0.9247
 4793SOL     OW14615   3.093   0.873   4.173  0.6326  0.5213  0.7074
 4793SOL    HW114616   3.141   0.793   4.150 -0.5361 -0.0891  0.3313
 4793SOL    HW214617   3.019   0.842   4.225 -0.4999  1.2441 -0.4555
 4794SOL     OW14618   1.778   1.062   3.574 -0.8840  0.0719 -0.3372
 4794SOL    HW114619   1.729   0.987   3.607 -0.3796 -1.0861 -2.1030
 4794SOL    HW214620   1.850   1.073   3.636 -0.2662 -1.6951 -0.7051
 4795SOL     OW14621   2.681   0.324   4.056 -0.4128  0.3079 -0.1238
 4795SOL    HW114622   2.597   0.300   4.016 -0.5938  1.4167 -0.4538
 4795SOL    HW214623   2.746   0.292   3.994 -0.6169  0.1482 -0.2597
 4796SOL     OW14624   4.766   1.767   0.346  0.0749 -0.4176  0.2719
 4796SOL    HW114625   4.778   1.773   0.441 -0.2096  1.3150  0.2313
 4796SOL    HW214626   4.698   1.702   0.335 -0.8966  0.3666  1.3685
 4797SOL     OW14627   5.790   1.525   2.429 -0.5056  0.1514 -0.3959
 4797SOL    HW114628   5.730   1.597   2.452 -0.6492  0.2629 -1.1119
 4797SOL    HW214629   5.798   1.530   2.334  1.7660  1.0308 -0.2136
 4798SOL     OW14630   2.933   1.752   4.814 -0.2192  0.1642 -0.6313
 4798SOL    HW114631   2.906   1.758   4.722 -0.1315  0.4830 -0.6374
 4798SOL    HW214632   3.027   1.731   4.809 -0.0884  0.7416 -0.6177
 4799SOL     OW14633   2.562   0.423   0.189 -0.1605  0.2041  0.1330
 4799SOL    HW114634   2.525   0.347   0.145 -0.0584 -0.2202  0.7721
 4799SOL    HW214635   2.621   0.387   0.256  0.8401  0.8666 -0.3756
 4800SOL     OW14636   5.543   2.835   4.308  0.4266  0.7668  0.0357
 4800SOL    HW114637   5.602   2.823   4.233  0.7490 -2.5846  0.6631
 4800SOL    HW214638   5.594   2.804   4.383 -0.0828  3.5369  1.6800
 4801SOL     OW14639   3.999   0.992   4.369 -0.2219  0.4660  0.2726
 4801SOL    HW114640   4.062   1.055   4.403  1.0933 -0.7391  0.1539
 4801SOL    HW214641   4.016   0.911   4.418 -1.5750  0.0555  0.1216
 4802SOL     OW14642   0.181   1.426   5.655  0.0026 -0.1177  0.1881
 4802SOL    HW114643   0.193   1.507   5.704  0.3735  0.6897 -1.1812
 4802SOL    HW214644   0.270   1.393   5.642 -0.1224 -0.5388  0.3948
 4803SOL     OW14645   1.583   2.271   2.414  0.6535  0.2486 -0.1919
 4803SOL    HW114646   1.517   2.215   2.455  0.0242  2.8189  2.6773
 4803SOL    HW214647   1.667   2.240   2.450  0.3727  0.6822  0.8819
 4804SOL     OW14648   0.569   4.465   1.916  0.1768  0.1224 -0.2908
 4804SOL    HW114649   0.525   4.549   1.906 -0.0989  0.0524  0.2847
 4804SOL    HW214650   0.603   4.466   2.005  0.7942 -0.0864 -0.5198
 4805SOL     OW14651   4.999   5.508   3.959 -0.3039  0.1607 -0.5000
 4805SOL    HW114652   4.978   5.540   4.047  0.1765 -1.5586  0.2806
 4805SOL    HW214653   4.970   5.578   3.901 -1.1938  1.0835  0.9813
 4806SOL     OW14654   3.361   3.210   0.945 -0.3051  0.3824  0.2043
 4806SOL    HW114655   3.435   3.260   0.912 -0.6942  1.1054  0.4140
 4806SOL    HW214656   3.351   3.138   0.882  1.5960 -0.7089  1.0537
 4807SOL     OW14657   1.054   3.337   5.099 -0.4616  0.1520 -0.3060
 4807SOL    HW114658   1.025   3.426   5.081  1.2465  0.8458  0.1777
 4807SOL    HW214659   1.028   3.287   5.022  0.1916  1.4672 -1.4205
 4808SOL     OW14660   2.814   4.156   2.325 -0.3122  0.0763  0.4436
 4808SOL    HW114661   2.905   4.124   2.327 -0.1189  0.6500  1.1979
 4808SOL    HW214662   2.786   4.141   2.235  0.5848  0.0198  0.1580
 4809SOL     OW14663   2.425   1.394   2.168 -0.5424 -0.6657 -0.0030
 4809SOL    HW114664   2.458   1.330   2.231  0.6376 -1.5873 -1.4635
 4809SOL    HW214665   2.380   1.341   2.102  0.4666 -0.0515 -1.2491
 4810SOL     OW14666   2.918   5.976   5.802  0.2067  0.8102  0.0036
 4810SOL    HW114667   2.936   6.013   5.889  0.2472  0.5795  0.0935
 4810SOL    HW214668   2.870   5.895   5.820  1.5601 -0.0512 -0.1217
 4811SOL     OW14669   4.380   5.390   1.232 -0.1631 -0.0923  0.5632
 4811SOL    HW114670   4.336   5.339   1.163 -1.6657 -0.7366  1.9181
 4811SOL    HW214671   4.402   5.326   1.298  2.3960  0.3342  0.2005
 4812SOL     OW14672   5.713   0.107   5.760 -0.1783 -0.0120  0.1593
 4812SOL    HW114673   5.711   0.199   5.787  0.2734  0.6094 -1.7622
 4812SOL    HW214674   5.743   0.060   5.838 -1.9113  1.2478  1.6615
 4813SOL     OW14675   2.228   5.993   3.678 -0.7068  0.1435  0.1896
 4813SOL    HW114676   2.138   5.987   3.711 -0.2712  3.0061  2.2845
 4813SOL    HW214677   2.263   6.071   3.720  2.3028 -0.0119 -1.7929
 4814SOL     OW14678   5.655   4.966   1.540  0.2091 -0.2391 -0.3870
 4814SOL    HW114679   5.678   5.056   1.564  2.7895 -0.9191 -0.0900
 4814SOL    HW214680   5.667   4.963   1.445 -0.2013 -0.1930 -0.4419
 4815SOL     OW14681   5.559   1.521   6.009  0.2435 -0.8691  0.4282
 4815SOL    HW114682   5.566   1.435   5.967  0.8503 -1.9237  2.5440
 4815SOL    HW214683   5.480   1.515   6.063 -1.1356  0.8344 -1.2564
 4816SOL     OW14684   4.291   2.414   4.335 -0.4646 -0.3946 -0.4508
 4816SOL    HW114685   4.214   2.450   4.291 -0.9293  2.5069  2.3639
 4816SOL    HW214686   4.364   2.432   4.275 -1.2691  1.8634 -0.8455
 4817SOL     OW14687   0.507   3.158   3.137 -0.2179  0.4065  0.1676
 4817SOL    HW114688   0.579   3.169   3.075  0.7897 -1.1180  0.9895
 4817SOL    HW214689   0.486   3.065   3.132 -1.3228  0.6055  0.8298
 4818SOL     OW14690   5.118   0.945   0.496 -0.2538 -0.0007 -0.7216
 4818SOL    HW114691   5.180   0.880   0.465 -1.2462 -1.1258 -0.3917
 4818SOL    HW214692   5.131   0.948   0.591  0.4693  1.0300 -0.8268
 4819SOL     OW14693   0.262   5.463   5.676 -0.7324  0.2444  0.4368
 4819SOL    HW114694   0.317   5.387   5.697 -0.6944 -0.2860 -1.3773
 4819SOL    HW214695   0.317   5.539   5.697  0.5875 -0.2727 -0.9565
 4820SOL     OW14696   1.381   4.853   4.105  0.1401  0.3764  0.4193
 4820SOL    HW114697   1.361   4.761   4.125  0.7680  0.1744  0.1259
 4820SOL    HW214698   1.298   4.899   4.121 -0.0239 -0.1466  1.1355
 4821SOL     OW14699   5.288   1.024   1.654 -0.0533 -0.1218  0.0765
 4821SOL    HW114700   5.299   1.092   1.587  0.6067  0.5157  0.8220
 4821SOL    HW214701   5.355   1.043   1.719 -0.8394 -0.5968  1.0508
 4822SOL     OW14702   0.436   5.919   1.186 -0.6920  0.2467 -0.3360
 4822SOL    HW114703   0.415   6.008   1.158 -1.4294 -0.0354 -0.7005
 4822SOL    HW214704   0.526   5.905   1.157 -0.7458  0.6957 -0.7268
 4823SOL     OW14705   2.925   3.151   3.628  0.6596 -0.0440  0.1263
 4823SOL    HW114706   2.923   3.148   3.532 -2.5847  1.8453  0.0142
 4823SOL    HW214707   2.946   3.242   3.649 -0.0981 -0.0904  1.1643
 4824SOL     OW14708   4.161   5.792   3.198  0.4218  0.3192 -0.2887
 4824SOL    HW114709   4.100   5.720   3.181  3.0197 -2.0323 -0.4514
 4824SOL    HW214710   4.140   5.822   3.286 -0.5744 -0.8290 -0.1092
 4825SOL     OW14711   5.193   2.270   3.061  0.0050  0.1074 -0.2730
 4825SOL    HW114712   5.203   2.251   2.968  0.0648 -0.6630 -0.1199
 4825SOL    HW214713   5.202   2.365   3.068  1.9522  0.0131 -0.8111
 4826SOL     OW14714   3.888   4.050   3.748  0.1051  0.6356  0.4164
 4826SOL    HW114715   3.822   4.060   3.680 -1.0850 -0.4153  1.3700
 4826SOL    HW214716   3.925   3.963   3.733 -0.7269  0.0573  1.5416
 4827SOL     OW14717   2.527   5.426   5.505 -0.5839 -0.2229 -0.3506
 4827SOL    HW114718   2.459   5.385   5.560  0.4837 -0.9978  0.4211
 4827SOL    HW214719   2.480   5.493   5.456 -2.0136 -1.0716 -0.2034
 4828SOL     OW14720   0.654   4.185   4.076 -0.0123  0.0202 -0.1307
 4828SOL    HW114721   0.558   4.177   4.078  0.0165 -0.2249  0.7999
 4828SOL    HW214722   0.670   4.261   4.021 -0.7530  0.1997 -0.1197
 4829SOL     OW14723   1.197   1.724   1.674  0.7957 -0.0495  0.1883
 4829SOL    HW114724   1.282   1.750   1.636  0.0446  0.9441 -0.9008
 4829SOL    HW214725   1.191   1.775   1.755  0.5697  1.0983 -0.5265
 4830SOL     OW14726   3.011   4.340   2.187  0.3430  0.6000  0.0669
 4830SOL    HW114727   3.034   4.280   2.116 -1.4255  0.3043 -0.2993
 4830SOL    HW214728   2.963   4.411   2.145  0.5613  1.1798  0.7748
 4831SOL     OW14729   5.883   2.907   2.642 -0.4777  0.1319  0.0998
 4831SOL    HW114730   5.835   2.981   2.678 -0.6766 -0.0942  0.3091
 4831SOL    HW214731   5.966   2.943   2.612 -0.7546  0.5145 -0.2054
 4832SOL     OW14732   1.126   1.411   2.014 -0.3692 -0.9677  0.4513
 4832SOL    HW114733   1.210   1.428   2.057 -0.2733  0.7942 -0.3480
 4832SOL    HW214734   1.067   1.477   2.050 -0.9832 -1.1787 -0.1625
 4833SOL     OW14735   4.606   6.036   2.590 -0.5273 -0.0792 -0.2498
 4833SOL    HW114736   4.686   6.068   2.631 -0.7159 -1.0396  0.9111
 4833SOL    HW214737   4.628   6.030   2.497  0.2897  1.0046 -0.1423
 4834SOL     OW14738   4.083   1.464   4.586 -0.0946 -0.1875 -0.2131
 4834SOL    HW114739   4.075   1.484   4.679  1.7774  0.4933 -0.1538
 4834SOL    HW214740   4.155   1.519   4.556 -1.9538  1.1741 -2.5586
 4835SOL     OW14741   3.769   6.005   1.508  0.1294 -0.3450 -0.1046
 4835SOL    HW114742   3.816   6.087   1.494  0.7555 -0.6058  0.4155
 4835SOL    HW214743   3.821   5.959   1.574  0.6536 -1.8490 -1.5172
 4836SOL     OW14744   3.443   4.542   3.783  0.0029  0.0094  0.1334
 4836SOL    HW114745   3.448   4.602   3.857 -0.9052 -0.0127  0.2182
 4836SOL    HW214746   3.478   4.592   3.709  0.2407  0.2766  0.4227
 4837SOL     OW14747   1.753   1.937   1.276 -0.0582  0.1437 -0.1746
 4837SOL    HW114748   1.831   1.985   1.306 -1.5418  1.8564  1.2038
 4837SOL    HW214749   1.698   2.005   1.237 -1.0944 -0.9254 -0.6118
 4838SOL     OW14750   4.723   2.380   3.704  0.1004 -0.5184  0.7096
 4838SOL    HW114751   4.793   2.360   3.642 -0.6400 -0.7733 -0.0718
 4838SOL    HW214752   4.702   2.295   3.744  0.9152 -0.2737  1.7011
 4839SOL     OW14753   5.288   1.923   3.860  0.1685  0.3243 -0.1168
 4839SOL    HW114754   5.216   1.867   3.887 -2.1378  2.2461 -1.8418
 4839SOL    HW214755   5.332   1.874   3.790 -1.3794  0.3234 -1.1299
 4840SOL     OW14756   1.639   0.927   4.537  0.2251 -0.1714 -0.3242
 4840SOL    HW114757   1.688   0.849   4.509  0.0667 -0.2491 -0.3840
 4840SOL    HW214758   1.601   0.962   4.456 -1.8349 -1.4833  0.0131
 4841SOL     OW14759   1.126   1.229   4.974 -0.1191 -0.2091 -0.0388
 4841SOL    HW114760   1.189   1.195   4.911 -0.4055  0.0979 -0.4948
 4841SOL    HW214761   1.041   1.195   4.946 -0.6644  2.0854 -1.4586
 4842SOL     OW14762   5.580   1.794   3.360 -0.0821 -0.1772 -0.1931
 4842SOL    HW114763   5.549   1.814   3.449 -1.0674  0.0022 -0.5707
 4842SOL    HW214764   5.565   1.700   3.350  0.8409 -0.3733  0.1311
 4843SOL     OW14765   0.225   0.633   5.295 -0.4080 -0.5284  0.2228
 4843SOL    HW114766   0.271   0.551   5.278 -0.1686 -0.2179 -0.6842
 4843SOL    HW214767   0.293   0.700   5.292 -1.0505  0.1243 -2.6359
 4844SOL     OW14768   5.870   1.934   2.959  0.0172  0.2467  0.3704
 4844SOL    HW114769   5.849   1.848   2.921  0.3203  0.4881 -0.3671
 4844SOL    HW214770   5.808   1.944   3.031  0.5037 -0.9459  0.9780
 4845SOL     OW14771   0.095   3.951   5.920 -0.6969 -0.8132 -0.5251
 4845SOL    HW114772   0.151   3.888   5.875  1.7393  0.5681  0.4012
 4845SOL    HW214773   0.090   4.025   5.860 -1.6354 -0.9492 -0.6276
 4846SOL     OW14774   0.734   5.388   2.981  0.0621 -0.0623  0.2390
 4846SOL    HW114775   0.752   5.331   2.907  1.3522  1.3881 -0.6252
 4846SOL    HW214776   0.805   5.453   2.980 -0.5226  0.6840  2.0484
 4847SOL     OW14777   0.838   3.823   0.166 -0.4512 -0.0233  0.1330
 4847SOL    HW114778   0.906   3.807   0.101 -1.5074 -1.3846 -0.6939
 4847SOL    HW214779   0.790   3.899   0.133 -0.7207 -0.4552 -0.4810
 4848SOL     OW14780   0.596   0.569   0.303  0.3100 -0.1919 -0.4826
 4848SOL    HW114781   0.593   0.656   0.264 -0.2150  0.5035  1.0418
 4848SOL    HW214782   0.657   0.578   0.376  1.2819 -1.4668 -1.0930
 4849SOL     OW14783   1.537   0.348   0.039 -0.7444 -0.5542  0.5841
 4849SOL    HW114784   1.625   0.337   0.075 -0.8604  0.5419  1.2343
 4849SOL    HW214785   1.483   0.288   0.090 -0.4737 -0.8654  0.5168
 4850SOL     OW14786   5.172   2.536   5.246  0.1096 -0.3796  0.5729
 4850SOL    HW114787   5.170   2.441   5.262 -0.3193 -0.5667 -0.4571
 4850SOL    HW214788   5.099   2.550   5.185  1.3227  0.3174 -0.7620
 4851SOL     OW14789   4.191   3.351   4.686  0.4967  0.0163 -0.4837
 4851SOL    HW114790   4.136   3.428   4.674 -0.1399 -0.2572  0.5584
 4851SOL    HW214791   4.228   3.361   4.774 -2.0272 -2.3003  1.0036
 4852SOL     OW14792   5.278   1.858   3.422 -0.3223 -0.0380  0.4294
 4852SOL    HW114793   5.267   1.763   3.424  2.5969 -0.4664  0.9545
 4852SOL    HW214794   5.359   1.871   3.373 -0.1728  2.1235  1.1575
 4853SOL     OW14795   3.089   3.482   2.815  0.3413  0.3623  0.4938
 4853SOL    HW114796   3.010   3.456   2.862 -0.2499  0.2384 -0.5403
 4853SOL    HW214797   3.096   3.577   2.831 -0.0376  0.3815  0.5630
 4854SOL     OW14798   4.910   2.794   5.711 -0.3042  0.3336 -0.1052
 4854SOL    HW114799   4.957   2.750   5.782  0.3121  0.1488 -0.6184
 4854SOL    HW214800   4.909   2.730   5.639  1.3691  1.4296 -1.1732
 4855SOL     OW14801   1.771   4.889   2.496  0.2389 -0.4290  0.0028
 4855SOL    HW114802   1.679   4.917   2.493 -0.1715 -1.5510  1.2849
 4855SOL    HW214803   1.796   4.898   2.588  1.5817  0.2809 -0.3932
 4856SOL     OW14804   3.385   5.083   2.281  0.2468  0.3444 -0.5779
 4856SOL    HW114805   3.401   5.144   2.209 -0.6854  0.5709 -0.5927
 4856SOL    HW214806   3.473   5.056   2.308  0.7017  2.0010 -0.2972
 4857SOL     OW14807   3.439   4.975   3.470 -0.1920  0.0676  0.3224
 4857SOL    HW114808   3.490   5.052   3.495  0.8571 -0.8779  1.2553
 4857SOL    HW214809   3.366   5.009   3.420  1.1037  1.5381 -0.6631
 4858SOL     OW14810   6.150   4.941   0.000  0.2726 -0.2144 -1.0433
 4858SOL    HW114811   6.172   4.892  -0.079  0.2991 -0.3431 -0.9552
 4858SOL    HW214812   6.056   4.929   0.011  0.6552 -2.4902  0.4813
 4859SOL     OW14813   4.575   5.084   0.477 -0.1608  0.2446 -0.0167
 4859SOL    HW114814   4.507   5.044   0.532 -0.2619  1.2290  0.6002
 4859SOL    HW214815   4.598   5.165   0.523  1.3044  0.0186 -0.3066
 4860SOL     OW14816   1.173   0.256   4.353 -0.4991  0.4713 -0.2950
 4860SOL    HW114817   1.152   0.253   4.260  0.4476 -0.7277 -0.4943
 4860SOL    HW214818   1.142   0.172   4.387  0.1866  0.4269  0.2322
 4861SOL     OW14819   5.485   0.494   5.153 -0.2539 -0.1749  0.7379
 4861SOL    HW114820   5.416   0.550   5.115  0.5700  1.1237  1.0765
 4861SOL    HW214821   5.544   0.556   5.197  1.3938 -1.1945  0.0513
 4862SOL     OW14822   1.646   0.643   5.698 -0.2156  0.0255  0.7497
 4862SOL    HW114823   1.600   0.704   5.641  0.2380  0.1169  0.4764
 4862SOL    HW214824   1.728   0.688   5.719  1.3752 -1.5416 -1.6130
 4863SOL     OW14825   1.460   0.255   5.402 -1.1638 -0.2271  0.0977
 4863SOL    HW114826   1.468   0.275   5.495  0.5952 -0.6375  0.0585
 4863SOL    HW214827   1.388   0.191   5.398 -2.1487  0.7688  0.9877
 4864SOL     OW14828   0.682   0.683   4.925  0.3277 -0.6272 -0.4493
 4864SOL    HW114829   0.750   0.722   4.980  1.2060 -1.1668 -1.1406
 4864SOL    HW214830   0.603   0.689   4.979  1.0904 -0.8280  0.7447
 4865SOL     OW14831   0.986   5.756   5.545  0.8958 -0.1348 -0.5780
 4865SOL    HW114832   1.034   5.839   5.543  0.7679 -0.0696 -1.0853
 4865SOL    HW214833   1.049   5.692   5.511  1.2499 -0.3858  0.5206
 4866SOL     OW14834   5.885   5.705   4.460 -0.2792 -0.1681 -0.0533
 4866SOL    HW114835   5.798   5.729   4.494 -0.7161  0.6340 -1.6485
 4866SOL    HW214836   5.918   5.786   4.421  1.1663 -0.4987  0.4399
 4867SOL     OW14837   2.119   5.185   0.540 -0.1128  0.5641  0.6230
 4867SOL    HW114838   2.154   5.248   0.602  0.2556  0.6760  0.2997
 4867SOL    HW214839   2.195   5.151   0.494 -0.2182 -0.6588  1.2962
 4868SOL     OW14840   2.893   0.201   5.845  0.1616  0.8347  0.0090
 4868SOL    HW114841   2.869   0.180   5.755  1.2283 -1.0828  0.1157
 4868SOL    HW214842   2.963   0.265   5.837  1.3394 -0.4700 -0.6441
 4869SOL     OW14843   2.163   6.070   5.699 -0.1301 -0.0669  0.0342
 4869SOL    HW114844   2.080   6.098   5.737  1.1680  1.8703  1.7428
 4869SOL    HW214845   2.171   6.120   5.618  0.2412  1.3990  0.9281
 4870SOL     OW14846   2.004   5.158   1.579 -0.9620 -0.1642 -0.0179
 4870SOL    HW114847   2.073   5.198   1.632  0.9762  2.1040 -3.7233
 4870SOL    HW214848   2.022   5.064   1.582  1.7817  0.2726 -0.0488
 4871SOL     OW14849   0.801   0.933   0.840  0.6712 -0.1478 -0.1134
 4871SOL    HW114850   0.767   0.945   0.752 -0.9925  1.9885  0.7367
 4871SOL    HW214851   0.869   1.000   0.849 -0.3564  0.8219  0.7456
 4872SOL     OW14852   4.081   4.681   2.132 -0.1324  0.0474  0.8430
 4872SOL    HW114853   4.086   4.711   2.222  0.1036  0.7454  0.6052
 4872SOL    HW214854   4.088   4.585   2.137  1.7988  0.1819  1.4162
 4873SOL     OW14855   4.091   3.344   5.516 -0.0933  1.1621 -0.1809
 4873SOL    HW114856   4.170   3.383   5.554 -0.2019  0.7575  0.4738
 4873SOL    HW214857   4.059   3.285   5.584  0.1284 -0.1559 -1.1945
 4874SOL     OW14858   5.319   4.086   0.141  0.5415  0.1519 -0.3524
 4874SOL    HW114859   5.402   4.107   0.185  0.0394  4.4539 -1.0738
 4874SOL    HW214860   5.253   4.094   0.209  0.3769  0.4152 -0.5418
 4875SOL     OW14861   4.534   4.499   4.426  0.7447  0.2792 -0.4352
 4875SOL    HW114862   4.572   4.419   4.388 -0.0717 -0.8982  1.1307
 4875SOL    HW214863   4.581   4.512   4.507 -0.7140 -0.0038  0.4974
 4876SOL     OW14864   4.849   2.946   0.486  0.3074 -0.1732  0.0522
 4876SOL    HW114865   4.828   2.977   0.398 -0.0817  0.6606  0.4199
 4876SOL    HW214866   4.777   2.887   0.509 -0.3450  0.7133  0.3423
 4877SOL     OW14867   2.944   1.429   3.791 -0.1348  0.1247  0.4540
 4877SOL    HW114868   2.963   1.515   3.752  1.4227  0.1773  1.2699
 4877SOL    HW214869   2.898   1.450   3.872 -1.6653  0.0697 -0.3404
 4878SOL     OW14870   5.003   6.033   5.249  0.6638  0.5813  0.5968
 4878SOL    HW114871   5.061   5.973   5.294  1.0667 -0.0915 -0.7474
 4878SOL    HW214872   5.007   6.114   5.300  1.2882 -0.0524  1.5825
 4879SOL     OW14873   2.492   5.856   5.973 -0.8860  0.8528 -0.0420
 4879SOL    HW114874   2.548   5.893   6.040 -1.0860 -0.5768  0.9679
 4879SOL    HW214875   2.406   5.849   6.014 -0.7643 -1.0829 -0.0087
 4880SOL     OW14876   1.571   3.705   2.659 -0.1796 -0.0937 -0.3101
 4880SOL    HW114877   1.655   3.692   2.703  0.9089  0.7832 -2.0463
 4880SOL    HW214878   1.567   3.799   2.642 -0.1850 -0.4945 -2.7643
 4881SOL     OW14879   2.520   0.808   6.073  0.6033  0.7683  0.2939
 4881SOL    HW114880   2.425   0.808   6.085  0.2952  1.4303 -1.7875
 4881SOL    HW214881   2.555   0.788   6.160 -1.4585 -1.7905  0.6585
 4882SOL     OW14882   3.254   5.942   4.780  0.0896 -0.5445  0.4181
 4882SOL    HW114883   3.234   5.908   4.693 -1.0519  0.7777  0.1190
 4882SOL    HW214884   3.292   5.868   4.828  0.4701 -1.3612 -1.1063
 4883SOL     OW14885   6.134   4.207   4.558 -0.2100  0.8256  0.0806
 4883SOL    HW114886   6.128   4.135   4.496  1.0048  0.7427  0.0417
 4883SOL    HW214887   6.061   4.265   4.535 -1.3286 -0.4775  0.2618
 4884SOL     OW14888   5.243   1.237   5.294  0.4344 -0.5611  0.5392
 4884SOL    HW114889   5.338   1.241   5.310  0.6089 -2.0733  0.0046
 4884SOL    HW214890   5.228   1.298   5.223  0.9193  0.0797  0.9714
 4885SOL     OW14891   3.747   3.369   1.489  0.3396  0.7581  0.0645
 4885SOL    HW114892   3.821   3.356   1.549 -0.5263  0.8655  1.1960
 4885SOL    HW214893   3.672   3.332   1.536 -0.5052  1.5418 -0.6352
 4886SOL     OW14894   2.353   0.578   3.061 -0.3563 -0.1219  0.3273
 4886SOL    HW114895   2.445   0.569   3.084 -0.7735 -0.7138  1.9120
 4886SOL    HW214896   2.341   0.523   2.984  0.3125 -1.2484  1.0041
 4887SOL     OW14897   5.545   0.708   4.463  0.6676 -0.1484  0.3303
 4887SOL    HW114898   5.458   0.707   4.504  1.4452  3.1060  2.4452
 4887SOL    HW214899   5.548   0.792   4.417  2.4256 -0.5656 -0.3587
 4888SOL     OW14900   3.046   0.654   2.326 -0.5221 -0.2499  0.3073
 4888SOL    HW114901   2.995   0.576   2.346  0.0501 -0.5220  0.7344
 4888SOL    HW214902   3.136   0.632   2.353 -0.5119  0.8562  1.2921
 4889SOL     OW14903   5.475   3.208   4.958  0.4162  0.0289  0.2100
 4889SOL    HW114904   5.486   3.149   4.883 -2.4291 -1.1110  0.5276
 4889SOL    HW214905   5.426   3.282   4.923  0.2657  0.1423  0.6596
 4890SOL     OW14906   1.183   3.468   4.733 -0.4776 -0.0647 -0.1113
 4890SOL    HW114907   1.152   3.392   4.684 -1.3870 -0.2118  0.6602
 4890SOL    HW214908   1.133   3.542   4.698  0.8537  0.3356 -1.3064
 4891SOL     OW14909   2.299   4.182   4.748  0.0411 -0.2223 -0.1440
 4891SOL    HW114910   2.386   4.145   4.731 -0.2643 -0.4891 -1.1999
 4891SOL    HW214911   2.242   4.105   4.758  0.1771 -0.0911  2.1640
 4892SOL     OW14912   3.893   3.401   4.887  0.7260 -0.3533 -0.3410
 4892SOL    HW114913   3.943   3.324   4.912 -2.3759 -1.8688  1.9231
 4892SOL    HW214914   3.953   3.474   4.897  3.0010 -2.1891  0.1619
 4893SOL     OW14915   0.841   5.197   5.188  0.6091  0.2615 -0.0579
 4893SOL    HW114916   0.793   5.233   5.262 -1.1322 -2.5758  0.3329
 4893SOL    HW214917   0.932   5.190   5.219  0.5166  1.8584  0.6743
 4894SOL     OW14918   3.274   4.299   5.052 -0.0718  0.1038  0.0047
 4894SOL    HW114919   3.360   4.282   5.014  1.0081 -0.4574  2.4604
 4894SOL    HW214920   3.217   4.314   4.977  1.4928 -2.4989 -1.8920
 4895SOL     OW14921   4.769   1.327   2.687 -0.2067 -0.4137 -0.2920
 4895SOL    HW114922   4.789   1.264   2.756  0.1856  1.1550  1.1085
 4895SOL    HW214923   4.745   1.274   2.611  1.5557 -2.2483  0.3603
 4896SOL     OW14924   0.100   5.765   5.542 -0.0217 -0.3000  0.0049
 4896SOL    HW114925   0.020   5.739   5.587 -0.4289 -1.8948 -1.5503
 4896SOL    HW214926   0.088   5.858   5.523 -0.3543  0.1104  2.0133
 4897SOL     OW14927   5.686   5.570   5.717  0.6024 -0.3531  0.4169
 4897SOL    HW114928   5.636   5.491   5.735  0.4940 -0.3258  0.2348
 4897SOL    HW214929   5.759   5.567   5.779  1.1866 -1.1349 -0.2833
 4898SOL     OW14930   0.215   3.995   3.290  0.1869 -0.1711 -0.1050
 4898SOL    HW114931   0.121   4.002   3.274  0.4210  2.2320 -0.9256
 4898SOL    HW214932   0.222   3.991   3.385 -0.7330  0.0124 -0.0127
 4899SOL     OW14933   3.856   4.266   4.867 -0.1386  0.1670 -0.2066
 4899SOL    HW114934   3.888   4.217   4.791  1.2302 -1.3372  1.2583
 4899SOL    HW214935   3.893   4.353   4.858  0.4789 -0.1694 -0.9822
 4900SOL     OW14936   0.029   2.886   1.578 -0.1270 -0.0299  0.4070
 4900SOL    HW114937   0.045   2.873   1.671 -1.6810  4.0548  1.4648
 4900SOL    HW214938  -0.056   2.930   1.574  0.0772  0.3075 -2.9151
 4901SOL     OW14939   1.856   3.966   1.726 -0.1693  0.3118 -0.8951
 4901SOL    HW114940   1.935   3.931   1.766 -1.0188  1.0801  1.6390
 4901SOL    HW214941   1.789   3.899   1.741 -0.6338  0.8573 -0.4681
 4902SOL     OW14942   0.308   5.733   3.198 -0.0991 -0.1237 -0.0225
 4902SOL    HW114943   0.363   5.812   3.203 -0.7853  0.3832 -0.2064
 4902SOL    HW214944   0.278   5.732   3.107 -2.4591  1.0738  0.6653
 4903SOL     OW14945   5.356   5.079   2.370  0.3458 -0.5425 -0.7328
 4903SOL    HW114946   5.407   5.073   2.289  0.1889 -1.0224 -0.8024
 4903SOL    HW214947   5.418   5.059   2.439  1.7245  4.3237 -0.1901
 4904SOL     OW14948   5.133   0.684   5.281  0.0489  0.3037 -0.0318
 4904SOL    HW114949   5.100   0.596   5.300  0.1774 -0.1190 -1.6189
 4904SOL    HW214950   5.189   0.672   5.204  0.3232  1.7216 -0.0675
 4905SOL     OW14951   3.172   5.416   5.903  0.2062 -0.1864  0.1458
 4905SOL    HW114952   3.089   5.456   5.876  0.8427  2.0163  1.2466
 4905SOL    HW214953   3.217   5.398   5.820 -0.7441 -0.0339 -0.4240
 4906SOL     OW14954   2.283   0.698   4.681  0.3907 -0.2083 -0.2795
 4906SOL    HW114955   2.345   0.668   4.747 -0.0640  0.0307  0.2551
 4906SOL    HW214956   2.298   0.639   4.606 -0.4799 -1.8029  0.7380
 4907SOL     OW14957   3.371   2.907   1.415 -0.1486  0.0441  0.7499
 4907SOL    HW114958   3.403   2.891   1.326  0.6534  0.9524  0.8632
 4907SOL    HW214959   3.450   2.919   1.467 -0.6075 -0.7838  1.6538
 4908SOL     OW14960   2.975   0.230   4.691 -0.0467  0.4531 -0.7646
 4908SOL    HW114961   2.973   0.166   4.762  0.8805  0.7296 -0.4782
 4908SOL    HW214962   3.013   0.309   4.731 -1.2171  1.2082 -1.0911
 4909SOL     OW14963   5.427   5.694   1.301  0.0895  0.5838  0.2447
 4909SOL    HW114964   5.356   5.631   1.303  0.0201  0.6689  0.8322
 4909SOL    HW214965   5.390   5.771   1.259 -0.0269  0.4655  0.1322
 4910SOL     OW14966   5.672   4.640   0.790 -0.4236 -0.5505 -0.1487
 4910SOL    HW114967   5.601   4.663   0.849 -0.1060 -1.0791  0.4627
 4910SOL    HW214968   5.746   4.622   0.849  0.5459  1.0971 -0.8166
 4911SOL     OW14969   2.357   0.911   5.639  0.3678  0.2293 -0.7598
 4911SOL    HW114970   2.423   0.943   5.700 -0.1255  0.6093 -0.4220
 4911SOL    HW214971   2.364   0.815   5.643  0.0367  0.2415  0.2222
 4912SOL     OW14972   0.240   5.031   0.649  0.3179 -0.3066  0.2790
 4912SOL    HW114973   0.250   4.947   0.605  0.4201 -0.4487  0.5697
 4912SOL    HW214974   0.157   5.066   0.616  1.4140  0.5965 -1.6701
 4913SOL     OW14975   4.711   5.106   0.229 -0.5871  0.3359 -0.3400
 4913SOL    HW114976   4.654   5.162   0.177  0.1202  0.9524 -0.4689
 4913SOL    HW214977   4.666   5.098   0.314  0.1646  2.6403  0.3392
 4914SOL     OW14978   2.873   1.083   4.217 -0.5025  0.3578  0.1627
 4914SOL    HW114979   2.953   1.038   4.191 -0.2806  0.6915  0.2553
 4914SOL    HW214980   2.897   1.129   4.298 -1.0925 -0.4264  0.8077
 4915SOL     OW14981   1.701   2.872   3.737  0.2148 -0.1681  0.2334
 4915SOL    HW114982   1.713   2.962   3.707 -0.4980  0.7453  2.5091
 4915SOL    HW214983   1.606   2.861   3.741  0.2948 -0.6980  0.8347
 4916SOL     OW14984   1.246   2.382   1.190  0.1541 -0.3706 -0.1077
 4916SOL    HW114985   1.233   2.293   1.223 -0.6583  0.2194  1.2089
 4916SOL    HW214986   1.326   2.412   1.233 -1.1026  0.5317  1.7112
 4917SOL     OW14987   0.636   2.762   2.906  0.2132  0.0006 -0.2178
 4917SOL    HW114988   0.623   2.797   2.818  1.9593  1.8011  0.1827
 4917SOL    HW214989   0.614   2.669   2.897 -0.4530  0.2955 -2.3422
 4918SOL     OW14990   5.876   6.109   5.306  0.1067 -0.1037 -0.3842
 4918SOL    HW114991   5.855   6.016   5.312 -1.0830  0.1800  0.1491
 4918SOL    HW214992   5.890   6.137   5.396  0.0628  0.3200 -0.5046
 4919SOL     OW14993   2.622   3.294   0.516 -0.2172 -0.8596 -0.6131
 4919SOL    HW114994   2.650   3.306   0.607 -1.3175 -0.4702 -0.3031
 4919SOL    HW214995   2.679   3.225   0.482  1.7432  0.5130 -0.3301
 4920SOL     OW14996   5.180   3.866   0.509 -0.1286  0.2946 -0.0504
 4920SOL    HW114997   5.173   3.779   0.548 -0.8594 -0.0000 -0.8113
 4920SOL    HW214998   5.224   3.918   0.575  1.4682 -0.9520 -0.0733
 4921SOL     OW14999   1.227   2.950   5.583 -0.8595 -0.0008  0.0093
 4921SOL    HW115000   1.195   2.866   5.616  1.3594 -0.3262  1.5739
 4921SOL    HW215001   1.257   2.996   5.661 -1.0882  1.8705 -0.9414
 4922SOL     OW15002   2.961   3.231   0.389 -0.5585  0.5432 -0.7446
 4922SOL    HW115003   3.013   3.229   0.309 -1.2090  1.0210 -1.1974
 4922SOL    HW215004   3.009   3.177   0.451 -1.4843 -2.3757 -2.3561
 4923SOL     OW15005   1.754   6.098   3.611  0.3208 -0.5346  0.0767
 4923SOL    HW115006   1.682   6.118   3.671  0.4151 -3.0638  1.1882
 4923SOL    HW215007   1.711   6.075   3.529 -0.1273 -1.3340  0.5183
 4924SOL     OW15008   4.234   0.808   2.523  0.1375 -0.0029  0.0315
 4924SOL    HW115009   4.176   0.855   2.583  1.8259  1.0435  0.9452
 4924SOL    HW215010   4.177   0.781   2.451 -1.7710 -0.4356  1.6029
 4925SOL     OW15011   5.438   6.103   4.476  0.9856 -0.9258  0.5757
 4925SOL    HW115012   5.370   6.036   4.466  0.1582  0.1706 -1.7462
 4925SOL    HW215013   5.517   6.063   4.439  0.8117 -1.0969  0.3864
 4926SOL     OW15014   3.848   4.470   2.010  0.2846  0.2515 -0.0163
 4926SOL    HW115015   3.791   4.409   1.963  0.7059 -1.3096  1.3989
 4926SOL    HW215016   3.885   4.526   1.942  0.3837 -1.4935 -1.4696
 4927SOL     OW15017   2.972   0.074   0.986 -0.6601  0.0525  0.3520
 4927SOL    HW115018   2.959  -0.010   1.029 -0.4341 -1.0021 -1.5216
 4927SOL    HW215019   3.045   0.114   1.033 -0.1329 -1.2430  0.6750
 4928SOL     OW15020   5.158   5.314   1.060  0.2616  0.2591 -0.0870
 4928SOL    HW115021   5.245   5.274   1.054  1.1339  1.7069  1.7480
 4928SOL    HW215022   5.097   5.244   1.040  1.8257 -0.8924 -1.0728
 4929SOL     OW15023   4.881   2.005   4.876 -0.2558  0.0861 -0.4959
 4929SOL    HW115024   4.840   2.091   4.886  1.5925  1.2711 -2.2871
 4929SOL    HW215025   4.952   2.019   4.814  1.0121 -2.4624  0.2113
 4930SOL     OW15026   2.526   3.067   5.390 -0.3938 -0.5054 -1.0234
 4930SOL    HW115027   2.583   3.006   5.437 -0.7745 -0.8048 -0.9483
 4930SOL    HW215028   2.565   3.153   5.405 -1.0709 -0.4581  0.7229
 4931SOL     OW15029   4.741   5.576   5.813  0.9202 -0.9042 -0.3209
 4931SOL    HW115030   4.787   5.499   5.849  0.2113 -0.7189  1.0717
 4931SOL    HW215031   4.732   5.635   5.888 -0.7322 -0.5274 -0.7743
 4932SOL     OW15032   2.392   5.051   1.786 -0.1725 -0.0286  0.6974
 4932SOL    HW115033   2.404   4.964   1.824 -1.9960 -1.2599 -1.3728
 4932SOL    HW215034   2.374   5.036   1.693  2.4956  2.7488 -0.4868
 4933SOL     OW15035   0.830   5.885   2.836  0.0539  0.1811  0.4769
 4933SOL    HW115036   0.800   5.958   2.783  0.5782 -0.5067 -0.8243
 4933SOL    HW215037   0.814   5.807   2.782  1.9402 -0.4106  0.6811
 4934SOL     OW15038   0.871   0.276   1.470  0.6238  0.1415  0.1464
 4934SOL    HW115039   0.785   0.248   1.500  0.5021  0.5178  0.1540
 4934SOL    HW215040   0.924   0.282   1.550  1.0359 -1.3334  0.0223
 4935SOL     OW15041   3.714   3.852   0.009  0.2033 -0.0621 -0.0625
 4935SOL    HW115042   3.726   3.889  -0.079 -2.1985  0.6245 -0.1785
 4935SOL    HW215043   3.792   3.881   0.058  0.2177  2.0180 -1.1970
 4936SOL     OW15044   3.019   0.286   1.898  0.1536 -0.0318 -0.2405
 4936SOL    HW115045   2.980   0.307   1.813 -2.0392 -0.3702  0.6267
 4936SOL    HW215046   2.948   0.297   1.960  1.8715  0.8372  1.6808
 4937SOL     OW15047   5.068   4.321   5.652 -0.3109 -0.3540 -0.2325
 4937SOL    HW115048   5.031   4.251   5.705 -0.2481  0.2654  0.6608
 4937SOL    HW215049   5.154   4.338   5.690 -1.4057  2.1036  1.4685
 4938SOL     OW15050   1.217   0.513   2.076 -0.3910  0.0919 -0.0114
 4938SOL    HW115051   1.134   0.481   2.110 -0.4603  0.5344  0.2500
 4938SOL    HW215052   1.282   0.481   2.139 -0.3469 -0.3910 -0.3053
 4939SOL     OW15053   3.556   1.328   2.613 -0.0871 -0.1891  0.1213
 4939SOL    HW115054   3.558   1.404   2.671 -0.6191  1.6786 -2.1527
 4939SOL    HW215055   3.646   1.322   2.579 -0.0556 -0.5709  0.2689
 4940SOL     OW15056   5.300   1.391   5.753  0.9811 -0.3579 -0.3413
 4940SOL    HW115057   5.223   1.334   5.758  0.4340  0.4373  1.1121
 4940SOL    HW215058   5.318   1.414   5.844  1.0725  1.9076 -0.8748
 4941SOL     OW15059   4.356   2.297   4.559 -0.4345 -0.1588  0.1809
 4941SOL    HW115060   4.324   2.320   4.472 -0.9653 -1.0407  0.1404
 4941SOL    HW215061   4.410   2.219   4.546  0.1588  0.1783  0.5310
 4942SOL     OW15062   5.731   4.683   2.281 -0.3905 -0.0402 -0.1331
 4942SOL    HW115063   5.761   4.745   2.347 -0.0734 -0.3978  0.0636
 4942SOL    HW215064   5.716   4.736   2.203  0.3854  0.2065 -0.1202
 4943SOL     OW15065   2.954   5.917   3.395 -0.4316 -0.1541  0.4591
 4943SOL    HW115066   3.029   5.923   3.336  0.6561 -1.0535  1.6974
 4943SOL    HW215067   2.990   5.881   3.476 -2.3724 -1.5454  0.7703
 4944SOL     OW15068   2.357   0.690   2.714 -0.4422 -0.4728  0.3200
 4944SOL    HW115069   2.358   0.740   2.796 -3.5844 -1.5566  1.1743
 4944SOL    HW215070   2.337   0.600   2.742 -2.1683 -0.7661 -1.6032
 4945SOL     OW15071   3.705   3.933   2.278  0.0056  0.0959  0.2866
 4945SOL    HW115072   3.782   3.964   2.231  1.5899 -1.1622  1.8784
 4945SOL    HW215073   3.740   3.874   2.346 -2.0896  1.5433  2.8461
 4946SOL     OW15074   0.442   5.891   5.183  0.1165 -0.7459 -0.3654
 4946SOL    HW115075   0.516   5.927   5.134  1.1907 -0.0721  1.6206
 4946SOL    HW215076   0.420   5.810   5.137  2.1623 -1.0167 -0.9883
 4947SOL     OW15077   3.857   4.337   1.504 -0.1938  0.8038  0.2782
 4947SOL    HW115078   3.905   4.266   1.462  1.4242  0.2673  2.8105
 4947SOL    HW215079   3.926   4.399   1.531 -1.3953  2.3888 -0.1112
 4948SOL     OW15080   5.700   2.997   5.254  0.0411  0.5102  0.1486
 4948SOL    HW115081   5.705   3.005   5.159  0.5954  4.4860  0.3326
 4948SOL    HW215082   5.792   2.996   5.283 -0.1086  1.0357  0.6707
 4949SOL     OW15083   4.363   6.131   2.382 -0.0682 -0.4062 -0.7535
 4949SOL    HW115084   4.419   6.148   2.458 -0.5927  0.7187 -0.5912
 4949SOL    HW215085   4.275   6.154   2.412 -0.2383  0.3805 -1.7998
 4950SOL     OW15086   2.383   5.577   6.103  0.5381  0.0181  0.2117
 4950SOL    HW115087   2.368   5.573   6.008  1.0132  0.3680  0.1207
 4950SOL    HW215088   2.341   5.658   6.130 -0.0517 -0.3403  0.3893
 4951SOL     OW15089   0.419   2.946   4.701  0.3254 -0.2487  0.2911
 4951SOL    HW115090   0.411   2.858   4.666 -0.6326  0.8136 -2.3882
 4951SOL    HW215091   0.329   2.973   4.721  0.4536  0.5718 -0.1723
 4952SOL     OW15092   4.275   6.080   0.314  0.0696  0.0174 -0.1545
 4952SOL    HW115093   4.262   6.091   0.220  0.8117 -2.0650 -0.5654
 4952SOL    HW215094   4.285   6.169   0.348  0.0149  0.7967 -2.0731
 4953SOL     OW15095   1.702   2.492   2.169 -0.0081  0.0905 -0.3859
 4953SOL    HW115096   1.773   2.451   2.120 -0.4770 -1.9003  0.5123
 4953SOL    HW215097   1.723   2.474   2.261 -0.9067  0.8000 -0.0209
 4954SOL     OW15098   2.113   3.204   0.386  0.5349 -0.6032 -0.0109
 4954SOL    HW115099   2.110   3.132   0.323  0.8733  0.2770 -1.0679
 4954SOL    HW215100   2.032   3.196   0.436  0.4146 -1.5092 -0.3329
 4955SOL     OW15101   4.498   3.923   3.063  0.2333  0.0411 -0.1268
 4955SOL    HW115102   4.571   3.890   3.011  1.4098 -1.7706  2.4567
 4955SOL    HW215103   4.426   3.863   3.045  0.4913 -0.3034 -0.0178
 4956SOL     OW15104   1.173   5.571   1.592 -0.0809 -0.1146 -0.2785
 4956SOL    HW115105   1.243   5.514   1.624 -0.0787 -0.6770 -1.2381
 4956SOL    HW215106   1.112   5.511   1.547 -0.3471  0.5640 -0.8398
 4957SOL     OW15107   0.991   3.460   1.806  0.0675 -0.3092  0.2075
 4957SOL    HW115108   0.954   3.542   1.774  1.3625  0.2980  0.1662
 4957SOL    HW215109   0.925   3.394   1.787 -1.9142  0.9828  2.0462
 4958SOL     OW15110   5.447   1.183   4.125 -0.4113 -0.3192 -0.0735
 4958SOL    HW115111   5.448   1.089   4.104 -1.2746 -0.5597  0.8492
 4958SOL    HW215112   5.481   1.226   4.047 -1.9393 -1.2508 -1.3001
 4959SOL     OW15113   5.478   1.236   4.664 -0.1421 -0.0441 -0.0281
 4959SOL    HW115114   5.505   1.144   4.653 -2.1404 -0.5112 -1.6831
 4959SOL    HW215115   5.519   1.281   4.590  0.1176  0.2543  0.2910
 4960SOL     OW15116   2.389   4.311   3.221  0.8664 -0.2340  0.0838
 4960SOL    HW115117   2.345   4.362   3.289 -0.9213 -1.2321 -0.2395
 4960SOL    HW215118   2.361   4.221   3.238  1.4027 -0.6657 -1.2330
 4961SOL     OW15119   4.985   1.608   5.461  0.1892 -0.3419 -0.2937
 4961SOL    HW115120   4.988   1.554   5.382  0.8013 -0.2587 -0.3293
 4961SOL    HW215121   5.074   1.606   5.495 -0.1691 -0.7994  0.6816
 4962SOL     OW15122   3.988   5.245   2.604  0.0284  0.3036 -0.3326
 4962SOL    HW115123   3.908   5.240   2.656  0.9743 -0.4900  1.1200
 4962SOL    HW215124   4.037   5.318   2.643  0.3152  0.3453 -0.7643
 4963SOL     OW15125   1.426   0.963   5.847 -0.1444  0.0533  0.4375
 4963SOL    HW115126   1.448   1.029   5.913 -0.1218 -0.5921  1.0871
 4963SOL    HW215127   1.422   0.881   5.896  5.5436 -1.6151 -1.1494
 4964SOL     OW15128   2.938   0.549   1.199 -0.4849 -0.2780 -0.3918
 4964SOL    HW115129   3.014   0.600   1.171 -1.5163  2.1653  0.9739
 4964SOL    HW215130   2.975   0.467   1.233  1.4288  0.3680 -0.8114
 4965SOL     OW15131   1.599   3.863   1.835  0.2156 -0.6660 -0.1967
 4965SOL    HW115132   1.643   3.867   1.919 -0.1873 -0.1178 -0.0016
 4965SOL    HW215133   1.531   3.796   1.846 -0.8893  0.5254  0.4468
 4966SOL     OW15134   1.544   2.024   3.124  0.1305  0.3867  0.0561
 4966SOL    HW115135   1.524   1.962   3.053 -1.2064  0.7621  0.0656
 4966SOL    HW215136   1.589   1.972   3.190  2.0746  0.1857 -1.3512
 4967SOL     OW15137   2.391   4.323   4.963  0.3802 -0.7871  0.2940
 4967SOL    HW115138   2.379   4.413   4.932 -5.4821 -0.6583  1.8656
 4967SOL    HW215139   2.381   4.269   4.885  0.5638 -0.1841 -0.1552
 4968SOL     OW15140   1.597   3.257   4.807 -0.2783  0.4149 -0.3965
 4968SOL    HW115141   1.551   3.268   4.890 -0.5977 -0.1928 -0.4874
 4968SOL    HW215142   1.667   3.194   4.826  1.3146  2.2128  0.0361
 4969SOL     OW15143   0.524   3.598   6.140  0.3066  0.3307  0.2036
 4969SOL    HW115144   0.430   3.600   6.124  0.3005  0.1371  0.2072
 4969SOL    HW215145   0.560   3.668   6.086  0.4283 -1.0565 -1.6122
 4970SOL     OW15146   2.741   2.441   0.495  0.0277  0.0593 -0.4587
 4970SOL    HW115147   2.824   2.464   0.452  0.3962 -1.2583 -0.4880
 4970SOL    HW215148   2.748   2.347   0.512 -2.1245 -0.4263 -1.9195
 4971SOL     OW15149   1.723   0.980   5.506  0.0235 -0.0063 -0.1453
 4971SOL    HW115150   1.758   0.944   5.588 -1.1682 -1.6865 -0.3056
 4971SOL    HW215151   1.794   0.969   5.443  0.4146 -0.1459  0.3132
 4972SOL     OW15152   5.537   2.367   5.059 -0.1904  0.4345 -0.5690
 4972SOL    HW115153   5.460   2.393   5.008 -2.5846 -2.7735  1.0292
 4972SOL    HW215154   5.555   2.277   5.032 -0.5277 -0.8147  2.8599
 4973SOL     OW15155   5.114   0.083   5.386 -0.2756 -0.5526  0.0432
 4973SOL    HW115156   5.104   0.031   5.466 -0.2303  0.8824  1.0259
 4973SOL    HW215157   5.172   0.155   5.411 -0.4202  0.0446 -1.2333
 4974SOL     OW15158   3.524   3.898   3.314 -0.3439 -0.4691 -0.1672
 4974SOL    HW115159   3.479   3.943   3.385 -0.2772  0.0067 -0.4193
 4974SOL    HW215160   3.455   3.880   3.250 -0.1428  0.5297 -0.6892
 4975SOL     OW15161   5.972   0.742   4.242  0.8794  0.9744  0.0978
 4975SOL    HW115162   5.925   0.733   4.324 -0.1987  1.5653 -0.4306
 4975SOL    HW215163   5.942   0.669   4.188  0.5451  1.3555 -0.2436
 4976SOL     OW15164   2.250   4.145   1.317 -0.1463  0.0263  0.0264
 4976SOL    HW115165   2.290   4.170   1.233  2.0166  1.4854  1.3579
 4976SOL    HW215166   2.188   4.076   1.295  0.9725 -0.2544 -2.6526
 4977SOL     OW15167   0.658   2.698   2.125 -0.4871 -0.3152 -0.0281
 4977SOL    HW115168   0.593   2.721   2.059 -1.6889 -1.4256  0.7016
 4977SOL    HW215169   0.740   2.688   2.077 -0.6423  1.8881 -0.8684
 4978SOL     OW15170   1.763   2.950   4.010  0.4819 -0.0691  0.1787
 4978SOL    HW115171   1.773   2.904   3.927  1.0754  0.9400 -0.3173
 4978SOL    HW215172   1.766   3.042   3.987 -2.6559  0.3266  0.8926
 4979SOL     OW15173   3.808   2.802   2.731 -0.2707  0.1766  0.0429
 4979SOL    HW115174   3.839   2.776   2.644 -1.0397  1.3195 -0.5976
 4979SOL    HW215175   3.738   2.864   2.714  1.9698  3.3868  1.4218
 4980SOL     OW15176   4.119   5.800   5.698  0.3242 -0.4751 -0.1955
 4980SOL    HW115177   4.214   5.811   5.702  0.3916 -0.9297 -0.4875
 4980SOL    HW215178   4.105   5.707   5.716  0.1563 -1.0788 -3.0544
 4981SOL     OW15179   2.046   2.162   0.398  0.2547 -0.0305 -0.3552
 4981SOL    HW115180   2.117   2.181   0.337 -0.4977 -0.0093 -1.2537
 4981SOL    HW215181   1.971   2.210   0.363 -0.2071 -0.0639  0.5616
 4982SOL     OW15182   6.005   0.446   2.620 -0.2664  0.4902 -0.4568
 4982SOL    HW115183   6.042   0.468   2.534  1.2920 -0.7098 -0.1392
 4982SOL    HW215184   5.974   0.356   2.611  1.7748 -0.4046  0.7395
 4983SOL     OW15185   5.220   4.973   3.805  0.2427 -0.4833  0.4987
 4983SOL    HW115186   5.245   4.934   3.889  0.8587 -0.4645  0.3328
 4983SOL    HW215187   5.125   4.977   3.808  0.2614 -0.3840  1.2405
 4984SOL     OW15188   3.901   2.181   2.865 -0.3573  0.5373 -0.1660
 4984SOL    HW115189   3.835   2.155   2.800  2.2869  0.1392 -2.9163
 4984SOL    HW215190   3.978   2.127   2.843  0.8804  0.8457  2.9872
 4985SOL     OW15191   5.134   5.477   4.678 -0.2619  0.1696  0.0395
 4985SOL    HW115192   5.200   5.510   4.617  1.1627  1.3093  2.1174
 4985SOL    HW215193   5.051   5.503   4.639  0.6769  2.5353 -0.5124
 4986SOL     OW15194   4.138   0.178   2.745 -0.0259 -0.3877  0.4068
 4986SOL    HW115195   4.195   0.104   2.725 -0.5851 -1.2440  1.8239
 4986SOL    HW215196   4.049   0.143   2.736 -0.2976  0.1516  0.9130
 4987SOL     OW15197   3.767   4.333   0.370 -0.7275 -0.5443 -0.2855
 4987SOL    HW115198   3.859   4.311   0.377 -0.6020  0.3717  1.4950
 4987SOL    HW215199   3.764   4.400   0.302  0.5123  2.0612  2.0374
 4988SOL     OW15200   4.002   1.582   5.715 -0.6550 -0.3247  0.0266
 4988SOL    HW115201   3.996   1.659   5.772  0.3372  0.5005 -0.9282
 4988SOL    HW215202   4.058   1.521   5.763 -0.8337 -0.1426  0.4696
 4989SOL     OW15203   4.891   1.303   5.037 -0.2277 -0.3906 -0.7712
 4989SOL    HW115204   4.917   1.211   5.036 -0.5700 -0.5940  1.8635
 4989SOL    HW215205   4.944   1.344   4.968  1.8391 -2.0797 -0.2916
 4990SOL     OW15206   2.085   0.675   2.233 -0.1685 -0.1886 -0.4691
 4990SOL    HW115207   2.096   0.693   2.326 -0.1052 -0.8246 -0.3480
 4990SOL    HW215208   2.045   0.588   2.230  0.1413 -0.3171 -1.0398
 4991SOL     OW15209   5.750   1.661   0.650  0.5130  0.5844 -0.3992
 4991SOL    HW115210   5.680   1.599   0.629  1.6070 -0.2166 -2.0104
 4991SOL    HW215211   5.765   1.650   0.744 -0.2956 -0.5599 -0.3790
 4992SOL     OW15212   6.129   5.272   2.324 -0.0017 -0.3332 -0.3114
 4992SOL    HW115213   6.128   5.225   2.407 -0.0314  0.3443  0.0817
 4992SOL    HW215214   6.197   5.339   2.335 -1.1780  0.8752 -0.1858
 4993SOL     OW15215   4.838   5.493   3.691  0.0623 -0.2861 -0.1258
 4993SOL    HW115216   4.807   5.556   3.756 -2.8207  0.2619 -1.8590
 4993SOL    HW215217   4.851   5.544   3.611  1.0490 -1.3509 -0.6793
 4994SOL     OW15218   5.535   2.033   2.912 -0.1488  0.2170  0.8031
 4994SOL    HW115219   5.502   2.117   2.945 -0.0228 -0.0786  1.7156
 4994SOL    HW215220   5.628   2.034   2.934 -0.4774 -0.8667  2.3623
 4995SOL     OW15221   0.658   5.576   4.874 -0.0984 -0.2152  0.5992
 4995SOL    HW115222   0.689   5.660   4.839 -0.6707 -0.3104 -0.1795
 4995SOL    HW215223   0.735   5.538   4.916  0.3188  0.4395  0.4567
 4996SOL     OW15224   2.402   2.903   3.722  0.0109 -0.0599  0.3600
 4996SOL    HW115225   2.409   2.833   3.658  0.5317  1.0818 -0.8795
 4996SOL    HW215226   2.492   2.935   3.733 -0.4224  1.5572 -0.4654
 4997SOL     OW15227   5.187   3.905   3.766  0.0637  0.2667 -0.3011
 4997SOL    HW115228   5.190   3.893   3.861 -0.1362 -1.4008 -0.4708
 4997SOL    HW215229   5.194   3.817   3.731  0.3727  0.8829 -1.8558
 4998SOL     OW15230   1.069   5.372   3.615  0.1764 -0.1838 -0.5027
 4998SOL    HW115231   0.985   5.408   3.585 -0.6432 -1.1212  0.5884
 4998SOL    HW215232   1.132   5.403   3.550 -0.9802  0.6518 -1.2842
 4999SOL     OW15233   3.568   5.778   4.361  0.3065 -0.0219  0.1821
 4999SOL    HW115234   3.631   5.710   4.337 -0.6095 -0.7757 -0.1965
 4999SOL    HW215235   3.620   5.856   4.375  1.3386 -0.6787  0.0861
 5000SOL     OW15236   6.140   5.351   4.399  0.0867  0.2890  0.0013
 5000SOL    HW115237   6.213   5.300   4.435 -0.0651 -0.2047 -0.3687
 5000SOL    HW215238   6.149   5.437   4.438  0.7410  0.1659  0.1328
 5001SOL     OW15239   5.151   1.454   3.791 -0.3088  0.0011 -0.1970
 5001SOL    HW115240   5.148   1.389   3.860 -1.0719  0.3011  0.0636
 5001SOL    HW215241   5.181   1.406   3.714 -0.5796 -0.5901  0.0629
 5002SOL     OW15242   5.447   4.689   3.124 -0.0063  0.2679  0.5403
 5002SOL    HW115243   5.495   4.632   3.064  1.4474  1.3547  0.5924
 5002SOL    HW215244   5.381   4.732   3.070  1.0367  0.9423 -0.2305
 5003SOL     OW15245   2.206   4.456   0.742 -0.4462 -0.4092  0.2683
 5003SOL    HW115246   2.182   4.387   0.679  0.0760  1.7973 -2.5418
 5003SOL    HW215247   2.302   4.456   0.741 -0.4421  0.2564  0.3274
 5004SOL     OW15248   3.360   5.872   5.579  0.1998  0.0613  0.5141
 5004SOL    HW115249   3.364   5.961   5.545 -1.6978 -0.5312 -1.5075
 5004SOL    HW215250   3.290   5.875   5.644  0.4917  0.1434  0.8277
 5005SOL     OW15251   0.027   4.417   3.388 -0.3301 -0.6652  0.5454
 5005SOL    HW115252  -0.053   4.460   3.359 -0.2203 -0.0622  1.1069
 5005SOL    HW215253   0.075   4.399   3.307 -0.8029 -0.5769  0.2413
 5006SOL     OW15254   0.760   5.896   0.727 -0.1474  0.1711  0.5246
 5006SOL    HW115255   0.809   5.818   0.702 -1.7356 -0.6634 -0.1013
 5006SOL    HW215256   0.818   5.969   0.704  1.5984 -0.8035  1.6467
 5007SOL     OW15257   0.362   1.033   1.149 -0.3727  0.3927 -0.2584
 5007SOL    HW115258   0.384   1.009   1.239 -2.1682 -0.6173 -0.0370
 5007SOL    HW215259   0.365   0.951   1.100  0.3535  0.8921 -1.0843
 5008SOL     OW15260   4.631   5.691   1.145  0.6275 -0.0664 -0.2067
 5008SOL    HW115261   4.612   5.745   1.222  0.3258 -0.4111 -0.0357
 5008SOL    HW215262   4.719   5.657   1.160  0.3116 -0.6784  0.3175
 5009SOL     OW15263   3.119   0.838   1.823  0.3343  0.5298  0.2860
 5009SOL    HW115264   3.123   0.923   1.866  1.4878  0.0875  1.0870
 5009SOL    HW215265   3.118   0.774   1.895 -1.5545 -0.1366 -0.2672
 5010SOL     OW15266   4.657   2.172   2.503 -0.0806  0.1588 -0.4826
 5010SOL    HW115267   4.598   2.162   2.577  0.7045  1.7436  0.4136
 5010SOL    HW215268   4.743   2.185   2.543  0.3129  1.3293 -1.6465
 5011SOL     OW15269   0.885   1.105   1.477  0.4907 -0.1315 -0.1239
 5011SOL    HW115270   0.947   1.177   1.487 -0.3496  0.4365  1.1969
 5011SOL    HW215271   0.862   1.105   1.384 -1.0742  2.6980  0.1591
 5012SOL     OW15272   6.055   3.457   1.050 -0.0742 -0.2226  0.0221
 5012SOL    HW115273   6.095   3.378   1.087  1.2185  0.3882 -0.0044
 5012SOL    HW215274   6.050   3.439   0.956 -0.3845 -0.5144  0.0907
 5013SOL     OW15275   2.974   5.429   2.483  0.2633  0.1501 -0.4903
 5013SOL    HW115276   2.958   5.522   2.495 -1.7800 -0.2032 -0.0224
 5013SOL    HW215277   3.066   5.423   2.460  0.7896  2.1563  0.8180
 5014SOL     OW15278   2.862   2.947   0.338  0.1146  0.1835 -0.2174
 5014SOL    HW115279   2.911   2.989   0.409 -0.4642 -0.3571  0.5185
 5014SOL    HW215280   2.838   2.861   0.373 -1.5182  0.5007 -0.5039
 5015SOL     OW15281   3.812   2.511   2.719 -0.5701  0.1112 -0.2461
 5015SOL    HW115282   3.725   2.481   2.691 -0.5659  1.3854 -1.7857
 5015SOL    HW215283   3.813   2.604   2.699  2.2356 -0.3977 -3.4264
 5016SOL     OW15284   2.829   2.081   3.946  0.2636  0.6968  0.5421
 5016SOL    HW115285   2.764   2.124   3.891  1.3649  1.3155 -0.3085
 5016SOL    HW215286   2.785   2.070   4.031 -1.8446 -1.2371 -0.6864
 5017SOL     OW15287   4.295   2.793   3.099  0.3143 -0.3299  0.2162
 5017SOL    HW115288   4.219   2.804   3.042 -0.3226 -0.0651  1.0949
 5017SOL    HW215289   4.353   2.735   3.051 -0.2655 -0.2109 -0.6451
 5018SOL     OW15290   3.408   1.632   4.760 -0.2170 -0.1742 -0.2261
 5018SOL    HW115291   3.425   1.695   4.690  0.1127  0.0169  0.0245
 5018SOL    HW215292   3.466   1.559   4.741 -0.9902 -0.6434 -0.8219
 5019SOL     OW15293   0.296   0.253   1.630  0.4877 -0.0643 -0.3525
 5019SOL    HW115294   0.252   0.321   1.681  0.6723 -0.3746  0.2232
 5019SOL    HW215295   0.344   0.302   1.563 -0.3162  0.3017 -0.6761
 5020SOL     OW15296   3.134   1.446   3.467  0.5277 -0.7613 -0.5524
 5020SOL    HW115297   3.061   1.499   3.499  0.8367 -0.6848  0.0315
 5020SOL    HW215298   3.186   1.507   3.413  1.8178  0.0327  1.4797
 5021SOL     OW15299   0.252   6.151   5.378 -0.8490 -0.4957  0.1747
 5021SOL    HW115300   0.236   6.209   5.452  0.1679  0.2927 -0.2095
 5021SOL    HW215301   0.342   6.169   5.351 -1.3434 -0.4258 -1.5605
 5022SOL     OW15302   1.314   2.422   2.518 -0.0947 -0.2781  0.0087
 5022SOL    HW115303   1.334   2.453   2.429  0.4271 -0.7455 -0.0419
 5022SOL    HW215304   1.314   2.327   2.511 -0.2373 -0.3151  0.4734
 5023SOL     OW15305   3.379   2.480   5.430  0.4943  0.1145  0.2239
 5023SOL    HW115306   3.370   2.386   5.446  0.4701  0.1328  0.3185
 5023SOL    HW215307   3.373   2.520   5.517 -2.1823  0.4278 -0.0237
 5024SOL     OW15308   2.117   2.365   3.050  0.1398 -0.6853 -0.0272
 5024SOL    HW115309   2.047   2.422   3.017 -1.1676 -1.9731  0.4191
 5024SOL    HW215310   2.157   2.328   2.971  0.9942  0.7627 -0.3231
 5025SOL     OW15311   5.127   2.487   3.596 -1.0217 -0.0647  0.4350
 5025SOL    HW115312   5.191   2.557   3.612  1.5649 -1.5990 -2.1076
 5025SOL    HW215313   5.083   2.513   3.516  0.1569 -1.3651 -0.6868
 5026SOL     OW15314   1.257   1.422   3.194 -0.3231 -0.3677  0.2310
 5026SOL    HW115315   1.346   1.457   3.193 -0.6238  0.4899  1.4118
 5026SOL    HW215316   1.258   1.353   3.127  1.8634 -1.9674  1.7595
 5027SOL     OW15317   1.526   5.608   5.877 -0.8485  0.4469 -0.6808
 5027SOL    HW115318   1.555   5.546   5.810 -1.5550  0.7830 -1.3142
 5027SOL    HW215319   1.430   5.601   5.876 -0.8914 -1.7186  2.3516
 5028SOL     OW15320   2.004   2.241   3.650 -0.1845  0.2031  0.2818
 5028SOL    HW115321   2.095   2.234   3.620 -0.2781 -0.6131  0.1758
 5028SOL    HW215322   2.004   2.201   3.736 -0.1963  1.3429  0.8343
 5029SOL     OW15323   6.063   0.292   2.057 -0.1408  0.3238  0.5661
 5029SOL    HW115324   5.975   0.291   2.093 -1.2974 -2.4182 -1.8769
 5029SOL    HW215325   6.109   0.223   2.105 -0.0431  0.2121  0.3133
 5030SOL     OW15326   1.158   1.172   3.926  0.4388  0.2565 -0.4717
 5030SOL    HW115327   1.208   1.242   3.969 -0.5513  1.0392 -0.5655
 5030SOL    HW215328   1.144   1.204   3.837  1.2523 -0.7312 -0.9723
 5031SOL     OW15329   0.100   0.301   4.040 -0.5514  0.0559 -0.0889
 5031SOL    HW115330   0.178   0.271   4.085 -0.6071 -1.1186 -0.7474
 5031SOL    HW215331   0.126   0.306   3.948 -1.2641 -0.4203 -0.3215
 5032SOL     OW15332   0.344   0.754   3.078 -0.1996 -0.0333 -0.4078
 5032SOL    HW115333   0.304   0.703   3.007 -3.0723  1.6540 -0.1560
 5032SOL    HW215334   0.321   0.706   3.157  0.1270 -0.1709 -0.3963
 5033SOL     OW15335   0.659   1.757   0.377 -0.0313 -0.2732 -0.2476
 5033SOL    HW115336   0.689   1.700   0.447  0.8096 -1.2644 -1.3779
 5033SOL    HW215337   0.593   1.706   0.330 -0.1417  0.1388 -0.5555
 5034SOL     OW15338   5.449   0.701   2.524  0.1246 -0.2394 -0.1415
 5034SOL    HW115339   5.476   0.753   2.600 -1.0824 -0.5650  0.5456
 5034SOL    HW215340   5.353   0.710   2.522  0.1654  0.1969 -1.9660
 5035SOL     OW15341   3.180   2.306   1.694 -0.1129  0.1296  0.2928
 5035SOL    HW115342   3.124   2.257   1.754 -0.0529 -1.8109 -1.1424
 5035SOL    HW215343   3.268   2.293   1.728 -0.0833 -0.9208 -0.1441
 5036SOL     OW15344   4.457   5.616   1.569 -0.1273 -0.0332  0.2843
 5036SOL    HW115345   4.380   5.618   1.511  0.5514  2.3347 -0.6290
 5036SOL    HW215346   4.420   5.623   1.657 -0.9696  2.4743 -0.1957
 5037SOL     OW15347   5.954   2.081   3.231 -0.1976  1.0495  0.2526
 5037SOL    HW115348   6.003   2.027   3.293  0.7435  2.2892  0.6224
 5037SOL    HW215349   5.895   2.020   3.188 -0.7419  0.1032  2.2108
 5038SOL     OW15350   2.547   5.132   1.441 -0.2856 -0.5198 -0.0813
 5038SOL    HW115351   2.481   5.070   1.472 -0.2638  0.7440  2.7634
 5038SOL    HW215352   2.630   5.086   1.454 -0.2188  0.2042  2.6537
 5039SOL     OW15353   4.417   3.052   3.535  0.0286 -0.0599 -0.0835
 5039SOL    HW115354   4.428   3.062   3.440 -2.1355 -0.0350 -0.3928
 5039SOL    HW215355   4.433   2.958   3.550 -0.6600 -0.2817 -0.6634
 5040SOL     OW15356   0.024   5.078   0.463  0.5339 -0.1641  0.1296
 5040SOL    HW115357  -0.057   5.118   0.434  0.1547 -0.5049  0.6817
 5040SOL    HW215358   0.029   4.995   0.415 -0.5542 -1.1558  1.6394
 5041SOL     OW15359   4.821   4.960   0.682 -0.2834  0.6683 -0.3002
 5041SOL    HW115360   4.761   4.899   0.639  0.8579 -1.6370  1.1636
 5041SOL    HW215361   4.766   5.005   0.746 -0.5785 -1.3466  0.9657
 5042SOL     OW15362   5.067   3.645   2.309  0.2222 -0.0978  0.1452
 5042SOL    HW115363   5.062   3.619   2.217 -1.6078 -1.2011  0.4966
 5042SOL    HW215364   5.152   3.612   2.339  0.8487  0.2874 -1.1182
 5043SOL     OW15365   5.412   4.329   0.938  0.4821 -0.2805  0.3634
 5043SOL    HW115366   5.332   4.288   0.905  0.7640  1.1044 -2.3475
 5043SOL    HW215367   5.476   4.258   0.944  0.0902 -0.7874 -1.1511
 5044SOL     OW15368   4.717   3.500   4.442  0.7361 -0.3268  0.1948
 5044SOL    HW115369   4.768   3.523   4.520  1.3941 -1.2434  0.0469
 5044SOL    HW215370   4.783   3.484   4.374  0.2230 -0.8449 -0.1906
 5045SOL     OW15371   4.761   4.201   1.742  0.0058  0.2229 -0.0039
 5045SOL    HW115372   4.730   4.113   1.720  1.3450 -0.6170  1.2954
 5045SOL    HW215373   4.812   4.228   1.666 -0.8077  0.0952 -0.6129
 5046SOL     OW15374   4.537   6.148   1.964  0.3787  0.4166 -0.2076
 5046SOL    HW115375   4.576   6.163   2.050  0.3434  1.1189 -0.3073
 5046SOL    HW215376   4.455   6.102   1.982  0.9951 -0.6126  0.0380
 5047SOL     OW15377   1.735   4.217   2.106  0.8866 -0.7172  0.9463
 5047SOL    HW115378   1.725   4.311   2.123  1.5391 -0.2340 -1.0801
 5047SOL    HW215379   1.796   4.187   2.173  0.5270  0.2587  1.7426
 5048SOL     OW15380   0.544   5.771   3.663  0.6608  0.1172  0.2477
 5048SOL    HW115381   0.517   5.679   3.654  1.9865 -0.8740  4.1818
 5048SOL    HW215382   0.629   5.776   3.618  0.2672 -0.3775 -0.5653
 5049SOL     OW15383   3.199   6.065   4.306  0.2658 -0.1347  0.5180
 5049SOL    HW115384   3.148   6.142   4.329  0.4286  0.6020 -1.4094
 5049SOL    HW215385   3.280   6.099   4.269  0.5144 -1.2308  0.0086
 5050SOL     OW15386   0.083   6.114   0.663  0.0612  0.8228 -0.4027
 5050SOL    HW115387   0.049   6.177   0.600  0.1063  1.2794  0.0201
 5050SOL    HW215388   0.172   6.096   0.633  0.9401  2.7996  0.7675
 5051SOL     OW15389   5.282   3.192   0.079 -0.3689 -0.1086  0.0412
 5051SOL    HW115390   5.321   3.254   0.018  1.1753 -0.3122  0.7771
 5051SOL    HW215391   5.273   3.111   0.027 -0.8481  0.2527 -0.4472
 5052SOL     OW15392   3.780   6.134   3.401 -0.2039 -0.0909  0.0652
 5052SOL    HW115393   3.776   6.195   3.327 -0.5306 -0.1747  0.0150
 5052SOL    HW215394   3.743   6.053   3.366 -1.9426  0.3428  0.8154
 5053SOL     OW15395   4.121   4.726   2.675 -0.1688  0.2335  0.2350
 5053SOL    HW115396   4.188   4.688   2.618 -0.4101  0.5832 -0.2873
 5053SOL    HW215397   4.124   4.673   2.755 -0.2532 -0.6573 -0.3431
 5054SOL     OW15398   5.084   1.902   0.350  0.5608 -0.2210 -0.2599
 5054SOL    HW115399   5.070   1.937   0.262 -1.1228 -2.6627 -1.0694
 5054SOL    HW215400   5.044   1.967   0.408 -1.2159 -0.0637 -1.5685
 5055SOL     OW15401   2.103   5.387   3.633 -0.1596  0.7063  1.1338
 5055SOL    HW115402   2.033   5.340   3.678 -0.6202  1.6854  1.4610
 5055SOL    HW215403   2.171   5.397   3.699  1.3528 -2.2998  0.2019
 5056SOL     OW15404   4.218   2.577   2.701 -0.0741 -0.2975 -0.4741
 5056SOL    HW115405   4.301   2.543   2.669  0.6928 -0.1309  1.2327
 5056SOL    HW215406   4.152   2.523   2.657  0.8972 -0.3493 -1.9577
 5057SOL     OW15407   0.802   1.616   5.757  0.4319 -0.2520  0.6182
 5057SOL    HW115408   0.883   1.566   5.763  0.5930 -0.3545 -1.5813
 5057SOL    HW215409   0.735   1.558   5.794  0.9057 -1.3703 -0.2374
 5058SOL     OW15410   3.452   3.069   2.371  0.1888  0.5640 -0.4235
 5058SOL    HW115411   3.378   3.045   2.426  1.0191 -0.7788  0.1447
 5058SOL    HW215412   3.468   3.162   2.391 -2.3901  1.4158 -1.8612
 5059SOL     OW15413   2.139   5.968   3.421  0.4311 -0.3133 -0.3501
 5059SOL    HW115414   2.064   5.921   3.458  0.3207  0.4214  0.3627
 5059SOL    HW215415   2.202   5.975   3.493  0.3259  0.8865 -0.3529
 5060SOL     OW15416   4.860   2.614   5.199 -0.6142  0.3051  0.1759
 5060SOL    HW115417   4.936   2.649   5.153 -0.3332 -0.3806  0.0911
 5060SOL    HW215418   4.801   2.688   5.210 -0.1562  0.7336 -0.2171
 5061SOL     OW15419   1.478   2.390   4.084 -0.7719  0.3672  0.0099
 5061SOL    HW115420   1.412   2.341   4.132 -0.8728  0.0515 -0.4428
 5061SOL    HW215421   1.550   2.401   4.146 -0.9958  0.1699  0.3048
 5062SOL     OW15422   2.318   2.104   5.828  0.2785  0.2113 -0.4403
 5062SOL    HW115423   2.339   2.151   5.747 -1.0484  2.6523  0.5075
 5062SOL    HW215424   2.362   2.154   5.896 -1.2021  0.1378  0.6240
 5063SOL     OW15425   1.618   4.852   0.998  0.1042  0.1659 -0.1521
 5063SOL    HW115426   1.601   4.870   0.906  0.3900  2.3729  0.1770
 5063SOL    HW215427   1.685   4.783   0.997  0.0747  0.1284 -1.5711
 5064SOL     OW15428   3.668   5.238   3.928  0.2128 -0.4359 -0.7053
 5064SOL    HW115429   3.739   5.216   3.868  0.7976 -2.7461  0.7097
 5064SOL    HW215430   3.702   5.217   4.015 -1.9018 -0.8911  0.0820
 5065SOL     OW15431   4.697   3.735   0.459 -0.4376  0.2606 -0.0996
 5065SOL    HW115432   4.667   3.818   0.497 -1.6518 -0.4058  0.4575
 5065SOL    HW215433   4.686   3.671   0.529  1.0878 -0.2777 -0.3228
 5066SOL     OW15434   5.519   0.168   2.818 -0.1803 -0.0833  0.1937
 5066SOL    HW115435   5.607   0.138   2.841  0.1797  0.7656 -0.0417
 5066SOL    HW215436   5.511   0.150   2.724  0.4527  1.5153 -0.1930
 5067SOL     OW15437   4.096   4.195   2.675  0.3151  0.2630  0.8003
 5067SOL    HW115438   4.095   4.273   2.620 -3.0101 -0.2374 -0.0658
 5067SOL    HW215439   4.082   4.229   2.764 -0.5660  0.7353  0.4997
 5068SOL     OW15440   2.585   4.306   1.876  0.2876 -1.1740 -0.1315
 5068SOL    HW115441   2.623   4.252   1.946  2.8424 -0.5624 -0.9249
 5068SOL    HW215442   2.648   4.299   1.804 -1.1080  0.0480 -1.5493
 5069SOL     OW15443   3.770   3.312   3.251 -0.0769  0.3738 -0.7092
 5069SOL    HW115444   3.808   3.398   3.271  0.2224  0.8437 -2.9739
 5069SOL    HW215445   3.697   3.303   3.312 -1.4395  3.2254 -1.7213
 5070SOL     OW15446   5.378   3.689   5.583  0.4137 -0.6375  0.7256
 5070SOL    HW115447   5.384   3.647   5.497  0.6388 -0.3330  0.5933
 5070SOL    HW215448   5.292   3.661   5.616 -0.5621  0.7929 -0.4263
 5071SOL     OW15449   5.375   5.899   1.096  0.0629 -0.7287 -0.2993
 5071SOL    HW115450   5.282   5.917   1.108  0.2849  0.0524  0.3913
 5071SOL    HW215451   5.418   5.984   1.111  0.8068 -0.8255 -1.6949
 5072SOL     OW15452   1.674   5.780   2.434  0.8416 -0.0009 -0.5852
 5072SOL    HW115453   1.619   5.844   2.479  1.2504  0.2340 -0.4103
 5072SOL    HW215454   1.619   5.744   2.365  0.7116  0.7884 -0.9037
 5073SOL     OW15455   6.025   3.652   4.000  0.1307 -0.4223 -0.5828
 5073SOL    HW115456   5.964   3.683   4.066 -0.7433 -1.7941 -0.6838
 5073SOL    HW215457   6.014   3.556   4.001  2.6877 -0.7827 -0.2329
 5074SOL     OW15458   0.585   5.545   2.439  0.1103  0.1634 -0.1681
 5074SOL    HW115459   0.511   5.520   2.494  1.6078 -1.1867  1.3715
 5074SOL    HW215460   0.650   5.476   2.454  1.1711  0.5424 -2.5308
 5075SOL     OW15461   4.843   4.120   2.389 -0.2343  0.2296  0.3139
 5075SOL    HW115462   4.830   4.170   2.308 -0.1214 -1.7096 -0.9607
 5075SOL    HW215463   4.879   4.037   2.360 -0.0721 -0.4764  2.3989
 5076SOL     OW15464   5.587   0.188   5.406  0.4851  0.0001  0.5911
 5076SOL    HW115465   5.620   0.259   5.352  0.6368 -0.0108  0.6696
 5076SOL    HW215466   5.664   0.153   5.450  0.6266 -1.0649 -0.4478
 5077SOL     OW15467   0.892   3.698   1.710 -0.4640 -0.1768 -0.2230
 5077SOL    HW115468   0.824   3.697   1.643 -1.3758  0.2996  0.6769
 5077SOL    HW215469   0.852   3.742   1.785  0.0182 -2.0181  1.1777
 5078SOL     OW15470   6.120   4.042   2.424 -0.6612  0.8262  0.4353
 5078SOL    HW115471   6.133   3.954   2.389  0.2115  0.3342  1.9163
 5078SOL    HW215472   6.170   4.044   2.506  1.2450  3.4311 -0.6569
 5079SOL     OW15473   2.247   3.533   3.252  0.5768  0.7542 -0.4326
 5079SOL    HW115474   2.178   3.557   3.190  1.7549  0.6995 -1.7974
 5079SOL    HW215475   2.209   3.460   3.302 -1.2849  2.3157  0.5939
 5080SOL     OW15476   1.286   2.667   1.008  0.2632 -0.0354 -0.3210
 5080SOL    HW115477   1.228   2.668   1.084  0.7672  0.3195  0.0731
 5080SOL    HW215478   1.229   2.684   0.933 -0.1313  0.3833  0.0665
 5081SOL     OW15479   5.434   2.854   5.926 -0.1746 -0.6880 -0.2837
 5081SOL    HW115480   5.426   2.836   5.832 -0.2559 -0.8316 -0.2505
 5081SOL    HW215481   5.502   2.794   5.956 -0.0876 -0.5798 -0.2684
 5082SOL     OW15482   4.139   1.220   1.625  0.2248  0.0775  0.2366
 5082SOL    HW115483   4.098   1.306   1.614 -2.1661 -0.9071  0.7814
 5082SOL    HW215484   4.197   1.230   1.701  1.4640  1.6561 -0.8552
 5083SOL     OW15485   4.565   3.852   2.316  0.0412  0.0192 -0.3720
 5083SOL    HW115486   4.651   3.874   2.282 -0.8529  0.4407 -2.5345
 5083SOL    HW215487   4.582   3.803   2.396  2.3269 -1.4091 -1.6443
 5084SOL     OW15488   1.573   4.138   0.341  0.2221 -0.1089 -0.2775
 5084SOL    HW115489   1.527   4.129   0.425 -0.1556  1.1966 -0.3256
 5084SOL    HW215490   1.635   4.209   0.355  0.9866 -0.6608 -0.7656
 5085SOL     OW15491   3.923   4.059   0.362 -0.2071  0.8603 -0.0748
 5085SOL    HW115492   3.970   4.053   0.279  0.1355 -0.1748  0.1809
 5085SOL    HW215493   3.986   4.097   0.423  0.0892  0.0904  0.1061
 5086SOL     OW15494   0.450   5.816   0.153  0.2137 -0.2061  0.7528
 5086SOL    HW115495   0.397   5.802   0.231 -0.4181  1.5996  0.6991
 5086SOL    HW215496   0.400   5.776   0.082 -0.2404 -0.0089  0.9604
 5087SOL     OW15497   4.369   4.261   5.004 -0.0306 -0.3017 -0.2844
 5087SOL    HW115498   4.380   4.202   5.079  1.1263 -0.4973 -0.5867
 5087SOL    HW215499   4.370   4.203   4.928  1.0619  0.0952 -0.5807
 5088SOL     OW15500   0.276   4.435   4.195  0.3877 -0.2837 -0.1096
 5088SOL    HW115501   0.184   4.445   4.216 -0.0454 -2.0339 -0.9795
 5088SOL    HW215502   0.282   4.454   4.101  0.7529 -0.9521 -0.2330
 5089SOL     OW15503   6.072   4.498   3.906  0.3763  0.6292 -0.2375
 5089SOL    HW115504   6.130   4.516   3.832 -0.9543 -2.1250 -2.0811
 5089SOL    HW215505   6.022   4.422   3.880 -0.0256 -0.6481  3.6462
 5090SOL     OW15506   3.376   3.954   4.196 -0.3385 -0.3280  0.0820
 5090SOL    HW115507   3.447   4.001   4.152  0.1805 -1.8856 -0.8090
 5090SOL    HW215508   3.346   4.015   4.263  0.7655  0.9969 -0.5653
 5091SOL     OW15509   4.042   3.354   3.425  0.5432 -0.0653  0.2595
 5091SOL    HW115510   4.075   3.272   3.388 -2.7946 -1.5660  0.2206
 5091SOL    HW215511   4.016   3.405   3.348 -1.1858 -0.8002  0.3087
 5092SOL     OW15512   6.084   4.136   1.093 -0.0524  0.1135  0.2235
 5092SOL    HW115513   6.040   4.122   1.177  0.3898  0.9096  0.5995
 5092SOL    HW215514   6.014   4.127   1.028 -0.1870 -1.6768  0.5650
 5093SOL     OW15515   0.897   5.583   3.127  0.2040  0.7761 -0.3999
 5093SOL    HW115516   0.933   5.496   3.147 -2.0138  0.1201  1.1364
 5093SOL    HW215517   0.936   5.641   3.193 -0.9934  0.1850  0.8884
 5094SOL     OW15518   1.860   1.192   1.670  0.1170 -0.2572 -0.0892
 5094SOL    HW115519   1.942   1.225   1.635  0.6732 -0.8593  0.5989
 5094SOL    HW215520   1.863   1.098   1.652 -0.5225 -0.2521 -0.2465
 5095SOL     OW15521   4.688   1.544   3.223  0.1343  0.4224  0.0968
 5095SOL    HW115522   4.693   1.612   3.291 -0.2612  0.8728 -0.3181
 5095SOL    HW215523   4.600   1.553   3.187 -0.1446 -0.7372  0.4688
 5096SOL     OW15524   0.607   2.476   6.120  0.3699 -0.1750 -0.3601
 5096SOL    HW115525   0.565   2.456   6.036 -2.1449 -0.8787  0.9672
 5096SOL    HW215526   0.547   2.440   6.186  1.3223  1.9468  1.8139
 5097SOL     OW15527   0.073   1.820   2.632 -0.2858 -0.0009 -0.3030
 5097SOL    HW115528   0.037   1.747   2.681  0.4935  1.2005  2.2814
 5097SOL    HW215529   0.133   1.780   2.569 -0.8738 -1.6132  0.1141
 5098SOL     OW15530   1.540   5.261   0.188 -0.9669 -0.3144  0.4327
 5098SOL    HW115531   1.568   5.290   0.275  2.1167  0.7608 -0.7433
 5098SOL    HW215532   1.529   5.342   0.138  0.0656 -0.9154 -0.8553
 5099SOL     OW15533   1.017   5.949   5.189 -0.1712  0.4902 -0.0743
 5099SOL    HW115534   1.086   5.992   5.239 -1.0620  0.3510  1.3149
 5099SOL    HW215535   0.943   6.009   5.192 -0.6170 -0.0372 -0.2520
 5100SOL     OW15536   3.521   0.659   0.251 -0.3175  0.2309  0.2514
 5100SOL    HW115537   3.597   0.716   0.258 -1.3073  1.7866 -0.8933
 5100SOL    HW215538   3.527   0.601   0.327  1.3062  1.1596  0.8777
 5101SOL     OW15539   2.140   1.444   2.703 -0.2930  0.5943 -0.0998
 5101SOL    HW115540   2.212   1.443   2.765 -0.5532  1.4556  0.2276
 5101SOL    HW215541   2.080   1.511   2.737 -0.9044  0.3850 -0.7457
 5102SOL     OW15542   0.776   3.752   1.238 -0.6301  0.2182 -0.1077
 5102SOL    HW115543   0.750   3.741   1.330 -0.2850 -1.0377 -0.1336
 5102SOL    HW215544   0.855   3.806   1.241 -0.8212  0.4702  0.3160
 5103SOL     OW15545   1.896   1.622   4.516 -0.4103 -0.0466  0.5630
 5103SOL    HW115546   1.934   1.561   4.579 -0.0559  1.5619  1.9860
 5103SOL    HW215547   1.953   1.616   4.439  0.6626 -0.2400  1.3430
 5104SOL     OW15548   5.526   2.951   3.730 -0.0539 -0.3274  0.1112
 5104SOL    HW115549   5.516   2.857   3.718 -1.6645 -0.0602 -0.8442
 5104SOL    HW215550   5.597   2.975   3.670  1.8856 -1.1957  1.9091
 5105SOL     OW15551   0.850   3.767   1.969 -0.0058  0.1874  0.1917
 5105SOL    HW115552   0.932   3.818   1.968 -0.0192  0.2347 -1.5492
 5105SOL    HW215553   0.858   3.711   2.046  0.9684  1.2972  0.9369
 5106SOL     OW15554   5.741   4.780   1.995 -0.3355 -0.2512 -0.6459
 5106SOL    HW115555   5.665   4.837   1.980 -0.4251 -0.1410  0.1806
 5106SOL    HW215556   5.799   4.799   1.922 -1.3398 -0.7461 -1.6132
 5107SOL     OW15557   0.334   1.639   3.910  0.5404 -0.4010 -0.3327
 5107SOL    HW115558   0.327   1.612   3.818  3.2021 -1.0789 -0.4147
 5107SOL    HW215559   0.395   1.713   3.909  0.3855 -0.2365  0.8649
 5108SOL     OW15560   3.885   0.119   5.815 -0.3040  0.3035  0.3593
 5108SOL    HW115561   3.902   0.108   5.722 -0.9814  0.8903  0.1539
 5108SOL    HW215562   3.971   0.114   5.856 -0.2060 -2.4748  0.0032
 5109SOL     OW15563   5.170   1.895   1.990 -0.1107 -0.1497 -0.4047
 5109SOL    HW115564   5.076   1.883   1.981 -0.3490  0.5298  0.9262
 5109SOL    HW215565   5.190   1.969   1.932 -0.6410  0.5734  0.3150
 5110SOL     OW15566   2.487   5.583   1.673  0.0209 -0.4507  0.0632
 5110SOL    HW115567   2.489   5.521   1.600 -0.2279  0.7136 -0.9527
 5110SOL    HW215568   2.578   5.594   1.699  0.2743  0.2631 -1.0707
 5111SOL     OW15569   5.134   4.081   0.360 -0.4681 -0.2394 -0.0951
 5111SOL    HW115570   5.143   4.149   0.426  0.9850 -0.5388  0.0676
 5111SOL    HW215571   5.170   4.002   0.402 -0.3958 -0.6517 -0.9032
 5112SOL     OW15572   0.362   3.505   0.262 -0.1948 -0.1749  0.0068
 5112SOL    HW115573   0.384   3.598   0.272 -1.1996  0.0711  0.1305
 5112SOL    HW215574   0.402   3.463   0.338  0.9749  0.0102 -0.4887
 5113SOL     OW15575   5.705   4.773   0.168  0.4320 -0.2170 -0.9835
 5113SOL    HW115576   5.642   4.702   0.154  0.7307 -0.1289 -3.0808
 5113SOL    HW215577   5.652   4.845   0.203  0.0343 -1.2542  0.6596
 5114SOL     OW15578   3.766   2.768   2.443  0.3264 -0.4689 -0.3267
 5114SOL    HW115579   3.828   2.747   2.373  0.9554 -2.1903  0.6873
 5114SOL    HW215580   3.696   2.816   2.400  1.9634  0.8638 -1.6659
 5115SOL     OW15581   2.946   5.907   2.750 -0.0243 -0.5500  0.8312
 5115SOL    HW115582   2.870   5.965   2.746  1.0380  0.8641 -2.5910
 5115SOL    HW215583   3.021   5.965   2.740  1.1345 -2.3535 -2.1178
 5116SOL     OW15584   4.484   1.264   5.890 -0.0666  0.1543  0.0569
 5116SOL    HW115585   4.420   1.316   5.841 -1.6960 -1.5013  0.3281
 5116SOL    HW215586   4.533   1.216   5.823  0.3671  0.8033 -0.1057
 5117SOL     OW15587   0.327   5.082   5.934 -0.0795 -0.4380  0.4079
 5117SOL    HW115588   0.300   5.113   5.848 -0.0192  0.3451  0.6699
 5117SOL    HW215589   0.421   5.065   5.925  0.1760  0.8014  0.6510
 5118SOL     OW15590   1.745   3.212   2.517  0.2207  0.0297  0.0892
 5118SOL    HW115591   1.723   3.138   2.574 -0.0822 -1.3448 -1.7441
 5118SOL    HW215592   1.834   3.194   2.487  0.2113  0.5077 -0.2327
 5119SOL     OW15593   5.107   5.289   5.504  0.3270  0.6649 -0.0489
 5119SOL    HW115594   5.041   5.222   5.487 -1.2849  2.2699 -0.3737
 5119SOL    HW215595   5.118   5.289   5.599  1.3510 -0.9380 -0.1340
 5120SOL     OW15596   0.224   2.027   5.427  0.1607 -0.0515 -0.2040
 5120SOL    HW115597   0.213   1.958   5.362  0.7799  1.2146 -1.7124
 5120SOL    HW215598   0.144   2.023   5.479  0.4605 -2.2991  0.1872
 5121SOL     OW15599   2.899   1.881   1.064 -0.3674 -0.1004  0.2015
 5121SOL    HW115600   2.914   1.786   1.071 -1.2478 -0.3307 -0.8469
 5121SOL    HW215601   2.977   1.920   1.104  0.1575 -1.2562  0.3636
 5122SOL     OW15602   5.003   2.650   0.202 -0.5141  0.1659 -0.2219
 5122SOL    HW115603   5.033   2.687   0.119 -0.3815 -1.8307 -1.1122
 5122SOL    HW215604   5.065   2.580   0.221 -0.1751  0.9522  1.9195
 5123SOL     OW15605   1.433   0.090   1.629 -0.3061  0.0559 -0.0782
 5123SOL    HW115606   1.441   0.180   1.597 -0.9740  0.6090  1.2057
 5123SOL    HW215607   1.356   0.055   1.585  0.4848 -0.2389 -1.2909
 5124SOL     OW15608   2.653   1.024   4.066 -0.6099  0.3005 -0.5855
 5124SOL    HW115609   2.574   1.042   4.117 -0.2602 -1.8496  0.8344
 5124SOL    HW215610   2.725   1.051   4.121 -0.1260 -3.7374  1.1508
 5125SOL     OW15611   1.311   4.407   1.105  0.7034 -0.2068  0.2966
 5125SOL    HW115612   1.371   4.398   1.179  2.2262 -1.6564 -1.0469
 5125SOL    HW215613   1.276   4.319   1.091 -0.5205  0.3035  0.0516
 5126SOL     OW15614   2.562   0.463   4.319 -0.6197  0.0196 -0.3014
 5126SOL    HW115615   2.503   0.411   4.264  0.5523 -0.2569 -1.3598
 5126SOL    HW215616   2.630   0.401   4.346  0.1991  0.7405 -0.6735
 5127SOL     OW15617   2.006   2.859   5.124 -0.6789 -0.0038  0.8525
 5127SOL    HW115618   1.938   2.830   5.186 -1.1285 -0.4785  0.1461
 5127SOL    HW215619   2.056   2.780   5.105 -1.7520 -0.3226 -0.8829
 5128SOL     OW15620   5.624   0.847   4.973  0.0662 -0.3735  0.1003
 5128SOL    HW115621   5.529   0.858   4.979 -0.2008 -2.5254  0.6193
 5128SOL    HW215622   5.637   0.786   4.901  0.8800 -1.5481  1.1862
 5129SOL     OW15623   4.931   5.603   5.536 -0.3136 -0.2480 -0.1784
 5129SOL    HW115624   5.026   5.599   5.550  0.2118  0.3670 -3.0005
 5129SOL    HW215625   4.898   5.649   5.613  1.8281  0.4980  0.3731
 5130SOL     OW15626   5.931   4.836   3.215 -0.0655  0.7749  0.0782
 5130SOL    HW115627   5.851   4.869   3.255 -1.5718 -1.6781 -0.6435
 5130SOL    HW215628   5.905   4.815   3.125  0.3648 -2.9593  0.6386
 5131SOL     OW15629   5.578   1.776   1.770  0.3004  0.1985  0.3222
 5131SOL    HW115630   5.658   1.742   1.730 -0.0789 -0.4728  0.1247
 5131SOL    HW215631   5.517   1.703   1.768 -0.1360  0.5329  0.9950
 5132SOL     OW15632   0.238   3.149   5.372 -0.5696 -0.3694  0.0943
 5132SOL    HW115633   0.329   3.155   5.402 -0.5863  1.7633 -0.1596
 5132SOL    HW215634   0.186   3.167   5.450 -0.7502 -0.3843 -0.0222
 5133SOL     OW15635   0.903   5.831   0.068  0.2448 -0.1240 -0.4372
 5133SOL    HW115636   0.927   5.740   0.054 -1.3164 -0.6616  0.1209
 5133SOL    HW215637   0.869   5.834   0.158  0.3487  1.0219 -0.4179
 5134SOL     OW15638   2.956   2.256   5.504 -0.5563  0.0643  0.5396
 5134SOL    HW115639   2.879   2.221   5.549  0.4276  0.4635  2.6587
 5134SOL    HW215640   3.005   2.179   5.477 -1.4202 -0.1869 -0.3534
 5135SOL     OW15641   4.001   4.559   5.628  0.4137 -0.2891 -0.4535
 5135SOL    HW115642   4.048   4.642   5.635 -1.6638  0.8716  0.8780
 5135SOL    HW215643   3.957   4.563   5.543 -0.8276  0.6857  0.1968
 5136SOL     OW15644   3.214   5.180   5.440 -0.1601  0.1067  0.0733
 5136SOL    HW115645   3.187   5.235   5.367 -1.2218  0.3862  0.6454
 5136SOL    HW215646   3.302   5.151   5.418 -0.6015 -0.1246 -1.4850
 5137SOL     OW15647   6.137   1.328   1.056  0.1522  0.0479 -0.2146
 5137SOL    HW115648   6.069   1.262   1.070 -0.4487  0.1659 -2.2874
 5137SOL    HW215649   6.201   1.311   1.125 -1.3635 -0.8721  1.0229
 5138SOL     OW15650   1.207   5.401   4.175 -0.1016 -0.1138  0.2968
 5138SOL    HW115651   1.163   5.372   4.255  1.4254  0.7526  1.5027
 5138SOL    HW215652   1.159   5.358   4.104 -2.1616 -0.0901  1.5956
 5139SOL     OW15653   1.487   4.817   0.353 -0.4283 -0.0443 -0.6484
 5139SOL    HW115654   1.488   4.909   0.377 -0.6161 -0.2611  0.2247
 5139SOL    HW215655   1.436   4.814   0.272 -0.6013  0.5867 -0.5684
 5140SOL     OW15656   2.122   4.811   4.113  0.2376  0.2002 -0.5684
 5140SOL    HW115657   2.194   4.791   4.173  1.5762 -0.1467 -2.2356
 5140SOL    HW215658   2.097   4.901   4.136 -0.0041 -0.2691  1.1753
 5141SOL     OW15659   3.075   5.301   5.247  0.1750  0.5740 -0.4132
 5141SOL    HW115660   2.985   5.326   5.229  0.6330  2.7570 -0.0267
 5141SOL    HW215661   3.127   5.354   5.186  1.2675  0.6171  0.5208
 5142SOL     OW15662   1.654   2.828   5.537 -0.0406  0.9702  0.0743
 5142SOL    HW115663   1.572   2.783   5.518  1.1366 -0.7176 -1.3713
 5142SOL    HW215664   1.645   2.855   5.628 -2.6704  1.9987 -0.3906
 5143SOL     OW15665   4.681   1.490   2.887  0.2387 -0.7175  0.0364
 5143SOL    HW115666   4.726   1.429   2.828  1.8365  1.0905 -0.7516
 5143SOL    HW215667   4.752   1.543   2.924 -1.1355  2.0152 -0.9266
 5144SOL     OW15668   4.976   5.090   0.175  0.2961 -0.1377  0.3406
 5144SOL    HW115669   4.888   5.110   0.208  0.3791  0.9767 -0.0713
 5144SOL    HW215670   4.962   5.028   0.104 -0.3549  1.3976 -0.9397
 5145SOL     OW15671   4.448   1.442   1.587 -0.0951 -0.4808 -0.3305
 5145SOL    HW115672   4.402   1.429   1.504  1.0962 -0.8117 -0.9596
 5145SOL    HW215673   4.535   1.406   1.573  0.6361  0.8298  0.5658
 5146SOL     OW15674   3.227   4.247   0.808 -0.3565 -0.5799  0.7505
 5146SOL    HW115675   3.283   4.183   0.853 -1.2396 -0.2786  2.3318
 5146SOL    HW215676   3.281   4.326   0.801 -0.8201  0.0083  3.0862
 5147SOL     OW15677   4.430   4.567   3.651 -0.1550 -0.4379  0.1139
 5147SOL    HW115678   4.436   4.477   3.619  0.3178 -0.2488 -0.3472
 5147SOL    HW215679   4.348   4.600   3.615 -0.4182 -0.7341  0.4291
 5148SOL     OW15680   5.897   3.196   2.767  0.2384 -0.1968 -0.4836
 5148SOL    HW115681   5.867   3.123   2.821 -0.0004 -0.9656 -1.6391
 5148SOL    HW215682   5.985   3.215   2.800  1.1971 -2.4251 -1.5462
 5149SOL     OW15683   1.008   4.913   2.827  0.0295  0.2148 -0.2394
 5149SOL    HW115684   1.063   4.837   2.847  0.5502  0.5197 -0.4853
 5149SOL    HW215685   0.985   4.903   2.735  0.2715  0.4572 -0.3288
 5150SOL     OW15686   5.412   3.279   3.325 -0.6243  0.4003 -0.1857
 5150SOL    HW115687   5.320   3.277   3.351 -0.9231 -0.1215 -1.2341
 5150SOL    HW215688   5.460   3.246   3.401 -1.5462 -2.0699 -0.5958
 5151SOL     OW15689   5.725   0.374   5.900 -0.3410  0.2960  0.0084
 5151SOL    HW115690   5.817   0.364   5.924 -0.6483 -1.0585  0.7015
 5151SOL    HW215691   5.683   0.407   5.979 -0.8192 -1.2312  0.4254
 5152SOL     OW15692   3.767   0.052   0.362  0.1690 -0.1083  0.4948
 5152SOL    HW115693   3.838  -0.009   0.381 -0.7344 -0.8251  1.7030
 5152SOL    HW215694   3.691  -0.003   0.347 -0.3075  0.6757 -0.0951
 5153SOL     OW15695   1.512   4.654   1.233 -0.2495 -0.0298  0.1043
 5153SOL    HW115696   1.599   4.620   1.210 -0.8906 -1.2066 -0.7104
 5153SOL    HW215697   1.499   4.729   1.175  0.6196  0.7803  0.9353
 5154SOL     OW15698   5.185   3.159   4.233  0.0507 -0.2057 -0.7958
 5154SOL    HW115699   5.126   3.177   4.160  0.3549  1.8160 -0.5784
 5154SOL    HW215700   5.150   3.210   4.306  1.7823  0.7098 -0.5423
 5155SOL     OW15701   5.431   4.452   0.476 -0.3545 -0.1771  0.2672
 5155SOL    HW115702   5.373   4.502   0.534 -1.2817  0.3958 -1.0883
 5155SOL    HW215703   5.502   4.513   0.456 -1.2626  0.5376 -1.0369
 5156SOL     OW15704   4.016   4.171   1.974 -0.3272 -0.0188  0.1787
 5156SOL    HW115705   3.972   4.250   1.942  0.8060  0.0605 -1.2940
 5156SOL    HW215706   4.103   4.174   1.933 -0.6687 -2.6297 -0.9325
 5157SOL     OW15707   0.779   3.662   3.817 -0.3212  0.7073  0.4625
 5157SOL    HW115708   0.848   3.727   3.802  1.4348 -1.1817 -0.0666
 5157SOL    HW215709   0.775   3.612   3.736 -0.0351 -1.2242  1.5758
 5158SOL     OW15710   3.928   2.234   4.907  0.9609 -0.1593 -0.1911
 5158SOL    HW115711   3.951   2.326   4.891  2.6823 -0.5335 -0.1113
 5158SOL    HW215712   3.946   2.221   5.000  1.1173 -0.6714 -0.2912
 5159SOL     OW15713   4.595   3.827   1.192 -0.2824  0.4627 -0.5058
 5159SOL    HW115714   4.511   3.861   1.224 -1.1626 -0.7114 -1.4957
 5159SOL    HW215715   4.660   3.877   1.241 -1.5490  0.5908  1.1571
 5160SOL     OW15716   1.065   5.646   4.828 -0.2297 -0.5923 -0.0624
 5160SOL    HW115717   1.050   5.680   4.916 -0.7829 -0.1909 -0.3092
 5160SOL    HW215718   1.017   5.705   4.770 -0.1771 -1.0666 -0.6042
 5161SOL     OW15719   4.987   0.469   3.319  0.0262  0.7732 -0.3159
 5161SOL    HW115720   5.048   0.518   3.265  0.2457  1.3752  0.4612
 5161SOL    HW215721   4.900   0.494   3.287  0.1566 -0.1621 -1.4933
 5162SOL     OW15722   1.169   2.496   1.532 -0.1967 -0.6915 -0.4379
 5162SOL    HW115723   1.196   2.578   1.573 -1.1432  0.4075 -1.9085
 5162SOL    HW215724   1.246   2.467   1.483  0.0280 -0.4918 -0.2056
 5163SOL     OW15725   2.373   2.124   3.993  0.0655  0.0563  0.5345
 5163SOL    HW115726   2.343   2.043   3.953 -2.2103  0.4211  1.3849
 5163SOL    HW215727   2.447   2.152   3.938 -0.3032 -1.5920 -0.8742
 5164SOL     OW15728   2.189   0.511   1.348  0.0196 -0.0799  0.0630
 5164SOL    HW115729   2.178   0.607   1.352 -1.8686 -0.0616 -2.5784
 5164SOL    HW215730   2.218   0.495   1.258  4.3933 -1.8264  1.5377
 5165SOL     OW15731   1.069   3.399   5.830  0.3893 -0.2717  0.3677
 5165SOL    HW115732   1.105   3.432   5.748  0.1348  0.5814  0.5989
 5165SOL    HW215733   1.071   3.474   5.890 -1.7450 -0.1922  0.3976
 5166SOL     OW15734   5.010   3.912   4.190  0.6798 -0.3910 -0.1116
 5166SOL    HW115735   5.072   3.931   4.261 -1.0937  0.2082  1.3515
 5166SOL    HW215736   5.061   3.860   4.127  2.1111 -1.7338  2.0199
 5167SOL     OW15737   5.453   3.613   2.656  0.0885 -0.3317  0.1410
 5167SOL    HW115738   5.418   3.690   2.701  0.1784  0.1680 -0.6350
 5167SOL    HW215739   5.504   3.648   2.584  0.7047 -1.1100  0.1886
 5168SOL     OW15740   4.740   1.778   0.013 -0.3095  0.9213  0.0429
 5168SOL    HW115741   4.741   1.873  -0.004 -0.1195  0.7949 -0.7055
 5168SOL    HW215742   4.828   1.758   0.042 -0.4158  1.0121  0.4303
 5169SOL     OW15743   2.358   0.857   5.214  0.0582 -0.4795 -0.5675
 5169SOL    HW115744   2.273   0.815   5.202  0.3362 -0.7508 -1.7172
 5169SOL    HW215745   2.368   0.914   5.138 -1.0004  3.0255  1.6923
 5170SOL     OW15746   4.137   0.537   4.958 -0.6084 -0.3050  0.3384
 5170SOL    HW115747   4.134   0.576   4.870  0.5072 -0.2167  0.3342
 5170SOL    HW215748   4.113   0.446   4.944 -1.5689 -0.0330  0.1136
 5171SOL     OW15749   5.282   3.940   2.541  0.7729 -0.0035 -0.2263
 5171SOL    HW115750   5.195   3.907   2.564  1.3473 -0.8242  0.8779
 5171SOL    HW215751   5.298   3.908   2.453  0.6459 -1.3128  0.2145
 5172SOL     OW15752   2.808   5.602   0.256 -0.0656  0.3054 -0.1172
 5172SOL    HW115753   2.782   5.620   0.165  0.6253  0.0064 -0.3829
 5172SOL    HW215754   2.799   5.508   0.265 -1.6812  0.5116  0.6309
 5173SOL     OW15755   1.414   2.716   5.449 -0.1925 -0.3150  0.2602
 5173SOL    HW115756   1.429   2.702   5.356  1.6999  0.9792  0.3160
 5173SOL    HW215757   1.399   2.810   5.458 -1.0889 -0.5259  1.1854
 5174SOL     OW15758   0.417   5.859   0.530  0.0379 -0.6281  0.0957
 5174SOL    HW115759   0.377   5.933   0.484 -1.5422 -2.2258 -1.2542
 5174SOL    HW215760   0.451   5.896   0.611 -0.3990  1.6224 -0.6897
 5175SOL     OW15761   4.607   4.027   5.017 -0.1406 -0.0166 -0.0114
 5175SOL    HW115762   4.531   4.031   5.076 -0.3976  2.1149 -0.4060
 5175SOL    HW215763   4.578   3.972   4.945 -1.7219  1.5443 -0.6375
 5176SOL     OW15764   5.552   5.101   2.158 -0.3946 -0.0132  0.6096
 5176SOL    HW115765   5.509   5.184   2.135  3.2435  1.7272 -0.7269
 5176SOL    HW215766   5.551   5.051   2.076 -1.0610 -0.5394  0.9403
 5177SOL     OW15767   2.631   1.520   0.695 -0.1269 -0.1318  0.1617
 5177SOL    HW115768   2.685   1.577   0.750 -0.4855 -0.7321  1.1544
 5177SOL    HW215769   2.604   1.576   0.622  1.6500  0.2382 -0.2605
 5178SOL     OW15770   5.400   0.547   2.895  0.8950 -0.1135  0.5127
 5178SOL    HW115771   5.477   0.501   2.859  0.8147  1.1489 -1.4210
 5178SOL    HW215772   5.398   0.630   2.848 -1.8392 -0.2259  0.2985
 5179SOL     OW15773   1.336   0.204   2.275 -0.2085 -0.4269 -0.0054
 5179SOL    HW115774   1.339   0.296   2.302 -0.8634 -0.0298 -1.1907
 5179SOL    HW215775   1.297   0.158   2.349 -0.1931  0.3077  0.4649
 5180SOL     OW15776   3.104   0.285   3.047 -0.0386  0.1963  0.1357
 5180SOL    HW115777   3.172   0.292   3.114  0.2781  0.7860 -0.2344
 5180SOL    HW215778   3.140   0.225   2.982 -0.4282 -0.5331  0.5808
 5181SOL     OW15779   3.149   4.626   4.671  0.6975  0.3356  0.4374
 5181SOL    HW115780   3.068   4.655   4.711  0.3376  0.0899 -0.1005
 5181SOL    HW215781   3.160   4.682   4.594  0.6410 -0.1266  0.0869
 5182SOL     OW15782   3.811   5.005   0.408 -0.7138 -0.0211 -0.6897
 5182SOL    HW115783   3.758   4.957   0.471 -0.0573  0.6416  0.3922
 5182SOL    HW215784   3.840   4.939   0.345  0.2753 -1.0780  0.8240
 5183SOL     OW15785   1.152   4.942   0.383  0.9674  0.7366  0.0615
 5183SOL    HW115786   1.146   4.865   0.439  0.6621  0.1844 -0.7142
 5183SOL    HW215787   1.208   4.914   0.310  0.2313  1.0018 -0.6148
 5184SOL     OW15788   4.909   6.132   0.287 -0.0059  0.1908  0.3780
 5184SOL    HW115789   4.858   6.203   0.249 -0.4209 -0.0587  0.4641
 5184SOL    HW215790   4.844   6.072   0.324  0.3736  0.1532  0.9917
 5185SOL     OW15791   0.360   3.165   3.924  0.2540 -0.0067  0.0215
 5185SOL    HW115792   0.444   3.124   3.944  0.6474  1.1810  0.9794
 5185SOL    HW215793   0.383   3.245   3.876 -0.4386 -0.4770 -1.1392
 5186SOL     OW15794   1.194   2.745   2.704  0.4741  0.0026  0.0273
 5186SOL    HW115795   1.107   2.765   2.739  0.4259 -0.4245  0.1631
 5186SOL    HW215796   1.253   2.751   2.779  0.4452 -0.4391  0.0879
 5187SOL     OW15797   5.358   3.214   3.986  0.0869 -0.4194 -0.2646
 5187SOL    HW115798   5.356   3.136   4.041 -0.8872 -0.7286 -0.7242
 5187SOL    HW215799   5.302   3.193   3.911  0.9956  0.1779 -1.1396
 5188SOL     OW15800   2.088   1.327   0.016  0.0857 -0.3633 -0.3039
 5188SOL    HW115801   2.010   1.381   0.004  0.8139  0.5092 -1.2787
 5188SOL    HW215802   2.064   1.241  -0.019 -0.3938 -0.0593 -0.7293
 5189SOL     OW15803   0.873   5.327   5.915 -0.0809  0.0178 -0.1781
 5189SOL    HW115804   0.795   5.382   5.915  0.1489  0.3516  0.3700
 5189SOL    HW215805   0.842   5.242   5.947 -0.7169 -0.6096 -2.3286
 5190SOL     OW15806   2.635   1.922   5.506 -0.0772  0.2153 -0.8345
 5190SOL    HW115807   2.641   1.852   5.571  0.0913  1.4695  0.5455
 5190SOL    HW215808   2.692   1.893   5.434  0.7154 -0.6408  0.1088
 5191SOL     OW15809   3.672   4.255   0.769  0.0827 -0.2986 -0.3754
 5191SOL    HW115810   3.646   4.308   0.845  0.4649  0.8801 -1.0463
 5191SOL    HW215811   3.611   4.280   0.700  0.1089 -0.9330 -0.6328
 5192SOL     OW15812   3.800   3.613   4.489 -0.1954  0.7125  0.2759
 5192SOL    HW115813   3.786   3.707   4.490 -1.5452  0.5262  0.2197
 5192SOL    HW215814   3.858   3.598   4.414 -0.8342  1.3764 -0.3567
 5193SOL     OW15815   0.538   1.359   3.789  0.8070  0.0113  0.3523
 5193SOL    HW115816   0.606   1.408   3.742  2.3859 -1.0792  1.4147
 5193SOL    HW215817   0.586   1.296   3.843 -1.0863 -2.4159 -0.5845
 5194SOL     OW15818   1.184   3.302   2.349  0.0892  0.1544  0.3176
 5194SOL    HW115819   1.159   3.294   2.257 -1.4729 -1.5000  0.8131
 5194SOL    HW215820   1.278   3.285   2.351  0.0250 -0.4257 -0.9029
 5195SOL     OW15821   3.834   0.006   1.063 -0.3821 -0.9352  0.1241
 5195SOL    HW115822   3.805  -0.085   1.055  2.4747 -1.9370 -0.0168
 5195SOL    HW215823   3.839   0.021   1.157 -0.7635 -0.9396  0.1481
 5196SOL     OW15824   1.473   4.900   2.522 -0.0440  0.1973 -0.7406
 5196SOL    HW115825   1.484   4.805   2.513  0.3253  0.0674  0.7859
 5196SOL    HW215826   1.381   4.915   2.497  0.0394 -0.4798 -1.4941
 5197SOL     OW15827   5.561   0.884   3.482 -0.1092 -0.2078 -0.0908
 5197SOL    HW115828   5.643   0.835   3.489  1.4290  2.2091 -0.0256
 5197SOL    HW215829   5.569   0.953   3.547 -2.0932  0.2911 -0.3144
 5198SOL     OW15830   2.265   4.335   4.328 -0.3822  0.0532 -0.0854
 5198SOL    HW115831   2.272   4.367   4.418 -0.9076  0.7214 -0.2823
 5198SOL    HW215832   2.355   4.335   4.296 -0.3116  0.7981  0.1007
 5199SOL     OW15833   5.366   3.997   1.774 -0.8035  0.3443 -0.5801
 5199SOL    HW115834   5.295   3.933   1.773  1.2459 -2.1248  0.8655
 5199SOL    HW215835   5.433   3.958   1.718  0.6053  1.0624  0.5526
 5200SOL     OW15836   5.877   3.637   1.834 -0.3018 -0.0372 -0.0096
 5200SOL    HW115837   5.925   3.670   1.758 -0.2572 -0.0553  0.0110
 5200SOL    HW215838   5.937   3.575   1.876 -1.3370 -2.2351 -1.5625
 5201SOL     OW15839   3.675   1.163   1.990 -0.5819  0.5766  0.4105
 5201SOL    HW115840   3.761   1.149   1.951 -0.2922  4.0197 -0.4730
 5201SOL    HW215841   3.616   1.176   1.916 -2.0161 -1.8467  0.9960
 5202SOL     OW15842   2.110   5.114   3.083  0.1102  0.6603 -0.0863
 5202SOL    HW115843   2.159   5.087   3.005 -0.4505 -1.3127  0.1997
 5202SOL    HW215844   2.155   5.194   3.113  2.6681 -0.5767 -0.3274
 5203SOL     OW15845   2.742   1.134   0.144  0.4725  0.5401  0.3000
 5203SOL    HW115846   2.767   1.226   0.143  2.5311  0.0517  1.6399
 5203SOL    HW215847   2.788   1.095   0.070 -1.2758  0.7341 -0.9556
 5204SOL     OW15848   3.139   3.749   4.747 -0.3885 -0.3671  0.3023
 5204SOL    HW115849   3.189   3.746   4.666  0.3868 -1.0996  0.7969
 5204SOL    HW215850   3.052   3.716   4.723 -0.0263 -1.0165 -0.1344
 5205SOL     OW15851   2.174   3.926   6.065 -0.0136 -0.1829 -0.3026
 5205SOL    HW115852   2.112   3.945   6.135 -0.4202 -0.2641 -0.6379
 5205SOL    HW215853   2.232   4.003   6.063 -1.8084  1.2024 -1.8210
 5206SOL     OW15854   1.924   2.253   0.152 -0.9404 -0.3505 -0.0880
 5206SOL    HW115855   1.961   2.193   0.087 -1.1084  0.6617 -1.1620
 5206SOL    HW215856   1.860   2.304   0.103 -1.7886 -0.2183  1.1188
 5207SOL     OW15857   2.437   6.110   2.921 -0.1360 -0.1411  0.1655
 5207SOL    HW115858   2.449   6.132   2.829 -2.6362 -2.0740 -0.7268
 5207SOL    HW215859   2.429   6.195   2.965  3.6832  0.9061 -0.8598
 5208SOL     OW15860   2.573   4.454   2.610  0.3814 -0.1766 -0.2975
 5208SOL    HW115861   2.625   4.453   2.529 -0.2823  0.4828 -0.7378
 5208SOL    HW215862   2.563   4.546   2.631  0.3467 -0.3379  0.4190
 5209SOL     OW15863   5.149   5.063   3.513  0.0217 -0.0403  0.0385
 5209SOL    HW115864   5.180   5.057   3.603  0.8106  0.7439 -0.1639
 5209SOL    HW215865   5.101   5.145   3.508  1.9797  1.1279 -0.7938
 5210SOL     OW15866   1.907   5.418   2.149  0.1475  0.3317  0.1014
 5210SOL    HW115867   1.874   5.356   2.213  4.6878 -1.2736  1.2357
 5210SOL    HW215868   1.898   5.504   2.191 -0.5774 -0.2440  1.1586
 5211SOL     OW15869   1.783   5.473   1.143  0.1628 -0.1118 -0.0364
 5211SOL    HW115870   1.713   5.412   1.118  0.9455 -0.8783 -0.4397
 5211SOL    HW215871   1.789   5.534   1.071 -2.0285  1.8000  1.2673
 5212SOL     OW15872   1.155   0.977   2.934 -0.1085 -0.2440 -0.4631
 5212SOL    HW115873   1.127   1.041   2.868  2.0500  0.7688 -0.4809
 5212SOL    HW215874   1.177   0.899   2.883 -0.3696 -0.1520 -0.7209
 5213SOL     OW15875   4.902   4.801   2.030  0.1283  0.1720 -0.1683
 5213SOL    HW115876   4.960   4.762   1.965 -0.3431  2.4202 -2.0852
 5213SOL    HW215877   4.847   4.862   1.980 -2.2285 -0.0519  1.9224
 5214SOL     OW15878   1.624   1.709   1.296  0.2738 -0.2063 -0.2090
 5214SOL    HW115879   1.563   1.702   1.221  0.1642  0.0310 -0.1416
 5214SOL    HW215880   1.668   1.793   1.283  1.2481 -0.7836 -0.7496
 5215SOL     OW15881   0.442   0.121   2.011  0.4302  0.4878 -0.0746
 5215SOL    HW115882   0.499   0.182   1.964  1.0605 -0.9620 -1.2819
 5215SOL    HW215883   0.378   0.094   1.946  0.1884 -0.1734  0.4295
 5216SOL     OW15884   5.407   1.122   2.043  0.0355 -0.2461  0.4487
 5216SOL    HW115885   5.330   1.168   2.010  0.2579 -1.8318 -2.6023
 5216SOL    HW215886   5.480   1.159   1.994  0.8127 -0.8553  1.1161
 5217SOL     OW15887   3.030   1.067   4.906 -0.0636 -0.1086 -0.1502
 5217SOL    HW115888   3.035   1.145   4.851 -4.0825  0.9935  0.6782
 5217SOL    HW215889   2.962   1.014   4.865  0.2086 -1.5322  1.1702
 5218SOL     OW15890   3.845   1.312   5.383 -0.6963 -0.5371 -0.3554
 5218SOL    HW115891   3.758   1.282   5.407 -0.6127  0.5491  1.4362
 5218SOL    HW215892   3.903   1.239   5.408 -0.8544 -0.3059  0.7472
 5219SOL     OW15893   5.607   1.653   4.592  0.2516 -0.0441 -0.3484
 5219SOL    HW115894   5.513   1.639   4.577 -0.2420  0.3086  2.0134
 5219SOL    HW215895   5.645   1.656   4.504 -2.0138  0.3301 -1.3917
 5220SOL     OW15896   0.002   0.274   3.721 -0.5510 -0.5107 -0.4933
 5220SOL    HW115897  -0.068   0.318   3.769  1.1714  0.0445  1.6619
 5220SOL    HW215898   0.032   0.339   3.657 -0.5668  0.0436  0.0571
 5221SOL     OW15899   2.314   3.291   0.714 -0.4324  0.0666 -0.2116
 5221SOL    HW115900   2.289   3.351   0.643 -0.0950  0.9481  0.3912
 5221SOL    HW215901   2.389   3.334   0.755 -1.4855  0.2810  1.5671
 5222SOL     OW15902   4.175   2.054   4.857  0.2414 -0.0264  0.6956
 5222SOL    HW115903   4.141   1.998   4.787 -0.0055 -1.3254  1.8109
 5222SOL    HW215904   4.108   2.121   4.869  0.4873  0.4784 -0.5872
 5223SOL     OW15905   2.310   1.826   1.391  0.1005  0.2786 -0.0514
 5223SOL    HW115906   2.314   1.822   1.296  1.9184 -0.4680  0.0159
 5223SOL    HW215907   2.372   1.759   1.421 -0.3213  0.5887  1.6577
 5224SOL     OW15908   3.421   1.002   3.983 -0.0016 -0.6143  0.1850
 5224SOL    HW115909   3.392   1.009   4.074  0.8006 -1.8487  0.5674
 5224SOL    HW215910   3.377   0.925   3.949  0.0299 -0.4028 -0.3549
 5225SOL     OW15911   2.511   2.112   5.398  0.0273  0.0037  0.1761
 5225SOL    HW115912   2.550   2.037   5.442 -0.3090 -0.6812 -0.6448
 5225SOL    HW215913   2.549   2.110   5.310 -0.0400  0.7619  0.1227
 5226SOL     OW15914   3.465   0.292   1.534  0.4667 -0.1613 -0.4094
 5226SOL    HW115915   3.497   0.373   1.576 -1.9967 -0.0566  1.4829
 5226SOL    HW215916   3.528   0.225   1.561  0.2248  0.3644  1.6391
 5227SOL     OW15917   5.212   0.532   4.016  0.4825 -0.0519 -0.3203
 5227SOL    HW115918   5.193   0.443   4.045  0.4734  0.4113  1.1414
 5227SOL    HW215919   5.150   0.588   4.064  2.4698  1.0308  1.1492
 5228SOL     OW15920   1.466   2.510   2.708 -0.3454  0.2774 -0.2487
 5228SOL    HW115921   1.456   2.430   2.760 -0.2496 -0.1613 -0.8981
 5228SOL    HW215922   1.398   2.504   2.641 -1.7757  1.7822  0.9769
 5229SOL     OW15923   3.126   1.953   0.755 -0.0844 -0.4331  0.6989
 5229SOL    HW115924   3.164   1.995   0.678  2.6576 -0.1050  2.1386
 5229SOL    HW215925   3.036   1.987   0.759  1.3188  3.7920  0.6531
 5230SOL     OW15926   4.235   5.696   2.100 -0.1340  0.3108 -0.3127
 5230SOL    HW115927   4.140   5.695   2.113 -0.0357 -0.5528  0.4809
 5230SOL    HW215928   4.264   5.777   2.143 -0.1774 -1.0151  2.3967
 5231SOL     OW15929   1.836   1.547   2.783 -1.2252  0.1887 -0.0553
 5231SOL    HW115930   1.872   1.626   2.823 -0.0682  0.9794 -2.4835
 5231SOL    HW215931   1.764   1.579   2.728  0.0231 -0.1991 -2.0145
 5232SOL     OW15932   2.007   2.148   4.517 -0.0130 -0.2269  0.2290
 5232SOL    HW115933   2.042   2.062   4.494 -1.3433 -0.3577 -1.5554
 5232SOL    HW215934   1.975   2.139   4.606 -1.2966 -1.9944 -0.3761
 5233SOL     OW15935   5.401   4.373   4.157 -0.4321 -0.0295 -0.8374
 5233SOL    HW115936   5.435   4.462   4.153  0.0761 -0.2197 -0.7239
 5233SOL    HW215937   5.311   4.384   4.189 -0.0348  0.3616  0.2105
 5234SOL     OW15938   2.360   5.842   3.879 -0.1562 -0.4505  0.3076
 5234SOL    HW115939   2.319   5.852   3.793  0.4112  0.1894  0.1138
 5234SOL    HW215940   2.300   5.888   3.939  1.4139  2.6226 -0.2945
 5235SOL     OW15941   2.638   2.497   1.134  0.4629 -0.2596 -0.4859
 5235SOL    HW115942   2.659   2.447   1.212  0.0572 -2.5582 -1.7797
 5235SOL    HW215943   2.549   2.470   1.111  0.4941  0.5341 -1.6261
 5236SOL     OW15944   0.788   1.922   4.599 -0.3623  0.1390 -0.7935
 5236SOL    HW115945   0.820   1.847   4.649  0.9114  0.8210 -0.5521
 5236SOL    HW215946   0.823   1.998   4.645 -0.6471  0.8420 -1.7172
 5237SOL     OW15947   1.050   1.575   4.034  0.2610  0.2693  0.2709
 5237SOL    HW115948   1.097   1.573   4.117  1.5613  2.1078 -0.3538
 5237SOL    HW215949   1.107   1.528   3.972 -0.1774 -0.1303  0.1619
 5238SOL     OW15950   4.753   2.050   6.128  0.3015  0.5377  0.3028
 5238SOL    HW115951   4.721   2.077   6.042  2.1144 -0.9265 -0.9329
 5238SOL    HW215952   4.821   2.115   6.150  1.5228 -0.3980 -0.5593
 5239SOL     OW15953   5.379   3.858   3.500  0.2710  0.4074 -0.5305
 5239SOL    HW115954   5.406   3.789   3.438 -0.5672  0.1938 -0.6685
 5239SOL    HW215955   5.329   3.920   3.446  0.0779  0.5485 -0.1871
 5240SOL     OW15956   0.453   5.966   1.738  0.2605 -0.1678 -0.6475
 5240SOL    HW115957   0.466   5.936   1.648  2.4063  2.9279 -1.5263
 5240SOL    HW215958   0.536   5.949   1.781 -0.3815 -0.5813  0.4702
 5241SOL     OW15959   5.667   3.912   4.801 -0.1034  0.1128 -0.1674
 5241SOL    HW115960   5.742   3.949   4.848  0.3483  0.2479 -0.9737
 5241SOL    HW215961   5.703   3.884   4.717 -0.8302 -0.4256 -0.3068
 5242SOL     OW15962   0.779   5.602   2.680  0.6207 -0.1260 -0.3875
 5242SOL    HW115963   0.831   5.529   2.713  0.5148 -1.7176 -3.3926
 5242SOL    HW215964   0.838   5.648   2.620 -0.1303  0.6376 -0.5627
 5243SOL     OW15965   1.393   5.853   5.914  0.2173 -0.4611  0.2004
 5243SOL    HW115966   1.348   5.791   5.857  0.6541 -0.4581 -0.1574
 5243SOL    HW215967   1.385   5.815   6.001 -0.0596 -0.7028  0.0707
 5244SOL     OW15968   4.640   2.228   5.487 -0.0763 -0.7888 -0.1681
 5244SOL    HW115969   4.639   2.135   5.510 -2.5142 -0.3665  1.8282
 5244SOL    HW215970   4.594   2.232   5.403 -0.9269 -1.3191  0.2532
 5245SOL     OW15971   2.941   2.216   4.752  0.0665 -0.0856  0.0567
 5245SOL    HW115972   2.948   2.166   4.833  0.8050 -0.1970 -0.0689
 5245SOL    HW215973   3.030   2.246   4.734 -0.2574  0.7585 -0.2015
 5246SOL     OW15974   2.137   3.158   1.073 -0.6112 -0.0492  0.2976
 5246SOL    HW115975   2.130   3.142   1.167 -0.1813  0.8170  0.4933
 5246SOL    HW215976   2.137   3.071   1.033 -0.6570 -0.4290  1.1114
 5247SOL     OW15977   4.710   3.968   5.853 -0.3358 -0.8052 -0.2450
 5247SOL    HW115978   4.673   3.975   5.941 -0.5889 -0.5959 -0.3679
 5247SOL    HW215979   4.642   3.926   5.801 -1.0615  1.0046 -0.8522
 5248SOL     OW15980   2.098   3.388   0.872  0.3151  0.6179 -0.1571
 5248SOL    HW115981   2.173   3.346   0.831 -1.3983 -1.5844 -1.2321
 5248SOL    HW215982   2.078   3.333   0.948 -0.8454  0.5204 -0.5128
 5249SOL     OW15983   4.623   2.271   0.403 -0.0666  0.1582 -0.2590
 5249SOL    HW115984   4.633   2.181   0.434  2.1872 -0.5610 -2.6945
 5249SOL    HW215985   4.534   2.275   0.367 -0.3024 -0.9768  0.1644
 5250SOL     OW15986   5.939   5.562   4.191  0.1250  0.1500 -0.0379
 5250SOL    HW115987   5.917   5.647   4.154 -0.9047  0.1881  0.6180
 5250SOL    HW215988   6.006   5.581   4.257  0.9595  0.2486 -0.8893
 5251SOL     OW15989   2.500   5.270   3.441 -0.2623  0.1103  0.1681
 5251SOL    HW115990   2.445   5.210   3.391  0.2041 -1.0771  1.0316
 5251SOL    HW215991   2.446   5.348   3.452  0.1069  1.0405 -3.3234
 5252SOL     OW15992   1.931   0.561   3.587 -0.5733  0.2950 -0.0460
 5252SOL    HW115993   1.901   0.557   3.496 -0.9794  1.8083 -0.0021
 5252SOL    HW215994   1.960   0.472   3.606 -0.9457 -0.1699 -1.4958
 5253SOL     OW15995   4.586   3.725   4.443 -0.8843  0.0271 -0.0101
 5253SOL    HW115996   4.635   3.649   4.474  0.5414  0.4069 -1.2378
 5253SOL    HW215997   4.638   3.800   4.470 -0.8830  0.4548 -1.1524
 5254SOL     OW15998   2.826   2.764   2.085  0.4051 -0.5756  0.5923
 5254SOL    HW115999   2.791   2.850   2.108 -2.0155 -0.9661 -1.2044
 5254SOL    HW216000   2.791   2.705   2.152  0.3875 -0.4474  0.6956
 5255SOL     OW16001   1.533   2.115   1.128 -0.0455  0.1795 -0.0564
 5255SOL    HW116002   1.568   2.184   1.185  0.4170  0.2759 -0.4520
 5255SOL    HW216003   1.488   2.056   1.188  0.4289  0.2883  0.4176
 5256SOL     OW16004   2.901   0.081   5.593 -0.1604  0.5881  0.1493
 5256SOL    HW116005   2.875   0.018   5.526 -0.8415 -0.9914  1.8161
 5256SOL    HW216006   2.989   0.052   5.619 -0.4818  0.3105  0.9337
 5257SOL     OW16007   0.577   1.068   0.256  0.2911 -0.4601 -0.1619
 5257SOL    HW116008   0.516   1.126   0.211  0.5738  1.3913  1.6909
 5257SOL    HW216009   0.639   1.127   0.299  1.7259 -2.2118  0.3063
 5258SOL     OW16010   4.170   0.865   4.551 -0.0019  0.1830  0.1575
 5258SOL    HW116011   4.217   0.835   4.473  0.6187 -0.9270  0.9174
 5258SOL    HW216012   4.193   0.801   4.618 -1.1555  0.6685  1.0487
 5259SOL     OW16013   4.442   3.003   3.253  0.1261  0.7273  0.0056
 5259SOL    HW116014   4.378   2.939   3.220  0.5917  0.8802 -1.2553
 5259SOL    HW216015   4.464   3.056   3.177  2.9832 -0.3526 -0.0499
 5260SOL     OW16016   5.819   1.369   0.857 -0.1711 -0.1728  0.3974
 5260SOL    HW116017   5.891   1.404   0.804 -1.0284 -3.1800 -3.1700
 5260SOL    HW216018   5.767   1.446   0.880  1.3738  1.5535 -1.4879
 5261SOL     OW16019   1.524   5.119   2.057 -0.2018  0.1162  0.4682
 5261SOL    HW116020   1.612   5.151   2.039  0.3232 -1.1225  0.7090
 5261SOL    HW216021   1.487   5.101   1.971  0.5778 -1.3683  0.4183
 5262SOL     OW16022   4.219   4.640   5.324  0.5336 -0.4722 -0.6508
 5262SOL    HW116023   4.264   4.618   5.243  0.3418 -0.9776 -0.6217
 5262SOL    HW216024   4.229   4.735   5.332  0.2735 -0.3706 -1.4354
 5263SOL     OW16025   3.115   5.061   2.498  0.3352  0.0039 -0.3393
 5263SOL    HW116026   3.044   5.000   2.519 -0.7915  1.8466  1.6989
 5263SOL    HW216027   3.110   5.073   2.403 -1.6299 -0.4966 -0.3353
 5264SOL     OW16028   0.374   0.603   6.101 -0.1578 -0.3225  0.2157
 5264SOL    HW116029   0.298   0.558   6.064  0.4625 -1.2659  0.0496
 5264SOL    HW216030   0.371   0.690   6.063  0.4593 -1.2565 -2.0934
 5265SOL     OW16031   3.551   1.271   0.654  0.6014 -0.3716  0.5550
 5265SOL    HW116032   3.500   1.257   0.574  0.0859  0.1388  0.7838
 5265SOL    HW216033   3.585   1.185   0.676 -0.8389 -0.8913  0.8340
 5266SOL     OW16034   4.011   3.233   0.370  0.1555  0.4905 -0.5635
 5266SOL    HW116035   4.088   3.274   0.330 -0.1696  0.3441 -1.3605
 5266SOL    HW216036   3.975   3.301   0.427  0.2766  0.9223 -0.9961
 5267SOL     OW16037   2.097   2.393   0.885 -0.1738  0.6031 -0.3870
 5267SOL    HW116038   2.058   2.378   0.799 -0.0268 -1.0390 -0.1882
 5267SOL    HW216039   2.139   2.310   0.908 -0.9767  0.6935  1.6479
 5268SOL     OW16040   1.286   4.355   0.015 -0.0014 -0.0745  0.4090
 5268SOL    HW116041   1.235   4.435   0.028  0.6773  0.2694  1.0909
 5268SOL    HW216042   1.280   4.337  -0.079  0.4751  1.2259  0.1043
 5269SOL     OW16043   2.549   3.968   5.463 -0.0312 -0.1043  0.6421
 5269SOL    HW116044   2.588   4.027   5.398  2.9338 -1.4343  1.0349
 5269SOL    HW216045   2.487   3.915   5.412  0.9520  0.0310 -0.7746
 5270SOL     OW16046   4.254   3.621   4.267  0.2447  0.3130  0.1742
 5270SOL    HW116047   4.305   3.548   4.302  0.9441 -0.0668 -1.5481
 5270SOL    HW216048   4.311   3.698   4.280  1.4143 -0.1345 -1.8960
 5271SOL     OW16049   4.831   3.268   5.616  0.1100  0.3457 -0.2284
 5271SOL    HW116050   4.743   3.280   5.579 -0.2732 -0.4991  0.3631
 5271SOL    HW216051   4.878   3.218   5.549  0.2765  1.1478 -0.7195
 5272SOL     OW16052   2.195   2.410   1.341 -0.8019  0.0853  0.5997
 5272SOL    HW116053   2.120   2.362   1.304 -1.6420 -0.5837  2.9600
 5272SOL    HW216054   2.187   2.498   1.304 -0.0749 -1.1097 -2.6980
 5273SOL     OW16055   0.841   1.043   3.651 -0.2979 -0.0160 -0.2301
 5273SOL    HW116056   0.917   0.994   3.685 -0.8994 -0.0752  1.0808
 5273SOL    HW216057   0.810   1.093   3.726 -0.7879  1.0072 -1.1006
 5274SOL     OW16058   5.095   4.007   2.942  0.4956 -0.2822 -0.0766
 5274SOL    HW116059   5.124   4.096   2.963  0.0900 -0.8607  3.4568
 5274SOL    HW216060   5.004   4.017   2.916 -0.1262  0.2099  2.1620
 5275SOL     OW16061   0.549   4.193   2.934  0.0653 -0.1114  0.3882
 5275SOL    HW116062   0.516   4.120   2.881 -0.2077 -1.6936  2.5924
 5275SOL    HW216063   0.481   4.260   2.927  1.3792  1.1234 -3.6145
 5276SOL     OW16064   2.361   0.327   4.108  0.4000 -0.5232  0.0710
 5276SOL    HW116065   2.286   0.268   4.105  0.0309 -0.1128  0.7614
 5276SOL    HW216066   2.328   0.409   4.072  0.7272 -0.5546 -0.2986
 5277SOL     OW16067   0.223   3.818   2.115 -0.1543  0.6998  0.2918
 5277SOL    HW116068   0.265   3.733   2.124 -0.9199  0.0304 -1.8751
 5277SOL    HW216069   0.296   3.881   2.115  0.9800 -0.4114 -3.1686
 5278SOL     OW16070   3.459   1.630   1.335 -0.2225 -0.2857  0.7172
 5278SOL    HW116071   3.386   1.600   1.389 -1.7135 -0.1008 -1.1228
 5278SOL    HW216072   3.419   1.663   1.255  2.0065 -3.2494 -1.8935
 5279SOL     OW16073   1.108   0.061   0.457  0.5086  0.2052 -0.0508
 5279SOL    HW116074   1.103   0.112   0.538 -0.2751  0.3388 -0.1803
 5279SOL    HW216075   1.148   0.121   0.393  1.7624 -0.1180  0.3957
 5280SOL     OW16076   0.067   2.195   5.057 -0.1788 -0.3404  0.4492
 5280SOL    HW116077   0.003   2.152   5.000 -0.2411 -1.0517  1.0418
 5280SOL    HW216078   0.152   2.170   5.020 -0.1439  2.7552 -1.9705
 5281SOL     OW16079   2.821   2.617   6.105 -0.0583  0.0231 -0.1451
 5281SOL    HW116080   2.811   2.579   6.017  0.3520 -0.5579  0.0528
 5281SOL    HW216081   2.843   2.709   6.088  0.2247 -0.1320 -0.6609
 5282SOL     OW16082   1.509   4.609   2.494  0.8854 -0.1509 -0.0072
 5282SOL    HW116083   1.459   4.530   2.473 -1.2620  0.6666  1.5803
 5282SOL    HW216084   1.572   4.580   2.560  1.2616 -0.8384 -0.6475
 5283SOL     OW16085   2.824   5.792   1.675  0.8658  0.0468 -0.5801
 5283SOL    HW116086   2.904   5.838   1.650  0.1809  1.2432 -0.6604
 5283SOL    HW216087   2.758   5.861   1.680 -0.2317 -0.9604 -0.8262
 5284SOL     OW16088   4.266   3.927   5.970 -0.3505 -0.1010 -0.2654
 5284SOL    HW116089   4.347   3.906   5.924 -0.0438  1.6147 -0.6063
 5284SOL    HW216090   4.246   4.017   5.943 -2.0110 -0.2492  0.3300
 5285SOL     OW16091   1.186   2.331   3.080  0.1224  0.2774 -0.0989
 5285SOL    HW116092   1.262   2.273   3.084 -0.3729 -0.3726  0.0433
 5285SOL    HW216093   1.116   2.277   3.043 -1.0116  0.0199  2.2067
 5286SOL     OW16094   4.233   5.036   2.926 -0.3360 -0.0468 -0.6078
 5286SOL    HW116095   4.139   5.028   2.906 -0.0232 -1.6575 -1.6714
 5286SOL    HW216096   4.236   5.091   3.004 -2.4871 -2.9547  1.8101
 5287SOL     OW16097   3.262   5.665   1.149 -0.3277 -0.0184 -0.2189
 5287SOL    HW116098   3.264   5.569   1.140 -0.3808 -0.0520  0.1186
 5287SOL    HW216099   3.279   5.697   1.061  0.7735 -0.3333 -0.1312
 5288SOL     OW16100   3.273   3.595   5.732  0.0331  0.4399  0.0487
 5288SOL    HW116101   3.296   3.687   5.717 -0.8291  0.4239 -1.6059
 5288SOL    HW216102   3.185   3.599   5.771 -0.1925  0.3130 -0.4419
 5289SOL     OW16103   0.309   3.465   1.204  0.1688 -0.1012 -0.1753
 5289SOL    HW116104   0.378   3.402   1.184 -0.3817 -1.2429  1.3331
 5289SOL    HW216105   0.307   3.523   1.128  2.0319 -0.7008 -0.7326
 5290SOL     OW16106   1.654   4.777   0.086 -0.6167  0.0633 -0.5650
 5290SOL    HW116107   1.615   4.861   0.065 -0.9155 -0.0607 -0.5176
 5290SOL    HW216108   1.579   4.718   0.096 -0.8326  0.7052  3.6507
 5291SOL     OW16109   6.078   5.014   1.128  0.1334  0.2919  1.0175
 5291SOL    HW116110   6.098   4.941   1.070  0.5201  0.2502  1.2044
 5291SOL    HW216111   6.091   5.092   1.074  0.1646  0.2409  0.9514
 5292SOL     OW16112   3.239   5.720   3.222  0.1002 -0.1433  0.3541
 5292SOL    HW116113   3.196   5.701   3.138 -0.4730  1.0875  0.3527
 5292SOL    HW216114   3.256   5.633   3.259 -0.3705 -0.6973 -0.6620
 5293SOL     OW16115   1.295   3.720   1.269 -0.4165 -0.4548  0.2057
 5293SOL    HW116116   1.368   3.659   1.280 -0.4255 -0.6628 -0.8485
 5293SOL    HW216117   1.227   3.687   1.328  0.0712 -0.6663  0.6583
 5294SOL     OW16118   3.583   2.707   1.745  0.1174 -0.2224 -0.7659
 5294SOL    HW116119   3.674   2.681   1.761 -0.3315 -0.8138  0.9881
 5294SOL    HW216120   3.548   2.636   1.690  0.6036 -0.1518 -1.1809
 5295SOL     OW16121   3.949   2.455   0.413 -0.3024 -0.2625  0.2885
 5295SOL    HW116122   3.911   2.470   0.500  1.9552  0.5201  1.2105
 5295SOL    HW216123   4.029   2.405   0.430 -0.5389 -1.3642 -1.5101
 5296SOL     OW16124   4.501   2.033   5.089 -0.2120  0.8037 -0.0708
 5296SOL    HW116125   4.536   1.995   5.169 -1.0496  0.1845  0.0188
 5296SOL    HW216126   4.527   1.972   5.020 -1.5221  0.0481  0.0674
 5297SOL     OW16127   1.613   2.937   1.504 -0.5121  0.2012 -0.5190
 5297SOL    HW116128   1.560   2.968   1.578 -1.3110  0.5708 -1.2371
 5297SOL    HW216129   1.639   2.848   1.530 -4.2635 -1.4038 -1.4782
 5298SOL     OW16130   1.443   1.025   0.516  0.3442  0.7458  0.4848
 5298SOL    HW116131   1.503   1.091   0.552  0.9182  1.7749 -2.0625
 5298SOL    HW216132   1.473   0.942   0.553  3.6979  1.1585 -0.8618
 5299SOL     OW16133   3.278   4.128   1.265 -0.2285  0.6754 -0.9153
 5299SOL    HW116134   3.288   4.187   1.340 -2.5678  1.7798 -1.3978
 5299SOL    HW216135   3.289   4.040   1.302  1.5425  1.2830  0.1386
 5300SOL     OW16136   1.421   4.059   2.873 -0.1202  0.0553 -0.3002
 5300SOL    HW116137   1.343   4.006   2.889 -0.2581 -0.0729 -1.3654
 5300SOL    HW216138   1.465   4.016   2.800  1.9865 -1.0018  1.4681
 5301SOL     OW16139   1.074   5.782   5.908  0.1102 -0.3208  0.2007
 5301SOL    HW116140   1.057   5.832   5.988  1.9642  2.9100 -1.2659
 5301SOL    HW216141   0.991   5.784   5.860 -1.0306 -2.3115  1.9027
 5302SOL     OW16142   2.541   0.241   4.542  0.2826  0.1741 -0.1119
 5302SOL    HW116143   2.619   0.288   4.570 -0.3317  0.4108  1.2745
 5302SOL    HW216144   2.472   0.271   4.601 -0.9592  0.2751 -1.5615
 5303SOL     OW16145   3.944   4.485   4.747  0.1176 -0.4782 -0.0817
 5303SOL    HW116146   3.866   4.521   4.706 -0.9745 -1.5889  0.9025
 5303SOL    HW216147   4.011   4.488   4.680  0.1725  3.3862 -0.0540
 5304SOL     OW16148   0.410   1.480   5.102  0.0919  0.6473  0.3341
 5304SOL    HW116149   0.430   1.570   5.077  1.4246  0.5451  0.9119
 5304SOL    HW216150   0.487   1.430   5.074 -0.7460 -0.3816 -0.2429
 5305SOL     OW16151   2.917   3.918   0.676  0.0530 -0.1506  0.2342
 5305SOL    HW116152   3.002   3.879   0.660  0.5124  0.8396  0.2026
 5305SOL    HW216153   2.889   3.882   0.760 -0.7459 -2.5705 -0.9620
 5306SOL     OW16154   0.882   4.721   0.392 -0.0878 -0.2738  0.2330
 5306SOL    HW116155   0.938   4.660   0.343  1.1393  1.3612 -0.4898
 5306SOL    HW216156   0.917   4.718   0.481  2.4295  1.9990 -0.5459
 5307SOL     OW16157   4.095   5.495   5.710 -0.1092 -0.0479  0.6919
 5307SOL    HW116158   4.026   5.430   5.718 -1.4291  1.0879 -0.8656
 5307SOL    HW216159   4.155   5.458   5.645 -2.2681  1.2875 -2.3212
 5308SOL     OW16160   0.457   4.163   1.264  0.1081  0.2778 -0.2816
 5308SOL    HW116161   0.377   4.216   1.256  0.5981  0.8662 -1.6106
 5308SOL    HW216162   0.426   4.077   1.291 -0.8352  0.8590  0.6229
 5309SOL     OW16163   3.136   1.631   2.932  0.2254  0.1996 -0.3067
 5309SOL    HW116164   3.104   1.720   2.916 -0.2863  0.3589  1.4133
 5309SOL    HW216165   3.069   1.591   2.988  0.8542 -0.9960 -0.3773
 5310SOL     OW16166   5.098   4.992   0.628 -0.2145 -0.6414 -0.6542
 5310SOL    HW116167   5.102   4.988   0.533  0.3094  0.2210 -0.6856
 5310SOL    HW216168   5.006   4.977   0.649 -0.6116  0.5755 -1.3978
 5311SOL     OW16169   0.204   4.280   4.723  0.3292  0.2412  0.1558
 5311SOL    HW116170   0.120   4.248   4.689 -0.4880  1.9020  0.5450
 5311SOL    HW216171   0.182   4.360   4.771  2.1534  0.7770  0.1593
 5312SOL     OW16172   3.076   0.595   3.872 -0.3256  0.2711  0.1016
 5312SOL    HW116173   3.060   0.521   3.813  0.4474 -0.5919  0.9396
 5312SOL    HW216174   3.022   0.666   3.837 -2.7554 -1.2775  0.4644
 5313SOL     OW16175   2.431   2.524   1.457 -0.2343  0.4174 -0.8240
 5313SOL    HW116176   2.381   2.480   1.389  0.7827 -1.1215 -0.6610
 5313SOL    HW216177   2.370   2.534   1.530  0.0212 -3.0712  0.0515
 5314SOL     OW16178   2.334   1.018   2.682 -0.7907  0.1637 -0.6397
 5314SOL    HW116179   2.399   1.081   2.711 -1.1745  0.3713 -0.2177
 5314SOL    HW216180   2.312   0.967   2.760  0.6949 -1.5931 -1.2982
 5315SOL     OW16181   5.687   5.617   3.913 -0.5018  0.2851  0.3103
 5315SOL    HW116182   5.736   5.687   3.957 -2.4333  1.9205  0.0278
 5315SOL    HW216183   5.714   5.624   3.821  0.6501 -0.5671  0.5681
 5316SOL     OW16184   5.889   0.153   0.477  0.2753  0.1520 -0.1909
 5316SOL    HW116185   5.879   0.150   0.572 -0.8408  1.9630 -0.1989
 5316SOL    HW216186   5.812   0.109   0.442  0.8266 -0.7678 -0.2792
 5317SOL     OW16187   4.715   0.875   1.533  0.2013  0.7023  0.0175
 5317SOL    HW116188   4.785   0.836   1.585  0.5503  0.2319 -0.7865
 5317SOL    HW216189   4.759   0.939   1.477 -0.2020  1.3788  0.4576
 5318SOL     OW16190   2.129   2.858   0.653  0.3861 -0.4931  0.1032
 5318SOL    HW116191   2.219   2.841   0.625  0.7266 -1.1672  1.4571
 5318SOL    HW216192   2.138   2.923   0.723 -0.2089 -0.3570  0.0556
 5319SOL     OW16193   2.389   4.096   6.044  0.0948  0.6750  0.2639
 5319SOL    HW116194   2.462   4.108   6.104  0.9191  0.5350 -0.6804
 5319SOL    HW216195   2.402   4.008   6.007 -1.7869 -0.2895  1.6900
 5320SOL     OW16196   4.115   1.518   4.253  0.5262  0.0114  0.0974
 5320SOL    HW116197   4.135   1.524   4.160 -3.0076  0.4333 -0.7615
 5320SOL    HW216198   4.098   1.608   4.280 -1.1592 -0.3632  0.4083
 5321SOL     OW16199   0.638   5.494   5.181  0.5332  0.3760  0.3177
 5321SOL    HW116200   0.707   5.484   5.115 -0.2568  1.4930 -0.7197
 5321SOL    HW216201   0.634   5.589   5.197 -1.7245  0.5321 -0.7617
 5322SOL     OW16202   2.931   5.727   3.882  0.0570  0.0268  0.4750
 5322SOL    HW116203   2.912   5.674   3.959 -1.2601  1.0152  0.8708
 5322SOL    HW216204   3.011   5.774   3.905 -0.0950  0.0048  1.0808
 5323SOL     OW16205   1.168   5.161   0.021 -0.2215  0.9954 -0.2945
 5323SOL    HW116206   1.124   5.100  -0.039  0.0330  0.1205  0.4060
 5323SOL    HW216207   1.100   5.187   0.083  0.2532 -0.5241  0.9205
 5324SOL     OW16208   5.727   2.407   0.379  0.1078 -0.4329 -0.3516
 5324SOL    HW116209   5.662   2.340   0.360 -0.4195 -1.1335  3.1808
 5324SOL    HW216210   5.811   2.360   0.381 -0.2666 -1.1265  2.1704
 5325SOL     OW16211   5.760   2.698   3.549 -0.3817 -0.3576 -0.6538
 5325SOL    HW116212   5.853   2.675   3.556 -0.1376  0.9302  0.9626
 5325SOL    HW216213   5.757   2.793   3.561 -1.9770 -0.4847  0.3431
 5326SOL     OW16214   4.380   5.905   2.192  0.4802  0.2810 -0.5220
 5326SOL    HW116215   4.395   5.957   2.271  0.2631 -0.6517  0.1425
 5326SOL    HW216216   4.467   5.883   2.160  0.5960  1.7304 -1.2854
 5327SOL     OW16217   1.466   0.887   2.919 -0.3978  0.6317 -0.6256
 5327SOL    HW116218   1.418   0.969   2.906  0.3937  1.0015 -1.3093
 5327SOL    HW216219   1.486   0.856   2.831  0.7161  0.5625 -0.3684
 5328SOL     OW16220   4.589   1.259   1.812  0.2978 -0.1434 -0.6055
 5328SOL    HW116221   4.557   1.331   1.758  0.3036  0.3521  0.0419
 5328SOL    HW216222   4.546   1.270   1.896  0.7563 -0.5454 -0.3079
 5329SOL     OW16223   3.385   1.810   5.723  0.3328 -0.3336 -0.3943
 5329SOL    HW116224   3.294   1.835   5.707  0.5114  0.2679 -0.5028
 5329SOL    HW216225   3.409   1.758   5.647 -0.0504 -0.8545 -0.1607
 5330SOL     OW16226   3.613   1.625   4.396  0.2755 -0.2047 -0.0074
 5330SOL    HW116227   3.611   1.708   4.444 -0.2677 -1.0906  1.5614
 5330SOL    HW216228   3.683   1.575   4.439 -0.0599 -0.9304 -0.3035
 5331SOL     OW16229   2.319   1.577   3.185 -0.1430  0.0056  0.0370
 5331SOL    HW116230   2.395   1.519   3.188 -0.1032 -0.0568 -1.3806
 5331SOL    HW216231   2.328   1.633   3.262  1.2296 -0.1442 -0.0000
 5332SOL     OW16232   4.746   1.231   1.009  0.1504  0.5699 -0.3494
 5332SOL    HW116233   4.656   1.262   1.018 -0.0095 -0.1270  0.7294
 5332SOL    HW216234   4.739   1.136   1.014  0.8827  0.4701 -0.9873
 5333SOL     OW16235   3.037   6.078   6.016  0.3229 -0.7828 -0.3137
 5333SOL    HW116236   3.094   6.155   6.026  0.6184 -0.6639 -2.4082
 5333SOL    HW216237   3.088   6.005   6.051  0.4998 -0.2216  0.6404
 5334SOL     OW16238   4.402   0.619   4.929  0.0556  0.4119  0.7455
 5334SOL    HW116239   4.414   0.524   4.932 -1.9081  0.0794 -0.1668
 5334SOL    HW216240   4.334   0.637   4.994 -0.8014  0.9311 -0.2612
 5335SOL     OW16241   4.001   2.661   5.915 -0.0243 -0.0890  0.0273
 5335SOL    HW116242   4.046   2.701   5.990 -0.5610 -1.1328  0.9387
 5335SOL    HW216243   4.034   2.571   5.913  2.7733  0.7839 -3.2599
 5336SOL     OW16244   0.960   2.149   5.079  0.0449  0.5508 -0.0602
 5336SOL    HW116245   1.019   2.075   5.065 -0.5464  0.1207 -0.3374
 5336SOL    HW216246   0.896   2.117   5.143  0.3731  1.1638  0.5839
 5337SOL     OW16247   3.513   4.542   5.041 -0.2782  0.0133 -0.2108
 5337SOL    HW116248   3.544   4.483   4.972 -0.8306 -1.9181  1.1074
 5337SOL    HW216249   3.425   4.568   5.012 -0.5222 -0.8116 -0.2453
 5338SOL     OW16250   0.972   2.686   0.574  0.0981  0.2982 -0.0591
 5338SOL    HW116251   1.057   2.716   0.605 -0.5490  1.6326  0.4978
 5338SOL    HW216252   0.942   2.626   0.642  0.4060  0.1461 -0.0546
 5339SOL     OW16253   4.769   4.211   4.901 -0.3362 -0.2777 -0.5352
 5339SOL    HW116254   4.702   4.153   4.937 -1.4927  0.8899 -0.7530
 5339SOL    HW216255   4.821   4.238   4.977 -0.3440 -0.8746 -0.3100
 5340SOL     OW16256   1.914   3.466   6.075  0.4602  0.1474  0.0706
 5340SOL    HW116257   1.993   3.443   6.026 -0.0832  0.8845 -1.2101
 5340SOL    HW216258   1.938   3.455   6.167  1.9208 -0.0116 -0.3074
 5341SOL     OW16259   5.770   2.086   0.725  0.2657 -0.4376  0.5273
 5341SOL    HW116260   5.689   2.097   0.676  0.6893 -0.4763 -0.1963
 5341SOL    HW216261   5.807   2.174   0.730  0.1893 -0.4231  0.8351
 5342SOL     OW16262   1.532   3.583   2.393  0.4518 -0.4265 -0.3435
 5342SOL    HW116263   1.622   3.552   2.384 -0.2069 -2.7145  0.4654
 5342SOL    HW216264   1.534   3.639   2.470  1.4173  0.6549 -1.1151
 5343SOL     OW16265   1.202   2.958   5.271 -0.2269  0.5694 -0.0521
 5343SOL    HW116266   1.166   2.871   5.255 -0.3845  0.6116  0.0665
 5343SOL    HW216267   1.197   2.969   5.366  0.3290  0.4781 -0.0069
 5344SOL     OW16268   1.425   5.793   0.802  0.1091 -0.7370  0.1046
 5344SOL    HW116269   1.429   5.888   0.810  0.6814 -0.8690  1.9818
 5344SOL    HW216270   1.332   5.773   0.790 -0.0645  0.0241  0.1444
 5345SOL     OW16271   0.865   3.413   5.424 -0.7357  0.1753  0.1851
 5345SOL    HW116272   0.852   3.364   5.506  0.3167 -0.0898  0.2006
 5345SOL    HW216273   0.942   3.373   5.384  0.3049  1.9493  0.2968
 5346SOL     OW16274   6.148   3.296   5.095  0.3466  0.2176  0.8858
 5346SOL    HW116275   6.091   3.294   5.172 -1.1820  0.1875 -0.2047
 5346SOL    HW216276   6.142   3.208   5.059  2.0936 -0.1646  1.4123
 5347SOL     OW16277   1.553   4.992   2.808 -0.4166 -1.2808 -0.4968
 5347SOL    HW116278   1.520   5.024   2.724 -0.6679 -2.2510 -0.7728
 5347SOL    HW216279   1.498   5.035   2.874 -0.3979 -0.7310 -0.8350
 5348SOL     OW16280   1.019   4.331   5.641  0.5540 -0.8428 -0.0660
 5348SOL    HW116281   0.991   4.345   5.551  0.7209 -1.9671 -0.3078
 5348SOL    HW216282   1.027   4.236   5.649  2.1993 -0.6884  0.6126
 5349SOL     OW16283   1.531   1.575   1.818 -0.1026  0.9020 -0.2787
 5349SOL    HW116284   1.552   1.523   1.895  0.2672  0.8033 -0.4437
 5349SOL    HW216285   1.494   1.656   1.852  4.2721  2.9631  0.2883
 5350SOL     OW16286   6.093   3.823   4.867  0.2364  0.0668 -0.3976
 5350SOL    HW116287   6.168   3.799   4.813  0.7255  1.5125 -0.3889
 5350SOL    HW216288   6.109   3.779   4.950  1.7453  1.3406  0.0367
 5351SOL     OW16289   1.010   3.713   4.648 -0.3129 -0.2711 -0.3013
 5351SOL    HW116290   0.956   3.770   4.593 -1.1309 -1.5806 -0.9115
 5351SOL    HW216291   1.019   3.760   4.730  0.0509  1.2674 -1.1832
 5352SOL     OW16292   3.056   5.923   1.611 -0.0293 -0.0018 -0.5366
 5352SOL    HW116293   3.128   5.870   1.644 -1.0666 -1.7733 -1.0109
 5352SOL    HW216294   3.071   6.010   1.649  0.7647 -1.0563  1.7115
 5353SOL     OW16295   1.817   1.461   0.958 -0.0016  0.0991  0.4533
 5353SOL    HW116296   1.830   1.534   1.019  0.1946  0.4890 -0.0473
 5353SOL    HW216297   1.903   1.447   0.919  0.0526 -0.6620  0.8202
 5354SOL     OW16298   0.207   0.947   0.345  0.2484  0.0759 -0.3247
 5354SOL    HW116299   0.195   1.042   0.340  0.5785  0.1292 -0.1459
 5354SOL    HW216300   0.234   0.922   0.257 -0.7314  0.0123 -0.6208
 5355SOL     OW16301   3.409   1.055   2.009 -0.3735 -0.1659 -0.8021
 5355SOL    HW116302   3.342   1.093   1.952 -0.4168 -1.6269 -1.7980
 5355SOL    HW216303   3.426   0.969   1.971  0.4496 -0.7294  0.7506
 5356SOL     OW16304   5.874   3.682   0.316 -0.2372  0.5045  0.7172
 5356SOL    HW116305   5.783   3.710   0.315 -0.3356  0.1846  0.4907
 5356SOL    HW216306   5.873   3.595   0.355  0.0903  0.8780  1.5859
 5357SOL     OW16307   0.017   3.588   3.121 -0.1083  0.3581  0.4489
 5357SOL    HW116308   0.042   3.516   3.063 -2.9221 -0.2269 -0.2003
 5357SOL    HW216309   0.048   3.560   3.208  0.5909 -0.6879 -0.1126
 5358SOL     OW16310   1.200   4.764   3.459  0.0413  0.0279  0.0784
 5358SOL    HW116311   1.242   4.850   3.455 -0.8700  0.4620 -0.3978
 5358SOL    HW216312   1.261   4.705   3.415  1.1314  0.2199  1.2593
 5359SOL     OW16313   2.245   1.092   3.749 -0.2218 -0.0451  0.1991
 5359SOL    HW116314   2.237   0.997   3.741 -2.4158  0.1833 -0.8697
 5359SOL    HW216315   2.326   1.112   3.703  0.3593 -1.3864  0.5637
 5360SOL     OW16316   2.438   0.391   3.781  0.3566  0.6113 -0.1537
 5360SOL    HW116317   2.479   0.426   3.860 -0.4828  0.3233  0.4208
 5360SOL    HW216318   2.436   0.296   3.795  0.0550  0.5701 -0.4541
 5361SOL     OW16319   5.585   2.907   0.272  0.4142  0.4695  0.6141
 5361SOL    HW116320   5.494   2.881   0.289 -0.9094  2.8656 -2.0117
 5361SOL    HW216321   5.615   2.846   0.205  0.2026  0.5695  0.4251
 5362SOL     OW16322   0.653   1.961   1.745  0.3422  0.3718 -0.2134
 5362SOL    HW116323   0.687   1.883   1.790 -0.9167 -0.9009 -1.3608
 5362SOL    HW216324   0.688   1.954   1.656 -0.8756  0.3589 -0.7098
 5363SOL     OW16325   2.273   4.997   3.425  0.1904  0.0326  0.4432
 5363SOL    HW116326   2.321   5.038   3.353 -1.7576  0.1741 -0.8614
 5363SOL    HW216327   2.276   4.903   3.406  0.5525 -0.0193  0.7527
 5364SOL     OW16328   0.775   5.309   0.151  0.3878  0.1816 -0.4970
 5364SOL    HW116329   0.740   5.250   0.217  1.3679  0.6147  0.4479
 5364SOL    HW216330   0.747   5.396   0.179  1.6036  0.4649 -0.0912
 5365SOL     OW16331   4.455   0.526   4.435 -0.0208 -0.2127 -0.2110
 5365SOL    HW116332   4.443   0.591   4.503  1.1670 -1.4490  1.2484
 5365SOL    HW216333   4.366   0.504   4.407 -0.4532  1.8731 -0.6457
 5366SOL     OW16334   3.378   2.481   0.124  0.1086  0.0844  0.2992
 5366SOL    HW116335   3.357   2.487   0.031  1.3606 -0.4496 -0.0336
 5366SOL    HW216336   3.380   2.572   0.154  0.2179  0.2849 -0.3070
 5367SOL     OW16337   4.447   4.013   5.244  0.0428 -0.2214 -0.0555
 5367SOL    HW116338   4.361   4.042   5.275 -1.6343 -1.2593 -3.2579
 5367SOL    HW216339   4.448   3.919   5.261  0.0572 -0.4038 -1.0368
 5368SOL     OW16340   4.258   4.547   2.851 -0.5858 -0.0781 -0.9552
 5368SOL    HW116341   4.314   4.606   2.902 -1.8745  1.1937 -0.9453
 5368SOL    HW216342   4.317   4.508   2.787  0.1803  1.8898 -1.5323
 5369SOL     OW16343   2.325   4.712   3.486 -0.6191 -0.7865  0.4138
 5369SOL    HW116344   2.418   4.731   3.473 -0.7425  0.3444  1.0363
 5369SOL    HW216345   2.317   4.700   3.581 -1.3775  0.8838  0.6039
 5370SOL     OW16346   1.608   4.109   5.018 -0.3618  1.0332 -0.2231
 5370SOL    HW116347   1.678   4.046   5.001 -1.2500 -1.1893  3.2076
 5370SOL    HW216348   1.556   4.109   4.939  0.5735 -1.4154 -0.9394
 5371SOL     OW16349   1.785   2.112   2.612  0.4221  0.1688 -0.1106
 5371SOL    HW116350   1.744   2.026   2.604 -1.1480  0.8220  0.3924
 5371SOL    HW216351   1.878   2.094   2.618  0.0672 -1.5903  1.1038
 5372SOL     OW16352   1.122   3.388   1.121  0.3676 -0.5494 -0.0537
 5372SOL    HW116353   1.148   3.341   1.041 -0.1228  0.8469 -1.0835
 5372SOL    HW216354   1.032   3.415   1.104  0.4030  0.1340  0.8047
 5373SOL     OW16355   4.298   4.642   4.100  0.5849  0.2212 -0.1508
 5373SOL    HW116356   4.351   4.612   4.026  0.9224  2.2298 -0.7759
 5373SOL    HW216357   4.241   4.709   4.062 -0.5445 -0.0165  1.0656
 5374SOL     OW16358   4.993   5.173   4.380 -0.2725  0.3574  0.2792
 5374SOL    HW116359   4.964   5.176   4.288  1.6854  0.7317 -0.3726
 5374SOL    HW216360   5.075   5.221   4.380  1.5988 -2.5800  1.5324
 5375SOL     OW16361   1.404   0.358   4.825  0.2417 -0.4163  0.2091
 5375SOL    HW116362   1.402   0.333   4.917  0.0449 -0.1117  0.2868
 5375SOL    HW216363   1.389   0.276   4.777 -1.9772 -0.2159  0.4843
 5376SOL     OW16364   0.855   1.827   1.897  0.2365  0.1223 -0.2389
 5376SOL    HW116365   0.919   1.840   1.827  1.6587 -1.2236  0.7605
 5376SOL    HW216366   0.863   1.906   1.950  0.8008  0.1386 -0.3364
 5377SOL     OW16367   3.402   1.426   0.176 -0.4230  0.1140 -0.2824
 5377SOL    HW116368   3.319   1.455   0.212  0.1689  3.1501 -1.0888
 5377SOL    HW216369   3.387   1.418   0.082  0.1422  0.7086 -0.4388
 5378SOL     OW16370   0.921   2.924   4.968  0.0176 -0.0265 -0.2848
 5378SOL    HW116371   0.974   2.854   5.006 -0.2879  0.0156  0.2217
 5378SOL    HW216372   0.873   2.882   4.897  0.2762 -0.1970 -0.3636
 5379SOL     OW16373   1.162   5.353   4.456 -0.0820  0.3200 -0.0170
 5379SOL    HW116374   1.067   5.350   4.468 -0.2409 -2.1081 -1.3705
 5379SOL    HW216375   1.197   5.362   4.544 -1.5484  0.0752  0.6143
 5380SOL     OW16376   5.422   0.144   0.024  0.2862  0.2159 -0.2286
 5380SOL    HW116377   5.395   0.153  -0.068  2.4352 -3.4785 -1.4197
 5380SOL    HW216378   5.341   0.119   0.070 -0.6505  1.2727 -1.2193
 5381SOL     OW16379   1.638   5.778   5.350  0.6981  0.8205  0.5862
 5381SOL    HW116380   1.710   5.775   5.287  0.8358 -0.5172  0.7773
 5381SOL    HW216381   1.680   5.801   5.433  0.4678  2.9408  0.1750
 5382SOL     OW16382   4.000   5.121   3.476  0.5778 -0.1323  0.6499
 5382SOL    HW116383   4.090   5.112   3.446 -0.1820 -1.2905 -1.5251
 5382SOL    HW216384   3.973   5.208   3.446 -0.0699 -1.1506 -2.0179
 5383SOL     OW16385   1.426   3.819   3.561  0.0479  0.5640 -0.0468
 5383SOL    HW116386   1.365   3.786   3.627  0.5626  0.9771  0.6526
 5383SOL    HW216387   1.371   3.839   3.485 -0.7615  1.3843  0.7377
 5384SOL     OW16388   5.989   4.395   1.238 -0.0288 -0.1681  0.1317
 5384SOL    HW116389   5.997   4.303   1.261 -1.5588 -0.2019  0.6656
 5384SOL    HW216390   6.019   4.400   1.148 -1.2353 -1.4638 -0.3858
 5385SOL     OW16391   3.164   3.301   2.361  0.4544 -0.9418  0.1865
 5385SOL    HW116392   3.099   3.312   2.430  1.4681  1.2650  0.8665
 5385SOL    HW216393   3.215   3.224   2.388 -0.9436 -1.8316  0.3644
 5386SOL     OW16394   2.954   0.200   0.134  0.1753 -0.3976 -0.0354
 5386SOL    HW116395   2.976   0.124   0.188  0.4442  0.0064  0.4276
 5386SOL    HW216396   3.039   0.237   0.108  0.1821  1.7291  2.5449
 5387SOL     OW16397   2.965   2.335   3.890 -0.3952  0.1715  0.1240
 5387SOL    HW116398   3.032   2.307   3.952 -0.3196 -1.0358 -0.4723
 5387SOL    HW216399   2.911   2.258   3.876 -1.4389  0.9110 -0.0130
 5388SOL     OW16400   2.676   1.235   4.482 -0.6512 -0.6793 -0.4220
 5388SOL    HW116401   2.582   1.224   4.498 -0.5941  1.7570  2.5939
 5388SOL    HW216402   2.712   1.147   4.494 -2.4496 -1.5405 -0.9981
 5389SOL     OW16403   3.415   4.619   3.110  0.0672  0.1603  0.0375
 5389SOL    HW116404   3.478   4.617   3.038 -1.2178  0.7117 -1.1530
 5389SOL    HW216405   3.329   4.617   3.067 -0.7619  1.9694  1.4599
 5390SOL     OW16406   2.206   5.253   3.401  0.3450  0.7412  0.5857
 5390SOL    HW116407   2.191   5.159   3.416 -0.6246  0.4954 -1.6112
 5390SOL    HW216408   2.163   5.295   3.475 -1.7657 -0.4718  0.1315
 5391SOL     OW16409   4.915   2.311   5.492  0.1060  0.0940  0.5320
 5391SOL    HW116410   4.925   2.335   5.400  1.4146  1.7469  1.0767
 5391SOL    HW216411   4.826   2.276   5.498 -0.7014  1.7387 -1.0063
 5392SOL     OW16412   0.761   0.352   1.237 -0.2184 -0.4461 -0.3144
 5392SOL    HW116413   0.825   0.407   1.192  0.7288 -2.7315 -2.0067
 5392SOL    HW216414   0.796   0.341   1.325 -0.9804  2.3867  0.4286
 5393SOL     OW16415   5.805   0.568   1.269 -0.2808 -0.1246 -0.5298
 5393SOL    HW116416   5.825   0.494   1.326 -1.0992 -0.5518 -0.7702
 5393SOL    HW216417   5.785   0.640   1.329 -1.7711 -0.7384 -0.2203
 5394SOL     OW16418   3.265   0.108   2.883  0.3040  0.6273  0.4183
 5394SOL    HW116419   3.290   0.148   2.800 -0.3560 -1.1905 -0.7209
 5394SOL    HW216420   3.334   0.134   2.944  0.7633  2.0776 -0.6597
 5395SOL     OW16421   4.739   1.700   2.125 -0.0346 -0.1914  0.2718
 5395SOL    HW116422   4.658   1.718   2.173 -0.4916 -1.1790 -0.1044
 5395SOL    HW216423   4.734   1.607   2.103  0.5883  0.0281 -0.8943
 5396SOL     OW16424   5.519   4.508   3.421 -0.2601 -0.2826  0.7352
 5396SOL    HW116425   5.572   4.449   3.368 -1.1185 -0.3792 -0.0567
 5396SOL    HW216426   5.432   4.505   3.379 -0.6077  0.6641  1.3617
 5397SOL     OW16427   2.116   4.662   5.676 -0.5636  0.7730 -0.1772
 5397SOL    HW116428   2.041   4.712   5.710 -0.5308  0.9184 -0.3179
 5397SOL    HW216429   2.093   4.643   5.585 -1.2096 -0.6792  0.2487
 5398SOL     OW16430   1.996   5.808   6.059 -0.0489 -0.1992 -0.3829
 5398SOL    HW116431   1.954   5.891   6.082  0.2120 -0.2695  0.3592
 5398SOL    HW216432   1.924   5.750   6.036 -0.3013 -0.0627  0.0572
 5399SOL     OW16433   5.880   5.814   0.336 -0.2593 -0.6541  0.2882
 5399SOL    HW116434   5.855   5.765   0.258 -1.8047  0.2482  0.1619
 5399SOL    HW216435   5.803   5.868   0.355  0.7634  0.4813  1.3708
 5400SOL     OW16436   1.493   4.093   0.080  0.9389 -0.2929  0.6492
 5400SOL    HW116437   1.524   4.089   0.170 -0.7542 -1.5216  1.2288
 5400SOL    HW216438   1.477   4.186   0.064  0.5044 -0.1266  1.9142
 5401SOL     OW16439   2.911   1.242   1.951  0.1421 -0.2511  0.4295
 5401SOL    HW116440   2.921   1.324   1.999  0.7097 -0.3327  0.4695
 5401SOL    HW216441   2.853   1.263   1.878 -0.2440  0.0210  0.8095
 5402SOL     OW16442   1.666   2.824   0.212 -0.0315 -0.0350  0.1255
 5402SOL    HW116443   1.621   2.827   0.127 -1.7310  0.5847  0.9845
 5402SOL    HW216444   1.719   2.744   0.209  0.8062  0.5506 -1.9019
 5403SOL     OW16445   5.569   5.257   3.076 -0.2536  0.1402  0.1664
 5403SOL    HW116446   5.600   5.233   3.163  0.8673  2.8656  0.6226
 5403SOL    HW216447   5.480   5.222   3.072  1.1412 -4.0388  0.5391
 5404SOL     OW16448   3.444   0.908   5.251 -0.1640  0.5665  0.2710
 5404SOL    HW116449   3.388   0.941   5.180  0.5900  1.2082 -0.0389
 5404SOL    HW216450   3.533   0.916   5.217  0.0651 -2.3227 -0.0285
 5405SOL     OW16451   1.777   5.171   1.969  0.3809  0.3175  0.2313
 5405SOL    HW116452   1.819   5.239   2.020 -1.7306  0.1913  2.3294
 5405SOL    HW216453   1.829   5.092   1.986  0.1787  0.4555  1.5894
 5406SOL     OW16454   2.849   0.442   4.860  0.1133 -0.6683 -0.6287
 5406SOL    HW116455   2.758   0.440   4.888 -0.0223  0.2256 -0.9677
 5406SOL    HW216456   2.848   0.487   4.776  1.0524  1.0829  0.2286
 5407SOL     OW16457   3.764   2.397   2.967 -0.1596  0.1956  0.1342
 5407SOL    HW116458   3.835   2.333   2.959 -1.8166 -1.8543  0.7204
 5407SOL    HW216459   3.774   2.454   2.891  1.7241 -0.3970 -0.1118
 5408SOL     OW16460   5.797   2.383   3.185  0.0199 -0.2830  0.1366
 5408SOL    HW116461   5.705   2.376   3.161  0.3918  0.6423 -1.7551
 5408SOL    HW216462   5.832   2.295   3.172 -0.1403 -0.1537 -1.3870
 5409SOL     OW16463   0.565   5.578   3.980 -0.0593  0.1428 -0.1630
 5409SOL    HW116464   0.546   5.484   3.984  1.2750 -0.1778 -0.6628
 5409SOL    HW216465   0.649   5.583   3.934 -0.3880  1.6239 -0.6517
 5410SOL     OW16466   0.817   4.195   5.269  0.1943 -0.1863  0.0701
 5410SOL    HW116467   0.890   4.190   5.208  0.8726 -0.1077  0.8672
 5410SOL    HW216468   0.828   4.120   5.327 -0.3475 -0.1614  0.2171
 5411SOL     OW16469   4.155   5.004   4.875  0.6022 -0.1434 -0.4798
 5411SOL    HW116470   4.174   5.018   4.968  2.3429 -0.1881 -0.7803
 5411SOL    HW216471   4.110   5.084   4.847 -1.7801 -0.9496  0.8049
 5412SOL     OW16472   1.967   3.808   4.597  0.2935 -0.2846 -0.0119
 5412SOL    HW116473   2.053   3.794   4.557  0.3556  0.7966 -0.2707
 5412SOL    HW216474   1.905   3.790   4.526  0.3550  0.3044 -0.2140
 5413SOL     OW16475   5.457   5.868   1.593  0.2504  0.0725 -0.0510
 5413SOL    HW116476   5.409   5.830   1.519 -1.8453  2.3711 -0.0066
 5413SOL    HW216477   5.515   5.933   1.552  0.6965 -0.1623  0.1962
 5414SOL     OW16478   4.166   5.980   2.850  1.0528 -0.4276  0.0775
 5414SOL    HW116479   4.072   5.973   2.863  0.6583  2.5919 -0.2704
 5414SOL    HW216480   4.202   5.984   2.939  0.4562  1.2452  0.2956
 5415SOL     OW16481   4.245   6.150   0.053  0.2705 -0.0446 -0.2148
 5415SOL    HW116482   4.268   6.076  -0.004 -0.7247  0.8441 -1.8616
 5415SOL    HW216483   4.151   6.161   0.041 -0.7785 -1.8664  4.2182
 5416SOL     OW16484   1.437   1.954   0.071 -0.4196 -0.2645 -0.0281
 5416SOL    HW116485   1.427   1.915   0.158  0.8681  0.9055  0.6862
 5416SOL    HW216486   1.349   1.981   0.046 -0.6244  0.6363  1.5411
 5417SOL     OW16487   0.442   0.734   1.855  0.6257 -0.8085  0.4722
 5417SOL    HW116488   0.437   0.829   1.867  0.8239 -0.6183 -0.8258
 5417SOL    HW216489   0.432   0.721   1.761 -2.3254 -2.2841  0.8844
 5418SOL     OW16490   4.876   1.348   5.714  0.0611  0.5028 -0.0457
 5418SOL    HW116491   4.951   1.292   5.733 -0.5219 -0.6910 -1.1049
 5418SOL    HW216492   4.895   1.430   5.759  1.5701 -0.0848  0.4431
 5419SOL     OW16493   5.848   0.065   2.377  0.3593  0.5416 -0.4735
 5419SOL    HW116494   5.859   0.003   2.305 -2.0603  0.2448 -0.6630
 5419SOL    HW216495   5.892   0.145   2.347  1.5123 -0.3411 -1.2119
 5420SOL     OW16496   2.649   3.607   5.041  0.1469  0.0481 -0.1399
 5420SOL    HW116497   2.725   3.560   5.074  1.0767  1.2020 -0.5760
 5420SOL    HW216498   2.671   3.628   4.951 -0.3438  1.1035 -0.0241
 5421SOL     OW16499   4.207   2.109   0.451 -0.5725  0.2202 -0.1276
 5421SOL    HW116500   4.177   2.091   0.362 -2.7002  2.5169  0.0109
 5421SOL    HW216501   4.284   2.054   0.462 -0.3432 -0.2791 -3.3147
 5422SOL     OW16502   2.113   5.545   5.882 -0.4475  0.0424  0.1141
 5422SOL    HW116503   2.070   5.498   5.811 -1.3129  2.0850 -0.8005
 5422SOL    HW216504   2.139   5.629   5.843 -0.3739  0.9669  2.0366
 5423SOL     OW16505   2.432   1.553   2.805 -0.3227 -0.1238 -0.7796
 5423SOL    HW116506   2.433   1.519   2.894  0.5695  1.0799 -0.3068
 5423SOL    HW216507   2.402   1.644   2.814 -4.2746 -1.0563 -2.1798
 5424SOL     OW16508   3.651   1.528   3.986  0.1506  0.3065  0.6661
 5424SOL    HW116509   3.631   1.525   4.080 -0.7219 -1.7559  0.4761
 5424SOL    HW216510   3.574   1.490   3.944  1.7295 -1.7004 -0.6064
 5425SOL     OW16511   2.737   5.749   5.875  0.8729  0.1136  0.0821
 5425SOL    HW116512   2.707   5.689   5.807  0.4236 -1.9841  1.9819
 5425SOL    HW216513   2.659   5.796   5.903  1.3288  2.1473 -1.8153
 5426SOL     OW16514   6.135   1.631   5.204 -0.2871  0.0931 -0.6602
 5426SOL    HW116515   6.131   1.726   5.204  2.1686  0.2769 -0.3888
 5426SOL    HW216516   6.125   1.606   5.112 -1.1928  0.5896 -0.6976
 5427SOL     OW16517   0.179   5.697   2.922 -0.4290  0.4829  0.1983
 5427SOL    HW116518   0.109   5.754   2.953  0.2317  0.9532  0.8520
 5427SOL    HW216519   0.186   5.717   2.828 -1.7989 -0.2642 -0.0801
 5428SOL     OW16520   2.712   4.728   2.351 -0.6584  0.1932 -0.3769
 5428SOL    HW116521   2.695   4.770   2.266  0.5397 -0.5844 -1.0289
 5428SOL    HW216522   2.629   4.734   2.398 -0.7399  2.6746 -0.6924
 5429SOL     OW16523   1.530   2.686   3.258 -0.7308 -0.4916 -0.0513
 5429SOL    HW116524   1.538   2.605   3.208  2.7846  0.0695 -0.6326
 5429SOL    HW216525   1.546   2.660   3.349 -2.5139 -0.8034  0.2151
 5430SOL     OW16526   5.119   5.944   1.110 -0.7494 -0.6388  0.0833
 5430SOL    HW116527   5.082   5.856   1.101  0.0989 -0.9752 -0.2047
 5430SOL    HW216528   5.077   5.995   1.040 -0.3120 -1.1401 -0.5548
 5431SOL     OW16529   4.008   4.746   3.665  0.8485 -0.1913  0.6796
 5431SOL    HW116530   3.938   4.709   3.612  1.6244 -1.4172  0.4614
 5431SOL    HW216531   3.962   4.791   3.737 -0.1931  1.1958 -0.7965
 5432SOL     OW16532   1.070   0.325   3.640  0.4309  0.3430 -0.4234
 5432SOL    HW116533   1.116   0.241   3.646  0.1264  0.2611  1.2694
 5432SOL    HW216534   1.120   0.375   3.575 -0.5375 -1.7989 -2.9694
 5433SOL     OW16535   0.625   1.875   5.703 -0.3788  0.5295  0.1729
 5433SOL    HW116536   0.647   1.782   5.704  3.2455  1.2449  1.2249
 5433SOL    HW216537   0.531   1.877   5.684 -0.8025 -3.3336  0.9805
 5434SOL     OW16538   4.087   1.937   3.979 -0.6762 -0.3658  0.1339
 5434SOL    HW116539   4.106   1.935   3.885 -0.7359  0.4941  0.0964
 5434SOL    HW216540   4.152   1.878   4.017 -1.4667 -1.7392 -0.5693
 5435SOL     OW16541   1.418   0.093   4.069  0.0900 -0.5238 -0.0407
 5435SOL    HW116542   1.323   0.082   4.074  0.0169  0.1151  0.0804
 5435SOL    HW216543   1.431   0.161   4.002  0.4369 -0.3255  0.2192
 5436SOL     OW16544   3.843   1.998   3.082 -0.2731  0.5848  0.5165
 5436SOL    HW116545   3.873   2.047   3.005  2.6397  0.2209  1.2933
 5436SOL    HW216546   3.903   1.923   3.087 -0.6064  0.4066  2.9290
 5437SOL     OW16547   2.128   0.849   1.934 -0.3512 -0.0025  0.2666
 5437SOL    HW116548   2.124   0.917   2.001  0.0562  0.6007 -0.3019
 5437SOL    HW216549   2.145   0.768   1.982  2.1813  0.7145  0.7472
 5438SOL     OW16550   4.425   2.546   3.222 -0.3187  0.3603 -0.4710
 5438SOL    HW116551   4.441   2.639   3.240 -1.2459  0.4741 -0.1475
 5438SOL    HW216552   4.415   2.506   3.308 -2.8098  0.5302 -0.5911
 5439SOL     OW16553   1.300   3.732   5.030 -0.0351  0.2801  0.6399
 5439SOL    HW116554   1.330   3.816   5.066  0.0027 -0.3071  2.0362
 5439SOL    HW216555   1.205   3.742   5.022 -0.4897 -0.4839  3.6518
 5440SOL     OW16556   0.777   6.123   1.490 -0.9545  0.1151 -0.2229
 5440SOL    HW116557   0.776   6.052   1.554 -1.4205  0.3166 -0.0039
 5440SOL    HW216558   0.869   6.130   1.464 -0.5780  0.6978  1.1728
 5441SOL     OW16559   4.388   3.316   2.830  0.0074  0.1753  0.1323
 5441SOL    HW116560   4.385   3.412   2.829 -0.7831  0.1861 -2.2599
 5441SOL    HW216561   4.479   3.295   2.809 -0.1507  0.4475 -0.8982
 5442SOL     OW16562   4.658   5.341   0.569  0.8025  0.4016  0.8684
 5442SOL    HW116563   4.734   5.377   0.615  1.2747  0.8338 -0.2376
 5442SOL    HW216564   4.637   5.406   0.502 -0.1902  0.0117  0.7884
 5443SOL     OW16565   3.255   0.870   4.641 -0.4433  0.0019 -0.2629
 5443SOL    HW116566   3.168   0.883   4.604 -0.8452 -0.7073  0.4085
 5443SOL    HW216567   3.264   0.940   4.706  0.6706  1.9038 -2.3087
 5444SOL     OW16568   5.780   5.411   1.968 -0.4093  0.1370  0.3127
 5444SOL    HW116569   5.873   5.393   1.986 -1.0896 -1.7178  2.3218
 5444SOL    HW216570   5.755   5.474   2.035 -1.0917 -0.9116  1.0499
 5445SOL     OW16571   3.402   3.914   2.302  0.3208  0.0932 -0.2825
 5445SOL    HW116572   3.347   3.838   2.320 -0.0671  0.1712 -1.0966
 5445SOL    HW216573   3.481   3.878   2.262  0.9487 -0.0315  1.0191
 5446SOL     OW16574   3.974   3.120   5.654 -0.1548  0.0582  0.0887
 5446SOL    HW116575   3.917   3.060   5.605 -0.6658  0.7651 -0.2064
 5446SOL    HW216576   4.039   3.063   5.695 -1.0773 -0.7779  0.4359
 5447SOL     OW16577   1.444   2.227   0.894  0.0917 -0.0951 -0.4881
 5447SOL    HW116578   1.479   2.199   0.978 -1.6881 -2.1947 -0.3663
 5447SOL    HW216579   1.414   2.317   0.909  2.2972  0.5735  0.2813
 5448SOL     OW16580   1.347   5.609   3.884 -0.2410 -0.0560 -0.3924
 5448SOL    HW116581   1.261   5.650   3.888 -0.3783 -0.4058  0.2996
 5448SOL    HW216582   1.409   5.682   3.890 -0.4563  0.3893 -2.6665
 5449SOL     OW16583   4.475   4.258   1.493 -0.1568  0.1028  0.4881
 5449SOL    HW116584   4.527   4.245   1.413  1.6310 -0.7605  1.7246
 5449SOL    HW216585   4.424   4.337   1.476  0.0251 -0.1732 -1.5849
 5450SOL     OW16586   3.244   0.463   5.275  0.0485 -0.1210 -0.1229
 5450SOL    HW116587   3.338   0.455   5.292 -0.0144 -2.0981 -0.4660
 5450SOL    HW216588   3.204   0.459   5.362  0.2389 -0.2771 -0.0409
 5451SOL     OW16589   3.382   1.364   1.610 -0.1352 -0.5040  0.6327
 5451SOL    HW116590   3.421   1.345   1.524  0.4689  1.3059  0.4777
 5451SOL    HW216591   3.313   1.427   1.591 -0.9199 -1.1458  1.3265
 5452SOL     OW16592   1.029   3.066   1.414 -0.1573 -0.0420 -0.1740
 5452SOL    HW116593   1.078   3.148   1.422 -1.1011  0.5269 -0.0298
 5452SOL    HW216594   1.096   2.999   1.402  0.5967  0.8737 -1.3195
 5453SOL     OW16595   4.093   6.001   4.021  0.0377  0.2733  0.4127
 5453SOL    HW116596   4.030   6.011   4.092 -1.5528  3.6845 -1.2350
 5453SOL    HW216597   4.111   6.091   3.992  5.0442 -0.5343  0.1400
 5454SOL     OW16598   1.747   3.640   0.907 -0.3273  0.4331  0.2186
 5454SOL    HW116599   1.708   3.727   0.905 -0.5450  0.3359  0.1925
 5454SOL    HW216600   1.808   3.640   0.834 -1.2535  0.1377 -0.5781
 5455SOL     OW16601   0.792   0.929   2.028  0.2033  0.0687  0.4430
 5455SOL    HW116602   0.801   0.997   2.095 -0.2847 -0.5587  1.1550
 5455SOL    HW216603   0.831   0.968   1.950  0.1372  1.0804  0.8979
 5456SOL     OW16604   3.897   0.487   4.208 -0.1049 -0.4181 -0.1833
 5456SOL    HW116605   3.866   0.396   4.204 -0.1950 -0.3829 -0.2609
 5456SOL    HW216606   3.965   0.485   4.275 -0.5534 -0.4122  0.2797
 5457SOL     OW16607   0.466   3.220   2.270 -0.3227  0.5290 -0.0845
 5457SOL    HW116608   0.522   3.170   2.330 -1.2862  2.8113  2.9442
 5457SOL    HW216609   0.514   3.301   2.255  0.0291 -0.0838 -2.8108
 5458SOL     OW16610   2.382   3.251   4.942  0.1024 -0.3257 -0.5223
 5458SOL    HW116611   2.379   3.292   4.855 -2.9868 -0.9011 -0.8228
 5458SOL    HW216612   2.304   3.286   4.987  0.2873 -1.8956  1.1239
 5459SOL     OW16613   3.744   2.596   5.651  0.2534  0.1425  0.1512
 5459SOL    HW116614   3.773   2.601   5.559 -1.2014  2.3154 -0.2680
 5459SOL    HW216615   3.651   2.577   5.646  0.0012  1.0420  1.1424
 5460SOL     OW16616   4.132   3.103   3.252 -0.2573 -0.0923 -0.5632
 5460SOL    HW116617   4.173   3.029   3.296 -0.7400 -0.6528 -1.0310
 5460SOL    HW216618   4.205   3.160   3.229  0.1079 -0.3355 -0.0466
 5461SOL     OW16619   0.071   4.980   4.421 -0.7364 -0.2531  0.1166
 5461SOL    HW116620   0.020   4.967   4.341  0.1764  0.2132 -0.5604
 5461SOL    HW216621   0.145   4.920   4.413 -1.2119 -1.0047  1.1393
 5462SOL     OW16622   1.678   4.152   3.668 -0.0226 -0.2490  0.2066
 5462SOL    HW116623   1.715   4.236   3.695 -0.9273  0.1100  0.3579
 5462SOL    HW216624   1.688   4.096   3.745 -0.9418  0.2276  0.6879
 5463SOL     OW16625   0.009   4.998   5.762  0.0579 -0.0918 -0.2914
 5463SOL    HW116626   0.075   4.949   5.811 -0.7441 -1.5882 -0.6412
 5463SOL    HW216627  -0.074   4.975   5.805 -0.3862  0.5685 -0.7848
 5464SOL     OW16628   3.231   0.940   5.394 -0.3187  0.2975  0.4551
 5464SOL    HW116629   3.320   0.937   5.358 -0.0211 -0.1381  1.1908
 5464SOL    HW216630   3.180   0.884   5.336 -0.1490  0.6522 -0.0475
 5465SOL     OW16631   1.124   4.183   3.298  0.1764  0.1074 -0.8415
 5465SOL    HW116632   1.089   4.103   3.258 -0.1072  0.0950 -0.5729
 5465SOL    HW216633   1.089   4.183   3.387  2.2065 -0.7959  0.0447
 5466SOL     OW16634   2.060   5.595   2.986 -0.1471 -0.8708 -0.8229
 5466SOL    HW116635   2.018   5.670   3.027 -0.1950 -1.5479  0.4301
 5466SOL    HW216636   2.151   5.621   2.976 -0.6160  0.2169 -2.5888
 5467SOL     OW16637   2.373   0.644   2.265 -0.0570  0.4690  0.4794
 5467SOL    HW116638   2.371   0.731   2.224 -1.0465 -0.2385 -1.0849
 5467SOL    HW216639   2.304   0.646   2.330 -0.6230  0.6194 -0.1133
 5468SOL     OW16640   4.426   1.371   0.828 -0.2744 -0.1417 -0.4868
 5468SOL    HW116641   4.465   1.294   0.786 -0.1836 -0.5987  0.3940
 5468SOL    HW216642   4.332   1.363   0.814 -0.3705 -1.0167  0.5335
 5469SOL     OW16643   4.430   2.169   4.144 -0.6544 -0.0944  0.2771
 5469SOL    HW116644   4.521   2.140   4.155 -0.3122  0.5474 -0.6758
 5469SOL    HW216645   4.427   2.203   4.055 -1.9913 -0.6423  0.0830
 5470SOL     OW16646   2.625   3.003   3.350  0.3602  0.0917  0.1663
 5470SOL    HW116647   2.575   2.983   3.271  1.1119  2.7704 -1.1061
 5470SOL    HW216648   2.576   3.075   3.391  1.8899  1.2258  0.0991
 5471SOL     OW16649   5.613   4.992   0.948 -0.0748  0.3530 -0.1975
 5471SOL    HW116650   5.704   4.965   0.963 -0.3067 -0.5462 -0.3801
 5471SOL    HW216651   5.601   4.985   0.853 -0.0499  1.4134 -0.2882
 5472SOL     OW16652   1.437   3.764   5.498  0.1183  0.8284 -0.0049
 5472SOL    HW116653   1.438   3.703   5.571 -1.1589  1.3505  0.4681
 5472SOL    HW216654   1.379   3.723   5.434 -0.1584  1.1973  0.0090
 5473SOL     OW16655   3.943   3.570   5.474 -0.2545  0.1029 -0.0831
 5473SOL    HW116656   4.006   3.640   5.458  0.1716 -0.2597 -0.0073
 5473SOL    HW216657   3.993   3.489   5.460 -0.8259 -0.1853 -0.5034
 5474SOL     OW16658   2.830   4.007   2.833 -0.4553 -0.1194 -0.3259
 5474SOL    HW116659   2.791   4.094   2.828 -0.3825 -0.0342  0.5110
 5474SOL    HW216660   2.921   4.020   2.809 -0.4501  0.0343 -0.2264
 5475SOL     OW16661   0.966   1.764   2.223 -0.4014  0.4280 -0.6922
 5475SOL    HW116662   1.048   1.811   2.239 -0.4384  0.4596 -0.5961
 5475SOL    HW216663   0.935   1.797   2.138 -0.1422  0.1695 -0.8914
 5476SOL     OW16664   4.712   3.718   3.791  0.6181  0.3872  0.2607
 5476SOL    HW116665   4.716   3.640   3.847  1.8993  0.4661  0.3015
 5476SOL    HW216666   4.745   3.789   3.847  0.3055  0.7880 -0.0622
 5477SOL     OW16667   4.030   0.826   0.176 -0.1048  0.2396  0.4963
 5477SOL    HW116668   4.021   0.739   0.137 -1.9789 -0.0731  1.5210
 5477SOL    HW216669   3.945   0.868   0.161 -0.2218  0.8216  2.5202
 5478SOL     OW16670   0.991   0.564   1.193  0.0838 -0.7677 -0.0881
 5478SOL    HW116671   0.922   0.608   1.244  1.2076 -0.4844  1.2469
 5478SOL    HW216672   1.070   0.577   1.244  1.4141  0.0440 -2.2283
 5479SOL     OW16673   5.964   4.913   2.132 -0.1140  0.1438 -0.5547
 5479SOL    HW116674   6.021   4.954   2.067  0.6223  1.5904  0.9512
 5479SOL    HW216675   5.907   4.983   2.163 -1.4066 -0.8382 -0.5996
 5480SOL     OW16676   2.498   0.491   1.311  0.2706  0.2596 -0.3783
 5480SOL    HW116677   2.520   0.526   1.397  0.6772 -2.9899  0.9882
 5480SOL    HW216678   2.403   0.478   1.314  0.3483 -0.3043 -0.1999
 5481SOL     OW16679   5.618   2.076   4.681 -0.1515  0.0487  0.4563
 5481SOL    HW116680   5.671   2.122   4.617  2.0415 -0.7280  1.6192
 5481SOL    HW216681   5.564   2.016   4.629  0.2658  0.6898 -0.7502
 5482SOL     OW16682   3.027   2.996   2.865  0.0843  0.0142  0.8542
 5482SOL    HW116683   3.013   3.089   2.886 -0.1087  0.4312 -0.9962
 5482SOL    HW216684   2.969   2.950   2.926  0.3004  1.0789  1.9168
 5483SOL     OW16685   4.213   4.016   0.836 -0.1022  0.2006 -0.4642
 5483SOL    HW116686   4.235   4.095   0.785  0.8055  0.8779  0.9174
 5483SOL    HW216687   4.279   4.014   0.905 -0.3863 -1.5566 -0.2211
 5484SOL     OW16688   1.721   5.284   4.301 -0.2246  0.2898 -0.7787
 5484SOL    HW116689   1.710   5.378   4.288  0.5936  0.6332  0.7125
 5484SOL    HW216690   1.634   5.248   4.285  0.0868  0.8102 -4.5299
 5485SOL     OW16691   3.974   0.264   4.573  0.1495 -0.0896  0.0663
 5485SOL    HW116692   4.037   0.322   4.530  0.0814  0.0202  0.1145
 5485SOL    HW216693   3.987   0.280   4.667 -0.8109  0.8686  0.0688
 5486SOL     OW16694   5.490   0.609   1.420 -0.0724 -0.3009  0.2963
 5486SOL    HW116695   5.439   0.634   1.343  1.5656  1.1815 -0.3909
 5486SOL    HW216696   5.479   0.514   1.427 -0.9067 -0.3449 -1.2839
 5487SOL     OW16697   3.152   5.886   2.494  0.0635  0.5417 -0.4931
 5487SOL    HW116698   3.136   5.976   2.523 -0.8090  0.3361 -0.2992
 5487SOL    HW216699   3.202   5.896   2.413 -0.9886  1.2582 -1.0890
 5488SOL     OW16700   4.188   4.127   5.333  0.4548  0.3185  0.4799
 5488SOL    HW116701   4.102   4.086   5.338  1.3528 -1.5953  1.2454
 5488SOL    HW216702   4.177   4.198   5.269 -1.7613  0.3884  0.8551
 5489SOL     OW16703   5.832   4.097   3.868 -0.5787  0.0419  0.1014
 5489SOL    HW116704   5.912   4.083   3.919 -0.4834  1.7494  0.4906
 5489SOL    HW216705   5.834   4.029   3.801  0.8702 -0.3528  0.5031
 5490SOL     OW16706   0.927   1.460   4.529 -0.1134 -0.0220 -0.2185
 5490SOL    HW116707   0.930   1.386   4.468  0.1780  0.0786 -0.3299
 5490SOL    HW216708   1.001   1.444   4.589 -1.2407 -0.8767  0.9993
 5491SOL     OW16709   5.446   0.243   3.122 -0.3101 -0.5382 -0.3668
 5491SOL    HW116710   5.420   0.285   3.039  0.7485 -1.0200 -0.9694
 5491SOL    HW216711   5.482   0.159   3.095  1.0098 -0.2690  0.4964
 5492SOL     OW16712   4.803   4.236   5.338 -0.4347  0.1227  0.7133
 5492SOL    HW116713   4.801   4.152   5.291 -0.2747 -0.4256  1.6660
 5492SOL    HW216714   4.795   4.212   5.430 -1.2271  1.2134  0.9485
 5493SOL     OW16715   4.967   3.023   2.610 -0.4045 -0.0769 -0.1955
 5493SOL    HW116716   4.987   3.027   2.703 -0.4394 -1.5476 -0.1021
 5493SOL    HW216717   4.988   3.110   2.577 -0.2686  0.4259  1.1535
 5494SOL     OW16718   2.100   4.636   2.397 -0.3884  0.2582 -0.6413
 5494SOL    HW116719   2.043   4.561   2.411  0.7864 -0.5402 -0.0516
 5494SOL    HW216720   2.094   4.653   2.303 -0.4364 -0.7536 -0.8269
 5495SOL     OW16721   5.717   4.895   3.579  0.0895 -0.1196  0.0183
 5495SOL    HW116722   5.777   4.957   3.619 -1.0447  0.2109  1.2787
 5495SOL    HW216723   5.704   4.928   3.490  1.0213  0.3151  0.0296
 5496SOL     OW16724   1.412   3.188   2.902 -0.7594 -0.1417  0.0809
 5496SOL    HW116725   1.353   3.142   2.961 -2.0878  0.1535 -0.9616
 5496SOL    HW216726   1.355   3.246   2.851  0.7715  2.5323  1.1651
 5497SOL     OW16727   1.885   2.434   5.027 -0.3402 -0.1523 -0.0456
 5497SOL    HW116728   1.812   2.389   4.986  0.7306 -0.3893 -1.7966
 5497SOL    HW216729   1.866   2.431   5.121 -2.1087 -0.9801 -0.3996
 5498SOL     OW16730   1.541   3.848   3.192  0.1379  0.1124  0.8461
 5498SOL    HW116731   1.552   3.942   3.177 -1.1630  0.1831  0.1514
 5498SOL    HW216732   1.457   3.828   3.152  0.8791 -1.5626  0.0381
 5499SOL     OW16733   0.797   4.297   0.705 -0.2952 -0.0583 -0.2499
 5499SOL    HW116734   0.805   4.280   0.799  0.4142 -0.8953 -0.4485
 5499SOL    HW216735   0.703   4.289   0.687 -0.3110 -0.9793  0.1979
 5500SOL     OW16736   2.886   3.998   4.690 -0.2453 -0.3979  0.0968
 5500SOL    HW116737   2.848   4.075   4.734  1.4802  1.0756 -0.8645
 5500SOL    HW216738   2.980   4.014   4.692 -0.0000 -1.1230 -2.5793
 5501SOL     OW16739   5.728   3.766   4.106 -1.0226  0.7650  0.1131
 5501SOL    HW116740   5.716   3.850   4.061 -1.5937  0.3788 -0.4598
 5501SOL    HW216741   5.779   3.788   4.184  1.0786  1.2853 -1.3121
 5502SOL     OW16742   2.877   5.413   3.973  0.5642  0.2418  0.2655
 5502SOL    HW116743   2.897   5.452   3.888 -0.0592 -0.2210 -0.1091
 5502SOL    HW216744   2.834   5.483   4.022  0.0868  0.2417 -0.1440
 5503SOL     OW16745   2.581   4.734   1.491 -0.0243 -0.3734 -0.0879
 5503SOL    HW116746   2.540   4.647   1.491  0.9147 -0.8270 -0.8616
 5503SOL    HW216747   2.530   4.784   1.427 -1.4488  0.1178  1.3350
 5504SOL     OW16748   5.841   4.655   5.157 -0.6330 -0.4091  0.0302
 5504SOL    HW116749   5.901   4.659   5.082  0.5478 -0.2372  0.9631
 5504SOL    HW216750   5.757   4.687   5.122 -0.0362 -0.0595 -1.1365
 5505SOL     OW16751   4.489   0.529   1.230  0.3403 -0.1276  0.3781
 5505SOL    HW116752   4.524   0.555   1.145 -0.2225  0.4388  0.3177
 5505SOL    HW216753   4.459   0.611   1.270 -1.5544 -0.6760  0.1446
 5506SOL     OW16754   0.495   5.114   2.428  0.3772 -0.3559 -0.0432
 5506SOL    HW116755   0.434   5.088   2.359  2.0110 -0.6297 -1.4556
 5506SOL    HW216756   0.449   5.094   2.509 -1.5423 -0.1997 -1.0239
 5507SOL     OW16757   3.904   5.319   3.287  0.3665  0.4448 -0.4642
 5507SOL    HW116758   3.896   5.286   3.197 -0.6459 -0.8573  0.0675
 5507SOL    HW216759   3.814   5.335   3.314  0.3021 -2.4468  1.4363
 5508SOL     OW16760   0.334   1.761   0.902  0.1185  0.6684 -0.5770
 5508SOL    HW116761   0.424   1.731   0.896  0.4870  1.2258  1.2823
 5508SOL    HW216762   0.320   1.775   0.996 -2.0825  0.0778 -0.7658
 5509SOL     OW16763   4.926   0.983   3.078 -0.0345  0.5469  0.0255
 5509SOL    HW116764   4.885   0.897   3.072 -0.6236  0.7355  1.0220
 5509SOL    HW216765   4.905   1.013   3.166 -1.1386  2.3456 -0.7915
 5510SOL     OW16766   4.668   1.410   3.602  0.2708 -0.2396  0.0497
 5510SOL    HW116767   4.683   1.467   3.677  3.1903  0.2607 -0.7723
 5510SOL    HW216768   4.732   1.340   3.611 -2.4500 -2.9080  0.4123
 5511SOL     OW16769   4.608   3.333   5.437  0.0520 -0.3226 -0.2411
 5511SOL    HW116770   4.668   3.375   5.377  0.5276 -0.8359 -0.1382
 5511SOL    HW216771   4.542   3.399   5.457  2.9941  1.9608  3.2163
 5512SOL     OW16772   5.916   1.480   5.116 -0.4828  0.2961  0.6134
 5512SOL    HW116773   5.830   1.521   5.108 -0.1449  1.0739  0.9419
 5512SOL    HW216774   5.906   1.396   5.071 -1.0264  0.9613 -0.5599
 5513SOL     OW16775   5.236   3.231   3.527  0.4642 -0.1206 -0.0896
 5513SOL    HW116776   5.247   3.181   3.608 -0.2731  1.3330  0.9456
 5513SOL    HW216777   5.144   3.221   3.505  0.3735  0.5073 -0.0280
 5514SOL     OW16778   5.964   4.937   1.405  0.1301  0.1616  0.2853
 5514SOL    HW116779   5.945   4.855   1.359  0.2261 -0.3509  1.1477
 5514SOL    HW216780   6.020   4.986   1.344 -1.2478  0.2968 -0.9177
 5515SOL     OW16781   5.077   2.639   5.861 -0.0066 -0.0623 -0.3143
 5515SOL    HW116782   5.161   2.605   5.830  0.1458  1.0141 -1.1368
 5515SOL    HW216783   5.014   2.569   5.842  0.6648 -0.7923  0.1252
 5516SOL     OW16784   5.106   5.959   2.371  0.4150 -0.1295  0.1513
 5516SOL    HW116785   5.048   5.901   2.322 -0.3783 -0.0166  0.9146
 5516SOL    HW216786   5.096   6.045   2.329 -0.0649 -0.0871  0.3451
 5517SOL     OW16787   1.534   0.378   3.185 -0.2284  0.2518 -0.3693
 5517SOL    HW116788   1.598   0.348   3.250 -0.2943  0.5492 -0.1643
 5517SOL    HW216789   1.473   0.306   3.176 -0.6414  0.4882  0.4507
 5518SOL     OW16790   3.792   3.364   2.520 -0.0097 -0.0706 -0.0289
 5518SOL    HW116791   3.814   3.278   2.483  0.8457 -0.0836  0.4829
 5518SOL    HW216792   3.742   3.344   2.599 -0.0733 -0.0917 -0.0744
 5519SOL     OW16793   4.570   1.231   3.892  0.5512  0.4710 -0.3008
 5519SOL    HW116794   4.506   1.167   3.862  1.3535 -0.3329 -0.3437
 5519SOL    HW216795   4.556   1.307   3.836 -1.3586  0.9068  0.6716
 5520SOL     OW16796   3.851   2.062   1.407 -0.4058  0.4469  0.5974
 5520SOL    HW116797   3.852   2.068   1.502  0.3506  0.7403  0.5820
 5520SOL    HW216798   3.938   2.093   1.380 -0.5615  0.2431 -0.1773
 5521SOL     OW16799   3.649   4.451   2.651 -0.3504  0.4570 -0.2058
 5521SOL    HW116800   3.581   4.437   2.716 -0.4762  0.4599 -0.3376
 5521SOL    HW216801   3.605   4.497   2.580 -0.2004  0.5021 -0.2694
 5522SOL     OW16802   0.096   3.271   1.110 -0.2408  0.4918 -0.6044
 5522SOL    HW116803   0.067   3.277   1.201  1.9983 -2.6905  0.5009
 5522SOL    HW216804   0.169   3.333   1.104  0.6263 -0.4103  0.2905
 5523SOL     OW16805   1.355   4.606   0.895  0.1753 -0.7122  0.0355
 5523SOL    HW116806   1.362   4.526   0.947 -1.2158  0.1615  1.6957
 5523SOL    HW216807   1.263   4.631   0.903  0.4722  0.7832 -0.8705
 5524SOL     OW16808   3.849   5.347   1.473 -0.0109 -0.0501  0.0297
 5524SOL    HW116809   3.794   5.290   1.420  0.7632  0.0324 -0.8888
 5524SOL    HW216810   3.841   5.433   1.433 -0.2968  0.2601  0.7326
 5525SOL     OW16811   5.352   0.812   5.077  0.0791 -0.1980  0.2655
 5525SOL    HW116812   5.298   0.745   5.034 -2.6295  1.7428  0.3768
 5525SOL    HW216813   5.309   0.894   5.056  1.9734  1.3355  1.9994
 5526SOL     OW16814   0.737   4.674   3.189 -0.4886  0.3122 -0.6504
 5526SOL    HW116815   0.684   4.599   3.162  0.0972 -0.6361  0.6826
 5526SOL    HW216816   0.825   4.638   3.200 -0.5657  0.7145  1.8420
 5527SOL     OW16817   5.858   5.452   5.902  0.3342  0.1036  0.3586
 5527SOL    HW116818   5.844   5.521   5.968 -0.6106  0.7740 -0.5148
 5527SOL    HW216819   5.953   5.445   5.895  0.4505  0.5301  1.2679
 5528SOL     OW16820   0.360   4.461   2.914 -0.2829  0.2176  0.0202
 5528SOL    HW116821   0.359   4.409   2.833  2.0404  0.2512 -0.0799
 5528SOL    HW216822   0.286   4.426   2.965 -0.3794 -1.3879 -1.1340
 5529SOL     OW16823   5.927   4.890   1.815  0.1913 -0.7058  0.0365
 5529SOL    HW116824   5.904   4.947   1.741 -0.8131  0.7870  1.4035
 5529SOL    HW216825   6.011   4.923   1.846  1.1889 -2.0793 -1.0964
 5530SOL     OW16826   5.368   3.748   3.109  0.1282 -0.1825  0.0694
 5530SOL    HW116827   5.273   3.744   3.099  0.2915 -1.9708 -1.1922
 5530SOL    HW216828   5.391   3.839   3.091 -1.2997  0.1824  0.0330
 5531SOL     OW16829   1.667   1.604   0.597  0.2241  0.2654  0.0053
 5531SOL    HW116830   1.617   1.641   0.523  0.5317  0.5596 -0.0578
 5531SOL    HW216831   1.743   1.661   0.604 -0.0534  0.5357  0.8688
 5532SOL     OW16832   6.017   3.265   3.743  0.3475 -0.7725 -0.1866
 5532SOL    HW116833   6.080   3.318   3.792 -2.4183  0.8608  1.9203
 5532SOL    HW216834   5.985   3.324   3.675 -3.1309  0.7546  2.4909
 5533SOL     OW16835   5.109   1.828   5.853 -0.7524 -0.8869 -0.4167
 5533SOL    HW116836   5.085   1.736   5.848 -0.8824 -0.9130  0.5383
 5533SOL    HW216837   5.132   1.843   5.945 -2.0904  0.3394 -0.2268
 5534SOL     OW16838   0.202   1.900   3.855 -0.6756  0.1324 -0.4568
 5534SOL    HW116839   0.149   1.931   3.928  1.0862 -0.0914  0.9975
 5534SOL    HW216840   0.292   1.925   3.878  0.3889 -2.8750 -0.8682
 5535SOL     OW16841   5.790   2.674   5.038  0.5533  0.3263 -0.2032
 5535SOL    HW116842   5.883   2.696   5.040  0.5320  0.4833 -0.7187
 5535SOL    HW216843   5.764   2.671   5.130  0.7513  1.6915 -0.0761
 5536SOL     OW16844   4.826   0.524   5.618 -0.0588  0.2090  0.3485
 5536SOL    HW116845   4.815   0.432   5.593  0.1106  0.4652 -0.6989
 5536SOL    HW216846   4.886   0.522   5.693  0.0442 -0.5201  0.2491
 5537SOL     OW16847   6.045   4.673   5.823 -0.2769  0.1821 -0.0129
 5537SOL    HW116848   5.997   4.756   5.826 -0.6975  0.0264 -1.6629
 5537SOL    HW216849   6.131   4.696   5.788 -0.1367  0.0376  0.2388
 5538SOL     OW16850   2.867   3.450   5.149 -0.1423  0.0841  0.0268
 5538SOL    HW116851   2.873   3.396   5.070  1.6332  0.3233 -0.0330
 5538SOL    HW216852   2.809   3.400   5.207 -2.6728  0.5582 -1.8939
 5539SOL     OW16853   0.509   6.055   3.770  0.0739 -0.3412  0.4757
 5539SOL    HW116854   0.538   5.969   3.738 -0.2889  0.5408 -2.4740
 5539SOL    HW216855   0.414   6.046   3.779  0.2013 -0.6620  1.6840
 5540SOL     OW16856   1.304   0.118   3.381 -0.0395 -0.6953 -0.7949
 5540SOL    HW116857   1.221   0.071   3.377 -1.0692  1.0009 -0.5917
 5540SOL    HW216858   1.291   0.182   3.451  1.1257  0.1682 -1.3442
 5541SOL     OW16859   4.081   0.644   3.322 -0.2706  0.4987 -0.3420
 5541SOL    HW116860   3.999   0.691   3.305 -0.6534  0.5468  1.3923
 5541SOL    HW216861   4.145   0.713   3.340 -0.3899  0.4204  0.4187
 5542SOL     OW16862   4.447   4.949   5.269  0.1152 -0.4001 -0.1427
 5542SOL    HW116863   4.531   4.988   5.295  0.5198 -0.7273 -0.9248
 5542SOL    HW216864   4.457   4.932   5.176 -0.1279 -2.1934  0.1219
 5543SOL     OW16865   1.600   3.560   0.537  0.0475  0.1663 -0.0073
 5543SOL    HW116866   1.534   3.516   0.483  1.2593 -2.1201  0.2755
 5543SOL    HW216867   1.611   3.646   0.495 -1.1672 -0.4213 -1.6271
 5544SOL     OW16868   3.361   0.736   5.052 -0.5928  0.0618 -0.3186
 5544SOL    HW116869   3.439   0.755   5.105 -0.3244 -1.1902 -0.2412
 5544SOL    HW216870   3.298   0.701   5.115 -0.4759 -0.8927 -0.7226
 5545SOL     OW16871   0.204   0.106   4.864 -0.0426  0.0467 -0.4743
 5545SOL    HW116872   0.219   0.193   4.828 -0.0736  0.4617  0.4726
 5545SOL    HW216873   0.109   0.103   4.879  0.0799  0.2307  0.3965
 5546SOL     OW16874   2.080   1.512   5.907  0.0394  0.1671 -0.4362
 5546SOL    HW116875   2.068   1.606   5.893  0.4557  0.0133 -1.9693
 5546SOL    HW216876   2.080   1.502   6.003 -0.0481  1.7070 -0.2481
 5547SOL     OW16877   3.641   4.947   5.301  0.2752  0.0539 -0.1496
 5547SOL    HW116878   3.708   4.893   5.343  0.2816 -0.1051 -0.3704
 5547SOL    HW216879   3.635   4.915   5.212  1.6581  1.6458 -0.8754
 5548SOL     OW16880   0.263   3.334   0.095  0.3775 -0.3947 -0.0645
 5548SOL    HW116881   0.353   3.300   0.095  1.1457  1.4427  1.7521
 5548SOL    HW216882   0.262   3.400   0.164 -2.4647 -0.5028  0.1224
 5549SOL     OW16883   1.628   1.905   3.713 -0.0590 -0.5701 -0.3363
 5549SOL    HW116884   1.717   1.899   3.678  0.1779 -0.3608  0.2119
 5549SOL    HW216885   1.621   1.831   3.774 -0.1554 -0.4181 -0.1597
 5550SOL     OW16886   5.523   2.147   5.629 -0.0267 -0.4789 -0.2810
 5550SOL    HW116887   5.485   2.109   5.708  0.3303 -0.1736  0.0448
 5550SOL    HW216888   5.503   2.084   5.560  0.1761 -1.0446  0.1674
 5551SOL     OW16889   5.206   4.893   4.310  0.1528 -0.2208 -0.0558
 5551SOL    HW116890   5.232   4.983   4.288 -0.3992 -0.1747 -0.5743
 5551SOL    HW216891   5.273   4.862   4.370  0.2937  0.5809  0.2144
 5552SOL     OW16892   4.513   0.983   1.236 -0.5141 -0.0435 -0.0335
 5552SOL    HW116893   4.541   1.050   1.298 -1.0491  0.3992 -0.2632
 5552SOL    HW216894   4.583   0.917   1.239 -0.2550  0.2511  0.6033
 5553SOL     OW16895   4.835   1.490   0.719  0.1739  0.2892  0.4118
 5553SOL    HW116896   4.744   1.518   0.707 -0.0633  0.5228  2.4120
 5553SOL    HW216897   4.844   1.476   0.813  1.9192 -0.8115  0.1376
 5554SOL     OW16898   3.241   2.982   3.070  0.0193 -0.0340  0.1657
 5554SOL    HW116899   3.220   3.074   3.051  0.9408  0.1159 -0.1790
 5554SOL    HW216900   3.257   2.943   2.984 -4.9589 -1.7777 -0.2542
 5555SOL     OW16901   5.576   1.305   3.892 -0.0496 -0.0470  0.2554
 5555SOL    HW116902   5.540   1.229   3.846  0.6238 -0.1155 -0.1696
 5555SOL    HW216903   5.612   1.360   3.822  3.0165 -1.1856  0.7756
 5556SOL     OW16904   4.659   4.136   3.324 -0.1757 -0.2672 -0.5096
 5556SOL    HW116905   4.725   4.193   3.365 -2.1862  0.6740  1.6903
 5556SOL    HW216906   4.677   4.141   3.230  3.4346 -0.8541  0.0232
 5557SOL     OW16907   5.945   2.924   4.617  0.0374 -0.0140  0.2400
 5557SOL    HW116908   5.940   2.983   4.692  1.7284 -0.8482  1.0643
 5557SOL    HW216909   6.019   2.867   4.636 -0.3383 -1.1475 -1.4407
 5558SOL     OW16910   4.701   0.786   1.232  0.6199  0.0610  0.0839
 5558SOL    HW116911   4.725   0.701   1.193 -1.2325 -0.2522 -0.4462
 5558SOL    HW216912   4.725   0.777   1.324  0.4576 -1.0478  0.0390
 5559SOL     OW16913   2.344   0.894   1.760  0.2459 -0.8101  0.0569
 5559SOL    HW116914   2.261   0.891   1.809  0.1988  0.1498  0.0668
 5559SOL    HW216915   2.400   0.830   1.803  0.5413  0.6751  2.0518
 5560SOL     OW16916   5.021   1.230   3.471 -0.6691  0.1364 -0.2292
 5560SOL    HW116917   4.984   1.152   3.429  1.1026 -0.4502 -0.8297
 5560SOL    HW216918   5.035   1.291   3.399  1.3614 -0.4501 -0.3905
 5561SOL     OW16919   2.986   4.464   3.761  0.0091  0.2803  0.2829
 5561SOL    HW116920   2.968   4.533   3.698  0.5799  1.3538  1.2507
 5561SOL    HW216921   3.082   4.457   3.762 -0.0336 -0.3445  0.3824
 5562SOL     OW16922   3.429   0.386   0.884 -0.2306  0.1269  0.6028
 5562SOL    HW116923   3.383   0.303   0.869 -0.0098  0.3882 -2.1316
 5562SOL    HW216924   3.360   0.447   0.910 -1.3546  0.1720 -2.0770
 5563SOL     OW16925   5.743   4.497   0.288  0.2437 -0.0182 -0.3794
 5563SOL    HW116926   5.727   4.424   0.228  2.2195 -0.7747 -0.0719
 5563SOL    HW216927   5.747   4.574   0.230  1.2295 -0.6133 -1.1424
 5564SOL     OW16928   2.030   3.362   0.188  0.4070  0.0416  0.2597
 5564SOL    HW116929   2.038   3.293   0.253  2.5313  0.6600  0.7543
 5564SOL    HW216930   2.121   3.380   0.161 -0.2792  0.9945 -1.5979
 5565SOL     OW16931   2.213   2.442   3.740 -0.3620  0.2657  0.1534
 5565SOL    HW116932   2.118   2.430   3.746 -0.6129  1.3644 -1.1423
 5565SOL    HW216933   2.227   2.530   3.775  0.1527  0.1946  0.1273
 5566SOL     OW16934   0.456   5.305   2.708  0.4066  0.0492  0.6119
 5566SOL    HW116935   0.523   5.333   2.771  1.2391 -1.9944  0.7126
 5566SOL    HW216936   0.504   5.292   2.626 -0.3878  1.1163 -0.0628
 5567SOL     OW16937   0.230   0.782   3.615 -0.0711 -0.3394  0.0980
 5567SOL    HW116938   0.176   0.746   3.686 -2.5787  2.2439 -0.2806
 5567SOL    HW216939   0.314   0.800   3.656 -0.8516 -0.6027  1.9376
 5568SOL     OW16940   0.859   1.303   1.226 -0.1421 -0.1666  0.6464
 5568SOL    HW116941   0.842   1.294   1.132 -1.1920 -1.1266  0.9103
 5568SOL    HW216942   0.943   1.348   1.231 -0.7165  1.1485 -0.7444
 5569SOL     OW16943   5.950   3.206   3.113 -0.2064  0.0412 -0.6306
 5569SOL    HW116944   5.998   3.146   3.170  1.0321  0.2374 -1.4167
 5569SOL    HW216945   5.893   3.150   3.061  0.5639 -0.4234 -0.9983
 5570SOL     OW16946   0.181   0.343   0.208  0.1939 -0.4893  0.4523
 5570SOL    HW116947   0.198   0.437   0.208 -0.7249 -0.3063  0.8595
 5570SOL    HW216948   0.129   0.328   0.287 -0.4785 -1.1753 -0.1021
 5571SOL     OW16949   4.898   2.996   4.723  0.0666  0.7468 -0.1955
 5571SOL    HW116950   4.990   3.019   4.714  0.2842  0.0140  0.1606
 5571SOL    HW216951   4.887   2.917   4.670 -0.2000  0.4304  0.3297
 5572SOL     OW16952   2.762   3.123   0.094  0.0941 -0.3589  0.2969
 5572SOL    HW116953   2.801   3.098   0.178  0.4616  0.1315  0.2838
 5572SOL    HW216954   2.755   3.219   0.099 -1.1337 -0.4365  0.2976
 5573SOL     OW16955   4.662   1.663   4.797 -0.0268  0.1582 -0.1843
 5573SOL    HW116956   4.668   1.707   4.882 -2.9123 -0.4525  0.4155
 5573SOL    HW216957   4.638   1.573   4.818 -0.4883 -0.0809 -1.6426
 5574SOL     OW16958   0.313   3.723   4.521  0.0608 -0.0353 -0.2928
 5574SOL    HW116959   0.365   3.734   4.601  1.3602  0.2584 -1.1441
 5574SOL    HW216960   0.256   3.649   4.540 -1.2077  1.3571  1.6803
 5575SOL     OW16961   0.494   5.714   2.742 -0.0077  0.7913 -0.1585
 5575SOL    HW116962   0.482   5.645   2.808 -0.3537  1.0091  0.0147
 5575SOL    HW216963   0.583   5.702   2.710 -0.0132  0.3564 -0.0231
 5576SOL     OW16964   3.781   1.845   4.475 -0.4921  0.6882  0.3682
 5576SOL    HW116965   3.820   1.778   4.531 -0.2068 -0.9043 -1.6066
 5576SOL    HW216966   3.839   1.920   4.483  1.2466 -0.5476 -0.0443
 5577SOL     OW16967   0.596   1.200   5.446  0.0460 -0.7936 -0.4238
 5577SOL    HW116968   0.644   1.268   5.491 -0.7400 -0.2907 -0.3221
 5577SOL    HW216969   0.613   1.215   5.353  1.9215 -2.0229 -0.3293
 5578SOL     OW16970   4.228   6.103   3.413 -1.2644  0.0002 -0.5476
 5578SOL    HW116971   4.289   6.075   3.344  2.3294  0.9773  1.9480
 5578SOL    HW216972   4.177   6.173   3.373  1.2855  1.1251 -2.0893
 5579SOL     OW16973   4.275   3.022   1.669 -0.2270  1.3055 -0.1358
 5579SOL    HW116974   4.207   2.985   1.612  1.3998 -0.1973 -1.1841
 5579SOL    HW216975   4.265   2.976   1.752 -0.0905  0.6365 -0.4904
 5580SOL     OW16976   0.715   2.463   2.447 -0.5926  0.1583  0.0658
 5580SOL    HW116977   0.806   2.491   2.443 -1.0257  2.0226  1.6346
 5580SOL    HW216978   0.718   2.379   2.493  0.3160  0.3248  0.3201
 5581SOL     OW16979   1.431   0.699   5.424  0.1354  0.4473  0.1890
 5581SOL    HW116980   1.357   0.661   5.472 -1.1657  2.7444  0.1659
 5581SOL    HW216981   1.433   0.791   5.451  0.9235  1.2450 -2.2520
 5582SOL     OW16982   3.424   4.813   2.472  0.0840 -0.2215  0.1037
 5582SOL    HW116983   3.410   4.895   2.518 -3.6245 -0.1076 -0.9097
 5582SOL    HW216984   3.469   4.838   2.391 -1.7577  1.0211 -0.5980
 5583SOL     OW16985   0.016   4.724   3.330  0.4375  0.0915  0.0696
 5583SOL    HW116986  -0.054   4.741   3.266  0.0316 -1.6840  0.0031
 5583SOL    HW216987   0.067   4.805   3.331 -0.1558  0.5295 -1.7261
 5584SOL     OW16988   5.106   5.174   2.904 -0.0002  0.3657 -0.1905
 5584SOL    HW116989   5.063   5.247   2.859  1.2319 -0.2591 -2.5473
 5584SOL    HW216990   5.078   5.096   2.857 -0.2963 -0.5948  1.4961
 5585SOL     OW16991   2.728   4.239   1.628  0.4959 -0.2704 -0.5314
 5585SOL    HW116992   2.816   4.259   1.597  0.5595 -2.2486 -1.7874
 5585SOL    HW216993   2.670   4.278   1.562  0.5668 -2.1236 -1.7507
 5586SOL     OW16994   1.430   5.924   1.240  0.5297  1.0855 -0.5566
 5586SOL    HW116995   1.474   5.844   1.214 -0.2894  0.4653 -0.0900
 5586SOL    HW216996   1.492   5.994   1.220  0.9531  0.4064 -1.6857
 5587SOL     OW16997   5.444   0.326   1.459 -0.0185  0.0595 -0.1225
 5587SOL    HW116998   5.413   0.260   1.397 -1.6339  1.3923 -0.7990
 5587SOL    HW216999   5.383   0.320   1.533 -1.1762  1.8121 -0.8802
 5588SOL     OW17000   3.183   2.124   0.987  0.0881 -0.1528 -0.0906
 5588SOL    HW117001   3.122   2.197   0.987 -0.4091 -0.5540  0.6280
 5588SOL    HW217002   3.174   2.086   0.900 -0.2764  0.1304 -0.1798
 5589SOL     OW17003   2.596   1.436   4.656 -0.2786 -0.3802  0.4174
 5589SOL    HW117004   2.621   1.509   4.599  0.0729  0.1680  1.2428
 5589SOL    HW217005   2.640   1.360   4.618  1.8601  0.3813  1.2146
 5590SOL     OW17006   0.602   4.782   0.138  0.3461 -0.3071 -0.4140
 5590SOL    HW117007   0.633   4.692   0.153 -0.0102 -0.6223 -1.4666
 5590SOL    HW217008   0.682   4.833   0.127  0.5728 -0.3485  0.9006
 5591SOL     OW17009   1.919   3.954   2.473 -0.3831 -0.4748 -0.5618
 5591SOL    HW117010   1.995   3.982   2.524 -2.2032  0.4012  1.8842
 5591SOL    HW217011   1.900   4.028   2.416  0.4116 -0.5928 -0.9963
 5592SOL     OW17012   5.867   6.059   0.743 -0.0976 -0.3493 -0.2923
 5592SOL    HW117013   5.777   6.040   0.715 -0.2505  0.3751 -0.3056
 5592SOL    HW217014   5.869   6.154   0.755  0.9823 -0.2114 -1.4076
 5593SOL     OW17015   0.538   2.038   5.991  0.3676 -0.0584 -0.3436
 5593SOL    HW117016   0.581   2.026   6.076 -0.1392  0.4833  0.0001
 5593SOL    HW217017   0.526   1.949   5.957 -0.6094 -0.3772  0.7602
 5594SOL     OW17018   3.297   1.145   1.755  0.0241  0.1322 -0.2057
 5594SOL    HW117019   3.202   1.134   1.755 -0.2150  1.9285 -0.1934
 5594SOL    HW217020   3.313   1.220   1.698  1.2086  1.4366  1.7452
 5595SOL     OW17021   1.371   3.182   5.332 -0.1083 -0.0133  0.2950
 5595SOL    HW117022   1.341   3.094   5.309 -0.8955  0.9943 -3.2614
 5595SOL    HW217023   1.456   3.190   5.288 -0.5148  1.2908 -0.2967
 5596SOL     OW17024   3.968   1.305   4.027 -0.5359 -0.1251 -0.3647
 5596SOL    HW117025   3.959   1.320   4.121 -1.3543  0.4064 -0.5191
 5596SOL    HW217026   3.971   1.392   3.989  2.1332 -0.2776 -0.6557
 5597SOL     OW17027   5.326   2.563   3.112 -0.3641 -0.6417  0.0528
 5597SOL    HW117028   5.379   2.643   3.107 -2.0885  0.6124  0.5267
 5597SOL    HW217029   5.237   2.593   3.092 -1.3322 -2.1648  1.7427
 5598SOL     OW17030   1.596   2.959   5.214  0.4575 -0.0728 -0.6329
 5598SOL    HW117031   1.598   3.048   5.179  0.7247 -0.3650 -1.3786
 5598SOL    HW217032   1.658   2.960   5.287  1.0310  0.1580 -1.1163
 5599SOL     OW17033   4.728   0.058   5.924 -0.3351 -0.2200 -0.3668
 5599SOL    HW117034   4.675   0.026   5.997  0.6596 -0.8207  0.1114
 5599SOL    HW217035   4.787   0.122   5.963 -0.3095  0.0195 -0.7893
 5600SOL     OW17036   2.210   3.818   2.862 -0.2167  0.3024 -0.5952
 5600SOL    HW117037   2.293   3.853   2.893 -0.3466  0.4849 -0.4493
 5600SOL    HW217038   2.218   3.724   2.872  0.3512  0.2359 -1.5219
 5601SOL     OW17039   2.522   4.230   3.981 -0.2482 -0.0987  0.6582
 5601SOL    HW117040   2.449   4.174   3.954 -0.0538  0.5737 -1.4601
 5601SOL    HW217041   2.600   4.184   3.949  0.1688 -0.0986  1.6364
 5602SOL     OW17042   5.366   1.344   4.314  0.2721  0.2761  0.2745
 5602SOL    HW117043   5.300   1.392   4.264 -1.5668 -0.9340  1.4230
 5602SOL    HW217044   5.406   1.285   4.250 -2.8214 -2.0553  0.3151
 5603SOL     OW17045   1.818   0.626   4.695 -0.2224  0.0793  0.4106
 5603SOL    HW117046   1.838   0.560   4.630  1.0171  1.5795 -0.8181
 5603SOL    HW217047   1.900   0.641   4.741 -0.1360  1.5627 -0.1498
 5604SOL     OW17048   3.914   1.727   5.175 -0.2758  0.6446 -0.1075
 5604SOL    HW117049   3.895   1.761   5.262  0.2141  3.5939 -1.0024
 5604SOL    HW217050   3.974   1.654   5.189  1.6886  2.5175  1.9910
 5605SOL     OW17051   0.088   4.759   1.274 -0.3722  0.2769 -0.0193
 5605SOL    HW117052  -0.005   4.740   1.262 -0.6790  1.6467 -0.0203
 5605SOL    HW217053   0.128   4.736   1.190 -0.5197 -1.2720  0.3128
 5606SOL     OW17054   1.104   6.128   3.966  0.0251  0.2452  0.2238
 5606SOL    HW117055   1.149   6.066   4.023 -0.2101 -0.2533 -0.1226
 5606SOL    HW217056   1.015   6.132   4.001  0.5072  1.7643  1.3360
 5607SOL     OW17057   3.992   0.543   5.515  0.3546 -0.5770 -0.1785
 5607SOL    HW117058   4.029   0.530   5.428 -0.5990 -1.3618 -0.4858
 5607SOL    HW217059   3.933   0.468   5.527 -2.0218  1.1786 -0.1930
 5608SOL     OW17060   5.013   0.449   5.824  0.2799 -0.1735 -0.0088
 5608SOL    HW117061   4.972   0.428   5.908 -0.2356 -0.2937 -0.2861
 5608SOL    HW217062   5.079   0.515   5.845 -0.2359  0.2182  0.4111
 5609SOL     OW17063   1.815   3.080   4.869  0.2831 -0.0275  0.4675
 5609SOL    HW117064   1.847   3.019   4.802  1.7141  0.6372  0.4887
 5609SOL    HW217065   1.887   3.085   4.932  0.9784  2.8988 -0.3784
 5610SOL     OW17066   4.006   5.513   3.985 -0.0989  0.1262  0.4108
 5610SOL    HW117067   4.031   5.599   4.020  1.4197  0.1059 -0.5493
 5610SOL    HW217068   4.083   5.458   3.999 -0.2894 -0.4941 -0.8684
 5611SOL     OW17069   5.430   5.701   6.011 -0.0974  0.2100  0.0218
 5611SOL    HW117070   5.437   5.651   5.930  0.2054  0.0129  0.1682
 5611SOL    HW217071   5.474   5.784   5.992  2.3018 -0.8161  0.7690
 5612SOL     OW17072   3.534   2.290   1.673 -0.3712  0.3528 -0.3334
 5612SOL    HW117073   3.532   2.345   1.595 -0.3562 -0.8565 -1.2143
 5612SOL    HW217074   3.475   2.333   1.735 -0.6294  1.1523 -1.1229
 5613SOL     OW17075   1.484   2.508   4.437 -0.4175 -0.2915  0.2793
 5613SOL    HW117076   1.572   2.520   4.400 -1.6302 -0.8709 -3.1424
 5613SOL    HW217077   1.431   2.574   4.393 -2.0134 -1.0281  1.0448
 5614SOL     OW17078   5.529   3.002   3.302 -0.4530  0.0243  0.3801
 5614SOL    HW117079   5.506   3.077   3.248 -0.0917  0.1910  0.4537
 5614SOL    HW217080   5.501   2.926   3.251  1.0899  0.1121 -0.6817
 5615SOL     OW17081   4.818   5.080   3.464  0.3604 -0.4034 -0.0185
 5615SOL    HW117082   4.731   5.098   3.502  1.0207 -0.9793  1.9150
 5615SOL    HW217083   4.799   5.035   3.382 -1.1981 -0.6974  0.4594
 5616SOL     OW17084   4.047   5.413   4.304 -0.6504 -0.3247  0.0132
 5616SOL    HW117085   4.064   5.367   4.222  1.0510  0.0510  0.1054
 5616SOL    HW217086   4.131   5.410   4.351 -0.8940  1.5592  0.6642
 5617SOL     OW17087   3.945   2.980   5.076 -0.0894  0.0083  0.0308
 5617SOL    HW117088   3.908   3.057   5.120 -1.2381  0.4301 -1.5678
 5617SOL    HW217089   3.876   2.951   5.016  0.7055 -1.6766 -0.1335
 5618SOL     OW17090   1.740   4.993   5.962  0.1680 -0.3431  0.6972
 5618SOL    HW117091   1.670   4.926   5.962  0.1517 -0.3288  0.5243
 5618SOL    HW217092   1.693   5.076   5.960  0.1877 -0.3373  0.3013
 5619SOL     OW17093   1.695   5.172   1.687 -0.4376 -0.3454  0.5453
 5619SOL    HW117094   1.695   5.149   1.780 -1.4247 -0.2087  0.5853
 5619SOL    HW217095   1.784   5.205   1.671 -0.2141 -0.5022  1.3995
 5620SOL     OW17096   2.420   1.301   2.636  0.5890  0.1626  0.1884
 5620SOL    HW117097   2.440   1.386   2.676  0.6197  0.6018 -0.7306
 5620SOL    HW217098   2.373   1.323   2.556 -1.8309 -0.7754  1.2472
 5621SOL     OW17099   3.900   3.337   2.872  0.0593 -0.2335  0.1084
 5621SOL    HW117100   3.914   3.427   2.903  0.9412  0.2262 -1.5162
 5621SOL    HW217101   3.817   3.341   2.825  0.1989 -0.2189 -0.1376
 5622SOL     OW17102   0.693   5.848   1.145 -0.1711 -0.3974  0.2456
 5622SOL    HW117103   0.702   5.763   1.101  1.2247 -0.0049 -0.2865
 5622SOL    HW217104   0.710   5.912   1.077 -0.2746  0.2869  0.8514
 5623SOL     OW17105   2.482   3.836   5.932 -0.2445 -0.5083 -0.5652
 5623SOL    HW117106   2.395   3.812   5.901 -0.5889  0.1217 -0.1315
 5623SOL    HW217107   2.535   3.845   5.853 -0.6338 -0.6720 -0.8469
 5624SOL     OW17108   3.329   1.030   2.620  0.8433 -0.3372  0.3332
 5624SOL    HW117109   3.323   1.084   2.699  2.5758  1.1293 -0.4573
 5624SOL    HW217110   3.270   1.073   2.558 -1.4807 -2.1964  1.1175
 5625SOL     OW17111   3.724   2.086   4.227 -0.1460 -0.3580  0.5194
 5625SOL    HW117112   3.723   2.076   4.322  0.2510 -0.4874  0.5158
 5625SOL    HW217113   3.645   2.134   4.206  0.9708  1.8748  1.1546
 5626SOL     OW17114   5.715   4.089   5.742 -0.3205 -0.3311  0.3338
 5626SOL    HW117115   5.730   4.132   5.657  1.1119  0.0084  0.7256
 5626SOL    HW217116   5.621   4.073   5.744 -0.4088 -0.2672 -1.2853
 5627SOL     OW17117   1.521   5.578   2.916 -0.2783 -0.2145 -0.2352
 5627SOL    HW117118   1.588   5.569   2.984  0.4978 -0.0558 -0.9519
 5627SOL    HW217119   1.559   5.533   2.840 -0.6786  0.4883 -0.8634
 5628SOL     OW17120   3.370   0.496   5.738  0.6718  0.3773  0.6593
 5628SOL    HW117121   3.400   0.505   5.828 -0.5009  0.1993  1.0802
 5628SOL    HW217122   3.387   0.582   5.698  0.0490  0.8583  1.4063
 5629SOL     OW17123   4.837   4.031   2.852  0.0736 -0.1579  0.0687
 5629SOL    HW117124   4.838   3.947   2.807  0.0654  1.1405 -2.5055
 5629SOL    HW217125   4.822   4.095   2.783 -0.0310  1.9710  1.9662
 5630SOL     OW17126   0.518   5.007   4.427  0.2560  0.0054  0.8679
 5630SOL    HW117127   0.587   5.058   4.383  1.2177 -1.4339  0.6389
 5630SOL    HW217128   0.563   4.965   4.501 -0.7382  0.2564  1.6279
 5631SOL     OW17129   0.323   0.371   5.821 -0.1025 -0.5418 -0.1948
 5631SOL    HW117130   0.419   0.373   5.829 -0.2258 -0.0158  1.6347
 5631SOL    HW217131   0.293   0.434   5.887 -1.7462 -1.5253  0.0463
 5632SOL     OW17132   1.041   2.070   1.498 -0.1494  0.6988 -0.1896
 5632SOL    HW117133   1.080   2.107   1.577 -1.4976 -0.0116  0.8519
 5632SOL    HW217134   0.960   2.030   1.528 -0.3384 -0.2312 -1.8330
 5633SOL     OW17135   1.868   3.283   4.174 -0.1478  0.3256 -0.0779
 5633SOL    HW117136   1.928   3.349   4.208  0.6999 -0.1162 -0.6886
 5633SOL    HW217137   1.891   3.275   4.081 -0.9756 -0.0470 -0.2639
 5634SOL     OW17138   5.653   4.474   2.423  0.7672  0.1998  0.6618
 5634SOL    HW117139   5.681   4.550   2.372 -0.7840  0.0688 -0.4419
 5634SOL    HW217140   5.673   4.399   2.367  0.3009 -0.0468  0.8222
 5635SOL     OW17141   4.612   1.396   6.113  0.3137 -0.0991  0.1265
 5635SOL    HW117142   4.561   1.463   6.069  2.0320  0.7969 -0.5953
 5635SOL    HW217143   4.610   1.321   6.053 -0.4788 -0.2276  0.3047
 5636SOL     OW17144   1.443   2.739   5.166 -0.3088 -0.4609  0.0600
 5636SOL    HW117145   1.489   2.822   5.183 -0.5228 -0.0384 -1.3124
 5636SOL    HW217146   1.513   2.678   5.143 -0.0446 -0.9651  2.0325
 5637SOL     OW17147   5.704   5.921   5.691  0.0391  0.0537 -0.2312
 5637SOL    HW117148   5.718   5.836   5.650 -2.1222  0.0595 -1.1549
 5637SOL    HW217149   5.762   5.980   5.644  2.4378 -1.0352  1.1870
 5638SOL     OW17150   3.737   2.000   3.340 -0.1827  0.4049 -0.6482
 5638SOL    HW117151   3.778   1.991   3.254 -1.1522  1.8707 -1.3019
 5638SOL    HW217152   3.672   2.068   3.329 -1.1938 -0.2310  0.9560
 5639SOL     OW17153   2.377   5.660   5.632 -0.0628 -0.2536  0.2153
 5639SOL    HW117154   2.324   5.713   5.691  0.1498 -0.9009  0.9933
 5639SOL    HW217155   2.340   5.572   5.639  0.3393 -0.4533 -0.1706
 5640SOL     OW17156   3.599   3.554   6.011  0.1528 -0.0449 -0.9582
 5640SOL    HW117157   3.528   3.507   5.968 -0.9704  0.3707  0.3685
 5640SOL    HW217158   3.559   3.635   6.042  0.5486 -0.8421  1.8977
 5641SOL     OW17159   4.192   3.089   4.810 -0.1108 -0.1430  0.4227
 5641SOL    HW117160   4.108   3.048   4.792  0.7056 -1.7103  0.0021
 5641SOL    HW217161   4.185   3.176   4.771 -1.7219 -0.0210  0.9046
 5642SOL     OW17162   4.835   2.595   0.948 -0.0222 -0.2252 -0.6063
 5642SOL    HW117163   4.796   2.599   0.860  1.1663  0.0551 -1.1456
 5642SOL    HW217164   4.920   2.554   0.934  1.4492  2.4083 -0.0992
 5643SOL     OW17165   0.220   0.003   2.545  0.7683 -0.0835  0.2948
 5643SOL    HW117166   0.310  -0.022   2.526  0.9734 -0.1772  1.3064
 5643SOL    HW217167   0.196  -0.049   2.622 -0.0591  0.1249  0.1875
 5644SOL     OW17168   4.543   1.740   5.264 -0.3128 -0.2738  0.3296
 5644SOL    HW117169   4.621   1.697   5.298  1.9471  2.5685 -0.8647
 5644SOL    HW217170   4.529   1.700   5.178 -0.8343 -1.4633  0.9413
 5645SOL     OW17171   0.716   4.567   5.249 -0.2935 -0.1930  0.2771
 5645SOL    HW117172   0.797   4.525   5.278 -1.1815 -1.2215  1.4379
 5645SOL    HW217173   0.732   4.661   5.259  0.8367 -0.3657  0.2317
 5646SOL     OW17174   2.882   5.350   5.916 -0.1269  0.1583 -0.3865
 5646SOL    HW117175   2.897   5.295   5.840  0.6145  1.3545 -1.1451
 5646SOL    HW217176   2.790   5.338   5.937  0.0290 -1.3919 -0.4827
 5647SOL     OW17177   0.572   2.997   1.202 -0.0696 -0.0441 -0.4614
 5647SOL    HW117178   0.617   3.019   1.120  2.1862  1.1325  1.0158
 5647SOL    HW217179   0.612   2.914   1.230 -0.7901 -0.4108 -0.4797
 5648SOL     OW17180   6.127   1.937   2.993 -0.3569 -0.6185 -0.3673
 5648SOL    HW117181   6.033   1.946   2.983 -0.7716 -0.2335  2.7799
 5648SOL    HW217182   6.140   1.845   3.017 -0.1662 -0.2875  0.8569
 5649SOL     OW17183   3.822   3.620   4.021 -0.0032 -0.6228  0.2169
 5649SOL    HW117184   3.758   3.583   4.081  1.1477 -0.4163  1.6503
 5649SOL    HW217185   3.871   3.545   3.987 -0.0907 -0.6805  0.2206
 5650SOL     OW17186   0.356   1.520   3.589 -0.0023 -0.6342  0.6852
 5650SOL    HW117187   0.447   1.526   3.618 -0.1167  1.0746  0.8130
 5650SOL    HW217188   0.311   1.476   3.661  0.3509  0.4609  1.6017
 5651SOL     OW17189   1.080   4.061   0.152 -0.3108 -0.0629 -0.1712
 5651SOL    HW117190   1.143   3.990   0.138 -0.2013  0.1690 -0.9023
 5651SOL    HW217191   1.117   4.112   0.223  0.7440  0.5149 -1.0972
 5652SOL     OW17192   4.587   1.573   0.720  0.3713 -0.4291  0.2602
 5652SOL    HW117193   4.526   1.523   0.773  0.2237  2.3576  3.0033
 5652SOL    HW217194   4.533   1.609   0.649 -0.2874 -1.0892  0.4101
 5653SOL     OW17195   3.679   4.047   5.692 -0.2426  0.2109  0.8604
 5653SOL    HW117196   3.698   4.140   5.707 -0.1659  0.4303 -0.4314
 5653SOL    HW217197   3.608   4.047   5.628  1.4783 -0.5545 -1.2055
 5654SOL     OW17198   3.303   0.776   3.925  0.2592 -0.0352 -0.1888
 5654SOL    HW117199   3.233   0.711   3.929  0.4478 -0.2727 -0.7538
 5654SOL    HW217200   3.322   0.786   3.832 -0.2329  1.3220 -0.1749
 5655SOL     OW17201   3.377   4.004   3.517 -0.4773  0.5798  0.2137
 5655SOL    HW117202   3.331   4.087   3.510  0.9059  1.5584  1.8213
 5655SOL    HW217203   3.444   4.020   3.583 -0.0039 -1.7565  0.3735
 5656SOL     OW17204   3.634   1.221   3.593  0.1546  0.1352 -0.3352
 5656SOL    HW117205   3.562   1.178   3.639 -0.1372  0.2496 -0.6773
 5656SOL    HW217206   3.614   1.314   3.597  0.9688  0.2819  0.7096
 5657SOL     OW17207   1.566   5.995   6.116 -0.2060  0.0884  0.2668
 5657SOL    HW117208   1.492   6.050   6.090  0.3962  0.8310  0.1012
 5657SOL    HW217209   1.527   5.908   6.130 -1.0316  0.3635 -0.2351
 5658SOL     OW17210   4.602   5.385   1.470 -0.7536  0.4754 -0.5427
 5658SOL    HW117211   4.589   5.474   1.503  0.4247  0.2015  0.7407
 5658SOL    HW217212   4.616   5.396   1.376 -1.2970  1.5663 -0.5129
 5659SOL     OW17213   3.507   4.054   1.531  0.2503 -0.0149 -0.4447
 5659SOL    HW117214   3.449   4.069   1.605  0.7017 -3.3136  0.7373
 5659SOL    HW217215   3.591   4.028   1.570  0.6262 -1.4089 -2.0430
 5660SOL     OW17216   4.873   4.409   0.843 -0.3426  0.2174  0.2904
 5660SOL    HW117217   4.900   4.482   0.788 -0.8130 -0.2981 -0.6375
 5660SOL    HW217218   4.782   4.428   0.866 -0.6504 -0.3406 -0.4217
 5661SOL     OW17219   4.665   1.870   2.646 -0.0379  0.1455 -0.5209
 5661SOL    HW117220   4.709   1.932   2.705 -2.3106 -0.3479  1.8415
 5661SOL    HW217221   4.737   1.827   2.600  1.8735  0.9401  1.5108
 5662SOL     OW17222   0.037   0.029   5.976 -0.6797 -0.2305  0.3861
 5662SOL    HW117223   0.118  -0.016   5.999 -1.0895 -1.2553 -0.1029
 5662SOL    HW217224   0.060   0.122   5.977 -0.1238 -0.3359  2.6525
 5663SOL     OW17225   2.984   4.064   3.172  0.0288  0.0422  0.2022
 5663SOL    HW117226   2.903   4.114   3.169  0.8246  1.6411  2.6122
 5663SOL    HW217227   3.052   4.126   3.146  0.7525 -0.4631  0.8274
 5664SOL     OW17228   0.944   1.510   4.923  0.7064 -0.2128  0.2132
 5664SOL    HW117229   0.935   1.438   4.860 -1.9932  1.9553 -2.1063
 5664SOL    HW217230   0.896   1.480   5.000  1.1085 -1.5429 -0.0167
 5665SOL     OW17231   0.811   3.545   4.652  0.1404 -0.4448 -0.5516
 5665SOL    HW117232   0.894   3.591   4.667  0.7200 -1.2267 -1.2704
 5665SOL    HW217233   0.824   3.460   4.695 -1.2250  0.3198  1.5032
 5666SOL     OW17234   5.609   1.448   5.593 -0.9591  0.2853  0.3733
 5666SOL    HW117235   5.627   1.473   5.502 -0.6625 -0.8702  0.0958
 5666SOL    HW217236   5.577   1.528   5.634  0.4483  1.2646 -0.3243
 5667SOL     OW17237   0.041   4.078   0.748  0.7831  0.3203  0.6606
 5667SOL    HW117238   0.096   4.088   0.671  0.0592 -0.1769  0.0649
 5667SOL    HW217239  -0.037   4.130   0.729  0.8558  0.6843  1.3194
 5668SOL     OW17240   1.244   4.681   3.745  0.1682  0.3195  0.2942
 5668SOL    HW117241   1.293   4.759   3.769  0.8619 -0.3559  1.1413
 5668SOL    HW217242   1.299   4.608   3.775  0.2883 -0.5495 -1.8725
 5669SOL     OW17243   0.125   0.836   5.485 -0.5413 -0.7261 -0.5953
 5669SOL    HW117244   0.061   0.889   5.533 -0.1317 -1.5896  0.9584
 5669SOL    HW217245   0.074   0.793   5.416 -1.3618 -0.3208 -0.2579
 5670SOL     OW17246   3.727   4.681   5.449  0.0247 -0.1698 -0.5649
 5670SOL    HW117247   3.635   4.672   5.424 -0.3223 -0.8568  0.8626
 5670SOL    HW217248   3.775   4.628   5.385 -0.8644 -2.2535  0.4192
 5671SOL     OW17249   4.967   1.074   4.587  0.3636  0.3811  0.3780
 5671SOL    HW117250   4.967   1.002   4.524 -2.6295  1.2585 -0.7689
 5671SOL    HW217251   5.034   1.134   4.554 -0.0568  0.0844 -1.1156
 5672SOL     OW17252   5.449   2.596   5.192  0.1521  1.0806  0.4298
 5672SOL    HW117253   5.492   2.524   5.147 -0.6827  0.7803  0.0881
 5672SOL    HW217254   5.357   2.587   5.170  0.1247  2.7480 -0.3220
 5673SOL     OW17255   0.059   1.168   4.196 -0.1408  0.4109  0.1282
 5673SOL    HW117256   0.021   1.188   4.110  1.3313  1.5200 -0.3092
 5673SOL    HW217257   0.012   1.090   4.225 -1.3118  0.5451 -1.2663
 5674SOL     OW17258   2.888   0.761   3.772  0.2054 -0.1032  0.4345
 5674SOL    HW117259   2.843   0.720   3.697  0.9593  0.9702 -0.6400
 5674SOL    HW217260   2.828   0.829   3.802 -0.4819 -1.1035  1.3968
 5675SOL     OW17261   4.775   2.615   4.783 -0.4597 -0.3210  0.4873
 5675SOL    HW117262   4.777   2.703   4.821 -1.4778  0.3900 -1.0359
 5675SOL    HW217263   4.688   2.608   4.744 -0.3564 -1.9864  0.5162
 5676SOL     OW17264   5.276   6.007   6.121 -0.0458  0.0351  0.2642
 5676SOL    HW117265   5.217   6.013   6.045  0.9403 -0.2704 -0.5516
 5676SOL    HW217266   5.354   6.057   6.095 -0.1608  0.9358  1.5554
 5677SOL     OW17267   4.643   5.694   3.060 -0.2977  0.1322 -0.2652
 5677SOL    HW117268   4.616   5.611   3.021 -1.6376  1.1625 -1.6384
 5677SOL    HW217269   4.733   5.678   3.089 -0.2998 -1.5970 -1.0546
 5678SOL     OW17270   4.319   4.476   0.637 -0.0221  0.2214  0.2649
 5678SOL    HW117271   4.407   4.451   0.608  0.0276  0.8595 -0.1562
 5678SOL    HW217272   4.288   4.537   0.570 -0.9092 -0.2188  0.2542
 5679SOL     OW17273   2.895   0.452   3.451  0.7618 -0.2224 -0.2326
 5679SOL    HW117274   2.878   0.483   3.362  1.0801 -0.5927 -0.4248
 5679SOL    HW217275   2.878   0.358   3.447 -1.1164  0.0579  0.5781
 5680SOL     OW17276   3.144   1.485   0.224 -0.8455 -0.0934  0.0875
 5680SOL    HW117277   3.108   1.396   0.218  0.0213 -0.4981  0.6708
 5680SOL    HW217278   3.067   1.540   0.240 -1.3830 -0.7520 -0.1569
 5681SOL     OW17279   3.149   1.562   4.894  0.0162 -0.3417  0.0036
 5681SOL    HW117280   3.225   1.620   4.883  0.1970  0.0408  2.6654
 5681SOL    HW217281   3.178   1.497   4.958 -1.3728 -1.2020 -0.2142
 5682SOL     OW17282   2.935   5.716   2.537 -0.2825  0.2986  0.2205
 5682SOL    HW117283   2.907   5.763   2.615 -1.5611  2.0835 -1.2399
 5682SOL    HW217284   3.024   5.748   2.520  0.5921 -1.1735  1.6757
 5683SOL     OW17285   1.584   5.496   1.864  0.1371  0.0099  0.7264
 5683SOL    HW117286   1.671   5.459   1.877 -0.0333  0.1498  2.4455
 5683SOL    HW217287   1.597   5.566   1.800  0.8599 -1.4499 -0.8045
 5684SOL     OW17288   5.254   2.303   2.262  0.4069  0.5093  0.2102
 5684SOL    HW117289   5.314   2.243   2.218  0.2413  1.1970 -0.9905
 5684SOL    HW217290   5.296   2.388   2.255  0.8418  0.5148  2.2694
 5685SOL     OW17291   4.117   1.126   4.597 -0.5251 -0.0420  0.5695
 5685SOL    HW117292   4.034   1.105   4.639 -0.7142  0.0404  0.2394
 5685SOL    HW217293   4.171   1.047   4.609 -0.6786 -0.1258  0.7086
 5686SOL     OW17294   4.018   0.833   4.816 -0.5088  0.2579 -0.2163
 5686SOL    HW117295   3.988   0.901   4.756  1.0353  1.1373 -0.0358
 5686SOL    HW217296   4.090   0.874   4.865  0.8460 -1.6769 -0.4912
 5687SOL     OW17297   5.752   0.390   5.324  0.7220 -0.2276 -0.2739
 5687SOL    HW117298   5.714   0.475   5.347  0.4414  0.2193 -2.2320
 5687SOL    HW217299   5.842   0.394   5.357  0.1839  0.0991  1.2303
 5688SOL     OW17300   0.568   1.234   1.913  0.0619 -0.4172  0.1787
 5688SOL    HW117301   0.604   1.177   1.844  1.0651  0.7344 -0.2831
 5688SOL    HW217302   0.512   1.296   1.866  1.2222  0.7517  0.2845
 5689SOL     OW17303   5.610   0.555   3.248 -0.0980 -0.3239 -0.3414
 5689SOL    HW117304   5.681   0.549   3.183  0.2804  1.0597 -0.0902
 5689SOL    HW217305   5.601   0.466   3.282  0.6344 -0.7877 -1.3024
 5690SOL     OW17306   2.184   3.353   5.094  0.3597 -0.0355  0.1833
 5690SOL    HW117307   2.205   3.306   5.175  0.1510  2.3713  1.7357
 5690SOL    HW217308   2.224   3.440   5.106 -0.9340  0.8768 -1.6732
 5691SOL     OW17309   2.557   2.300   0.241 -0.7190  0.0340 -0.4242
 5691SOL    HW117310   2.645   2.273   0.215 -0.6047  1.5232 -1.7199
 5691SOL    HW217311   2.532   2.238   0.309  1.0752 -0.8089 -0.4820
 5692SOL     OW17312   1.432   0.169   4.390 -0.2744 -0.2283 -0.4531
 5692SOL    HW117313   1.433   0.123   4.306 -1.4238  0.2787 -0.7608
 5692SOL    HW217314   1.345   0.210   4.394  0.1966  0.7281  0.4497
 5693SOL     OW17315   1.483   2.042   4.871 -0.3143  0.2454  0.1927
 5693SOL    HW117316   1.474   2.025   4.777 -0.3602 -1.1847  0.4225
 5693SOL    HW217317   1.393   2.052   4.903 -0.3873 -0.6339  0.2917
 5694SOL     OW17318   5.073   2.064   0.127 -0.1534  0.4126 -0.0967
 5694SOL    HW117319   5.153   2.115   0.137 -0.2584  0.3579  1.4007
 5694SOL    HW217320   5.007   2.116   0.174 -0.7229 -0.0909 -0.3377
 5695SOL     OW17321   3.541   4.732   3.359 -0.0232 -0.0776 -0.6882
 5695SOL    HW117322   3.504   4.818   3.343  0.3507 -0.3120 -3.3016
 5695SOL    HW217323   3.533   4.686   3.275  0.8418 -2.1760  0.2898
 5696SOL     OW17324   2.965   3.445   4.196  0.1496 -0.2540  0.1803
 5696SOL    HW117325   2.919   3.460   4.114 -0.6427 -0.0808  0.6422
 5696SOL    HW217326   2.898   3.411   4.255  0.5366  0.3115  0.9643
 5697SOL     OW17327   4.487   4.614   2.171  0.1369  0.0043  0.3500
 5697SOL    HW117328   4.520   4.527   2.150 -1.4336 -0.6653  0.5104
 5697SOL    HW217329   4.566   4.668   2.181  1.0767 -0.6380 -2.7637
 5698SOL     OW17330   5.222   3.694   4.374  0.6921 -0.0747 -0.5376
 5698SOL    HW117331   5.297   3.643   4.406  1.3978  1.5075  0.4746
 5698SOL    HW217332   5.258   3.749   4.305  0.4528  0.5937 -0.1402
 5699SOL     OW17333   2.172   3.668   0.283  0.3803  0.9279 -0.3265
 5699SOL    HW117334   2.247   3.667   0.341 -0.4482  2.2937  0.8405
 5699SOL    HW217335   2.209   3.672   0.195  1.6596 -1.5358  0.0283
 5700SOL     OW17336   0.588   1.255   3.538  0.5188 -0.1630  0.4967
 5700SOL    HW117337   0.670   1.302   3.522 -1.3552  3.4703  0.6170
 5700SOL    HW217338   0.576   1.258   3.632 -0.2559  0.2623  0.3887
 5701SOL     OW17339   5.088   1.117   4.244 -0.1245  0.0423  0.5819
 5701SOL    HW117340   5.086   1.027   4.276  1.3839  0.1584  1.1172
 5701SOL    HW217341   5.151   1.115   4.172  0.7069  0.8291  1.2506
 5702SOL     OW17342   0.099   5.272   5.915 -0.1467  0.1718  0.6784
 5702SOL    HW117343   0.068   5.182   5.921  0.8112 -0.5397 -2.8626
 5702SOL    HW217344   0.195   5.264   5.913 -0.0710  1.1333 -0.5695
 5703SOL     OW17345   4.097   4.835   0.637  0.0015 -0.9078 -0.5824
 5703SOL    HW117346   4.061   4.862   0.552 -2.0962 -1.9320 -0.0790
 5703SOL    HW217347   4.095   4.914   0.690 -1.9896 -1.0141 -0.4498
 5704SOL     OW17348   2.128   4.434   6.110 -0.4141  0.1679  0.0162
 5704SOL    HW117349   2.050   4.463   6.062 -0.7643 -0.2309  0.3357
 5704SOL    HW217350   2.181   4.389   6.045 -0.6492  0.0688 -0.1078
 5705SOL     OW17351   2.981   5.619   1.327  0.1701  0.5409  0.1086
 5705SOL    HW117352   3.040   5.693   1.340 -1.4650  1.7692  0.9580
 5705SOL    HW217353   3.038   5.546   1.306  1.9568  1.7279  0.6332
 5706SOL     OW17354   5.631   1.566   5.037 -0.0219  0.0909 -0.1422
 5706SOL    HW117355   5.622   1.489   4.980  0.0423  0.3873 -0.5532
 5706SOL    HW217356   5.638   1.640   4.977 -2.3506  0.7139  0.2414
 5707SOL     OW17357   3.163   3.267   4.252  0.5037  0.1272 -0.1891
 5707SOL    HW117358   3.125   3.339   4.202  0.8725 -0.6990 -1.7147
 5707SOL    HW217359   3.104   3.256   4.327 -1.0874  0.2507 -1.3776
 5708SOL     OW17360   3.227   1.833   4.854  0.2339  0.2186 -0.0851
 5708SOL    HW117361   3.313   1.807   4.820  1.1646  1.4424  1.1810
 5708SOL    HW217362   3.232   1.929   4.859 -1.0695  0.2726  0.3714
 5709SOL     OW17363   3.801   1.994   3.903 -0.3540  0.0696 -0.1204
 5709SOL    HW117364   3.882   1.948   3.927 -1.0216 -1.4231 -0.5792
 5709SOL    HW217365   3.829   2.064   3.844  0.6668  0.0124  0.2803
 5710SOL     OW17366   1.172   0.782   1.020  0.3056 -0.0942  0.6132
 5710SOL    HW117367   1.232   0.813   0.952  1.8950 -1.7555  1.1580
 5710SOL    HW217368   1.133   0.703   0.983 -0.0530 -0.1039  1.0097
 5711SOL     OW17369   1.458   2.388   5.185  0.2216  0.3612  0.3306
 5711SOL    HW117370   1.498   2.301   5.180 -0.4886  0.0048  0.6594
 5711SOL    HW217371   1.492   2.426   5.265  0.4830  0.3581  0.2212
 5712SOL     OW17372   4.723   4.257   3.990  0.3707 -0.6434 -0.2723
 5712SOL    HW117373   4.654   4.218   3.936  0.7285 -0.1540 -1.1144
 5712SOL    HW217374   4.804   4.218   3.957  0.8815  1.6814 -2.0337
 5713SOL     OW17375   1.845   2.610   0.005  0.2008 -0.1027 -0.2169
 5713SOL    HW117376   1.877   2.700   0.002  0.8076 -0.3334 -1.2935
 5713SOL    HW217377   1.858   2.582   0.096  0.6895  0.6511 -0.0513
 5714SOL     OW17378   0.591   4.735   2.183  0.0043  0.0019  0.0371
 5714SOL    HW117379   0.620   4.645   2.200  0.5325  0.1062 -0.2625
 5714SOL    HW217380   0.587   4.741   2.087 -1.0396 -0.0073  0.0769
 5715SOL     OW17381   0.041   3.733   0.741  0.3077  0.1933  0.2756
 5715SOL    HW117382   0.001   3.781   0.668  0.3334  0.3756  0.3802
 5715SOL    HW217383  -0.029   3.726   0.806  0.5454  0.8444  0.6170
 5716SOL     OW17384   2.576   0.925   0.633  0.1479  0.3000  0.4080
 5716SOL    HW117385   2.500   0.975   0.664 -0.1687  0.6338 -0.8394
 5716SOL    HW217386   2.546   0.834   0.634  0.0876  0.3258  0.9270
 5717SOL     OW17387   4.788   2.880   1.002  0.2173 -0.1570  0.4513
 5717SOL    HW117388   4.793   2.787   0.979 -2.4119 -0.3676  0.4152
 5717SOL    HW217389   4.847   2.923   0.940  0.3607 -1.6598 -0.5033
 5718SOL     OW17390   2.199   5.781   4.615 -0.0538 -0.4504 -0.2418
 5718SOL    HW117391   2.201   5.687   4.595 -0.3432 -0.1744 -1.6197
 5718SOL    HW217392   2.285   5.813   4.587 -0.4448 -0.0699 -1.0368
 5719SOL     OW17393   1.890   0.607   2.503 -0.0375 -0.4190 -0.0169
 5719SOL    HW117394   1.843   0.549   2.562 -0.9603 -2.7198 -2.8124
 5719SOL    HW217395   1.902   0.688   2.554  1.3337 -2.8788  4.1260
 5720SOL     OW17396   1.223   1.394   2.409  0.5991  0.2417  0.5105
 5720SOL    HW117397   1.291   1.330   2.428 -0.0224 -0.5456  0.1132
 5720SOL    HW217398   1.270   1.469   2.373  1.0879 -1.2730 -2.2769
 5721SOL     OW17399   3.793   1.615   3.312  0.2931 -0.2142 -0.2328
 5721SOL    HW117400   3.812   1.637   3.403 -1.2004 -1.1509  0.3470
 5721SOL    HW217401   3.705   1.578   3.314 -0.2821  0.8614 -2.2395
 5722SOL     OW17402   4.676   3.274   2.559  0.0721 -0.2531 -0.5360
 5722SOL    HW117403   4.729   3.285   2.480 -0.8657 -1.7436 -1.4382
 5722SOL    HW217404   4.603   3.218   2.531 -0.9138  0.1289  1.1239
 5723SOL     OW17405   1.449   1.825   1.860 -0.1675 -0.2233  0.1581
 5723SOL    HW117406   1.480   1.868   1.939 -0.0658 -1.3170  0.7236
 5723SOL    HW217407   1.476   1.884   1.789 -0.6883  1.0118  0.9433
 5724SOL     OW17408   0.462   2.995   1.606  0.0259 -0.0736 -0.2865
 5724SOL    HW117409   0.397   3.051   1.563 -0.7883 -0.1648  0.7820
 5724SOL    HW217410   0.458   2.913   1.557  1.7174  0.9453 -2.3118
 5725SOL     OW17411   4.787   6.081   2.374 -0.1583 -0.0933 -0.1425
 5725SOL    HW117412   4.756   6.147   2.312  0.8668 -0.6590 -1.3171
 5725SOL    HW217413   4.818   6.010   2.319  0.1790 -0.9029  1.0589
 5726SOL     OW17414   4.505   2.966   2.733  0.4176 -0.4997 -0.0912
 5726SOL    HW117415   4.520   2.979   2.639 -1.1993 -1.6765 -0.5690
 5726SOL    HW217416   4.411   2.945   2.739  0.0782  1.2564  1.9880
 5727SOL     OW17417   0.101   3.229   3.028 -0.0842 -0.3214 -0.4970
 5727SOL    HW117418   0.137   3.303   2.979  1.8733 -2.3747 -2.4241
 5727SOL    HW217419   0.087   3.162   2.962 -1.2328 -1.8971  1.2559
 5728SOL     OW17420   3.023   5.559   5.567  0.1641 -0.9897  0.0895
 5728SOL    HW117421   2.940   5.527   5.532 -0.5685 -1.8918  2.4411
 5728SOL    HW217422   3.072   5.480   5.590  0.3466 -0.4848  1.5575
 5729SOL     OW17423   4.869   4.512   3.759  0.4061 -0.2793 -0.3214
 5729SOL    HW117424   4.876   4.553   3.845 -0.5573 -2.7820  1.0541
 5729SOL    HW217425   4.799   4.561   3.715  0.3450  0.5187  0.6266
 5730SOL     OW17426   1.197   5.153   1.707  0.0188 -0.6179  0.2271
 5730SOL    HW117427   1.146   5.223   1.666  0.1846 -0.3805  0.4261
 5730SOL    HW217428   1.282   5.157   1.664  0.4210  0.0733  1.0553
 5731SOL     OW17429   5.128   4.089   4.378 -0.3617 -0.0611  0.2291
 5731SOL    HW117430   5.099   4.180   4.371 -0.2246  0.0185  0.6605
 5731SOL    HW217431   5.133   4.073   4.473 -0.1892 -0.4531  0.1548
 5732SOL     OW17432   5.694   5.453   5.137 -0.1321  0.1666  0.0810
 5732SOL    HW117433   5.699   5.361   5.113 -0.6832  0.1936 -0.1728
 5732SOL    HW217434   5.777   5.490   5.109 -0.2458 -0.0804 -0.5964
 5733SOL     OW17435   0.807   4.973   3.018  0.4596  0.4376 -0.0381
 5733SOL    HW117436   0.879   4.945   2.963 -0.5419 -0.3991 -0.9783
 5733SOL    HW217437   0.807   5.068   3.012  0.6050  0.3764 -1.2056
 5734SOL     OW17438   1.381   2.831   4.822  0.0730 -0.0423 -0.2804
 5734SOL    HW117439   1.406   2.800   4.909  0.3565 -1.0887 -0.7212
 5734SOL    HW217440   1.461   2.825   4.770  0.2582  1.8680 -0.2972
 5735SOL     OW17441   0.688   4.437   4.990  0.5864  0.3753  0.2303
 5735SOL    HW117442   0.782   4.435   5.008  0.8493  0.5940 -1.0267
 5735SOL    HW217443   0.680   4.407   4.899 -0.5490  0.4463  0.2912
 5736SOL     OW17444   0.188   1.575   1.374  0.3143 -0.2073  0.7450
 5736SOL    HW117445   0.180   1.540   1.285 -0.1257  0.2136  0.6169
 5736SOL    HW217446   0.267   1.628   1.371  1.2369 -1.5092  1.0560
 5737SOL     OW17447   2.336   0.133   5.033 -0.4482 -0.0990  0.4745
 5737SOL    HW117448   2.382   0.073   5.091 -1.4642 -0.6076  0.7752
 5737SOL    HW217449   2.307   0.204   5.090  0.0878  0.2970  0.2590
 5738SOL     OW17450   3.569   3.738   4.240  0.4153 -0.0763  0.3765
 5738SOL    HW117451   3.484   3.774   4.264  0.2255 -0.7554  0.7609
 5738SOL    HW217452   3.624   3.814   4.221  0.1317  0.4279  1.5134
 5739SOL     OW17453   4.514   4.860   3.397  0.4522  0.0381 -0.5281
 5739SOL    HW117454   4.422   4.876   3.422  1.2430  0.5721  2.5334
 5739SOL    HW217455   4.513   4.773   3.357 -1.3936 -0.0039 -0.4954
 5740SOL     OW17456   5.818   3.854   2.741  0.1396 -0.0228 -0.1559
 5740SOL    HW117457   5.817   3.760   2.757 -0.7507 -0.3365 -1.8132
 5740SOL    HW217458   5.811   3.863   2.646  1.0409  1.7168 -0.1027
 5741SOL     OW17459   6.124   0.939   2.114  0.0386 -0.1686  0.2411
 5741SOL    HW117460   6.212   0.911   2.091  0.2148  0.6218 -0.0887
 5741SOL    HW217461   6.137   0.998   2.189 -0.2947 -0.7441  0.7609
 5742SOL     OW17462   0.002   1.399   5.421 -0.4324 -0.3465  0.1376
 5742SOL    HW117463  -0.024   1.306   5.415  0.8889 -0.6754 -1.0695
 5742SOL    HW217464   0.068   1.401   5.490  0.9535 -0.6968 -1.1214
 5743SOL     OW17465   5.249   5.486   1.289  0.0513  0.3098  0.0687
 5743SOL    HW117466   5.269   5.430   1.364 -1.2826  0.6087  0.6615
 5743SOL    HW217467   5.172   5.445   1.249 -0.9326  1.6761  0.4941
 5744SOL     OW17468   2.992   2.652   4.846 -0.4851 -0.0477  0.4982
 5744SOL    HW117469   2.907   2.696   4.854 -1.1469 -1.2656  0.2812
 5744SOL    HW217470   3.004   2.639   4.752 -0.7977 -1.2784  0.6190
 5745SOL     OW17471   5.378   4.853   0.162  0.3810  0.9106 -0.1173
 5745SOL    HW117472   5.403   4.934   0.119 -2.3605  0.9898 -1.8338
 5745SOL    HW217473   5.398   4.867   0.254  2.0240  2.6263 -0.6657
 5746SOL     OW17474   3.677   2.522   3.344 -0.0129  0.0685  0.1774
 5746SOL    HW117475   3.748   2.584   3.326  0.1609 -0.3856 -0.7433
 5746SOL    HW217476   3.680   2.509   3.439  0.5844  0.7057  0.2524
 5747SOL     OW17477   0.248   0.977   5.034  0.1876 -0.2564  0.5264
 5747SOL    HW117478   0.170   0.931   5.002  1.1569 -0.3480 -1.9409
 5747SOL    HW217479   0.213   1.049   5.087 -1.5437 -0.7629  0.1444
 5748SOL     OW17480   4.607   3.726   3.300  0.1369  0.5854 -0.1686
 5748SOL    HW117481   4.632   3.706   3.390 -0.2928  0.2887 -0.1116
 5748SOL    HW217482   4.560   3.809   3.306  0.3092  0.6838 -0.1550
 5749SOL     OW17483   2.042   1.434   1.479 -0.7018  0.2541 -0.3758
 5749SOL    HW117484   2.059   1.368   1.412  0.3608  1.8267 -1.7528
 5749SOL    HW217485   1.975   1.491   1.440 -1.5376  0.0708  0.7411
 5750SOL     OW17486   2.330   1.970   0.096  0.5542 -0.0693  0.2968
 5750SOL    HW117487   2.300   2.056   0.124  0.5600  0.4476 -1.1988
 5750SOL    HW217488   2.420   1.985   0.067  0.3736 -0.4696 -0.4808
 5751SOL     OW17489   1.521   2.328   1.631 -0.1885  0.3225  0.5097
 5751SOL    HW117490   1.468   2.298   1.705 -0.5689 -0.4789 -0.0804
 5751SOL    HW217491   1.610   2.334   1.666 -0.6503  1.8074  1.5530
 5752SOL     OW17492   6.084   5.681   5.740  0.1051  0.0372  0.6161
 5752SOL    HW117493   6.096   5.593   5.777 -1.0336 -0.0753  0.7451
 5752SOL    HW217494   6.024   5.669   5.667  1.7457  0.3849 -0.8529
 5753SOL     OW17495   1.662   2.190   0.704  0.5263  0.4176 -0.0994
 5753SOL    HW117496   1.689   2.099   0.716  1.2723  0.8023  1.3878
 5753SOL    HW217497   1.573   2.193   0.740  1.3082  0.7102  1.9283
 5754SOL     OW17498   2.054   3.620   0.725  0.1066  0.5665 -0.2184
 5754SOL    HW117499   2.044   3.548   0.788 -0.4121 -0.0005 -0.9256
 5754SOL    HW217500   1.981   3.608   0.664  0.0422  1.6794 -0.3683
 5755SOL     OW17501   0.370   2.673   2.562  0.0877  0.5913 -0.1097
 5755SOL    HW117502   0.361   2.583   2.594 -0.1126  0.6668  0.0416
 5755SOL    HW217503   0.413   2.663   2.477  1.0194  0.4158  0.3675
 5756SOL     OW17504   0.860   0.480   4.854 -0.5168 -0.2072  0.5319
 5756SOL    HW117505   0.945   0.456   4.890 -0.4520  0.2612  0.7035
 5756SOL    HW217506   0.870   0.572   4.828 -0.6332 -0.4604 -0.4563
 5757SOL     OW17507   3.087   2.650   4.231  0.2937 -0.2378  0.2854
 5757SOL    HW117508   3.102   2.736   4.191  1.2263  0.1055  1.3145
 5757SOL    HW217509   3.147   2.648   4.306 -1.4313 -0.8243  1.6997
 5758SOL     OW17510   1.895   5.328   0.888  0.1652  0.1112  0.3210
 5758SOL    HW117511   1.868   5.384   0.815 -0.6074 -2.2708 -1.3126
 5758SOL    HW217512   1.974   5.370   0.922  0.5618  1.2834 -1.8820
 5759SOL     OW17513   0.903   2.614   0.824 -0.3024  0.3302  0.2468
 5759SOL    HW117514   0.967   2.548   0.851  0.2293  1.3557  1.6053
 5759SOL    HW217515   0.949   2.697   0.834 -1.5679  1.0307  0.3746
 5760SOL     OW17516   0.234   2.625   0.586  0.0044  0.1792 -0.4220
 5760SOL    HW117517   0.280   2.667   0.513 -0.7810  0.1948 -0.9197
 5760SOL    HW217518   0.280   2.541   0.597  0.5707  0.4792 -0.4697
 5761SOL     OW17519   6.042   5.134   2.878  0.3930  0.3758 -0.0055
 5761SOL    HW117520   6.096   5.104   2.951  0.1248  0.3019  0.1631
 5761SOL    HW217521   6.025   5.226   2.898 -1.6947 -0.2135  1.2988
 5762SOL     OW17522   2.581   4.399   0.958  0.1388  1.0586  0.2070
 5762SOL    HW117523   2.506   4.402   1.017 -0.3946 -0.8791 -0.3055
 5762SOL    HW217524   2.633   4.325   0.989  1.8876  2.3817  0.5702
 5763SOL     OW17525   0.239   6.111   1.466 -0.0637 -0.6340  0.0392
 5763SOL    HW117526   0.290   6.136   1.543 -0.0048 -1.6762  0.3569
 5763SOL    HW217527   0.247   6.186   1.407  0.6293 -0.1841  0.6747
 5764SOL     OW17528   5.546   4.822   4.737  0.2793 -0.6382  0.3415
 5764SOL    HW117529   5.466   4.839   4.688 -0.1456  0.9892  1.5319
 5764SOL    HW217530   5.616   4.857   4.681  0.0128 -0.7108 -0.0383
 5765SOL     OW17531   3.587   2.138   3.006  0.1366  0.0027  0.2866
 5765SOL    HW117532   3.629   2.207   2.955 -0.2510 -1.1981 -1.7639
 5765SOL    HW217533   3.658   2.080   3.032  0.2686  0.3351  0.6794
 5766SOL     OW17534   0.074   1.137   1.448 -0.0406 -0.1619 -0.6064
 5766SOL    HW117535   0.013   1.161   1.518  1.2841 -0.1165  0.5812
 5766SOL    HW217536   0.146   1.094   1.493  1.5638  1.1882 -1.7564
 5767SOL     OW17537   2.637   0.046   1.843 -0.3129  0.1373  0.6795
 5767SOL    HW117538   2.718   0.076   1.801 -0.5936  1.8055  1.2565
 5767SOL    HW217539   2.646  -0.049   1.847  1.5640  0.2784  0.6397
 5768SOL     OW17540   1.403   2.515   2.201  0.4485 -0.0241 -0.3994
 5768SOL    HW117541   1.497   2.498   2.207  0.6193  0.9369 -0.2118
 5768SOL    HW217542   1.394   2.575   2.127 -0.0878 -0.5087 -0.7460
 5769SOL     OW17543   3.803   5.614   1.410 -0.0837  0.1815 -0.1253
 5769SOL    HW117544   3.863   5.663   1.355  0.6086  0.4808  0.8626
 5769SOL    HW217545   3.737   5.580   1.350  1.0604 -0.1458 -1.2461
 5770SOL     OW17546   6.080   0.748   3.889 -0.4779 -0.1387  0.1045
 5770SOL    HW117547   6.055   0.736   3.797 -0.4164 -1.7071  0.2695
 5770SOL    HW217548   6.004   0.719   3.939 -0.0551 -0.4635  0.5653
 5771SOL     OW17549   1.487   4.578   0.025  0.1547 -0.2357 -0.2960
 5771SOL    HW117550   1.504   4.553   0.116  0.7799  2.4165  0.3871
 5771SOL    HW217551   1.414   4.522  -0.002 -1.1460  0.0246  2.3975
 5772SOL     OW17552   2.183   3.599   1.858 -0.7400 -0.0921 -0.3793
 5772SOL    HW117553   2.096   3.613   1.895 -1.0942 -0.7995 -0.9190
 5772SOL    HW217554   2.167   3.571   1.768  0.0591  0.1032 -0.5943
 5773SOL     OW17555   5.775   5.721   3.659 -0.5814 -0.4022 -0.1486
 5773SOL    HW117556   5.840   5.696   3.594 -0.4003  0.2489 -0.2209
 5773SOL    HW217557   5.712   5.775   3.611 -1.0663 -0.8636 -0.0364
 5774SOL     OW17558   2.094   4.555   3.914  0.5140  0.3393  0.5446
 5774SOL    HW117559   2.023   4.605   3.955  0.4517  1.1314 -0.4745
 5774SOL    HW217560   2.136   4.617   3.855  0.3137 -0.8512 -0.9228
 5775SOL     OW17561   1.231   5.951   4.122  0.2080 -0.1156  0.4071
 5775SOL    HW117562   1.205   5.861   4.144  1.0551 -0.1140  1.4851
 5775SOL    HW217563   1.311   5.966   4.172  1.3155  0.4968 -1.4560
 5776SOL     OW17564   5.755   3.670   5.983  0.0638  0.2661  0.6145
 5776SOL    HW117565   5.840   3.714   5.987  0.2532  0.5295 -3.1430
 5776SOL    HW217566   5.691   3.739   5.998  0.4738  0.9271 -0.5416
 5777SOL     OW17567   3.544   0.905   2.583  0.2292  0.3897 -0.0936
 5777SOL    HW117568   3.567   0.927   2.493 -0.8000 -0.0848 -0.4935
 5777SOL    HW217569   3.476   0.968   2.607  0.6702  0.6708  0.4460
 5778SOL     OW17570   2.920   1.202   2.359 -0.1060  0.4357 -0.3429
 5778SOL    HW117571   2.886   1.291   2.352 -0.0172  0.5563  0.6108
 5778SOL    HW217572   2.857   1.148   2.312  0.8754  1.2186 -2.7224
 5779SOL     OW17573   4.872   1.796   5.220  0.3073 -0.5512  0.2163
 5779SOL    HW117574   4.848   1.735   5.289  1.4551 -1.5838 -0.2577
 5779SOL    HW217575   4.957   1.765   5.189  1.4185  1.8647  0.6299
 5780SOL     OW17576   0.669   3.367   2.895 -0.0127  0.0693 -0.2034
 5780SOL    HW117577   0.629   3.431   2.836  0.4805 -0.3424 -0.9979
 5780SOL    HW217578   0.755   3.404   2.915  0.9321 -1.0691 -1.9489
 5781SOL     OW17579   4.172   1.032   0.583 -0.2198 -0.4273 -0.0116
 5781SOL    HW117580   4.208   0.948   0.557 -0.1110 -1.0400  1.9250
 5781SOL    HW217581   4.245   1.094   0.571  0.1903 -0.9061 -0.0179
 5782SOL     OW17582   1.967   3.765   1.057  0.0746  0.3282  1.2801
 5782SOL    HW117583   2.000   3.841   1.009 -1.2701  1.6543  2.3348
 5782SOL    HW217584   1.916   3.716   0.992  2.5590 -0.8512  0.0688
 5783SOL     OW17585   3.530   5.160   5.699 -0.6290 -0.0888 -0.0534
 5783SOL    HW117586   3.497   5.081   5.656  0.6304 -0.1385 -0.9824
 5783SOL    HW217587   3.552   5.219   5.627  2.7659 -0.6557  0.3388
 5784SOL     OW17588   5.092   2.912   2.123  0.1137 -0.4688  0.4925
 5784SOL    HW117589   5.135   2.831   2.096  1.5556  0.8554 -1.4500
 5784SOL    HW217590   5.098   2.912   2.218  1.8233 -1.7290  0.4281
 5785SOL     OW17591   3.755   2.146   2.383 -0.7653  0.4323 -0.3358
 5785SOL    HW117592   3.788   2.152   2.472  0.4096  2.6221 -0.8526
 5785SOL    HW217593   3.772   2.056   2.357  0.6748  0.2809  0.9940
 5786SOL     OW17594   0.589   1.639   0.870 -0.2856 -0.0487 -0.0865
 5786SOL    HW117595   0.644   1.561   0.861  1.3304  0.6718  2.4357
 5786SOL    HW217596   0.635   1.706   0.820 -0.8927 -0.3175 -1.0326
 5787SOL     OW17597   1.885   1.363   2.177 -0.5503  0.6197  0.5093
 5787SOL    HW117598   1.873   1.302   2.250 -1.3756 -0.3968 -0.4387
 5787SOL    HW217599   1.887   1.308   2.100 -0.5540  1.7454 -0.3202
 5788SOL     OW17600   5.566   2.689   3.743  0.7930 -0.1686 -0.1183
 5788SOL    HW117601   5.569   2.623   3.812 -0.0786 -0.0373  0.0506
 5788SOL    HW217602   5.644   2.671   3.690  0.3337 -1.6231 -0.3392
 5789SOL     OW17603   0.209   3.574   2.470 -0.1021  0.0234  0.3760
 5789SOL    HW117604   0.295   3.595   2.507  0.2809 -1.1609  0.1835
 5789SOL    HW217605   0.181   3.655   2.428  1.2157  0.2427 -0.1340
 5790SOL     OW17606   2.813   3.154   5.987 -0.3516  0.1296 -0.4138
 5790SOL    HW117607   2.820   3.153   6.082  1.8267  1.7290 -0.4764
 5790SOL    HW217608   2.740   3.212   5.968 -0.8803 -0.2998  0.2667
 5791SOL     OW17609   0.565   3.071   1.841  0.2196  0.2137  0.0899
 5791SOL    HW117610   0.481   3.073   1.885  1.1098 -0.3160  1.9339
 5791SOL    HW217611   0.546   3.035   1.755 -1.3386 -0.5489  0.7114
 5792SOL     OW17612   1.443   2.304   4.633 -0.0240 -0.2133 -0.7737
 5792SOL    HW117613   1.474   2.369   4.570 -1.1093  1.1360 -0.0075
 5792SOL    HW217614   1.412   2.357   4.707  0.5088 -1.6987  0.5650
 5793SOL     OW17615   5.534   4.927   1.902  0.0047 -0.5213 -0.1671
 5793SOL    HW117616   5.461   4.936   1.962 -0.0620 -1.9574  0.0029
 5793SOL    HW217617   5.497   4.889   1.823  0.4024 -0.3521 -0.4426
 5794SOL     OW17618   3.872   3.645   0.379  0.3056  0.6384 -0.0878
 5794SOL    HW117619   3.846   3.724   0.427 -1.5654 -1.3365  2.4401
 5794SOL    HW217620   3.791   3.612   0.340  1.1238  0.1217 -1.4370
 5795SOL     OW17621   3.768   0.148   1.988 -0.5169  0.2278 -0.5735
 5795SOL    HW117622   3.722   0.179   1.910 -1.8168 -0.1321  0.0266
 5795SOL    HW217623   3.817   0.224   2.019 -1.9407  1.0745 -0.3534
 5796SOL     OW17624   4.435   6.010   1.394 -0.6324  0.0019 -0.3082
 5796SOL    HW117625   4.467   6.044   1.477 -1.9754  2.3201 -0.6490
 5796SOL    HW217626   4.494   5.938   1.373  1.7799  1.4656  1.0319
 5797SOL     OW17627   0.653   1.433   1.327  0.3926 -0.0123 -0.5781
 5797SOL    HW117628   0.624   1.462   1.241 -0.5312 -0.7944 -0.5471
 5797SOL    HW217629   0.728   1.376   1.310  0.0646 -0.3546 -0.8881
 5798SOL     OW17630   0.843   6.149   3.365  0.6765  0.2677 -0.0636
 5798SOL    HW117631   0.808   6.134   3.278 -0.0554 -0.7977  0.3916
 5798SOL    HW217632   0.857   6.243   3.370  0.0960  0.4147 -1.0944
 5799SOL     OW17633   1.709   4.346   1.331  0.0181  0.2994 -0.4240
 5799SOL    HW117634   1.725   4.259   1.367  2.4052  1.0827  0.6779
 5799SOL    HW217635   1.630   4.377   1.376  1.2148  0.0782  2.0299
 5800SOL     OW17636   4.126   2.157   3.518 -0.1176  0.4639  0.5765
 5800SOL    HW117637   4.175   2.226   3.475  3.2783 -1.4868  0.9482
 5800SOL    HW217638   4.069   2.122   3.450  0.1864  1.7708 -0.3818
 5801SOL     OW17639   1.801   4.482   2.178 -0.4815 -0.2599 -0.8262
 5801SOL    HW117640   1.895   4.483   2.165 -0.5063 -1.1196 -1.1109
 5801SOL    HW217641   1.782   4.562   2.227  0.3639  0.0161 -0.9454
 5802SOL     OW17642   4.815   0.149   4.617  0.1300  0.3501 -0.5059
 5802SOL    HW117643   4.889   0.205   4.593  0.1197  1.2803  1.4080
 5802SOL    HW217644   4.851   0.087   4.681 -0.3161 -0.5008 -1.0724
 5803SOL     OW17645   5.438   4.671   5.692  0.5927 -0.2452  0.4929
 5803SOL    HW117646   5.457   4.661   5.598 -0.1427 -1.3789  0.4445
 5803SOL    HW217647   5.380   4.747   5.696 -0.0648 -0.6924 -0.0908
 5804SOL     OW17648   4.683   0.618   5.287 -0.1732 -0.3236 -0.2602
 5804SOL    HW117649   4.733   0.536   5.281 -1.6510 -1.2566 -0.1466
 5804SOL    HW217650   4.722   0.664   5.362 -1.8026 -2.7403  2.2788
 5805SOL     OW17651   3.570   1.296   4.408 -0.1803  0.3894 -0.4607
 5805SOL    HW117652   3.664   1.278   4.399  0.2879  2.0412  0.5967
 5805SOL    HW217653   3.536   1.290   4.319  0.7262 -1.1316 -0.7487
 5806SOL     OW17654   4.533   5.245   1.732 -0.1751  0.0802 -0.1324
 5806SOL    HW117655   4.577   5.217   1.812 -2.4846 -1.4977  0.6996
 5806SOL    HW217656   4.456   5.294   1.763 -0.6782  0.1421 -1.4089
 5807SOL     OW17657   0.050   5.929   4.987  0.3407  0.6502  0.5644
 5807SOL    HW117658   0.054   5.943   5.081 -1.0400  1.3925  0.5341
 5807SOL    HW217659   0.142   5.931   4.959  0.6895  2.0114  1.6759
 5808SOL     OW17660   0.061   4.541   5.073  0.1393  0.1337 -0.3136
 5808SOL    HW117661   0.072   4.545   5.168  0.6518  1.8069 -0.4117
 5808SOL    HW217662  -0.012   4.480   5.059 -0.2078  0.1821  1.1704
 5809SOL     OW17663   3.523   0.660   1.406 -0.6060 -0.2397  0.7319
 5809SOL    HW117664   3.524   0.624   1.495 -0.5012  1.6847  1.5779
 5809SOL    HW217665   3.615   0.680   1.388 -0.6114 -0.7551  0.1212
 5810SOL     OW17666   2.380   3.560   5.083 -0.0825 -0.0242  0.4554
 5810SOL    HW117667   2.468   3.553   5.046 -0.1212 -0.3417  0.4238
 5810SOL    HW217668   2.394   3.573   5.177  0.0998  3.2017  0.1080
 5811SOL     OW17669   3.893   2.877   0.968  0.5473 -0.1962  0.4279
 5811SOL    HW117670   3.876   2.950   0.908  1.9466  0.3435  0.6265
 5811SOL    HW217671   3.890   2.799   0.913 -1.2215 -0.0358  0.2581
 5812SOL     OW17672   1.313   4.306   1.698  0.1395  0.4077  0.3119
 5812SOL    HW117673   1.371   4.326   1.771 -0.0838 -0.9565  0.8903
 5812SOL    HW217674   1.262   4.386   1.685  1.2808  1.1994  0.5932
 5813SOL     OW17675   4.150   6.067   2.580 -0.4504  0.2123 -0.4171
 5813SOL    HW117676   4.132   5.986   2.533  2.3289 -0.8810  0.1951
 5813SOL    HW217677   4.147   6.042   2.673  0.1284  0.8702 -0.2137
 5814SOL     OW17678   3.429   2.595   5.712 -0.5113 -0.0480 -0.1605
 5814SOL    HW117679   3.432   2.527   5.779 -2.0651 -0.8256 -0.8325
 5814SOL    HW217680   3.419   2.676   5.761  0.3281 -0.3919  0.6118
 5815SOL     OW17681   3.613   0.407   1.179 -0.5311 -0.5722 -0.2335
 5815SOL    HW117682   3.693   0.415   1.232 -0.2384  0.8633 -0.8470
 5815SOL    HW217683   3.602   0.493   1.139 -1.8007 -1.0721 -1.0198
 5816SOL     OW17684   6.107   2.377   5.701  0.0134  0.2204 -0.0090
 5816SOL    HW117685   6.184   2.358   5.647 -0.3871 -1.2514 -0.1051
 5816SOL    HW217686   6.038   2.398   5.638  0.0131  0.2820  0.0122
 5817SOL     OW17687   2.464   2.353   3.202 -0.1132  0.1561  0.3363
 5817SOL    HW117688   2.401   2.424   3.194 -0.6231 -0.3346 -0.0213
 5817SOL    HW217689   2.499   2.362   3.291  2.0058  2.6488 -0.5986
 5818SOL     OW17690   5.681   0.211   0.019 -0.3665  0.6082 -0.1058
 5818SOL    HW117691   5.688   0.306   0.017 -1.3767  0.7305 -2.8928
 5818SOL    HW217692   5.589   0.194   0.037  0.2897 -0.0028  3.1860
 5819SOL     OW17693   5.981   5.647   2.960 -0.3342  0.9869 -0.2737
 5819SOL    HW117694   5.914   5.624   2.896  0.8569 -0.6649 -0.9843
 5819SOL    HW217695   5.988   5.743   2.954 -1.9119  1.0909 -0.8615
 5820SOL     OW17696   2.183   2.233   4.135  1.2616  0.0907  0.6264
 5820SOL    HW117697   2.183   2.329   4.135  1.2736  0.1011 -0.4037
 5820SOL    HW217698   2.255   2.209   4.076 -0.3777 -0.4973 -1.2683
 5821SOL     OW17699   4.307   1.888   2.887 -0.3160  0.0261 -0.4022
 5821SOL    HW117700   4.368   1.814   2.890 -0.9431 -0.4721  0.3944
 5821SOL    HW217701   4.343   1.951   2.950 -1.1148 -0.6793  0.8025
 5822SOL     OW17702   0.815   2.611   1.862 -0.2781  0.1903 -0.3054
 5822SOL    HW117703   0.819   2.705   1.876  1.8178  0.2173 -0.8696
 5822SOL    HW217704   0.802   2.601   1.768  0.1311 -0.0790 -0.3365
 5823SOL     OW17705   5.532   3.341   2.640 -0.2529 -0.1743  0.4006
 5823SOL    HW117706   5.493   3.428   2.645 -0.1289 -0.1056  0.1879
 5823SOL    HW217707   5.473   3.291   2.585  1.0736  0.5503 -1.7939
 5824SOL     OW17708   1.042   6.025   1.399  0.0759  0.6605  0.8604
 5824SOL    HW117709   1.068   5.984   1.317 -0.0334  2.2642 -0.0044
 5824SOL    HW217710   0.998   5.955   1.448 -0.2171 -0.2208 -0.6093
 5825SOL     OW17711   2.601   1.357   0.419  0.0297  0.4002  0.1084
 5825SOL    HW117712   2.591   1.450   0.398 -0.2790  0.0096 -1.6247
 5825SOL    HW217713   2.525   1.315   0.378  2.3723 -1.1578 -2.9815
 5826SOL     OW17714   5.682   3.978   3.292  0.2427 -0.2927  0.1471
 5826SOL    HW117715   5.686   4.028   3.374 -1.6256 -0.3414  0.3118
 5826SOL    HW217716   5.740   3.904   3.305  0.1916 -0.1335  1.3298
 5827SOL     OW17717   1.665   3.308   5.978 -0.0845 -0.1707  0.0085
 5827SOL    HW117718   1.756   3.336   5.984  0.1767 -0.9043 -0.4887
 5827SOL    HW217719   1.619   3.365   6.040  0.8838 -0.5352  1.0980
 5828SOL     OW17720   2.148   0.033   0.429  0.0762 -0.1626  0.1431
 5828SOL    HW117721   2.099  -0.038   0.470  0.4419 -1.0070 -0.8314
 5828SOL    HW217722   2.228   0.041   0.482  0.1367 -0.6324  0.1244
 5829SOL     OW17723   1.466   2.106   3.623  0.0516  0.0568  0.3647
 5829SOL    HW117724   1.510   2.040   3.676  0.6873  0.5667  0.4850
 5829SOL    HW217725   1.446   2.062   3.540 -0.7912 -0.6912  0.9514
 5830SOL     OW17726   0.829   3.081   2.153  0.7133 -0.0004  0.1404
 5830SOL    HW117727   0.800   3.033   2.075 -0.1057 -0.9938  1.0315
 5830SOL    HW217728   0.894   3.025   2.194 -0.9472 -0.8797  1.7173
 5831SOL     OW17729   1.469   3.481   1.990 -0.0817 -0.6319 -0.4262
 5831SOL    HW117730   1.477   3.397   2.034 -2.1629 -0.7169 -0.0825
 5831SOL    HW217731   1.532   3.538   2.034 -0.0262 -1.5042  0.6500
 5832SOL     OW17732   5.714   0.372   4.999 -0.1013  0.2651 -0.4353
 5832SOL    HW117733   5.758   0.294   5.034  2.4207  2.0511  0.7322
 5832SOL    HW217734   5.643   0.389   5.061  0.6440  0.0318  0.5176
 5833SOL     OW17735   4.552   0.323   2.284  0.5800  0.0714 -0.4858
 5833SOL    HW117736   4.486   0.333   2.352  0.9137 -1.4646  0.1041
 5833SOL    HW217737   4.513   0.363   2.206 -0.8718 -0.3961 -0.0240
 5834SOL     OW17738   4.663   4.330   4.246  0.7094  0.3235  0.0380
 5834SOL    HW117739   4.685   4.242   4.277 -1.7052 -0.8795 -1.2772
 5834SOL    HW217740   4.701   4.334   4.158 -0.8752 -0.2639 -0.7107
 5835SOL     OW17741   0.068   2.450   2.419  0.0751  0.1120  0.2578
 5835SOL    HW117742   0.082   2.364   2.378 -1.2585  0.3591 -0.7610
 5835SOL    HW217743   0.068   2.431   2.513 -2.4677 -1.4306  0.0409
 5836SOL     OW17744   3.450   2.787   2.569  0.9976 -0.1159 -0.0446
 5836SOL    HW117745   3.485   2.717   2.514  0.9227  0.8098 -1.2945
 5836SOL    HW217746   3.524   2.847   2.582  1.1514 -0.5427  1.2855
 5837SOL     OW17747   0.640   1.546   3.610 -0.2048 -0.5654 -0.5964
 5837SOL    HW117748   0.699   1.538   3.535 -0.5225  1.9896 -1.2335
 5837SOL    HW217749   0.680   1.613   3.665 -0.8086 -1.2291  0.6905
 5838SOL     OW17750   3.787   2.169   0.666 -0.2558 -0.4524  0.0292
 5838SOL    HW117751   3.764   2.196   0.755 -0.3850 -0.2794 -0.0552
 5838SOL    HW217752   3.883   2.173   0.663 -0.2681  3.2222 -0.9435
 5839SOL     OW17753   1.636   3.137   3.633  0.0065 -0.1635  0.8180
 5839SOL    HW117754   1.650   3.227   3.604  0.5015 -0.5877 -0.3399
 5839SOL    HW217755   1.543   3.132   3.651 -0.3870  0.0996 -0.9337
 5840SOL     OW17756   5.779   1.914   5.832  0.3602  0.1676 -0.1071
 5840SOL    HW117757   5.698   1.955   5.862  0.6983  0.0407  1.0043
 5840SOL    HW217758   5.793   1.840   5.891  1.8194  0.7799  0.3613
 5841SOL     OW17759   1.944   3.647   0.457 -0.1922  0.6537 -0.6092
 5841SOL    HW117760   1.899   3.587   0.398  0.0605 -0.2041  0.0551
 5841SOL    HW217761   2.030   3.661   0.417  0.3446 -0.6876  0.0120
 5842SOL     OW17762   5.439   0.277   4.876 -0.2576  0.1359 -0.4339
 5842SOL    HW117763   5.478   0.214   4.816  0.3557  0.0743  0.0225
 5842SOL    HW217764   5.513   0.322   4.915 -0.6710  0.6654 -0.2414
 5843SOL     OW17765   4.473   5.793   5.104 -0.8360  0.2193 -0.0026
 5843SOL    HW117766   4.514   5.815   5.021 -0.3940 -0.6818 -0.0349
 5843SOL    HW217767   4.546   5.788   5.166 -1.1367  0.6536  0.3930
 5844SOL     OW17768   3.793   0.756   1.440  0.1861 -0.0773 -0.3390
 5844SOL    HW117769   3.792   0.782   1.533 -1.3858  1.0992 -0.6388
 5844SOL    HW217770   3.825   0.833   1.394 -0.9744  0.0743 -0.9305
 5845SOL     OW17771   5.799   0.178   0.724  0.1575 -0.2061 -0.4154
 5845SOL    HW117772   5.745   0.256   0.710  0.4215  0.0326 -0.0918
 5845SOL    HW217773   5.758   0.134   0.798  0.0339 -0.3544 -0.5707
 5846SOL     OW17774   1.129   4.616   4.352 -0.3937 -0.5590  0.0956
 5846SOL    HW117775   1.192   4.607   4.281 -1.1115  0.6700 -0.7331
 5846SOL    HW217776   1.044   4.602   4.310 -0.8847  0.9889  0.5046
 5847SOL     OW17777   3.684   3.262   0.186 -0.0963  0.9151 -0.1611
 5847SOL    HW117778   3.592   3.266   0.211 -0.8386 -0.3454 -2.4085
 5847SOL    HW217779   3.694   3.176   0.145  2.0111  1.1574 -0.2746
 5848SOL     OW17780   5.189   5.936   2.657  0.1551  0.6488 -0.3298
 5848SOL    HW117781   5.115   5.936   2.718 -0.2271 -0.7357 -0.7438
 5848SOL    HW217782   5.149   5.955   2.572  0.4318  0.8782 -0.4103
 5849SOL     OW17783   1.579   2.437   3.175  0.7253  0.9120 -0.1442
 5849SOL    HW117784   1.558   2.375   3.105 -0.6276  2.7854 -1.5199
 5849SOL    HW217785   1.564   2.389   3.256  1.4615 -1.0638 -1.1144
 5850SOL     OW17786   3.558   2.433   2.688 -0.4374 -0.2816 -0.7980
 5850SOL    HW117787   3.520   2.463   2.606  0.5810 -0.7389 -1.4571
 5850SOL    HW217788   3.483   2.416   2.745 -1.1945 -0.8798 -1.9531
 5851SOL     OW17789   3.065   5.192   1.398 -0.2147  0.3433  0.1835
 5851SOL    HW117790   3.122   5.188   1.475  0.6758  4.1414 -0.1066
 5851SOL    HW217791   2.977   5.186   1.434  0.2217  0.1184  1.2814
 5852SOL     OW17792   3.977   1.490   1.264  0.3830  0.8623 -0.2126
 5852SOL    HW117793   3.895   1.525   1.228  0.0789  0.6923  0.2942
 5852SOL    HW217794   4.033   1.567   1.273  0.9752  0.7241 -2.3012
 5853SOL     OW17795   0.752   3.639   3.526  0.6148  0.9293 -0.0539
 5853SOL    HW117796   0.661   3.632   3.498  0.9056  1.3338 -1.1859
 5853SOL    HW217797   0.785   3.549   3.521 -0.1538  0.4983  2.0271
 5854SOL     OW17798   1.614   2.171   5.285 -0.6470  0.1046 -0.0018
 5854SOL    HW117799   1.608   2.136   5.374  1.8882 -1.1756 -0.2199
 5854SOL    HW217800   1.611   2.094   5.229 -1.2225  0.8123 -0.9661
 5855SOL     OW17801   4.836   3.629   3.199  0.4740  0.5202 -0.0746
 5855SOL    HW117802   4.859   3.688   3.127  1.5555 -0.2602 -0.3897
 5855SOL    HW217803   4.766   3.675   3.246  0.0208  1.2227 -1.3798
 5856SOL     OW17804   0.147   5.948   0.143 -0.1872 -0.1103 -0.1240
 5856SOL    HW117805   0.179   5.872   0.192  1.5088  1.6041  1.5708
 5856SOL    HW217806   0.059   5.963   0.177 -0.5272 -1.2553 -0.4476
 5857SOL     OW17807   4.699   1.187   4.671  0.0720 -0.2915  0.0665
 5857SOL    HW117808   4.694   1.269   4.622  2.0932 -0.7855 -1.0695
 5857SOL    HW217809   4.783   1.149   4.646 -0.6210 -2.5226  0.8940
 5858SOL     OW17810   5.800   1.251   3.569 -0.1356 -0.2034 -0.3151
 5858SOL    HW117811   5.878   1.196   3.564  0.8092  1.1699 -1.6625
 5858SOL    HW217812   5.830   1.338   3.545 -1.7977  0.7000  0.6920
 5859SOL     OW17813   5.858   0.990   1.991  0.0703  0.1517  0.3807
 5859SOL    HW117814   5.914   0.997   2.067  1.2037 -0.2687 -0.3913
 5859SOL    HW217815   5.834   1.080   1.969  0.1522  0.3046  0.9289
 5860SOL     OW17816   0.936   2.393   3.685 -0.0568  0.3152 -0.0916
 5860SOL    HW117817   0.882   2.334   3.738  0.3246 -1.4170 -1.5361
 5860SOL    HW217818   0.873   2.438   3.628 -0.1681 -0.2637 -0.4316
 5861SOL     OW17819   1.074   3.015   1.758 -0.4929  0.6423 -0.5130
 5861SOL    HW117820   1.141   3.037   1.693  0.4100 -0.4667  0.0019
 5861SOL    HW217821   1.115   3.038   1.842  0.0632 -1.7973 -0.0341
 5862SOL     OW17822   2.758   5.380   2.292 -0.2384 -0.2546  0.3597
 5862SOL    HW117823   2.753   5.284   2.297 -0.5704 -0.3373 -1.1537
 5862SOL    HW217824   2.840   5.402   2.336 -1.0499 -1.0583  2.4166
 5863SOL     OW17825   2.508   5.461   2.502  0.4594  0.4662  0.0593
 5863SOL    HW117826   2.588   5.467   2.449  1.0762  0.6693  1.0018
 5863SOL    HW217827   2.440   5.438   2.439  1.1804  0.7066 -0.8282
 5864SOL     OW17828   4.873   5.160   4.927 -0.0521  0.7401 -0.4041
 5864SOL    HW117829   4.805   5.124   4.984 -0.1232  0.9010 -0.3866
 5864SOL    HW217830   4.878   5.098   4.854  1.7267 -0.8243  0.9200
 5865SOL     OW17831   4.235   2.280   2.020 -0.8338 -0.1430 -0.0013
 5865SOL    HW117832   4.269   2.226   1.948  0.8620 -2.5034  2.3554
 5865SOL    HW217833   4.165   2.227   2.057 -0.7603  0.3761  0.8964
 5866SOL     OW17834   5.089   4.814   2.215 -0.9701 -0.2555 -0.2685
 5866SOL    HW117835   5.059   4.743   2.271 -0.9642 -1.7483 -2.0809
 5866SOL    HW217836   5.031   4.811   2.139  1.4480 -0.9385 -2.2212
 5867SOL     OW17837   3.844   1.075   4.709 -0.7063  0.5915 -0.0167
 5867SOL    HW117838   3.774   1.134   4.737 -0.4164  1.8337 -1.7042
 5867SOL    HW217839   3.798   1.006   4.661 -0.8670  0.8019 -0.1705
 5868SOL     OW17840   3.352   5.317   2.790  0.6069 -0.1279  0.3342
 5868SOL    HW117841   3.274   5.278   2.829 -0.8970  1.9725 -0.3850
 5868SOL    HW217842   3.381   5.381   2.855 -0.1552  1.2836 -0.6636
 5869SOL     OW17843   4.642   3.193   2.832 -0.0285  0.1187  0.0772
 5869SOL    HW117844   4.692   3.236   2.763  0.3332 -0.1344  0.1788
 5869SOL    HW217845   4.591   3.125   2.787 -0.6399  0.6789 -0.0900
 5870SOL     OW17846   3.632   3.075   1.789 -0.4410 -0.1865  0.2430
 5870SOL    HW117847   3.551   3.072   1.840 -0.5386 -0.1266  0.0931
 5870SOL    HW217848   3.621   3.007   1.722 -0.2190 -0.4203  0.4394
 5871SOL     OW17849   1.357   5.384   1.402 -0.1579  0.1604  0.0897
 5871SOL    HW117850   1.262   5.375   1.393  0.2196 -3.0668 -2.3684
 5871SOL    HW217851   1.380   5.327   1.476 -0.0301  0.3184  0.1735
 5872SOL     OW17852   0.879   2.547   6.044 -0.3487 -0.0352  0.5511
 5872SOL    HW117853   0.908   2.466   6.003  2.2908  0.4625  1.2536
 5872SOL    HW217854   0.786   2.533   6.063 -0.5677 -1.9023 -1.5584
 5873SOL     OW17855   1.867   1.204   1.955  0.4292  0.4854  0.3008
 5873SOL    HW117856   1.811   1.195   1.879 -0.5906 -1.1190  1.1826
 5873SOL    HW217857   1.948   1.242   1.921 -0.8455  2.0844 -1.1425
 5874SOL     OW17858   1.697   2.611   2.555  0.6827  0.4166  0.4652
 5874SOL    HW117859   1.743   2.630   2.637 -0.6349  0.7557  1.1540
 5874SOL    HW217860   1.604   2.619   2.577  0.3047  1.2748 -1.2418
 5875SOL     OW17861   4.573   0.012   5.702 -0.0930  0.6525 -0.0360
 5875SOL    HW117862   4.626   0.065   5.762  0.1016  0.6503 -0.2059
 5875SOL    HW217863   4.482   0.039   5.720  0.0217  1.2175 -0.2951
 5876SOL     OW17864   3.868   4.472   2.435 -0.1327 -0.4082 -0.0162
 5876SOL    HW117865   3.842   4.383   2.457 -0.5979  0.4301  3.2398
 5876SOL    HW217866   3.946   4.489   2.487  0.6448  0.7331 -1.4694
 5877SOL     OW17867   5.700   4.943   3.284 -0.5556  0.8161 -0.0944
 5877SOL    HW117868   5.628   4.887   3.255 -0.3613  0.9632 -0.8686
 5877SOL    HW217869   5.658   5.026   3.308 -0.7621  0.5657  0.4167
 5878SOL     OW17870   5.601   4.955   4.113 -0.3832  0.0830 -0.3690
 5878SOL    HW117871   5.554   4.893   4.169 -1.4695  0.4726 -0.8284
 5878SOL    HW217872   5.533   4.998   4.062  0.5506 -0.0108 -1.7481
 5879SOL     OW17873   1.960   5.918   2.559  0.1928  0.3110  0.2886
 5879SOL    HW117874   1.865   5.934   2.564 -0.2702 -1.3935 -1.7035
 5879SOL    HW217875   1.977   5.856   2.630 -0.9872 -2.2926 -1.5228
 5880SOL     OW17876   2.390   4.156   1.539 -1.0061  0.0597  0.4003
 5880SOL    HW117877   2.432   4.242   1.533 -1.5271  0.2671 -0.3856
 5880SOL    HW217878   2.352   4.142   1.453  0.4814 -1.6999 -0.0333
 5881SOL     OW17879   0.796   3.812   0.646 -0.0826 -0.5458  0.0981
 5881SOL    HW117880   0.885   3.782   0.633  0.3669  0.0974  1.4933
 5881SOL    HW217881   0.796   3.852   0.733 -1.8982 -1.1729  0.4485
 5882SOL     OW17882   1.899   5.496   4.442  0.1066 -0.2706 -0.0519
 5882SOL    HW117883   1.959   5.569   4.428 -0.2363 -0.2391 -1.5369
 5882SOL    HW217884   1.829   5.511   4.379 -0.6582 -1.1638  0.5602
 5883SOL     OW17885   6.063   3.028   2.444 -0.0590 -0.2502 -0.4249
 5883SOL    HW117886   6.095   2.942   2.415  0.6537 -0.3504  0.6371
 5883SOL    HW217887   6.142   3.078   2.463 -0.4994  0.1800  0.3010
 5884SOL     OW17888   3.798   5.931   0.390 -0.0957 -0.5468 -0.2145
 5884SOL    HW117889   3.859   5.937   0.316  1.0774  1.2139  0.8141
 5884SOL    HW217890   3.852   5.902   0.463 -0.8876 -0.6883  0.3228
 5885SOL     OW17891   2.864   5.760   5.258  0.1531  0.0360 -0.1423
 5885SOL    HW117892   2.868   5.682   5.314 -1.3006  0.0567  0.0454
 5885SOL    HW217893   2.794   5.813   5.297 -0.0576  0.6223 -1.2762
 5886SOL     OW17894   2.518   2.575   4.435 -0.1837  0.4476  0.3092
 5886SOL    HW117895   2.587   2.509   4.435  0.6011  1.2454  0.0725
 5886SOL    HW217896   2.519   2.611   4.524  0.7322  1.4773 -0.0924
 5887SOL     OW17897   5.378   2.423   0.904 -0.1778  0.1329  0.4864
 5887SOL    HW117898   5.447   2.422   0.837 -1.4283 -1.6294 -0.8667
 5887SOL    HW217899   5.411   2.366   0.973 -0.2927 -0.7791 -0.1960
 5888SOL     OW17900   0.034   0.807   2.483  0.3615  0.2469 -0.4078
 5888SOL    HW117901   0.056   0.865   2.556  0.3385 -1.5239  1.0780
 5888SOL    HW217902   0.004   0.866   2.414  1.9238  2.1136  0.4038
 5889SOL     OW17903   4.549   0.284   1.971 -0.3811  0.0490  0.4938
 5889SOL    HW117904   4.636   0.254   1.997 -0.9894 -2.3573 -0.0369
 5889SOL    HW217905   4.499   0.204   1.955 -2.5474  1.3634  0.2288
 5890SOL     OW17906   5.158   4.479   6.021  0.2952 -0.2440  0.3981
 5890SOL    HW117907   5.231   4.540   6.027  0.0931  0.7737 -4.0906
 5890SOL    HW217908   5.182   4.419   5.949 -1.1555 -3.1969  2.1588
 5891SOL     OW17909   4.962   1.731   0.778 -0.0824 -0.1503 -0.0522
 5891SOL    HW117910   5.048   1.706   0.744 -0.3734 -1.0404 -0.1799
 5891SOL    HW217911   4.920   1.647   0.798 -0.7157  0.2934  0.5170
 5892SOL     OW17912   3.513   3.088   3.494  0.9017  0.2460  0.3889
 5892SOL    HW117913   3.506   3.039   3.412  3.1751 -0.3576  0.4738
 5892SOL    HW217914   3.597   3.133   3.488  1.1055  0.2250  2.3462
 5893SOL     OW17915   0.135   2.926   4.278 -0.1460 -0.0308  0.0965
 5893SOL    HW117916   0.073   2.869   4.323  0.8130 -0.3723  1.0522
 5893SOL    HW217917   0.095   3.013   4.281 -0.9161 -0.3768  0.0193
 5894SOL     OW17918   0.063   5.698   4.393 -0.1727  0.3884 -0.0211
 5894SOL    HW117919   0.154   5.685   4.420 -0.4764 -2.1472  0.0191
 5894SOL    HW217920   0.041   5.786   4.422  1.7367  0.4134  1.4941
 5895SOL     OW17921   1.086   2.075   3.314 -0.2535  0.0205  0.0163
 5895SOL    HW117922   1.076   2.159   3.359 -1.9014 -0.5273  0.7495
 5895SOL    HW217923   1.169   2.040   3.347 -0.2797  0.6959  0.8441
 5896SOL     OW17924   3.834   5.541   4.793 -0.0818 -0.3938  0.3023
 5896SOL    HW117925   3.768   5.586   4.845 -0.1846  1.1929 -1.1269
 5896SOL    HW217926   3.789   5.516   4.712  1.2576  1.7156 -1.2003
 5897SOL     OW17927   4.553   4.339   0.832 -0.0765 -0.3071  0.3016
 5897SOL    HW117928   4.457   4.329   0.831 -0.1463  0.3302 -0.6412
 5897SOL    HW217929   4.584   4.269   0.774  0.1675 -1.5943  1.9202
 5898SOL     OW17930   3.441   1.592   2.166  0.4895  0.5873  0.2144
 5898SOL    HW117931   3.460   1.624   2.078  1.7685  1.2970  0.7140
 5898SOL    HW217932   3.476   1.503   2.168  1.6547  1.0298  0.3783
 5899SOL     OW17933   4.922   3.119   2.227 -0.4030  0.3531 -0.1162
 5899SOL    HW117934   4.948   3.059   2.157 -1.7436 -0.0473 -0.2884
 5899SOL    HW217935   4.999   3.174   2.241  1.6855 -2.6407  1.4153
 5900SOL     OW17936   5.803   1.237   5.041  0.4703  0.2481 -0.1444
 5900SOL    HW117937   5.768   1.157   5.082 -1.8034  1.8783  1.3189
 5900SOL    HW217938   5.758   1.242   4.957 -1.7906  1.4484  1.0256
 5901SOL     OW17939   0.283   3.018   1.223  0.2132  0.4758 -0.0233
 5901SOL    HW117940   0.377   3.010   1.241  0.6284 -6.0337 -2.5069
 5901SOL    HW217941   0.278   3.027   1.128 -1.7185  0.7754  0.0789
 5902SOL     OW17942   1.124   4.468   5.050 -0.2218 -0.0582  0.1238
 5902SOL    HW117943   1.170   4.385   5.032  0.3051 -0.1259  1.6170
 5902SOL    HW217944   1.060   4.476   4.979  0.7025 -1.0103 -0.8570
 5903SOL     OW17945   1.070   3.061   2.710 -0.4702 -0.2105 -0.0035
 5903SOL    HW117946   1.132   3.132   2.695  0.6723 -0.5211  2.6616
 5903SOL    HW217947   1.122   2.981   2.704 -1.1080 -0.6336 -0.0181
 5904SOL     OW17948   3.722   3.703   2.068  0.4626 -0.0681 -0.2768
 5904SOL    HW117949   3.745   3.610   2.076  0.8747  0.1043  0.7009
 5904SOL    HW217950   3.689   3.727   2.154 -0.2521  0.5403 -0.7108
 5905SOL     OW17951   0.800   2.022   5.245 -0.2759 -0.4092  0.0896
 5905SOL    HW117952   0.809   2.003   5.338 -0.7961  1.4942  0.5692
 5905SOL    HW217953   0.752   1.946   5.210  0.9103 -1.6811  1.1045
 5906SOL     OW17954   2.539   2.225   4.943  0.4718 -0.0401 -0.3922
 5906SOL    HW117955   2.558   2.215   4.849  0.1083 -0.8042 -0.3933
 5906SOL    HW217956   2.449   2.194   4.953  0.0413  1.2765  0.0080
 5907SOL     OW17957   4.235   0.833   3.501 -0.5501  0.9397  0.0676
 5907SOL    HW117958   4.278   0.865   3.580  0.5629  0.7845 -0.4646
 5907SOL    HW217959   4.166   0.897   3.484 -0.6493  1.1023  1.0219
 5908SOL     OW17960   1.826   0.591   0.006 -0.3685  0.0156 -0.9010
 5908SOL    HW117961   1.866   0.604  -0.080  1.8971  0.8643  0.1957
 5908SOL    HW217962   1.892   0.622   0.068 -2.0967 -0.1667  1.1489
 5909SOL     OW17963   2.567   5.288   0.095 -0.1456  0.0443 -0.0898
 5909SOL    HW117964   2.603   5.367   0.055  2.7765 -1.2964 -0.3617
 5909SOL    HW217965   2.525   5.319   0.175 -0.9364  2.0741 -1.2011
 5910SOL     OW17966   1.235   4.015   4.698  0.0582 -1.0631  0.3511
 5910SOL    HW117967   1.165   4.008   4.764  0.5524  0.9723  1.1545
 5910SOL    HW217968   1.193   4.059   4.624  0.1557 -1.1033  0.2721
 5911SOL     OW17969   5.558   2.987   2.685  0.5900 -0.1616  0.4574
 5911SOL    HW117970   5.555   3.055   2.753 -1.3992  0.6552 -0.3495
 5911SOL    HW217971   5.591   2.909   2.729  2.6302  1.2038  1.5010
 5912SOL     OW17972   3.064   2.978   2.355  0.0645 -0.3306 -0.4282
 5912SOL    HW117973   3.020   3.023   2.283 -0.3723  0.1730  0.1414
 5912SOL    HW217974   2.993   2.945   2.410  0.3782  1.0314  0.8366
 5913SOL     OW17975   1.540   5.349   1.136  0.2374  0.4053  0.1536
 5913SOL    HW117976   1.500   5.350   1.050 -0.5796 -1.4640  0.4630
 5913SOL    HW217977   1.467   5.359   1.198  0.8268  1.8886  0.6536
 5914SOL     OW17978   1.281   4.855   2.239  0.0013  0.0052  0.0166
 5914SOL    HW117979   1.353   4.795   2.223 -0.3207 -0.2258 -0.6092
 5914SOL    HW217980   1.210   4.824   2.182 -1.1036 -0.6620  1.6727
 5915SOL     OW17981   0.085   5.481   1.329  0.6483  0.2649  0.6082
 5915SOL    HW117982   0.024   5.415   1.295 -0.3821  1.9193 -0.9656
 5915SOL    HW217983   0.031   5.535   1.386  1.4229 -0.0815  1.6827
 5916SOL     OW17984   5.149   0.421   1.746  0.3182  0.2077 -0.3218
 5916SOL    HW117985   5.239   0.389   1.758  1.7570  2.8654 -2.7285
 5916SOL    HW217986   5.151   0.511   1.779 -1.8016  0.0047  0.5093
 5917SOL     OW17987   0.755   4.747   4.965  0.7570 -0.0861  0.3799
 5917SOL    HW117988   0.774   4.797   4.886  3.0743 -0.1053  0.8642
 5917SOL    HW217989   0.745   4.657   4.934  1.3744 -0.0507  0.0568
 5918SOL     OW17990   3.108   1.295   2.957 -0.1122 -0.2955  0.0670
 5918SOL    HW117991   3.051   1.265   2.886 -1.5196  0.2900  0.9162
 5918SOL    HW217992   3.051   1.350   3.012  1.6054  1.4340  0.2196
 5919SOL     OW17993   0.469   5.025   1.622 -0.0277 -0.3073 -0.0581
 5919SOL    HW117994   0.422   4.957   1.672 -1.1727  1.5879  1.6133
 5919SOL    HW217995   0.418   5.035   1.542 -0.9007 -0.2134  0.4895
 5920SOL     OW17996   0.179   1.589   1.091 -0.3348 -0.4206 -0.6241
 5920SOL    HW117997   0.095   1.630   1.074  0.1893  0.0442 -2.2865
 5920SOL    HW217998   0.191   1.527   1.019  1.9651  1.5370 -2.0636
 5921SOL     OW17999   4.272   2.600   5.452 -0.4927 -0.2283 -0.0536
 5921SOL    HW118000   4.209   2.580   5.522 -1.6023  2.3337 -0.2010
 5921SOL    HW218001   4.277   2.695   5.451 -1.6895  0.0256 -4.4005
 5922SOL     OW18002   2.670   6.012   1.581  1.1815  0.1248 -0.1006
 5922SOL    HW118003   2.598   5.984   1.524  2.0732 -0.7650 -0.8258
 5922SOL    HW218004   2.672   6.107   1.571  0.2368  0.1492 -0.2164
 5923SOL     OW18005   0.376   1.057   1.523 -0.1314 -0.0637 -0.5241
 5923SOL    HW118006   0.396   1.148   1.501  2.9643 -0.1333  1.4337
 5923SOL    HW218007   0.445   1.006   1.480 -1.2523 -1.4605 -0.7856
 5924SOL     OW18008   0.329   4.965   0.910  0.2546  0.1539 -0.3338
 5924SOL    HW118009   0.306   5.030   0.976  0.0151 -0.7112  0.4551
 5924SOL    HW218010   0.310   5.007   0.827 -1.6399  0.4465  0.2025
 5925SOL     OW18011   3.123   5.154   3.592 -0.2570  0.2046  0.7072
 5925SOL    HW118012   3.209   5.129   3.558 -1.0659 -1.6521 -0.0616
 5925SOL    HW218013   3.117   5.111   3.677 -1.1451 -1.2640 -0.0631
 5926SOL     OW18014   3.470   2.133   5.997 -0.2756 -0.5330  0.2171
 5926SOL    HW118015   3.498   2.060   5.941 -2.1649 -0.6706 -0.5947
 5926SOL    HW218016   3.519   2.120   6.079 -0.4611 -2.6248  0.0434
 5927SOL     OW18017   4.150   4.389   3.927 -0.1309 -0.5456  0.2846
 5927SOL    HW118018   4.110   4.312   3.968  0.4075 -0.1905  1.5068
 5927SOL    HW218019   4.244   4.377   3.939 -0.0313  0.1684  0.2414
 5928SOL     OW18020   4.671   1.143   5.729  0.2564  0.0473  0.8933
 5928SOL    HW118021   4.654   1.135   5.636  0.9649 -1.0525  0.8360
 5928SOL    HW218022   4.740   1.208   5.736  0.5994 -0.2833  0.6006
 5929SOL     OW18023   1.206   1.310   5.583  0.5510 -0.1944 -0.1112
 5929SOL    HW118024   1.161   1.227   5.563 -0.5222  0.3644 -0.0641
 5929SOL    HW218025   1.211   1.354   5.498  0.1131  0.1758  0.0530
 5930SOL     OW18026   1.265   4.865   0.142  0.1680  0.1317 -0.6168
 5930SOL    HW118027   1.314   4.924   0.085 -0.5755  0.2125 -1.1887
 5930SOL    HW218028   1.212   4.813   0.081 -0.2957 -0.0961 -0.0227
 5931SOL     OW18029   0.303   3.583   5.137  0.2296 -0.5522  0.3623
 5931SOL    HW118030   0.353   3.562   5.216  2.4460 -1.6813 -1.2490
 5931SOL    HW218031   0.285   3.499   5.096  0.1348  0.0570 -0.9150
 5932SOL     OW18032   5.700   1.590   0.940  0.7138 -0.1912 -0.1828
 5932SOL    HW118033   5.715   1.679   0.970 -1.4246  0.3603 -0.6029
 5932SOL    HW218034   5.609   1.571   0.962  1.0560 -2.2240 -0.2439
 5933SOL     OW18035   3.568   0.951   0.192  0.4509  0.0655  0.1282
 5933SOL    HW118036   3.651   0.913   0.162 -0.1707 -0.6214 -0.7576
 5933SOL    HW218037   3.577   0.953   0.288  1.2867 -0.4732  0.0785
 5934SOL     OW18038   2.746   2.126   5.651 -0.0433 -0.0860  0.0785
 5934SOL    HW118039   2.821   2.068   5.665  0.2117 -0.0939 -1.2652
 5934SOL    HW218040   2.684   2.074   5.600 -0.6391  0.1853  0.5162
 5935SOL     OW18041   0.606   2.952   5.071 -0.0745  0.2092 -0.0573
 5935SOL    HW118042   0.575   2.879   5.016 -0.7761 -0.6636  1.4398
 5935SOL    HW218043   0.527   2.999   5.095  0.0128 -0.4215  1.5648
 5936SOL     OW18044   3.599   3.637   0.191 -0.0715 -0.0237 -0.3809
 5936SOL    HW118045   3.632   3.701   0.127 -1.7504  0.6238 -0.6354
 5936SOL    HW218046   3.524   3.680   0.231  1.6578  0.1518  3.0490
 5937SOL     OW18047   3.174   4.517   2.625  0.2904 -0.1448  0.3312
 5937SOL    HW118048   3.141   4.443   2.575  0.8948  0.6148 -1.2489
 5937SOL    HW218049   3.257   4.540   2.583 -0.4248  2.1429  0.0290
 5938SOL     OW18050   1.528   2.289   1.928  0.4389 -0.3493 -0.1286
 5938SOL    HW118051   1.524   2.351   2.001  0.7393  1.6368 -1.6886
 5938SOL    HW218052   1.439   2.288   1.892  0.9164  0.9932 -1.4629
 5939SOL     OW18053   5.995   1.081   5.756  0.3103  0.2010  0.1967
 5939SOL    HW118054   5.976   1.076   5.663  1.4298  0.4830 -0.0712
 5939SOL    HW218055   5.937   1.149   5.790  1.8375  2.1242 -0.8722
 5940SOL     OW18056   5.843   3.827   2.469 -0.1657 -0.1531 -0.1036
 5940SOL    HW118057   5.916   3.765   2.466 -0.0727 -0.0785  0.4250
 5940SOL    HW218058   5.857   3.884   2.394  0.6100  0.1739  0.2692
 5941SOL     OW18059   3.188   5.556   1.861  0.0265 -0.1325  0.0061
 5941SOL    HW118060   3.209   5.465   1.884  1.8026  0.1527 -0.3417
 5941SOL    HW218061   3.148   5.550   1.774 -0.9794 -0.6557  0.4804
 5942SOL     OW18062   5.644   0.854   0.866 -0.5287 -0.0118  0.5518
 5942SOL    HW118063   5.653   0.771   0.913  0.9297  0.6734  1.5585
 5942SOL    HW218064   5.728   0.866   0.822 -0.4006  1.3097  1.0995
 5943SOL     OW18065   1.271   1.213   3.027  0.0259 -0.1900 -0.2041
 5943SOL    HW118066   1.340   1.179   3.083 -1.7559 -0.7101  1.8008
 5943SOL    HW218067   1.208   1.141   3.020 -0.1902  0.1169 -2.3047
 5944SOL     OW18068   1.689   6.078   0.262 -0.1815  0.2006 -0.0120
 5944SOL    HW118069   1.616   6.018   0.277  0.5279 -0.8380 -0.5820
 5944SOL    HW218070   1.734   6.042   0.185  0.1709  1.5635 -0.4807
 5945SOL     OW18071   5.115   1.654   5.044 -0.3032  0.2722  0.3716
 5945SOL    HW118072   5.194   1.707   5.032 -0.0063  0.0708  1.3461
 5945SOL    HW218073   5.070   1.659   4.960  0.4855  0.8178 -0.0335
 5946SOL     OW18074   0.774   0.423   2.104  0.6158  0.7548 -0.1942
 5946SOL    HW118075   0.737   0.431   2.192 -0.8131  1.9636 -0.8710
 5946SOL    HW218076   0.763   0.510   2.065  1.7714  0.4105 -1.3845
 5947SOL     OW18077   4.728   1.133   1.416 -0.1497 -0.2424 -0.0540
 5947SOL    HW118078   4.814   1.126   1.374 -1.3217 -0.7123 -2.5485
 5947SOL    HW218079   4.706   1.226   1.412 -0.2776 -0.2913 -0.5763
 5948SOL     OW18080   5.298   4.992   1.981  0.2388 -0.5723  0.6342
 5948SOL    HW118081   5.250   4.912   1.959  0.8277 -0.3762 -1.5866
 5948SOL    HW218082   5.231   5.052   2.015 -0.9800 -0.6770 -1.3927
 5949SOL     OW18083   0.057   1.285   3.400 -0.1929  0.1768 -0.3779
 5949SOL    HW118084   0.102   1.209   3.436  1.2049  0.2666 -1.8134
 5949SOL    HW218085   0.059   1.350   3.470 -1.1292 -0.9562  0.7516
 5950SOL     OW18086   0.289   0.316   2.793  0.2120 -0.0462 -0.3412
 5950SOL    HW118087   0.206   0.276   2.819  0.7892 -0.8651  0.2852
 5950SOL    HW218088   0.356   0.253   2.821  1.2561  1.8333  1.7748
 5951SOL     OW18089   2.450   0.005   3.277 -0.0831  0.4173 -0.3875
 5951SOL    HW118090   2.431  -0.050   3.353  0.1045  0.7583 -0.0909
 5951SOL    HW218091   2.371  -0.001   3.223  0.3197 -0.9628 -0.8731
 5952SOL     OW18092   1.941   5.005   5.026 -0.1452 -0.6683  0.2870
 5952SOL    HW118093   2.008   5.073   5.012 -1.4981  0.8638  0.8849
 5952SOL    HW218094   1.964   4.936   4.964  1.4465  0.2106 -0.1739
 5953SOL     OW18095   1.224   5.800   2.252  0.2640 -0.2159  0.2573
 5953SOL    HW118096   1.180   5.823   2.170 -0.5751  0.8141  0.9527
 5953SOL    HW218097   1.316   5.818   2.236 -0.1030  1.8355  0.0939
 5954SOL     OW18098   1.053   3.996   0.896 -0.1608 -0.4499  0.1898
 5954SOL    HW118099   0.959   3.992   0.880 -0.0142 -1.1891 -0.5777
 5954SOL    HW218100   1.074   3.913   0.938  0.1349 -0.2545  0.4319
 5955SOL     OW18101   5.525   1.921   5.445  0.1917  0.1851 -0.2581
 5955SOL    HW118102   5.445   1.885   5.484 -1.0852  1.8685 -1.2120
 5955SOL    HW218103   5.593   1.860   5.471 -1.0880 -0.3643  2.0852
 5956SOL     OW18104   1.988   4.819   5.933 -0.3128 -0.2127 -0.5645
 5956SOL    HW118105   1.920   4.884   5.952 -0.2251 -0.4127  0.4774
 5956SOL    HW218106   2.070   4.869   5.935 -0.2935 -0.2540 -0.2933
 5957SOL     OW18107   4.586   0.058   2.218  0.0692 -0.0215 -1.0909
 5957SOL    HW118108   4.585   0.152   2.233 -3.4728  0.3614 -2.6152
 5957SOL    HW218109   4.522   0.023   2.280  0.0188 -1.1643 -1.7554
 5958SOL     OW18110   0.526   0.821   3.324 -0.1175  0.1247  0.2638
 5958SOL    HW118111   0.489   0.908   3.336  0.5748  0.4951 -0.1718
 5958SOL    HW218112   0.615   0.828   3.359 -0.1819 -0.5156  0.5699
 5959SOL     OW18113   2.028   5.714   4.831  0.5082 -0.5955 -0.5917
 5959SOL    HW118114   2.084   5.715   4.753  2.1652 -0.6721  0.5413
 5959SOL    HW218115   2.082   5.753   4.900 -1.0001 -0.3051  0.4747
 5960SOL     OW18116   4.706   0.496   2.558  0.5856  0.4328 -0.1835
 5960SOL    HW118117   4.683   0.575   2.509  0.6903 -0.4665 -1.7580
 5960SOL    HW218118   4.628   0.441   2.551  1.7181 -1.0320 -2.1892
 5961SOL     OW18119   1.612   0.363   2.459  0.1127  0.3330  0.0618
 5961SOL    HW118120   1.538   0.307   2.482  1.9186 -1.8159  0.8822
 5961SOL    HW218121   1.658   0.379   2.541  1.8334 -0.2688 -0.7372
 5962SOL     OW18122   0.149   3.171   5.653 -0.2990 -0.4103  0.4330
 5962SOL    HW118123   0.111   3.168   5.741  0.7294  0.2821  0.9217
 5962SOL    HW218124   0.244   3.177   5.668 -0.1360  0.1260 -0.7148
 5963SOL     OW18125   1.821   3.059   4.300 -0.4202  0.2110  0.0709
 5963SOL    HW118126   1.839   3.144   4.260  2.5810 -0.0779  0.5867
 5963SOL    HW218127   1.780   3.080   4.384  1.2747  1.2582  0.6826
 5964SOL     OW18128   0.526   5.228   3.466 -0.2474  0.0781 -0.2267
 5964SOL    HW118129   0.516   5.285   3.389 -1.3190  0.2712  0.0360
 5964SOL    HW218130   0.547   5.142   3.429  0.6257  0.4570 -0.6621
 5965SOL     OW18131   1.680   3.417   3.990 -0.1505  0.0562 -0.5371
 5965SOL    HW118132   1.725   3.471   3.925  0.6706 -1.6280 -1.4385
 5965SOL    HW218133   1.723   3.438   4.073  0.3848  0.5159 -0.9239
 5966SOL     OW18134   5.728   2.948   4.981 -0.0874 -0.0311  0.2923
 5966SOL    HW118135   5.654   2.955   4.922 -2.4796 -0.1887  3.0338
 5966SOL    HW218136   5.732   2.856   5.005  0.7643  0.0405  0.4565
 5967SOL     OW18137   0.284   1.641   2.799  0.0512  0.7500 -0.5891
 5967SOL    HW118138   0.277   1.639   2.704  3.1079  0.6483 -0.9034
 5967SOL    HW218139   0.309   1.552   2.823 -1.4066  0.5836  0.4337
 5968SOL     OW18140   4.479   2.484   4.121 -0.0918  0.4688 -0.0323
 5968SOL    HW118141   4.538   2.414   4.150 -1.0223  0.2105  1.3489
 5968SOL    HW218142   4.535   2.543   4.071  1.3624  0.2437  1.2345
 5969SOL     OW18143   0.526   3.295   3.371  0.3676 -0.1876  0.4865
 5969SOL    HW118144   0.561   3.234   3.436  2.8131 -0.1366 -0.6841
 5969SOL    HW218145   0.515   3.243   3.292 -1.4993  0.0157  0.5643
 5970SOL     OW18146   6.065   5.493   3.654  0.3832 -0.0731 -0.2990
 5970SOL    HW118147   6.004   5.460   3.719 -0.6319  0.5088 -0.9421
 5970SOL    HW218148   6.079   5.419   3.595  0.1649 -0.1457 -0.2584
 5971SOL     OW18149   3.647   0.659   1.903  0.4799 -0.1633 -0.2006
 5971SOL    HW118150   3.605   0.608   1.973 -0.4434 -1.9843 -1.9647
 5971SOL    HW218151   3.678   0.739   1.946 -0.3168 -1.0610  2.1965
 5972SOL     OW18152   5.101   3.346   0.551  0.8994 -0.0295 -0.5232
 5972SOL    HW118153   5.176   3.327   0.494 -0.1678 -0.8637 -1.7219
 5972SOL    HW218154   5.027   3.356   0.491 -0.0452  0.3145  0.6523
 5973SOL     OW18155   4.567   2.066   3.464 -0.1113 -0.5679 -0.4028
 5973SOL    HW118156   4.525   2.151   3.477  0.1430 -0.2905 -1.3295
 5973SOL    HW218157   4.575   2.057   3.369  1.0460 -1.0342 -0.2828
 5974SOL     OW18158   0.054   4.523   2.919 -0.0297  0.1141  0.3040
 5974SOL    HW118159   0.115   4.594   2.936  1.8237 -1.4989  0.6783
 5974SOL    HW218160   0.049   4.517   2.823 -0.8453  1.2322  0.2566
 5975SOL     OW18161   0.722   3.463   3.979  0.2317 -0.3907 -0.3455
 5975SOL    HW118162   0.749   3.544   3.935 -0.1674 -0.4017 -0.6217
 5975SOL    HW218163   0.631   3.450   3.951  0.5273 -1.3426 -0.9120
 5976SOL     OW18164   0.536   3.447   5.004  0.2204 -0.0365 -0.5110
 5976SOL    HW118165   0.572   3.454   5.092  0.3217 -3.8104 -0.0885
 5976SOL    HW218166   0.442   3.433   5.017  0.5000 -2.6029 -0.7595
 5977SOL     OW18167   4.898   5.537   0.581 -0.4472 -0.0470 -0.4193
 5977SOL    HW118168   4.882   5.562   0.490 -0.0084 -0.2099 -0.5439
 5977SOL    HW218169   4.958   5.604   0.614  0.3085 -0.6288 -0.5968
 5978SOL     OW18170   2.280   2.330   0.612 -0.3253 -0.3625 -0.2028
 5978SOL    HW118171   2.209   2.389   0.587  1.0074  1.3793 -0.0991
 5978SOL    HW218172   2.360   2.377   0.587  0.8350 -1.7080  0.8041
 5979SOL     OW18173   5.732   0.849   3.173 -0.2308 -0.1968  0.4188
 5979SOL    HW118174   5.803   0.827   3.112  0.9865  0.9659  1.3538
 5979SOL    HW218175   5.717   0.768   3.222  0.4565 -0.4473  0.2310
 5980SOL     OW18176   1.138   5.408   0.225 -0.0379  0.3006 -0.3027
 5980SOL    HW118177   1.055   5.441   0.191 -0.4760 -1.6381 -1.2499
 5980SOL    HW218178   1.120   5.317   0.247  1.9153 -0.2604 -0.8281
 5981SOL     OW18179   5.336   2.492   6.101 -0.0013 -0.0594 -0.2230
 5981SOL    HW118180   5.283   2.475   6.179 -1.7836 -1.2200 -1.5775
 5981SOL    HW218181   5.283   2.554   6.050  2.1351  2.4548  0.3751
 5982SOL     OW18182   2.934   3.585   5.989 -0.0981 -0.4690 -0.0741
 5982SOL    HW118183   2.920   3.565   5.896 -0.8019  0.2975 -0.1491
 5982SOL    HW218184   2.966   3.503   6.026  1.7643 -0.3432 -1.2943
 5983SOL     OW18185   1.022   0.266   2.809 -0.5964  0.6187 -0.0239
 5983SOL    HW118186   0.996   0.313   2.730  0.3734  0.6001 -0.3645
 5983SOL    HW218187   1.118   0.271   2.809 -0.5930  0.9493  1.3423
 5984SOL     OW18188   3.402   0.771   5.702  0.6657  0.4077 -0.0915
 5984SOL    HW118189   3.469   0.839   5.712 -0.0861  1.3153 -1.0032
 5984SOL    HW218190   3.329   0.801   5.756  0.8304 -0.3824  0.5910
 5985SOL     OW18191   1.430   3.310   2.442 -0.2499  0.3998 -0.0721
 5985SOL    HW118192   1.453   3.403   2.451  0.0864  0.1354  3.0587
 5985SOL    HW218193   1.506   3.263   2.478 -1.2880 -0.9722  0.4285
 5986SOL     OW18194   5.648   4.004   5.221  0.2090 -0.0155 -0.0210
 5986SOL    HW118195   5.640   3.917   5.180 -0.9067 -0.2678  0.6756
 5986SOL    HW218196   5.575   4.054   5.185 -0.2670  0.0331  0.9741
 5987SOL     OW18197   2.055   4.935   2.425 -0.3200 -0.6672 -0.2232
 5987SOL    HW118198   1.960   4.939   2.441 -0.2685  0.4272 -0.1076
 5987SOL    HW218199   2.070   4.848   2.389 -1.4632 -0.6160 -0.8529
 5988SOL     OW18200   1.003   2.369   4.383  0.2582 -0.2647 -0.4451
 5988SOL    HW118201   0.961   2.439   4.333 -0.7153 -0.3284  0.2386
 5988SOL    HW218202   0.976   2.289   4.339  1.0592 -0.2279 -1.0039
 5989SOL     OW18203   5.505   5.640   4.133  0.1653 -0.1196 -0.5064
 5989SOL    HW118204   5.564   5.604   4.067 -1.4711 -0.9421 -1.5698
 5989SOL    HW218205   5.419   5.607   4.110 -0.4159 -0.9719  2.4125
 5990SOL     OW18206   4.111   5.854   3.765 -0.2774 -0.8024 -0.2561
 5990SOL    HW118207   4.037   5.892   3.719  0.7331 -0.4710 -1.6869
 5990SOL    HW218208   4.104   5.886   3.855 -2.3308 -1.5012 -0.1270
 5991SOL     OW18209   1.412   3.321   3.982 -0.1534  0.9934 -0.5601
 5991SOL    HW118210   1.423   3.227   3.968  0.9961  1.4144 -2.8632
 5991SOL    HW218211   1.500   3.353   4.000 -0.7357  1.4854  1.8329
 5992SOL     OW18212   0.342   4.853   0.192 -0.0820 -0.0843 -0.1664
 5992SOL    HW118213   0.435   4.835   0.178  0.0348  1.3286 -1.4591
 5992SOL    HW218214   0.331   4.945   0.167 -1.2704  0.6967  2.7635
 5993SOL     OW18215   4.456   3.591   5.473 -0.4134 -0.4395 -0.1147
 5993SOL    HW118216   4.521   3.621   5.537  0.2502 -1.0821 -0.4706
 5993SOL    HW218217   4.372   3.599   5.518 -0.4678  2.9886 -0.5249
 5994SOL     OW18218   3.021   6.018   0.518  0.0483  0.6668  0.3654
 5994SOL    HW118219   2.972   6.077   0.460 -2.0284  0.1807  1.5157
 5994SOL    HW218220   2.995   5.930   0.490  1.4248  0.3340  0.0790
 5995SOL     OW18221   4.186   3.868   4.567  0.1804  0.0252 -0.4150
 5995SOL    HW118222   4.235   3.869   4.484  1.7076 -0.1648  0.4445
 5995SOL    HW218223   4.237   3.809   4.623  0.1616  1.5008  1.2317
 5996SOL     OW18224   0.272   3.293   4.737 -0.3865  0.0376 -0.1213
 5996SOL    HW118225   0.252   3.211   4.692 -0.9140  0.8003 -1.2911
 5996SOL    HW218226   0.341   3.334   4.684 -0.9345  0.8908 -0.1850
 5997SOL     OW18227   4.846   4.368   1.528 -0.1098  0.2300 -0.5033
 5997SOL    HW118228   4.890   4.426   1.591 -0.7251  0.7837 -0.5765
 5997SOL    HW218229   4.754   4.393   1.533 -0.0980  0.6620 -2.0205
 5998SOL     OW18230   2.277   4.483   3.371  0.0296 -0.0935  0.5606
 5998SOL    HW118231   2.295   4.565   3.418  0.5107  0.0608  0.1245
 5998SOL    HW218232   2.201   4.446   3.414 -1.5137  1.6314 -0.5263
 5999SOL     OW18233   3.699   4.236   4.526 -0.1902  0.1089  0.0053
 5999SOL    HW118234   3.755   4.173   4.571  1.0830  0.8055 -0.5479
 5999SOL    HW218235   3.633   4.182   4.483 -1.1493 -0.6064  2.2294
 6000SOL     OW18236   2.649   1.613   4.963  0.1625 -0.2518 -0.2041
 6000SOL    HW118237   2.623   1.698   4.997 -1.3137  0.9727 -3.7966
 6000SOL    HW218238   2.734   1.628   4.922  1.6120 -1.5150  2.1499
 6001SOL     OW18239   1.274   0.334   1.307  0.7529 -0.0636 -0.2927
 6001SOL    HW118240   1.272   0.426   1.334 -0.1943  0.3289 -1.6177
 6001SOL    HW218241   1.185   0.303   1.322  1.5073 -1.3842  2.0204
 6002SOL     OW18242   0.380   2.962   0.134  0.4076 -0.1940 -0.1536
 6002SOL    HW118243   0.474   2.969   0.152  0.3825 -0.3028  0.0235
 6002SOL    HW218244   0.338   2.993   0.215  0.2903  0.0978 -0.3251
 6003SOL     OW18245   2.514   3.404   0.856  0.0165  0.1515 -0.2759
 6003SOL    HW118246   2.605   3.377   0.846 -0.7407 -3.1248  0.4816
 6003SOL    HW218247   2.503   3.420   0.950 -0.3126  0.0464 -0.2946
 6004SOL     OW18248   2.872   1.700   4.211  0.4598  0.1060  0.6035
 6004SOL    HW118249   2.940   1.755   4.173  1.5231  0.3051  2.6563
 6004SOL    HW218250   2.803   1.761   4.237  0.8829  0.2747  1.3364
 6005SOL     OW18251   5.180   4.808   6.090  0.0936 -0.0934  0.1828
 6005SOL    HW118252   5.200   4.765   6.173  0.7348 -0.4331 -0.1441
 6005SOL    HW218253   5.091   4.780   6.069 -0.3614  0.5724  1.1062
 6006SOL     OW18254   1.084   4.148   1.747 -0.0855 -0.5514  0.1549
 6006SOL    HW118255   1.073   4.135   1.653 -1.9226  0.4922  0.1877
 6006SOL    HW218256   1.160   4.205   1.755 -0.5465  0.2040 -0.7574
 6007SOL     OW18257   1.908   5.810   0.236 -0.2382  0.1262 -0.1545
 6007SOL    HW118258   1.875   5.859   0.161  3.0116  0.6247 -1.4194
 6007SOL    HW218259   1.866   5.724   0.228  0.2939  0.0067 -2.8575
 6008SOL     OW18260   5.277   5.202   4.676  0.1584  0.0167 -0.1638
 6008SOL    HW118261   5.218   5.269   4.642  1.3050  0.7156 -0.8394
 6008SOL    HW218262   5.350   5.251   4.714  0.9609 -0.8400 -0.5627
 6009SOL     OW18263   3.116   1.799   5.608  0.1917  0.5840  0.0266
 6009SOL    HW118264   3.133   1.740   5.534 -1.8630  0.6813 -0.5906
 6009SOL    HW218265   3.070   1.744   5.672 -0.7038  1.2112 -0.0636
 6010SOL     OW18266   2.628   4.770   2.090 -0.6276  0.5069  0.4827
 6010SOL    HW118267   2.649   4.793   1.999 -0.9543  1.7161  0.7046
 6010SOL    HW218268   2.548   4.719   2.083  0.5505 -1.3705 -0.0883
 6011SOL     OW18269   5.639   3.265   0.824  0.6493  0.4350  0.0028
 6011SOL    HW118270   5.581   3.265   0.748  2.3809  0.4621 -1.3599
 6011SOL    HW218271   5.580   3.278   0.898 -1.2758 -1.0477 -1.1649
 6012SOL     OW18272   1.114   3.500   5.590 -0.1000  0.5339  0.2197
 6012SOL    HW118273   1.119   3.421   5.536 -0.8482 -0.3805  1.4030
 6012SOL    HW218274   1.063   3.562   5.538 -0.0347  0.0120 -0.4808
 6013SOL     OW18275   2.111   0.833   4.095  0.3910  0.2032 -0.5024
 6013SOL    HW118276   2.149   0.827   4.007  1.2840 -0.1257 -0.1010
 6013SOL    HW218277   2.024   0.869   4.080  0.9090  1.1483 -1.4374
 6014SOL     OW18278   4.364   2.087   3.086  0.4340  0.1480  0.2032
 6014SOL    HW118279   4.297   2.029   3.123  1.6149 -0.9544  0.7201
 6014SOL    HW218280   4.388   2.145   3.159  0.2499  0.3481  0.1049
 6015SOL     OW18281   5.991   5.965   3.914  0.4643 -0.3293 -0.4244
 6015SOL    HW118282   6.022   5.899   3.852 -1.1274 -0.1009 -1.5387
 6015SOL    HW218283   6.039   6.045   3.890  0.3142 -0.3974 -0.9716
 6016SOL     OW18284   5.694   0.450   2.257  0.8903 -0.3685 -0.7781
 6016SOL    HW118285   5.737   0.520   2.208  0.9041  1.3268  1.4853
 6016SOL    HW218286   5.602   0.455   2.230  1.0044  0.1013 -1.0890
 6017SOL     OW18287   5.059   2.789   6.078  0.1400  0.2933 -0.3371
 6017SOL    HW118288   4.966   2.780   6.102 -0.0460 -0.4606 -1.2533
 6017SOL    HW218289   5.071   2.726   6.007  1.6405 -0.4358  0.5181
 6018SOL     OW18290   0.799   0.497   3.380  0.7966  0.0341  0.5835
 6018SOL    HW118291   0.707   0.476   3.364  0.8592 -2.6654  3.0894
 6018SOL    HW218292   0.797   0.556   3.456  1.1544  0.6412  0.1366
 6019SOL     OW18293   2.734   4.567   1.093 -0.2306 -0.4219  0.0666
 6019SOL    HW118294   2.695   4.492   1.048 -2.5475  0.5007  0.3654
 6019SOL    HW218295   2.710   4.642   1.039 -0.6985  0.4035  1.3627
 6020SOL     OW18296   0.015   1.822   1.280 -0.1032  0.5156  0.2979
 6020SOL    HW118297  -0.050   1.798   1.214 -0.9237  1.1952  0.8312
 6020SOL    HW218298   0.052   1.739   1.308 -3.2676 -0.3362  2.4911
 6021SOL     OW18299   3.961   1.207   1.255 -0.1849 -0.2233 -0.1245
 6021SOL    HW118300   3.964   1.302   1.268 -0.3415 -0.3740  1.0243
 6021SOL    HW218301   4.029   1.173   1.313  0.2550 -0.7901 -0.9389
 6022SOL     OW18302   2.947   4.374   0.411 -0.7841 -0.2735  0.1525
 6022SOL    HW118303   3.014   4.441   0.421  0.8797 -1.1818 -3.2277
 6022SOL    HW218304   2.961   4.313   0.483  1.8491 -0.2338 -0.2536
 6023SOL     OW18305   3.212   1.938   2.603 -0.0262 -0.7220 -0.0405
 6023SOL    HW118306   3.131   1.972   2.642 -0.6105  0.1229 -1.8856
 6023SOL    HW218307   3.186   1.853   2.567  0.0449 -0.6978 -0.1483
 6024SOL     OW18308   1.077   0.486   5.256  0.0598  0.3754 -0.5381
 6024SOL    HW118309   1.063   0.577   5.230 -1.5526  0.4618  0.5344
 6024SOL    HW218310   1.046   0.481   5.346 -1.0520 -1.5000 -0.9713
 6025SOL     OW18311   0.250   3.709   0.567  0.8192  0.7328  0.1789
 6025SOL    HW118312   0.179   3.752   0.615 -0.5312  2.0025 -2.6567
 6025SOL    HW218313   0.223   3.617   0.563  1.0994  0.5485  1.9760
 6026SOL     OW18314   0.525   5.999   0.794 -0.4024 -0.0157  0.3628
 6026SOL    HW118315   0.610   5.963   0.768 -0.3463  1.3175 -1.4919
 6026SOL    HW218316   0.521   5.985   0.888  1.8826 -0.1233  0.4995
 6027SOL     OW18317   1.916   0.092   6.105 -0.3672  0.9056 -0.9158
 6027SOL    HW118318   1.997   0.105   6.055  0.5209 -1.0285 -0.1014
 6027SOL    HW218319   1.917   0.162   6.170 -0.0550  1.7225 -1.7766
 6028SOL     OW18320   3.805   0.682   1.135  0.2305 -0.0386 -0.2034
 6028SOL    HW118321   3.861   0.759   1.145 -0.2775  0.3444 -0.2380
 6028SOL    HW218322   3.830   0.645   1.050  0.0410  0.4538 -0.4781
 6029SOL     OW18323   4.610   4.452   5.291  0.5702  0.2153 -0.2469
 6029SOL    HW118324   4.579   4.442   5.200 -1.3230  1.4668  0.2139
 6029SOL    HW218325   4.659   4.372   5.307  0.1148 -0.4997 -2.0671
 6030SOL     OW18326   0.265   3.316   5.014 -0.0207 -0.6849  0.0297
 6030SOL    HW118327   0.176   3.310   5.049 -0.8994 -2.2666 -2.2350
 6030SOL    HW218328   0.257   3.286   4.923  2.2286  2.2209 -1.3178
 6031SOL     OW18329   1.810   1.275   5.586 -0.2066 -0.3904 -0.3814
 6031SOL    HW118330   1.868   1.251   5.514  0.1858  1.6946 -0.8255
 6031SOL    HW218331   1.724   1.240   5.561 -0.2253  0.8528 -2.2104
 6032SOL     OW18332   3.513   5.892   0.587 -0.2727  0.3351  0.2477
 6032SOL    HW118333   3.467   5.944   0.521 -0.2593  0.8754  0.6600
 6032SOL    HW218334   3.584   5.948   0.617 -0.0274 -0.0653  0.4310
 6033SOL     OW18335   3.086   0.147   4.344  0.0126 -0.5361  0.2841
 6033SOL    HW118336   3.038   0.159   4.426 -0.3774 -2.0867  0.3131
 6033SOL    HW218337   3.019   0.150   4.276  0.3398  0.7888 -0.0149
 6034SOL     OW18338   1.087   3.733   5.413  0.2643  0.1981 -0.2449
 6034SOL    HW118339   1.013   3.753   5.355  0.0864  1.0944  0.2693
 6034SOL    HW218340   1.141   3.812   5.412  1.6621 -0.7209 -1.2289
 6035SOL     OW18341   4.594   0.928   0.002 -0.5060  0.4458 -0.1819
 6035SOL    HW118342   4.594   0.927  -0.094  1.0812  1.4683 -0.2320
 6035SOL    HW218343   4.542   1.005   0.025  0.1975  0.9708 -0.2881
 6036SOL     OW18344   3.761   4.005   1.585  0.3226  0.4989 -0.1776
 6036SOL    HW118345   3.799   4.068   1.524  1.7639  0.6949  0.8693
 6036SOL    HW218346   3.830   3.940   1.599 -1.0162 -1.1904 -0.9863
 6037SOL     OW18347   3.127   1.811   2.242  0.3964 -0.5416  0.7185
 6037SOL    HW118348   3.112   1.789   2.333 -0.1268 -0.2235  0.7102
 6037SOL    HW218349   3.135   1.726   2.197  0.3778 -0.6958  1.0089
 6038SOL     OW18350   2.867   0.501   4.257  0.0905  0.0578 -0.2391
 6038SOL    HW118351   2.785   0.482   4.211  0.5567 -1.1245 -0.6134
 6038SOL    HW218352   2.867   0.440   4.331 -0.3473  1.5000  1.0104
 6039SOL     OW18353   2.969   4.587   1.638  0.3096  0.2015 -0.2560
 6039SOL    HW118354   2.937   4.579   1.548 -0.8415 -0.0482  0.1653
 6039SOL    HW218355   3.015   4.505   1.654  0.9632  0.4538 -0.7740
 6040SOL     OW18356   3.739   1.715   1.070 -0.3441 -0.5387  0.4107
 6040SOL    HW118357   3.808   1.673   1.019  1.5009  1.0077  1.4877
 6040SOL    HW218358   3.666   1.724   1.008  0.4086 -2.1820 -0.7829
 6041SOL     OW18359   3.503   5.502   1.923 -0.0101  0.2966 -0.3838
 6041SOL    HW118360   3.566   5.472   1.990 -2.6072 -1.1655  1.6236
 6041SOL    HW218361   3.473   5.587   1.955  0.5441  0.7548 -1.0630
 6042SOL     OW18362   2.742   5.727   0.725 -0.2221 -0.0139  0.1087
 6042SOL    HW118363   2.801   5.741   0.799 -0.2558 -1.2264  0.3864
 6042SOL    HW218364   2.713   5.636   0.735  0.6984 -0.5966 -2.0419
 6043SOL     OW18365   0.015   2.646   3.832  0.3272  0.4643 -0.2524
 6043SOL    HW118366   0.041   2.704   3.903  0.1908 -0.1182  0.2835
 6043SOL    HW218367   0.094   2.595   3.813 -0.0688 -0.4703  0.5581
 6044SOL     OW18368   4.614   4.668   1.715 -0.4568  0.8182 -0.7526
 6044SOL    HW118369   4.569   4.743   1.753  1.0667  1.4431 -0.0757
 6044SOL    HW218370   4.555   4.635   1.647 -2.4693  0.7839  0.9288
 6045SOL     OW18371   2.894   3.080   3.365 -0.1022  0.2681 -0.3281
 6045SOL    HW118372   2.809   3.050   3.334  0.8173 -1.0357 -1.7316
 6045SOL    HW218373   2.951   3.003   3.358  0.7769  0.5404  2.4189
 6046SOL     OW18374   0.381   4.146   4.101 -0.3858 -0.4600 -0.4805
 6046SOL    HW118375   0.372   4.068   4.156  0.8931  0.0634  0.5203
 6046SOL    HW218376   0.335   4.215   4.151 -0.5683 -0.3222 -0.8347
 6047SOL     OW18377   4.448   0.146   2.975  0.2517 -0.4158 -0.3125
 6047SOL    HW118378   4.532   0.192   2.965  1.3718 -2.5123 -1.2412
 6047SOL    HW218379   4.430   0.111   2.888  0.0501 -2.5945  0.5309
 6048SOL     OW18380   0.919   2.323   0.649  0.0913  0.6523  0.4114
 6048SOL    HW118381   0.836   2.293   0.686  0.9743 -0.9966  1.1958
 6048SOL    HW218382   0.969   2.355   0.725  0.3505  1.2131  0.0108
 6049SOL     OW18383   0.914   5.989   4.253 -0.0757 -0.0682  0.6029
 6049SOL    HW118384   0.855   6.011   4.182 -0.8303 -1.7024  0.6784
 6049SOL    HW218385   0.872   5.915   4.298  0.7703  0.3880  2.2436
 6050SOL     OW18386   5.884   1.650   5.370 -0.0292 -0.7548  0.1399
 6050SOL    HW118387   5.792   1.645   5.343  0.1041  1.2950 -0.9505
 6050SOL    HW218388   5.882   1.698   5.453  0.0957  0.3797 -0.4892
 6051SOL     OW18389   4.774   0.426   0.188  0.0375  0.0548  0.2981
 6051SOL    HW118390   4.794   0.444   0.280 -1.7863 -0.3112  0.8081
 6051SOL    HW218391   4.702   0.487   0.167 -1.3887 -1.6614 -0.0495
 6052SOL     OW18392   2.062   2.928   2.582  0.1936 -0.3576 -0.2948
 6052SOL    HW118393   2.014   2.897   2.659 -0.6473 -1.4845 -1.2256
 6052SOL    HW218394   2.130   2.862   2.568 -0.0747 -0.5167 -0.8887
 6053SOL     OW18395   2.046   0.924   0.324 -0.0670  0.7140  0.7825
 6053SOL    HW118396   2.006   1.008   0.347 -0.2600  0.5447  1.0713
 6053SOL    HW218397   2.132   0.926   0.364  0.2278  1.0848  0.1490
 6054SOL     OW18398   4.922   3.695   5.613 -0.4794 -0.5065 -0.3820
 6054SOL    HW118399   4.996   3.641   5.644 -0.7158 -1.4231 -1.3425
 6054SOL    HW218400   4.961   3.779   5.591 -0.1809 -0.0521  1.6564
 6055SOL     OW18401   3.387   0.810   2.189 -0.6097  0.1930 -0.1266
 6055SOL    HW118402   3.338   0.757   2.126  1.0740  0.1747 -1.4750
 6055SOL    HW218403   3.336   0.891   2.196 -0.1167  0.8100 -2.6763
 6056SOL     OW18404   0.850   3.227   1.743 -0.4176 -0.3266  0.0376
 6056SOL    HW118405   0.927   3.171   1.753 -0.2227  0.1162  1.1075
 6056SOL    HW218406   0.796   3.182   1.678 -0.0652 -1.5287  0.5523
 6057SOL     OW18407   2.047   1.566   5.380  0.6843  0.3942  0.0803
 6057SOL    HW118408   2.004   1.638   5.334  0.7845 -0.4018 -1.3339
 6057SOL    HW218409   1.985   1.493   5.373  0.6919  0.2576  1.2668
 6058SOL     OW18410   2.142   1.267   1.295  0.1272  0.5594  0.0527
 6058SOL    HW118411   2.228   1.224   1.296 -0.3397 -0.4482  1.4521
 6058SOL    HW218412   2.102   1.240   1.213  0.4198 -0.5466  0.2608
 6059SOL     OW18413   5.837   3.240   2.268  0.2338 -0.0986  0.1851
 6059SOL    HW118414   5.812   3.235   2.360 -1.5497 -2.1249 -0.3122
 6059SOL    HW218415   5.906   3.174   2.259  0.3630  0.0528  0.0749
 6060SOL     OW18416   5.164   1.456   0.907 -0.1587 -0.1101 -0.0511
 6060SOL    HW118417   5.183   1.372   0.864 -0.4688  0.1640 -0.7296
 6060SOL    HW218418   5.073   1.448   0.936 -0.2667  0.0943 -0.3418
 6061SOL     OW18419   4.166   3.107   2.174  0.0073 -0.0948  0.3352
 6061SOL    HW118420   4.156   3.082   2.265 -1.4153 -2.3812 -0.3771
 6061SOL    HW218421   4.086   3.155   2.153  0.0460 -0.1194  0.1261
 6062SOL     OW18422   3.753   2.820   3.853 -0.0224 -0.2496 -0.0511
 6062SOL    HW118423   3.764   2.895   3.795 -0.0475 -1.9797 -2.4143
 6062SOL    HW218424   3.660   2.821   3.876  0.0875  0.7277  0.4378
 6063SOL     OW18425   1.016   5.516   1.903  0.6197  0.5473 -0.2229
 6063SOL    HW118426   0.957   5.529   1.829 -0.0272  0.0443  0.1936
 6063SOL    HW218427   0.959   5.518   1.980  1.2078  0.4917  0.2278
 6064SOL     OW18428   2.943   1.393   4.564 -0.0556  0.0745  0.4874
 6064SOL    HW118429   2.982   1.328   4.506  0.8840  1.4764 -0.5311
 6064SOL    HW218430   2.965   1.363   4.653  0.7103 -0.7619  0.0263
 6065SOL     OW18431   3.343   5.553   3.416 -0.3774  0.1013 -0.1700
 6065SOL    HW118432   3.372   5.601   3.493 -0.7415 -0.5904  0.4170
 6065SOL    HW218433   3.324   5.465   3.448 -3.4117  0.5595 -0.3935
 6066SOL     OW18434   5.349   0.990   4.848 -0.4207  0.2932  0.0883
 6066SOL    HW118435   5.419   0.982   4.784  0.2008  0.9333  0.6798
 6066SOL    HW218436   5.279   0.934   4.814  0.6882 -1.0385 -0.0740
 6067SOL     OW18437   4.871   5.967   2.853 -0.4819 -0.0859 -0.0309
 6067SOL    HW118438   4.878   6.040   2.791 -0.0130 -0.1560 -0.0578
 6067SOL    HW218439   4.813   6.000   2.922  0.1349  0.4897  0.2153
 6068SOL     OW18440   4.566   1.735   1.363 -0.8081  0.2437  0.1048
 6068SOL    HW118441   4.519   1.796   1.421 -2.1518  1.1860 -1.8501
 6068SOL    HW218442   4.498   1.699   1.307  0.4107 -0.8661 -0.7026
 6069SOL     OW18443   1.156   4.256   4.244  0.5770 -0.6268 -0.3014
 6069SOL    HW118444   1.130   4.166   4.227  0.3690 -0.5503 -0.3900
 6069SOL    HW218445   1.191   4.254   4.333 -0.8574 -0.4983  0.2940
 6070SOL     OW18446   2.716   0.569   5.165 -0.2852  0.3374 -0.1157
 6070SOL    HW118447   2.693   0.655   5.131 -1.2925  0.0050 -0.3379
 6070SOL    HW218448   2.648   0.511   5.130  1.5056 -0.9392 -1.6547
 6071SOL     OW18449   0.177   4.044   0.984 -0.4338 -0.2128  0.2051
 6071SOL    HW118450   0.105   4.069   1.042 -0.4976 -2.1252  1.0067
 6071SOL    HW218451   0.138   4.041   0.897 -0.7907  0.8037  0.3111
 6072SOL     OW18452   0.492   3.791   5.614  0.1688  0.4018  0.2351
 6072SOL    HW118453   0.490   3.857   5.683 -0.5243 -0.0714  0.6818
 6072SOL    HW218454   0.577   3.802   5.572  0.8297  0.3291  1.5119
 6073SOL     OW18455   6.147   4.448   2.191 -0.0807 -0.5779  0.0107
 6073SOL    HW118456   6.107   4.513   2.133  1.0504  0.5830  0.4823
 6073SOL    HW218457   6.077   4.423   2.251 -1.0159 -1.1304 -1.2765
 6074SOL     OW18458   1.780   5.390   5.197  0.0714  0.0390  0.0583
 6074SOL    HW118459   1.690   5.415   5.173  0.5235  0.1255 -1.7255
 6074SOL    HW218460   1.791   5.423   5.286 -1.2324  1.2125 -0.1725
 6075SOL     OW18461   3.604   2.746   4.347 -0.2353  0.0068 -0.3353
 6075SOL    HW118462   3.605   2.723   4.254  1.6135  0.0495 -0.3592
 6075SOL    HW218463   3.591   2.662   4.392  1.3994 -0.4355 -0.5936
 6076SOL     OW18464   5.753   4.800   0.591  0.2335  0.2231  0.6243
 6076SOL    HW118465   5.847   4.803   0.606  0.3554  0.0495 -0.0730
 6076SOL    HW218466   5.723   4.724   0.640  0.8021 -1.0435 -0.9284
 6077SOL     OW18467   0.505   3.580   0.846  0.3275 -0.5054 -0.1980
 6077SOL    HW118468   0.439   3.646   0.866  0.2545  0.1605 -2.4259
 6077SOL    HW218469   0.567   3.585   0.919  1.5018  3.5873 -1.2257
 6078SOL     OW18470   4.055   4.473   3.691  0.5700  0.1360  0.5748
 6078SOL    HW118471   4.072   4.566   3.701  0.2874  0.2449  0.0863
 6078SOL    HW218472   4.059   4.438   3.780  1.3214  0.4987  0.6903
 6079SOL     OW18473   5.562   4.687   5.419 -0.3453 -0.4662  0.3705
 6079SOL    HW118474   5.646   4.683   5.465 -0.9220 -2.8708  1.3485
 6079SOL    HW218475   5.559   4.777   5.385  2.2061 -0.0249  1.0250
 6080SOL     OW18476   3.133   0.850   2.981  0.1821  0.4058  0.7453
 6080SOL    HW118477   3.055   0.886   3.022  1.3491  2.4561  1.2848
 6080SOL    HW218478   3.203   0.865   3.045  1.2064 -0.4403 -0.1465
 6081SOL     OW18479   1.060   5.450   5.711 -0.1091 -0.6946 -0.3817
 6081SOL    HW118480   1.021   5.411   5.633 -1.9017 -1.9112  1.0449
 6081SOL    HW218481   0.994   5.439   5.779  1.9661 -1.0454  1.6991
 6082SOL     OW18482   0.429   2.458   1.273 -0.1904 -1.0168  0.5501
 6082SOL    HW118483   0.439   2.476   1.180 -0.2359 -3.4724  0.0142
 6082SOL    HW218484   0.355   2.398   1.279  0.1163 -1.3013  2.1197
 6083SOL     OW18485   0.883   4.450   1.903 -0.1680 -0.0056 -0.0063
 6083SOL    HW118486   0.796   4.418   1.876  0.6433 -1.5499 -0.9505
 6083SOL    HW218487   0.909   4.510   1.833 -0.4973  0.5354  0.3270
 6084SOL     OW18488   3.785   2.479   1.738  0.1450 -0.0407 -0.1216
 6084SOL    HW118489   3.799   2.391   1.702  2.0669 -0.8197  2.2760
 6084SOL    HW218490   3.865   2.498   1.787 -0.7996  2.4810  0.6033
 6085SOL     OW18491   2.468   3.390   5.701  0.3952 -0.0399 -0.0180
 6085SOL    HW118492   2.400   3.326   5.680  0.3917  0.0041 -0.1419
 6085SOL    HW218493   2.441   3.470   5.656  0.6794 -0.1059 -0.3139
 6086SOL     OW18494   0.712   5.499   4.581 -0.2141 -0.2627  0.0649
 6086SOL    HW118495   0.779   5.471   4.519  0.9201  0.5642  0.8761
 6086SOL    HW218496   0.649   5.427   4.583  0.6158 -1.0304 -0.7579
 6087SOL     OW18497   1.623   3.655   3.629 -0.5344  0.0417  0.4483
 6087SOL    HW118498   1.691   3.690   3.687 -0.5811 -0.8465  1.0478
 6087SOL    HW218499   1.560   3.726   3.620 -0.7388  0.0539  1.8236
 6088SOL     OW18500   2.066   4.404   4.147 -0.3825 -0.2823  0.5728
 6088SOL    HW118501   2.153   4.395   4.185 -0.5036  1.8578  1.5115
 6088SOL    HW218502   2.079   4.460   4.071 -0.9156 -0.0873  0.6231
 6089SOL     OW18503   4.251   0.517   2.356  0.1955  0.0389  0.4348
 6089SOL    HW118504   4.173   0.534   2.408  0.0650  0.2418  0.1723
 6089SOL    HW218505   4.235   0.431   2.315 -0.1764  0.3781 -0.1428
 6090SOL     OW18506   3.208   0.556   0.928 -0.3146  0.3139 -0.6320
 6090SOL    HW118507   3.156   0.618   0.980 -1.4616 -0.8683 -0.3256
 6090SOL    HW218508   3.238   0.608   0.853  1.7008  2.1781  1.3072
 6091SOL     OW18509   4.776   1.088   2.535  0.3122 -0.0926 -0.6789
 6091SOL    HW118510   4.721   1.075   2.458 -0.3412  1.3225 -0.4969
 6091SOL    HW218511   4.796   1.000   2.567 -1.8000 -0.6697 -0.7973
 6092SOL     OW18512   3.596   0.176   0.558  0.0424  0.1501  0.2144
 6092SOL    HW118513   3.590   0.108   0.625 -0.1285  0.8198  0.8817
 6092SOL    HW218514   3.653   0.138   0.491 -3.1033 -2.2474 -1.3690
 6093SOL     OW18515   1.151   0.109   0.979 -0.0342  0.0676  0.0718
 6093SOL    HW118516   1.094   0.185   0.996  1.2413  0.7946  1.3055
 6093SOL    HW218517   1.107   0.037   1.024 -1.8653 -0.2609 -2.0714
 6094SOL     OW18518   3.267   5.107   3.267  0.4107  0.1376 -0.3299
 6094SOL    HW118519   3.301   5.082   3.181 -1.1510  2.4706 -1.7217
 6094SOL    HW218520   3.175   5.082   3.265  0.4914 -0.3894  0.9783
 6095SOL     OW18521   4.939   4.564   4.301  0.4439 -0.5073  0.2423
 6095SOL    HW118522   4.927   4.647   4.347  0.6941 -0.5819  0.4411
 6095SOL    HW218523   4.925   4.497   4.367  2.9239 -0.6081  0.7731
 6096SOL     OW18524   0.148   0.437   6.005 -0.0983  1.0532 -0.4370
 6096SOL    HW118525   0.071   0.456   6.058 -0.0940 -1.2766  0.5089
 6096SOL    HW218526   0.179   0.352   6.036  1.3175  0.6961 -2.5675
 6097SOL     OW18527   3.693   2.165   2.711  0.2642  0.6478  0.5789
 6097SOL    HW118528   3.617   2.110   2.690  0.2173  0.5311  1.0386
 6097SOL    HW218529   3.662   2.254   2.700  0.4925  0.5857 -0.6986
 6098SOL     OW18530   3.075   4.302   2.507 -0.5397  0.0067 -0.0849
 6098SOL    HW118531   3.006   4.276   2.568 -2.2132  0.5945 -1.6501
 6098SOL    HW218532   3.064   4.244   2.432  0.1421  0.6823 -0.7236
 6099SOL     OW18533   4.658   1.098   5.051 -0.4314  0.2517 -0.4898
 6099SOL    HW118534   4.741   1.072   5.090 -0.1064  1.4267 -0.3579
 6099SOL    HW218535   4.647   1.041   4.975  1.1891  1.0141 -1.3349
 6100SOL     OW18536   0.569   1.536   2.359  0.4375 -0.4950 -0.1828
 6100SOL    HW118537   0.652   1.534   2.312  0.1124 -0.5655 -0.7614
 6100SOL    HW218538   0.586   1.591   2.436  1.0375 -0.5768 -0.2520
 6101SOL     OW18539   2.849   0.221   2.986 -0.1248 -0.2914 -0.8497
 6101SOL    HW118540   2.793   0.293   3.014 -0.9845 -1.7563  1.5606
 6101SOL    HW218541   2.926   0.228   3.043  1.1313  0.3535 -2.5661
 6102SOL     OW18542   4.855   0.949   6.092 -0.1144  0.5818 -0.8259
 6102SOL    HW118543   4.905   0.889   6.037  1.1560  1.0859 -0.2636
 6102SOL    HW218544   4.766   0.914   6.091  0.7423 -1.8177  0.1592
 6103SOL     OW18545   1.745   5.428   5.460 -0.3344  0.3306 -0.2459
 6103SOL    HW118546   1.829   5.447   5.502  1.2847 -2.9413 -1.6523
 6103SOL    HW218547   1.724   5.338   5.488 -0.6814 -0.8692 -3.8694
 6104SOL     OW18548   5.585   0.779   6.133  0.1958 -0.3370 -0.4542
 6104SOL    HW118549   5.536   0.827   6.200  1.2813 -0.1975  0.2609
 6104SOL    HW218550   5.677   0.785   6.160  0.7263  0.0911 -2.1875
 6105SOL     OW18551   3.584   0.416   0.401 -0.1795  0.6070  0.1271
 6105SOL    HW118552   3.673   0.439   0.375 -0.8192  1.0904 -1.8398
 6105SOL    HW218553   3.590   0.327   0.434  1.1528  0.9448  0.8365
 6106SOL     OW18554   5.977   5.510   5.047  0.1736  0.0725  0.2603
 6106SOL    HW118555   6.034   5.441   5.082  0.9338 -1.5127 -3.5795
 6106SOL    HW218556   6.025   5.591   5.061  1.8625 -0.8578  0.0845
 6107SOL     OW18557   5.731   0.238   1.450 -0.0982  0.1745 -0.4978
 6107SOL    HW118558   5.640   0.266   1.453  0.6480  2.9479 -1.1940
 6107SOL    HW218559   5.752   0.215   1.540 -1.6437 -1.2626 -0.4478
 6108SOL     OW18560   3.623   1.308   3.049 -0.2210 -0.6641  0.6472
 6108SOL    HW118561   3.530   1.304   3.026 -0.2464 -0.4858  0.7207
 6108SOL    HW218562   3.644   1.401   3.048 -0.2717 -0.6413  1.5634
 6109SOL     OW18563   3.969   3.840   1.597  0.0423  0.2061  0.1502
 6109SOL    HW118564   3.985   3.843   1.691  1.1435  1.3241 -0.0377
 6109SOL    HW218565   3.977   3.748   1.574  3.5376  0.2425  0.6003
 6110SOL     OW18566   4.119   5.513   6.114 -1.3267 -0.1906  0.0386
 6110SOL    HW118567   4.187   5.525   6.047 -1.4841 -0.3113 -0.1432
 6110SOL    HW218568   4.144   5.573   6.185  0.0444 -1.5907  0.8039
 6111SOL     OW18569   3.654   3.615   2.875  0.0894  0.3022  0.2477
 6111SOL    HW118570   3.645   3.542   2.814 -0.6603  2.4733 -2.4868
 6111SOL    HW218571   3.748   3.635   2.874  0.4797 -1.2221  1.8879
 6112SOL     OW18572   4.335   0.303   4.630 -0.1661  0.2853 -0.1687
 6112SOL    HW118573   4.389   0.225   4.617 -0.0384  0.5952 -1.6533
 6112SOL    HW218574   4.292   0.317   4.546 -2.3930  0.2134  0.8750
 6113SOL     OW18575   0.004   3.681   5.636  0.1023  0.0514 -0.3999
 6113SOL    HW118576  -0.011   3.628   5.714  0.7165  0.2215 -0.1563
 6113SOL    HW218577  -0.072   3.666   5.581 -0.4504  0.1125  0.3364
 6114SOL     OW18578   5.451   3.934   0.689 -0.3237  0.3236  0.4744
 6114SOL    HW118579   5.498   3.928   0.772 -1.9544 -0.2123  1.4135
 6114SOL    HW218580   5.516   3.963   0.626  1.0555  0.3485  1.8615
 6115SOL     OW18581   5.364   1.671   3.756  0.3852  0.0881 -0.0389
 6115SOL    HW118582   5.422   1.624   3.815 -0.1926 -0.8872 -0.2243
 6115SOL    HW218583   5.288   1.614   3.746 -1.4247  2.0436  1.5404
 6116SOL     OW18584   5.593   0.297   3.349  0.0342  0.2264  0.4409
 6116SOL    HW118585   5.663   0.233   3.362  1.6533  1.3270 -2.0280
 6116SOL    HW218586   5.551   0.270   3.267  0.1846  1.7704 -0.1820
 6117SOL     OW18587   2.290   4.968   2.315 -0.1310  0.3193  0.3634
 6117SOL    HW118588   2.208   4.953   2.363 -0.8641 -0.4040 -1.0708
 6117SOL    HW218589   2.277   4.926   2.230  1.2704  1.2506 -0.3591
 6118SOL     OW18590   5.779   0.531   3.044 -0.1563  0.3311 -0.0115
 6118SOL    HW118591   5.839   0.600   3.015 -0.1791 -0.7145 -2.8994
 6118SOL    HW218592   5.723   0.515   2.969 -1.9334 -1.0018  1.5086
 6119SOL     OW18593   0.122   3.774   1.150 -0.2775  0.2790  0.1193
 6119SOL    HW118594   0.027   3.780   1.151 -0.4952 -2.0165  1.8319
 6119SOL    HW218595   0.146   3.750   1.240  1.9789  1.2360 -0.1471
 6120SOL     OW18596   3.938   3.081   4.666  0.1498  0.5218  0.6891
 6120SOL    HW118597   3.894   3.152   4.619 -1.8532 -0.7592  0.5030
 6120SOL    HW218598   3.973   3.025   4.597 -0.3315  0.1036  0.7855
 6121SOL     OW18599   1.819   5.552   2.493 -0.5764  0.5103  0.3415
 6121SOL    HW118600   1.776   5.538   2.409 -1.0171  1.4427  0.4098
 6121SOL    HW218601   1.797   5.641   2.518  1.1629  0.9414  0.5098
 6122SOL     OW18602   2.086   2.489   4.037  0.3569  0.2831 -0.3674
 6122SOL    HW118603   2.102   2.555   3.969 -0.5248  0.7367 -0.1489
 6122SOL    HW218604   2.003   2.448   4.011 -0.1652  0.6909  0.5954
 6123SOL     OW18605   0.213   0.542   3.774 -0.0577  0.0568 -0.4626
 6123SOL    HW118606   0.269   0.467   3.793  0.8262  0.0317 -2.8284
 6123SOL    HW218607   0.229   0.602   3.848  1.7570 -0.6954 -0.1737
 6124SOL     OW18608   0.170   4.150   0.538  0.1490  0.0312 -0.1681
 6124SOL    HW118609   0.179   4.238   0.574  2.9181 -0.7000  1.2038
 6124SOL    HW218610   0.223   4.151   0.458  1.4742 -0.7791  0.6825
 6125SOL     OW18611   3.763   0.185   3.703 -0.8065  0.1898 -0.3033
 6125SOL    HW118612   3.694   0.195   3.638 -1.4665  0.2657  0.3964
 6125SOL    HW218613   3.832   0.136   3.658 -0.5845  1.5631 -1.5398
 6126SOL     OW18614   3.968   2.657   3.801  0.5384  0.6432 -0.1404
 6126SOL    HW118615   3.971   2.621   3.890 -0.2368 -0.6454 -0.6014
 6126SOL    HW218616   3.889   2.711   3.799 -0.8017 -1.2246 -0.6724
 6127SOL     OW18617   5.991   4.031   6.090  0.4096 -0.3501  0.2085
 6127SOL    HW118618   6.039   4.065   6.014  0.8667  1.2440  1.1789
 6127SOL    HW218619   5.972   4.108   6.143 -1.6763 -1.1855  0.7546
 6128SOL     OW18620   5.742   3.424   5.902  0.3975  0.2622  0.3229
 6128SOL    HW118621   5.774   3.492   5.961 -0.1451  0.4087  0.4561
 6128SOL    HW218622   5.671   3.466   5.854 -0.2848 -0.3586  0.7668
 6129SOL     OW18623   3.353   1.514   2.778  0.7684 -0.1515  0.3891
 6129SOL    HW118624   3.301   1.527   2.699 -0.0901  0.6290  1.0560
 6129SOL    HW218625   3.294   1.538   2.849  2.2320  1.3911  1.1555
 6130SOL     OW18626   0.230   3.093   0.610 -0.0965 -0.0689 -0.4640
 6130SOL    HW118627   0.321   3.068   0.626 -0.1752 -0.0069  0.0775
 6130SOL    HW218628   0.188   3.089   0.696 -0.9320 -1.4310 -0.9015
 6131SOL     OW18629   4.859   5.599   5.252 -0.4251  0.0590 -0.0916
 6131SOL    HW118630   4.936   5.607   5.195 -0.2301  3.5383  0.4074
 6131SOL    HW218631   4.895   5.572   5.336 -0.2722 -1.7268 -0.6859
 6132SOL     OW18632   0.043   2.132   0.076  0.3362 -0.1049  0.3200
 6132SOL    HW118633   0.029   2.070   0.004  1.1259  0.4119 -0.2984
 6132SOL    HW218634   0.020   2.217   0.038 -0.7700  0.0049  1.1691
 6133SOL     OW18635   5.638   1.744   2.570 -0.0570 -0.2461  0.4242
 6133SOL    HW118636   5.677   1.702   2.646 -1.0525 -0.0396  1.0783
 6133SOL    HW218637   5.547   1.714   2.570 -0.1315 -0.0617 -0.5564
 6134SOL     OW18638   0.816   4.548   4.661 -0.4040 -0.2729  0.1129
 6134SOL    HW118639   0.756   4.538   4.587  0.3424 -0.2569 -0.5084
 6134SOL    HW218640   0.848   4.638   4.654 -1.1429  0.0898  1.0978
 6135SOL     OW18641   3.712   0.357   2.713 -0.0204  0.0653  0.3401
 6135SOL    HW118642   3.683   0.269   2.740 -1.2617  0.6493  1.0042
 6135SOL    HW218643   3.784   0.377   2.773  0.6859 -0.7362 -0.2164
 6136SOL     OW18644   0.344   5.807   0.986  0.7162 -0.0408 -0.0654
 6136SOL    HW118645   0.373   5.841   1.071 -1.0423  0.4555  0.3807
 6136SOL    HW218646   0.250   5.792   0.998  0.8192 -1.9107 -1.3051
 6137SOL     OW18647   2.560   5.929   2.172  0.1947 -0.6184 -0.1499
 6137SOL    HW118648   2.467   5.954   2.175  0.4320  0.3335 -0.2984
 6137SOL    HW218649   2.580   5.924   2.078  0.1653 -1.3364 -0.1202
 6138SOL     OW18650   4.549   1.729   5.607 -0.0323  0.0850  0.8122
 6138SOL    HW118651   4.530   1.668   5.678 -2.2196  1.0245  1.1175
 6138SOL    HW218652   4.577   1.673   5.534  1.2316 -0.9711  2.0712
 6139SOL     OW18653   1.065   1.565   2.553 -0.5433 -0.2761 -0.3585
 6139SOL    HW118654   1.123   1.530   2.486 -0.5553 -0.2749 -0.3698
 6139SOL    HW218655   0.987   1.509   2.547 -0.7743  0.0788 -0.7331
 6140SOL     OW18656   0.811   3.291   5.707 -0.4839 -0.3706  0.4072
 6140SOL    HW118657   0.887   3.321   5.758  0.5149 -1.9045 -0.0994
 6140SOL    HW218658   0.776   3.217   5.758 -0.5448 -0.8009 -0.2476
 6141SOL     OW18659   5.825   2.213   5.245 -0.6135  0.0147  0.7939
 6141SOL    HW118660   5.863   2.299   5.225 -0.8498 -0.2678 -1.0742
 6141SOL    HW218661   5.736   2.233   5.275 -1.3952  0.4275 -1.5123
 6142SOL     OW18662   2.655   0.480   1.808 -0.4928 -0.2566  0.1375
 6142SOL    HW118663   2.728   0.528   1.847 -0.3079 -0.4879  0.0802
 6142SOL    HW218664   2.682   0.463   1.718 -0.4134 -0.7446  0.2459
 6143SOL     OW18665   1.554   3.273   5.133 -0.4581  0.0054 -0.0864
 6143SOL    HW118666   1.645   3.254   5.157 -1.0370 -1.0523  1.3938
 6143SOL    HW218667   1.541   3.364   5.156 -0.1926 -0.2506  1.1168
 6144SOL     OW18668   5.531   5.076   0.201 -0.2387  0.3074 -0.2653
 6144SOL    HW118669   5.601   5.054   0.262 -0.2388 -0.7519 -0.6421
 6144SOL    HW218670   5.575   5.120   0.128 -0.3341  2.3820  0.8511
 6145SOL     OW18671   6.038   5.552   1.990  0.0234 -0.3493 -0.0741
 6145SOL    HW118672   6.034   5.631   1.936  4.6617 -0.3429 -0.7600
 6145SOL    HW218673   6.034   5.584   2.080  0.8420  0.5692 -0.3528
 6146SOL     OW18674   5.552   1.282   5.298  0.0916 -0.3266 -0.2015
 6146SOL    HW118675   5.604   1.361   5.291  1.1171 -1.0004 -0.4168
 6146SOL    HW218676   5.545   1.249   5.208 -2.9308  1.1009 -0.6010
 6147SOL     OW18677   5.231   4.206   2.514  0.3086 -0.2712  0.7064
 6147SOL    HW118678   5.315   4.221   2.471 -1.5615 -1.2743 -4.0348
 6147SOL    HW218679   5.231   4.113   2.536  0.5570 -0.2068  0.9721
 6148SOL     OW18680   5.166   1.681   0.458  0.0077 -0.0098  0.2606
 6148SOL    HW118681   5.095   1.618   0.474  0.2759 -0.1840  0.8026
 6148SOL    HW218682   5.121   1.761   0.430 -0.3536 -0.3544 -0.1619
 6149SOL     OW18683   2.273   1.251   3.968 -0.0259  0.5475 -0.6885
 6149SOL    HW118684   2.254   1.201   3.889 -0.2655  0.8403 -0.8209
 6149SOL    HW218685   2.192   1.299   3.985  0.4845  1.5563 -1.0564
 6150SOL     OW18686   4.022   2.483   1.897 -0.2426 -0.7191 -0.1729
 6150SOL    HW118687   4.098   2.435   1.930 -0.9869 -1.7737  0.0764
 6150SOL    HW218688   4.015   2.559   1.954  0.1198 -1.0710  0.3497
 6151SOL     OW18689   1.355   0.253   5.993  0.1881 -0.2430 -0.5357
 6151SOL    HW118690   1.423   0.301   6.041  0.4116 -0.4571 -0.6330
 6151SOL    HW218691   1.273   0.291   6.023  0.2788 -0.8677  0.5975
 6152SOL     OW18692   2.602   2.306   5.843 -0.3854  0.6744  0.0932
 6152SOL    HW118693   2.591   2.277   5.752 -0.1762  1.2945 -0.1408
 6152SOL    HW218694   2.512   2.314   5.876 -0.4332 -1.2175  0.5073
 6153SOL     OW18695   0.893   5.495   5.015 -0.5741 -0.3574 -0.1563
 6153SOL    HW118696   0.963   5.539   5.063 -1.0652  0.9118 -0.5594
 6153SOL    HW218697   0.937   5.443   4.949  0.0053  1.7597 -1.5485
 6154SOL     OW18698   2.578   0.367   2.775  0.0585 -0.1173 -0.3167
 6154SOL    HW118699   2.604   0.379   2.866 -2.7909 -0.8877  0.7034
 6154SOL    HW218700   2.604   0.448   2.731  0.9081  0.5279  1.3250
 6155SOL     OW18701   4.641   1.880   4.641 -0.0183 -0.1450 -0.1550
 6155SOL    HW118702   4.582   1.949   4.671 -0.0141 -0.9031  1.7370
 6155SOL    HW218703   4.622   1.806   4.699  1.6371 -0.9441 -0.5745
 6156SOL     OW18704   5.782   0.802   2.803  0.2498  0.8491  0.2696
 6156SOL    HW118705   5.743   0.839   2.723  1.2491  3.2694  0.8083
 6156SOL    HW218706   5.850   0.743   2.771  0.3160  1.4177 -0.6854
 6157SOL     OW18707   2.989   1.757   5.130  0.3484 -0.0990  0.2858
 6157SOL    HW118708   2.934   1.688   5.167  0.9711 -0.1138  1.2063
 6157SOL    HW218709   3.040   1.714   5.061 -1.6299  0.1631 -1.4622
 6158SOL     OW18710   1.632   5.658   0.717 -0.3097 -0.1358  0.1593
 6158SOL    HW118711   1.548   5.682   0.755 -1.0644 -1.2039 -0.7870
 6158SOL    HW218712   1.661   5.737   0.670 -0.9878  0.0967  0.1282
 6159SOL     OW18713   1.260   4.254   0.266 -0.9949 -0.2968 -0.4193
 6159SOL    HW118714   1.228   4.329   0.316 -0.8729  0.0287 -0.8293
 6159SOL    HW218715   1.261   4.283   0.175  2.3288  0.4471 -0.2820
 6160SOL     OW18716   5.108   3.761   3.077  0.4209  0.6421  0.5546
 6160SOL    HW118717   5.086   3.838   3.024 -0.2463 -0.3087 -0.6031
 6160SOL    HW218718   5.065   3.688   3.033  1.8351 -0.5616  1.0629
 6161SOL     OW18719   5.864   1.514   3.436 -0.0901 -0.7198 -0.3192
 6161SOL    HW118720   5.831   1.600   3.411 -1.1678 -1.0680 -0.1507
 6161SOL    HW218721   5.821   1.453   3.377  1.3798 -1.0789 -1.0516
 6162SOL     OW18722   0.994   5.164   0.329 -0.0858 -0.2364 -0.0280
 6162SOL    HW118723   0.901   5.143   0.316 -0.1177  0.0229 -0.2252
 6162SOL    HW218724   1.033   5.082   0.358 -0.2288 -0.5410 -0.6916
 6163SOL     OW18725   6.145   3.102   2.826  0.4398 -0.1055  0.0657
 6163SOL    HW118726   6.191   3.087   2.743 -0.8720  0.2655 -0.7652
 6163SOL    HW218727   6.135   3.015   2.864 -0.3089 -0.4855 -0.9388
 6164SOL     OW18728   3.495   4.194   4.087  0.0310 -0.0476 -0.1856
 6164SOL    HW118729   3.586   4.206   4.114 -0.6850  0.8440  2.1073
 6164SOL    HW218730   3.453   4.278   4.105 -1.5668 -0.8978  0.2956
 6165SOL     OW18731   5.295   2.847   3.374 -0.0553 -0.3534 -0.1076
 6165SOL    HW118732   5.247   2.895   3.307 -0.0873 -0.8458 -0.4434
 6165SOL    HW218733   5.371   2.902   3.392  0.7482 -0.8893 -1.6334
 6166SOL     OW18734   5.682   2.186   3.478 -0.5879 -0.3726 -0.0061
 6166SOL    HW118735   5.636   2.259   3.519  1.5001  0.1204  1.6473
 6166SOL    HW218736   5.647   2.183   3.388 -1.6304  1.8349  0.2553
 6167SOL     OW18737   1.371   4.644   1.682  0.0506 -0.0196 -0.0721
 6167SOL    HW118738   1.457   4.635   1.641  0.5073  2.4430  0.1723
 6167SOL    HW218739   1.315   4.678   1.613 -0.1527  0.4697  0.3286
 6168SOL     OW18740   0.496   1.219   1.011  0.2221 -0.5570  0.2958
 6168SOL    HW118741   0.474   1.169   1.090  0.4394 -0.7239  0.2533
 6168SOL    HW218742   0.458   1.169   0.939 -1.0060  0.2073  0.3769
 6169SOL     OW18743   3.864   4.240   3.931 -0.0033  0.1660 -0.9358
 6169SOL    HW118744   3.775   4.257   3.899 -0.2061 -0.9721 -1.0132
 6169SOL    HW218745   3.896   4.169   3.876  0.3600 -0.5114  0.1267
 6170SOL     OW18746   0.197   1.658   3.082  0.2466  0.6789 -0.0365
 6170SOL    HW118747   0.231   1.643   2.994  0.7310 -1.0269  0.3968
 6170SOL    HW218748   0.127   1.593   3.092  2.1695 -1.2822  1.8415
 6171SOL     OW18749   1.614   4.240   1.116  0.4652 -0.5416 -0.0326
 6171SOL    HW118750   1.661   4.297   1.176  0.4339 -0.9252  0.3559
 6171SOL    HW218751   1.605   4.292   1.036  0.1475  0.1205  0.4302
 6172SOL     OW18752   0.033   0.264   5.742 -0.3044  0.4603  0.5510
 6172SOL    HW118753   0.100   0.326   5.772  1.4384 -0.6185 -0.9043
 6172SOL    HW218754  -0.041   0.320   5.715  1.6955  2.1401 -1.9706
 6173SOL     OW18755   1.559   4.108   3.110 -0.3238  0.0577  0.0157
 6173SOL    HW118756   1.610   4.187   3.091  1.1214 -0.9213 -0.3879
 6173SOL    HW218757   1.506   4.094   3.032  2.4398 -1.5655 -1.7618
 6174SOL     OW18758   0.091   1.900   4.528 -0.5400 -0.1396  0.4653
 6174SOL    HW118759   0.138   1.955   4.590 -0.0794 -0.9626  0.8621
 6174SOL    HW218760   0.155   1.836   4.499 -0.5936  0.5315 -1.2788
 6175SOL     OW18761   0.536   5.912   3.186  0.0584 -0.5745 -0.3639
 6175SOL    HW118762   0.594   5.838   3.167  1.2377  0.4600 -0.9127
 6175SOL    HW218763   0.586   5.968   3.246 -0.8082 -0.2031  0.0350
 6176SOL     OW18764   2.711   4.719   3.174 -0.3376 -0.1689  0.1340
 6176SOL    HW118765   2.767   4.643   3.189 -2.5814 -1.6664  1.6382
 6176SOL    HW218766   2.732   4.779   3.246  1.8080  0.9888 -1.3451
 6177SOL     OW18767   3.786   4.523   0.172  0.0145  0.8591  0.2196
 6177SOL    HW118768   3.838   4.511   0.092 -0.5071 -0.5499  0.0557
 6177SOL    HW218769   3.697   4.539   0.141 -0.3771 -0.6308  0.4882
 6178SOL     OW18770   2.215   2.604   2.831  0.0214  0.3966 -0.2743
 6178SOL    HW118771   2.122   2.618   2.844  0.1996  2.2265 -0.6438
 6178SOL    HW218772   2.221   2.541   2.760 -0.9113 -0.1939  0.1539
 6179SOL     OW18773   3.170   1.023   3.675  0.2613  0.3210 -0.4779
 6179SOL    HW118774   3.099   1.073   3.716  1.1398 -0.5513  2.3110
 6179SOL    HW218775   3.128   0.944   3.642 -0.0756 -0.5147  1.7605
 6180SOL     OW18776   0.431   5.418   4.340  0.2436 -0.2282  0.0922
 6180SOL    HW118777   0.378   5.494   4.315 -0.2507  0.3721  2.6720
 6180SOL    HW218778   0.367   5.354   4.372  0.8324 -0.8825 -0.0231
 6181SOL     OW18779   1.411   5.840   5.198 -0.4514 -0.1294  0.7740
 6181SOL    HW118780   1.389   5.755   5.159  0.0311  1.0955 -2.5354
 6181SOL    HW218781   1.493   5.825   5.244 -0.1062 -1.3849 -0.1896
 6182SOL     OW18782   0.431   5.321   3.784  0.1249  0.0092  0.1354
 6182SOL    HW118783   0.347   5.365   3.777  0.8426  1.4477  0.1383
 6182SOL    HW218784   0.447   5.314   3.878  0.6897  1.1646  0.1475
 6183SOL     OW18785   5.001   2.483   2.813 -0.6975 -0.1495 -0.2574
 6183SOL    HW118786   5.051   2.402   2.827  3.8332  2.1219 -1.4410
 6183SOL    HW218787   4.979   2.512   2.901  1.3355 -0.6670  0.4972
 6184SOL     OW18788   3.858   3.093   0.788 -0.3170  0.2378  0.1492
 6184SOL    HW118789   3.874   3.059   0.699  2.5468 -0.4069  0.8310
 6184SOL    HW218790   3.867   3.187   0.779  0.5376  0.1385 -0.1757
 6185SOL     OW18791   1.833   0.325   0.113  0.1317 -0.4470  0.4834
 6185SOL    HW118792   1.828   0.327   0.209 -2.2467 -0.4876  0.4160
 6185SOL    HW218793   1.817   0.416   0.087 -0.5813 -0.6754  0.1038
 6186SOL     OW18794   1.764   0.361   0.569 -0.5465  0.3358 -0.8947
 6186SOL    HW118795   1.840   0.322   0.526  0.7143  0.2196  1.2996
 6186SOL    HW218796   1.711   0.286   0.596 -0.2463  0.3035 -0.3802
 6187SOL     OW18797   6.146   1.314   1.958 -0.6182 -0.3315 -0.5137
 6187SOL    HW118798   6.075   1.362   1.915 -0.8961 -1.4360 -1.3371
 6187SOL    HW218799   6.121   1.313   2.051  0.1893  2.4261 -0.1605
 6188SOL     OW18800   3.720   2.972   4.149  0.1163 -0.0138  0.1955
 6188SOL    HW118801   3.650   3.003   4.207  1.5288  1.8771  0.9961
 6188SOL    HW218802   3.697   3.008   4.063 -0.4211 -0.3082  0.2068
 6189SOL     OW18803   0.317   0.498   4.944 -0.1472 -0.5775 -0.4278
 6189SOL    HW118804   0.368   0.475   4.866 -1.0509  0.2762 -1.3022
 6189SOL    HW218805   0.330   0.592   4.954 -0.2670 -0.6342  0.2797
 6190SOL     OW18806   4.486   3.119   1.850  0.0545 -0.2441 -0.5011
 6190SOL    HW118807   4.510   3.200   1.895 -1.9318 -0.0628  0.3189
 6190SOL    HW218808   4.525   3.050   1.903  1.2681  0.1160 -0.8836
 6191SOL     OW18809   3.770   4.240   4.273  0.3383  0.1558  0.4783
 6191SOL    HW118810   3.825   4.313   4.245  0.3673  0.2347  0.7339
 6191SOL    HW218811   3.769   4.247   4.369 -3.2716  2.5532  0.4749
 6192SOL     OW18812   2.534   4.756   5.411  0.4358 -0.7387  0.4176
 6192SOL    HW118813   2.530   4.851   5.423  0.2940 -0.7438  0.4039
 6192SOL    HW218814   2.626   4.734   5.427  1.4123 -0.0770 -3.1702
 6193SOL     OW18815   2.246   3.067   2.295 -0.0897 -0.6101 -0.6246
 6193SOL    HW118816   2.160   3.093   2.329  0.5023  2.1975 -1.0552
 6193SOL    HW218817   2.243   3.092   2.202  1.8876  1.6262 -0.1647
 6194SOL     OW18818   1.151   2.653   1.245  0.2005 -0.0496  0.1615
 6194SOL    HW118819   1.177   2.560   1.247 -0.2657 -0.1772  0.6412
 6194SOL    HW218820   1.055   2.651   1.248  0.1978  0.4534  0.6106
 6195SOL     OW18821   6.074   5.960   4.641  0.7528 -0.0987  0.4406
 6195SOL    HW118822   6.147   6.020   4.626  0.6250 -0.2184 -0.7480
 6195SOL    HW218823   6.062   5.960   4.736  1.9501  0.3273  0.6071
 6196SOL     OW18824   0.182   1.271   4.436  0.2108  0.6993  0.3745
 6196SOL    HW118825   0.168   1.210   4.363  1.1924 -0.4500  1.1048
 6196SOL    HW218826   0.221   1.348   4.395  1.3982 -0.1943 -0.2692
 6197SOL     OW18827   4.905   1.802   2.547 -0.3592 -0.5656 -0.4266
 6197SOL    HW118828   4.880   1.819   2.456 -0.8944  1.5253  0.0550
 6197SOL    HW218829   4.969   1.871   2.568  0.1063 -1.2902  0.6472
 6198SOL     OW18830   1.897   0.117   5.054 -0.5597 -0.0254  0.4340
 6198SOL    HW118831   1.802   0.133   5.049 -0.5521 -0.3436 -1.7737
 6198SOL    HW218832   1.935   0.205   5.051 -0.7617  0.0523  0.0591
 6199SOL     OW18833   1.745   3.977   6.125  0.2652 -0.1675 -0.5804
 6199SOL    HW118834   1.741   3.885   6.098  1.9119 -0.2982 -0.5025
 6199SOL    HW218835   1.655   4.008   6.117 -0.8626 -2.4433  1.7996
 6200SOL     OW18836   3.809   0.662   0.853  0.2266  0.5011 -0.0125
 6200SOL    HW118837   3.757   0.592   0.815  0.4060 -1.2880  2.7605
 6200SOL    HW218838   3.750   0.737   0.858 -0.9819 -0.4142 -0.1707
 6201SOL     OW18839   2.442   1.519   2.437  0.6581 -0.0978  0.1542
 6201SOL    HW118840   2.346   1.511   2.436  0.7813 -2.6678  0.6217
 6201SOL    HW218841   2.466   1.517   2.344  0.2468  1.9942 -0.0512
 6202SOL     OW18842   3.168   5.674   5.369 -0.0330 -0.4282 -0.5480
 6202SOL    HW118843   3.212   5.602   5.324  0.5514  0.4111 -1.3615
 6202SOL    HW218844   3.106   5.632   5.428  0.5778 -1.5958 -0.7291
 6203SOL     OW18845   0.455   1.689   1.374 -0.5574  0.3978  0.5099
 6203SOL    HW118846   0.513   1.672   1.448  1.6610  0.3796 -1.1426
 6203SOL    HW218847   0.460   1.610   1.320 -1.5981  0.6653 -0.0095
 6204SOL     OW18848   4.078   2.481   3.601  0.6487 -0.1579  0.3450
 6204SOL    HW118849   4.005   2.540   3.582  0.3242 -1.0391 -1.4146
 6204SOL    HW218850   4.037   2.398   3.624  1.1038  0.0535  2.0170
 6205SOL     OW18851   2.450   1.875   5.097 -0.2293 -0.3182  0.3621
 6205SOL    HW118852   2.395   1.822   5.039 -1.2682  1.1094 -0.0071
 6205SOL    HW218853   2.427   1.847   5.185 -0.7904 -0.4509  0.1738
 6206SOL     OW18854   4.865   4.223   1.273  0.1533 -0.3426  0.1674
 6206SOL    HW118855   4.954   4.223   1.238  0.0968  0.6192 -0.0235
 6206SOL    HW218856   4.866   4.292   1.339 -0.4466 -0.3377  0.1739
 6207SOL     OW18857   2.397   5.608   3.389  0.6596  0.5198 -0.4327
 6207SOL    HW118858   2.427   5.611   3.480  1.0082  0.8843 -0.5564
 6207SOL    HW218859   2.305   5.632   3.393 -0.3035 -2.7402  0.2168
 6208SOL     OW18860   5.696   5.113   4.800  0.6478  0.3312  0.1300
 6208SOL    HW118861   5.630   5.116   4.869  0.0148  0.4830 -0.4699
 6208SOL    HW218862   5.671   5.182   4.739  2.3562  1.5886  0.7613
 6209SOL     OW18863   3.897   0.627   2.014  0.3288  0.1842  0.1040
 6209SOL    HW118864   3.907   0.533   2.028  0.3708  0.2293  0.3805
 6209SOL    HW218865   3.887   0.663   2.102 -0.9340  0.2959 -0.0712
 6210SOL     OW18866   2.888   1.641   3.517  0.0171 -0.0282  0.2090
 6210SOL    HW118867   2.915   1.699   3.446  0.5081  1.2257  1.3516
 6210SOL    HW218868   2.944   1.666   3.591 -1.3363 -0.3649  1.4117
 6211SOL     OW18869   3.363   3.319   3.953  0.0821 -0.1842  0.1825
 6211SOL    HW118870   3.375   3.273   3.869 -0.5179  0.7548 -0.4320
 6211SOL    HW218871   3.376   3.411   3.932 -0.1424  0.0741  1.1244
 6212SOL     OW18872   0.237   3.440   5.503 -0.2428  0.6375  0.3135
 6212SOL    HW118873   0.226   3.526   5.543 -1.2738  1.0965 -0.8639
 6212SOL    HW218874   0.170   3.437   5.434  2.0057  0.2911 -2.0137
 6213SOL     OW18875   2.932   3.306   2.987  0.4683 -0.1970  0.0896
 6213SOL    HW118876   2.836   3.302   2.982  0.4969 -1.2642  0.1226
 6213SOL    HW218877   2.951   3.303   3.081  0.4898  2.0333  0.1993
 6214SOL     OW18878   5.462   5.494   2.482  0.4863 -0.1960 -0.0540
 6214SOL    HW118879   5.381   5.517   2.527  0.8583  1.5151 -0.1899
 6214SOL    HW218880   5.524   5.562   2.509  1.2914 -0.3047 -1.5240
 6215SOL     OW18881   2.028   3.603   4.402  0.4137  0.2982 -0.3622
 6215SOL    HW118882   1.951   3.633   4.355 -0.2676 -2.1001 -0.9012
 6215SOL    HW218883   2.088   3.572   4.333  0.5617 -0.6824  0.1849
 6216SOL     OW18884   2.399   3.245   2.939 -0.1670 -0.4294 -0.1566
 6216SOL    HW118885   2.406   3.210   2.850 -2.2962  0.2489 -0.6683
 6216SOL    HW218886   2.483   3.288   2.954  0.5843 -1.3307 -1.4709
 6217SOL     OW18887   6.050   3.689   3.646  0.0083  0.1414  0.0055
 6217SOL    HW118888   6.061   3.684   3.741 -0.8137  1.5579  0.1971
 6217SOL    HW218889   6.028   3.600   3.620  0.8950 -0.4044  1.0456
 6218SOL     OW18890   5.773   3.267   3.910  0.1991  0.4405  0.3836
 6218SOL    HW118891   5.737   3.180   3.925  0.3175  0.5471  1.3315
 6218SOL    HW218892   5.826   3.258   3.831 -1.7656  0.2527 -0.9732
 6219SOL     OW18893   4.215   1.542   6.125 -0.3618  0.2512 -0.0798
 6219SOL    HW118894   4.237   1.625   6.082 -0.3822  0.8109  0.9605
 6219SOL    HW218895   4.129   1.556   6.163 -1.0182 -0.7526 -1.1089
 6220SOL     OW18896   5.046   4.710   1.101 -0.0693 -0.1989  0.2499
 6220SOL    HW118897   5.138   4.731   1.087  0.3613 -1.1159  1.5032
 6220SOL    HW218898   5.013   4.689   1.014  0.5286  1.4715 -0.4269
 6221SOL     OW18899   1.985   1.682   3.262 -0.3722 -0.5693 -0.0801
 6221SOL    HW118900   2.050   1.639   3.207 -1.4034 -1.0776 -0.9466
 6221SOL    HW218901   2.006   1.653   3.351  1.6817  0.7253 -0.0804
 6222SOL     OW18902   0.564   1.869   2.296 -0.1907  0.3096  0.3053
 6222SOL    HW118903   0.476   1.907   2.287  0.2434  1.0240 -1.2631
 6222SOL    HW218904   0.562   1.792   2.239  0.4362  0.7922 -0.3808
 6223SOL     OW18905   3.717   2.340   4.717  0.1809  0.4839  0.5573
 6223SOL    HW118906   3.662   2.307   4.788 -0.2386 -1.2855 -0.5290
 6223SOL    HW218907   3.793   2.282   4.718 -0.1432  0.0061 -0.8311
 6224SOL     OW18908   5.098   1.599   2.568 -0.1035 -0.5154 -0.0210
 6224SOL    HW118909   5.108   1.589   2.474 -1.4972  1.7853 -0.4878
 6224SOL    HW218910   5.035   1.670   2.579 -0.0574 -0.7587  2.6556
 6225SOL     OW18911   5.000   1.237   2.436  0.1717  0.2808  0.0912
 6225SOL    HW118912   4.967   1.325   2.455 -0.4913  0.0970 -0.1583
 6225SOL    HW218913   4.963   1.182   2.505 -0.1357  0.0584 -0.2391
 6226SOL     OW18914   3.899   5.977   2.900  0.2210  0.0036 -0.7225
 6226SOL    HW118915   3.894   5.897   2.952  0.5808  0.6132  0.2711
 6226SOL    HW218916   3.826   5.969   2.838 -0.9065 -0.2690  0.5718
 6227SOL     OW18917   2.679   0.184   3.262  0.4042 -0.5061 -0.2870
 6227SOL    HW118918   2.661   0.246   3.191 -2.0945 -0.1594  0.5418
 6227SOL    HW218919   2.613   0.115   3.250 -0.6219 -0.0214  2.1119
 6228SOL     OW18920   0.292   0.692   3.375  0.3385  0.1836  0.3836
 6228SOL    HW118921   0.254   0.729   3.455  0.3559  0.0108  0.4724
 6228SOL    HW218922   0.370   0.747   3.359  0.4399  0.1021  0.5906
 6229SOL     OW18923   2.094   1.040   2.173  0.1923  0.0862 -0.3933
 6229SOL    HW118924   2.000   1.040   2.157  0.0847 -2.5961 -0.3099
 6229SOL    HW218925   2.101   1.033   2.269  0.3573 -1.6451 -0.4896
 6230SOL     OW18926   5.781   2.341   5.829 -0.0400 -0.0157  0.3052
 6230SOL    HW118927   5.791   2.423   5.877  0.2709  0.4066 -0.4705
 6230SOL    HW218928   5.718   2.361   5.760  0.5207 -0.2466 -0.2833
 6231SOL     OW18929   1.302   1.830   5.642 -0.3862  0.2522  0.2963
 6231SOL    HW118930   1.390   1.794   5.635  0.2433  2.0193 -1.6856
 6231SOL    HW218931   1.253   1.764   5.691  1.1617 -2.3972 -1.4974
 6232SOL     OW18932   5.112   5.403   6.102 -0.2981  0.0371  0.8592
 6232SOL    HW118933   5.066   5.455   6.168  1.5900  0.9154  1.5621
 6232SOL    HW218934   5.162   5.339   6.152  0.3311  0.0190  0.2231
 6233SOL     OW18935   0.170   5.942   2.172 -0.1869  0.1870  0.2088
 6233SOL    HW118936   0.133   5.864   2.213  0.1951  0.6421  1.4845
 6233SOL    HW218937   0.095   6.000   2.158 -0.1662  0.5810  1.5780
 6234SOL     OW18938   1.349   0.344   0.777 -0.1214  0.2749  0.0895
 6234SOL    HW118939   1.394   0.277   0.726 -3.1354 -0.3629 -2.0156
 6234SOL    HW218940   1.355   0.314   0.868  0.7618 -1.4821 -0.5171
 6235SOL     OW18941   3.916   3.375   3.952 -0.0401  0.1390  0.4307
 6235SOL    HW118942   4.008   3.368   3.978  0.1092 -0.7426 -0.2712
 6235SOL    HW218943   3.869   3.319   4.014 -0.4006  2.0737  2.0142
 6236SOL     OW18944   0.973   3.185   0.213  0.1851 -1.0531 -1.0481
 6236SOL    HW118945   0.890   3.180   0.260  0.1878 -0.8919 -1.0260
 6236SOL    HW218946   0.949   3.207   0.123  0.3141  1.0124 -0.6235
 6237SOL     OW18947   0.557   1.549   5.472 -0.4630 -0.3119 -0.0583
 6237SOL    HW118948   0.624   1.486   5.499 -0.0428  0.9784  2.1001
 6237SOL    HW218949   0.584   1.577   5.384  1.9120  0.2519  0.7942
 6238SOL     OW18950   1.579   3.712   4.150  0.0380 -0.9209  0.1196
 6238SOL    HW118951   1.531   3.754   4.078  1.7181  1.0169  0.0445
 6238SOL    HW218952   1.561   3.767   4.226  0.3647 -1.4385  0.5740
 6239SOL     OW18953   3.454   6.069   2.682 -0.5851 -1.0712  0.5477
 6239SOL    HW118954   3.429   6.136   2.618 -0.0620 -0.3875  1.0584
 6239SOL    HW218955   3.440   5.986   2.635 -0.2665 -0.5838 -0.4332
 6240SOL     OW18956   4.669   4.036   1.544  1.0322  0.1787  0.2349
 6240SOL    HW118957   4.705   4.001   1.462  1.8014  2.9596 -0.7323
 6240SOL    HW218958   4.616   4.111   1.516 -0.3346  0.0115  2.1758
 6241SOL     OW18959   0.552   5.504   3.603  0.4034 -0.2061 -0.4642
 6241SOL    HW118960   0.506   5.525   3.522  0.2571 -0.7097 -0.5138
 6241SOL    HW218961   0.508   5.425   3.636  0.9299 -0.4239 -0.2734
 6242SOL     OW18962   3.408   1.697   4.063 -0.1936 -0.3727  0.4075
 6242SOL    HW118963   3.491   1.735   4.091  0.1374 -1.1377  0.5008
 6242SOL    HW218964   3.383   1.640   4.136 -0.4258 -0.7132  0.0596
 6243SOL     OW18965   3.586   1.618   2.404 -0.0607 -0.1645  0.1866
 6243SOL    HW118966   3.538   1.633   2.323 -2.3643 -3.3444  0.7427
 6243SOL    HW218967   3.652   1.552   2.382  0.9865  0.7751  0.4241
 6244SOL     OW18968   4.412   5.679   6.049  0.3311  0.1040 -0.1653
 6244SOL    HW118969   4.397   5.635   5.966 -2.5398 -2.6522  1.5874
 6244SOL    HW218970   4.341   5.743   6.056 -0.9904 -1.4192  1.1199
 6245SOL     OW18971   2.789   3.006   4.762 -0.3576 -0.6588 -0.0869
 6245SOL    HW118972   2.868   3.059   4.773 -0.5867 -0.2093 -0.5830
 6245SOL    HW218973   2.747   3.007   4.849 -0.0784 -0.4895  0.0480
 6246SOL     OW18974   4.445   2.654   2.911  0.4158 -0.7241  0.1291
 6246SOL    HW118975   4.424   2.639   2.818  2.3815  0.8084 -0.6230
 6246SOL    HW218976   4.466   2.567   2.945 -0.3225 -1.3038 -0.8516
 6247SOL     OW18977   1.348   1.758   4.537  0.1759 -0.6418 -0.0457
 6247SOL    HW118978   1.426   1.734   4.488 -0.5902 -2.1874 -0.5525
 6247SOL    HW218979   1.347   1.854   4.535 -0.2616 -0.5998 -3.8200
 6248SOL     OW18980   4.397   1.454   2.902  0.0885  0.1855  0.0301
 6248SOL    HW118981   4.391   1.505   2.983 -0.8769  0.0494  0.0638
 6248SOL    HW218982   4.490   1.450   2.882  0.3027  0.5721  0.9143
 6249SOL     OW18983   1.106   1.185   3.585 -0.5341 -0.2410 -0.1452
 6249SOL    HW118984   1.124   1.098   3.549  0.6377 -2.0627  4.2510
 6249SOL    HW218985   1.010   1.192   3.581 -0.8358 -2.5779  0.8876
 6250SOL     OW18986   4.638   3.163   0.730 -0.2559 -0.1753  0.5850
 6250SOL    HW118987   4.710   3.106   0.758 -0.1228  1.0326  2.9316
 6250SOL    HW218988   4.574   3.103   0.692  1.2409 -1.4722 -0.0095
 6251SOL     OW18989   5.296   5.614   4.522 -0.1347 -0.2805  0.1176
 6251SOL    HW118990   5.286   5.692   4.468 -2.2438 -0.0479  0.7491
 6251SOL    HW218991   5.390   5.610   4.542  0.2154  1.2966 -1.0512
 6252SOL     OW18992   3.980   3.152   0.089  0.2858 -0.2469 -0.1046
 6252SOL    HW118993   3.923   3.178   0.016  0.4625 -0.8264 -0.4475
 6252SOL    HW218994   3.947   3.203   0.164 -1.2005 -1.1428 -0.1075
 6253SOL     OW18995   2.460   4.222   3.584  0.5205  0.1151 -0.4026
 6253SOL    HW118996   2.441   4.172   3.663  0.7855 -0.8874 -0.9601
 6253SOL    HW218997   2.393   4.193   3.521  0.8782  0.2207 -0.8329
 6254SOL     OW18998   1.098   0.902   2.136  0.1274  0.4612 -0.5179
 6254SOL    HW118999   1.003   0.896   2.146  0.2383  2.1918  4.2787
 6254SOL    HW219000   1.112   0.975   2.076 -1.4030 -1.5483 -3.5275
 6255SOL     OW19001   4.015   2.825   3.542  0.1842  0.2480 -0.1171
 6255SOL    HW119002   4.022   2.800   3.635 -0.9394 -3.5011 -0.8499
 6255SOL    HW219003   4.097   2.796   3.503  0.6150  1.7259 -0.3467
 6256SOL     OW19004   2.481   5.129   5.765 -0.0992  1.2398  0.3484
 6256SOL    HW119005   2.399   5.104   5.722 -0.7849  1.6766  1.3571
 6256SOL    HW219006   2.467   5.105   5.857  1.6428 -0.4768  0.2298
 6257SOL     OW19007   4.433   4.119   3.861 -0.4633  0.1375 -0.2104
 6257SOL    HW119008   4.450   4.069   3.941  0.5186  0.1174 -0.4149
 6257SOL    HW219009   4.414   4.208   3.892  0.4166  0.2495  0.0271
 6258SOL     OW19010   3.179   3.888   5.470  0.0628 -0.0484  0.3241
 6258SOL    HW119011   3.234   3.835   5.527 -0.8675 -2.3669 -0.8154
 6258SOL    HW219012   3.230   3.901   5.391  0.2623  0.7703  0.5721
 6259SOL     OW19013   3.782   1.195   2.848 -0.0354  0.0085  0.1943
 6259SOL    HW119014   3.743   1.226   2.930 -0.7171 -0.5463  0.0899
 6259SOL    HW219015   3.760   1.102   2.845 -0.8641  0.2158 -1.0667
 6260SOL     OW19016   1.031   0.165   1.286  0.3178 -0.0886  0.1102
 6260SOL    HW119017   0.991   0.081   1.265  3.2916 -1.5162 -0.3991
 6260SOL    HW219018   0.977   0.201   1.356 -1.7225 -1.8481 -0.4562
 6261SOL     OW19019   2.024   5.395   5.060 -0.3895  0.4390 -0.1069
 6261SOL    HW119020   2.070   5.380   5.143 -1.9818  0.8312  0.9180
 6261SOL    HW219021   1.932   5.375   5.081 -0.6334 -0.8436 -2.1952
 6262SOL     OW19022   4.566   5.518   3.562 -0.7419  0.0841 -0.0434
 6262SOL    HW119023   4.566   5.453   3.632 -2.6993 -0.3766 -0.4206
 6262SOL    HW219024   4.582   5.467   3.483  1.0160  0.5438 -0.0199
 6263SOL     OW19025   2.411   4.527   1.458 -0.5009 -0.1952 -0.4279
 6263SOL    HW119026   2.346   4.526   1.389 -1.9718 -0.0601  0.9094
 6263SOL    HW219027   2.364   4.498   1.537  1.1249 -0.4246  0.5202
 6264SOL     OW19028   4.602   2.568   3.856 -0.1525 -0.0895 -0.4243
 6264SOL    HW119029   4.639   2.498   3.803  0.5134 -0.9671  1.1105
 6264SOL    HW219030   4.540   2.613   3.799  0.7220 -0.8143 -1.9829
 6265SOL     OW19031   5.264   3.321   0.332  0.3978 -0.3773  0.5047
 6265SOL    HW119032   5.301   3.253   0.276 -0.4819 -0.5305  0.0937
 6265SOL    HW219033   5.285   3.403   0.286  2.0633 -0.2804  1.3438
 6266SOL     OW19034   5.267   0.804   1.988 -0.1317 -0.1141 -0.7988
 6266SOL    HW119035   5.189   0.843   2.027 -0.4830 -2.7785  1.4541
 6266SOL    HW219036   5.338   0.829   2.047  0.5165  1.0028 -1.9970
 6267SOL     OW19037   3.606   4.272   4.949  0.3904  0.3026  0.3105
 6267SOL    HW119038   3.636   4.270   5.040 -0.6537  2.3293  0.7647
 6267SOL    HW219039   3.686   4.268   4.897  0.9902 -1.0882  1.2873
 6268SOL     OW19040   4.788   3.442   0.119  0.3138 -0.1172 -0.0518
 6268SOL    HW119041   4.852   3.397   0.174  1.5872 -0.6592 -1.9151
 6268SOL    HW219042   4.786   3.531   0.154  0.5211 -0.6333  1.3345
 6269SOL     OW19043   0.157   2.250   1.327  0.3385  0.1755 -0.2589
 6269SOL    HW119044   0.164   2.345   1.333  0.5807  0.3498 -2.5107
 6269SOL    HW219045   0.069   2.234   1.294  0.8082 -0.2832 -1.3236
 6270SOL     OW19046   1.069   5.153   4.309  0.6287 -0.0143 -0.1505
 6270SOL    HW119047   1.136   5.202   4.357 -0.7501  1.2130  0.6328
 6270SOL    HW219048   0.997   5.144   4.371 -0.2130 -0.6730 -1.1810
 6271SOL     OW19049   4.450   5.621   4.604  0.3579 -0.0445  0.2720
 6271SOL    HW119050   4.444   5.714   4.624  0.7333 -0.3058  1.7487
 6271SOL    HW219051   4.454   5.578   4.690 -0.0641 -1.4415 -0.3702
 6272SOL     OW19052   3.181   0.587   3.214 -0.7758 -0.2543  0.1254
 6272SOL    HW119053   3.138   0.575   3.129  3.1406  0.4223 -2.1788
 6272SOL    HW219054   3.140   0.666   3.251 -3.1392 -1.0372 -0.6228
 6273SOL     OW19055   3.087   1.282   0.501 -0.1941 -0.3094 -0.8120
 6273SOL    HW119056   3.070   1.228   0.424 -0.4800 -0.2929 -0.7604
 6273SOL    HW219057   3.005   1.280   0.550  0.9481 -3.2652  1.3055
 6274SOL     OW19058   0.743   2.372   3.161 -0.2846  0.2006 -0.2758
 6274SOL    HW119059   0.786   2.326   3.089 -0.1123  1.4642 -0.9958
 6274SOL    HW219060   0.651   2.348   3.154  0.0665 -1.6786  0.6390
 6275SOL     OW19061   1.827   0.920   1.624 -0.4155 -0.0102 -0.2994
 6275SOL    HW119062   1.773   0.850   1.660  0.1764 -0.3831 -0.1106
 6275SOL    HW219063   1.915   0.882   1.622 -0.2012  0.5138 -0.7864
 6276SOL     OW19064   2.287   4.735   3.800  0.3099 -0.0733 -0.1291
 6276SOL    HW119065   2.367   4.762   3.845 -0.0886 -0.0729  0.5959
 6276SOL    HW219066   2.236   4.816   3.790  1.1183  0.2409 -2.1186
 6277SOL     OW19067   5.031   0.616   4.360  0.0743  0.2763 -0.2446
 6277SOL    HW119068   4.997   0.553   4.424  1.1223 -0.1343 -0.0566
 6277SOL    HW219069   5.126   0.601   4.361  0.5860  2.9774  1.0026
 6278SOL     OW19070   1.697   5.603   3.712  0.2904 -0.0445 -0.0623
 6278SOL    HW119071   1.668   5.694   3.703  0.3694 -0.1777 -2.0846
 6278SOL    HW219072   1.653   5.572   3.791 -1.0275  1.2709 -0.2236
 6279SOL     OW19073   0.798   3.976   1.450 -0.2168  0.6276 -0.0556
 6279SOL    HW119074   0.758   3.958   1.535 -0.8335  0.1992 -0.4272
 6279SOL    HW219075   0.891   3.990   1.469  0.1336 -1.9124  0.4299
 6280SOL     OW19076   1.948   3.674   2.528  0.2963 -0.3814  0.2897
 6280SOL    HW119077   1.911   3.763   2.526 -2.1662 -1.3384 -0.3984
 6280SOL    HW219078   2.043   3.688   2.535  0.0924  2.2984 -0.9424
 6281SOL     OW19079   1.613   0.815   2.068  0.3920 -0.0363  0.2030
 6281SOL    HW119080   1.655   0.740   2.026 -0.8198 -1.0101  0.6628
 6281SOL    HW219081   1.520   0.792   2.069  0.0687  1.2420  0.8407
 6282SOL     OW19082   5.345   3.292   3.050 -0.3808  0.1012  0.3514
 6282SOL    HW119083   5.361   3.382   3.023  1.0676 -0.7571 -1.9668
 6282SOL    HW219084   5.357   3.292   3.144  0.3729  2.1847  0.2972
 6283SOL     OW19085   3.432   0.475   3.180 -0.3549  0.2536 -0.0504
 6283SOL    HW119086   3.503   0.531   3.212 -0.3426  0.7039 -0.8196
 6283SOL    HW219087   3.353   0.525   3.196 -0.7881 -1.1793  2.8734
 6284SOL     OW19088   2.980   0.478   0.772 -0.5869  0.0497  0.0737
 6284SOL    HW119089   2.985   0.392   0.730  0.7595  0.4481 -0.6320
 6284SOL    HW219090   3.057   0.482   0.829 -0.4592  0.9048 -0.1475
 6285SOL     OW19091   2.557   5.732   2.344  0.0236  0.0073 -0.4344
 6285SOL    HW119092   2.566   5.799   2.276 -0.1567  3.3305  2.5303
 6285SOL    HW219093   2.468   5.699   2.334 -0.6211  1.7512 -0.7399
 6286SOL     OW19094   2.347   3.973   4.223  0.6303  0.1076 -0.2774
 6286SOL    HW119095   2.437   4.008   4.223  0.9801 -0.7625 -0.4362
 6286SOL    HW219096   2.357   3.885   4.260 -0.3884  0.5660  1.1754
 6287SOL     OW19097   5.088   0.016   1.328  0.1103  0.4425 -0.4916
 6287SOL    HW119098   4.996   0.030   1.305 -0.3657 -1.2315  0.2037
 6287SOL    HW219099   5.118  -0.053   1.268 -0.0422 -1.2154  1.2213
 6288SOL     OW19100   4.892   5.681   4.190  0.3614  0.4768  0.0866
 6288SOL    HW119101   4.801   5.654   4.205 -0.0561  0.9834 -1.3754
 6288SOL    HW219102   4.930   5.688   4.278 -0.5574 -1.2449  0.6634
 6289SOL     OW19103   1.980   1.211   2.658  0.4219  0.9089 -0.6870
 6289SOL    HW119104   2.038   1.287   2.647  0.6670  0.9450  0.7302
 6289SOL    HW219105   1.919   1.237   2.727  1.0326 -0.4702  0.4204
 6290SOL     OW19106   6.009   3.741   1.625  0.4427 -0.3230  0.3252
 6290SOL    HW119107   6.044   3.830   1.617  2.7941 -1.2763 -1.0233
 6290SOL    HW219108   5.927   3.743   1.575  0.8266  0.8881 -0.2975
 6291SOL     OW19109   5.185   2.203   5.519 -0.4650  0.3336 -1.2060
 6291SOL    HW119110   5.206   2.192   5.612 -0.6681 -1.4323 -1.3334
 6291SOL    HW219111   5.099   2.247   5.520  0.2144  1.7135 -0.6122
 6292SOL     OW19112   5.612   6.144   3.804  0.5014  0.0592  0.0634
 6292SOL    HW119113   5.595   6.176   3.716 -0.5356 -0.8597 -0.0835
 6292SOL    HW219114   5.572   6.057   3.807  1.6531 -0.4805  1.0300
 6293SOL     OW19115   3.177   0.016   2.177  0.1291  0.0401  0.1323
 6293SOL    HW119116   3.148   0.008   2.086 -1.1577  2.0133  0.3027
 6293SOL    HW219117   3.099  -0.003   2.229  0.1149  1.5563  0.7177
 6294SOL     OW19118   0.828   5.864   4.846  0.2899 -0.0482 -0.1771
 6294SOL    HW119119   0.905   5.918   4.865  0.9920 -1.1799  0.2660
 6294SOL    HW219120   0.815   5.874   4.751 -0.5693  2.1309  0.0979
 6295SOL     OW19121   4.222   4.337   3.498  0.3579  0.0072  0.6034
 6295SOL    HW119122   4.298   4.287   3.526 -0.6754 -1.3616  1.0851
 6295SOL    HW219123   4.182   4.367   3.580 -0.1669 -0.1234  0.3974
 6296SOL     OW19124   3.256   4.240   3.509  0.3121 -0.8307  0.3850
 6296SOL    HW119125   3.227   4.301   3.441  0.5320 -1.8875 -0.6840
 6296SOL    HW219126   3.239   4.287   3.591  1.0144  0.9114 -0.4032
 6297SOL     OW19127   2.126   5.609   3.450  0.0535  0.5658  0.1635
 6297SOL    HW119128   2.074   5.664   3.509  0.4587 -0.1279  1.1844
 6297SOL    HW219129   2.138   5.527   3.498  1.8633  0.6127 -0.1516
 6298SOL     OW19130   5.063   3.288   4.442  0.1973  0.0789  0.2456
 6298SOL    HW119131   4.984   3.245   4.474 -0.2909  1.8681  1.6023
 6298SOL    HW219132   5.031   3.365   4.395  1.1048  1.3044  1.5487
 6299SOL     OW19133   5.952   2.540   2.624 -0.5574 -0.1539 -0.0038
 6299SOL    HW119134   5.866   2.504   2.601 -1.2750  1.5672 -0.1181
 6299SOL    HW219135   5.981   2.585   2.545  0.0634 -0.0001  0.3053
 6300SOL     OW19136   3.129   3.723   2.968 -0.0715  0.1996  0.3351
 6300SOL    HW119137   3.193   3.776   3.015 -1.5424  1.2893  1.2203
 6300SOL    HW219138   3.133   3.638   3.010 -1.0134  1.0176  2.1925
 6301SOL     OW19139   4.256   0.766   4.312 -0.2149 -0.0422 -0.3866
 6301SOL    HW119140   4.212   0.788   4.230 -2.4028  1.3011  1.0680
 6301SOL    HW219141   4.231   0.675   4.329  0.5929 -0.4715 -1.3530
 6302SOL     OW19142   0.852   1.251   4.786  0.6732  0.1645 -0.2339
 6302SOL    HW119143   0.869   1.168   4.830 -0.8890  0.1958  0.5057
 6302SOL    HW219144   0.818   1.227   4.700 -0.6444 -0.0312  0.3074
 6303SOL     OW19145   0.464   2.154   5.444 -0.2752  0.0905 -0.2793
 6303SOL    HW119146   0.386   2.111   5.477 -0.8071  1.0338 -0.2793
 6303SOL    HW219147   0.432   2.233   5.400  0.7112  0.8695  0.3517
 6304SOL     OW19148   1.826   3.106   5.351  0.0159  0.2234 -0.8964
 6304SOL    HW119149   1.800   3.134   5.439  0.3914  0.4625 -0.8605
 6304SOL    HW219150   1.848   3.187   5.306 -0.7083  0.1528 -1.3892
 6305SOL     OW19151   0.466   3.492   5.355 -0.2486  0.0271  0.1709
 6305SOL    HW119152   0.536   3.429   5.335 -0.5791 -0.1169 -0.5732
 6305SOL    HW219153   0.458   3.489   5.450  0.0845 -0.6969  0.1857
 6306SOL     OW19154   1.019   1.435   5.792  0.2526 -0.1682 -0.0183
 6306SOL    HW119155   1.010   1.382   5.871 -0.0831  0.1595  0.1670
 6306SOL    HW219156   1.099   1.404   5.751 -0.7819 -1.9602 -0.7734
 6307SOL     OW19157   2.880   1.388   5.750 -0.4567  0.1886  0.4956
 6307SOL    HW119158   2.926   1.365   5.831 -0.8087 -0.6231  0.4780
 6307SOL    HW219159   2.788   1.392   5.775 -0.4719  0.8820  0.3327
 6308SOL     OW19160   4.590   1.410   4.147  0.7883  0.0910  0.2527
 6308SOL    HW119161   4.611   1.336   4.204 -0.0687  1.4354  2.4245
 6308SOL    HW219162   4.549   1.370   4.070  0.4137 -1.7026  1.3315
 6309SOL     OW19163   3.092   2.666   0.853  0.2079  0.4298  1.0325
 6309SOL    HW119164   3.024   2.621   0.803  0.1496  1.4923  0.1165
 6309SOL    HW219165   3.046   2.736   0.899  0.6622  1.1703  0.3897
 6310SOL     OW19166   3.323   0.121   2.583 -0.5132  0.3883  0.4612
 6310SOL    HW119167   3.306   0.212   2.610 -0.9116 -0.0711  1.8588
 6310SOL    HW219168   3.236   0.085   2.566 -0.3793  0.1623  0.2597
 6311SOL     OW19169   0.055   1.915   1.676  0.3126  0.4088 -0.3141
 6311SOL    HW119170   0.143   1.896   1.642  0.3563  1.4626 -0.8367
 6311SOL    HW219171  -0.002   1.854   1.631  0.7481 -0.1403 -0.1318
 6312SOL     OW19172   4.234   4.439   1.804 -0.1006  0.3947 -0.4860
 6312SOL    HW119173   4.139   4.440   1.797 -0.1056  0.7011 -0.3702
 6312SOL    HW219174   4.257   4.524   1.842  0.0388 -0.5876  1.8112
 6313SOL     OW19175   4.622   0.254   1.247 -0.7588  0.4424  0.5524
 6313SOL    HW119176   4.582   0.340   1.259  0.7841  1.2487  0.2279
 6313SOL    HW219177   4.671   0.261   1.166  1.4485  0.1121  1.7768
 6314SOL     OW19178   2.678   1.970   2.833 -0.6917  0.0801  0.0293
 6314SOL    HW119179   2.633   2.054   2.842 -0.6852  0.1131 -0.2278
 6314SOL    HW219180   2.714   1.972   2.744  0.0530  0.1701  0.3246
 6315SOL     OW19181   0.324   4.310   5.975 -0.0597 -0.5304 -0.1504
 6315SOL    HW119182   0.401   4.255   5.962 -0.5747 -1.3416  0.1317
 6315SOL    HW219183   0.269   4.260   6.036 -0.8249  0.0089 -0.3796
 6316SOL     OW19184   3.815   5.235   0.067  0.4334  0.0003 -0.4460
 6316SOL    HW119185   3.784   5.158   0.019 -1.8200  1.5444 -1.6545
 6316SOL    HW219186   3.833   5.300  -0.001  1.5997  0.7942  0.5820
 6317SOL     OW19187   4.317   3.209   3.742 -0.0011 -0.1602 -0.6972
 6317SOL    HW119188   4.310   3.302   3.721  1.1262 -0.0380 -0.6044
 6317SOL    HW219189   4.331   3.167   3.657 -0.8166 -0.2821 -0.7729
 6318SOL     OW19190   3.194   0.465   4.787 -0.5771 -0.2685 -0.5452
 6318SOL    HW119191   3.156   0.450   4.874 -0.4348 -0.6881 -0.5507
 6318SOL    HW219192   3.243   0.384   4.768  1.0397  0.5718 -0.1684
 6319SOL     OW19193   5.611   3.169   1.213  0.4228 -0.2016 -0.6907
 6319SOL    HW119194   5.698   3.163   1.174  0.6750 -0.2132 -0.1372
 6319SOL    HW219195   5.579   3.079   1.214  0.9643 -0.4026  0.3393
 6320SOL     OW19196   5.812   0.911   3.820 -0.1417 -0.4167  0.1564
 6320SOL    HW119197   5.824   0.825   3.860  1.8128  0.1499  0.8844
 6320SOL    HW219198   5.826   0.973   3.891  1.1080  0.5659 -0.8999
 6321SOL     OW19199   1.849   3.296   5.160 -0.3592  0.4747 -0.8058
 6321SOL    HW119200   1.906   3.247   5.101  1.1290  1.9825 -0.6878
 6321SOL    HW219201   1.834   3.379   5.116 -0.0589  1.2249  0.4656
 6322SOL     OW19202   2.189   0.833   3.751  0.1496 -0.0202  0.5174
 6322SOL    HW119203   2.267   0.784   3.728 -0.4638  0.1642 -2.2565
 6322SOL    HW219204   2.117   0.771   3.743 -0.5501  1.0051 -2.3406
 6323SOL     OW19205   4.885   3.566   4.651 -0.7132 -0.2860  0.4552
 6323SOL    HW119206   4.944   3.637   4.627 -2.3945  1.6542  1.7934
 6323SOL    HW219207   4.939   3.507   4.704 -0.2212  2.1886  2.8956
 6324SOL     OW19208   4.595   4.274   1.243 -0.1296 -0.3105 -0.0144
 6324SOL    HW119209   4.595   4.299   1.150 -0.5187 -0.5979 -0.0941
 6324SOL    HW219210   4.683   4.242   1.259 -0.4335 -1.5204 -0.6374
 6325SOL     OW19211   3.068   0.070   1.332  0.7855  0.0428  0.2328
 6325SOL    HW119212   2.997   0.007   1.330  1.5172 -0.8467  1.0314
 6325SOL    HW219213   3.062   0.110   1.419  1.0698  0.1739  0.1942
 6326SOL     OW19214   5.423   1.631   3.061  0.4318 -0.7879  0.2212
 6326SOL    HW119215   5.396   1.540   3.070  1.8051 -1.4263 -1.5578
 6326SOL    HW219216   5.506   1.636   3.108 -0.0216 -0.2339  0.9827
 6327SOL     OW19217   5.468   5.512   3.018  0.1724  0.2282  0.2118
 6327SOL    HW119218   5.379   5.486   3.040 -0.5786  0.2178 -2.4309
 6327SOL    HW219219   5.522   5.436   3.039 -0.5898 -0.1303  0.9251
 6328SOL     OW19220   5.613   0.245   4.083 -0.1750  0.1428 -0.6229
 6328SOL    HW119221   5.530   0.229   4.127 -0.8223  0.3553 -1.7177
 6328SOL    HW219222   5.678   0.196   4.133 -0.7773  0.8324  0.8836
 6329SOL     OW19223   5.064   3.381   1.896  0.0229  0.1150 -0.1395
 6329SOL    HW119224   5.132   3.343   1.951  1.6310  0.9317 -1.4950
 6329SOL    HW219225   5.042   3.464   1.938  1.2139  0.7153 -0.6626
 6330SOL     OW19226   4.438   2.878   5.747 -0.0438  0.1432  0.5472
 6330SOL    HW119227   4.397   2.939   5.809 -0.6768  1.8842 -1.4557
 6330SOL    HW219228   4.517   2.923   5.718 -0.0036 -0.4290 -0.2605
 6331SOL     OW19229   5.438   1.575   0.972 -0.6749 -0.7998 -0.1168
 6331SOL    HW119230   5.445   1.659   0.926  0.5227  0.1754  1.7541
 6331SOL    HW219231   5.349   1.546   0.953 -0.6528  0.1620 -1.9799
 6332SOL     OW19232   4.190   5.165   5.618  0.1271 -0.2635 -0.4636
 6332SOL    HW119233   4.261   5.101   5.616 -0.3712 -0.8674  0.2671
 6332SOL    HW219234   4.228   5.246   5.584  1.3605 -0.3644  0.6351
 6333SOL     OW19235   0.118   2.796   0.320 -0.2895  0.5217  0.2979
 6333SOL    HW119236   0.025   2.817   0.323 -0.5683 -0.5942  0.1079
 6333SOL    HW219237   0.125   2.733   0.248  0.8678  1.7681 -0.7411
 6334SOL     OW19238   0.621   3.822   1.024 -0.1907  0.0118  0.1664
 6334SOL    HW119239   0.591   3.732   1.031  1.4750 -0.6146 -0.3257
 6334SOL    HW219240   0.661   3.841   1.109  0.9479 -0.3043 -0.2830
 6335SOL     OW19241   4.266   2.637   3.761  0.2659  0.2143  0.1789
 6335SOL    HW119242   4.180   2.610   3.729  0.9444 -0.2904 -1.3025
 6335SOL    HW219243   4.310   2.674   3.685  1.8276 -0.6987  0.5908
 6336SOL     OW19244   0.000   2.758   0.650 -0.4284 -0.4454  0.3599
 6336SOL    HW119245  -0.002   2.780   0.743 -1.2888 -1.0172  0.4836
 6336SOL    HW219246   0.092   2.735   0.634  0.0260  1.0118  0.7271
 6337SOL     OW19247   2.231   5.724   5.099 -0.0162 -0.3153  0.2235
 6337SOL    HW119248   2.281   5.796   5.062 -1.4407  0.3305 -0.5066
 6337SOL    HW219249   2.198   5.757   5.183 -1.7580  0.4125 -0.6956
 6338SOL     OW19250   5.483   1.301   0.094 -0.2847  0.2550  0.3593
 6338SOL    HW119251   5.495   1.225   0.036 -3.1158  1.0064 -1.3800
 6338SOL    HW219252   5.569   1.312   0.136  1.1087 -2.0378 -1.5958
 6339SOL     OW19253   5.221   4.681   4.591 -0.6460  0.1329 -0.2864
 6339SOL    HW119254   5.174   4.667   4.674 -1.4492  1.1847 -0.5434
 6339SOL    HW219255   5.267   4.764   4.604 -0.5079  0.1312 -0.7699
 6340SOL     OW19256   4.252   0.318   0.026  0.0790  0.0791  0.7390
 6340SOL    HW119257   4.320   0.281   0.083  1.1063  1.1080  0.2465
 6340SOL    HW219258   4.279   0.410   0.015 -1.9375  0.7767  1.3094
 6341SOL     OW19259   4.342   0.356   3.977 -0.2021 -0.0324 -0.0266
 6341SOL    HW119260   4.365   0.417   3.907  0.8990  0.6683  0.9189
 6341SOL    HW219261   4.423   0.345   4.027 -0.5466 -1.7620  0.2202
 6342SOL     OW19262   2.048   4.369   2.514  0.6907  0.2850  0.1609
 6342SOL    HW119263   2.138   4.364   2.544  0.3515  0.2451  1.2168
 6342SOL    HW219264   1.997   4.383   2.594 -0.1739  1.0010 -0.4982
 6343SOL     OW19265   5.616   0.548   3.780 -0.2536 -0.0365 -0.0550
 6343SOL    HW119266   5.590   0.456   3.781 -0.7743  0.0776 -1.4884
 6343SOL    HW219267   5.582   0.583   3.698  1.2769  1.0643 -0.2798
 6344SOL     OW19268   5.309   4.036   2.056 -0.1140 -0.2759 -0.0965
 6344SOL    HW119269   5.251   4.112   2.064  4.2583  3.2957  3.9981
 6344SOL    HW219270   5.347   4.044   1.969 -1.2198  1.0762 -0.4982
 6345SOL     OW19271   5.163   2.706   0.517  0.2708 -0.3567 -0.3379
 6345SOL    HW119272   5.121   2.750   0.443 -3.1758  1.6059  2.4549
 6345SOL    HW219273   5.236   2.764   0.542  0.7266 -0.4354 -1.4585
 6346SOL     OW19274   5.325   1.980   2.202 -0.1209  0.2594 -0.2286
 6346SOL    HW119275   5.370   2.042   2.145  1.1091 -1.5075 -1.2658
 6346SOL    HW219276   5.289   1.915   2.143 -0.5726 -0.5276  0.8809
 6347SOL     OW19277   4.841   0.552   1.083  0.5312 -0.6449  0.1154
 6347SOL    HW119278   4.858   0.494   1.158 -3.1081 -0.0439  1.6078
 6347SOL    HW219279   4.919   0.607   1.076  1.3478 -1.3238  2.9184
 6348SOL     OW19280   5.711   4.439   4.764 -0.1787  0.6950  0.0066
 6348SOL    HW119281   5.685   4.430   4.856  0.2756  0.3730  0.1033
 6348SOL    HW219282   5.791   4.388   4.756  2.5132  4.4100  0.5880
 6349SOL     OW19283   4.426   5.874   5.767  0.0494 -0.1529  0.1660
 6349SOL    HW119284   4.477   5.857   5.687  2.7675 -1.0209  1.9399
 6349SOL    HW219285   4.481   5.934   5.818 -1.4458  0.0970  1.5464
 6350SOL     OW19286   4.233   4.904   3.210  0.0827  0.0467  0.0555
 6350SOL    HW119287   4.160   4.854   3.172  0.3186  0.0134 -0.3663
 6350SOL    HW219288   4.300   4.902   3.142  0.6269 -0.2633  0.6004
 6351SOL     OW19289   0.513   5.679   4.499 -0.6932 -0.2845 -0.2764
 6351SOL    HW119290   0.524   5.712   4.410  1.4653  1.9141  0.6713
 6351SOL    HW219291   0.593   5.628   4.515  0.0674  1.2295  1.0618
 6352SOL     OW19292   2.793   4.324   0.683 -0.1169  0.0294 -0.3454
 6352SOL    HW119293   2.738   4.276   0.622 -1.0143  0.4219  0.1280
 6352SOL    HW219294   2.878   4.281   0.678 -0.3820 -0.3971 -1.3221
 6353SOL     OW19295   2.047   1.721   0.947  0.7223 -0.5399 -1.0728
 6353SOL    HW119296   1.961   1.697   0.910  0.3235  0.0330 -0.5396
 6353SOL    HW219297   2.102   1.645   0.930 -0.1193 -1.2503 -0.7005
 6354SOL     OW19298   4.311   4.450   1.335  0.2443  0.1753  0.7349
 6354SOL    HW119299   4.255   4.501   1.276 -1.0915 -0.4622  1.4110
 6354SOL    HW219300   4.359   4.516   1.385 -0.7137  0.7672  0.9031
 6355SOL     OW19301   5.607   5.788   2.055 -0.3782  0.2100 -0.3030
 6355SOL    HW119302   5.572   5.767   1.969 -0.8825 -1.6885  0.3026
 6355SOL    HW219303   5.551   5.859   2.087 -1.8409 -0.7950 -0.5437
 6356SOL     OW19304   0.496   0.016   2.486  0.4783 -0.1803  0.6986
 6356SOL    HW119305   0.461  -0.054   2.540  0.1843 -0.1362  0.5653
 6356SOL    HW219306   0.561  -0.027   2.430  0.1660 -0.3781  0.4896
 6357SOL     OW19307   1.025   3.855   1.261 -0.7170  1.3076  0.5543
 6357SOL    HW119308   1.067   3.889   1.339  0.0493  0.7620  0.3852
 6357SOL    HW219309   1.097   3.835   1.201 -0.9372 -2.2171  1.2714
 6358SOL     OW19310   2.109   3.344   2.921  0.9729 -0.2998  0.6819
 6358SOL    HW119311   2.062   3.394   2.988  1.7685  1.0272  0.2945
 6358SOL    HW219312   2.171   3.290   2.971 -0.1130 -1.1727  1.1238
 6359SOL     OW19313   4.793   1.702   1.150  0.6519  0.8358  0.2257
 6359SOL    HW119314   4.719   1.696   1.210 -0.7246 -0.1218 -1.4590
 6359SOL    HW219315   4.753   1.724   1.065  1.7049 -3.5643 -1.6840
 6360SOL     OW19316   2.624   2.910   4.050 -0.8709  0.3464  0.0706
 6360SOL    HW119317   2.688   2.910   4.121 -2.4012 -0.7667  1.5343
 6360SOL    HW219318   2.579   2.993   4.058  2.0590  2.4538 -2.7179
 6361SOL     OW19319   2.926   5.841   0.113  0.1643 -0.2794 -0.3032
 6361SOL    HW119320   2.945   5.754   0.079 -0.1382  0.1251 -1.5413
 6361SOL    HW219321   3.009   5.887   0.110  0.2868 -0.4546  0.1910
 6362SOL     OW19322   5.167   4.216   0.871  0.6427  0.5262  0.0372
 6362SOL    HW119323   5.107   4.280   0.909  1.8203 -0.3897  3.9861
 6362SOL    HW219324   5.116   4.136   0.863  0.6745  0.3657  1.1912
 6363SOL     OW19325   0.083   2.709   3.410  0.1318  0.3927  0.0398
 6363SOL    HW119326   0.145   2.774   3.444  0.0088  1.1551 -1.1395
 6363SOL    HW219327  -0.002   2.737   3.444 -0.3714  2.5385 -2.6246
 6364SOL     OW19328   1.742   3.186   4.537 -0.8267 -0.6050 -0.5944
 6364SOL    HW119329   1.803   3.258   4.521 -0.2737 -1.3010 -1.7665
 6364SOL    HW219330   1.674   3.224   4.593 -0.4631  0.7719 -1.0480
 6365SOL     OW19331   5.828   4.018   4.997 -0.0086  0.5053  0.2244
 6365SOL    HW119332   5.912   3.991   5.035  0.8132  1.6038 -0.7126
 6365SOL    HW219333   5.771   4.033   5.072  0.7378  0.0869  0.8984
 6366SOL     OW19334   0.668   4.740   3.667 -0.2720  0.2805  0.8816
 6366SOL    HW119335   0.626   4.654   3.664 -1.6853  0.9401  0.8695
 6366SOL    HW219336   0.750   4.728   3.620 -1.5440 -0.4995 -1.3096
 6367SOL     OW19337   4.971   2.415   5.784 -0.2406  0.1378  0.0358
 6367SOL    HW119338   4.960   2.357   5.709  0.5187  1.0674 -0.8078
 6367SOL    HW219339   4.929   2.368   5.856  0.8396 -1.7431 -0.4784
 6368SOL     OW19340   3.287   1.060   4.267  0.3539 -0.2312  0.0751
 6368SOL    HW119341   3.216   0.997   4.253 -0.2642  0.4885 -0.0614
 6368SOL    HW219342   3.346   1.016   4.328 -0.5407 -0.5847  0.7091
 6369SOL     OW19343   1.971   2.054   1.457  0.5179  0.4468  0.7152
 6369SOL    HW119344   2.002   2.088   1.541 -2.0487  1.8436  1.1874
 6369SOL    HW219345   1.987   2.126   1.395 -0.3967  0.6418  0.6872
 6370SOL     OW19346   5.179   4.281   3.416  0.0462 -0.5853  0.2755
 6370SOL    HW119347   5.208   4.359   3.369  1.4947  1.2054  3.7367
 6370SOL    HW219348   5.211   4.208   3.362  3.3286  1.2706 -0.6253
 6371SOL     OW19349   5.443   0.663   3.997  0.1331 -0.3919 -0.0134
 6371SOL    HW119350   5.522   0.611   4.013  0.4593  0.0573 -0.1607
 6371SOL    HW219351   5.371   0.602   4.014  0.4960 -1.5179 -2.1765
 6372SOL     OW19352   4.692   0.754   0.492 -0.2993 -0.6463 -0.1379
 6372SOL    HW119353   4.635   0.803   0.433  1.0014  1.1207 -0.0194
 6372SOL    HW219354   4.742   0.822   0.538  1.5212 -2.0940  0.1313
 6373SOL     OW19355   1.204   2.027   4.428  0.2781  0.1023 -0.1014
 6373SOL    HW119356   1.286   2.033   4.478 -0.7349  0.7045  1.5430
 6373SOL    HW219357   1.137   2.062   4.486 -1.4651 -1.9054 -0.7689
 6374SOL     OW19358   2.628   0.630   2.646 -0.3087  0.6763 -0.4383
 6374SOL    HW119359   2.685   0.705   2.659  0.9500  0.2940 -3.0284
 6374SOL    HW219360   2.544   0.668   2.619  0.4132  1.1890 -2.0571
 6375SOL     OW19361   2.501   5.000   4.884 -0.1206 -0.6743  0.1318
 6375SOL    HW119362   2.481   5.067   4.949 -0.5203  0.3194 -0.9865
 6375SOL    HW219363   2.424   4.944   4.882  0.0854 -0.9973  0.8375
 6376SOL     OW19364   5.617   3.741   1.895 -0.0711  0.0661  0.3676
 6376SOL    HW119365   5.570   3.779   1.820 -1.8974  0.2982  1.5737
 6376SOL    HW219366   5.701   3.712   1.858  0.3886  2.9328 -1.1298
 6377SOL     OW19367   2.563   3.568   6.011  0.4628 -0.1058 -0.6938
 6377SOL    HW119368   2.601   3.645   5.968 -4.1021  3.3503  0.6766
 6377SOL    HW219369   2.572   3.586   6.104 -0.6709 -1.2509 -0.3325
 6378SOL     OW19370   3.415   3.561   0.713 -0.0029 -0.0715  0.0669
 6378SOL    HW119371   3.446   3.481   0.753  1.4136  0.8805  0.9497
 6378SOL    HW219372   3.320   3.550   0.707 -0.1758 -0.6299  2.8452
 6379SOL     OW19373   1.554   1.832   2.883 -0.2306  0.5952  0.0886
 6379SOL    HW119374   1.613   1.808   2.954  0.6215 -0.2697 -0.8695
 6379SOL    HW219375   1.467   1.833   2.923 -0.0355 -1.8769  0.7585
 6380SOL     OW19376   1.959   4.193   2.328  0.4862  0.0323 -0.0266
 6380SOL    HW119377   1.997   4.253   2.392 -1.0319  2.0613 -0.8880
 6380SOL    HW219378   1.999   4.219   2.245  2.0357 -2.2153 -0.0767
 6381SOL     OW19379   2.091   0.833   0.858 -0.2130 -0.7291 -0.4041
 6381SOL    HW119380   2.099   0.924   0.830  1.5442 -0.1379  1.8070
 6381SOL    HW219381   2.127   0.783   0.784  2.0383  0.6223 -0.3300
 6382SOL     OW19382   4.205   2.837   0.247 -0.4342  0.8704 -0.1694
 6382SOL    HW119383   4.221   2.930   0.262  1.8966  0.3472  1.0089
 6382SOL    HW219384   4.290   2.802   0.222 -1.8755 -0.4285 -4.0385
 6383SOL     OW19385   3.152   2.016   0.308 -0.5971 -0.2979  0.2937
 6383SOL    HW119386   3.184   1.931   0.339 -0.5300 -1.1737 -1.9634
 6383SOL    HW219387   3.217   2.043   0.243 -0.7377  1.4081  0.8156
 6384SOL     OW19388   1.946   1.154   0.402 -0.4836  0.2295 -0.6530
 6384SOL    HW119389   1.918   1.230   0.452 -1.4627  1.4282 -2.8574
 6384SOL    HW219390   1.872   1.133   0.345  0.6843 -0.7378 -1.9168
 6385SOL     OW19391   1.607   4.869   3.518 -0.2143 -0.0691 -0.0547
 6385SOL    HW119392   1.541   4.918   3.567 -0.3852  0.7517 -1.0753
 6385SOL    HW219393   1.575   4.867   3.428 -0.0432 -1.8052 -0.1011
 6386SOL     OW19394   0.238   4.714   3.648 -0.2622  0.3146  0.1807
 6386SOL    HW119395   0.251   4.808   3.661 -1.8827  0.7682 -1.0533
 6386SOL    HW219396   0.247   4.703   3.553 -0.7771 -0.6621  0.2431
 6387SOL     OW19397   0.382   2.429   2.072  0.4904  0.4017  0.0108
 6387SOL    HW119398   0.313   2.466   2.128  0.3070 -0.3044  0.2637
 6387SOL    HW219399   0.458   2.485   2.087  0.5742 -0.0180  1.3004
 6388SOL     OW19400   3.877   1.718   1.584 -0.1690 -0.0832  0.0901
 6388SOL    HW119401   3.802   1.758   1.628 -0.0060 -0.1650  0.4464
 6388SOL    HW219402   3.850   1.710   1.492 -0.6961 -0.3562  0.2678
 6389SOL     OW19403   3.725   2.886   5.420 -0.1998 -0.5143 -0.2419
 6389SOL    HW119404   3.812   2.847   5.416  0.6456  1.0681  1.3590
 6389SOL    HW219405   3.740   2.979   5.403 -0.8231  0.6111  4.0873
 6390SOL     OW19406   3.678   5.956   1.980 -0.3722  0.2395 -0.2968
 6390SOL    HW119407   3.649   6.023   2.041  0.9183 -0.0214  0.6534
 6390SOL    HW219408   3.684   5.876   2.033  0.9462  0.0528 -0.6924
 6391SOL     OW19409   0.639   2.252   5.197 -0.8487 -0.0701  0.0643
 6391SOL    HW119410   0.626   2.291   5.283 -0.0527  0.4611 -0.0418
 6391SOL    HW219411   0.720   2.201   5.205 -0.7384  0.0266 -0.3783
 6392SOL     OW19412   1.958   5.209   5.956 -0.2064 -0.0601  0.0082
 6392SOL    HW119413   2.046   5.244   5.970 -0.6100  0.6402  0.8717
 6392SOL    HW219414   1.957   5.126   6.003  0.0786 -0.2206 -0.2619
 6393SOL     OW19415   3.477   2.065   0.863  0.1088  0.1210 -0.2259
 6393SOL    HW119416   3.501   2.157   0.865 -0.0291  0.1681 -0.5612
 6393SOL    HW219417   3.407   2.056   0.927 -0.2099  0.3505 -0.5375
 6394SOL     OW19418   3.646   1.764   3.828  0.5689 -0.3169 -0.2083
 6394SOL    HW119419   3.666   1.838   3.886  1.8395 -0.3086 -0.6331
 6394SOL    HW219420   3.650   1.688   3.886  0.4943 -0.1805 -0.0198
 6395SOL     OW19421   1.944   2.414   3.444 -0.4774 -0.2082 -0.0094
 6395SOL    HW119422   1.974   2.359   3.372  1.5134  0.5456  0.1770
 6395SOL    HW219423   1.973   2.367   3.523 -2.2490 -0.8068  0.3251
 6396SOL     OW19424   2.249   0.331   3.579  0.1302 -0.0215 -0.1633
 6396SOL    HW119425   2.313   0.397   3.607 -0.0475  0.0250  0.1434
 6396SOL    HW219426   2.290   0.288   3.504 -0.0930  0.9991 -0.8950
 6397SOL     OW19427   1.022   5.382   0.528  0.3690 -0.0265 -0.1270
 6397SOL    HW119428   1.012   5.294   0.491 -1.2587  0.2614 -0.4689
 6397SOL    HW219429   1.083   5.371   0.601  0.7893 -1.2898 -0.6368
 6398SOL     OW19430   1.164   5.106   3.316 -0.4525  0.7027  0.3243
 6398SOL    HW119431   1.241   5.151   3.352  1.4917 -1.6740 -0.5927
 6398SOL    HW219432   1.108   5.091   3.392  0.2132  2.0133  1.1195
 6399SOL     OW19433   0.728   1.486   0.208  0.1260 -0.6030  0.7209
 6399SOL    HW119434   0.793   1.552   0.231  1.9466 -1.7828 -0.7338
 6399SOL    HW219435   0.755   1.408   0.258 -0.0329 -1.1673 -0.0626
 6400SOL     OW19436   3.598   4.821   5.071 -0.0482  0.4297  0.4275
 6400SOL    HW119437   3.566   4.731   5.065 -0.8019  0.5814  1.6985
 6400SOL    HW219438   3.658   4.831   4.997  0.4963 -1.2922  0.6000
 6401SOL     OW19439   6.027   2.341   0.949  0.2812  0.2466  0.5195
 6401SOL    HW119440   6.096   2.381   1.002  0.5505  3.1899 -1.7653
 6401SOL    HW219441   5.947   2.384   0.979  0.5197  2.4479 -1.6994
 6402SOL     OW19442   0.071   4.252   4.037  0.5843  0.4172  0.1964
 6402SOL    HW119443   0.109   4.323   3.985  2.5963  0.9868  2.2856
 6402SOL    HW219444   0.069   4.286   4.126  0.4311 -1.7012  1.0559
 6403SOL     OW19445   0.352   4.291   2.202 -0.2221  0.5136  0.4505
 6403SOL    HW119446   0.411   4.221   2.227 -0.0635  0.2791 -0.5480
 6403SOL    HW219447   0.409   4.366   2.183 -0.2654  0.3951 -0.1606
 6404SOL     OW19448   4.170   5.637   1.561 -0.1896  0.3792  0.0022
 6404SOL    HW119449   4.178   5.682   1.476 -0.4109  0.3033 -0.0614
 6404SOL    HW219450   4.112   5.694   1.612 -1.0817 -0.1997 -0.3399
 6405SOL     OW19451   0.346   6.077   4.642  0.2899  0.0039 -0.4251
 6405SOL    HW119452   0.358   6.172   4.654 -0.1144  0.0085 -0.0141
 6405SOL    HW219453   0.319   6.046   4.728 -0.1664 -0.3917 -0.7051
 6406SOL     OW19454   3.249   3.275   2.956  0.0162 -0.6285  0.1463
 6406SOL    HW119455   3.221   3.315   2.875  0.2913  0.1101  0.4100
 6406SOL    HW219456   3.231   3.340   3.024 -0.2666 -1.2537  0.6886
 6407SOL     OW19457   2.662   5.328   0.988 -0.2129 -0.1635  0.5134
 6407SOL    HW119458   2.654   5.255   1.049  0.7282 -0.5347  0.2086
 6407SOL    HW219459   2.617   5.298   0.909 -0.7472  0.0072  0.7514
 6408SOL     OW19460   0.274   4.988   5.465  0.2383  0.0705 -0.0707
 6408SOL    HW119461   0.242   4.922   5.404 -1.2509  0.8232 -0.1383
 6408SOL    HW219462   0.366   5.000   5.441 -0.0335 -0.4288 -1.4406
 6409SOL     OW19463   0.758   6.050   5.220 -0.9581 -0.0167  0.2434
 6409SOL    HW119464   0.716   5.966   5.202 -1.2531 -0.0109  0.8663
 6409SOL    HW219465   0.686   6.109   5.240 -0.7644  0.4349 -0.3651
 6410SOL     OW19466   4.882   2.372   0.472 -0.1812  0.1861 -0.0316
 6410SOL    HW119467   4.823   2.437   0.435 -0.7636 -0.0524  0.4519
 6410SOL    HW219468   4.966   2.416   0.477 -0.4985  0.8008  0.0139
 6411SOL     OW19469   2.410   4.740   0.692  0.4043  0.0421  0.5354
 6411SOL    HW119470   2.428   4.646   0.684 -0.2109 -0.0491  0.1269
 6411SOL    HW219471   2.315   4.746   0.687  0.4782  0.7663 -0.3631
 6412SOL     OW19472   2.876   5.622   1.050 -0.1179  0.2413  0.2409
 6412SOL    HW119473   2.934   5.605   1.124  0.0845  1.1941  0.3078
 6412SOL    HW219474   2.909   5.703   1.012 -0.9294  0.3703 -0.1994
 6413SOL     OW19475   2.403   1.515   1.837 -0.1023 -0.1198  0.4628
 6413SOL    HW119476   2.352   1.579   1.888  1.9550  0.9218  1.3261
 6413SOL    HW219477   2.337   1.464   1.791 -1.9140  1.4979  1.1014
 6414SOL     OW19478   0.528   3.112   4.510  0.6789  0.6407  0.1074
 6414SOL    HW119479   0.611   3.105   4.557  0.6638 -2.2121 -0.0955
 6414SOL    HW219480   0.467   3.059   4.562 -0.5846  1.3550 -0.6092
 6415SOL     OW19481   5.061   0.145   2.711 -0.2477 -0.3084 -0.1297
 6415SOL    HW119482   4.998   0.212   2.684 -1.2517 -1.1166  0.1482
 6415SOL    HW219483   5.055   0.143   2.806 -0.2607 -0.8328 -0.1410
 6416SOL     OW19484   3.467   4.683   5.339 -0.0479  0.4499 -0.0891
 6416SOL    HW119485   3.476   4.664   5.245  2.6705  2.6680 -0.4101
 6416SOL    HW219486   3.379   4.722   5.347 -0.8736 -1.0337 -1.4160
 6417SOL     OW19487   0.371   5.191   2.018 -0.0341  0.2953  0.0351
 6417SOL    HW119488   0.449   5.210   1.966 -0.5930  0.2379 -0.8317
 6417SOL    HW219489   0.360   5.096   2.012  0.6727  0.0859  1.4044
 6418SOL     OW19490   2.228   5.356   3.153  0.3345 -0.5755 -0.1645
 6418SOL    HW119491   2.302   5.412   3.134 -0.1076 -0.1747 -0.7127
 6418SOL    HW219492   2.240   5.330   3.245  2.3240 -2.2968 -0.8321
 6419SOL     OW19493   1.117   4.841   3.199 -0.7811 -0.6389  0.1419
 6419SOL    HW119494   1.123   4.827   3.294 -0.1308 -1.2912  0.0162
 6419SOL    HW219495   1.139   4.934   3.187 -3.1857  0.1008  0.8167
 6420SOL     OW19496   4.312   3.479   3.673 -0.6620  0.8179  0.1952
 6420SOL    HW119497   4.320   3.559   3.725 -0.5401  1.7031 -1.1208
 6420SOL    HW219498   4.385   3.483   3.612 -1.0240  0.0195 -0.3042
 6421SOL     OW19499   0.140   3.432   2.059 -0.3517  0.0370 -0.1346
 6421SOL    HW119500   0.197   3.490   2.109 -1.6704 -0.3122  1.8776
 6421SOL    HW219501   0.154   3.345   2.096  1.2899 -0.9875 -2.8452
 6422SOL     OW19502   1.085   4.494   3.615  0.0771  0.0404 -0.0069
 6422SOL    HW119503   1.164   4.471   3.568 -0.3439  0.8259 -1.1362
 6422SOL    HW219504   1.018   4.435   3.581  0.2266 -0.8343  1.1695
 6423SOL     OW19505   5.474   2.868   5.152 -0.0966  0.8911  0.3788
 6423SOL    HW119506   5.487   2.776   5.175  1.9839  1.1454  0.4659
 6423SOL    HW219507   5.545   2.914   5.198 -0.4590  2.3981 -0.4891
 6424SOL     OW19508   5.704   0.933   2.562  0.2490  0.8808  0.3434
 6424SOL    HW119509   5.655   1.013   2.580 -0.4953  0.8276 -1.2455
 6424SOL    HW219510   5.682   0.911   2.471  1.1665 -0.6156  0.4402
 6425SOL     OW19511   5.141   3.009   0.411 -0.1284  0.5158  0.0927
 6425SOL    HW119512   5.049   3.010   0.436 -0.0275  0.5277  0.4717
 6425SOL    HW219513   5.178   3.088   0.451  0.5933 -0.7574  2.0886
 6426SOL     OW19514   5.369   5.358   0.799  0.2064 -0.9174  0.2692
 6426SOL    HW119515   5.359   5.437   0.852  1.8398 -0.3916 -0.1567
 6426SOL    HW219516   5.279   5.325   0.788 -0.5354  1.0153  0.2319
 6427SOL     OW19517   1.698   5.545   3.115 -0.0323  0.3632  0.3172
 6427SOL    HW119518   1.675   5.552   3.207 -2.9058  1.1237 -0.3793
 6427SOL    HW219519   1.697   5.451   3.097 -0.2083  0.2545  0.8865
 6428SOL     OW19520   3.002   4.735   5.605  0.4929  0.0930 -0.2592
 6428SOL    HW119521   2.956   4.772   5.529 -0.9320 -1.5467 -0.2311
 6428SOL    HW219522   2.994   4.641   5.595  2.0738 -0.2069  0.8816
 6429SOL     OW19523   2.099   2.407   2.315 -0.1751  0.1226  0.4310
 6429SOL    HW119524   2.124   2.328   2.363  1.9210  0.1497 -0.5084
 6429SOL    HW219525   2.008   2.424   2.342  0.7445 -0.0197  4.1073
 6430SOL     OW19526   1.552   2.252   2.979 -0.6773 -0.2973  0.1117
 6430SOL    HW119527   1.555   2.177   3.038  1.2651 -1.8435 -1.7782
 6430SOL    HW219528   1.504   2.221   2.903  0.1390  0.3540 -0.6911
 6431SOL     OW19529   3.560   1.900   4.888 -0.4401 -0.4436 -0.3768
 6431SOL    HW119530   3.542   1.853   4.806  0.3126 -0.6862 -0.4060
 6431SOL    HW219531   3.625   1.966   4.865 -0.8026  0.0059 -0.1335
 6432SOL     OW19532   5.343   0.164   5.549  0.6075  0.7780  0.8807
 6432SOL    HW119533   5.391   0.097   5.598  0.3115  1.1655  1.7303
 6432SOL    HW219534   5.410   0.216   5.507  0.8757  0.4662  0.9175
 6433SOL     OW19535   4.548   3.372   5.094  0.3134 -0.0922  0.5602
 6433SOL    HW119536   4.635   3.410   5.105 -0.0485  0.3970  1.8636
 6433SOL    HW219537   4.493   3.418   5.158 -0.7009 -1.0351  0.3955
 6434SOL     OW19538   1.105   6.010   5.537  0.4409  0.0058 -0.4636
 6434SOL    HW119539   1.138   6.035   5.624  2.1501 -0.4722 -0.9403
 6434SOL    HW219540   1.178   6.025   5.478 -0.4059 -0.5285 -1.6974
 6435SOL     OW19541   1.323   3.636   2.780 -0.0589 -0.2349  0.2791
 6435SOL    HW119542   1.354   3.574   2.846  2.2355 -1.4722 -1.7691
 6435SOL    HW219543   1.404   3.671   2.741 -1.2907  2.8115  0.1571
 6436SOL     OW19544   0.064   2.332   0.617  0.2161 -0.2918  0.2437
 6436SOL    HW119545   0.028   2.420   0.604  0.2937 -0.0246  1.6558
 6436SOL    HW219546  -0.003   2.274   0.581  0.8016  0.3471 -2.0474
 6437SOL     OW19547   3.242   0.869   0.706 -0.2375  0.1509  0.5903
 6437SOL    HW119548   3.165   0.911   0.670  0.1601  1.7359  1.4832
 6437SOL    HW219549   3.258   0.915   0.789  1.2300 -0.6336  0.7777
 6438SOL     OW19550   3.311   3.797   1.778 -0.2868 -0.1266 -0.9408
 6438SOL    HW119551   3.320   3.874   1.833  0.2865 -1.4425  0.9062
 6438SOL    HW219552   3.400   3.776   1.750 -0.2525 -0.9048 -0.2762
 6439SOL     OW19553   0.457   6.005   2.690  0.5292  0.1691 -0.0920
 6439SOL    HW119554   0.486   5.925   2.733  1.9220  0.8514  0.2971
 6439SOL    HW219555   0.415   6.056   2.759  3.5440  1.6547  0.8331
 6440SOL     OW19556   5.573   4.237   6.034  0.0758  0.0611  0.0480
 6440SOL    HW119557   5.514   4.220   5.961 -0.0441 -1.2053  0.4117
 6440SOL    HW219558   5.657   4.258   5.993 -0.3044  0.6139 -0.4593
 6441SOL     OW19559   4.758   3.066   0.205  0.1786  0.1367 -0.3837
 6441SOL    HW119560   4.665   3.089   0.214 -0.6041 -1.6902 -2.7232
 6441SOL    HW219561   4.803   3.150   0.196 -1.3643  1.0246 -0.2158
 6442SOL     OW19562   0.630   4.523   2.767 -0.2377  0.8172 -0.1872
 6442SOL    HW119563   0.701   4.487   2.714  0.8747 -1.6943  2.6869
 6442SOL    HW219564   0.559   4.459   2.758 -0.8226  1.4638 -0.2549
 6443SOL     OW19565   6.097   5.283   3.517  0.6755 -0.1138  0.2757
 6443SOL    HW119566   6.022   5.283   3.457  0.4119 -1.1070  0.5921
 6443SOL    HW219567   6.168   5.244   3.466  0.9176  0.5885  0.0627
 6444SOL     OW19568   2.293   2.060   4.886  0.5162  0.0254 -0.0035
 6444SOL    HW119569   2.237   2.008   4.943 -0.4096  0.2592 -0.6831
 6444SOL    HW219570   2.236   2.128   4.852  1.0886 -0.0250 -1.1020
 6445SOL     OW19571   0.303   1.386   2.916  0.1847  0.4068  0.1509
 6445SOL    HW119572   0.276   1.325   2.848  0.5600 -0.3002  0.6286
 6445SOL    HW219573   0.329   1.331   2.990  0.1053  1.1517  0.7528
 6446SOL     OW19574   1.681   3.036   2.079  0.5461  0.5281  0.1585
 6446SOL    HW119575   1.680   2.943   2.055 -0.5456  0.7311 -0.6865
 6446SOL    HW219576   1.774   3.060   2.081  0.7627  0.0265 -2.0923
 6447SOL     OW19577   4.785   5.744   6.042 -0.3148  0.3409 -0.0618
 6447SOL    HW119578   4.879   5.730   6.052 -0.5439 -0.8276  0.5430
 6447SOL    HW219579   4.779   5.825   5.990  1.0044  0.9672  0.6969
 6448SOL     OW19580   5.659   5.299   4.624 -0.1274  0.3256  0.5934
 6448SOL    HW119581   5.739   5.314   4.573 -1.1135  0.1735 -1.0753
 6448SOL    HW219582   5.619   5.385   4.632 -0.0231  0.3336  1.0355
 6449SOL     OW19583   2.622   5.078   3.588 -0.5705 -0.6966  0.2717
 6449SOL    HW119584   2.594   5.088   3.679 -0.3000  1.4867  0.1754
 6449SOL    HW219585   2.597   5.160   3.546 -1.6651 -2.0597 -1.9296
 6450SOL     OW19586   2.349   0.110   2.158  0.5556 -0.1902 -0.2840
 6450SOL    HW119587   2.438   0.100   2.192  0.5592 -0.7642 -0.4416
 6450SOL    HW219588   2.320   0.020   2.141  0.7902  0.0703 -2.3819
 6451SOL     OW19589   5.282   4.273   5.293 -0.2847 -0.3663 -0.7538
 6451SOL    HW119590   5.322   4.360   5.290 -1.4376  0.1667 -1.0930
 6451SOL    HW219591   5.194   4.288   5.328 -0.0401 -1.5798  0.4515
 6452SOL     OW19592   5.672   5.998   4.104 -0.3455 -0.1153 -0.0424
 6452SOL    HW119593   5.625   5.958   4.030 -3.4851  0.2043  1.5890
 6452SOL    HW219594   5.698   6.084   4.073 -1.7579  0.0794 -0.7526
 6453SOL     OW19595   4.990   3.702   1.258 -0.3600  0.6317  0.2223
 6453SOL    HW119596   5.018   3.612   1.272 -0.9601  0.2848 -0.7182
 6453SOL    HW219597   4.953   3.729   1.342  2.1087  0.9004  1.3255
 6454SOL     OW19598   3.439   3.246   3.160  0.0496 -0.4262 -0.2077
 6454SOL    HW119599   3.375   3.235   3.091 -0.0812 -0.6069 -0.0594
 6454SOL    HW219600   3.387   3.260   3.239  0.1977 -0.1336 -0.1576
 6455SOL     OW19601   2.282   5.285   5.268 -0.1574 -0.1099  0.1596
 6455SOL    HW119602   2.326   5.369   5.278 -0.4706  0.1778 -0.8238
 6455SOL    HW219603   2.237   5.272   5.351 -0.8578  1.1388  0.0038
 6456SOL     OW19604   3.030   2.751   1.269 -0.3163 -0.4627  0.1322
 6456SOL    HW119605   2.960   2.726   1.209 -1.1191  1.0086  0.3924
 6456SOL    HW219606   3.094   2.681   1.262 -1.5536 -1.5742 -0.5421
 6457SOL     OW19607   2.564   2.070   0.455  0.3631  0.2917 -0.4889
 6457SOL    HW119608   2.485   2.049   0.504  0.2026  0.0246 -0.8643
 6457SOL    HW219609   2.604   1.985   0.436  0.4904  0.4018 -0.7134
 6458SOL     OW19610   0.173   1.119   2.217 -0.2059  0.1594 -0.2448
 6458SOL    HW119611   0.133   1.191   2.266  1.4887  1.4522 -0.6736
 6458SOL    HW219612   0.230   1.162   2.153 -1.0320 -1.5103 -2.2455
 6459SOL     OW19613   3.803   1.438   5.054 -0.1987 -0.8358  0.1487
 6459SOL    HW119614   3.881   1.473   5.098 -1.3243  0.9028  0.8256
 6459SOL    HW219615   3.748   1.514   5.037 -2.2255 -2.1223  0.5789
 6460SOL     OW19616   4.269   2.297   5.459  0.4105  0.1480  0.5231
 6460SOL    HW119617   4.272   2.247   5.377  0.4209  2.2655 -0.8392
 6460SOL    HW219618   4.249   2.387   5.431 -1.7460  0.5625  3.0120
 6461SOL     OW19619   2.695   3.574   4.213  0.7837  0.1106  0.1191
 6461SOL    HW119620   2.760   3.642   4.227 -0.6885  1.5667  0.1860
 6461SOL    HW219621   2.688   3.530   4.298  2.6735 -1.0606 -0.2628
 6462SOL     OW19622   2.411   5.802   0.677  0.1785 -0.1803  0.1628
 6462SOL    HW119623   2.481   5.736   0.673  0.4205 -0.1036  1.9525
 6462SOL    HW219624   2.416   5.835   0.767  0.0050  2.2499 -0.6569
 6463SOL     OW19625   3.431   0.002   4.754  0.2094  0.2032 -0.0410
 6463SOL    HW119626   3.370  -0.071   4.745  1.6996 -0.9570 -1.3049
 6463SOL    HW219627   3.518  -0.038   4.749  1.0899  2.1258 -1.4761
 6464SOL     OW19628   5.982   2.595   0.305 -0.3447 -0.3190  0.3641
 6464SOL    HW119629   5.958   2.535   0.235 -3.2302  0.9643  0.1154
 6464SOL    HW219630   5.985   2.681   0.264  1.8735  0.0251  1.0850
 6465SOL     OW19631   4.217   4.926   5.418  0.3138  0.5814  0.1016
 6465SOL    HW119632   4.267   4.935   5.499  2.0024  0.5490 -0.8779
 6465SOL    HW219633   4.277   4.959   5.350  0.4123 -2.7296 -1.5952
 6466SOL     OW19634   4.862   2.235   5.037 -0.6296  0.4670 -0.0950
 6466SOL    HW119635   4.906   2.160   5.077 -0.4111 -0.2415 -1.5928
 6466SOL    HW219636   4.900   2.311   5.081  1.0164 -0.2008 -0.2702
 6467SOL     OW19637   3.616   0.007   2.156 -0.5520  0.6057 -0.4912
 6467SOL    HW119638   3.679   0.071   2.123 -1.3408  1.4061 -0.5007
 6467SOL    HW219639   3.638  -0.003   2.248 -0.1025  0.5108 -0.6086
 6468SOL     OW19640   1.714   0.603   1.927  0.1925  0.0216  0.0255
 6468SOL    HW119641   1.697   0.522   1.974 -0.9636  0.6943  0.7982
 6468SOL    HW219642   1.808   0.599   1.907  0.5614 -0.6578  1.6883
 6469SOL     OW19643   5.144   1.860   4.335 -0.0028  0.6251 -0.1484
 6469SOL    HW119644   5.232   1.876   4.370 -0.0629  2.0684 -0.6241
 6469SOL    HW219645   5.101   1.945   4.338 -1.8437 -0.2621  1.2553
 6470SOL     OW19646   1.532   3.048   6.002  0.0079  0.3806  0.3680
 6470SOL    HW119647   1.588   3.124   6.011 -0.7031  0.8028  1.3651
 6470SOL    HW219648   1.452   3.082   5.960 -0.1118  0.0867  0.3515
 6471SOL     OW19649   4.405   5.723   2.435 -0.0335 -0.4179  0.3243
 6471SOL    HW119650   4.482   5.734   2.490  0.9813  1.6384 -1.3805
 6471SOL    HW219651   4.431   5.758   2.350 -2.3549 -1.1447 -0.7628
 6472SOL     OW19652   1.208   3.667   4.428 -0.1173 -0.6356  0.1423
 6472SOL    HW119653   1.150   3.672   4.503  1.5692 -0.3570  1.4820
 6472SOL    HW219654   1.295   3.690   4.462  0.4760  0.9625 -2.1559
 6473SOL     OW19655   3.564   4.345   0.534 -0.0398 -0.1094  0.1277
 6473SOL    HW119656   3.650   4.362   0.497 -0.6358  1.2838 -0.6847
 6473SOL    HW219657   3.514   4.305   0.462 -0.0246 -1.1452  0.6648
 6474SOL     OW19658   1.111   6.147   4.374 -0.1543 -0.1812 -0.0981
 6474SOL    HW119659   1.162   6.100   4.439  3.7844  0.9695 -2.0543
 6474SOL    HW219660   1.066   6.078   4.324 -0.7209 -1.2424  1.7930
 6475SOL     OW19661   4.792   0.362   5.260 -0.1056  0.2086  0.6220
 6475SOL    HW119662   4.751   0.325   5.338 -0.7116  0.5314  0.4600
 6475SOL    HW219663   4.886   0.361   5.279 -0.0566 -1.7818  0.4715
 6476SOL     OW19664   4.609   5.354   3.342 -0.1703 -0.7919  0.2308
 6476SOL    HW119665   4.646   5.319   3.260  3.7101  1.0606  0.9363
 6476SOL    HW219666   4.610   5.280   3.402  0.4629 -1.3117 -0.3943
 6477SOL     OW19667   0.873   4.003   5.468  0.0298 -0.7427  0.4775
 6477SOL    HW119668   0.968   3.995   5.464 -0.0496 -1.0696 -1.6115
 6477SOL    HW219669   0.843   3.922   5.509  0.6928 -0.0863  2.3358
 6478SOL     OW19670   0.574   3.528   2.678  0.3165 -0.0581  0.2747
 6478SOL    HW119671   0.605   3.613   2.647 -0.9922  0.1690 -0.4356
 6478SOL    HW219672   0.526   3.491   2.604  0.8434 -1.4172  0.5811
 6479SOL     OW19673   3.629   0.192   1.771  0.0243 -0.1779 -0.3420
 6479SOL    HW119674   3.588   0.106   1.772  0.4521 -0.4102 -1.6576
 6479SOL    HW219675   3.689   0.190   1.697 -1.5735  2.0273 -1.8198
 6480SOL     OW19676   5.325   1.778   2.530  0.2133 -0.2703  0.4777
 6480SOL    HW119677   5.266   1.712   2.567  1.9069 -1.3933  1.2919
 6480SOL    HW219678   5.362   1.735   2.452  1.1653 -0.2208  0.8927
 6481SOL     OW19679   3.250   4.382   0.502 -0.1149  0.4001  0.4030
 6481SOL    HW119680   3.271   4.300   0.546 -2.1394 -1.4869 -1.8861
 6481SOL    HW219681   3.291   4.374   0.415 -0.8854  1.5245 -0.0932
 6482SOL     OW19682   3.074   4.314   5.820  0.0109  0.4103  0.2747
 6482SOL    HW119683   3.056   4.309   5.914 -0.1864 -0.1555  0.2149
 6482SOL    HW219684   3.031   4.394   5.791  0.0560  0.5772  0.6650
 6483SOL     OW19685   0.977   4.113   2.672  0.2120  0.0397  0.0385
 6483SOL    HW119686   1.006   4.041   2.616 -3.1818 -2.1474  0.7914
 6483SOL    HW219687   1.053   4.133   2.726  2.0616 -1.1698 -1.9380
 6484SOL     OW19688   0.602   1.907   3.103 -0.8679 -0.0135  0.0403
 6484SOL    HW119689   0.623   1.824   3.145  0.0439 -0.6568 -1.6090
 6484SOL    HW219690   0.673   1.921   3.040 -2.3264  0.7444 -1.5103
 6485SOL     OW19691   0.859   1.729   3.713 -0.0556  0.4427  0.4726
 6485SOL    HW119692   0.844   1.775   3.795  0.0774  1.8266 -0.2452
 6485SOL    HW219693   0.881   1.798   3.650 -1.7025 -0.3999 -1.1191
 6486SOL     OW19694   1.383   3.138   3.710  0.3010 -0.8491  0.2008
 6486SOL    HW119695   1.301   3.185   3.693  1.8041  1.7507 -0.4112
 6486SOL    HW219696   1.376   3.112   3.802 -1.9696 -2.4620 -0.3417
 6487SOL     OW19697   2.651   0.168   5.540  0.3738  0.1451  0.0957
 6487SOL    HW119698   2.734   0.139   5.579  1.5531  3.4385  0.3575
 6487SOL    HW219699   2.637   0.255   5.576 -2.7566  0.0944 -0.7280
 6488SOL     OW19700   5.978   3.429   2.556  0.1321  0.5553 -0.1671
 6488SOL    HW119701   6.057   3.399   2.601 -1.3204  0.3082  2.3950
 6488SOL    HW219702   5.924   3.350   2.548 -1.7560  1.4570  2.4100
 6489SOL     OW19703   4.679   6.136   3.412 -0.0692 -0.3027  0.1766
 6489SOL    HW119704   4.593   6.178   3.403 -1.0585 -2.5995 -2.6339
 6489SOL    HW219705   4.662   6.058   3.464  0.6777  0.0659  0.9878
 6490SOL     OW19706   5.664   6.033   1.515 -0.4333 -0.2573  0.2116
 6490SOL    HW119707   5.667   6.051   1.421  0.3160  0.9088  0.4365
 6490SOL    HW219708   5.753   6.006   1.538 -0.0438  1.4940  0.9308
 6491SOL     OW19709   4.164   5.946   1.416  0.4483 -0.5755  0.3360
 6491SOL    HW119710   4.149   5.950   1.321  0.4489 -0.8862  0.3235
 6491SOL    HW219711   4.257   5.968   1.426 -0.0630  1.7627  0.4472
 6492SOL     OW19712   0.808   2.874   1.872 -0.0288  0.0843  0.3835
 6492SOL    HW119713   0.877   2.925   1.830  0.0776  0.1586  0.6527
 6492SOL    HW219714   0.727   2.921   1.851 -0.2089 -0.9269 -1.4131
 6493SOL     OW19715   0.339   1.789   5.564 -0.3078  0.2037 -0.2289
 6493SOL    HW119716   0.255   1.749   5.542 -0.0617 -0.6793  0.3795
 6493SOL    HW219717   0.315   1.870   5.609 -0.8453 -0.2936  0.3991
 6494SOL     OW19718   3.004   5.089   2.250 -0.2857  0.2726  0.5013
 6494SOL    HW119719   2.921   5.105   2.296 -1.6607 -1.2391 -1.2686
 6494SOL    HW219720   3.014   5.164   2.192 -0.7234  0.2188  0.3487
 6495SOL     OW19721   6.072   5.610   4.682  0.5831  0.1475  0.3475
 6495SOL    HW119722   6.027   5.671   4.624  2.2523 -0.8459 -2.1799
 6495SOL    HW219723   6.142   5.661   4.723 -0.7259  0.9036  1.7369
 6496SOL     OW19724   4.013   1.119   5.479 -0.1545 -0.0055  0.9085
 6496SOL    HW119725   4.008   1.031   5.441 -2.0768  0.2838  0.3914
 6496SOL    HW219726   4.094   1.156   5.443  0.2466 -1.2484  0.4695
 6497SOL     OW19727   5.901   3.227   0.909 -0.3830 -0.1163  0.7692
 6497SOL    HW119728   5.958   3.260   0.839  1.1000 -4.3712 -0.3586
 6497SOL    HW219729   5.812   3.239   0.876  0.0118  2.3775  0.4391
 6498SOL     OW19730   1.808   4.493   5.660 -0.0090 -0.1332 -0.5145
 6498SOL    HW119731   1.773   4.404   5.656 -0.6311  0.1219 -0.9695
 6498SOL    HW219732   1.868   4.499   5.585  1.2177 -0.6435  0.3983
 6499SOL     OW19733   6.092   3.995   0.384 -0.0524 -0.6690  0.6922
 6499SOL    HW119734   6.016   4.052   0.394  1.3817  2.1254 -2.4176
 6499SOL    HW219735   6.164   4.054   0.361  2.1102 -3.5123 -0.5678
 6500SOL     OW19736   5.732   4.800   2.951 -0.7048 -0.5531 -0.2823
 6500SOL    HW119737   5.824   4.775   2.941 -0.9438 -0.8739 -2.0194
 6500SOL    HW219738   5.685   4.716   2.958 -1.0117 -0.4740 -1.1735
 6501SOL     OW19739   4.750   0.027   5.115  0.2229 -0.3891  0.8278
 6501SOL    HW119740   4.829   0.052   5.162  1.4212 -0.9892 -0.7734
 6501SOL    HW219741   4.687   0.006   5.184  1.2384  0.6722  2.1476
 6502SOL     OW19742   0.110   2.885   1.833 -0.3004 -0.5893  0.4614
 6502SOL    HW119743   0.186   2.942   1.828 -0.3643 -0.5342  0.1295
 6502SOL    HW219744   0.056   2.922   1.903 -0.9912  0.5381 -0.6369
 6503SOL     OW19745   2.204   3.776   1.140 -0.2762  0.1551  0.4019
 6503SOL    HW119746   2.261   3.787   1.064  0.0545  1.2805  0.7943
 6503SOL    HW219747   2.116   3.770   1.104  0.0723 -2.0615 -0.2516
 6504SOL     OW19748   0.503   5.568   2.958 -0.5164  0.4164  0.3204
 6504SOL    HW119749   0.538   5.644   3.004 -1.3137  2.0107 -1.5853
 6504SOL    HW219750   0.578   5.508   2.951  0.2310  1.1660  1.4972
 6505SOL     OW19751   5.996   0.697   3.031 -0.0398 -0.0186  0.0127
 6505SOL    HW119752   6.035   0.680   2.945 -1.8403 -0.3084 -0.7933
 6505SOL    HW219753   6.069   0.689   3.093  1.1002 -0.8195 -1.3772
 6506SOL     OW19754   5.353   2.002   4.583 -0.3360 -0.0373 -0.0707
 6506SOL    HW119755   5.331   2.094   4.598  0.6086  0.1127  0.4713
 6506SOL    HW219756   5.306   1.955   4.652 -0.4028  0.0949 -0.0259
 6507SOL     OW19757   1.726   0.449   2.688  0.1787 -0.3308  0.3682
 6507SOL    HW119758   1.744   0.497   2.768  2.9607  1.3727 -1.1202
 6507SOL    HW219759   1.775   0.367   2.698 -0.3130 -0.5775  0.7941
 6508SOL     OW19760   3.455   3.914   0.609 -0.1634 -0.3878  0.2660
 6508SOL    HW119761   3.445   3.900   0.704  1.3687 -0.6437  0.4216
 6508SOL    HW219762   3.538   3.871   0.588  0.6971  1.6332 -0.7517
 6509SOL     OW19763   2.674   5.821   4.456 -0.0449 -0.0858 -0.4416
 6509SOL    HW119764   2.754   5.790   4.498  0.3205  1.1741 -0.1522
 6509SOL    HW219765   2.701   5.898   4.406 -1.2367  1.0109  0.5110
 6510SOL     OW19766   5.158   2.546   4.222  0.0510  0.0048 -0.0418
 6510SOL    HW119767   5.187   2.635   4.200 -0.5306  0.3493  0.5432
 6510SOL    HW219768   5.173   2.495   4.142  0.8214  0.5200 -0.2365
 6511SOL     OW19769   1.775   3.192   3.909 -0.3580 -0.6147  0.0139
 6511SOL    HW119770   1.710   3.177   3.840 -2.6212 -0.9593  2.0989
 6511SOL    HW219771   1.749   3.275   3.949  1.0816 -0.2872  0.3232
 6512SOL     OW19772   3.741   5.634   0.500  0.0495 -0.0168 -0.2672
 6512SOL    HW119773   3.825   5.611   0.540 -0.1829 -0.0413  0.2132
 6512SOL    HW219774   3.688   5.666   0.572 -0.8630 -1.3786 -0.2961
 6513SOL     OW19775   5.014   1.878   5.613  0.0303 -0.0801 -0.3088
 6513SOL    HW119776   4.998   1.784   5.621 -1.4778  0.2826  2.2159
 6513SOL    HW219777   5.090   1.893   5.669  0.0831  0.2552 -0.4705
 6514SOL     OW19778   0.448   3.350   2.530 -0.0064  0.3664  0.0452
 6514SOL    HW119779   0.526   3.295   2.540 -0.6681 -0.8284 -1.0466
 6514SOL    HW219780   0.375   3.288   2.533 -1.0272  1.5523  2.0595
 6515SOL     OW19781   1.662   4.264   6.025  0.2254  0.0260 -0.3380
 6515SOL    HW119782   1.745   4.233   5.988  0.5584  0.3607  0.1272
 6515SOL    HW219783   1.685   4.342   6.075 -0.1495 -0.6940  0.9925
 6516SOL     OW19784   3.991   4.124   1.404  0.4199 -0.3528  0.2854
 6516SOL    HW119785   4.010   4.030   1.413  0.7792 -0.2244  0.9234
 6516SOL    HW219786   4.062   4.157   1.350  0.7277 -0.3062  0.7154
 6517SOL     OW19787   4.325   0.851   6.120 -0.0934 -0.4895 -0.4431
 6517SOL    HW119788   4.294   0.940   6.105 -1.6679 -1.1837 -1.5059
 6517SOL    HW219789   4.420   0.861   6.134 -0.2991  1.3714 -0.1082
 6518SOL     OW19790   1.277   4.797   2.970  0.6330  0.0200 -0.0971
 6518SOL    HW119791   1.332   4.872   2.989  0.7904 -0.4399  1.3443
 6518SOL    HW219792   1.218   4.790   3.045 -0.5773 -0.2371 -1.0368
 6519SOL     OW19793   6.085   5.893   0.761 -0.9204  0.3614  0.3987
 6519SOL    HW119794   6.166   5.944   0.755 -1.2162  0.9960  1.5808
 6519SOL    HW219795   6.016   5.957   0.745 -1.2126 -0.0597 -0.0145
 6520SOL     OW19796   1.329   2.877   0.273  0.2356  0.5071  0.4110
 6520SOL    HW119797   1.411   2.856   0.229  0.1702  1.6748 -0.3069
 6520SOL    HW219798   1.287   2.793   0.288  0.8091  0.0059 -0.7030
 6521SOL     OW19799   3.451   1.407   1.874 -0.5634 -0.0165 -0.2513
 6521SOL    HW119800   3.437   1.383   1.783 -0.4298  0.7106 -0.4713
 6521SOL    HW219801   3.455   1.324   1.921  1.7295 -0.5410 -1.2284
 6522SOL     OW19802   4.720   3.090   1.295  0.6540 -0.2832  0.3917
 6522SOL    HW119803   4.645   3.061   1.242 -0.2041 -1.5364  2.1959
 6522SOL    HW219804   4.793   3.036   1.264  0.7736  0.6860 -1.1263
 6523SOL     OW19805   5.475   0.927   4.046  0.7915 -0.2812 -0.1221
 6523SOL    HW119806   5.443   0.840   4.022  0.6703 -0.3056  0.1243
 6523SOL    HW219807   5.554   0.939   3.994  1.4914 -1.0353  0.7207
 6524SOL     OW19808   2.086   1.404   0.300  0.6018  0.5786 -0.2493
 6524SOL    HW119809   2.106   1.371   0.212  0.9249  1.5946 -0.5704
 6524SOL    HW219810   2.052   1.493   0.285  0.4602  0.6807  0.6387
 6525SOL     OW19811   5.849   0.598   1.807  0.4306 -0.5956 -0.5237
 6525SOL    HW119812   5.785   0.528   1.795 -0.1304 -0.4792  1.3903
 6525SOL    HW219813   5.825   0.663   1.741 -0.4070 -1.2586 -0.8965
 6526SOL     OW19814   1.854   1.760   3.652  0.2268 -0.1570  0.1547
 6526SOL    HW119815   1.834   1.672   3.685 -0.0893  0.4094  1.5531
 6526SOL    HW219816   1.898   1.745   3.568 -0.7898 -1.6047 -0.1486
 6527SOL     OW19817   2.520   5.904   3.067 -0.3626 -0.0562 -0.1214
 6527SOL    HW119818   2.587   5.931   3.130 -0.2284  0.3813 -0.4470
 6527SOL    HW219819   2.494   5.985   3.023 -0.4250 -0.3651 -0.6606
 6528SOL     OW19820   5.388   2.991   5.464 -0.2638 -0.5116 -0.6149
 6528SOL    HW119821   5.448   3.065   5.455  0.1516 -0.8027 -0.3208
 6528SOL    HW219822   5.439   2.915   5.436  0.2464 -1.0721  1.6577
 6529SOL     OW19823   5.333   1.615   0.147  0.3161  0.3960  0.3073
 6529SOL    HW119824   5.255   1.638   0.197  1.1230  0.4152  1.5866
 6529SOL    HW219825   5.405   1.620   0.210  0.9304 -2.9636  0.0276
 6530SOL     OW19826   3.441   5.232   2.063 -0.3278  0.0881  0.2544
 6530SOL    HW119827   3.514   5.206   2.006  0.7243  0.7437  1.2383
 6530SOL    HW219828   3.398   5.304   2.016 -0.5307 -0.4958 -0.4680
 6531SOL     OW19829   3.218   5.547   4.964  0.1508  0.0914 -0.3822
 6531SOL    HW119830   3.265   5.616   4.917  1.9702 -0.9404 -0.2053
 6531SOL    HW219831   3.260   5.545   5.050 -1.8235  0.6582  0.6488
 6532SOL     OW19832   3.356   4.090   0.387 -0.7353  0.1902 -0.5702
 6532SOL    HW119833   3.378   4.048   0.303  0.4921 -0.2138 -0.0691
 6532SOL    HW219834   3.395   4.033   0.453 -0.8723  1.0185  0.2407
 6533SOL     OW19835   1.973   3.112   3.737  0.1397  0.2560  0.1624
 6533SOL    HW119836   1.983   3.188   3.680  2.9102  0.7261  1.1024
 6533SOL    HW219837   1.921   3.143   3.810 -0.7999  0.5183 -0.5945
 6534SOL     OW19838   5.111   0.889   4.423 -0.4748  0.2364  0.1616
 6534SOL    HW119839   5.059   0.817   4.385  2.2233 -1.5489 -0.4509
 6534SOL    HW219840   5.112   0.871   4.517  2.0703 -2.0644 -0.1777
 6535SOL     OW19841   1.037   6.023   6.118 -0.6676  0.3340  0.2258
 6535SOL    HW119842   0.980   6.089   6.080 -0.5589  0.5755  0.4808
 6535SOL    HW219843   0.977   5.958   6.156 -0.7742  0.6312  0.5690
 6536SOL     OW19844   0.966   3.014   0.761 -0.6436 -0.3115 -0.0910
 6536SOL    HW119845   1.047   2.996   0.809  0.4755  1.3704 -1.2512
 6536SOL    HW219846   0.928   3.089   0.806 -0.4235  0.2561 -0.8378
 6537SOL     OW19847   1.702   2.673   4.085  0.2005 -0.5959  0.1130
 6537SOL    HW119848   1.773   2.638   4.031 -0.8796 -3.7316  0.5443
 6537SOL    HW219849   1.622   2.651   4.037 -0.6532 -0.6457  1.5072
 6538SOL     OW19850   5.043   5.797   3.321 -0.0239 -0.3772  0.1484
 6538SOL    HW119851   4.973   5.862   3.316  0.4021  0.0197 -1.2517
 6538SOL    HW219852   5.124   5.847   3.329  0.2076 -0.7716  0.3351
 6539SOL     OW19853   3.042   0.775   5.287 -0.5594  0.2333 -0.5075
 6539SOL    HW119854   2.958   0.800   5.325 -1.0718  0.5032 -1.7655
 6539SOL    HW219855   3.026   0.774   5.193  1.0309  0.9424 -0.8161
 6540SOL     OW19856   1.160   5.846   3.854  0.3028 -0.0668 -0.1876
 6540SOL    HW119857   1.195   5.901   3.784 -0.9296 -0.0046 -0.7892
 6540SOL    HW219858   1.181   5.894   3.934 -0.7946  1.3614 -0.6943
 6541SOL     OW19859   5.167   4.882   2.483  0.4935  0.3070  0.8763
 6541SOL    HW119860   5.162   4.879   2.388 -1.0456  1.9161  0.8406
 6541SOL    HW219861   5.259   4.895   2.502  0.6507  1.4930 -0.4975
 6542SOL     OW19862   2.061   2.054   5.830 -0.0515 -0.0787 -0.6705
 6542SOL    HW119863   2.043   2.018   5.743  0.2513 -0.4942 -0.5634
 6542SOL    HW219864   2.156   2.047   5.840 -0.2950 -2.5411  0.7556
 6543SOL     OW19865   1.511   3.439   0.009  0.6347 -1.1701 -0.0482
 6543SOL    HW119866   1.563   3.484   0.076  0.9773 -1.0652 -0.3759
 6543SOL    HW219867   1.454   3.380   0.058 -0.0361 -0.1606  0.4084
 6544SOL     OW19868   2.059   0.710   2.911 -1.1112  0.0893  0.0266
 6544SOL    HW119869   2.090   0.755   2.989 -0.6942 -1.8208  1.0353
 6544SOL    HW219870   2.137   0.666   2.876 -1.5788 -0.2301 -0.6456
 6545SOL     OW19871   1.591   5.733   1.724 -0.2438  0.2017  0.5669
 6545SOL    HW119872   1.655   5.802   1.739  1.0303 -0.0232 -2.8970
 6545SOL    HW219873   1.522   5.775   1.673 -0.8147 -0.5074  0.7300
 6546SOL     OW19874   0.350   5.571   0.821 -0.2896 -0.2426  0.0560
 6546SOL    HW119875   0.351   5.664   0.845 -2.1275  0.5176 -2.4455
 6546SOL    HW219876   0.275   5.535   0.868 -0.5791 -0.0678 -0.2724
 6547SOL     OW19877   4.132   5.885   1.141 -0.3222 -0.2267 -0.1128
 6547SOL    HW119878   4.066   5.816   1.127 -0.5730  0.1641 -0.9148
 6547SOL    HW219879   4.178   5.892   1.058  1.9632 -1.7045  0.9277
 6548SOL     OW19880   1.943   5.276   2.859  0.0993 -0.1050  0.2702
 6548SOL    HW119881   1.973   5.284   2.950  1.0944  1.0180 -0.1240
 6548SOL    HW219882   2.000   5.335   2.811 -0.6726 -0.4030 -1.0376
 6549SOL     OW19883   3.720   3.381   5.110 -0.1705  0.1951  0.0500
 6549SOL    HW119884   3.769   3.404   5.031  0.5079  1.8113  0.9011
 6549SOL    HW219885   3.628   3.376   5.080  0.1411  0.1609 -0.9531
 6550SOL     OW19886   3.956   0.036   3.069 -0.9096  0.1892  0.0060
 6550SOL    HW119887   3.990   0.118   3.033 -1.2130 -0.0646 -0.8945
 6550SOL    HW219888   3.953  -0.023   2.994 -2.8418  0.0435  0.1546
 6551SOL     OW19889   4.374   3.206   4.477  1.0050  0.6705  0.3907
 6551SOL    HW119890   4.319   3.268   4.525 -0.4164  1.1527 -1.7043
 6551SOL    HW219891   4.406   3.255   4.402  0.7006 -0.8106 -0.7677
 6552SOL     OW19892   3.925   5.870   6.013  0.1777 -0.1536  0.7066
 6552SOL    HW119893   3.863   5.940   5.995  2.0984  0.8869 -2.5867
 6552SOL    HW219894   3.870   5.794   6.033 -2.0913  1.0765 -0.4682
 6553SOL     OW19895   0.574   5.060   5.439 -0.3703 -0.1644  0.3198
 6553SOL    HW119896   0.610   5.009   5.512  1.7001  0.8715  0.0952
 6553SOL    HW219897   0.608   5.148   5.452  0.0628  0.0570 -1.8811
 6554SOL     OW19898   1.570   5.337   3.649 -0.0764  0.0120  0.3774
 6554SOL    HW119899   1.504   5.307   3.711  1.3176 -0.2343  1.8031
 6554SOL    HW219900   1.639   5.374   3.703  0.8537  0.5115 -1.0832
 6555SOL     OW19901   4.157   1.914   5.238 -0.1004 -0.2495 -0.1367
 6555SOL    HW119902   4.225   1.920   5.306  0.2756  0.0914 -0.5408
 6555SOL    HW219903   4.085   1.868   5.281 -0.8631  2.1075  1.2821
 6556SOL     OW19904   1.353   2.320   0.110 -0.2315 -0.3021  0.3992
 6556SOL    HW119905   1.386   2.281   0.029 -0.7165 -0.8870  0.4765
 6556SOL    HW219906   1.413   2.392   0.128  1.5410 -1.8344  0.9695
 6557SOL     OW19907   0.982   4.730   5.875  0.3212  0.1514  0.1282
 6557SOL    HW119908   0.912   4.665   5.886  1.3698 -0.9325  0.6575
 6557SOL    HW219909   1.027   4.704   5.795 -0.3794  1.3756 -0.7102
 6558SOL     OW19910   1.299   5.160   2.663  0.1606  0.4213 -0.0473
 6558SOL    HW119911   1.275   5.092   2.600  1.3016  0.0740 -0.1331
 6558SOL    HW219912   1.390   5.182   2.641  0.5855  0.2930  1.4509
 6559SOL     OW19913   3.186   3.461   0.881  0.5606  0.2638  0.1261
 6559SOL    HW119914   3.170   3.367   0.889 -0.9518  0.4544 -0.4283
 6559SOL    HW219915   3.156   3.483   0.793  1.9740  1.0835 -0.1768
 6560SOL     OW19916   4.717   5.201   4.520 -0.1452  0.6812 -0.1244
 6560SOL    HW119917   4.790   5.162   4.472  0.3046  1.3126  0.0211
 6560SOL    HW219918   4.693   5.136   4.586 -0.2002  0.1662 -0.6539
 6561SOL     OW19919   2.443   0.423   3.333 -0.1148  0.6504  0.0472
 6561SOL    HW119920   2.514   0.415   3.268 -0.2887  1.9704 -0.3348
 6561SOL    HW219921   2.371   0.373   3.296  0.3947 -0.1452  0.1165
 6562SOL     OW19922   0.864   1.717   5.474 -0.4118 -0.3482 -0.2904
 6562SOL    HW119923   0.828   1.649   5.530  1.5181 -0.7410  0.5725
 6562SOL    HW219924   0.895   1.785   5.534 -0.7777  0.5165 -1.0464
 6563SOL     OW19925   6.102   1.579   5.871 -0.3575 -0.0000  0.1991
 6563SOL    HW119926   6.050   1.526   5.933 -0.0039 -2.3786 -1.4139
 6563SOL    HW219927   6.192   1.548   5.883 -0.0196  0.7597 -0.3136
 6564SOL     OW19928   1.853   1.450   6.094  0.3350 -0.5601  0.6631
 6564SOL    HW119929   1.843   1.486   6.006  0.9653  1.8224  1.4793
 6564SOL    HW219930   1.764   1.450   6.130  0.2248 -0.4429  0.3927
 6565SOL     OW19931   3.121   0.710   0.442  0.0482 -0.4607  0.3142
 6565SOL    HW119932   3.036   0.752   0.429  0.1551 -0.3456 -0.0225
 6565SOL    HW219933   3.148   0.737   0.529 -0.6976 -1.2734  0.8170
 6566SOL     OW19934   1.434   4.940   3.862 -0.1729  0.3242  0.5078
 6566SOL    HW119935   1.405   4.927   3.953 -0.3520 -0.0717  0.3968
 6566SOL    HW219936   1.526   4.966   3.870 -0.6895  2.2621  0.9092
 6567SOL     OW19937   3.784   1.230   0.407  0.3671 -0.0293 -0.2131
 6567SOL    HW119938   3.693   1.225   0.377  0.3316 -0.4458 -0.0481
 6567SOL    HW219939   3.802   1.142   0.441  0.3158  0.5012  1.2445
 6568SOL     OW19940   0.813   0.144   0.883 -0.1927  0.2648 -0.0900
 6568SOL    HW119941   0.889   0.194   0.913  2.1087 -1.9856 -1.6403
 6568SOL    HW219942   0.799   0.174   0.793 -0.6230  0.1021 -0.0775
 6569SOL     OW19943   0.264   0.179   5.587  0.1247 -0.3222  0.0435
 6569SOL    HW119944   0.316   0.152   5.663  1.4347 -1.0142 -1.0442
 6569SOL    HW219945   0.184   0.215   5.624  1.2584  0.5457  1.7981
 6570SOL     OW19946   0.003   5.477   2.770  0.2767 -0.0321 -0.1332
 6570SOL    HW119947   0.022   5.549   2.830  1.4098  0.8716 -1.5290
 6570SOL    HW219948  -0.092   5.470   2.771  0.1841  1.0695  0.4874
 6571SOL     OW19949   3.787   0.951   3.970 -0.6233 -0.0336  0.2138
 6571SOL    HW119950   3.736   1.033   3.971 -1.2888 -0.3932  2.9129
 6571SOL    HW219951   3.872   0.975   4.007 -1.2050 -0.7098  2.1062
 6572SOL     OW19952   3.365   3.139   5.715 -0.3944  0.1973  0.0165
 6572SOL    HW119953   3.388   3.226   5.682  0.4199  0.4954  1.2901
 6572SOL    HW219954   3.443   3.086   5.698 -1.0401 -0.4225 -1.1406
 6573SOL     OW19955   1.576   4.797   4.996  0.0612 -0.8343 -0.1260
 6573SOL    HW119956   1.525   4.797   5.077  0.7638 -1.7219  0.3322
 6573SOL    HW219957   1.524   4.850   4.935 -0.2618  0.2234  1.0276
 6574SOL     OW19958   1.342   0.050   1.321 -0.1159 -0.3910 -0.0672
 6574SOL    HW119959   1.258   0.014   1.294 -0.2047  0.0758 -0.4369
 6574SOL    HW219960   1.321   0.138   1.352  0.3874  0.2104 -1.3473
 6575SOL     OW19961   5.458   4.573   4.899  0.6779 -0.0402 -0.2217
 6575SOL    HW119962   5.492   4.489   4.869 -1.1560 -0.1330 -2.2341
 6575SOL    HW219963   5.518   4.638   4.862  1.6938 -0.3668  0.7675
 6576SOL     OW19964   5.919   3.025   4.150 -0.5691  0.2877  0.2619
 6576SOL    HW119965   5.964   3.016   4.235 -0.4485  1.4368  0.3373
 6576SOL    HW219966   5.858   3.098   4.163 -0.8179  0.2291 -0.5336
 6577SOL     OW19967   3.213   3.472   5.468  0.6930  0.4673 -1.2098
 6577SOL    HW119968   3.209   3.517   5.552  2.7579 -0.6812 -0.4193
 6577SOL    HW219969   3.127   3.487   5.429  0.3761  2.7694  0.1625
 6578SOL     OW19970   0.590   4.808   0.773 -0.0413  0.4124  0.8196
 6578SOL    HW119971   0.506   4.769   0.750 -0.5069  0.9029  1.6193
 6578SOL    HW219972   0.649   4.734   0.785 -0.8648 -0.0629  2.1332
 6579SOL     OW19973   4.939   0.870   0.265  0.0905 -0.2572 -0.4179
 6579SOL    HW119974   4.868   0.932   0.251  0.7062  0.3243 -1.0150
 6579SOL    HW219975   4.980   0.898   0.347 -2.0501 -2.2566  1.4848
 6580SOL     OW19976   0.566   5.304   1.506  0.3647  0.4171 -0.1024
 6580SOL    HW119977   0.624   5.229   1.517 -0.2052 -0.1965 -1.1661
 6580SOL    HW219978   0.513   5.305   1.586  1.5893  0.8098  0.7511
 6581SOL     OW19979   3.437   5.492   0.341  0.0290 -0.2655 -0.3798
 6581SOL    HW119980   3.457   5.421   0.280  0.2014 -0.7380  0.2173
 6581SOL    HW219981   3.518   5.541   0.348  0.1651 -0.5291 -0.1143
 6582SOL     OW19982   5.586   1.329   4.890 -0.6615 -0.2536  0.4346
 6582SOL    HW119983   5.554   1.271   4.960 -1.4720 -2.2260 -1.4720
 6582SOL    HW219984   5.548   1.294   4.810  0.2578  1.9209 -1.0487
 6583SOL     OW19985   1.835   3.514   1.653 -0.3963  0.0784  0.5829
 6583SOL    HW119986   1.744   3.486   1.646 -0.3133 -0.8071  2.6107
 6583SOL    HW219987   1.883   3.451   1.599 -0.7383 -0.9161  1.4043
 6584SOL     OW19988   4.203   0.403   3.528 -0.4831  0.0885 -0.4760
 6584SOL    HW119989   4.182   0.450   3.609 -0.8650  0.3525 -0.7268
 6584SOL    HW219990   4.261   0.462   3.480  0.8645 -0.6317  0.2069
 6585SOL     OW19991   3.327   3.441   2.193  0.7081 -0.8153 -0.1867
 6585SOL    HW119992   3.347   3.396   2.111 -1.1253 -1.1984 -0.4839
 6585SOL    HW219993   3.255   3.389   2.231  0.8856 -0.0927  1.1877
 6586SOL     OW19994   1.274   0.637   1.237  0.2267 -0.2193  0.1382
 6586SOL    HW119995   1.298   0.679   1.320 -0.7080 -0.5064  0.5721
 6586SOL    HW219996   1.251   0.709   1.179  0.4513 -0.0394  0.2722
 6587SOL     OW19997   2.583   5.003   5.508  0.0189  0.0515 -0.1115
 6587SOL    HW119998   2.530   5.060   5.565  1.7538  0.0544  1.5953
 6587SOL    HW219999   2.643   5.063   5.463  0.6777 -0.2307  0.3719
 6588SOL     OW20000   1.430   4.339   5.878 -0.0271  0.0250  0.5035
 6588SOL    HW120001   1.502   4.317   5.938 -1.7418  0.1560  2.7560
 6588SOL    HW220002   1.464   4.317   5.791  2.5337 -0.3721  1.5039
 6589SOL     OW20003   2.401   3.615   5.526 -1.0883  0.2143  0.2523
 6589SOL    HW120004   2.421   3.636   5.435 -0.3463 -1.9075 -0.1267
 6589SOL    HW220005   2.390   3.701   5.568  0.0140  1.2892 -1.5002
 6590SOL     OW20006   1.448   5.851   1.507 -0.2143 -0.3621 -0.2866
 6590SOL    HW120007   1.367   5.865   1.556 -0.9866 -0.2820 -1.5326
 6590SOL    HW220008   1.433   5.896   1.424  0.8521 -0.9180 -0.7918
 6591SOL     OW20009   6.034   1.875   4.786  0.1141 -0.5363 -0.0863
 6591SOL    HW120010   6.008   1.942   4.849 -2.4998  1.5031 -3.0591
 6591SOL    HW220011   6.086   1.922   4.721 -1.0785 -1.4902 -1.8196
 6592SOL     OW20012   0.284   0.917   0.025 -0.8877 -0.0966  0.8307
 6592SOL    HW120013   0.299   0.999  -0.022  0.5068 -0.8401 -0.0735
 6592SOL    HW220014   0.205   0.881  -0.016  0.2168 -0.6621 -0.9434
 6593SOL     OW20015   3.688   0.658   2.413 -0.0649  0.0516  0.0066
 6593SOL    HW120016   3.632   0.668   2.336  0.2584 -2.0766 -0.5671
 6593SOL    HW220017   3.627   0.637   2.484 -0.1878 -0.0161 -0.1183
 6594SOL     OW20018   4.619   3.935   0.616 -0.1939  0.2006 -0.4139
 6594SOL    HW120019   4.570   3.910   0.694 -0.7008 -1.4985 -1.2320
 6594SOL    HW220020   4.684   3.997   0.648  1.8252 -2.8300  2.0496
 6595SOL     OW20021   1.546   2.773   6.116 -0.1321 -0.2748  0.2227
 6595SOL    HW120022   1.555   2.864   6.088  0.9699 -0.5178 -0.2995
 6595SOL    HW220023   1.502   2.729   6.043  1.2789 -0.5740 -0.4985
 6596SOL     OW20024   1.647   1.964   4.464  0.3364  0.6159  0.1417
 6596SOL    HW120025   1.707   1.984   4.393  0.3667 -2.0147 -0.6605
 6596SOL    HW220026   1.673   1.877   4.494 -0.1360  1.3399  2.9360
 6597SOL     OW20027   2.795   5.287   3.415 -0.2684 -0.1953 -0.3271
 6597SOL    HW120028   2.744   5.367   3.433  1.7010  0.9432  0.4636
 6597SOL    HW220029   2.738   5.216   3.445 -1.7131  0.9486 -0.1985
 6598SOL     OW20030   5.766   3.355   4.647 -0.2037 -0.2290 -0.1126
 6598SOL    HW120031   5.749   3.437   4.599 -0.7447 -0.3790 -0.1841
 6598SOL    HW220032   5.690   3.300   4.628  0.4539 -0.9947 -0.5827
 6599SOL     OW20033   5.441   0.028   1.873  0.5377 -0.3013  0.1330
 6599SOL    HW120034   5.370  -0.033   1.893 -0.7557  0.6869 -1.2622
 6599SOL    HW220035   5.518  -0.028   1.861 -0.7020 -1.7346 -1.5528
 6600SOL     OW20036   1.190   1.895   2.307 -0.5715  0.4343  0.1393
 6600SOL    HW120037   1.274   1.914   2.264 -0.1346 -1.6577 -0.0718
 6600SOL    HW220038   1.213   1.829   2.374 -1.5741  2.0893  2.2210
 6601SOL     OW20039   0.866   3.206   0.900  0.4902 -0.4132 -0.6480
 6601SOL    HW120040   0.886   3.299   0.893 -0.7526 -0.0726  0.0013
 6601SOL    HW220041   0.868   3.188   0.994 -1.9083 -0.3928 -0.5458
 6602SOL     OW20042   5.277   2.818   4.254  0.2350  0.6918  0.4249
 6602SOL    HW120043   5.244   2.864   4.176 -1.2711 -0.8415  0.0828
 6602SOL    HW220044   5.370   2.804   4.236 -0.1127  0.2264 -1.2111
 6603SOL     OW20045   2.506   4.692   5.106  0.4517  0.5326 -0.0129
 6603SOL    HW120046   2.597   4.718   5.090  0.5088  1.4824  1.6485
 6603SOL    HW220047   2.502   4.674   5.200 -1.0202  0.2536 -0.1063
 6604SOL     OW20048   4.337   3.262   3.268 -0.8865 -0.2957 -0.3393
 6604SOL    HW120049   4.429   3.246   3.290 -1.0176 -0.2531  0.2644
 6604SOL    HW220050   4.323   3.354   3.290 -1.7324 -0.9052  2.0798
 6605SOL     OW20051   5.522   2.757   3.132 -0.1846  0.2107  0.7462
 6605SOL    HW120052   5.617   2.763   3.141 -0.1484  0.7271  0.1552
 6605SOL    HW220053   5.494   2.699   3.202  0.6259 -0.3934  0.5785
 6606SOL     OW20054   5.138   5.190   1.682  0.1057 -0.1807  0.6553
 6606SOL    HW120055   5.099   5.263   1.634  0.0645 -1.0358 -0.6646
 6606SOL    HW220056   5.206   5.230   1.736  1.1838  0.6505 -1.2491
 6607SOL     OW20057   5.290   4.817   4.032 -0.0723 -0.1799  0.0656
 6607SOL    HW120058   5.379   4.806   4.065  0.9529  0.5129 -2.2863
 6607SOL    HW220059   5.238   4.839   4.109  1.6537 -1.1884  1.5906
 6608SOL     OW20060   4.693   5.459   4.799 -0.0463  0.2569 -0.2499
 6608SOL    HW120061   4.739   5.385   4.759 -0.8813 -0.4879  0.1244
 6608SOL    HW220062   4.759   5.528   4.805  1.5066 -1.2607  1.6504
 6609SOL     OW20063   4.454   4.883   2.827  0.5980  0.1550  0.5752
 6609SOL    HW120064   4.374   4.926   2.855  0.9662  1.6473 -0.6019
 6609SOL    HW220065   4.437   4.790   2.842 -1.4338  0.4091  0.1305
 6610SOL     OW20066   5.000   1.339   3.211 -0.8379  0.0574 -0.2094
 6610SOL    HW120067   4.922   1.317   3.160 -2.5121  0.7196  1.9514
 6610SOL    HW220068   4.998   1.434   3.217  1.7104  0.3575 -2.3875
 6611SOL     OW20069   5.715   5.518   1.703 -0.1626 -0.4060  0.4773
 6611SOL    HW120070   5.730   5.496   1.795  1.9189 -1.4123 -0.0215
 6611SOL    HW220071   5.730   5.613   1.698 -0.7436 -0.2700  1.2360
 6612SOL     OW20072   5.286   4.517   3.238  0.2234  0.3889  0.3020
 6612SOL    HW120073   5.196   4.543   3.218  0.3237  0.3930 -0.1591
 6612SOL    HW220074   5.340   4.578   3.188  0.5713  2.3032  2.8017
 6613SOL     OW20075   2.972   0.462   0.385 -0.4382 -0.2003 -0.1903
 6613SOL    HW120076   3.016   0.547   0.394 -0.5780 -0.1946  0.4594
 6613SOL    HW220077   3.044   0.398   0.382 -0.3786 -0.2332  1.3191
 6614SOL     OW20078   0.027   0.841   4.969  0.2389  0.3862  0.4802
 6614SOL    HW120079  -0.039   0.897   4.929  0.3497 -0.3582 -0.7988
 6614SOL    HW220080   0.021   0.758   4.921  1.9299  0.2250  0.4749
 6615SOL     OW20081   5.747   4.649   4.569  0.0245 -0.1584 -0.1131
 6615SOL    HW120082   5.722   4.587   4.638 -0.0994 -1.7036 -1.4972
 6615SOL    HW220083   5.755   4.733   4.615 -0.9462 -0.9477  1.6146
 6616SOL     OW20084   1.196   5.219   4.970 -0.7858  0.3988 -0.4560
 6616SOL    HW120085   1.189   5.216   5.065 -0.4965 -0.3624 -0.4563
 6616SOL    HW220086   1.241   5.138   4.946 -1.3403  0.3291 -1.2870
 6617SOL     OW20087   4.813   3.898   3.989 -0.1372 -0.4183 -0.2587
 6617SOL    HW120088   4.808   3.957   3.914  2.9525 -1.4110 -1.3736
 6617SOL    HW220089   4.885   3.933   4.042  1.6552 -2.9376 -0.8434
 6618SOL     OW20090   0.538   5.580   1.097  0.1281 -0.2571 -0.1889
 6618SOL    HW120091   0.495   5.583   1.182  0.4137 -2.7620  0.1300
 6618SOL    HW220092   0.469   5.600   1.034 -0.3268  0.6054  0.5602
 6619SOL     OW20093   4.082   3.266   1.403 -0.3062 -0.1124  0.7912
 6619SOL    HW120094   4.080   3.232   1.314 -1.8405 -0.1296  0.8055
 6619SOL    HW220095   4.068   3.189   1.458  1.3043 -0.2139  1.1196
 6620SOL     OW20096   3.308   2.946   0.689  0.0975  0.0244 -0.3819
 6620SOL    HW120097   3.308   2.942   0.785  1.1769  1.6975 -0.2723
 6620SOL    HW220098   3.382   2.893   0.662  1.4883  1.7234 -0.0953
 6621SOL     OW20099   2.787   3.327   1.580  0.1504  0.1181  0.0834
 6621SOL    HW120100   2.773   3.286   1.666 -1.0265  1.4258  0.5675
 6621SOL    HW220101   2.872   3.369   1.587  0.3753 -0.3816  0.3641
 6622SOL     OW20102   4.077   1.604   4.845 -0.8662  1.1377 -0.2057
 6622SOL    HW120103   4.101   1.631   4.934  0.0746 -1.4309  0.3955
 6622SOL    HW220104   4.053   1.686   4.801 -0.8512  2.5514  2.2342
 6623SOL     OW20105   0.391   2.167   3.855  0.2452  0.2161  0.1703
 6623SOL    HW120106   0.340   2.170   3.774 -0.7057 -0.5197  0.7200
 6623SOL    HW220107   0.403   2.259   3.880 -1.2717  0.4025  0.2996
 6624SOL     OW20108   4.569   0.986   5.518  0.0028 -0.4381 -0.1848
 6624SOL    HW120109   4.614   0.901   5.510 -0.3188 -0.5379 -1.0244
 6624SOL    HW220110   4.478   0.968   5.495 -0.3180 -0.0823  0.7642
 6625SOL     OW20111   3.210   0.458   3.593 -0.0243 -0.1105 -0.5518
 6625SOL    HW120112   3.283   0.453   3.655 -0.6568  0.4953  0.2685
 6625SOL    HW220113   3.192   0.551   3.584  1.0543 -0.0554 -2.8939
 6626SOL     OW20114   3.853   3.173   5.247 -0.2014  0.6977 -0.3982
 6626SOL    HW120115   3.825   3.203   5.333 -0.2965  1.0246 -0.5380
 6626SOL    HW220116   3.788   3.210   5.187 -1.7082 -1.7424 -0.3802
 6627SOL     OW20117   5.308   4.086   6.012 -0.1318 -0.6586  0.0033
 6627SOL    HW120118   5.340   4.101   6.101 -0.4984 -2.0948  0.4113
 6627SOL    HW220119   5.319   3.991   5.999  1.6439 -0.2368 -2.1640
 6628SOL     OW20120   1.408   2.531   0.405 -0.1116  0.0668  0.1688
 6628SOL    HW120121   1.490   2.538   0.356 -0.3911 -0.9425 -0.4622
 6628SOL    HW220122   1.342   2.570   0.348 -0.2774 -0.2576  0.1335
 6629SOL     OW20123   1.736   1.782   3.105 -0.5969 -0.4167  0.0075
 6629SOL    HW120124   1.818   1.732   3.101  0.4078  1.2396 -1.9031
 6629SOL    HW220125   1.734   1.819   3.193  2.1101  1.6092 -0.6647
 6630SOL     OW20126   4.694   4.622   3.337 -0.6495 -0.4238 -0.6545
 6630SOL    HW120127   4.645   4.540   3.330 -2.1941  0.3792  0.2333
 6630SOL    HW220128   4.765   4.602   3.398 -1.0440 -1.0800 -0.3951
 6631SOL     OW20129   0.809   3.225   4.086  0.1307  0.0941  0.3700
 6631SOL    HW120130   0.785   3.312   4.052 -0.3397  0.6261  1.9826
 6631SOL    HW220131   0.905   3.223   4.082  0.0806 -0.1962 -1.7077
 6632SOL     OW20132   3.571   2.877   2.272 -0.4796 -0.0676  0.3568
 6632SOL    HW120133   3.524   2.955   2.301 -0.9031  0.0719 -0.6651
 6632SOL    HW220134   3.511   2.835   2.210 -0.4792 -1.4887  1.2752
 6633SOL     OW20135   3.264   2.097   0.572 -0.0253 -0.1420 -0.2824
 6633SOL    HW120136   3.226   2.091   0.484 -1.3626  1.1975  0.1530
 6633SOL    HW220137   3.359   2.101   0.558 -0.2568  1.0449 -1.7524
 6634SOL     OW20138   0.257   3.582   3.843  0.7178  0.0691 -0.2856
 6634SOL    HW120139   0.338   3.539   3.871 -0.1156 -0.1163  2.0630
 6634SOL    HW220140   0.266   3.672   3.874  0.0415  0.0497 -0.0338
 6635SOL     OW20141   0.632   2.728   1.167  0.1893 -0.4890 -0.3460
 6635SOL    HW120142   0.582   2.725   1.249  0.7331 -0.5877 -0.0126
 6635SOL    HW220143   0.565   2.724   1.098 -0.2420 -1.0773  0.0943
 6636SOL     OW20144   3.779   4.638   1.316 -0.0337 -0.2488 -0.1644
 6636SOL    HW120145   3.800   4.553   1.278  0.5115 -0.2119  0.0496
 6636SOL    HW220146   3.839   4.699   1.274  1.7417 -0.4573  1.9148
 6637SOL     OW20147   2.375   1.352   1.499 -0.3097  0.1964  0.4708
 6637SOL    HW120148   2.363   1.299   1.578 -2.0637  1.3607  1.0406
 6637SOL    HW220149   2.287   1.362   1.463  0.2936  0.7719 -0.9258
 6638SOL     OW20150   3.550   5.887   3.861 -0.4289 -0.4718 -0.6054
 6638SOL    HW120151   3.489   5.938   3.914  0.0131 -0.6312  0.0630
 6638SOL    HW220152   3.630   5.940   3.859  0.1027 -1.2226  0.2589
 6639SOL     OW20153   1.521   2.520   0.120 -0.4171 -0.2436 -0.2363
 6639SOL    HW120154   1.610   2.495   0.094 -0.6035 -0.8758 -0.2818
 6639SOL    HW220155   1.505   2.602   0.073  0.6664  0.6431  0.8907
 6640SOL     OW20156   5.746   3.821   5.723  0.2134  0.7279 -0.1647
 6640SOL    HW120157   5.729   3.915   5.731  0.4578  0.6864  1.0232
 6640SOL    HW220158   5.837   3.811   5.749  0.6743  0.3363 -1.7919
 6641SOL     OW20159   2.763   1.089   5.852 -0.1172 -0.2383  0.5645
 6641SOL    HW120160   2.674   1.053   5.847 -0.6881  1.2390 -0.4199
 6641SOL    HW220161   2.819   1.012   5.860 -1.3418 -1.3120 -0.7178
 6642SOL     OW20162   1.051   4.376   3.873  0.6016 -0.0586  0.5487
 6642SOL    HW120163   1.083   4.398   3.785  0.6166 -2.8009 -0.2559
 6642SOL    HW220164   1.110   4.307   3.903  0.0186  0.1730  2.3408
 6643SOL     OW20165   1.753   3.743   4.436 -0.1003  0.2650 -0.4644
 6643SOL    HW120166   1.729   3.654   4.411  0.0206  0.1634 -0.2132
 6643SOL    HW220167   1.695   3.764   4.509 -1.2611  0.9839 -1.5577
 6644SOL     OW20168   4.477   1.609   2.607 -0.1315 -0.1111  0.6293
 6644SOL    HW120169   4.532   1.533   2.628 -0.0588 -0.0954  0.4926
 6644SOL    HW220170   4.462   1.651   2.692  0.0782 -0.1075  0.6657
 6645SOL     OW20171   2.027   3.410   3.644 -0.5317  0.2063 -0.5634
 6645SOL    HW120172   2.113   3.433   3.680  0.4328 -1.1280 -1.8934
 6645SOL    HW220173   2.018   3.467   3.567 -1.0705  0.6614 -0.1772
 6646SOL     OW20174   5.815   1.031   6.129 -0.8015 -0.0324 -0.5894
 6646SOL    HW120175   5.855   1.079   6.201 -3.2557 -2.0480  2.3344
 6646SOL    HW220176   5.733   1.078   6.111 -1.1073 -0.6245 -0.7634
 6647SOL     OW20177   0.439   5.174   4.679 -0.4220  0.4315  0.1256
 6647SOL    HW120178   0.441   5.233   4.754 -0.1290 -0.5617  0.9273
 6647SOL    HW220179   0.371   5.209   4.622  1.2988  2.8834 -0.5633
 6648SOL     OW20180   5.892   0.786   5.632  0.1622 -0.2292  0.1465
 6648SOL    HW120181   5.839   0.833   5.697 -0.3372 -0.0499 -0.3814
 6648SOL    HW220182   5.957   0.738   5.684  0.2761  0.5398  0.7378
 6649SOL     OW20183   3.540   3.745   1.623  0.3721  0.5601  0.6118
 6649SOL    HW120184   3.572   3.675   1.567 -0.0965 -0.0475  1.0879
 6649SOL    HW220185   3.522   3.817   1.563  0.1687  0.0279  0.0166
 6650SOL     OW20186   4.894   0.619   3.639  0.0580 -0.5816 -0.1436
 6650SOL    HW120187   4.838   0.557   3.593 -0.8190 -1.9341  2.4950
 6650SOL    HW220188   4.975   0.571   3.655 -0.4798 -1.0000  1.5770
 6651SOL     OW20189   1.772   4.857   3.047  0.1003  0.1556  0.1564
 6651SOL    HW120190   1.792   4.925   3.112  0.2999 -0.2516  0.5232
 6651SOL    HW220191   1.858   4.831   3.013  0.2198 -1.4443  1.5757
 6652SOL     OW20192   4.093   4.856   5.772 -0.2351  0.1505  0.1890
 6652SOL    HW120193   4.071   4.818   5.857  0.5006 -0.3646  0.1586
 6652SOL    HW220194   4.015   4.905   5.747 -0.1440  1.0531  1.5718
 6653SOL     OW20195   2.795   1.517   4.010 -0.2418  0.4227  0.3079
 6653SOL    HW120196   2.830   1.570   4.081 -0.6486  0.1258  0.7399
 6653SOL    HW220197   2.760   1.439   4.053 -2.6400  1.2871  0.0715
 6654SOL     OW20198   4.147   4.606   1.153 -0.3861 -0.0974 -0.0035
 6654SOL    HW120199   4.073   4.666   1.151  0.4788  1.0002 -0.7852
 6654SOL    HW220200   4.159   4.580   1.061  1.3463  1.2757 -0.2271
 6655SOL     OW20201   1.522   2.188   6.085 -0.0197 -0.1784 -0.1674
 6655SOL    HW120202   1.509   2.113   6.142  3.1951 -1.2731 -0.6495
 6655SOL    HW220203   1.508   2.155   5.997  1.0810 -0.1606 -0.3633
 6656SOL     OW20204   5.573   2.435   0.705 -0.1920  0.3245 -0.8874
 6656SOL    HW120205   5.656   2.398   0.675 -0.7090 -1.4829 -0.1937
 6656SOL    HW220206   5.551   2.501   0.638  0.2540 -1.3449 -2.7744
 6657SOL     OW20207   1.954   2.803   2.790  0.1979 -0.3234 -0.2608
 6657SOL    HW120208   1.958   2.722   2.740  1.9120 -0.7154  0.4182
 6657SOL    HW220209   1.950   2.774   2.882  0.2877  0.3632 -0.0365
 6658SOL     OW20210   4.663   5.188   4.180 -0.2510 -0.0213  0.1452
 6658SOL    HW120211   4.750   5.209   4.147 -0.3323  0.1885  0.0586
 6658SOL    HW220212   4.676   5.112   4.237 -0.0664 -0.2106 -0.1470
 6659SOL     OW20213   2.955   2.968   0.972 -0.4472 -0.0787  0.3161
 6659SOL    HW120214   2.952   2.998   1.062  0.1541 -1.2263  0.7410
 6659SOL    HW220215   2.882   2.907   0.964  1.4712 -2.6451  1.0867
 6660SOL     OW20216   3.208   2.344   5.951  0.6834  0.2195  0.1931
 6660SOL    HW120217   3.205   2.424   6.002 -0.4198 -0.1456  0.7268
 6660SOL    HW220218   3.123   2.340   5.907  0.4826 -0.9452  0.6417
 6661SOL     OW20219   1.806   5.921   1.691 -0.0911 -0.2013 -0.1918
 6661SOL    HW120220   1.834   5.834   1.665 -2.3590 -1.0169 -0.0826
 6661SOL    HW220221   1.836   5.929   1.782  0.9790 -0.4398 -0.5045
 6662SOL     OW20222   4.552   3.890   1.748  0.2227  0.2795  0.3018
 6662SOL    HW120223   4.581   3.918   1.661  0.7209 -0.2119  0.3071
 6662SOL    HW220224   4.509   3.806   1.733 -0.7674  0.7561  0.3681
 6663SOL     OW20225   4.327   0.894   0.903  0.2514  0.5754 -0.0757
 6663SOL    HW120226   4.312   0.958   0.973 -0.6554 -0.3507  0.6109
 6663SOL    HW220227   4.240   0.864   0.878  0.6272  0.1070 -0.8640
 6664SOL     OW20228   0.558   5.352   5.944 -0.2725 -1.0387 -0.5287
 6664SOL    HW120229   0.504   5.383   5.872  0.7457 -2.4334 -1.9782
 6664SOL    HW220230   0.497   5.332   6.014 -1.3326 -0.0480 -1.1379
 6665SOL     OW20231   3.237   4.354   3.792  0.3719  0.3278 -0.6835
 6665SOL    HW120232   3.275   4.272   3.824 -1.8616 -1.2534 -1.7882
 6665SOL    HW220233   3.308   4.418   3.798  1.9855 -1.4855  0.9364
 6666SOL     OW20234   3.955   3.851   0.171 -0.3553  0.3927 -0.5250
 6666SOL    HW120235   3.989   3.801   0.097  0.4647  1.5890 -0.9897
 6666SOL    HW220236   3.974   3.796   0.247  1.1001  0.2407 -0.9609
 6667SOL     OW20237   3.378   1.299   0.877  0.5606  0.3131  0.6799
 6667SOL    HW120238   3.447   1.285   0.812  1.0458 -1.2968  1.4747
 6667SOL    HW220239   3.409   1.374   0.929  0.4973  1.1689 -0.4924
 6668SOL     OW20240   0.298   2.045   4.646  0.1489  0.3269  0.0039
 6668SOL    HW120241   0.386   2.049   4.683  1.1348  1.3315 -2.2474
 6668SOL    HW220242   0.271   2.137   4.640 -0.1757  0.1652 -1.2194
 6669SOL     OW20243   4.843   1.264   1.751  0.2352  0.2318  0.0608
 6669SOL    HW120244   4.870   1.174   1.732 -0.3958 -0.3066  1.5988
 6669SOL    HW220245   4.749   1.259   1.768  0.2365  1.1458  0.4124
 6670SOL     OW20246   3.636   4.883   2.294  0.3667  0.3068 -0.0222
 6670SOL    HW120247   3.692   4.817   2.255  0.6446 -0.8646  2.1868
 6670SOL    HW220248   3.697   4.946   2.334  0.0963  0.7277 -0.2624
 6671SOL     OW20249   5.419   0.015   0.874 -1.0675 -0.0326 -0.2940
 6671SOL    HW120250   5.444  -0.018   0.961  1.3348  0.9955 -0.5115
 6671SOL    HW220251   5.406   0.109   0.887  0.8241  0.4171 -1.2685
 6672SOL     OW20252   5.526   2.154   3.251  0.0917 -0.0398 -0.2590
 6672SOL    HW120253   5.524   2.238   3.204 -0.6714 -1.0429 -2.1437
 6672SOL    HW220254   5.443   2.152   3.299  0.1330  0.2943 -0.1683
 6673SOL     OW20255   0.818   2.200   2.518 -0.1503 -0.3510 -0.5092
 6673SOL    HW120256   0.889   2.216   2.456  0.7242 -0.5526  0.4007
 6673SOL    HW220257   0.796   2.108   2.508 -0.2224 -0.3084 -0.7345
 6674SOL     OW20258   3.724   1.721   1.343  0.0132 -0.1596  0.2532
 6674SOL    HW120259   3.726   1.743   1.250  0.8364  0.5865  0.4374
 6674SOL    HW220260   3.631   1.708   1.362 -0.1034 -0.9798 -0.8125
 6675SOL     OW20261   1.925   4.940   1.093  0.2140 -0.2760  0.0663
 6675SOL    HW120262   1.894   4.936   1.003 -1.0049 -2.3576  0.4952
 6675SOL    HW220263   1.924   5.033   1.115  1.3758  0.3741 -2.2890
 6676SOL     OW20264   3.439   4.555   2.810  0.3521  0.3011 -0.0817
 6676SOL    HW120265   3.473   4.644   2.812  0.7497  0.1617  2.4247
 6676SOL    HW220266   3.344   4.565   2.806  0.4183  0.8226 -0.3393
 6677SOL     OW20267   2.732   2.204   0.642 -0.4356 -0.5008  0.2970
 6677SOL    HW120268   2.667   2.231   0.707  0.8612  1.2275  0.9539
 6677SOL    HW220269   2.680   2.172   0.568 -2.0201  0.3882  0.9746
 6678SOL     OW20270   3.556   1.416   4.666 -0.8018 -0.2364 -0.6161
 6678SOL    HW120271   3.638   1.464   4.668 -1.2832  0.6034 -0.4785
 6678SOL    HW220272   3.541   1.397   4.573 -0.5140 -0.2845 -0.6517
 6679SOL     OW20273   1.464   3.794   0.431  0.7584  0.5389 -0.0960
 6679SOL    HW120274   1.429   3.862   0.489 -1.8605  0.2383 -1.1969
 6679SOL    HW220275   1.415   3.803   0.350  0.6527 -2.3526 -0.4599
 6680SOL     OW20276   5.366   3.191   2.384  0.0147  0.1550  0.0871
 6680SOL    HW120277   5.405   3.105   2.369 -0.1338  0.1301 -0.1509
 6680SOL    HW220278   5.434   3.253   2.356  1.1731  0.1771  2.6490
 6681SOL     OW20279   0.275   2.629   1.801  0.4071  0.1456  0.1908
 6681SOL    HW120280   0.265   2.719   1.769  1.2645  0.4537  0.7585
 6681SOL    HW220281   0.263   2.636   1.896 -0.5581 -0.5130  0.1269
 6682SOL     OW20282   5.931   1.452   5.639 -0.2907  0.4932  0.1910
 6682SOL    HW120283   6.011   1.466   5.690  1.2004 -0.9824 -1.6049
 6682SOL    HW220284   5.879   1.531   5.655  0.9977  1.0108  2.2989
 6683SOL     OW20285   2.781   1.813   5.325 -0.2577  0.1654  0.0625
 6683SOL    HW120286   2.837   1.825   5.248 -0.2440  1.1516  0.2062
 6683SOL    HW220287   2.773   1.719   5.335  1.2784  0.0000 -0.0494
 6684SOL     OW20288   3.041   6.063   3.780 -0.1713 -0.0311  0.3636
 6684SOL    HW120289   3.099   6.131   3.744 -0.0377  0.4801  1.4730
 6684SOL    HW220290   2.957   6.078   3.738  0.8174 -1.8279 -2.5551
 6685SOL     OW20291   2.362   3.301   4.082 -0.4366 -0.5495  0.0309
 6685SOL    HW120292   2.372   3.254   3.999  0.0930 -1.4509  0.5777
 6685SOL    HW220293   2.409   3.246   4.145 -0.2275  0.4876  0.7910
 6686SOL     OW20294   4.907   0.215   0.836 -0.2269 -0.3065 -0.0556
 6686SOL    HW120295   4.883   0.178   0.751  1.5153  0.0398 -0.7440
 6686SOL    HW220296   4.888   0.308   0.828  0.8908 -0.0968 -0.4661
 6687SOL     OW20297   5.264   2.559   4.500  0.5592  0.0426  0.0048
 6687SOL    HW120298   5.205   2.557   4.424 -1.2062  0.0395  1.3084
 6687SOL    HW220299   5.222   2.620   4.561  1.4982 -0.5857  1.3136
 6688SOL     OW20300   5.746   3.242   2.537  0.1945 -0.1126 -0.4230
 6688SOL    HW120301   5.793   3.226   2.619  0.7605  1.6974 -0.3571
 6688SOL    HW220302   5.662   3.279   2.564 -0.0726 -0.5344 -0.6500
 6689SOL     OW20303   5.040   4.357   5.372  0.0966  0.2531 -0.0002
 6689SOL    HW120304   4.960   4.314   5.343 -1.2592  2.5808  0.0095
 6689SOL    HW220305   5.050   4.333   5.464  0.9505 -2.1608 -0.6543
 6690SOL     OW20306   3.023   2.333   1.067 -0.2429 -0.1580  0.5907
 6690SOL    HW120307   2.971   2.410   1.089 -1.6889 -0.9330  0.0488
 6690SOL    HW220308   2.959   2.262   1.064  0.6850 -0.9700 -1.1586
 6691SOL     OW20309   2.030   3.379   4.820  0.0613 -0.5716 -0.3715
 6691SOL    HW120310   2.072   3.343   4.898  0.4324  3.1662  1.3928
 6691SOL    HW220311   1.937   3.385   4.843  0.2594  1.1278  0.1647
 6692SOL     OW20312   3.604   2.563   1.513  0.3153  0.0949  0.1646
 6692SOL    HW120313   3.552   2.559   1.433  0.5962  1.1889 -0.0929
 6692SOL    HW220314   3.683   2.610   1.487  0.9311 -0.5577  0.8166
 6693SOL     OW20315   4.952   0.491   1.551  0.2284 -0.1613 -0.8251
 6693SOL    HW120316   4.875   0.482   1.607  0.9014 -1.8416 -0.0694
 6693SOL    HW220317   5.025   0.465   1.607  0.9481 -1.7792 -2.4075
 6694SOL     OW20318   2.739   3.030   0.633  0.0353  0.1744  0.2005
 6694SOL    HW120319   2.771   3.105   0.683  1.2255 -1.1430  1.5627
 6694SOL    HW220320   2.644   3.037   0.636  0.1297  1.9498 -0.2798
 6695SOL     OW20321   4.876   4.538   4.675 -0.6544 -0.1700 -0.1319
 6695SOL    HW120322   4.895   4.570   4.763  0.6349  0.4221 -0.5962
 6695SOL    HW220323   4.781   4.532   4.672 -0.7512  0.3734  1.1070
 6696SOL     OW20324   4.420   6.028   3.902 -0.1072  0.0011 -0.3271
 6696SOL    HW120325   4.345   6.082   3.925 -2.4451 -2.4494 -1.6366
 6696SOL    HW220326   4.448   6.062   3.816  1.1367  1.6342  0.6469
 6697SOL     OW20327   2.045   2.227   3.272  0.1572 -0.0211 -0.1115
 6697SOL    HW120328   2.039   2.133   3.255  1.3065 -0.1843  0.3028
 6697SOL    HW220329   2.068   2.265   3.187  1.1953 -0.3043  0.0219
 6698SOL     OW20330   3.879   0.783   3.234 -0.3428  0.3026  0.2516
 6698SOL    HW120331   3.813   0.848   3.260  0.6095  1.0220  0.9040
 6698SOL    HW220332   3.893   0.800   3.140  1.5773  2.6287  0.8697
 6699SOL     OW20333   3.470   0.445   4.648 -0.2802 -0.6906  0.2616
 6699SOL    HW120334   3.525   0.451   4.726 -1.6056  0.7450  1.1646
 6699SOL    HW220335   3.388   0.407   4.679 -1.7954  2.2161  0.2622
 6700SOL     OW20336   1.154   4.211   4.522 -0.4524 -0.0110 -0.2786
 6700SOL    HW120337   1.067   4.182   4.496 -0.1685 -0.8629 -0.3121
 6700SOL    HW220338   1.141   4.300   4.556 -0.9475  0.8900 -2.6223
 6701SOL     OW20339   2.777   1.314   0.688 -0.4160  0.1709  0.3970
 6701SOL    HW120340   2.768   1.270   0.604  1.7650 -0.7800  0.5955
 6701SOL    HW220341   2.707   1.380   0.689  0.2215  1.0216 -2.6628
 6702SOL     OW20342   1.614   6.036   3.120 -0.1130 -0.0562 -0.1512
 6702SOL    HW120343   1.695   6.007   3.079 -1.3721 -1.5427 -1.7211
 6702SOL    HW220344   1.624   6.012   3.212  1.1615 -0.3540 -0.3485
 6703SOL     OW20345   4.674   5.029   2.837 -0.2855 -0.4141 -0.0168
 6703SOL    HW120346   4.601   4.968   2.848  0.3728 -1.1195  0.5174
 6703SOL    HW220347   4.708   5.012   2.750 -1.6790  0.9636 -0.8862
 6704SOL     OW20348   1.022   4.433   1.114  0.0341 -0.0398  0.2898
 6704SOL    HW120349   1.028   4.342   1.143  0.7872  0.1545  0.7572
 6704SOL    HW220350   1.112   4.459   1.096 -0.1049  0.8089  0.7581
 6705SOL     OW20351   3.070   4.608   3.372  0.4916  0.2560 -0.7411
 6705SOL    HW120352   3.084   4.673   3.303  0.8668 -0.0574 -0.9652
 6705SOL    HW220353   3.001   4.551   3.337  1.4013 -0.5292 -1.3257
 6706SOL     OW20354   1.768   5.566   0.076 -0.0940 -0.1606  0.4019
 6706SOL    HW120355   1.809   5.597  -0.005 -0.3049  1.0443  0.7393
 6706SOL    HW220356   1.683   5.532   0.048 -0.2135  0.3470  0.1202
 6707SOL     OW20357   3.947   0.983   5.709 -0.1759 -0.5749  0.0477
 6707SOL    HW120358   3.964   1.045   5.638 -1.7481 -0.8866 -0.6613
 6707SOL    HW220359   3.987   1.022   5.786  0.4652  0.4044 -0.7575
 6708SOL     OW20360   2.346   2.928   4.425 -0.1814 -0.3406  0.7112
 6708SOL    HW120361   2.406   2.926   4.499 -0.4910 -0.2729  0.9674
 6708SOL    HW220362   2.281   2.994   4.448  0.2505  0.3684 -0.0409
 6709SOL     OW20363   5.565   3.551   5.202 -0.3459 -0.6726 -0.3329
 6709SOL    HW120364   5.639   3.608   5.183 -1.5102  0.1406 -2.8303
 6709SOL    HW220365   5.490   3.610   5.208 -0.6906 -1.2089  4.1504
 6710SOL     OW20366   2.298   1.436   4.229 -0.4754 -0.4599 -0.1982
 6710SOL    HW120367   2.245   1.436   4.149  0.1155 -2.8803 -0.6491
 6710SOL    HW220368   2.378   1.484   4.204 -0.5393 -0.6990 -0.8840
 6711SOL     OW20369   3.507   5.987   1.412  0.3286  0.9163  0.3375
 6711SOL    HW120370   3.601   6.003   1.422  0.6666 -0.5970 -0.1557
 6711SOL    HW220371   3.499   5.892   1.406 -1.2444  1.0183  0.3629
 6712SOL     OW20372   1.884   5.891   5.204  0.1352  0.1963 -0.4550
 6712SOL    HW120373   1.901   5.923   5.115 -0.1452  1.1840 -0.1669
 6712SOL    HW220374   1.970   5.890   5.246  0.9230 -3.6981 -1.7497
 6713SOL     OW20375   5.439   5.954   5.497  0.2618 -0.1340 -0.5167
 6713SOL    HW120376   5.482   5.869   5.489 -1.1428 -1.1457  1.5459
 6713SOL    HW220377   5.356   5.943   5.450  1.0043  0.8684 -2.1132
 6714SOL     OW20378   1.202   0.773   1.744  0.1452 -0.2397  0.0034
 6714SOL    HW120379   1.108   0.782   1.763  0.3539 -0.6483  1.3373
 6714SOL    HW220380   1.228   0.860   1.714 -0.7919 -0.2955 -1.0311
 6715SOL     OW20381   5.026   3.276   2.599  0.3309  0.1016 -0.5369
 6715SOL    HW120382   4.958   3.341   2.578 -2.0255 -1.7945  0.6749
 6715SOL    HW220383   5.092   3.325   2.647 -1.1037  1.7323 -0.1283
 6716SOL     OW20384   4.756   4.934   2.583  0.5236 -0.1161 -0.0089
 6716SOL    HW120385   4.672   4.924   2.537  1.8572 -0.8769 -2.4230
 6716SOL    HW220386   4.782   4.845   2.606 -1.2559  0.2526  4.8121
 6717SOL     OW20387   5.399   1.476   2.650  0.4480 -0.0514 -0.5975
 6717SOL    HW120388   5.326   1.433   2.695  0.2912  0.8871  0.0623
 6717SOL    HW220389   5.408   1.427   2.568  0.7877 -1.8280  0.4612
 6718SOL     OW20390   3.338   3.647   1.019 -0.4814  0.2195 -0.2119
 6718SOL    HW120391   3.314   3.571   0.965 -2.1838  1.3690 -1.1507
 6718SOL    HW220392   3.309   3.623   1.107  0.4483 -0.8278 -0.1583
 6719SOL     OW20393   4.986   3.282   0.205 -0.0856  0.5269 -0.1790
 6719SOL    HW120394   5.020   3.192   0.208 -3.9846 -1.1186  0.2205
 6719SOL    HW220395   5.056   3.332   0.163  3.1923 -2.1720  1.5636
 6720SOL     OW20396   5.523   2.358   3.816  0.3271 -0.5214 -0.6647
 6720SOL    HW120397   5.456   2.292   3.833 -3.3328  2.7585 -0.9228
 6720SOL    HW220398   5.561   2.376   3.903  1.4035 -2.7606 -0.5903
 6721SOL     OW20399   3.004   2.473   2.557 -0.1831  0.2395 -0.1231
 6721SOL    HW120400   3.003   2.545   2.494  1.8654  0.5277  0.0870
 6721SOL    HW220401   3.061   2.504   2.628  0.4843 -1.4400  0.1318
 6722SOL     OW20402   0.998   4.457   0.618 -0.1453 -0.2633 -0.1939
 6722SOL    HW120403   0.982   4.540   0.661 -0.2741 -0.9471  1.1374
 6722SOL    HW220404   0.916   4.408   0.629  0.0362 -0.6828 -0.6760
 6723SOL     OW20405   4.635   5.355   0.958  0.2945  0.6416  0.2431
 6723SOL    HW120406   4.721   5.365   0.917  1.2166  0.2013  1.9278
 6723SOL    HW220407   4.653   5.365   1.052 -1.3225 -0.4629  0.7073
 6724SOL     OW20408   5.828   5.378   0.552 -0.3615 -0.0812 -0.0275
 6724SOL    HW120409   5.746   5.341   0.584  0.1731  0.3866  2.0320
 6724SOL    HW220410   5.810   5.472   0.544 -0.0700  0.0040  0.3087
 6725SOL     OW20411   6.002   0.684   4.720  0.1730 -0.0160  0.2649
 6725SOL    HW120412   5.937   0.618   4.741 -0.9110  0.3803 -1.5892
 6725SOL    HW220413   5.952   0.766   4.715  0.6383  0.1952 -1.8061
 6726SOL     OW20414   3.330   2.015   4.552 -0.3447 -0.5143  0.4084
 6726SOL    HW120415   3.248   2.004   4.502 -0.3013  1.6161 -0.2352
 6726SOL    HW220416   3.303   2.059   4.632  0.2520  1.0405 -0.2190
 6727SOL     OW20417   5.365   0.788   5.637  0.2024 -0.1426 -0.4393
 6727SOL    HW120418   5.434   0.743   5.685  0.0020 -1.8095 -1.6330
 6727SOL    HW220419   5.305   0.718   5.609  0.3854  0.6884 -3.2326
 6728SOL     OW20420   1.191   0.916   5.218 -0.2275  0.6087  0.4406
 6728SOL    HW120421   1.109   0.869   5.200 -0.1612 -0.7449  3.2080
 6728SOL    HW220422   1.258   0.862   5.176 -0.4137 -0.4924  1.4944
 6729SOL     OW20423   0.078   0.975   3.473 -0.1211 -0.3297  0.9535
 6729SOL    HW120424   0.137   0.915   3.518  0.5256  0.3779  1.0720
 6729SOL    HW220425   0.113   0.981   3.384 -0.9377 -1.1121  0.5616
 6730SOL     OW20426   4.936   4.564   2.320  0.4540 -0.1646 -0.2253
 6730SOL    HW120427   4.946   4.568   2.225 -0.4918 -2.2396 -0.4815
 6730SOL    HW220428   4.957   4.473   2.342 -0.0052  0.1012  1.4586
 6731SOL     OW20429   2.191   3.146   4.455 -0.0960 -0.1091 -0.4668
 6731SOL    HW120430   2.171   3.136   4.548  2.5926 -0.0176  0.1979
 6731SOL    HW220431   2.251   3.220   4.451 -1.4647  1.0137 -2.5495
 6732SOL     OW20432   3.959   3.584   1.885 -0.0404  0.2055 -0.4312
 6732SOL    HW120433   3.871   3.615   1.909 -0.3311 -2.4800  2.7114
 6732SOL    HW220434   4.003   3.570   1.969  2.9515  0.1104 -1.8918
 6733SOL     OW20435   0.413   6.049   2.145 -0.2956 -0.2002 -0.4823
 6733SOL    HW120436   0.409   6.137   2.109 -1.8656 -1.1086 -2.7471
 6733SOL    HW220437   0.323   6.018   2.144  0.1238 -1.6357  0.8783
 6734SOL     OW20438   0.380   2.660   3.994 -0.3915 -0.2039 -0.0541
 6734SOL    HW120439   0.412   2.597   3.929 -1.4712 -0.7483 -0.0822
 6734SOL    HW220440   0.432   2.739   3.978  2.4781 -1.6393  1.3182
 6735SOL     OW20441   5.984   1.932   0.813 -0.4922 -0.5482  0.1177
 6735SOL    HW120442   6.069   1.974   0.821  0.6354 -2.0881 -2.6263
 6735SOL    HW220443   5.934   1.989   0.755 -0.5084 -0.8370 -0.1495
 6736SOL     OW20444   3.412   3.161   3.729 -0.4212 -0.3058 -0.3858
 6736SOL    HW120445   3.365   3.085   3.764  0.5181 -0.8351 -0.2513
 6736SOL    HW220446   3.439   3.136   3.641  3.0574 -1.6212  0.8783
 6737SOL     OW20447   2.650   1.660   4.499  0.0334  0.7536  0.2727
 6737SOL    HW120448   2.585   1.710   4.549  0.9687  0.9436  1.3553
 6737SOL    HW220449   2.635   1.684   4.408 -1.8094  0.3178  0.4153
 6738SOL     OW20450   2.119   4.864   2.784 -0.3131  0.0893 -0.1385
 6738SOL    HW120451   2.179   4.938   2.787 -1.5180  1.0944 -0.1462
 6738SOL    HW220452   2.032   4.903   2.787 -0.9844 -1.4052  1.5842
 6739SOL     OW20453   3.440   5.347   0.595 -0.6949 -0.2691  0.8719
 6739SOL    HW120454   3.443   5.376   0.503 -0.8969 -0.5343  0.7814
 6739SOL    HW220455   3.353   5.374   0.625 -0.2378  0.7629  1.2989
 6740SOL     OW20456   1.929   2.526   4.442  0.1591 -0.0690 -0.1442
 6740SOL    HW120457   1.890   2.460   4.383  0.2232 -0.7737  0.5813
 6740SOL    HW220458   1.875   2.522   4.521  1.9062 -1.3885  1.0686
 6741SOL     OW20459   5.903   4.489   3.351 -0.7141  0.2343 -0.0952
 6741SOL    HW120460   5.876   4.553   3.417  1.3304  3.9179 -2.4671
 6741SOL    HW220461   5.847   4.508   3.276 -0.3669 -1.1539 -0.7311
 6742SOL     OW20462   4.655   4.952   1.128  0.1118 -0.2199  0.2375
 6742SOL    HW120463   4.656   4.862   1.161 -1.7420 -0.0782  0.8399
 6742SOL    HW220464   4.634   4.943   1.035  0.5789 -0.4294  0.1499
 6743SOL     OW20465   1.421   4.890   1.831 -0.4571  0.6614 -0.4344
 6743SOL    HW120466   1.341   4.941   1.834 -0.9803 -0.1730  0.0567
 6743SOL    HW220467   1.397   4.810   1.784  0.0858  0.4035 -0.2836
 6744SOL     OW20468   1.834   3.648   2.782 -0.2836 -0.5874 -0.8052
 6744SOL    HW120469   1.863   3.656   2.691  0.1929 -0.7071 -0.6635
 6744SOL    HW220470   1.827   3.554   2.797  1.3807 -0.6303 -0.1721
 6745SOL     OW20471   4.046   1.777   1.301  0.0955  0.3934  0.4865
 6745SOL    HW120472   4.105   1.811   1.369  0.8289  0.1987 -0.0427
 6745SOL    HW220473   3.960   1.813   1.324  0.4911  1.0069  1.0466
 6746SOL     OW20474   0.910   0.506   0.088 -0.2066  0.0473  0.0820
 6746SOL    HW120475   0.840   0.535   0.029 -2.0664 -0.5571  1.8481
 6746SOL    HW220476   0.907   0.569   0.161 -0.0820 -0.9507  0.9795
 6747SOL     OW20477   4.384   3.233   5.685  0.8563 -0.4903 -0.2454
 6747SOL    HW120478   4.411   3.156   5.636  0.4031 -0.7302 -0.1184
 6747SOL    HW220479   4.341   3.199   5.763  3.0349 -0.1521  1.2035
 6748SOL     OW20480   4.739   0.535   3.292 -0.1950 -0.2585  0.3918
 6748SOL    HW120481   4.675   0.589   3.339 -1.3744  1.2438 -2.6928
 6748SOL    HW220482   4.706   0.445   3.304 -0.1265 -0.0441  2.7503
 6749SOL     OW20483   4.605   0.953   3.655 -0.2492  0.1396 -0.0026
 6749SOL    HW120484   4.553   0.975   3.732 -1.4643  1.7693 -1.2043
 6749SOL    HW220485   4.613   1.036   3.607  2.0868 -0.4060 -0.7217
 6750SOL     OW20486   6.024   3.804   5.833  0.2733 -0.1417  0.2516
 6750SOL    HW120487   6.094   3.788   5.896  0.0784 -0.2425  0.4487
 6750SOL    HW220488   6.066   3.797   5.747  0.6026  0.3000  0.3744
 6751SOL     OW20489   1.173   3.473   0.237  0.2770  0.4140  0.1513
 6751SOL    HW120490   1.171   3.412   0.311  1.9671 -1.5653 -1.3112
 6751SOL    HW220491   1.244   3.534   0.257 -0.2425  0.8116  0.8091
 6752SOL     OW20492   3.658   0.914   3.291  0.1842 -0.0293  0.2679
 6752SOL    HW120493   3.651   0.893   3.385 -1.3312 -1.5219 -0.1261
 6752SOL    HW220494   3.597   0.987   3.278  0.2435  0.0456  0.4017
 6753SOL     OW20495   0.456   0.192   0.034 -0.5544  0.0038 -0.4316
 6753SOL    HW120496   0.452   0.106   0.076 -1.6903 -1.0090 -2.4546
 6753SOL    HW220497   0.544   0.224   0.052 -0.0577 -1.6629  0.2430
 6754SOL     OW20498   4.905   0.886   3.627  0.3977 -0.0259  0.9447
 6754SOL    HW120499   4.891   0.791   3.619  1.8626 -0.1227 -1.7768
 6754SOL    HW220500   4.817   0.923   3.626 -0.1702 -1.2915  0.0552
 6755SOL     OW20501   1.058   4.132   5.130 -0.4077 -0.3335  0.2425
 6755SOL    HW120502   1.074   4.069   5.059 -1.1695  1.1324 -1.2907
 6755SOL    HW220503   1.133   4.191   5.126  0.0189 -0.7765  1.3088
 6756SOL     OW20504   3.391   4.084   0.985  0.0680  0.1764  0.5711
 6756SOL    HW120505   3.382   4.099   1.080  0.0034  0.5344  0.5094
 6756SOL    HW220506   3.386   3.989   0.976 -0.1728  0.1529  0.9035
 6757SOL     OW20507   6.093   4.025   5.606  0.4914 -0.1969 -0.0683
 6757SOL    HW120508   6.164   3.973   5.568  1.1515  0.8314 -0.2671
 6757SOL    HW220509   6.019   3.964   5.610  0.4025 -0.4160 -2.8635
 6758SOL     OW20510   4.527   4.888   2.422 -0.4393 -0.0499  0.3634
 6758SOL    HW120511   4.577   4.840   2.356  3.0240  2.3397  0.9504
 6758SOL    HW220512   4.466   4.942   2.372  1.5607  1.1177 -0.9827
 6759SOL     OW20513   3.463   1.104   5.881 -0.3701  0.7280 -0.1250
 6759SOL    HW120514   3.511   1.028   5.849 -0.5597  0.6268 -0.1686
 6759SOL    HW220515   3.443   1.155   5.802 -0.2460  0.8234 -0.0962
 6760SOL     OW20516   1.847   4.733   1.293  0.3711 -0.0385 -0.0496
 6760SOL    HW120517   1.843   4.739   1.198 -2.0743  0.3598  0.0034
 6760SOL    HW220518   1.825   4.821   1.323 -1.3375 -0.7323  0.8482
 6761SOL     OW20519   1.008   2.720   5.129 -0.3546  0.0301  0.3048
 6761SOL    HW120520   0.984   2.728   5.221 -3.1770 -2.9480  0.0030
 6761SOL    HW220521   1.086   2.665   5.128  0.4348  1.0950  0.8916
 6762SOL     OW20522   0.206   4.645   5.764 -0.4412  0.5943 -0.0886
 6762SOL    HW120523   0.282   4.696   5.792 -0.1755 -0.9355  2.3176
 6762SOL    HW220524   0.239   4.588   5.695  0.7236 -0.2602  1.1277
 6763SOL     OW20525   0.377   0.795   2.727  0.3035  0.3342 -0.2815
 6763SOL    HW120526   0.416   0.754   2.649  0.5087 -1.6991  0.8157
 6763SOL    HW220527   0.313   0.730   2.758  0.8085  0.7250  1.7095
 6764SOL     OW20528   5.329   5.792   0.111  0.8303  0.3067 -0.0132
 6764SOL    HW120529   5.355   5.731   0.041 -1.2043 -0.8579  0.1894
 6764SOL    HW220530   5.304   5.872   0.064  1.4914  0.2721 -0.4430
 6765SOL     OW20531   3.320   2.108   4.810 -0.2129 -0.2205  0.0292
 6765SOL    HW120532   3.310   2.202   4.820 -3.4687 -0.6222  2.1562
 6765SOL    HW220533   3.397   2.086   4.862 -0.7144  1.0832  1.3961
 6766SOL     OW20534   3.728   1.494   1.906 -0.5459 -0.0297  0.1132
 6766SOL    HW120535   3.633   1.507   1.908 -0.7550 -1.4732  1.4421
 6766SOL    HW220536   3.744   1.445   1.826 -0.9595  0.0194 -0.0002
 6767SOL     OW20537   3.041   4.955   0.669 -0.5670  0.3035 -0.3407
 6767SOL    HW120538   2.992   4.891   0.721  0.3059 -0.4081 -0.3684
 6767SOL    HW220539   3.018   5.040   0.707  0.0686 -0.2053  1.2471
 6768SOL     OW20540   4.417   5.653   0.964  0.1686 -0.1024  0.3543
 6768SOL    HW120541   4.456   5.587   0.907  0.1759 -0.7494  1.0993
 6768SOL    HW220542   4.485   5.673   1.028 -0.0451  0.2023  0.4890
 6769SOL     OW20543   3.119   1.929   3.175  0.0029 -0.2568  0.3547
 6769SOL    HW120544   3.210   1.959   3.174 -0.1226  0.1708  1.3225
 6769SOL    HW220545   3.118   1.856   3.237  0.0953 -1.6720 -1.2201
 6770SOL     OW20546   3.632   1.549   2.769  0.1522 -0.1019 -0.1358
 6770SOL    HW120547   3.538   1.548   2.787  0.3357  1.0641  1.0585
 6770SOL    HW220548   3.670   1.598   2.842  1.3858  1.6530 -1.8394
 6771SOL     OW20549   1.594   0.746   0.072  0.3856  0.4966 -0.0982
 6771SOL    HW120550   1.685   0.719   0.057  0.4825  0.0132  1.1649
 6771SOL    HW220551   1.569   0.699   0.152 -0.8424  0.9475 -0.2018
 6772SOL     OW20552   4.227   2.889   4.030 -0.0228 -0.3159  0.5275
 6772SOL    HW120553   4.197   2.979   4.018 -0.6275 -0.2894  2.0755
 6772SOL    HW220554   4.184   2.841   3.959  0.5025  0.6206 -0.4748
 6773SOL     OW20555   3.480   4.262   2.388  0.1925  0.2012  0.9672
 6773SOL    HW120556   3.481   4.327   2.459 -0.1588  0.3917  0.7963
 6773SOL    HW220557   3.452   4.181   2.431 -1.5994  0.6632  0.7609
 6774SOL     OW20558   1.148   4.475   1.519 -0.2995 -0.2686  0.3007
 6774SOL    HW120559   1.142   4.528   1.439 -0.6728 -0.5298  0.1534
 6774SOL    HW220560   1.094   4.398   1.501  0.6072 -0.9296  0.3381
 6775SOL     OW20561   3.811   4.722   0.860 -0.1734 -0.2240 -0.6202
 6775SOL    HW120562   3.836   4.796   0.916 -0.7650  0.0699 -0.7447
 6775SOL    HW220563   3.894   4.694   0.820  0.4365 -1.0114  1.0774
 6776SOL     OW20564   0.624   2.074   4.197  0.5142  0.1412  0.2855
 6776SOL    HW120565   0.543   2.051   4.242  0.1429  0.4856 -0.1933
 6776SOL    HW220566   0.668   1.991   4.182 -0.0867 -0.1186 -0.0739
 6777SOL     OW20567   2.423   5.865   1.720  0.3801 -0.0310 -0.3249
 6777SOL    HW120568   2.434   5.927   1.648  2.8148  0.9081  0.7515
 6777SOL    HW220569   2.451   5.781   1.684 -1.3310 -0.2355 -1.2937
 6778SOL     OW20570   4.205   5.450   4.738 -0.1846  0.4204  0.1542
 6778SOL    HW120571   4.275   5.466   4.800 -0.9023  0.2113  1.0413
 6778SOL    HW220572   4.154   5.531   4.738 -0.7543  0.0675  0.5990
 6779SOL     OW20573   1.011   1.550   3.492 -0.1902 -0.4740  0.7145
 6779SOL    HW120574   1.098   1.514   3.507 -0.1593  0.3707  3.0225
 6779SOL    HW220575   1.025   1.645   3.488 -0.8916 -0.3898  0.1598
 6780SOL     OW20576   0.310   0.947   2.408  0.2477  0.0604 -0.6496
 6780SOL    HW120577   0.259   0.946   2.489  0.3283 -0.5398 -0.6002
 6780SOL    HW220578   0.268   1.013   2.354  0.7008  1.0803  0.1992
 6781SOL     OW20579   1.301   3.929   6.150 -0.8728  0.5539 -0.0371
 6781SOL    HW120580   1.288   3.943   6.057  2.0724 -0.2049 -0.6733
 6781SOL    HW220581   1.375   3.986   6.173 -0.8850 -0.0326  1.5996
 6782SOL     OW20582   2.516   5.638   3.634  0.0264  0.0734 -0.0897
 6782SOL    HW120583   2.607   5.659   3.655  0.2312 -0.6952 -0.1597
 6782SOL    HW220584   2.475   5.624   3.719  0.1675 -0.3307 -0.0866
 6783SOL     OW20585   3.012   2.959   3.904  0.2365  0.3491  0.0164
 6783SOL    HW120586   3.001   3.052   3.884 -1.0171  0.1998 -0.0714
 6783SOL    HW220587   2.933   2.918   3.870  1.9484 -1.1957 -2.4153
 6784SOL     OW20588   4.336   1.834   4.155 -0.5681  0.1198 -0.3397
 6784SOL    HW120589   4.268   1.777   4.191  0.3583 -1.1194 -0.5239
 6784SOL    HW220590   4.293   1.920   4.149 -2.7229 -0.9635 -2.1398
 6785SOL     OW20591   3.974   0.010   4.220 -0.0162  0.1316  0.1042
 6785SOL    HW120592   3.955  -0.012   4.312  0.4330  2.0979  0.6975
 6785SOL    HW220593   4.056   0.059   4.223 -1.1776  2.2694 -1.0559
 6786SOL     OW20594   2.770   6.105   3.034 -0.0103 -0.0625 -0.0598
 6786SOL    HW120595   2.693   6.089   2.979 -1.3578  1.6962  1.2106
 6786SOL    HW220596   2.791   6.197   3.020 -1.0074  0.7387  3.0005
 6787SOL     OW20597   2.080   5.706   2.127  0.6350  0.5975  0.1424
 6787SOL    HW120598   1.987   5.709   2.108  0.1308  0.2129  2.3348
 6787SOL    HW220599   2.121   5.752   2.053 -0.9756 -1.7059 -2.3443
 6788SOL     OW20600   3.574   3.782   1.205 -0.4926 -0.2575 -0.1500
 6788SOL    HW120601   3.599   3.718   1.271  1.9933 -0.2997 -1.0280
 6788SOL    HW220602   3.645   3.846   1.206  0.6290 -1.2017 -3.9544
 6789SOL     OW20603   5.798   5.972   3.364 -0.1362  0.5696 -0.6319
 6789SOL    HW120604   5.857   5.915   3.414  0.8081  1.4965 -0.6592
 6789SOL    HW220605   5.721   5.918   3.349  2.2793 -2.3740 -4.3846
 6790SOL     OW20606   2.373   0.973   3.412 -0.3409 -0.5687 -0.2140
 6790SOL    HW120607   2.422   0.912   3.358 -0.2063 -0.3641 -0.3264
 6790SOL    HW220608   2.372   1.055   3.362  0.1580 -0.2491  0.2789
 6791SOL     OW20609   6.034   2.970   3.210 -0.2719 -0.0858  0.0954
 6791SOL    HW120610   5.978   2.959   3.134 -0.4962 -2.9021  0.5371
 6791SOL    HW220611   6.102   2.903   3.200  1.6398  1.6255  0.7989
 6792SOL     OW20612   3.123   1.965   5.193 -0.0860  0.5453 -0.4857
 6792SOL    HW120613   3.053   1.902   5.176 -1.2347  1.8881 -0.9178
 6792SOL    HW220614   3.203   1.919   5.170 -0.8888 -0.7397 -0.8196
 6793SOL     OW20615   1.470   4.448   3.758 -0.4661 -0.2839  0.8447
 6793SOL    HW120616   1.534   4.508   3.720 -0.2445 -0.6841  0.5762
 6793SOL    HW220617   1.424   4.411   3.682  0.1994 -1.3358  0.9446
 6794SOL     OW20618   6.010   4.807   5.339  0.1386 -0.1285  0.3844
 6794SOL    HW120619   5.948   4.875   5.313  1.0236  0.1477 -1.0549
 6794SOL    HW220620   5.964   4.725   5.320  0.5356  0.0673 -1.5912
 6795SOL     OW20621   6.105   0.962   0.124  0.4063  0.9882  0.2785
 6795SOL    HW120622   6.105   0.879   0.171 -1.0440  0.9471  0.2710
 6795SOL    HW220623   6.136   0.940   0.036  2.4421  0.9371  0.9648
 6796SOL     OW20624   3.580   1.936   1.983  0.5824  0.9059 -0.2149
 6796SOL    HW120625   3.501   1.964   2.030 -1.5849  0.6534 -3.3883
 6796SOL    HW220626   3.639   1.907   2.052 -2.2992  0.5507  2.3542
 6797SOL     OW20627   1.195   0.271   5.607  0.2790  0.0745 -0.5175
 6797SOL    HW120628   1.119   0.224   5.573 -0.2621  0.5051  0.0779
 6797SOL    HW220629   1.265   0.205   5.609  0.0564 -0.2018 -1.5179
 6798SOL     OW20630   2.642   5.631   5.644 -0.0912 -0.0644 -0.3990
 6798SOL    HW120631   2.549   5.650   5.643 -0.0876 -0.0408 -1.3429
 6798SOL    HW220632   2.649   5.541   5.611  0.1850 -0.2453  0.1382
 6799SOL     OW20633   5.179   4.957   5.092  0.4797 -0.2875 -0.3672
 6799SOL    HW120634   5.176   4.945   4.998  0.7446 -1.9753 -0.1836
 6799SOL    HW220635   5.107   5.019   5.110 -1.4439 -2.0884 -1.3873
 6800SOL     OW20636   1.206   5.846   1.636 -0.8664 -0.0562  0.1709
 6800SOL    HW120637   1.176   5.755   1.639  1.2371 -0.7865  1.0203
 6800SOL    HW220638   1.126   5.898   1.637 -2.1249 -1.8437  2.5782
 6801SOL     OW20639   6.148   3.138   5.898 -0.0729  0.4147 -0.0939
 6801SOL    HW120640   6.163   3.163   5.989  0.3689 -3.9279  1.2622
 6801SOL    HW220641   6.085   3.067   5.903  2.3790 -2.2223 -2.7320
 6802SOL     OW20642   2.298   4.049   3.325  0.4734 -0.2968  0.0902
 6802SOL    HW120643   2.375   3.992   3.323  0.2349 -0.8441  2.7019
 6802SOL    HW220644   2.228   3.994   3.362 -0.4546  0.9345  0.2352
 6803SOL     OW20645   3.182   1.208   2.437 -0.2862  0.3552  0.4392
 6803SOL    HW120646   3.098   1.215   2.390 -0.5018  0.4717  0.8369
 6803SOL    HW220647   3.248   1.215   2.368 -0.6116 -0.8298 -0.0286
 6804SOL     OW20648   4.477   0.049   4.920 -0.5439 -0.6439  0.2299
 6804SOL    HW120649   4.462   0.132   4.964  2.2773  0.3717 -0.4842
 6804SOL    HW220650   4.542   0.005   4.974 -2.6962 -2.9517  1.1412
 6805SOL     OW20651   0.167   5.315   0.235 -0.6457  0.4217 -0.1569
 6805SOL    HW120652   0.226   5.351   0.302 -0.0083 -0.9654  0.0556
 6805SOL    HW220653   0.204   5.230   0.214 -1.4658  0.3703 -1.4945
 6806SOL     OW20654   4.963   5.783   4.426 -0.4099  0.0709  0.3273
 6806SOL    HW120655   4.933   5.855   4.370  0.5119 -0.2607 -0.6281
 6806SOL    HW220656   5.006   5.826   4.500  1.1951  0.5283 -0.8308
 6807SOL     OW20657   5.839   1.248   5.863 -0.4797 -0.0239 -1.0158
 6807SOL    HW120658   5.846   1.338   5.831 -0.2374  0.2983 -0.1030
 6807SOL    HW220659   5.745   1.232   5.870 -0.5413 -0.1651 -2.0280
 6808SOL     OW20660   3.024   1.885   2.919  0.3879  0.2035 -0.2455
 6808SOL    HW120661   3.035   1.936   3.000 -0.5801  1.1998 -0.7153
 6808SOL    HW220662   3.044   1.948   2.849  4.1171 -1.3478 -0.8244
 6809SOL     OW20663   5.953   1.179   0.457  0.1705  1.1326 -0.0528
 6809SOL    HW120664   5.991   1.113   0.514  1.1481  0.6000 -1.2684
 6809SOL    HW220665   5.870   1.203   0.499 -0.4689 -1.2306  0.1633
 6810SOL     OW20666   6.125   1.958   4.022  0.0305 -0.1586  0.1108
 6810SOL    HW120667   6.093   1.990   4.105 -3.5604  0.1909 -1.2410
 6810SOL    HW220668   6.111   2.030   3.961  2.7148 -0.3438 -0.8600
 6811SOL     OW20669   1.071   4.648   5.634  0.1942  0.1028  0.2629
 6811SOL    HW120670   1.144   4.710   5.639  0.0483  0.3687 -0.6986
 6811SOL    HW220671   1.104   4.577   5.579 -0.2548  0.2265 -0.1775
 6812SOL     OW20672   0.005   0.113   0.447 -0.4422  0.0200 -0.1314
 6812SOL    HW120673  -0.089   0.123   0.459 -0.6265 -0.4226 -1.0939
 6812SOL    HW220674   0.013   0.045   0.380  0.5467  0.5697 -0.5908
 6813SOL     OW20675   2.677   3.950   6.118  0.6372  0.2062  0.9487
 6813SOL    HW120676   2.630   3.971   6.199 -1.3576 -2.0541  0.4692
 6813SOL    HW220677   2.609   3.917   6.059  2.1507  1.1415 -1.4574
 6814SOL     OW20678   5.976   5.303   3.253  0.2670  0.5446  0.0574
 6814SOL    HW120679   6.027   5.231   3.216 -0.2451 -0.4413  1.1884
 6814SOL    HW220680   6.022   5.382   3.226 -1.1564  0.0993 -4.4056
 6815SOL     OW20681   5.117   5.787   4.677  0.6839  0.1207 -0.3066
 6815SOL    HW120682   5.162   5.786   4.761 -0.4752  0.0772  0.3323
 6815SOL    HW220683   5.142   5.705   4.635  0.7224 -0.1768  0.2928
 6816SOL     OW20684   4.661   4.966   4.336  0.4828 -0.3037  0.1907
 6816SOL    HW120685   4.713   4.931   4.408 -0.6086 -1.5548  0.4129
 6816SOL    HW220686   4.607   4.892   4.307  0.1380  0.4618 -1.2159
 6817SOL     OW20687   1.614   0.177   5.180 -0.6706  0.2855  0.5560
 6817SOL    HW120688   1.578   0.220   5.258  0.6113  0.0038  1.3298
 6817SOL    HW220689   1.640   0.090   5.210  0.6938  0.5030  0.0485
 6818SOL     OW20690   2.717   5.566   3.357 -0.4816 -0.0008  0.0797
 6818SOL    HW120691   2.631   5.608   3.349  0.6643  2.3843 -0.2546
 6818SOL    HW220692   2.742   5.578   3.448 -0.8352 -1.4879  0.4060
 6819SOL     OW20693   0.213   1.794   0.256 -0.3403  0.5868  0.2700
 6819SOL    HW120694   0.156   1.842   0.317 -1.5007  0.7079 -0.8637
 6819SOL    HW220695   0.273   1.861   0.222  0.3967  0.4946  1.3378
 6820SOL     OW20696   3.417   4.257   2.892 -0.1921  0.1407 -0.1812
 6820SOL    HW120697   3.503   4.244   2.932 -0.8478 -0.7653  0.9880
 6820SOL    HW220698   3.408   4.352   2.885  0.8666  0.2432 -0.2434
 6821SOL     OW20699   2.248   4.664   2.631 -0.4139 -0.6315 -0.1574
 6821SOL    HW120700   2.203   4.731   2.683  1.4964  0.7428 -0.1572
 6821SOL    HW220701   2.200   4.663   2.548 -0.0177  1.3741 -0.4635
 6822SOL     OW20702   3.519   1.056   4.588  0.2298 -0.2325 -0.0850
 6822SOL    HW120703   3.549   1.127   4.532  1.6060 -1.3833 -0.8824
 6822SOL    HW220704   3.554   0.977   4.547 -0.3102 -1.2775  1.3851
 6823SOL     OW20705   1.740   3.924   0.339  0.1968 -0.1854  0.1036
 6823SOL    HW120706   1.677   3.995   0.334  0.1389 -0.2575 -0.2542
 6823SOL    HW220707   1.704   3.856   0.281 -0.7704 -1.3282  1.9544
 6824SOL     OW20708   3.719   5.259   5.491 -0.0731  0.2591  0.5899
 6824SOL    HW120709   3.759   5.339   5.525  0.1662  0.1518  0.5648
 6824SOL    HW220710   3.790   5.214   5.446 -0.2189  0.0555  0.5610
 6825SOL     OW20711   5.360   1.003   2.591 -0.0550 -0.1701 -0.1892
 6825SOL    HW120712   5.398   1.089   2.605 -1.5697  0.3423  0.9885
 6825SOL    HW220713   5.404   0.946   2.654 -1.0760  0.3995  1.0950
 6826SOL     OW20714   5.085   0.286   4.073 -0.5497 -0.0237  0.3336
 6826SOL    HW120715   5.010   0.332   4.037 -0.1225 -0.0982 -0.6853
 6826SOL    HW220716   5.071   0.194   4.048 -0.5457 -0.1721  0.8727
 6827SOL     OW20717   1.729   0.732   4.925 -0.6469 -0.5645  0.3060
 6827SOL    HW120718   1.755   0.697   4.840  1.1577 -1.2215  1.0793
 6827SOL    HW220719   1.710   0.655   4.978 -0.2930 -0.2300  0.9321
 6828SOL     OW20720   2.815   5.338   5.191 -0.6137  0.2735  0.4719
 6828SOL    HW120721   2.769   5.377   5.116  0.6214  0.0510 -0.4271
 6828SOL    HW220722   2.751   5.280   5.231 -1.5652  1.0367  0.1032
 6829SOL     OW20723   4.179   3.833   5.504  0.0315  0.1483 -0.1973
 6829SOL    HW120724   4.119   3.860   5.434 -1.8694 -1.1862  0.8232
 6829SOL    HW220725   4.251   3.896   5.499 -1.7700  2.2994 -1.0591
 6830SOL     OW20726   4.471   2.849   2.009 -0.1236  0.2592 -0.0216
 6830SOL    HW120727   4.427   2.775   1.967 -1.5475 -1.7240  4.3188
 6830SOL    HW220728   4.562   2.822   2.015  0.0763  0.5206 -1.5578
 6831SOL     OW20729   3.965   6.112   2.178  0.4522  0.0135  0.6093
 6831SOL    HW120730   4.038   6.156   2.135  0.8531 -1.2370 -0.0571
 6831SOL    HW220731   3.887   6.151   2.140  0.7841  0.7477  0.6763
 6832SOL     OW20732   1.169   5.911   0.174 -0.5694  0.1117 -0.3581
 6832SOL    HW120733   1.229   5.856   0.125  0.1192  1.6719 -1.3508
 6832SOL    HW220734   1.128   5.967   0.108 -1.7251  0.3720  0.5290
 6833SOL     OW20735   2.396   1.835   2.839 -0.2710 -0.4678 -0.3221
 6833SOL    HW120736   2.488   1.846   2.816  0.2703  0.7657  2.1073
 6833SOL    HW220737   2.350   1.900   2.785  0.4713 -0.0312 -0.4376
 6834SOL     OW20738   0.207   4.633   0.109  0.2066 -0.9215 -0.1582
 6834SOL    HW120739   0.261   4.706   0.139 -1.4204 -0.5241  2.0924
 6834SOL    HW220740   0.241   4.556   0.156 -0.0233 -1.0027 -0.1211
 6835SOL     OW20741   1.129   6.071   3.352  0.5119 -0.1978  0.9260
 6835SOL    HW120742   1.037   6.076   3.376  0.0357 -1.8728 -0.3194
 6835SOL    HW220743   1.131   6.098   3.260  1.2371 -0.3040  0.9070
 6836SOL     OW20744   5.674   1.957   3.169 -0.2007 -0.2636  0.2329
 6836SOL    HW120745   5.656   1.867   3.194 -0.4023  0.1221  1.5696
 6836SOL    HW220746   5.596   2.006   3.197 -0.5292  0.1944 -1.3696
 6837SOL     OW20747   0.303   2.266   2.916  0.5731  0.1907 -0.3226
 6837SOL    HW120748   0.273   2.176   2.925  0.7117  0.1522 -0.2539
 6837SOL    HW220749   0.234   2.318   2.958  1.0625  0.0320  0.7032
 6838SOL     OW20750   1.346   3.504   3.406 -0.8432 -0.8135  0.2639
 6838SOL    HW120751   1.422   3.485   3.351 -0.8725  0.5842 -0.3112
 6838SOL    HW220752   1.380   3.561   3.475 -1.1627 -1.0745  0.6415
 6839SOL     OW20753   1.954   2.300   4.282 -1.1042 -0.7748 -0.0764
 6839SOL    HW120754   2.040   2.314   4.243 -0.5606  1.7408  1.8272
 6839SOL    HW220755   1.971   2.251   4.362 -1.4798 -0.4796  0.1881
 6840SOL     OW20756   2.812   1.284   5.170  0.1601  0.1408  0.3193
 6840SOL    HW120757   2.718   1.303   5.171 -0.0533 -0.8423 -0.0987
 6840SOL    HW220758   2.818   1.192   5.144  1.2858  0.4360 -0.5277
 6841SOL     OW20759   0.450   1.291   2.162 -0.5120 -0.4016  0.1021
 6841SOL    HW120760   0.387   1.356   2.132 -0.5075 -0.2067  0.5085
 6841SOL    HW220761   0.512   1.283   2.090 -0.4005  0.1985  0.1221
 6842SOL     OW20762   1.609   4.328   5.226 -0.2274  0.0595 -0.7331
 6842SOL    HW120763   1.614   4.406   5.171  2.6671  0.5795  0.0787
 6842SOL    HW220764   1.584   4.258   5.167 -2.5686  1.4909 -1.5591
 6843SOL     OW20765   1.187   0.140   2.518 -0.1624  0.2290  0.4889
 6843SOL    HW120766   1.155   0.079   2.585  0.7710 -0.8493 -0.0066
 6843SOL    HW220767   1.145   0.111   2.437  1.0449 -0.4291  0.0660
 6844SOL     OW20768   6.001   1.744   1.894  0.5168 -0.2105  0.2126
 6844SOL    HW120769   6.068   1.724   1.828 -0.0806 -1.2923 -0.0994
 6844SOL    HW220770   5.948   1.665   1.898  0.8125 -0.3467  2.3514
 6845SOL     OW20771   4.647   3.884   3.575 -0.1411 -0.2048 -0.1534
 6845SOL    HW120772   4.655   3.913   3.666 -2.8924  0.2176  0.0542
 6845SOL    HW220773   4.723   3.921   3.531 -0.2955  2.1808  1.3756
 6846SOL     OW20774   3.657   3.417   4.132  0.2925 -0.2512 -0.0074
 6846SOL    HW120775   3.683   3.374   4.213 -0.9421  1.0403  1.1383
 6846SOL    HW220776   3.565   3.392   4.120 -0.0514  0.9600 -0.0249
 6847SOL     OW20777   5.264   4.395   2.797  0.3080 -0.2557 -0.0201
 6847SOL    HW120778   5.186   4.390   2.743  0.7260 -0.4582 -0.6167
 6847SOL    HW220779   5.309   4.474   2.767 -0.8378  1.2478  1.9492
 6848SOL     OW20780   4.214   3.761   3.776  0.0739 -0.0233  0.7387
 6848SOL    HW120781   4.270   3.788   3.849  0.7798 -1.1366  0.6367
 6848SOL    HW220782   4.266   3.779   3.698  0.3374 -1.0982  0.6466
 6849SOL     OW20783   5.603   2.657   5.988 -0.2797  0.1736 -0.1254
 6849SOL    HW120784   5.534   2.591   5.990  0.9047 -1.1249 -0.2115
 6849SOL    HW220785   5.628   2.668   6.079  0.3360 -0.4304 -0.2061
 6850SOL     OW20786   2.247   5.378   0.720 -0.4738  0.6538 -0.3852
 6850SOL    HW120787   2.183   5.449   0.724 -0.6067  0.4923  0.4683
 6850SOL    HW220788   2.248   5.341   0.808 -0.7420 -0.6986 -0.9196
 6851SOL     OW20789   1.159   2.368   2.212  0.0324  0.5754 -0.4253
 6851SOL    HW120790   1.253   2.378   2.200  0.2729 -0.6073  0.3256
 6851SOL    HW220791   1.120   2.421   2.143  1.2522  0.5677 -1.1445
 6852SOL     OW20792   0.922   1.933   5.601 -0.3451  0.3669 -0.5981
 6852SOL    HW120793   0.849   1.994   5.597 -0.1945  0.5702 -0.2915
 6852SOL    HW220794   0.932   1.913   5.694  0.5523  1.0347 -0.5364
 6853SOL     OW20795   2.239   2.074   1.180  0.4507  0.2287 -0.3881
 6853SOL    HW120796   2.227   2.098   1.088  0.8250  0.5024 -0.3679
 6853SOL    HW220797   2.239   1.978   1.181 -2.6695  0.1062 -0.2843
 6854SOL     OW20798   4.729   4.755   2.256  0.1066  0.6632 -0.3691
 6854SOL    HW120799   4.794   4.685   2.263 -1.0166 -0.5421 -1.5367
 6854SOL    HW220800   4.745   4.795   2.171 -2.5151 -1.6640 -2.1280
 6855SOL     OW20801   1.457   1.565   3.032 -0.1375  0.7311  0.6901
 6855SOL    HW120802   1.382   1.615   3.063 -1.3117 -0.6074  0.0787
 6855SOL    HW220803   1.530   1.598   3.084 -0.9240  2.7681  0.6115
 6856SOL     OW20804   3.705   0.099   3.155  0.5860 -0.0343  0.7889
 6856SOL    HW120805   3.712   0.194   3.147 -0.5694  0.3393  3.1949
 6856SOL    HW220806   3.786   0.065   3.119  1.2741  1.9057  0.4211
 6857SOL     OW20807   0.918   2.217   2.986  0.1043 -0.2451 -0.0581
 6857SOL    HW120808   0.933   2.123   2.995 -0.8449 -0.5186 -1.0308
 6857SOL    HW220809   0.873   2.226   2.902  0.0228  1.0632  0.1008
 6858SOL     OW20810   2.909   3.759   4.271 -0.0607  0.1361  0.7338
 6858SOL    HW120811   2.934   3.760   4.363 -0.4982  2.5761  0.9024
 6858SOL    HW220812   2.971   3.819   4.228 -1.0971  0.6215 -0.1542
 6859SOL     OW20813   2.551   3.427   1.118  0.2470  0.3931  0.4962
 6859SOL    HW120814   2.612   3.411   1.190  0.9655 -1.8709 -0.5448
 6859SOL    HW220815   2.467   3.398   1.151  0.3489  0.4400  0.8026
 6860SOL     OW20816   1.182   3.856   2.795  0.3802 -0.0209 -0.2170
 6860SOL    HW120817   1.238   3.780   2.783  0.9959  0.5470 -1.0122
 6860SOL    HW220818   1.175   3.896   2.708 -0.5928  0.3844  0.0236
 6861SOL     OW20819   1.598   1.829   2.611 -0.0490 -0.1224  0.6109
 6861SOL    HW120820   1.566   1.842   2.701 -2.1325  0.3741 -0.1380
 6861SOL    HW220821   1.574   1.739   2.590  0.0767 -0.1097  0.4184
 6862SOL     OW20822   2.540   0.986   0.219 -0.4110  0.7467  0.3893
 6862SOL    HW120823   2.601   1.052   0.187 -0.6143  0.2256 -1.2176
 6862SOL    HW220824   2.590   0.905   0.218 -0.5987  0.6265  0.8596
 6863SOL     OW20825   2.587   1.135   1.439 -0.2083  0.6538 -0.1525
 6863SOL    HW120826   2.559   1.189   1.514 -0.0262  1.5716 -0.7345
 6863SOL    HW220827   2.578   1.192   1.363  0.0142 -0.1354 -0.7890
 6864SOL     OW20828   0.327   2.373   0.762  0.2440  0.4332 -0.3289
 6864SOL    HW120829   0.261   2.325   0.712  0.9070 -0.4840 -0.3474
 6864SOL    HW220830   0.339   2.321   0.842 -0.7158  1.8075  0.7692
 6865SOL     OW20831   2.323   6.027   4.352  0.2025  0.6776  0.2047
 6865SOL    HW120832   2.374   5.947   4.360  0.7350  0.9201 -0.6522
 6865SOL    HW220833   2.267   6.013   4.276  0.7671  1.3540 -0.3533
 6866SOL     OW20834   2.105   5.445   1.359  0.5434 -0.4141 -0.4369
 6866SOL    HW120835   2.171   5.394   1.311  1.7245  0.8980 -0.2781
 6866SOL    HW220836   2.139   5.535   1.357 -0.8984  0.1654  0.2847
 6867SOL     OW20837   4.885   4.402   2.081  0.6964 -0.3416  0.4265
 6867SOL    HW120838   4.831   4.468   2.037  0.4707 -0.6688  0.2089
 6867SOL    HW220839   4.838   4.320   2.068  0.7053 -0.4663  1.1581
 6868SOL     OW20840   4.502   4.307   3.547  0.1502 -0.1528  0.1449
 6868SOL    HW120841   4.505   4.225   3.498  0.0570 -2.1228  3.1467
 6868SOL    HW220842   4.588   4.314   3.588 -0.0665  0.9292  0.4632
 6869SOL     OW20843   4.962   3.658   5.302  0.1230  0.1641  0.2674
 6869SOL    HW120844   4.979   3.684   5.392  1.0881 -0.6630  0.3453
 6869SOL    HW220845   5.037   3.604   5.278  1.1190  2.3147 -1.8486
 6870SOL     OW20846   2.431   2.050   4.269  0.0731 -0.4065 -0.1523
 6870SOL    HW120847   2.406   2.099   4.348  0.3542  1.1825 -0.9949
 6870SOL    HW220848   2.411   2.111   4.197  2.7110 -0.5777 -1.1150
 6871SOL     OW20849   1.901   3.029   0.200  0.0378 -0.4377  0.5250
 6871SOL    HW120850   1.990   2.993   0.206  0.4244  0.7272  3.3202
 6871SOL    HW220851   1.848   2.956   0.170  1.6857 -1.6511  0.4189
 6872SOL     OW20852   1.165   5.754   1.963  0.1971  0.2685  0.3918
 6872SOL    HW120853   1.084   5.804   1.948 -0.0046 -0.4166 -0.9781
 6872SOL    HW220854   1.143   5.666   1.933  2.0587  0.5349 -2.0741
 6873SOL     OW20855   0.070   2.880   5.200  0.4759  0.5563 -0.2855
 6873SOL    HW120856   0.123   2.921   5.131 -1.2549  2.0338 -0.8151
 6873SOL    HW220857   0.134   2.857   5.268  1.7026  3.6523 -0.2125
 6874SOL     OW20858   0.007   0.549   2.380  0.2701  0.0100  0.1517
 6874SOL    HW120859   0.038   0.635   2.406 -0.0801  0.0543  0.4331
 6874SOL    HW220860   0.086   0.500   2.359  0.4806  0.3460  0.1618
 6875SOL     OW20861   1.428   5.492   2.525 -0.4850 -0.4094 -0.2988
 6875SOL    HW120862   1.393   5.562   2.581  0.1265  1.0791 -1.7101
 6875SOL    HW220863   1.359   5.476   2.461 -0.5846 -1.0604 -0.0370
 6876SOL     OW20864   0.119   4.260   2.039  0.1219  0.7556  0.1280
 6876SOL    HW120865   0.054   4.321   2.076  0.7446 -0.0169  2.6899
 6876SOL    HW220866   0.194   4.267   2.097  0.8445 -1.2499 -0.4834
 6877SOL     OW20867   3.812   2.900   4.448  0.3445 -0.1771  1.0472
 6877SOL    HW120868   3.889   2.865   4.404  0.7365 -0.2568  1.7900
 6877SOL    HW220869   3.738   2.857   4.404  0.5381  1.7327 -1.3744
 6878SOL     OW20870   0.035   1.745   5.504 -0.1850 -0.8714 -0.2757
 6878SOL    HW120871  -0.002   1.811   5.446  0.8239 -0.7990 -0.8386
 6878SOL    HW220872   0.056   1.671   5.447  2.1205 -0.2771 -0.2864
 6879SOL     OW20873   1.902   3.086   1.705 -0.6028 -0.3255 -0.3625
 6879SOL    HW120874   1.954   3.165   1.690  0.4346 -1.0754 -0.8122
 6879SOL    HW220875   1.908   3.037   1.624 -3.5844  0.3750 -1.1468
 6880SOL     OW20876   3.459   0.425   0.070 -0.1685 -0.0805  0.0370
 6880SOL    HW120877   3.463   0.493   0.136  0.6138 -1.1488  1.1201
 6880SOL    HW220878   3.547   0.387   0.068 -0.6756 -1.2945 -0.2842
 6881SOL     OW20879   5.509   5.950   4.812  0.4367 -0.3194  0.0668
 6881SOL    HW120880   5.590   5.958   4.863  0.6483 -1.7706 -0.0020
 6881SOL    HW220881   5.444   5.998   4.863  1.1613  0.2381  0.4974
 6882SOL     OW20882   4.642   0.272   5.030  0.1953 -0.4464 -0.2388
 6882SOL    HW120883   4.666   0.180   5.040  1.1665 -0.1301  0.5152
 6882SOL    HW220884   4.685   0.316   5.103 -1.1910  0.4543  0.0515
 6883SOL     OW20885   0.707   5.369   2.189 -0.6956 -0.1027 -0.1746
 6883SOL    HW120886   0.732   5.348   2.280  0.3616 -2.2353 -0.8820
 6883SOL    HW220887   0.778   5.423   2.156 -0.2562 -0.6760 -0.1904
 6884SOL     OW20888   0.711   3.364   1.350 -0.4865  0.4941  0.3371
 6884SOL    HW120889   0.692   3.315   1.430 -1.1502 -0.5001 -0.4102
 6884SOL    HW220890   0.752   3.445   1.381 -0.8207  0.1732  1.6837
 6885SOL     OW20891   3.066   1.367   5.985  0.3970 -0.1146 -0.2963
 6885SOL    HW120892   3.110   1.285   6.006  1.2346  0.6243  0.9407
 6885SOL    HW220893   3.019   1.390   6.065 -0.2487  0.3595 -0.8007
 6886SOL     OW20894   4.884   1.566   4.186  0.2296  0.5278 -0.3454
 6886SOL    HW120895   4.941   1.609   4.122 -0.9771 -1.4942 -2.9779
 6886SOL    HW220896   4.922   1.479   4.197 -0.8899  0.0483 -0.1470
 6887SOL     OW20897   2.410   5.199   2.621 -0.8231 -0.0690 -0.2526
 6887SOL    HW120898   2.416   5.153   2.537  1.3526 -1.7839  0.7395
 6887SOL    HW220899   2.441   5.288   2.603 -0.0259 -0.5276 -1.2172
 6888SOL     OW20900   1.176   2.042   3.071 -0.1670 -0.1832 -0.3901
 6888SOL    HW120901   1.103   2.021   3.012  0.0734 -1.2865 -0.3043
 6888SOL    HW220902   1.134   2.053   3.156 -0.1952 -1.2344 -0.2585
 6889SOL     OW20903   4.446   3.401   4.314  0.3541 -0.4057  0.2602
 6889SOL    HW120904   4.529   3.435   4.347  1.1101 -1.9949  0.0391
 6889SOL    HW220905   4.455   3.403   4.219  0.0955 -0.5041  0.2326
 6890SOL     OW20906   3.141   4.050   4.433 -0.3700  0.0371 -0.3263
 6890SOL    HW120907   3.177   3.963   4.451  0.4430  0.4021 -0.1296
 6890SOL    HW220908   3.186   4.107   4.494 -0.1569  0.7544 -1.1416
 6891SOL     OW20909   2.959   3.547   5.707  0.2889 -0.3881  0.3569
 6891SOL    HW120910   2.900   3.547   5.631  0.4658  0.5399  0.2012
 6891SOL    HW220911   2.997   3.635   5.707 -0.2964 -0.0868  1.9754
 6892SOL     OW20912   2.179   2.685   3.858  0.3229  0.6142  0.1908
 6892SOL    HW120913   2.229   2.741   3.917 -0.0406  1.3770 -0.2001
 6892SOL    HW220914   2.121   2.746   3.812  0.5329  0.0315 -0.8818
 6893SOL     OW20915   1.991   0.220   4.641  0.4312  0.5694 -0.6747
 6893SOL    HW120916   1.963   0.298   4.593  0.6421  0.3563 -1.1583
 6893SOL    HW220917   2.063   0.185   4.588  1.6090  1.1067  0.5356
 6894SOL     OW20918   0.712   0.677   0.878  0.2376  0.1540  0.0379
 6894SOL    HW120919   0.735   0.768   0.861 -1.3313  0.4322 -0.7110
 6894SOL    HW220920   0.714   0.670   0.974 -0.2808  1.1730  0.1413
 6895SOL     OW20921   0.435   1.510   1.167 -0.0611 -0.1118  0.1987
 6895SOL    HW120922   0.363   1.556   1.124  1.2608  0.7933 -1.1268
 6895SOL    HW220923   0.438   1.425   1.123  0.4153  0.2963 -0.5790
 6896SOL     OW20924   3.525   0.389   2.401 -0.0105  0.0432 -0.1415
 6896SOL    HW120925   3.500   0.453   2.468 -1.5976 -0.9553  0.2727
 6896SOL    HW220926   3.443   0.348   2.374  0.8789 -1.3728 -0.8633
 6897SOL     OW20927   2.776   3.621   0.656 -1.0248  0.6447  0.0807
 6897SOL    HW120928   2.810   3.573   0.580 -1.1504  0.5463  0.0866
 6897SOL    HW220929   2.752   3.706   0.621 -1.4661  0.4602 -0.0750
 6898SOL     OW20930   6.098   0.618   1.020  0.3720 -0.2200 -0.1898
 6898SOL    HW120931   6.097   0.598   0.927 -0.8588  1.1303 -0.4908
 6898SOL    HW220932   6.135   0.706   1.026 -0.1854 -0.0275  0.5412
 6899SOL     OW20933   2.797   1.132   5.536 -0.2731 -0.1948 -0.5011
 6899SOL    HW120934   2.883   1.170   5.520 -0.2972 -0.5286 -1.5097
 6899SOL    HW220935   2.790   1.127   5.631  1.3998 -1.4511 -0.4032
 6900SOL     OW20936   5.981   5.128   4.798 -0.0817  0.1588  0.8999
 6900SOL    HW120937   5.890   5.110   4.776  0.5978 -3.0792  0.3553
 6900SOL    HW220938   6.002   5.208   4.749 -2.4580  0.7607  0.7305
 6901SOL     OW20939   2.473   4.770   1.222  0.1715  0.0751 -0.1548
 6901SOL    HW120940   2.388   4.811   1.213  0.2850  0.2295 -0.5432
 6901SOL    HW220941   2.525   4.806   1.151  0.6746  0.2624  0.2977
 6902SOL     OW20942   4.334   3.559   5.212 -0.7874  0.2897 -0.2562
 6902SOL    HW120943   4.400   3.616   5.173  0.5568 -1.3577 -0.5062
 6902SOL    HW220944   4.364   3.547   5.302  0.5100 -2.1269 -0.9289
 6903SOL     OW20945   1.653   5.174   3.961 -0.4612  0.0366  0.1315
 6903SOL    HW120946   1.584   5.234   3.934  0.7136  1.0046 -0.8482
 6903SOL    HW220947   1.705   5.224   4.024  0.9643  0.3701 -1.2474
 6904SOL     OW20948   1.769   0.318   1.911  0.7559 -0.4972 -0.0688
 6904SOL    HW120949   1.788   0.226   1.891 -0.0775 -0.7136  0.1150
 6904SOL    HW220950   1.682   0.334   1.874  1.1793  0.4252 -0.7185
 6905SOL     OW20951   6.129   4.479   0.992  0.0010 -0.0922  0.2340
 6905SOL    HW120952   6.214   4.438   1.004  1.9624  3.2206 -1.1793
 6905SOL    HW220953   6.126   4.504   0.900 -1.8214  1.3085  0.6081
 6906SOL     OW20954   5.471   2.012   5.886 -0.8830  0.7338 -0.0234
 6906SOL    HW120955   5.477   1.941   5.950  1.0933  1.1370  0.3121
 6906SOL    HW220956   5.486   2.092   5.937  0.8675  1.0527 -0.9263
 6907SOL     OW20957   3.866   1.468   4.410 -0.1415 -0.3170  0.0634
 6907SOL    HW120958   3.938   1.467   4.346 -0.2222  1.3814 -0.1150
 6907SOL    HW220959   3.908   1.450   4.494  0.3578 -0.1518 -0.1473
 6908SOL     OW20960   1.168   1.015   5.716  0.1447  0.0254 -0.0794
 6908SOL    HW120961   1.263   1.017   5.706 -0.0358  0.9024 -1.8931
 6908SOL    HW220962   1.135   0.984   5.632 -1.1985 -0.2383  0.5126
 6909SOL     OW20963   4.201   5.824   5.129 -0.4010  0.1035 -0.2384
 6909SOL    HW120964   4.296   5.818   5.117 -0.5566  0.1708 -1.6273
 6909SOL    HW220965   4.187   5.913   5.160 -0.2667  1.4117 -3.4921
 6910SOL     OW20966   1.942   0.479   5.090 -0.1574  0.4358 -0.4350
 6910SOL    HW120967   1.955   0.480   5.185  0.8324  3.3058 -0.4937
 6910SOL    HW220968   1.847   0.485   5.079 -0.2951 -0.2095  0.3635
 6911SOL     OW20969   4.663   2.836   2.921  0.5916 -0.4448  0.5958
 6911SOL    HW120970   4.653   2.747   2.888  1.0916  0.2204 -1.5085
 6911SOL    HW220971   4.605   2.889   2.867  1.2546  0.6821  0.9517
 6912SOL     OW20972   3.710   0.083   4.577 -0.3651 -0.2850  0.0915
 6912SOL    HW120973   3.773   0.148   4.545  1.2720 -1.7965  0.0842
 6912SOL    HW220974   3.727   0.005   4.524 -3.1127 -0.4216 -0.7326
 6913SOL     OW20975   2.857   1.026   5.104 -0.7635 -0.0075 -0.7356
 6913SOL    HW120976   2.785   0.972   5.073  0.2292 -2.7039  1.2062
 6913SOL    HW220977   2.928   1.009   5.042 -0.7290 -0.2553 -0.6306
 6914SOL     OW20978   4.636   2.767   5.274  0.7180 -0.1263 -0.6772
 6914SOL    HW120979   4.571   2.836   5.277  1.1444  0.3427 -1.7330
 6914SOL    HW220980   4.622   2.717   5.355 -1.1260 -0.2198 -1.0034
 6915SOL     OW20981   2.858   0.833   5.907 -0.6908  0.0128 -0.4167
 6915SOL    HW120982   2.822   0.747   5.885 -0.1195 -0.7877  1.5509
 6915SOL    HW220983   2.941   0.838   5.859 -0.2840 -0.9325  0.1814
 6916SOL     OW20984   2.933   3.400   1.059 -0.0849 -0.0153  0.9721
 6916SOL    HW120985   2.939   3.482   1.108 -2.3710  1.2169 -0.6749
 6916SOL    HW220986   2.861   3.412   0.998  0.8617 -2.4922 -0.8419
 6917SOL     OW20987   3.021   5.025   2.778  0.0233  0.1722  0.3096
 6917SOL    HW120988   3.082   5.095   2.758 -0.5517  0.5509 -0.1772
 6917SOL    HW220989   2.938   5.053   2.738 -0.0119 -1.1691 -0.6260
 6918SOL     OW20990   1.488   2.653   0.619 -0.4680 -0.1144  0.3675
 6918SOL    HW120991   1.452   2.604   0.545 -1.0270  0.3599  0.3156
 6918SOL    HW220992   1.534   2.726   0.579  0.9859 -0.9704  0.4135
 6919SOL     OW20993   0.993   3.313   3.787  0.0735 -0.3086 -0.1718
 6919SOL    HW120994   0.969   3.220   3.791  4.8085 -1.7712  0.2228
 6919SOL    HW220995   1.014   3.336   3.877 -0.8119  1.1450 -0.3112
 6920SOL     OW20996   4.289   2.359   0.636  0.0828 -0.1285 -0.1524
 6920SOL    HW120997   4.375   2.398   0.618  0.5188 -1.7917 -2.0822
 6920SOL    HW220998   4.294   2.330   0.727  1.8563 -0.8062 -0.4299
 6921SOL     OW20999   4.037   3.527   0.573  0.4976 -0.5392 -0.7368
 6921SOL    HW121000   4.059   3.609   0.617  0.8202 -0.6413 -0.7024
 6921SOL    HW221001   3.989   3.554   0.495 -0.7929 -0.3922  0.0819
 6922SOL     OW21002   1.550   5.081   0.444 -0.4963  0.2227 -0.4875
 6922SOL    HW121003   1.465   5.122   0.427 -0.6865 -0.4408 -1.2269
 6922SOL    HW221004   1.579   5.118   0.527 -0.7338  1.7046 -1.0430
 6923SOL     OW21005   3.874   2.028   0.031  0.4266 -0.0625  0.2341
 6923SOL    HW121006   3.795   2.070   0.065  1.1810  1.0712  0.6481
 6923SOL    HW221007   3.862   1.935   0.049  0.0636  0.3164  2.0823
 6924SOL     OW21008   5.015   3.780   4.549 -0.1914  0.2228  0.2870
 6924SOL    HW121009   5.102   3.754   4.519  0.3195  1.2952  0.7918
 6924SOL    HW221010   5.029   3.864   4.593 -1.6026  0.7504 -0.2371
 6925SOL     OW21011   4.662   3.640   5.664  0.0838 -0.0669  0.6620
 6925SOL    HW121012   4.685   3.599   5.747  0.3317 -0.2629  0.4954
 6925SOL    HW221013   4.746   3.670   5.628 -0.2003  1.9044  1.4702
 6926SOL     OW21014   5.755   5.922   4.956 -0.5163 -0.0215  0.2059
 6926SOL    HW121015   5.776   5.876   5.038 -2.6063 -1.7687 -0.1477
 6926SOL    HW221016   5.836   5.967   4.932  0.0935  0.7865  3.3593
 6927SOL     OW21017   1.116   2.489   2.708 -0.4478 -0.3715  0.0080
 6927SOL    HW121018   1.138   2.581   2.690 -1.3959  0.0780  1.0167
 6927SOL    HW221019   1.165   2.439   2.643  1.5298  0.7230  0.5782
 6928SOL     OW21020   5.705   2.442   2.588 -0.2736 -0.1093  0.3441
 6928SOL    HW121021   5.684   2.470   2.498 -1.0173 -0.5022  0.3822
 6928SOL    HW221022   5.727   2.349   2.579  0.0390 -0.0519  0.5163
 6929SOL     OW21023   1.514   4.232   4.531 -0.1412 -0.2407  0.1695
 6929SOL    HW121024   1.429   4.188   4.521  0.2103 -0.8647 -0.1414
 6929SOL    HW221025   1.512   4.305   4.470 -1.0182  0.6444  1.2032
 6930SOL     OW21026   2.286   3.511   2.125 -0.1971  0.2218  0.5062
 6930SOL    HW121027   2.318   3.590   2.167 -1.1520  1.0811 -0.3386
 6930SOL    HW221028   2.275   3.534   2.033  0.5599 -1.2299  0.0123
 6931SOL     OW21029   3.901   2.113   1.677 -0.4606 -0.1638  0.0010
 6931SOL    HW121030   3.882   2.159   1.758  0.0499 -0.2278  0.1610
 6931SOL    HW221031   3.985   2.070   1.693  0.5305  1.2434 -1.1333
 6932SOL     OW21032   4.825   1.309   2.216 -0.1259 -0.2627 -0.4846
 6932SOL    HW121033   4.877   1.260   2.279 -1.2454 -0.5078  0.2603
 6932SOL    HW221034   4.890   1.350   2.158  0.8537 -1.3700 -0.1908
 6933SOL     OW21035   1.233   1.766   0.468  0.0256  0.1312  0.1055
 6933SOL    HW121036   1.230   1.739   0.560 -0.6457  2.7216  0.9437
 6933SOL    HW221037   1.153   1.730   0.430 -0.7704  0.7633  1.1164
 6934SOL     OW21038   1.875   1.272   4.275  0.4638  0.2639  0.3420
 6934SOL    HW121039   1.963   1.243   4.299 -0.2070 -1.4832  0.8725
 6934SOL    HW221040   1.826   1.270   4.358 -0.4468 -0.3189 -0.1843
 6935SOL     OW21041   4.250   4.226   0.382  0.6616  0.2501 -0.6061
 6935SOL    HW121042   4.323   4.268   0.427 -0.0270  0.9625 -0.1371
 6935SOL    HW221043   4.284   4.208   0.294  1.1986  1.1452 -0.5946
 6936SOL     OW21044   4.901   5.265   2.005 -0.1741 -0.1817  0.2088
 6936SOL    HW121045   4.967   5.209   2.045  0.4397 -0.9509 -1.7784
 6936SOL    HW221046   4.950   5.339   1.969 -0.9455  1.6243  2.6077
 6937SOL     OW21047   1.367   5.818   4.433 -0.1121 -0.0583 -0.2947
 6937SOL    HW121048   1.384   5.775   4.517  1.9324  1.4269  0.1221
 6937SOL    HW221049   1.284   5.864   4.446 -0.5795 -1.0617  0.3857
 6938SOL     OW21050   0.513   4.778   2.812 -0.0713  0.8038 -0.1349
 6938SOL    HW121051   0.568   4.700   2.811 -1.5450 -0.2924  0.2410
 6938SOL    HW221052   0.446   4.760   2.746 -1.3311  1.0360  1.0480
 6939SOL     OW21053   4.688   2.689   2.521 -0.7329 -0.1962 -0.1040
 6939SOL    HW121054   4.624   2.663   2.455 -1.1983 -1.3293  0.7510
 6939SOL    HW221055   4.720   2.775   2.492 -1.1260 -0.5352 -1.6288
 6940SOL     OW21056   1.877   3.945   4.296  0.4165 -0.0183 -0.5961
 6940SOL    HW121057   1.926   3.979   4.371  1.7246 -0.5424 -1.1828
 6940SOL    HW221058   1.828   3.871   4.332  0.2765  0.3284 -0.0582
 6941SOL     OW21059   3.982   1.678   0.863  0.4861  0.3900  0.4035
 6941SOL    HW121060   3.959   1.592   0.828  0.9357  0.6619 -0.6152
 6941SOL    HW221061   4.037   1.717   0.794  1.5930  0.8646  1.5181
 6942SOL     OW21062   1.603   0.779   4.055  0.1495 -0.4639 -0.0254
 6942SOL    HW121063   1.518   0.758   4.018  0.2604 -1.4592  0.2802
 6942SOL    HW221064   1.652   0.697   4.053  0.3186 -0.4441  1.9253
 6943SOL     OW21065   3.208   0.345   3.345  0.2974 -0.2029  0.3930
 6943SOL    HW121066   3.221   0.420   3.286 -1.3407  0.0577  0.3306
 6943SOL    HW221067   3.204   0.384   3.432 -2.1938  0.0565  0.2398
 6944SOL     OW21068   4.779   4.695   5.784 -0.4543 -0.4647 -0.2689
 6944SOL    HW121069   4.853   4.700   5.723  1.0303  1.6922  1.5298
 6944SOL    HW221070   4.714   4.641   5.739  1.6808 -1.3616 -2.4909
 6945SOL     OW21071   2.934   0.972   6.143  0.0479 -0.1071 -0.1145
 6945SOL    HW121072   2.890   0.946   6.061 -0.5056  1.8813 -0.5011
 6945SOL    HW221073   3.019   1.007   6.115 -0.1951  0.7001  0.1194
 6946SOL     OW21074   3.754   1.279   1.713 -0.1105  0.5263 -0.3950
 6946SOL    HW121075   3.715   1.193   1.697  0.5610  0.2688 -0.6775
 6946SOL    HW221076   3.834   1.260   1.762  0.4125  0.9292 -1.0824
 6947SOL     OW21077   2.414   1.705   3.440  0.1201 -0.1785  0.4331
 6947SOL    HW121078   2.446   1.645   3.507  0.6605  0.5132  0.8105
 6947SOL    HW221079   2.483   1.705   3.374  0.4545  0.5558  0.7723
 6948SOL     OW21080   2.664   0.302   0.970 -0.2690  0.5373 -0.1289
 6948SOL    HW121081   2.588   0.333   1.021  1.3240  0.8609  2.2265
 6948SOL    HW221082   2.719   0.379   0.960 -0.6250  0.5236 -2.6667
 6949SOL     OW21083   4.527   2.453   0.575 -0.1545  0.0648  0.3599
 6949SOL    HW121084   4.583   2.379   0.550 -2.6155 -1.3421 -1.5039
 6949SOL    HW221085   4.534   2.514   0.502 -0.4411  0.2460  0.4835
 6950SOL     OW21086   1.915   5.205   1.153 -0.0167 -0.0804  0.1930
 6950SOL    HW121087   1.841   5.250   1.193 -1.4428 -1.9381 -0.2193
 6950SOL    HW221088   1.942   5.262   1.081  0.9883  2.1032  2.1645
 6951SOL     OW21089   3.798   0.830   2.731 -0.9316  0.0846  1.3416
 6951SOL    HW121090   3.723   0.844   2.673  2.1847  1.0969 -3.0063
 6951SOL    HW221091   3.810   0.735   2.732  0.4258  0.0908 -2.1559
 6952SOL     OW21092   4.391   3.709   1.530  0.7380 -0.2585  0.0075
 6952SOL    HW121093   4.331   3.710   1.605 -0.9731  0.2383 -1.3197
 6952SOL    HW221094   4.351   3.648   1.468  0.6883  1.3246 -1.5955
 6953SOL     OW21095   3.173   3.447   4.961 -0.5284 -0.3082 -0.0850
 6953SOL    HW121096   3.151   3.424   5.051 -1.1333 -0.3755 -0.2446
 6953SOL    HW221097   3.090   3.477   4.923 -0.5432 -1.4420 -0.9739
 6954SOL     OW21098   6.062   1.196   5.091  0.2096 -0.3496  0.2397
 6954SOL    HW121099   5.968   1.203   5.077  0.4001  1.3758 -0.5162
 6954SOL    HW221100   6.100   1.208   5.004  1.1499  0.3127  0.7209
 6955SOL     OW21101   1.055   0.103   5.907  0.2350 -0.4956  0.2155
 6955SOL    HW121102   1.058   0.168   5.978 -0.8163  0.0638 -0.2235
 6955SOL    HW221103   0.971   0.119   5.864  0.3904 -1.5251 -0.5094
 6956SOL     OW21104   3.731   4.400   5.191  0.0105  0.6364  0.3170
 6956SOL    HW121105   3.819   4.431   5.169  0.1474 -0.4634 -0.8053
 6956SOL    HW221106   3.672   4.464   5.152  0.2968  1.3665  1.0566
 6957SOL     OW21107   4.446   4.177   4.753 -0.1408  0.4170 -0.1005
 6957SOL    HW121108   4.394   4.209   4.679  1.9113  1.1033 -1.3178
 6957SOL    HW221109   4.534   4.164   4.717  0.5814 -0.5964  1.8979
 6958SOL     OW21110   3.472   5.770   5.347 -0.2862  0.2389  0.5695
 6958SOL    HW121111   3.436   5.773   5.435 -1.0292 -0.7487  0.3112
 6958SOL    HW221112   3.510   5.683   5.339 -0.4026  0.2427 -0.1571
 6959SOL     OW21113   4.461   3.104   5.444  0.6937 -0.1765 -0.2552
 6959SOL    HW121114   4.403   3.102   5.368  0.2629 -1.7314  0.0727
 6959SOL    HW221115   4.523   3.175   5.426 -1.4178  1.7099 -0.5178
 6960SOL     OW21116   1.042   0.658   3.263 -0.1464 -0.3533  0.4961
 6960SOL    HW121117   1.007   0.747   3.259 -0.7309 -0.6194 -1.1580
 6960SOL    HW221118   0.973   0.608   3.307 -0.4893 -0.2689  0.0644
 6961SOL     OW21119   3.685   3.589   0.667  0.8481 -0.5699 -0.3727
 6961SOL    HW121120   3.722   3.622   0.585  1.8433  2.4726  1.1637
 6961SOL    HW221121   3.591   3.587   0.651  1.0610 -0.7422 -1.7909
 6962SOL     OW21122   5.225   4.109   4.085 -0.1858 -0.1087 -0.2684
 6962SOL    HW121123   5.156   4.122   4.150 -0.2222 -1.3482 -0.0265
 6962SOL    HW221124   5.306   4.121   4.134 -0.2060 -1.3888  0.1237
 6963SOL     OW21125   3.281   5.576   3.915 -0.2251 -0.0639 -0.4146
 6963SOL    HW121126   3.235   5.545   3.837 -1.0155 -0.5121  0.2117
 6963SOL    HW221127   3.254   5.667   3.924  0.8651  0.3747 -1.3678
 6964SOL     OW21128   0.857   4.890   0.083 -0.3257 -0.0344 -0.5433
 6964SOL    HW121129   0.933   4.884   0.025  1.0821  2.1425  0.9244
 6964SOL    HW221130   0.890   4.863   0.168 -1.4441  0.1774 -0.0256
 6965SOL     OW21131   3.939   2.895   1.219 -0.3570 -0.1307 -0.4352
 6965SOL    HW121132   4.007   2.962   1.223  1.6694 -2.0644 -0.1963
 6965SOL    HW221133   3.938   2.867   1.128  0.6580 -1.4727 -0.0702
 6966SOL     OW21134   2.615   1.268   5.378 -0.2224 -0.3935 -0.4263
 6966SOL    HW121135   2.555   1.194   5.379 -1.2092  0.3817  1.0005
 6966SOL    HW221136   2.691   1.238   5.428  0.2664 -1.1092 -1.5720
 6967SOL     OW21137   4.681   3.172   1.606  0.0638 -0.5966 -0.0164
 6967SOL    HW121138   4.734   3.183   1.686  0.5554 -0.8211 -0.3065
 6967SOL    HW221139   4.723   3.229   1.542  0.0961 -0.9548 -0.3164
 6968SOL     OW21140   2.885   4.688   1.863  0.8220  0.4566  0.7065
 6968SOL    HW121141   2.929   4.772   1.875  1.0233  0.6346 -1.0467
 6968SOL    HW221142   2.911   4.659   1.776  1.1276 -1.6736  1.4368
 6969SOL     OW21143   4.152   6.076   5.221 -0.1002  0.4807  0.8469
 6969SOL    HW121144   4.201   6.141   5.271 -1.5834  0.7191  2.0821
 6969SOL    HW221145   4.095   6.128   5.163 -0.1157  0.2469  0.6493
 6970SOL     OW21146   1.062   3.719   0.021 -0.5604  0.2907  0.2960
 6970SOL    HW121147   1.085   3.746  -0.068  2.4191 -2.9656 -0.1620
 6970SOL    HW221148   1.144   3.729   0.071 -0.5546 -2.9683  1.1853
 6971SOL     OW21149   1.048   1.663   2.986 -0.2916 -0.6597 -0.1846
 6971SOL    HW121150   0.966   1.709   2.970  0.0395 -0.6448 -2.2107
 6971SOL    HW221151   1.063   1.671   3.080 -1.9338  0.4697  0.0219
 6972SOL     OW21152   4.253   2.856   2.706  0.3033  0.3098  0.3456
 6972SOL    HW121153   4.168   2.895   2.726 -1.3537 -1.1965 -3.0775
 6972SOL    HW221154   4.242   2.763   2.727  0.8805 -0.0077 -0.7086
 6973SOL     OW21155   0.189   5.436   3.785  0.1951  0.2230 -0.0179
 6973SOL    HW121156   0.117   5.404   3.731  0.8528 -0.5930 -0.4248
 6973SOL    HW221157   0.148   5.457   3.869 -0.4758 -0.4695 -0.1619
 6974SOL     OW21158   0.147   0.283   5.266 -0.6029 -0.1993 -0.2078
 6974SOL    HW121159   0.235   0.257   5.238 -1.2013 -3.8219  0.7200
 6974SOL    HW221160   0.100   0.201   5.275 -4.1660  1.5994 -0.6649
 6975SOL     OW21161   3.862   1.747   0.032  0.1566  0.3399  0.5268
 6975SOL    HW121162   3.923   1.678   0.058  1.1445  1.7324  2.0904
 6975SOL    HW221163   3.777   1.716   0.063  0.4145 -0.5942  0.3342
 6976SOL     OW21164   0.592   1.738   5.984 -0.0174 -0.0346  0.0735
 6976SOL    HW121165   0.616   1.667   6.042 -0.1116  0.2911  0.5144
 6976SOL    HW221166   0.562   1.695   5.904 -0.1835 -0.4896  0.3789
 6977SOL     OW21167   2.850   3.431   3.913 -0.1560  0.1368 -0.4072
 6977SOL    HW121168   2.870   3.414   3.820 -0.4961 -1.4060 -0.2243
 6977SOL    HW221169   2.891   3.515   3.931 -0.1107  0.4851 -1.9729
 6978SOL     OW21170   4.110   5.057   1.323 -0.0195  0.5081  0.0546
 6978SOL    HW121171   4.179   4.994   1.299 -0.6716 -0.2422  0.0876
 6978SOL    HW221172   4.069   5.019   1.400 -1.7003 -0.0545 -1.0492
 6979SOL     OW21173   4.831   3.428   3.983  0.6042 -0.2774  0.1922
 6979SOL    HW121174   4.833   3.380   4.065  0.5241  0.6699  0.7681
 6979SOL    HW221175   4.782   3.372   3.923 -0.6125 -0.3432  1.2137
 6980SOL     OW21176   4.438   4.917   0.671  0.4386 -0.2712 -0.0842
 6980SOL    HW121177   4.356   4.869   0.687 -0.4759  0.9946 -0.7570
 6980SOL    HW221178   4.507   4.851   0.681 -0.6589 -1.3866  0.4492
 6981SOL     OW21179   2.857   0.631   1.898 -0.3201  0.4433  0.2019
 6981SOL    HW121180   2.941   0.651   1.857 -0.0192 -1.6922 -0.3409
 6981SOL    HW221181   2.863   0.671   1.985  1.1014  0.6703  0.0188
 6982SOL     OW21182   0.571   1.072   2.318  0.3342  0.2080  0.1016
 6982SOL    HW121183   0.526   1.129   2.255  1.7713 -0.8144 -1.9635
 6982SOL    HW221184   0.503   1.012   2.349 -1.0186  2.4053  1.6929
 6983SOL     OW21185   3.850   3.721   0.850  0.4040  0.0654  0.2587
 6983SOL    HW121186   3.802   3.658   0.796 -0.3372  0.4055  0.5063
 6983SOL    HW221187   3.803   3.803   0.839  1.4081  0.6109 -0.1186
 6984SOL     OW21188   5.326   1.436   4.805  0.2667  0.2999  0.8236
 6984SOL    HW121189   5.315   1.363   4.744 -0.4677  1.0237  0.0730
 6984SOL    HW221190   5.408   1.478   4.778 -0.5971  1.2646 -0.3823
 6985SOL     OW21191   0.092   4.330   1.475  0.9607  0.4860 -0.2059
 6985SOL    HW121192   0.043   4.272   1.533  2.3771  0.2955  0.8549
 6985SOL    HW221193   0.091   4.415   1.520 -0.7925  1.2767 -1.5735
 6986SOL     OW21194   2.541   3.093   1.319  0.0933  0.3676  0.1697
 6986SOL    HW121195   2.544   3.133   1.232  0.0538  0.7767  0.3540
 6986SOL    HW221196   2.605   3.143   1.370 -2.3913  2.5585  1.3950
 6987SOL     OW21197   4.381   3.536   3.284  0.1846 -0.2003 -0.5195
 6987SOL    HW121198   4.345   3.576   3.363 -0.9610 -0.4739 -0.8891
 6987SOL    HW221199   4.476   3.539   3.297  0.2002  2.8653 -0.6326
 6988SOL     OW21200   0.957   4.258   3.527  0.6413 -0.5078 -0.2142
 6988SOL    HW121201   0.971   4.217   3.613 -0.2470 -0.3592  0.0135
 6988SOL    HW221202   0.885   4.208   3.489 -0.0061  0.4211 -0.2159
 6989SOL     OW21203   1.810   4.684   0.520  0.2591 -0.1818 -0.1817
 6989SOL    HW121204   1.776   4.735   0.446 -0.6230 -0.0849  0.2751
 6989SOL    HW221205   1.902   4.708   0.525  0.2726  0.0136 -1.0828
 6990SOL     OW21206   3.613   5.223   3.495  0.7704 -0.3766 -0.0855
 6990SOL    HW121207   3.697   5.255   3.526  0.2216  1.3212 -0.2518
 6990SOL    HW221208   3.600   5.266   3.411 -0.7853  0.3369  0.4759
 6991SOL     OW21209   4.083   1.828   2.150 -0.5457  0.0535  0.3803
 6991SOL    HW121210   4.178   1.815   2.141 -0.2928  1.4721  0.8153
 6991SOL    HW221211   4.047   1.793   2.069  0.4134  0.1469 -0.1048
 6992SOL     OW21212   3.336   2.883   2.839 -0.6314  0.6812 -0.2656
 6992SOL    HW121213   3.272   2.813   2.857 -0.1641  0.4516  0.5487
 6992SOL    HW221214   3.385   2.851   2.763  1.1037 -1.0002  1.4343
 6993SOL     OW21215   3.237   2.465   4.014  0.1524  0.3377  0.3094
 6993SOL    HW121216   3.211   2.507   4.096 -0.4981  1.0274 -0.2437
 6993SOL    HW221217   3.220   2.372   4.029  1.7758  0.2044  1.6046
 6994SOL     OW21218   6.037   3.001   3.692 -0.1434  0.2538  0.0430
 6994SOL    HW121219   6.000   3.018   3.605 -1.1899 -0.4861  0.3266
 6994SOL    HW221220   6.029   3.085   3.737 -1.2418  0.1891  0.0001
 6995SOL     OW21221   3.210   0.357   1.530  0.6622 -0.0259 -0.2165
 6995SOL    HW121222   3.297   0.320   1.546  0.5754  0.1893  0.8324
 6995SOL    HW221223   3.209   0.375   1.436  1.4892 -0.6835 -0.3719
 6996SOL     OW21224   2.524   2.028   3.437 -0.3640  0.1387 -0.1053
 6996SOL    HW121225   2.518   1.966   3.364  0.4564 -0.6939  0.5102
 6996SOL    HW221226   2.467   1.992   3.504  1.0041 -0.6226  0.6997
 6997SOL     OW21227   3.810   1.991   4.837 -0.1737  1.2310 -0.4092
 6997SOL    HW121228   3.878   1.946   4.787  0.2290 -0.7526  1.7495
 6997SOL    HW221229   3.845   2.079   4.851  1.2061  0.7764 -0.7950
 6998SOL     OW21230   6.019   1.524   3.834  0.5517 -0.0477  0.5012
 6998SOL    HW121231   6.012   1.534   3.739 -1.5320 -2.3774  0.3027
 6998SOL    HW221232   6.046   1.610   3.866  0.4418  1.0299 -2.1128
 6999SOL     OW21233   1.863   1.682   2.202 -0.0512 -0.3107 -0.0857
 6999SOL    HW121234   1.861   1.699   2.108 -0.7211 -0.9358 -0.2025
 6999SOL    HW221235   1.920   1.606   2.212 -0.6212 -0.7546 -0.0956
 7000SOL     OW21236   3.811   3.812   2.488 -0.4695  0.5947  0.4286
 7000SOL    HW121237   3.884   3.752   2.503 -0.9083 -0.1923 -0.4522
 7000SOL    HW221238   3.843   3.897   2.518  1.3772  0.5835 -1.2879
 7001SOL     OW21239   5.109   5.917   0.363 -0.0501 -0.2110  0.0821
 7001SOL    HW121240   5.107   5.926   0.458 -0.3083 -0.4585  0.1002
 7001SOL    HW221241   5.070   5.998   0.331  1.5826  0.6474  0.1343
 7002SOL     OW21242   1.755   1.947   4.802  0.2206 -0.0109  0.3269
 7002SOL    HW121243   1.668   1.983   4.817 -0.6543 -1.5895 -0.6960
 7002SOL    HW221244   1.745   1.853   4.813  1.8967 -0.2025  0.5686
 7003SOL     OW21245   1.775   3.212   5.615 -0.2612  0.4397  0.0221
 7003SOL    HW121246   1.687   3.201   5.651 -0.5565  0.2188 -0.7468
 7003SOL    HW221247   1.830   3.230   5.691 -1.1703  1.8158  0.3958
 7004SOL     OW21248   2.939   0.071   3.315  0.0464  0.2245  0.1276
 7004SOL    HW121249   2.906  -0.008   3.272  1.0316  0.2556 -0.7150
 7004SOL    HW221250   2.866   0.133   3.310 -0.0518  0.0369 -1.0033
 7005SOL     OW21251   4.985   1.713   4.807 -0.1061 -0.0550 -0.3549
 7005SOL    HW121252   4.937   1.788   4.774 -0.2468 -1.3221 -3.3221
 7005SOL    HW221253   4.918   1.651   4.835 -0.0427  0.0277 -0.0072
 7006SOL     OW21254   1.244   3.728   3.773 -0.1565 -0.3187  0.4146
 7006SOL    HW121255   1.257   3.658   3.836  0.3585 -0.0810  0.5754
 7006SOL    HW221256   1.176   3.695   3.714  0.5642 -1.2326  0.0731
 7007SOL     OW21257   1.876   5.669   1.335 -0.3656  0.1644 -0.0215
 7007SOL    HW121258   1.965   5.692   1.363 -0.6643  0.8760  0.3651
 7007SOL    HW221259   1.851   5.740   1.276 -0.8099  0.1398  0.1391
 7008SOL     OW21260   1.151   1.811   3.505  0.2205  0.4842  0.0363
 7008SOL    HW121261   1.138   1.855   3.589 -0.0807  2.1771 -0.8663
 7008SOL    HW221262   1.246   1.812   3.492  0.3386 -0.4617  0.6720
 7009SOL     OW21263   4.800   3.111   3.989 -0.1205 -0.3225 -0.2725
 7009SOL    HW121264   4.781   3.033   4.041  1.6389  0.2112  1.3012
 7009SOL    HW221265   4.734   3.111   3.920 -2.1311 -1.4807  1.5325
 7010SOL     OW21266   3.550   4.640   4.090 -0.1825  0.3534 -0.2180
 7010SOL    HW121267   3.493   4.696   4.037 -0.9366 -0.6522 -0.4872
 7010SOL    HW221268   3.494   4.568   4.118  0.5912  0.0910  0.7196
 7011SOL     OW21269   0.485   2.667   3.570  0.3948 -0.1215  0.1144
 7011SOL    HW121270   0.522   2.681   3.483  0.3506 -1.1192 -0.0781
 7011SOL    HW221271   0.467   2.573   3.574 -3.4166  0.4225 -0.3340
 7012SOL     OW21272   3.593   1.032   5.511  0.3254 -0.3711  0.4420
 7012SOL    HW121273   3.529   1.102   5.525  0.1712 -0.5188  0.4694
 7012SOL    HW221274   3.549   0.971   5.451  0.3392 -0.6092  0.6749
 7013SOL     OW21275   1.593   3.888   1.385 -0.1876  0.4071  0.6377
 7013SOL    HW121276   1.660   3.831   1.425 -0.7527  1.7476  3.7848
 7013SOL    HW221277   1.527   3.898   1.453 -1.4955  2.5670 -0.8454
 7014SOL     OW21278   5.773   4.058   1.858  0.3725 -0.4578  0.7285
 7014SOL    HW121279   5.801   3.978   1.903 -1.3449 -1.7136 -0.3054
 7014SOL    HW221280   5.708   4.096   1.917 -0.6463 -1.2061  0.1242
 7015SOL     OW21281   1.990   0.401   5.375 -0.5474 -0.0505  0.3916
 7015SOL    HW121282   1.950   0.330   5.324 -2.5898  1.2305  0.1118
 7015SOL    HW221283   1.931   0.413   5.450 -0.3229  1.4398  0.3533
 7016SOL     OW21284   3.189   5.845   4.527 -0.3369  0.0785  0.7123
 7016SOL    HW121285   3.264   5.786   4.520 -0.1265  0.4185 -0.0661
 7016SOL    HW221286   3.206   5.913   4.461 -0.7627  0.7900  1.3132
 7017SOL     OW21287   4.897   0.342   2.662 -0.5501 -0.4813  0.1361
 7017SOL    HW121288   4.824   0.381   2.615 -1.0816 -0.1268  1.2313
 7017SOL    HW221289   4.969   0.404   2.650 -1.0029  0.1724  0.7149
 7018SOL     OW21290   5.741   0.699   2.091  0.0149  0.3946  0.1237
 7018SOL    HW121291   5.834   0.681   2.076  0.3239 -0.6304  2.8410
 7018SOL    HW221292   5.713   0.744   2.011  2.1815 -1.5285 -1.8831
 7019SOL     OW21293   5.448   5.497   0.235 -0.0662  0.2297 -0.2206
 7019SOL    HW121294   5.432   5.404   0.218  0.4523  0.2100 -0.6426
 7019SOL    HW221295   5.361   5.537   0.234 -0.1404  0.1373 -2.4593
 7020SOL     OW21296   3.498   2.828   5.255  0.1142  0.2032  0.4215
 7020SOL    HW121297   3.575   2.828   5.313 -1.9465  0.0458  3.3953
 7020SOL    HW221298   3.492   2.918   5.223  1.0537  0.4168  0.8115
 7021SOL     OW21299   3.040   5.809   0.945  0.1720 -0.3013 -0.3851
 7021SOL    HW121300   3.107   5.839   1.007  0.6065 -2.4202  0.2458
 7021SOL    HW221301   3.022   5.886   0.891  0.5818  1.3163  1.6472
 7022SOL     OW21302   3.802   1.356   5.880  0.6817  0.2405  0.0765
 7022SOL    HW121303   3.717   1.347   5.836 -0.2705 -2.4909  2.2095
 7022SOL    HW221304   3.846   1.273   5.866  2.1456  0.8709  0.7512
 7023SOL     OW21305   1.872   2.298   5.653  0.5072  0.0607  0.5564
 7023SOL    HW121306   1.833   2.243   5.720  0.5579 -0.1675  0.3995
 7023SOL    HW221307   1.953   2.255   5.630  1.2766  0.9690  1.4727
 7024SOL     OW21308   0.887   5.157   4.504  0.1450  0.3334 -0.2603
 7024SOL    HW121309   0.799   5.192   4.499 -0.0595 -0.3028 -1.4498
 7024SOL    HW221310   0.880   5.081   4.561  0.1005  0.7333  0.2834
 7025SOL     OW21311   4.070   0.393   0.349 -0.0425  0.1992  0.3783
 7025SOL    HW121312   4.087   0.399   0.443 -0.5869 -0.5669  0.5394
 7025SOL    HW221313   4.157   0.391   0.308  0.2401  3.0804  0.6361
 7026SOL     OW21314   0.802   2.874   1.397 -0.0127  0.0992 -0.1840
 7026SOL    HW121315   0.809   2.784   1.427  0.3798  0.2418  0.1618
 7026SOL    HW221316   0.890   2.909   1.405 -0.1416  0.4836 -0.4142
 7027SOL     OW21317   3.746   1.745   3.560  0.6716 -0.1115  0.3111
 7027SOL    HW121318   3.719   1.781   3.644 -0.0390 -0.8663  0.4121
 7027SOL    HW221319   3.664   1.729   3.513  1.0587  0.2778 -0.5179
 7028SOL     OW21320   1.032   1.270   0.138  0.4908 -0.4140  0.9982
 7028SOL    HW121321   0.944   1.236   0.155  0.7301 -0.7073  1.6870
 7028SOL    HW221322   1.050   1.328   0.212  0.0753  1.2780 -0.1697
 7029SOL     OW21323   4.190   5.322   4.037  0.5179 -0.0611  0.4079
 7029SOL    HW121324   4.218   5.271   3.962  0.9041  1.8708 -0.8339
 7029SOL    HW221325   4.269   5.332   4.090  1.2750  1.8664 -0.9763
 7030SOL     OW21326   1.238   4.840   1.075 -0.3154 -0.2035  0.2253
 7030SOL    HW121327   1.151   4.863   1.041 -0.1866  0.3262  0.2474
 7030SOL    HW221328   1.298   4.863   1.004 -0.0006  1.3428  0.9602
 7031SOL     OW21329   4.834   0.105   1.273 -0.3856 -0.5123 -0.0810
 7031SOL    HW121330   4.758   0.159   1.295 -0.7070 -1.7940  2.1896
 7031SOL    HW221331   4.804   0.049   1.202 -1.2475 -0.3191  0.1222
 7032SOL     OW21332   2.466   4.524   4.026  0.1775 -0.3334 -0.3997
 7032SOL    HW121333   2.458   4.469   3.948 -0.4286  0.1947 -0.7208
 7032SOL    HW221334   2.466   4.462   4.099  1.4485 -0.8840 -0.8276
 7033SOL     OW21335   4.384   5.287   2.791 -0.3903  0.0792  0.4415
 7033SOL    HW121336   4.386   5.211   2.733 -0.4495  0.6742 -0.3722
 7033SOL    HW221337   4.332   5.259   2.866  2.7616 -1.9617  2.0833
 7034SOL     OW21338   0.245   5.142   1.104  0.3295 -0.3129 -0.3663
 7034SOL    HW121339   0.156   5.171   1.124  1.1343  2.4975 -0.2882
 7034SOL    HW221340   0.291   5.147   1.188  0.6881 -1.3076 -0.4928
 7035SOL     OW21341   5.683   4.589   1.359  0.0794  0.1054 -0.0871
 7035SOL    HW121342   5.609   4.634   1.399 -0.5425 -1.2646  0.3672
 7035SOL    HW221343   5.701   4.639   1.279 -1.0775  0.6979  0.0043
 7036SOL     OW21344   0.669   2.439   4.335  0.0225 -0.0871  0.4229
 7036SOL    HW121345   0.590   2.489   4.313  1.0153  1.6818  0.6792
 7036SOL    HW221346   0.741   2.493   4.301  1.1322 -1.6226  0.2562
 7037SOL     OW21347   1.787   5.735   5.001  0.1200  0.1985  0.5307
 7037SOL    HW121348   1.844   5.761   5.073 -1.1914  2.1145  0.9542
 7037SOL    HW221349   1.840   5.675   4.948  2.3367  1.5004  1.1750
 7038SOL     OW21350   5.693   0.726   4.705 -0.7076 -0.3520  0.4727
 7038SOL    HW121351   5.734   0.642   4.725 -0.7587 -0.2989  0.8045
 7038SOL    HW221352   5.652   0.714   4.619  1.7705  0.1953 -0.9087
 7039SOL     OW21353   3.170   2.387   0.486  0.2527  0.5999  0.0336
 7039SOL    HW121354   3.145   2.369   0.577  0.6851  0.8278  0.2021
 7039SOL    HW221355   3.259   2.420   0.492  0.9174 -1.0052 -0.6346
 7040SOL     OW21356   1.310   4.250   5.049  0.3325  0.3051  0.4436
 7040SOL    HW121357   1.349   4.327   5.008 -0.3838 -0.5620 -2.0296
 7040SOL    HW221358   1.382   4.187   5.056  0.3009  0.1596 -0.3611
 7041SOL     OW21359   2.217   0.524   2.015 -0.4058 -0.2983  0.0240
 7041SOL    HW121360   2.132   0.491   2.044 -0.7160  1.2017  0.9391
 7041SOL    HW221361   2.243   0.584   2.084  0.6775  0.4419 -1.0075
 7042SOL     OW21362   3.377   6.053   3.978 -0.3721  0.1198 -0.6407
 7042SOL    HW121363   3.381   6.139   3.936  0.9998 -0.4277 -1.6958
 7042SOL    HW221364   3.390   6.071   4.071 -0.8601  1.1134 -0.7547
 7043SOL     OW21365   2.400   5.317   2.045  0.0603  0.3372 -0.1957
 7043SOL    HW121366   2.398   5.244   1.982  0.0060  0.2943 -0.1443
 7043SOL    HW221367   2.311   5.350   2.046 -0.1704 -0.2898  0.5896
 7044SOL     OW21368   0.930   1.223   0.945  0.3158  0.1835  0.2666
 7044SOL    HW121369   1.007   1.230   1.001  0.7516 -3.2569  0.3195
 7044SOL    HW221370   0.958   1.170   0.870 -1.7647 -0.5598 -0.0773
 7045SOL     OW21371   1.010   4.926   0.972 -0.5137  0.2198  0.1529
 7045SOL    HW121372   0.967   5.007   0.944 -2.3037 -0.4393  0.8915
 7045SOL    HW221373   0.990   4.863   0.902 -1.2042 -0.2207  0.7351
 7046SOL     OW21374   0.670   0.431   2.356 -0.8308  0.1292 -0.3248
 7046SOL    HW121375   0.616   0.354   2.340  0.2771 -0.2867 -2.3667
 7046SOL    HW221376   0.698   0.422   2.447  2.0044 -3.7699 -1.3292
 7047SOL     OW21377   5.951   1.084   3.215  0.4346 -0.5080  0.5405
 7047SOL    HW121378   6.035   1.123   3.190  0.3727 -0.6786  0.0663
 7047SOL    HW221379   5.932   1.020   3.147  0.0796 -0.7094  0.8219
 7048SOL     OW21380   0.420   0.994   1.953 -0.1262 -0.3773 -0.1900
 7048SOL    HW121381   0.357   1.051   1.909  0.2835  0.8426  0.7329
 7048SOL    HW221382   0.494   1.051   1.974  1.1083 -1.6744 -0.8302
 7049SOL     OW21383   1.755   0.047   1.901 -0.3058  0.6029 -0.2477
 7049SOL    HW121384   1.750   0.027   1.808 -0.8338 -0.4480  0.0027
 7049SOL    HW221385   1.665   0.067   1.926 -0.1574  0.9293  0.0328
 7050SOL     OW21386   1.265   3.234   2.673  0.0718  0.1966  0.2135
 7050SOL    HW121387   1.311   3.150   2.678 -0.1423  0.0355 -0.4619
 7050SOL    HW221388   1.286   3.269   2.587 -0.7477  0.3049  0.0453
 7051SOL     OW21389   3.494   4.916   0.987  0.0668  0.0811 -0.3198
 7051SOL    HW121390   3.494   4.829   0.949 -0.2057  1.0391 -2.7017
 7051SOL    HW221391   3.448   4.906   1.070 -0.8882 -1.8569 -1.0222
 7052SOL     OW21392   2.896   3.002   5.076  0.0475 -0.3354  0.2489
 7052SOL    HW121393   2.985   3.033   5.087  1.0447 -2.3971 -1.3037
 7052SOL    HW221394   2.850   3.075   5.034  1.2086  0.4768  0.3569
 7053SOL     OW21395   1.995   6.121   4.330 -0.3436 -0.3381 -0.1511
 7053SOL    HW121396   2.075   6.158   4.366 -0.3940 -0.4228  0.0507
 7053SOL    HW221397   2.013   6.110   4.237 -0.6582  1.0656 -0.3978
 7054SOL     OW21398   2.477   2.746   4.212  0.1088 -0.0997  0.2675
 7054SOL    HW121399   2.515   2.741   4.299  0.0238 -0.6529  0.2734
 7054SOL    HW221400   2.552   2.748   4.153  0.2612  2.5856  0.4270
 7055SOL     OW21401   0.712   3.612   1.497  0.7341  0.0295  0.5445
 7055SOL    HW121402   0.648   3.629   1.428  1.0651  0.5986  0.3766
 7055SOL    HW221403   0.659   3.583   1.572  0.3872 -0.7368  0.0179
 7056SOL     OW21404   2.168   0.784   3.425 -0.6223 -0.2521  0.1603
 7056SOL    HW121405   2.112   0.794   3.502  0.9451 -0.1154  1.3400
 7056SOL    HW221406   2.223   0.863   3.426  1.6882 -1.7775  0.8730
 7057SOL     OW21407   3.329   3.909   3.125  0.0964  0.0478  0.6023
 7057SOL    HW121408   3.369   3.888   3.041  3.2255 -0.3252  2.0704
 7057SOL    HW221409   3.284   3.992   3.109  2.3442  1.0586 -1.0050
 7058SOL     OW21410   4.294   1.989   4.543  0.3779 -0.4884  0.3781
 7058SOL    HW121411   4.274   1.989   4.449 -0.9246  1.0701  0.6155
 7058SOL    HW221412   4.213   1.959   4.584  0.4676  0.2263  1.0852
 7059SOL     OW21413   3.724   2.857   5.902 -0.3330 -0.9302  0.0428
 7059SOL    HW121414   3.778   2.808   5.840  1.1349 -0.2115  0.7059
 7059SOL    HW221415   3.678   2.790   5.952 -1.3826 -1.5263 -1.6369
 7060SOL     OW21416   3.564   1.046   1.693 -0.1500 -0.4427  0.1741
 7060SOL    HW121417   3.474   1.041   1.727 -1.3065 -0.9430 -2.7029
 7060SOL    HW221418   3.601   0.960   1.713 -0.2461 -0.2067  1.4591
 7061SOL     OW21419   5.792   5.065   4.271 -0.2926 -0.0207 -0.3738
 7061SOL    HW121420   5.870   5.069   4.216 -0.8411  1.4723 -1.1007
 7061SOL    HW221421   5.723   5.034   4.212 -0.5201 -0.0503 -0.0914
 7062SOL     OW21422   0.482   4.928   4.756  0.3901  0.3917 -0.3616
 7062SOL    HW121423   0.507   4.931   4.848 -0.3208  0.6633 -0.1692
 7062SOL    HW221424   0.474   5.020   4.731 -0.9467  0.3258 -0.2549
 7063SOL     OW21425   0.775   0.056   6.034 -0.7246  0.1791 -0.1786
 7063SOL    HW121426   0.804   0.147   6.042  3.9357 -1.0227 -0.6424
 7063SOL    HW221427   0.779   0.037   5.941 -2.5342 -0.3708 -0.1945
 7064SOL     OW21428   2.958   2.562   0.382  0.3756  0.1880  0.0986
 7064SOL    HW121429   2.925   2.642   0.425  0.3703 -0.1026  0.6462
 7064SOL    HW221430   3.030   2.533   0.439 -0.3072 -0.7839  0.4809
 7065SOL     OW21431   1.405   4.412   5.406  0.0451 -0.3977  0.0390
 7065SOL    HW121432   1.418   4.365   5.489 -1.3905 -2.6533 -0.8873
 7065SOL    HW221433   1.484   4.395   5.356  0.1306 -0.6602  0.2578
 7066SOL     OW21434   4.322   2.156   1.768  0.6242 -0.4598 -0.7824
 7066SOL    HW121435   4.393   2.095   1.790  0.0753 -0.8745 -0.1363
 7066SOL    HW221436   4.352   2.199   1.688  0.6815 -2.1566 -1.7269
 7067SOL     OW21437   5.552   1.121   2.298  0.7793 -0.3941 -0.0252
 7067SOL    HW121438   5.546   1.031   2.330 -1.3017  0.4647  2.3481
 7067SOL    HW221439   5.484   1.127   2.231  0.4218 -0.4066  0.3338
 7068SOL     OW21440   3.539   0.785   4.784 -0.4141 -0.9245 -0.3157
 7068SOL    HW121441   3.446   0.785   4.763 -0.5149  2.4016 -0.4144
 7068SOL    HW221442   3.564   0.878   4.783  2.5009 -1.5544  1.4875
 7069SOL     OW21443   4.100   0.543   5.283 -0.0720  0.4382  0.3776
 7069SOL    HW121444   4.136   0.490   5.211 -0.3225  1.4049 -0.4828
 7069SOL    HW221445   4.157   0.619   5.287 -0.9706  1.1390  0.1621
 7070SOL     OW21446   5.687   5.528   4.311 -0.6297 -0.0926 -0.2390
 7070SOL    HW121447   5.777   5.517   4.280 -1.0366 -1.7088 -0.9498
 7070SOL    HW221448   5.639   5.564   4.236 -0.7302  0.0829 -0.0930
 7071SOL     OW21449   0.694   2.888   4.766 -0.0943  0.3232 -0.1409
 7071SOL    HW121450   0.602   2.892   4.739 -0.3457 -0.9712  0.4472
 7071SOL    HW221451   0.691   2.874   4.861  0.7488  1.9057  0.1604
 7072SOL     OW21452   2.369   5.249   4.988  0.2866  0.7135  0.6198
 7072SOL    HW121453   2.328   5.320   4.939 -1.0485 -0.4345 -0.0275
 7072SOL    HW221454   2.344   5.264   5.079 -1.3005  0.2906  0.2957
 7073SOL     OW21455   2.644   3.908   2.651  0.0955 -0.6983  0.3211
 7073SOL    HW121456   2.720   3.937   2.702  0.6976  0.1579 -0.9894
 7073SOL    HW221457   2.616   3.986   2.603 -3.3125 -0.2641  2.6861
 7074SOL     OW21458   4.107   0.220   5.961 -0.2780 -0.6945  0.1699
 7074SOL    HW121459   4.121   0.299   5.908  1.1338  0.6581  2.3867
 7074SOL    HW221460   4.159   0.234   6.039 -1.3269 -3.1244  1.4202
 7075SOL     OW21461   0.708   4.200   0.962  0.0798 -0.3826  0.1446
 7075SOL    HW121462   0.725   4.207   1.056 -0.8411  0.1837  0.2871
 7075SOL    HW221463   0.619   4.234   0.952 -0.1830 -1.3201 -0.8082
 7076SOL     OW21464   0.944   5.913   1.960  0.1538 -0.1474  0.1340
 7076SOL    HW121465   0.935   5.928   2.054 -1.9225 -0.2164 -0.0202
 7076SOL    HW221466   0.955   6.000   1.923  0.6402 -0.0921  0.3944
 7077SOL     OW21467   4.848   6.021   6.101 -0.5992 -0.1668 -0.5624
 7077SOL    HW121468   4.880   5.971   6.177  0.7834  3.2562  1.3652
 7077SOL    HW221469   4.754   6.006   6.100 -0.6023 -0.6713  1.6382
 7078SOL     OW21470   3.830   2.393   2.274 -0.5027  0.0169  0.2671
 7078SOL    HW121471   3.816   2.313   2.325 -1.4602  0.1869  0.2883
 7078SOL    HW221472   3.783   2.378   2.192  1.5397 -0.5101 -0.8678
 7079SOL     OW21473   0.870   2.636   3.969 -0.1433  0.3615 -0.2348
 7079SOL    HW121474   0.876   2.683   3.885  3.1972 -0.2997 -0.5182
 7079SOL    HW221475   0.855   2.545   3.944  1.6328  0.0352 -0.2370
 7080SOL     OW21476   0.277   0.036   1.808 -0.0304  0.2689  0.3971
 7080SOL    HW121477   0.320  -0.047   1.790  0.8661  0.2920  2.1536
 7080SOL    HW221478   0.287   0.087   1.728 -2.0719 -1.8526 -1.3224
 7081SOL     OW21479   1.268   2.066   2.021 -0.3546  0.2963 -0.0384
 7081SOL    HW121480   1.264   2.158   2.047  1.0461  0.3023  0.2087
 7081SOL    HW221481   1.360   2.041   2.032 -0.4522 -0.7715 -1.3456
 7082SOL     OW21482   6.127   2.540   4.232  0.3100 -0.3551 -0.3014
 7082SOL    HW121483   6.179   2.615   4.205  1.2360 -0.8386  0.0801
 7082SOL    HW221484   6.092   2.565   4.318  0.7819 -0.4310 -0.0840
 7083SOL     OW21485   0.157   1.256   1.225 -0.3599  0.4466 -0.7561
 7083SOL    HW121486   0.137   1.206   1.304 -2.6014  0.9228 -0.9598
 7083SOL    HW221487   0.224   1.204   1.180  2.8179  1.3120  2.4990
 7084SOL     OW21488   4.235   5.858   4.420  0.7393 -0.3048 -0.4795
 7084SOL    HW121489   4.263   5.825   4.505  1.7447  0.2948 -0.5660
 7084SOL    HW221490   4.157   5.806   4.399  0.6530 -0.6644  0.6593
 7085SOL     OW21491   2.406   2.378   1.063 -0.0247  0.4941 -0.7172
 7085SOL    HW121492   2.343   2.423   1.007 -2.0766  1.9340  2.4385
 7085SOL    HW221493   2.360   2.300   1.094  0.8713 -0.0143 -0.6211
 7086SOL     OW21494   1.612   2.879   4.647 -0.2666  0.0990 -0.4285
 7086SOL    HW121495   1.554   2.934   4.593  0.2407  0.9906 -0.0840
 7086SOL    HW221496   1.693   2.930   4.654  0.0208 -0.4526  0.3621
 7087SOL     OW21497   1.645   4.533   2.695 -0.1398  0.4437  0.4553
 7087SOL    HW121498   1.740   4.534   2.705 -0.0871  1.8066  0.0854
 7087SOL    HW221499   1.613   4.576   2.774 -0.4088  0.5559  0.2857
 7088SOL     OW21500   0.432   6.120   5.770  0.2277 -0.0262  0.2048
 7088SOL    HW121501   0.440   6.119   5.865 -0.7075 -0.0144  0.2987
 7088SOL    HW221502   0.423   6.027   5.746 -1.5700  0.0640  0.3556
 7089SOL     OW21503   5.942   0.322   2.325 -0.3119 -0.2794  0.2677
 7089SOL    HW121504   6.011   0.382   2.354  0.1087 -0.9943  0.7701
 7089SOL    HW221505   5.873   0.380   2.294 -0.5134  0.5273  2.0571
 7090SOL     OW21506   2.534   2.140   3.041  0.1904  0.1023 -0.0065
 7090SOL    HW121507   2.525   2.209   3.107 -1.1419 -0.5145  0.5080
 7090SOL    HW221508   2.468   2.075   3.066 -0.0759 -0.3405 -1.7258
 7091SOL     OW21509   0.508   2.362   5.882  0.0937 -0.3707  1.0144
 7091SOL    HW121510   0.489   2.273   5.914 -3.2582 -0.0624  0.2645
 7091SOL    HW221511   0.429   2.387   5.834  0.6920  3.2467  1.6324
 7092SOL     OW21512   4.441   3.002   4.779  0.2122  0.3828 -0.4311
 7092SOL    HW121513   4.354   3.016   4.816 -0.1536 -0.9834 -0.7145
 7092SOL    HW221514   4.482   2.938   4.837  1.0547  1.0609 -0.2660
 7093SOL     OW21515   1.851   0.521   0.768  0.0208  0.3651  0.1158
 7093SOL    HW121516   1.827   0.603   0.725  0.6662  0.8205  0.6032
 7093SOL    HW221517   1.822   0.452   0.708  2.0260  0.9807 -1.6779
 7094SOL     OW21518   1.079   3.693   3.566  0.0292 -0.1004 -0.6908
 7094SOL    HW121519   1.095   3.759   3.499 -3.4793  1.0337 -0.6623
 7094SOL    HW221520   1.042   3.619   3.519 -1.7407  0.4105 -0.1985
 7095SOL     OW21521   3.010   3.623   1.189 -0.6060 -0.3147 -0.1881
 7095SOL    HW121522   3.096   3.588   1.211 -1.9326 -2.6157  1.7454
 7095SOL    HW221523   3.013   3.714   1.218  1.9834  0.5429 -2.6741
 7096SOL     OW21524   2.700   1.125   2.631  0.1748 -0.2085  0.0197
 7096SOL    HW121525   2.663   1.037   2.625 -1.1448  0.3913 -1.5380
 7096SOL    HW221526   2.624   1.183   2.620  1.1835  1.1109 -0.2486
 7097SOL     OW21527   1.381   5.258   0.840  0.2770  0.2160  0.1081
 7097SOL    HW121528   1.325   5.298   0.906  0.2571 -0.7194  0.6727
 7097SOL    HW221529   1.371   5.314   0.763 -1.8009 -0.1732  0.0373
 7098SOL     OW21530   3.592   5.114   2.492  0.2295 -0.0938 -0.5519
 7098SOL    HW121531   3.590   5.196   2.541  0.5347  0.4977 -1.4994
 7098SOL    HW221532   3.682   5.107   2.461  0.5736 -1.5086  0.6754
 7099SOL     OW21533   3.048   3.307   2.586  0.4186 -0.1990 -1.4249
 7099SOL    HW121534   2.967   3.259   2.570  0.0367  0.1176 -0.5461
 7099SOL    HW221535   3.041   3.335   2.678  1.2106  0.4159 -1.5404
 7100SOL     OW21536   4.525   4.006   4.147 -0.0307 -0.5871 -0.9959
 7100SOL    HW121537   4.574   4.065   4.204 -0.8851 -1.9526  1.3264
 7100SOL    HW221538   4.590   3.942   4.116  0.3906  0.0047 -1.3424
 7101SOL     OW21539   5.405   4.613   5.978  0.4389  0.4725 -0.7002
 7101SOL    HW121540   5.489   4.585   6.014  0.4457  1.5246  0.1719
 7101SOL    HW221541   5.427   4.676   5.910  0.3760  0.9197 -0.3193
 7102SOL     OW21542   1.864   1.796   0.632 -0.1617  0.2029 -0.1461
 7102SOL    HW121543   1.917   1.784   0.711 -0.7248 -0.4015  0.1583
 7102SOL    HW221544   1.927   1.804   0.561  0.3516  0.4954  0.3277
 7103SOL     OW21545   5.379   0.516   2.184 -0.6234 -0.7682 -0.4241
 7103SOL    HW121546   5.404   0.434   2.141 -4.2003 -1.0117 -2.4223
 7103SOL    HW221547   5.394   0.583   2.117  0.0813 -0.0952  0.3874
 7104SOL     OW21548   0.012   2.871   2.962 -0.0345 -0.1207  0.2913
 7104SOL    HW121549   0.016   2.784   2.923  0.2763 -0.0791  0.2234
 7104SOL    HW221550   0.084   2.871   3.025  0.5417  0.3991 -0.3559
 7105SOL     OW21551   3.198   5.559   1.578  0.4773  0.0276  0.0269
 7105SOL    HW121552   3.226   5.539   1.489 -1.1708  2.7142 -1.2125
 7105SOL    HW221553   3.223   5.650   1.592  0.3412 -0.2003  2.1969
 7106SOL     OW21554   5.960   6.121   1.114  0.1438  0.3512  0.0368
 7106SOL    HW121555   5.967   6.032   1.148 -1.8946 -0.5214 -1.5668
 7106SOL    HW221556   6.045   6.139   1.075  0.1805 -1.4700 -0.8242
 7107SOL     OW21557   5.142   5.629   3.545 -0.1343  0.4475 -0.1725
 7107SOL    HW121558   5.081   5.679   3.490  0.9210  0.4800 -1.3456
 7107SOL    HW221559   5.111   5.539   3.538  0.6576  0.2698 -1.7872
 7108SOL     OW21560   2.181   0.715   2.489  0.6218 -0.4774 -0.9247
 7108SOL    HW121561   2.137   0.800   2.495 -0.4790 -1.0752  0.0650
 7108SOL    HW221562   2.249   0.718   2.556 -0.5388 -0.9460  0.3504
 7109SOL     OW21563   0.005   1.821   5.764 -0.3604 -0.4462 -0.5127
 7109SOL    HW121564   0.033   1.798   5.675  0.5797 -1.4979  0.0285
 7109SOL    HW221565  -0.018   1.737   5.804 -1.3531  0.0859  0.0503
 7110SOL     OW21566   2.501   1.494   3.575 -0.1313  0.2900  0.1872
 7110SOL    HW121567   2.513   1.492   3.670  0.1545  1.5818  0.1972
 7110SOL    HW221568   2.577   1.447   3.540 -1.2805 -2.0221  0.6250
 7111SOL     OW21569   4.928   0.998   5.218  0.5299  0.1208 -0.3127
 7111SOL    HW121570   4.994   0.996   5.148 -0.6253  1.8325 -1.5307
 7111SOL    HW221571   4.978   1.021   5.297  2.1623 -3.5542 -0.0485
 7112SOL     OW21572   3.187   4.729   0.073 -0.1993 -0.2260  0.1472
 7112SOL    HW121573   3.166   4.708  -0.018  2.6103 -1.7767 -0.2710
 7112SOL    HW221574   3.105   4.717   0.121 -1.6006  0.0482 -2.0705
 7113SOL     OW21575   2.107   4.814   2.156  0.7895 -0.6866  0.0630
 7113SOL    HW121576   2.024   4.791   2.113  0.9304 -0.8750 -0.1101
 7113SOL    HW221577   2.117   4.908   2.142  1.4448 -0.9470 -1.3968
 7114SOL     OW21578   4.685   0.140   4.035 -0.3128 -0.2532 -0.4627
 7114SOL    HW121579   4.623   0.082   4.079 -0.5917  0.7653  0.5141
 7114SOL    HW221580   4.749   0.163   4.102 -0.1337  0.4682 -0.8700
 7115SOL     OW21581   4.829   6.042   4.263  0.5859  0.6939  0.3894
 7115SOL    HW121582   4.768   6.114   4.279  0.0345  0.0640  1.1850
 7115SOL    HW221583   4.780   5.981   4.209  0.2564 -0.1193  1.5682
 7116SOL     OW21584   3.635   0.920   5.767 -0.3998  0.0103  0.6305
 7116SOL    HW121585   3.654   0.974   5.690 -1.3967  0.6334  0.8030
 7116SOL    HW221586   3.692   0.844   5.758 -0.8201 -0.1466 -0.9495
 7117SOL     OW21587   5.476   6.103   3.146  0.4722 -0.3448  0.4435
 7117SOL    HW121588   5.400   6.111   3.089 -0.2537  0.5378  1.4889
 7117SOL    HW221589   5.550   6.096   3.086 -0.4383 -1.5658 -0.6000
 7118SOL     OW21590   5.207   5.360   0.467  0.0008 -0.4008  0.1541
 7118SOL    HW121591   5.228   5.453   0.469  2.4042 -0.8673  0.5718
 7118SOL    HW221592   5.226   5.333   0.378 -0.2413 -0.5826  0.1572
 7119SOL     OW21593   5.920   1.943   0.291  0.1973  0.2984  0.5882
 7119SOL    HW121594   5.854   1.924   0.357 -0.1572  0.6933  0.3478
 7119SOL    HW221595   5.871   1.954   0.210  0.6932 -1.0221  0.0723
 7120SOL     OW21596   1.932   1.067   1.109  0.2696 -0.0593  0.2168
 7120SOL    HW121597   1.949   0.974   1.123  1.3635  0.1897  0.7210
 7120SOL    HW221598   1.889   1.096   1.189 -0.8484 -0.2929 -0.2837
 7121SOL     OW21599   4.922   1.289   4.106 -0.5001  0.2155  0.1182
 7121SOL    HW121600   4.989   1.324   4.048 -1.5716 -0.2936 -1.5100
 7121SOL    HW221601   4.966   1.219   4.155  0.0549 -0.4520 -1.2809
 7122SOL     OW21602   2.730   5.754   4.752 -0.3742 -0.1741  0.0124
 7122SOL    HW121603   2.751   5.777   4.842  0.2901 -0.5814 -0.0365
 7122SOL    HW221604   2.814   5.751   4.707 -0.6105 -0.9648 -0.3892
 7123SOL     OW21605   0.415   1.231   3.166 -0.3469 -0.0340  0.6627
 7123SOL    HW121606   0.420   1.312   3.217 -0.4828 -0.0106  0.6386
 7123SOL    HW221607   0.413   1.161   3.232  0.7738 -0.0763  0.6733
 7124SOL     OW21608   0.937   1.966   0.345  0.3845 -0.5876  0.2012
 7124SOL    HW121609   0.984   2.046   0.368  0.7082 -0.3429 -1.2548
 7124SOL    HW221610   1.004   1.906   0.314 -0.0604 -0.8260 -0.3157
 7125SOL     OW21611   2.140   5.794   5.803  0.6544 -0.6951 -0.3669
 7125SOL    HW121612   2.106   5.826   5.886  1.4416  0.1312 -0.3372
 7125SOL    HW221613   2.108   5.856   5.738  0.5516 -0.9852 -0.5964
 7126SOL     OW21614   3.606   4.171   1.311 -0.1542 -0.0057  0.3951
 7126SOL    HW121615   3.524   4.178   1.261 -0.2530 -0.7955  0.4279
 7126SOL    HW221616   3.578   4.135   1.396 -0.1374  2.2843  1.4376
 7127SOL     OW21617   6.009   4.950   5.021  0.0320  0.1433  0.6521
 7127SOL    HW121618   6.014   4.861   4.988  0.0675 -0.0438  1.1574
 7127SOL    HW221619   5.988   5.003   4.944 -2.8276 -0.6196  0.7944
 7128SOL     OW21620   3.865   3.355   0.713  0.3214 -0.5484  0.0325
 7128SOL    HW121621   3.926   3.416   0.672 -0.6239  2.6499  2.8613
 7128SOL    HW221622   3.778   3.391   0.695 -0.2204 -0.3226  2.7044
 7129SOL     OW21623   2.345   1.223   1.755 -0.1114  0.8399  0.0984
 7129SOL    HW121624   2.437   1.242   1.775 -0.1196  2.3805 -1.1019
 7129SOL    HW221625   2.305   1.209   1.841  1.2411  0.0538  0.6436
 7130SOL     OW21626   5.297   5.900   3.309  0.0736  0.0159  0.6651
 7130SOL    HW121627   5.366   5.951   3.267 -1.1172  1.8384  0.8116
 7130SOL    HW221628   5.304   5.813   3.270 -0.4883  1.3743 -2.7981
 7131SOL     OW21629   2.546   2.038   4.759 -0.0331 -0.3845  0.0515
 7131SOL    HW121630   2.464   2.069   4.798  1.1245  1.9595  0.7852
 7131SOL    HW221631   2.595   2.001   4.832  0.5511  0.4730  0.1046
 7132SOL     OW21632   5.526   0.717   0.659 -0.0400 -0.7758 -0.6716
 7132SOL    HW121633   5.588   0.741   0.590  0.1841 -1.4727 -0.7210
 7132SOL    HW221634   5.568   0.746   0.740 -1.6810  2.9380 -0.9892
 7133SOL     OW21635   0.239   5.028   4.929  0.1586  0.1774 -0.4212
 7133SOL    HW121636   0.252   4.938   4.959 -0.1324 -0.2113 -1.4277
 7133SOL    HW221637   0.188   5.019   4.848  0.4389  1.2267 -0.7269
 7134SOL     OW21638   1.867   4.921   3.553 -0.0221  0.1727  0.1770
 7134SOL    HW121639   1.773   4.907   3.551  0.1166 -0.8093  0.2301
 7134SOL    HW221640   1.878   5.012   3.526 -0.9325  0.0670 -0.6071
 7135SOL     OW21641   1.921   5.287   0.395  0.3411 -0.3676 -0.6452
 7135SOL    HW121642   1.973   5.352   0.347  2.2808 -2.8113 -2.1169
 7135SOL    HW221643   1.984   5.245   0.453 -1.5200  1.0224  2.6573
 7136SOL     OW21644   1.316   5.714   4.691  0.1168  0.0661 -0.5103
 7136SOL    HW121645   1.230   5.696   4.730 -0.0568 -0.0234 -0.9259
 7136SOL    HW221646   1.378   5.695   4.760 -0.0060 -2.6749 -1.0697
 7137SOL     OW21647   3.920   3.867   4.055  0.1292 -0.3592  0.1502
 7137SOL    HW121648   3.980   3.856   4.129  1.3807  1.2726 -0.5598
 7137SOL    HW221649   3.879   3.781   4.044 -0.3220 -0.5891  2.9054
 7138SOL     OW21650   2.486   4.278   5.759  0.3716  0.0614 -0.3790
 7138SOL    HW121651   2.479   4.253   5.851 -2.0295  1.6098 -0.0482
 7138SOL    HW221652   2.430   4.217   5.712  0.3007  0.2843 -0.5892
 7139SOL     OW21653   5.568   0.096   4.692 -0.9341 -0.2352 -1.1857
 7139SOL    HW121654   5.508   0.046   4.637 -1.6684 -2.3608  1.3253
 7139SOL    HW221655   5.600   0.033   4.756  0.4455  1.8870  0.3672
 7140SOL     OW21656   4.194   2.779   6.098  0.0289 -0.3332 -0.5685
 7140SOL    HW121657   4.238   2.845   6.152  1.8096 -1.6056 -0.3732
 7140SOL    HW221658   4.214   2.696   6.141 -0.5294 -1.1696 -1.8694
 7141SOL     OW21659   2.376   0.360   4.722 -0.9959 -0.0483  0.3943
 7141SOL    HW121660   2.310   0.401   4.666  1.6220 -1.0229 -3.8726
 7141SOL    HW221661   2.347   0.270   4.732 -0.3243 -0.5285 -1.6417
 7142SOL     OW21662   5.447   3.983   5.441 -0.4123  0.7738 -0.1828
 7142SOL    HW121663   5.412   4.072   5.440  1.4286  1.5945  1.3805
 7142SOL    HW221664   5.515   3.983   5.374 -0.8500  0.3157 -0.6388
 7143SOL     OW21665   5.761   3.421   0.378 -0.0387 -0.1494 -0.8924
 7143SOL    HW121666   5.690   3.471   0.417 -1.1330 -0.3753 -2.5162
 7143SOL    HW221667   5.742   3.330   0.399  0.0818 -0.1634 -0.8410
 7144SOL     OW21668   4.941   4.600   3.496 -0.2939 -0.2373  0.2015
 7144SOL    HW121669   5.023   4.644   3.474  1.3585 -3.1983 -0.1131
 7144SOL    HW221670   4.937   4.604   3.591  1.0260 -1.3113  0.3300
 7145SOL     OW21671   0.121   1.404   0.005  0.1666  0.6426  0.1760
 7145SOL    HW121672   0.028   1.389   0.018  0.4317  0.5217  2.1817
 7145SOL    HW221673   0.148   1.333  -0.054 -1.0344  0.8629 -0.6876
 7146SOL     OW21674   2.273   2.653   4.782 -0.2066 -0.2163  0.4361
 7146SOL    HW121675   2.246   2.733   4.828  0.3254 -0.1442  0.6343
 7146SOL    HW221676   2.233   2.661   4.695  1.1561  1.0766 -0.1286
 7147SOL     OW21677   2.033   3.189   2.480 -0.1595 -0.2837  0.9330
 7147SOL    HW121678   2.052   3.114   2.535  0.2893 -0.4711  0.5250
 7147SOL    HW221679   2.086   3.260   2.516  0.0591 -0.3806  0.8023
 7148SOL     OW21680   5.355   5.220   1.367 -0.0293 -0.0392  0.2242
 7148SOL    HW121681   5.354   5.137   1.319 -1.9675 -0.0641  0.2433
 7148SOL    HW221682   5.336   5.195   1.458 -0.1139  0.3834  0.3221
 7149SOL     OW21683   0.526   0.257   3.641 -0.1667  0.8338 -0.0663
 7149SOL    HW121684   0.503   0.283   3.552 -0.8060 -1.7244 -0.7245
 7149SOL    HW221685   0.621   0.259   3.643 -0.1286  0.5228 -0.9548
 7150SOL     OW21686   0.316   4.715   0.794 -0.1241 -0.4605  0.3161
 7150SOL    HW121687   0.301   4.695   0.701  1.0292 -2.4255  0.4832
 7150SOL    HW221688   0.278   4.802   0.807 -1.9821 -0.9073 -1.5501
 7151SOL     OW21689   2.732   2.790   4.584  0.4627 -0.1400  0.3520
 7151SOL    HW121690   2.650   2.753   4.616  0.0328  0.9513  0.5631
 7151SOL    HW221691   2.748   2.866   4.640  0.7197  0.6603 -0.7577
 7152SOL     OW21692   4.101   3.531   1.166 -0.6559 -0.2188  0.0163
 7152SOL    HW121693   4.099   3.608   1.108  0.5295  0.3033  0.6527
 7152SOL    HW221694   4.096   3.457   1.106  1.2481  0.2931 -0.8577
 7153SOL     OW21695   0.599   3.708   4.619  0.0629 -0.1561  0.2571
 7153SOL    HW121696   0.673   3.651   4.603  0.1033 -1.5321  4.3334
 7153SOL    HW221697   0.630   3.772   4.683 -1.1107  2.0646 -1.2472
 7154SOL     OW21698   5.151   5.779   5.360  0.1494 -0.2287 -0.2493
 7154SOL    HW121699   5.222   5.787   5.296  0.3289  0.0338 -0.0171
 7154SOL    HW221700   5.134   5.685   5.364 -1.4678 -0.1033 -2.4309
 7155SOL     OW21701   5.955   0.989   4.836 -0.0923 -0.0812  0.0889
 7155SOL    HW121702   5.948   1.066   4.780  0.1327  0.7861  1.2269
 7155SOL    HW221703   5.874   0.989   4.888  0.1487 -0.3100  0.4674
 7156SOL     OW21704   3.920   5.588   0.703 -0.0764  0.6772 -0.6618
 7156SOL    HW121705   3.866   5.660   0.736  1.7359  1.5596  0.4874
 7156SOL    HW221706   3.923   5.525   0.774 -1.1251 -0.2976 -1.4339
 7157SOL     OW21707   6.099   4.091   3.212  0.4242 -0.2866  0.4589
 7157SOL    HW121708   6.058   4.014   3.173 -0.7011  0.0869  0.8370
 7157SOL    HW221709   6.026   4.138   3.253  1.2710  0.3414  1.2896
 7158SOL     OW21710   2.049   0.702   5.657  0.2250  0.4751  0.5840
 7158SOL    HW121711   2.025   0.700   5.564  0.6062  0.2259  0.4884
 7158SOL    HW221712   2.145   0.703   5.657  0.2435  1.8408  0.9477
 7159SOL     OW21713   2.751   2.663   5.393  0.3116  0.2417  0.2496
 7159SOL    HW121714   2.715   2.581   5.357  0.3087  1.3228 -2.4450
 7159SOL    HW221715   2.830   2.679   5.341  0.5318  1.7573  0.9961
 7160SOL     OW21716   0.261   4.746   1.063  0.5333 -0.4356  0.0479
 7160SOL    HW121717   0.294   4.831   1.036 -1.2843  0.4556  0.4620
 7160SOL    HW221718   0.242   4.700   0.981  2.4190 -0.8726 -0.1925
 7161SOL     OW21719   4.197   4.675   0.845 -0.5594 -0.4317 -0.1224
 7161SOL    HW121720   4.196   4.748   0.784  3.6821 -1.1217 -1.3568
 7161SOL    HW221721   4.157   4.603   0.796  0.9458 -0.4390 -1.4447
 7162SOL     OW21722   3.782   0.857   1.698  0.7620  0.3313  0.0346
 7162SOL    HW121723   3.862   0.905   1.722  0.1250  1.6515 -0.3983
 7162SOL    HW221724   3.807   0.764   1.704  1.7431  0.6629  1.9022
 7163SOL     OW21725   1.310   0.422   5.137  0.1501 -0.8849 -0.1948
 7163SOL    HW121726   1.336   0.352   5.195 -0.8034 -0.7823  0.3767
 7163SOL    HW221727   1.218   0.438   5.158  0.4536  0.8106 -0.0190
 7164SOL     OW21728   2.621   5.443   5.002 -0.0726 -0.1822  0.1972
 7164SOL    HW121729   2.547   5.399   4.960  0.4948  0.9427 -2.1733
 7164SOL    HW221730   2.685   5.455   4.932  2.3228 -0.9167  2.0992
 7165SOL     OW21731   0.809   5.477   3.565  0.1638  0.7137 -0.1981
 7165SOL    HW121732   0.714   5.489   3.571  0.2171  0.9391  0.2578
 7165SOL    HW221733   0.821   5.415   3.493 -0.4203 -0.5387  0.7425
 7166SOL     OW21734   2.284   3.429   1.119 -0.0638  0.1496 -0.3120
 7166SOL    HW121735   2.239   3.344   1.115 -0.1423  0.2423 -2.9604
 7166SOL    HW221736   2.243   3.481   1.050  2.0891  1.2420 -0.8455
 7167SOL     OW21737   3.831   2.538   1.143  0.0727  0.1957  0.0440
 7167SOL    HW121738   3.787   2.567   1.223  0.2830  0.1319  0.1830
 7167SOL    HW221739   3.924   2.557   1.158  0.4694 -2.0992  0.8468
 7168SOL     OW21740   3.038   2.636   3.282  0.4951 -0.5532  0.1315
 7168SOL    HW121741   2.971   2.611   3.345 -0.4793  1.5554  0.0257
 7168SOL    HW221742   3.099   2.690   3.332 -0.4249  1.3515 -0.7034
 7169SOL     OW21743   5.359   1.372   3.087 -0.0637 -0.0379 -0.0314
 7169SOL    HW121744   5.407   1.322   3.020 -2.3737  0.2251 -2.0406
 7169SOL    HW221745   5.286   1.316   3.111 -0.3707  0.7091  0.8106
 7170SOL     OW21746   4.807   0.345   4.309 -0.2218 -0.1443 -0.3676
 7170SOL    HW121747   4.754   0.422   4.290  0.1470  0.0523 -0.6148
 7170SOL    HW221748   4.864   0.372   4.380  1.0595  0.3610 -1.5352
 7171SOL     OW21749   0.513   2.735   4.924  0.6234 -0.0140 -0.5664
 7171SOL    HW121750   0.448   2.679   4.966  1.3904  0.4301  1.3422
 7171SOL    HW221751   0.595   2.685   4.929  1.0418  0.6935 -0.0555
 7172SOL     OW21752   3.917   0.503   3.867  0.2262  0.5261 -0.4657
 7172SOL    HW121753   3.853   0.574   3.854 -0.7155  0.2697  2.1345
 7172SOL    HW221754   3.864   0.428   3.892  1.4879  0.1924  1.3932
 7173SOL     OW21755   0.857   1.644   4.303 -0.4999 -0.0582  0.1327
 7173SOL    HW121756   0.805   1.628   4.381 -0.2161 -0.5076  0.2334
 7173SOL    HW221757   0.948   1.645   4.334 -0.3106 -1.1833 -0.3164
 7174SOL     OW21758   0.669   6.146   4.783 -1.2634  0.3033  0.4287
 7174SOL    HW121759   0.744   6.204   4.799 -1.1315 -0.0853  1.2871
 7174SOL    HW221760   0.594   6.206   4.778 -0.8784  0.7225 -0.7205
 7175SOL     OW21761   5.285   1.589   4.532  0.2564  0.2446  1.0095
 7175SOL    HW121762   5.339   1.615   4.458  1.5001  0.2302  1.8790
 7175SOL    HW221763   5.195   1.596   4.500  0.7799 -1.6807 -1.1442
 7176SOL     OW21764   1.500   4.661   2.240  0.5840 -0.2067 -0.4179
 7176SOL    HW121765   1.534   4.632   2.325  1.3872  0.8679 -0.3592
 7176SOL    HW221766   1.559   4.730   2.212 -0.9484  1.0016 -0.8244
 7177SOL     OW21767   6.048   5.241   0.732  0.4054 -0.0033 -0.1052
 7177SOL    HW121768   6.118   5.281   0.680  1.4610 -1.3333  0.2430
 7177SOL    HW221769   5.968   5.260   0.683  0.9620  1.7285 -0.4165
 7178SOL     OW21770   1.571   3.501   1.577 -0.2044  0.1013  0.1690
 7178SOL    HW121771   1.515   3.510   1.500  0.5637  1.4224 -0.2700
 7178SOL    HW221772   1.572   3.407   1.595 -0.6453 -0.2018 -1.2356
 7179SOL     OW21773   2.052   0.598   4.844  0.1583 -0.1806  0.3035
 7179SOL    HW121774   2.126   0.639   4.798 -0.4837  0.6991  0.0260
 7179SOL    HW221775   2.093   0.532   4.900  1.0465 -0.6324 -0.8275
 7180SOL     OW21776   0.460   5.038   1.279  0.2074 -0.1358  0.0625
 7180SOL    HW121777   0.505   5.121   1.293  0.2145  0.0055 -0.7908
 7180SOL    HW221778   0.505   4.998   1.204 -0.8411 -0.1622 -0.5607
 7181SOL     OW21779   0.344   4.125   3.842  0.2224  0.0554  0.5385
 7181SOL    HW121780   0.335   4.130   3.937  0.6115  0.2431  0.5685
 7181SOL    HW221781   0.412   4.189   3.821 -1.0453  1.2689 -0.0459
 7182SOL     OW21782   2.504   5.186   4.081 -0.3870  0.1086  0.4045
 7182SOL    HW121783   2.420   5.223   4.056 -1.7337 -2.5699  0.6700
 7182SOL    HW221784   2.484   5.125   4.152  1.4975 -1.7825 -0.5784
 7183SOL     OW21785   2.790   0.284   0.334  0.2745  0.3047 -0.2755
 7183SOL    HW121786   2.840   0.360   0.365 -0.2542  0.4158  0.3019
 7183SOL    HW221787   2.842   0.250   0.261  0.5060  1.2425 -0.5649
 7184SOL     OW21788   4.639   0.923   5.892  0.6305  0.6473 -0.4360
 7184SOL    HW121789   4.621   0.856   5.826  1.7670 -0.0339 -0.0789
 7184SOL    HW221790   4.674   0.997   5.842  0.1273  0.6754 -0.7476
 7185SOL     OW21791   3.434   2.108   5.242 -0.0413  0.3762 -0.0277
 7185SOL    HW121792   3.422   2.014   5.227  0.3888  0.1884  0.7219
 7185SOL    HW221793   3.414   2.149   5.158  0.4892 -0.4480 -0.5648
 7186SOL     OW21794   0.234   1.082   5.397  0.5646  0.1555 -0.3387
 7186SOL    HW121795   0.163   1.023   5.371  0.6808  0.1255 -0.5908
 7186SOL    HW221796   0.223   1.158   5.340  1.4824 -0.3740 -1.2591
 7187SOL     OW21797   1.632   5.951   3.376  0.3025  0.2108 -0.0199
 7187SOL    HW121798   1.545   5.912   3.376  0.4266 -0.1535  1.8061
 7187SOL    HW221799   1.684   5.892   3.321 -0.1098 -0.7781  0.6178
 7188SOL     OW21800   5.356   0.014   5.275 -0.5154  0.3250  0.3987
 7188SOL    HW121801   5.266   0.035   5.298 -0.7578  0.4644 -0.6298
 7188SOL    HW221802   5.409   0.063   5.338 -1.1504  0.5525  0.7638
 7189SOL     OW21803   5.422   5.159   0.448 -0.0844 -0.7041 -0.1911
 7189SOL    HW121804   5.332   5.138   0.474  0.6856 -1.5190  2.0867
 7189SOL    HW221805   5.428   5.130   0.357 -2.4041  0.3791 -0.7522
 7190SOL     OW21806   1.982   3.704   4.847  0.5815  0.3903  0.0109
 7190SOL    HW121807   1.911   3.641   4.861 -0.9194  2.2660  1.4166
 7190SOL    HW221808   1.974   3.730   4.755  1.0966 -1.2220 -0.5352
 7191SOL     OW21809   0.079   3.368   2.646  0.7727 -0.8796  0.1064
 7191SOL    HW121810   0.120   3.282   2.635  0.0661 -1.1353 -0.7347
 7191SOL    HW221811   0.117   3.421   2.576  0.7004 -0.7074  0.1981
 7192SOL     OW21812   4.937   4.085   5.732  0.0937 -0.2437 -0.0024
 7192SOL    HW121813   5.004   4.045   5.676 -0.1486 -0.7963  0.0888
 7192SOL    HW221814   4.876   4.013   5.749 -1.0455  0.4873 -0.8704
 7193SOL     OW21815   4.710   2.638   0.706 -0.2879 -0.4369 -0.0494
 7193SOL    HW121816   4.746   2.616   0.620 -1.0513 -0.9306 -0.2581
 7193SOL    HW221817   4.616   2.625   0.696 -0.5192  0.6398  0.5282
 7194SOL     OW21818   4.171   1.372   5.862 -0.1112 -0.6701  0.2531
 7194SOL    HW121819   4.209   1.417   5.938 -2.2122  1.4559  0.1636
 7194SOL    HW221820   4.092   1.330   5.897 -1.7972  1.3489 -0.8203
 7195SOL     OW21821   1.637   4.725   5.661  0.6489  0.3129 -0.5587
 7195SOL    HW121822   1.574   4.704   5.731 -0.1303  0.1292 -1.2917
 7195SOL    HW221823   1.702   4.655   5.665  0.0453 -0.2640 -0.6708
 7196SOL     OW21824   6.112   1.977   6.019 -0.6703 -0.1378 -0.1773
 7196SOL    HW121825   6.053   1.964   5.945  1.2239 -1.4635 -1.5480
 7196SOL    HW221826   6.100   1.900   6.074  0.2686 -0.8109 -0.8688
 7197SOL     OW21827   0.883   2.143   4.269 -0.8604  0.0119 -0.6065
 7197SOL    HW121828   0.866   2.061   4.315 -1.0173  0.3760 -0.0003
 7197SOL    HW221829   0.800   2.162   4.224 -0.8714 -0.0904 -0.6299
 7198SOL     OW21830   3.438   1.867   0.173 -0.2645  0.6207  0.0283
 7198SOL    HW121831   3.364   1.833   0.224  0.2030 -2.4497 -1.1337
 7198SOL    HW221832   3.481   1.789   0.138  3.0750  2.3071 -0.0377
 7199SOL     OW21833   0.032   0.691   3.225 -0.5725  0.0854  0.2800
 7199SOL    HW121834   0.062   0.771   3.269  1.4403  0.3648 -1.4118
 7199SOL    HW221835   0.097   0.625   3.249  1.2835  0.5251 -2.9318
 7200SOL     OW21836   2.517   3.179   4.269  0.3606  0.7748 -0.3389
 7200SOL    HW121837   2.602   3.173   4.224 -0.0581  0.4139 -1.0973
 7200SOL    HW221838   2.536   3.150   4.358  0.5048 -2.1498 -1.2135
 7201SOL     OW21839   4.662   2.201   4.574  0.0146 -0.4127 -0.0099
 7201SOL    HW121840   4.731   2.138   4.597  0.6174 -0.1659 -1.0937
 7201SOL    HW221841   4.661   2.262   4.648 -0.3131 -1.4528  0.8792
 7202SOL     OW21842   3.403   1.112   3.723  0.0004 -0.1247  0.3238
 7202SOL    HW121843   3.323   1.060   3.716 -0.2699  0.3717 -0.5944
 7202SOL    HW221844   3.416   1.125   3.817 -0.1407 -1.4938  0.5464
 7203SOL     OW21845   1.155   4.480   0.400  0.5897 -0.1340 -0.3024
 7203SOL    HW121846   1.206   4.560   0.417 -0.8715  0.9019 -0.6208
 7203SOL    HW221847   1.122   4.454   0.485  2.0126 -1.1123 -0.0076
 7204SOL     OW21848   4.629   3.546   4.747  0.3801 -0.7384  0.4375
 7204SOL    HW121849   4.721   3.564   4.731  0.2004  0.6356  0.8036
 7204SOL    HW221850   4.625   3.451   4.762  1.6451 -0.8875 -0.0377
 7205SOL     OW21851   3.579   4.285   2.130 -0.2252 -0.3396 -0.1918
 7205SOL    HW121852   3.669   4.277   2.161 -0.3404 -1.8306 -0.1896
 7205SOL    HW221853   3.526   4.273   2.209 -0.4571 -1.4723 -0.5042
 7206SOL     OW21854   5.414   1.816   6.084 -0.0257 -0.1100 -0.2748
 7206SOL    HW121855   5.436   1.743   6.142 -0.3684 -1.5635 -1.9049
 7206SOL    HW221856   5.321   1.832   6.099 -0.0236 -0.2135 -0.1479
 7207SOL     OW21857   3.587   5.255   2.987 -0.6207 -0.5092  0.4398
 7207SOL    HW121858   3.548   5.178   2.946 -1.9135 -0.1529  0.9299
 7207SOL    HW221859   3.519   5.322   2.982 -1.0910 -0.6009  3.5744
 7208SOL     OW21860   0.647   0.468   0.689  0.6128 -0.3723 -0.5081
 7208SOL    HW121861   0.621   0.413   0.762  0.2692 -0.1883 -0.4899
 7208SOL    HW221862   0.668   0.553   0.729  1.3088 -0.5357 -0.5139
 7209SOL     OW21863   1.543   5.952   2.632 -0.0017 -0.5042 -0.2625
 7209SOL    HW121864   1.593   5.987   2.706  0.6005 -1.0762 -0.3849
 7209SOL    HW221865   1.516   6.029   2.582  1.0067 -0.1922 -0.3418
 7210SOL     OW21866   5.823   1.078   5.484 -0.5000 -0.1882  0.4732
 7210SOL    HW121867   5.736   1.051   5.511 -0.4062 -0.4659  0.5023
 7210SOL    HW221868   5.853   1.008   5.425 -0.4733  0.1208  0.1134
 7211SOL     OW21869   0.004   1.987   3.421 -0.1851 -0.6555 -0.1152
 7211SOL    HW121870  -0.035   1.976   3.508 -0.5351 -1.6331 -0.3805
 7211SOL    HW221871   0.015   2.081   3.411 -2.3859 -0.3499  0.0120
 7212SOL     OW21872   3.352   4.263   6.127 -0.1129 -0.4435  0.1069
 7212SOL    HW121873   3.404   4.284   6.049  1.1012  0.2005  1.0632
 7212SOL    HW221874   3.263   4.292   6.105  0.4350  0.7273 -0.6389
 7213SOL     OW21875   1.137   2.548   4.544 -0.7790  0.4325 -0.2233
 7213SOL    HW121876   1.057   2.590   4.576 -1.7683 -0.1791 -1.7548
 7213SOL    HW221877   1.106   2.481   4.483  0.8737 -0.5742 -0.0231
 7214SOL     OW21878   4.947   5.529   2.378  0.0994 -0.3473 -0.4991
 7214SOL    HW121879   4.874   5.500   2.322 -0.2177 -1.3295  0.4095
 7214SOL    HW221880   4.906   5.546   2.463  0.4228  1.9462 -0.7154
 7215SOL     OW21881   0.979   2.494   3.201 -0.1867  0.8353 -0.7388
 7215SOL    HW121882   1.029   2.429   3.152 -0.4826  1.7142 -2.2569
 7215SOL    HW221883   0.888   2.464   3.194 -0.3987  1.6738 -1.9429
 7216SOL     OW21884   4.310   0.880   2.836 -0.6150 -0.2957  0.3111
 7216SOL    HW121885   4.315   0.971   2.809 -0.6374 -0.6971 -1.1451
 7216SOL    HW221886   4.226   0.849   2.804 -0.3019 -1.0140  0.1454
 7217SOL     OW21887   5.580   5.716   5.082  0.0381 -0.2846  0.7087
 7217SOL    HW121888   5.622   5.637   5.116  2.9660  1.3914  1.3164
 7217SOL    HW221889   5.585   5.707   4.986 -2.1346 -1.9545  0.6628
 7218SOL     OW21890   4.729   2.223   2.223  0.2896 -0.5945 -0.3399
 7218SOL    HW121891   4.696   2.210   2.312 -0.4433  1.0070 -0.3510
 7218SOL    HW221892   4.810   2.272   2.235  0.7866 -1.3582 -0.5122
 7219SOL     OW21893   0.012   4.495   2.636  0.0744 -0.4963  0.0045
 7219SOL    HW121894  -0.056   4.430   2.618  0.0443 -1.0039  1.7538
 7219SOL    HW221895   0.091   4.458   2.598 -0.1431 -1.0944  0.1142
 7220SOL     OW21896   1.538   3.471   1.256 -0.7729  0.0306  0.0713
 7220SOL    HW121897   1.629   3.447   1.276 -0.8032  0.7799  1.1739
 7220SOL    HW221898   1.539   3.492   1.163  0.3404  0.6734  0.2080
 7221SOL     OW21899   3.016   0.420   5.560 -0.3965 -0.0253  0.1427
 7221SOL    HW121900   3.056   0.506   5.574 -1.4421  0.3437  1.0225
 7221SOL    HW221901   3.085   0.357   5.580  0.1121  0.6102  0.3952
 7222SOL     OW21902   1.830   3.081   0.904 -0.4477  0.1141  0.0955
 7222SOL    HW121903   1.747   3.058   0.862  0.4018 -1.5385 -0.7690
 7222SOL    HW221904   1.814   3.167   0.943 -1.8033  0.9936 -2.1864
 7223SOL     OW21905   2.752   0.560   3.650  0.8040 -0.9249 -0.4675
 7223SOL    HW121906   2.681   0.589   3.592  0.6497  0.8262  0.5229
 7223SOL    HW221907   2.808   0.506   3.595  0.7946  0.8626 -2.3484
 7224SOL     OW21908   1.916   2.890   4.687  0.4440  0.5412 -0.1913
 7224SOL    HW121909   1.951   2.839   4.614  2.5120 -0.1880  1.2389
 7224SOL    HW221910   1.883   2.824   4.748 -1.5205  1.1537 -0.5012
 7225SOL     OW21911   5.861   1.814   3.400  0.4151  0.4342 -0.2864
 7225SOL    HW121912   5.770   1.844   3.395  0.4004  0.4648  0.0826
 7225SOL    HW221913   5.882   1.784   3.312 -0.1868 -0.2407 -0.2106
 7226SOL     OW21914   3.637   5.639   4.951  0.3985  0.2857 -0.3194
 7226SOL    HW121915   3.577   5.587   5.006  1.9283  0.1659  1.3178
 7226SOL    HW221916   3.658   5.715   5.005  0.8354  0.9122 -1.3471
 7227SOL     OW21917   0.995   0.989   5.941 -0.4634 -0.7628 -0.1864
 7227SOL    HW121918   0.908   0.991   5.903 -0.3448 -0.8206 -0.4638
 7227SOL    HW221919   1.054   0.984   5.866 -0.1119  1.4192 -0.1419
 7228SOL     OW21920   1.424   0.922   2.352 -0.0540  0.6680  0.0887
 7228SOL    HW121921   1.390   0.889   2.269 -1.1811  1.2370  0.2981
 7228SOL    HW221922   1.478   0.851   2.387 -1.1495 -0.3386 -0.2044
 7229SOL     OW21923   4.695   0.166   0.164  0.0716  0.1704  0.0308
 7229SOL    HW121924   4.649   0.152   0.081  0.5498  0.5248 -0.2973
 7229SOL    HW221925   4.727   0.256   0.159  1.0036 -0.1455  0.1515
 7230SOL     OW21926   3.964   1.274   4.892 -0.0197 -0.0507 -0.2505
 7230SOL    HW121927   3.902   1.332   4.936  2.5525  2.8380 -0.1242
 7230SOL    HW221928   3.915   1.238   4.818 -1.9689  1.8368  0.0341
 7231SOL     OW21929   2.078   4.640   2.924 -0.3291 -0.2898 -0.0849
 7231SOL    HW121930   2.101   4.571   2.862 -3.7462 -0.6322 -1.1760
 7231SOL    HW221931   2.107   4.721   2.880 -0.8310 -0.6841 -1.1871
 7232SOL     OW21932   2.125   0.297   1.483 -0.4088  1.0822  0.1789
 7232SOL    HW121933   2.035   0.330   1.493 -0.8386  0.5369 -1.5053
 7232SOL    HW221934   2.174   0.371   1.448  0.0669  1.6687  1.9646
 7233SOL     OW21935   2.878   3.691   2.854 -0.1959  0.1336  0.2840
 7233SOL    HW121936   2.948   3.750   2.881  0.0311  0.6965 -1.3904
 7233SOL    HW221937   2.798   3.743   2.861 -0.0587  0.4962 -0.6877
 7234SOL     OW21938   5.498   3.699   1.129  0.0447 -0.4284 -0.1679
 7234SOL    HW121939   5.513   3.644   1.052  1.2747 -1.0663  0.4888
 7234SOL    HW221940   5.405   3.721   1.126  0.3157  0.6859 -2.5622
 7235SOL     OW21941   6.138   0.913   1.783 -0.3128 -0.4013  0.2244
 7235SOL    HW121942   6.150   0.936   1.875 -1.5576 -0.0348  0.3097
 7235SOL    HW221943   6.070   0.972   1.752  0.3094 -0.3064 -1.0345
 7236SOL     OW21944   5.364   5.826   5.216 -0.7756  0.2947  0.1253
 7236SOL    HW121945   5.384   5.919   5.204  0.2707  0.2478  1.2652
 7236SOL    HW221946   5.430   5.781   5.163 -0.3621  0.1883  0.7258
 7237SOL     OW21947   3.068   2.448   4.983 -0.3939 -0.1051  0.3387
 7237SOL    HW121948   3.041   2.528   4.937 -1.4617 -0.9769 -0.5812
 7237SOL    HW221949   2.987   2.408   5.012  0.2195  0.2246  2.7435
 7238SOL     OW21950   0.972   5.096   3.902  0.1849  0.4575  0.0350
 7238SOL    HW121951   0.939   5.081   3.813  2.0221  2.0358 -0.9899
 7238SOL    HW221952   0.894   5.111   3.955 -0.8862  0.9893 -1.6287
 7239SOL     OW21953   3.836   0.749   5.622 -0.6120 -0.2584  0.2079
 7239SOL    HW121954   3.895   0.819   5.649  0.2417 -0.7645 -0.2928
 7239SOL    HW221955   3.894   0.680   5.589 -1.4452 -1.0864  0.4299
 7240SOL     OW21956   5.455   4.309   1.813  0.1280  0.1354  0.3201
 7240SOL    HW121957   5.514   4.303   1.889 -0.7974 -0.3694  1.0242
 7240SOL    HW221958   5.412   4.223   1.810 -1.1889  0.7640  0.3571
 7241SOL     OW21959   1.386   5.645   1.137 -0.1637  0.0802  0.2282
 7241SOL    HW121960   1.444   5.699   1.083  0.4579 -0.7089  0.0875
 7241SOL    HW221961   1.424   5.647   1.224  0.3185 -0.7533  0.0516
 7242SOL     OW21962   4.947   2.292   6.077 -0.1150  1.1772 -0.1368
 7242SOL    HW121963   4.899   2.361   6.123 -0.7754  0.0109  0.9825
 7242SOL    HW221964   5.026   2.278   6.130 -1.1670 -0.5898  1.0877
 7243SOL     OW21965   5.201   4.261   4.720 -0.3300 -0.0480 -0.0396
 7243SOL    HW121966   5.208   4.167   4.705 -0.7956 -0.3841  1.6321
 7243SOL    HW221967   5.288   4.296   4.700 -0.1358 -0.8394 -0.5959
 7244SOL     OW21968   2.463   2.732   1.843 -0.2247 -0.3079 -0.0608
 7244SOL    HW121969   2.455   2.734   1.939  0.3889 -0.2321 -0.0077
 7244SOL    HW221970   2.437   2.643   1.819 -1.0310 -0.1284  0.1077
 7245SOL     OW21971   1.192   4.807   1.521 -0.9942 -0.1835 -0.3450
 7245SOL    HW121972   1.196   4.764   1.435  2.2979  1.1374 -1.0252
 7245SOL    HW221973   1.205   4.900   1.501  0.4996  0.0819  1.5658
 7246SOL     OW21974   4.394   2.542   4.904 -0.2757 -0.2611 -0.1082
 7246SOL    HW121975   4.404   2.583   4.818 -1.7077 -0.5004 -0.4209
 7246SOL    HW221976   4.376   2.450   4.885  0.5320 -0.5558  0.5057
 7247SOL     OW21977   5.494   1.139   5.052 -0.0930  0.1080  0.2491
 7247SOL    HW121978   5.565   1.076   5.037 -0.9407 -1.3189  1.8902
 7247SOL    HW221979   5.422   1.107   4.997 -0.1748  0.2758  0.2583
 7248SOL     OW21980   3.067   4.364   1.739 -1.0441  1.2017 -0.2172
 7248SOL    HW121981   3.163   4.362   1.741 -1.0138 -0.0423 -1.3141
 7248SOL    HW221982   3.040   4.321   1.820 -0.6542  0.5838 -0.4094
 7249SOL     OW21983   0.504   0.869   3.721 -0.3322 -0.2771  0.4970
 7249SOL    HW121984   0.555   0.911   3.652 -0.4087  0.5767  0.9583
 7249SOL    HW221985   0.568   0.847   3.789 -0.1278 -1.8050 -0.1387
 7250SOL     OW21986   4.341   0.477   2.909 -0.1648 -0.3064  0.3702
 7250SOL    HW121987   4.307   0.444   2.993 -0.8425  0.9729  0.6367
 7250SOL    HW221988   4.373   0.399   2.864 -0.6835 -1.1615  1.4127
 7251SOL     OW21989   4.485   4.810   5.021 -0.1444 -0.0028  0.4258
 7251SOL    HW121990   4.417   4.743   5.029 -0.0127 -0.1342  0.4524
 7251SOL    HW221991   4.459   4.862   4.945 -0.9153  0.6839  1.1212
 7252SOL     OW21992   4.326   1.696   4.657  0.0030 -0.6662 -0.0523
 7252SOL    HW121993   4.351   1.787   4.640 -2.1260 -0.3944 -2.2769
 7252SOL    HW221994   4.243   1.703   4.705  0.6496 -1.4822  1.2282
 7253SOL     OW21995   4.990   4.649   2.804 -0.1988  0.2592 -0.4843
 7253SOL    HW121996   4.909   4.676   2.847  1.3130  1.0135  2.0945
 7253SOL    HW221997   4.981   4.554   2.793 -1.3712  0.3236 -0.1504
 7254SOL     OW21998   6.124   3.695   4.330  0.0245 -0.2097  0.0584
 7254SOL    HW121999   6.184   3.731   4.265  2.0105  0.7595  2.2696
 7254SOL    HW222000   6.136   3.600   4.323  1.1771 -0.0653 -0.1422
 7255SOL     OW22001   4.441   4.910   4.534 -0.0415  0.2414  0.5782
 7255SOL    HW122002   4.457   4.855   4.457  1.9748  0.2487  0.9246
 7255SOL    HW222003   4.361   4.958   4.513  1.5007  1.7431 -2.4155
 7256SOL     OW22004   2.144   0.448   0.330  0.7505 -0.8399  0.3778
 7256SOL    HW122005   2.105   0.530   0.361 -0.4674 -1.0194 -0.5873
 7256SOL    HW222006   2.173   0.468   0.242 -0.3783 -1.6588 -0.2103
 7257SOL     OW22007   1.071   1.957   0.907 -0.3503  0.3366 -0.2354
 7257SOL    HW122008   1.108   1.991   0.826 -0.6836 -2.3880 -1.6258
 7257SOL    HW222009   1.129   1.991   0.975  1.7099  0.3181 -1.8765
 7258SOL     OW22010   3.475   2.513   2.426  0.3874  0.0699 -0.1754
 7258SOL    HW122011   3.499   2.441   2.368  0.6325 -0.5995  0.7369
 7258SOL    HW222012   3.389   2.540   2.395  1.1506  0.7579 -1.8219
 7259SOL     OW22013   3.791   3.953   5.923  0.1233  0.0557  0.3823
 7259SOL    HW122014   3.838   4.035   5.938  0.5759 -0.2268  0.5227
 7259SOL    HW222015   3.748   3.965   5.838  3.2597 -0.9490 -1.4858
 7260SOL     OW22016   2.668   3.003   2.712  0.0316  0.0624 -0.1973
 7260SOL    HW122017   2.696   3.017   2.803 -0.9795  1.2068 -0.0286
 7260SOL    HW222018   2.713   2.923   2.685  2.3567  1.0733  0.4686
 7261SOL     OW22019   1.953   1.241   5.362  0.4885  0.0342  0.1663
 7261SOL    HW122020   1.975   1.151   5.337 -1.5629 -0.6010  0.5085
 7261SOL    HW222021   1.909   1.278   5.286 -2.1169 -0.5659  1.2938
 7262SOL     OW22022   5.392   3.495   4.449  0.2944 -0.1385 -0.0561
 7262SOL    HW122023   5.488   3.503   4.454  0.5570 -1.7224 -1.7008
 7262SOL    HW222024   5.376   3.402   4.434 -1.3542  0.4130 -2.2481
 7263SOL     OW22025   2.207   5.651   1.105  0.4569  0.0447  0.1714
 7263SOL    HW122026   2.181   5.731   1.152 -1.2290 -0.1435 -0.3821
 7263SOL    HW222027   2.269   5.608   1.164  0.5408  1.2041  0.9726
 7264SOL     OW22028   2.819   6.039   2.245  0.5594 -0.0053 -0.3535
 7264SOL    HW122029   2.746   5.985   2.215  1.0592 -1.1146  0.3616
 7264SOL    HW222030   2.893   5.978   2.251  0.9754  0.6039  1.1311
 7265SOL     OW22031   5.321   2.140   0.086  0.0298  0.0567  0.3648
 7265SOL    HW122032   5.287   2.229   0.088  0.7442  0.3541  2.5515
 7265SOL    HW222033   5.401   2.146   0.033 -0.6806  0.3852 -0.6959
 7266SOL     OW22034   2.305   4.796   4.755 -0.6157 -0.1163 -0.6562
 7266SOL    HW122035   2.231   4.735   4.761 -1.2764  0.7436  0.3813
 7266SOL    HW222036   2.275   4.863   4.694 -0.8347  0.3881 -0.0120
 7267SOL     OW22037   2.253   1.725   0.294 -0.1793 -0.9208 -0.4375
 7267SOL    HW122038   2.243   1.791   0.225 -0.1750  0.9295  1.2560
 7267SOL    HW222039   2.341   1.690   0.281  0.4462  0.5711 -0.4285
 7268SOL     OW22040   5.503   4.069   3.636 -0.0409 -0.4886 -0.4340
 7268SOL    HW122041   5.444   4.001   3.603 -0.3341 -0.7123  0.5184
 7268SOL    HW222042   5.475   4.083   3.727 -0.2058  1.1735 -0.7205
 7269SOL     OW22043   4.819   0.332   2.237  1.1537  0.2619  0.5607
 7269SOL    HW122044   4.882   0.315   2.307  0.8820 -0.4496  0.6398
 7269SOL    HW222045   4.735   0.342   2.282  1.2798  1.8398  0.5201
 7270SOL     OW22046   4.380   1.882   5.445  0.4315  0.1257  0.1317
 7270SOL    HW122047   4.451   1.906   5.504 -0.8449 -0.9912  2.2447
 7270SOL    HW222048   4.421   1.821   5.383  1.4462 -0.1075  0.9914
 7271SOL     OW22049   0.072   5.656   2.197  0.2461  0.0263  0.1892
 7271SOL    HW122050   0.122   5.590   2.244  0.5037  0.5091  0.6152
 7271SOL    HW222051  -0.019   5.642   2.224  0.5798  1.3892  2.2521
 7272SOL     OW22052   0.563   5.370   5.453  0.0063 -0.1651  0.3338
 7272SOL    HW122053   0.617   5.427   5.508 -0.5083  0.1830  0.4814
 7272SOL    HW222054   0.586   5.394   5.363  0.2177 -0.1321  0.3971
 7273SOL     OW22055   2.117   5.690   4.344  0.3400  0.1807  0.4487
 7273SOL    HW122056   2.109   5.732   4.259  0.7029  2.1033  1.3299
 7273SOL    HW222057   2.209   5.700   4.368  0.4636 -1.2204  0.6588
 7274SOL     OW22058   5.227   1.606   5.538  0.2704 -0.5438 -0.3287
 7274SOL    HW122059   5.295   1.658   5.496  1.0217 -2.2507 -1.3562
 7274SOL    HW222060   5.275   1.551   5.601 -0.2223 -1.2674 -0.5717
 7275SOL     OW22061   0.791   0.195   4.165  0.7311 -0.6203  0.4718
 7275SOL    HW122062   0.849   0.201   4.089  2.4217 -0.2915  1.7405
 7275SOL    HW222063   0.841   0.145   4.229  0.1228  0.7164  2.0564
 7276SOL     OW22064   4.178   5.659   0.209  0.0610  0.0632  0.0734
 7276SOL    HW122065   4.085   5.638   0.217  0.2311 -0.6909  0.1826
 7276SOL    HW222066   4.222   5.597   0.268  0.7723 -0.7896 -1.2879
 7277SOL     OW22067   1.927   3.398   4.569  0.2030  0.7778  0.5154
 7277SOL    HW122068   1.977   3.390   4.650  0.7602 -1.1163  0.0311
 7277SOL    HW222069   1.982   3.450   4.511  0.8733  0.1169  0.5537
 7278SOL     OW22070   3.583   4.871   6.010  0.5605 -0.7288  0.9182
 7278SOL    HW122071   3.574   4.775   6.008 -0.5099 -0.6360 -0.8364
 7278SOL    HW222072   3.501   4.903   5.974  1.7008  0.7755 -0.5265
 7279SOL     OW22073   2.659   2.677   1.464 -0.0124  0.0868  0.5144
 7279SOL    HW122074   2.568   2.654   1.479 -0.0570  0.2813  0.5555
 7279SOL    HW222075   2.689   2.617   1.396  0.7241 -2.0670  2.6092
 7280SOL     OW22076   2.494   4.102   4.553  0.3747 -0.1410 -0.6042
 7280SOL    HW122077   2.576   4.152   4.550  0.4110 -0.2613 -2.2598
 7280SOL    HW222078   2.512   4.022   4.504 -0.0843 -1.2198  0.9126
 7281SOL     OW22079   4.077   0.746   0.873  0.5744  0.4446  0.2082
 7281SOL    HW122080   3.990   0.762   0.837  0.6511 -1.7464 -1.0936
 7281SOL    HW222081   4.061   0.725   0.965 -0.4356 -1.0792 -0.2825
 7282SOL     OW22082   0.511   3.285   1.131  0.3006  0.0159 -0.1252
 7282SOL    HW122083   0.537   3.236   1.209  1.3653 -0.7883 -0.9481
 7282SOL    HW222084   0.558   3.242   1.059 -0.2554  1.0530 -1.1432
 7283SOL     OW22085   3.188   3.718   6.139 -0.1266 -0.0564  0.3028
 7283SOL    HW122086   3.095   3.725   6.116 -0.1650  2.8257  0.9128
 7283SOL    HW222087   3.193   3.639   6.193 -2.0303 -0.8072 -0.5174
 7284SOL     OW22088   5.388   3.519   0.747 -0.2187  0.0358  0.3631
 7284SOL    HW122089   5.420   3.449   0.690 -0.0934  0.7734 -0.4892
 7284SOL    HW222090   5.381   3.478   0.833  4.0246  0.0410  0.9097
 7285SOL     OW22091   4.734   1.587   5.371 -0.0320 -0.2336 -0.3228
 7285SOL    HW122092   4.813   1.581   5.424  0.0482  2.4245 -0.0118
 7285SOL    HW222093   4.697   1.499   5.372  1.3544 -0.8653  1.9572
 7286SOL     OW22094   3.211   0.122   0.797  0.4770  0.4267 -0.4993
 7286SOL    HW122095   3.185   0.130   0.889  0.3485 -0.3080 -0.4652
 7286SOL    HW222096   3.134   0.147   0.747  0.5838  0.9414 -0.4104
 7287SOL     OW22097   1.948   0.714   3.814 -0.7690 -0.1992  0.0252
 7287SOL    HW122098   1.917   0.665   3.737 -0.2213 -0.1211 -0.2468
 7287SOL    HW222099   1.928   0.657   3.888  1.9434 -1.9438 -0.4461
 7288SOL     OW22100   2.649   1.551   1.990 -0.2514  0.2482 -0.0756
 7288SOL    HW122101   2.561   1.517   1.973 -0.4934  0.1667  1.2135
 7288SOL    HW222102   2.644   1.587   2.079  1.0800  0.0161  0.1202
 7289SOL     OW22103   3.738   4.741   1.621 -0.4591 -0.3167  0.6896
 7289SOL    HW122104   3.716   4.650   1.603 -0.8900 -0.0251 -0.3217
 7289SOL    HW222105   3.653   4.784   1.636 -0.7221  0.7138 -2.7444
 7290SOL     OW22106   5.310   0.683   0.454 -0.3140  0.3488  0.3357
 7290SOL    HW122107   5.369   0.638   0.394 -0.7888 -1.6832  1.2960
 7290SOL    HW222108   5.363   0.699   0.532 -0.4365  0.5084  0.3875
 7291SOL     OW22109   1.825   5.628   0.936 -0.1139  0.6007  1.2662
 7291SOL    HW122110   1.875   5.710   0.942 -0.0755  0.5462  1.6802
 7291SOL    HW222111   1.771   5.640   0.858  0.3679  0.7586  0.9476
 7292SOL     OW22112   4.316   4.126   5.809  0.5659 -0.2151 -0.0466
 7292SOL    HW122113   4.344   4.209   5.772  1.0766 -0.9499 -1.3423
 7292SOL    HW222114   4.238   4.102   5.759 -1.0343  0.6114  1.9033
 7293SOL     OW22115   3.936   5.111   5.528 -0.0392  0.0702  0.4821
 7293SOL    HW122116   3.898   5.070   5.606  2.2507 -0.6867  1.2788
 7293SOL    HW222117   4.027   5.127   5.551  1.5497 -2.7445 -2.9387
 7294SOL     OW22118   4.222   3.923   0.435 -0.2955  0.1025 -0.1769
 7294SOL    HW122119   4.232   3.891   0.346  2.8249 -0.0215  0.1004
 7294SOL    HW222120   4.257   4.012   0.433 -1.5099  0.6261  0.6571
 7295SOL     OW22121   1.741   1.757   1.592  0.3146 -0.0914 -0.6355
 7295SOL    HW122122   1.807   1.786   1.528  1.0955  2.0131  1.0036
 7295SOL    HW222123   1.773   1.672   1.622  1.2954  0.0589 -1.1946
 7296SOL     OW22124   3.211   5.027   0.147 -0.6419  0.0448  0.2544
 7296SOL    HW122125   3.182   5.077   0.071 -0.1008  0.8805  0.5880
 7296SOL    HW222126   3.253   4.949   0.110  2.9253  2.1329 -0.5156
 7297SOL     OW22127   4.117   2.984   1.921 -0.8479  0.1837  0.1497
 7297SOL    HW122128   4.041   3.035   1.893  0.2877  2.3698  0.8352
 7297SOL    HW222129   4.153   3.033   1.995  0.5527 -1.4497  0.6181
 7298SOL     OW22130   5.429   5.552   3.600  0.4123 -0.0897  0.2697
 7298SOL    HW122131   5.366   5.620   3.576 -0.0750 -0.9736 -1.1019
 7298SOL    HW222132   5.510   5.599   3.618  0.4214  0.8034 -1.8097
 7299SOL     OW22133   5.110   5.583   2.867  0.3511 -0.9136  0.2158
 7299SOL    HW122134   5.105   5.527   2.790  0.0179  1.1444 -1.3290
 7299SOL    HW222135   5.130   5.523   2.939  1.4303 -2.7938 -1.5642
 7300SOL     OW22136   1.571   6.078   4.829 -0.5696 -0.2380  0.1735
 7300SOL    HW122137   1.555   5.991   4.866 -1.6556  0.3282  1.1003
 7300SOL    HW222138   1.660   6.073   4.795 -0.5277 -1.6423  0.4076
 7301SOL     OW22139   1.749   5.853   0.593  0.1286  0.4402 -0.3956
 7301SOL    HW122140   1.821   5.820   0.539  1.3020  1.1749  0.6776
 7301SOL    HW222141   1.784   5.931   0.636 -1.8334  1.7888 -1.0851
 7302SOL     OW22142   4.294   2.236   0.887  0.4530  0.2322 -0.3195
 7302SOL    HW122143   4.251   2.289   0.955 -1.5696  0.7971 -1.9620
 7302SOL    HW222144   4.258   2.149   0.898 -2.1078  0.9277 -2.3582
 7303SOL     OW22145   2.806   2.479   3.400 -0.1082  0.8809  0.0915
 7303SOL    HW122146   2.728   2.424   3.408  0.7855 -0.3635  0.5656
 7303SOL    HW222147   2.773   2.568   3.403 -1.4504  0.3832  1.2323
 7304SOL     OW22148   3.830   5.209   0.739  0.2868  0.1648 -0.3852
 7304SOL    HW122149   3.922   5.188   0.727  1.0918  3.0638 -0.0116
 7304SOL    HW222150   3.823   5.234   0.831 -0.8088  0.2008 -0.4641
 7305SOL     OW22151   1.311   3.942   4.111 -0.4937 -0.2390 -0.2579
 7305SOL    HW122152   1.364   3.923   4.188 -2.5527  0.9884  1.5872
 7305SOL    HW222153   1.236   3.883   4.119 -0.1943 -0.9254 -2.0083
 7306SOL     OW22154   5.849   1.187   1.082 -0.7298 -0.3487 -0.1120
 7306SOL    HW122155   5.844   1.259   1.145 -3.1523  0.2217 -0.8339
 7306SOL    HW222156   5.839   1.230   0.997  0.2634 -1.3283 -0.7424
 7307SOL     OW22157   0.841   2.298   0.059  0.8687 -0.1869 -0.4172
 7307SOL    HW122158   0.765   2.353   0.040  1.1514  1.3731  2.4088
 7307SOL    HW222159   0.804   2.211   0.073 -0.2338  0.2773 -0.3225
 7308SOL     OW22160   1.296   3.997   5.898 -0.1800  0.7908 -0.0543
 7308SOL    HW122161   1.335   4.083   5.916 -0.3960  0.6102  1.4084
 7308SOL    HW222162   1.359   3.955   5.839 -0.1073  1.9667 -0.8698
 7309SOL     OW22163   3.436   5.224   4.213 -0.4929  0.5231  0.1194
 7309SOL    HW122164   3.385   5.170   4.152 -1.0970 -0.5359  1.4927
 7309SOL    HW222165   3.467   5.297   4.160 -1.5611  0.0108 -1.2948
 7310SOL     OW22166   5.395   4.149   3.862  0.0438  0.5656 -0.4749
 7310SOL    HW122167   5.325   4.138   3.926  0.4993  1.2581  0.1654
 7310SOL    HW222168   5.361   4.212   3.799 -0.2503  0.2007 -0.6830
 7311SOL     OW22169   5.897   5.913   2.354 -0.1841 -0.2963  0.0442
 7311SOL    HW122170   5.948   5.845   2.310  0.7324 -0.7508  1.7227
 7311SOL    HW222171   5.962   5.967   2.398 -1.0487  0.2755  0.6391
 7312SOL     OW22172   1.969   0.105   5.333  0.1965 -0.0829 -0.0130
 7312SOL    HW122173   1.961   0.017   5.370  1.1384 -0.4872 -0.7290
 7312SOL    HW222174   1.937   0.096   5.243  2.5690 -0.3064 -0.9055
 7313SOL     OW22175   4.903   5.976   2.039 -0.0835  0.0653 -0.4736
 7313SOL    HW122176   4.872   5.898   2.086  0.5171 -0.1752 -0.4596
 7313SOL    HW222177   4.909   5.947   1.948 -0.8800  0.4165 -0.6426
 7314SOL     OW22178   4.604   3.340   1.997  0.0070  0.0168 -0.2905
 7314SOL    HW122179   4.594   3.433   2.019  2.4350  0.2572  0.0174
 7314SOL    HW222180   4.629   3.299   2.080 -1.7645 -1.0960 -0.2579
 7315SOL     OW22181   2.462   3.982   0.174  0.8662 -0.1298  0.4782
 7315SOL    HW122182   2.370   4.011   0.174  1.4854  2.1342 -1.5823
 7315SOL    HW222183   2.506   4.044   0.232  1.1978 -0.9110  1.0719
 7316SOL     OW22184   5.062   0.425   5.311  0.3124  0.2778 -0.1476
 7316SOL    HW122185   5.099   0.399   5.395  0.6015 -1.0229 -0.6635
 7316SOL    HW222186   5.111   0.375   5.246  2.0268  3.2850 -1.3596
 7317SOL     OW22187   0.767   3.119   3.535 -0.6433 -0.0047 -0.7066
 7317SOL    HW122188   0.674   3.100   3.546 -0.2589 -1.3923  0.5277
 7317SOL    HW222189   0.784   3.100   3.442 -1.9578  2.2657 -1.5031
 7318SOL     OW22190   5.412   5.267   3.498  0.3429  0.3430 -0.8957
 7318SOL    HW122191   5.377   5.356   3.495 -1.3702 -0.2750 -0.6163
 7318SOL    HW222192   5.403   5.241   3.590 -0.0145 -0.4153 -1.1341
 7319SOL     OW22193   1.436   5.753   0.033  0.3445  0.7217 -0.3732
 7319SOL    HW122194   1.485   5.721   0.109 -0.6057  0.9956  0.3766
 7319SOL    HW222195   1.351   5.710   0.039  0.7063 -0.3223 -2.0740
 7320SOL     OW22196   1.409   4.029   5.481 -0.0852 -0.0784 -0.6726
 7320SOL    HW122197   1.404   3.937   5.506 -1.1557  0.0280 -0.4316
 7320SOL    HW222198   1.489   4.036   5.430 -0.0420 -1.1656 -0.7802
 7321SOL     OW22199   1.158   1.924   5.440 -0.2734  0.2571 -0.0296
 7321SOL    HW122200   1.071   1.926   5.480  0.2535  0.9511  1.1347
 7321SOL    HW222201   1.211   1.873   5.502  0.5089  1.1438  0.0450
 7322SOL     OW22202   2.806   0.937   0.791 -0.4789  0.4548 -0.3373
 7322SOL    HW122203   2.771   0.902   0.874 -0.5211  0.0169 -0.5349
 7322SOL    HW222204   2.728   0.950   0.737 -0.5578  1.7696  0.0634
 7323SOL     OW22205   3.837   4.999   3.087  0.1124  0.1170 -0.3617
 7323SOL    HW122206   3.880   4.959   3.162 -0.2624  0.7990  0.2243
 7323SOL    HW222207   3.886   5.080   3.071 -0.5471  0.5764 -0.0890
 7324SOL     OW22208   3.059   1.684   3.722 -0.2216  0.1594 -0.5084
 7324SOL    HW122209   2.991   1.727   3.774 -1.5197 -2.1922 -0.1430
 7324SOL    HW222210   3.141   1.724   3.752 -1.2831  2.0051  0.1122
 7325SOL     OW22211   5.569   3.997   4.046 -0.0470  0.3485  0.4509
 7325SOL    HW122212   5.629   4.071   4.041  1.5265 -0.8400  0.7152
 7325SOL    HW222213   5.514   4.004   3.969  1.3680  0.7481 -0.5560
 7326SOL     OW22214   2.537   2.779   2.580 -0.3484 -0.3170  0.1244
 7326SOL    HW122215   2.505   2.831   2.654  0.3582 -2.8842  2.4308
 7326SOL    HW222216   2.458   2.756   2.531 -0.9210  0.9404  0.4172
 7327SOL     OW22217   4.973   1.623   3.243  0.5023  0.0704 -0.1336
 7327SOL    HW122218   4.944   1.635   3.152  2.2061  1.4465 -0.5383
 7327SOL    HW222219   4.926   1.690   3.292 -3.0463 -2.7514  0.7391
 7328SOL     OW22220   2.096   0.510   3.297  0.4940 -0.3323  0.3148
 7328SOL    HW122221   2.143   0.571   3.355 -0.0999 -0.0169  0.4762
 7328SOL    HW222222   2.018   0.558   3.270 -0.9508 -1.6559  1.9222
 7329SOL     OW22223   1.240   1.057   5.429  0.0127 -0.1103 -0.0694
 7329SOL    HW122224   1.224   1.004   5.350 -2.6171 -2.3642  1.7864
 7329SOL    HW222225   1.326   1.029   5.459 -0.0195 -1.0874 -0.8145
 7330SOL     OW22226   4.741   3.496   5.262  0.7293 -0.7098  0.4736
 7330SOL    HW122227   4.795   3.454   5.195 -0.2952  1.2159 -1.7076
 7330SOL    HW222228   4.799   3.560   5.303  0.5685  0.3741 -0.8988
 7331SOL     OW22229   4.675   2.274   4.859 -0.1438  0.1548  0.3652
 7331SOL    HW122230   4.586   2.261   4.892 -0.7730  0.2189 -1.2367
 7331SOL    HW222231   4.730   2.266   4.937 -1.3129 -2.3986  1.0547
 7332SOL     OW22232   1.562   1.862   4.170 -0.7316 -0.2874  0.7782
 7332SOL    HW122233   1.484   1.917   4.171 -0.2233  0.4657  0.1868
 7332SOL    HW222234   1.627   1.910   4.220 -0.7757 -1.1281  1.6621
 7333SOL     OW22235   3.156   4.751   2.434 -0.1092  0.8976  0.1103
 7333SOL    HW122236   3.150   4.758   2.339 -0.3187 -2.4394 -0.2454
 7333SOL    HW222237   3.240   4.708   2.449 -0.2393  1.0733  1.4138
 7334SOL     OW22238   2.212   5.142   2.809 -0.8645 -0.3830 -0.5191
 7334SOL    HW122239   2.154   5.213   2.782 -1.1741  0.1415  1.3633
 7334SOL    HW222240   2.285   5.145   2.747 -1.0245  1.3754 -0.6720
 7335SOL     OW22241   3.671   0.922   5.128  0.2602 -0.0538 -0.3759
 7335SOL    HW122242   3.707   1.009   5.108  0.0588  0.3709  1.0164
 7335SOL    HW222243   3.719   0.863   5.070 -0.6015  1.1253 -2.3940
 7336SOL     OW22244   3.385   1.474   5.031  0.3971  0.2221 -0.1993
 7336SOL    HW122245   3.379   1.387   4.992 -1.2638  1.3210 -2.6601
 7336SOL    HW222246   3.448   1.520   4.975 -1.9465  1.8104 -1.7317
 7337SOL     OW22247   3.308   5.412   4.424  0.0009 -0.0033  0.3215
 7337SOL    HW122248   3.355   5.336   4.390  0.5567  0.9347 -1.0813
 7337SOL    HW222249   3.216   5.395   4.404 -0.0253 -0.8208  1.0659
 7338SOL     OW22250   4.335   1.150   2.383 -0.9086  0.0907 -0.3014
 7338SOL    HW122251   4.291   1.079   2.337  0.5477 -0.3773 -1.0423
 7338SOL    HW222252   4.421   1.114   2.406 -0.2010  1.5479 -0.5454
 7339SOL     OW22253   2.747   3.784   4.844 -0.5598  0.4246  0.4445
 7339SOL    HW122254   2.693   3.828   4.909  0.5443  1.0217  0.9777
 7339SOL    HW222255   2.782   3.854   4.790 -0.9119 -0.0154 -0.3902
 7340SOL     OW22256   0.977   2.755   5.410  0.6865  0.0629 -0.1535
 7340SOL    HW122257   0.918   2.827   5.431  0.0040 -0.1955 -1.1206
 7340SOL    HW222258   0.988   2.708   5.492 -2.8227 -1.6048 -0.4307
 7341SOL     OW22259   5.927   5.606   1.278  0.8065 -0.0263 -0.3704
 7341SOL    HW122260   5.833   5.589   1.281  0.7889 -0.1969 -1.5440
 7341SOL    HW222261   5.959   5.551   1.207  1.9424 -0.6228  0.5610
 7342SOL     OW22262   4.916   5.879   1.765  0.1471  0.1891 -0.1616
 7342SOL    HW122263   4.909   5.955   1.707  2.5831  0.0966 -0.7029
 7342SOL    HW222264   4.887   5.805   1.711  1.0219  0.2993 -0.8073
 7343SOL     OW22265   3.399   3.798   0.308  0.6875  0.2307 -0.3093
 7343SOL    HW122266   3.396   3.848   0.227  0.2415 -2.6880 -2.2790
 7343SOL    HW222267   3.310   3.801   0.342  1.0321  2.0423  0.5297
 7344SOL     OW22268   0.446   1.422   3.348  0.1635  0.2664  0.2955
 7344SOL    HW122269   0.522   1.379   3.387 -0.1620 -0.0312  0.6149
 7344SOL    HW222270   0.395   1.452   3.424 -0.0181  0.4994  0.0834
 7345SOL     OW22271   4.440   0.242   0.193 -0.3802  0.4994  0.3024
 7345SOL    HW122272   4.522   0.203   0.221 -1.7032 -0.6063  2.9209
 7345SOL    HW222273   4.409   0.291   0.269 -1.8849  1.3865 -0.8179
 7346SOL     OW22274   5.164   0.950   3.616  0.0393  0.0336 -0.0511
 7346SOL    HW122275   5.155   0.885   3.685 -0.6950  2.0816  1.8781
 7346SOL    HW222276   5.076   0.985   3.604  0.5610  1.2587 -0.4491
 7347SOL     OW22277   4.469   0.909   0.397 -0.2708  0.4355 -0.4916
 7347SOL    HW122278   4.389   0.858   0.405 -0.3110  0.4251 -0.9507
 7347SOL    HW222279   4.441   1.000   0.405 -0.2297  0.3991  0.0929
 7348SOL     OW22280   0.416   2.390   3.550  0.1546  0.2787 -0.1533
 7348SOL    HW122281   0.503   2.357   3.529  0.5663  1.2058  0.0282
 7348SOL    HW222282   0.357   2.341   3.493  0.7151 -0.8148  0.1750
 7349SOL     OW22283   2.497   2.555   2.881  0.2439  0.0097 -0.2220
 7349SOL    HW122284   2.408   2.553   2.846 -0.3975  0.0170  1.3393
 7349SOL    HW222285   2.487   2.588   2.971  1.9506  1.0650 -0.3759
 7350SOL     OW22286   4.661   0.311   2.897 -0.1959 -0.2081  0.5028
 7350SOL    HW122287   4.727   0.306   2.827 -0.1894 -0.7009  0.5387
 7350SOL    HW222288   4.683   0.390   2.945 -0.1269  0.0734  0.0126
 7351SOL     OW22289   1.730   1.428   5.251  0.8126  0.1809 -0.0813
 7351SOL    HW122290   1.771   1.398   5.170 -0.7856 -0.4232 -0.7139
 7351SOL    HW222291   1.656   1.369   5.264  0.5029  0.8293  1.3480
 7352SOL     OW22292   2.912   4.752   3.570  0.1997 -0.5378 -0.0153
 7352SOL    HW122293   2.979   4.731   3.505  0.9836  0.6420  0.3756
 7352SOL    HW222294   2.864   4.826   3.533  0.9161  0.4147  0.9033
 7353SOL     OW22295   0.177   3.502   3.332 -0.1932  0.6328  0.1273
 7353SOL    HW122296   0.146   3.412   3.337  0.5483  0.3647  0.1092
 7353SOL    HW222297   0.229   3.506   3.252 -0.0639  1.0204  0.2245
 7354SOL     OW22298   1.783   5.655   5.947 -0.0446 -0.2398  0.5603
 7354SOL    HW122299   1.698   5.682   5.912  1.2661  1.3417 -1.6868
 7354SOL    HW222300   1.804   5.575   5.899  1.4118  1.5223 -1.9938
 7355SOL     OW22301   1.568   4.689   1.505 -0.1039 -0.1431 -0.4199
 7355SOL    HW122302   1.551   4.705   1.412 -2.4175 -0.1342 -0.0583
 7355SOL    HW222303   1.660   4.663   1.509  0.7611  2.2061 -2.4020
 7356SOL     OW22304   0.798   0.991   1.235 -0.0883 -0.2619  0.5717
 7356SOL    HW122305   0.892   0.980   1.249 -0.0472 -1.5439 -0.4256
 7356SOL    HW222306   0.789   0.998   1.139 -0.9517  0.5579  0.6999
 7357SOL     OW22307   5.654   5.980   4.373 -0.1494  0.4721 -0.3147
 7357SOL    HW122308   5.662   5.982   4.278  0.5044  1.9202 -0.2684
 7357SOL    HW222309   5.744   5.976   4.404 -0.1029  3.4116  0.2130
 7358SOL     OW22310   1.204   4.812   4.571 -0.2520  0.5561  0.0354
 7358SOL    HW122311   1.114   4.820   4.603 -0.1419 -1.4268  0.9861
 7358SOL    HW222312   1.202   4.737   4.511  1.1077 -0.8627  1.6664
 7359SOL     OW22313   0.024   1.306   3.109 -0.4708  0.2531  0.2655
 7359SOL    HW122314   0.078   1.312   3.188  2.7385  1.0548 -1.8499
 7359SOL    HW222315   0.062   1.234   3.059 -1.2718  0.9215 -1.3692
 7360SOL     OW22316   6.111   2.261   4.374  0.1213 -0.4135 -0.1441
 7360SOL    HW122317   6.077   2.332   4.430  1.6556  0.2049  0.0578
 7360SOL    HW222318   6.190   2.298   4.335  0.3848 -1.6803 -0.8443
 7361SOL     OW22319   1.802   5.077   0.285 -0.5698 -0.1075 -1.2566
 7361SOL    HW122320   1.843   5.156   0.320 -2.3522  0.4096 -0.2328
 7361SOL    HW222321   1.710   5.084   0.309 -0.2661 -4.3521  2.3732
 7362SOL     OW22322   1.496   2.374   3.637 -0.0839  0.2088  0.3279
 7362SOL    HW122323   1.541   2.375   3.722  0.1325 -0.3544  0.2205
 7362SOL    HW222324   1.471   2.283   3.624  1.6733 -0.1082 -1.1495
 7363SOL     OW22325   0.684   3.375   5.231  0.0007  0.6556 -0.2880
 7363SOL    HW122326   0.747   3.382   5.303  0.7558  0.7899 -0.9526
 7363SOL    HW222327   0.700   3.289   5.193  0.0782  0.8656 -0.7309
 7364SOL     OW22328   4.973   3.064   5.423  0.8230  0.3163  0.2888
 7364SOL    HW122329   4.887   3.050   5.385  1.3660  1.1804 -1.3785
 7364SOL    HW222330   5.033   3.016   5.365  1.7944  2.5676 -0.6876
 7365SOL     OW22331   4.509   5.812   3.548  0.2998  0.2967 -0.1244
 7365SOL    HW122332   4.470   5.730   3.576 -1.5463  1.2074  0.0802
 7365SOL    HW222333   4.518   5.803   3.453 -1.1830  0.3689 -0.2849
 7366SOL     OW22334   0.831   2.554   1.152 -0.0501  0.3083  0.3021
 7366SOL    HW122335   0.856   2.553   1.245 -2.9178 -0.4554  1.1419
 7366SOL    HW222336   0.760   2.618   1.146  0.4523  0.7731 -1.5259
 7367SOL     OW22337   5.616   1.584   5.311 -0.1930  0.1623  0.0543
 7367SOL    HW122338   5.648   1.582   5.221  0.1449  0.9084  0.1519
 7367SOL    HW222339   5.536   1.637   5.307  0.6035  1.4124  0.4257
 7368SOL     OW22340   1.165   3.764   1.683  0.2792 -0.2649  0.3219
 7368SOL    HW122341   1.081   3.726   1.708  0.4163  0.0076  1.2055
 7368SOL    HW222342   1.230   3.698   1.706  0.3459 -0.2997  0.0375
 7369SOL     OW22343   5.860   5.369   1.498  0.5040  0.4430 -0.3075
 7369SOL    HW122344   5.838   5.401   1.586  3.0685  0.5697  0.3428
 7369SOL    HW222345   5.915   5.437   1.461  0.3993 -0.1497 -1.5985
 7370SOL     OW22346   1.573   0.018   3.789  0.1431  0.5722  0.4039
 7370SOL    HW122347   1.601  -0.032   3.865  0.5384  0.1161 -0.0358
 7370SOL    HW222348   1.516   0.086   3.825 -0.8539 -0.5246  0.9585
 7371SOL     OW22349   2.837   1.890   0.608 -0.5651 -0.2844  0.3450
 7371SOL    HW122350   2.849   1.948   0.533  2.3339 -0.4467  0.5725
 7371SOL    HW222351   2.839   1.949   0.684  1.0219 -0.4918  0.4968
 7372SOL     OW22352   3.953   2.581   4.473 -0.2405 -0.4062 -0.5408
 7372SOL    HW122353   3.950   2.565   4.379  1.7676 -0.6970 -0.6020
 7372SOL    HW222354   4.003   2.508   4.508  2.0876  1.4364  0.2473
 7373SOL     OW22355   6.110   3.203   4.621 -0.1992 -0.2945 -0.0574
 7373SOL    HW122356   6.037   3.182   4.679  0.6132  0.2812  1.2189
 7373SOL    HW222357   6.106   3.298   4.611  1.7181  0.0815  1.9791
 7374SOL     OW22358   5.734   2.798   4.117  0.2240  0.2700  0.4663
 7374SOL    HW122359   5.737   2.881   4.070  0.3434  0.6614  1.1418
 7374SOL    HW222360   5.802   2.806   4.184 -0.0983 -0.1748  0.8595
 7375SOL     OW22361   1.619   5.672   4.616 -0.1538 -0.2959  0.4148
 7375SOL    HW122362   1.533   5.706   4.637  0.3608  0.6441  1.0780
 7375SOL    HW222363   1.649   5.629   4.696  0.3851  0.2182  0.4927
 7376SOL     OW22364   5.618   0.062   0.398 -0.2340 -0.0400 -0.1628
 7376SOL    HW122365   5.605  -0.004   0.467  0.0462  0.0691 -0.0034
 7376SOL    HW222366   5.542   0.119   0.405 -0.1845 -0.0033  0.0866
 7377SOL     OW22367   2.498   0.192   0.085  0.1771 -0.4423  0.3959
 7377SOL    HW122368   2.460   0.107   0.063  0.7144 -0.5551 -0.0989
 7377SOL    HW222369   2.573   0.201   0.027  0.8568 -0.1734  1.2890
 7378SOL     OW22370   0.727   4.034   3.609 -0.4640  0.1624  0.0455
 7378SOL    HW122371   0.648   3.983   3.593 -1.1930  0.6837  1.7498
 7378SOL    HW222372   0.709   4.082   3.690  1.6385  0.2182  0.5382
 7379SOL     OW22373   4.229   2.057   4.280 -0.0649  0.1451 -0.4509
 7379SOL    HW122374   4.141   2.092   4.269 -0.1034 -0.1012 -0.9506
 7379SOL    HW222375   4.285   2.113   4.227 -0.1682 -0.6876 -1.4858
 7380SOL     OW22376   1.766   5.838   4.135  0.3069  0.0001  0.1433
 7380SOL    HW122377   1.860   5.829   4.126  0.4776  1.3453  0.3569
 7380SOL    HW222378   1.749   5.823   4.228  0.2058 -0.9309 -0.0145
 7381SOL     OW22379   3.012   0.750   3.368 -0.6658 -0.0221  0.4888
 7381SOL    HW122380   2.935   0.694   3.360 -1.2917  1.0276 -1.3203
 7381SOL    HW222381   2.977   0.839   3.364  0.5478  0.4892  0.8637
 7382SOL     OW22382   5.106   5.254   5.770  0.4994  0.8723  0.5399
 7382SOL    HW122383   5.184   5.231   5.821  0.4713 -0.5828 -0.0277
 7382SOL    HW222384   5.110   5.350   5.763  1.5454  0.9360  1.5907
 7383SOL     OW22385   3.007   1.488   2.055  0.3511  0.1528 -0.4895
 7383SOL    HW122386   3.070   1.512   1.987  0.8917  2.3354  0.7229
 7383SOL    HW222387   3.058   1.484   2.135 -0.5654 -0.9269  0.0719
 7384SOL     OW22388   5.673   0.485   5.627 -0.4678  0.1244  0.7269
 7384SOL    HW122389   5.584   0.469   5.595 -0.1935 -1.0468  0.4760
 7384SOL    HW222390   5.670   0.457   5.718 -0.1461 -0.7929  0.4691
 7385SOL     OW22391   0.731   1.495   6.047 -0.0047 -0.0228  0.3038
 7385SOL    HW122392   0.726   1.536   6.133 -1.3938  0.9732 -0.2188
 7385SOL    HW222393   0.800   1.429   6.056  1.7918  1.8789  1.4088
 7386SOL     OW22394   0.717   3.679   4.251 -0.1481 -0.5148  0.0062
 7386SOL    HW122395   0.698   3.742   4.182 -0.8871  2.7294  2.8776
 7386SOL    HW222396   0.631   3.644   4.275  0.1921 -2.2598 -1.1442
 7387SOL     OW22397   3.276   1.808   0.421  0.6307 -0.2123 -0.2786
 7387SOL    HW122398   3.307   1.849   0.502 -2.1322 -0.9562  1.3130
 7387SOL    HW222399   3.276   1.714   0.440 -1.2227 -0.3193 -0.6121
 7388SOL     OW22400   5.997   5.782   3.431  0.7935  0.0307 -0.7086
 7388SOL    HW122401   6.059   5.854   3.425 -0.9709  1.7376  0.2626
 7388SOL    HW222402   5.999   5.741   3.345 -0.7288  3.5557 -2.6386
 7389SOL     OW22403   4.104   3.557   3.226  0.0735 -0.4523 -0.4676
 7389SOL    HW122404   4.197   3.532   3.221  0.5497  0.9135  0.6740
 7389SOL    HW222405   4.105   3.653   3.227 -1.2681 -0.4184  0.6500
 7390SOL     OW22406   5.306   0.049   2.634 -0.4435 -0.1541 -0.0520
 7390SOL    HW122407   5.303  -0.044   2.655  0.3160 -0.1690  0.0317
 7390SOL    HW222408   5.225   0.085   2.671 -0.1798 -0.5746  0.9591
 7391SOL     OW22409   0.184   0.715   4.377 -0.0514 -0.2159 -0.0323
 7391SOL    HW122410   0.131   0.643   4.412 -1.8117  1.1774  0.2858
 7391SOL    HW222411   0.135   0.747   4.302 -0.0898  1.5992  0.7081
 7392SOL     OW22412   4.267   0.233   1.175 -0.0768 -0.2069 -0.1368
 7392SOL    HW122413   4.312   0.253   1.257 -2.0733 -0.9916  1.2371
 7392SOL    HW222414   4.311   0.154   1.143  1.1405  0.4698 -0.1949
 7393SOL     OW22415   3.143   5.161   0.447 -0.2198  0.5249  0.0768
 7393SOL    HW122416   3.053   5.175   0.477  0.1813  0.0813  1.6063
 7393SOL    HW222417   3.161   5.234   0.388 -1.1941  1.2614  0.6633
 7394SOL     OW22418   1.876   1.741   1.943 -0.3139  0.3660  0.0636
 7394SOL    HW122419   1.811   1.708   1.881 -1.3603  0.0166  1.2867
 7394SOL    HW222420   1.913   1.819   1.901 -2.4089  1.2981 -0.1677
 7395SOL     OW22421   5.110   6.044   4.329 -0.0291 -0.0912  0.1007
 7395SOL    HW122422   5.115   5.979   4.260 -0.6785 -1.2142  1.0712
 7395SOL    HW222423   5.018   6.071   4.330 -0.0041 -0.0138  0.4538
 7396SOL     OW22424   5.433   4.142   5.099 -0.0909  0.2858  0.7077
 7396SOL    HW122425   5.367   4.091   5.053 -0.0776  1.0116 -0.1455
 7396SOL    HW222426   5.389   4.169   5.180 -0.6319  0.2429  0.4376
 7397SOL     OW22427   3.254   2.618   1.300 -0.0069 -0.1750 -0.1678
 7397SOL    HW122428   3.264   2.704   1.341 -1.6931  0.4354 -0.9389
 7397SOL    HW222429   3.343   2.588   1.285  0.6699  2.2133 -1.4566
 7398SOL     OW22430   0.231   0.591   2.833  0.1294  0.3069 -0.6344
 7398SOL    HW122431   0.166   0.565   2.899  1.5728  2.0951  1.6588
 7398SOL    HW222432   0.253   0.511   2.787 -0.4245 -1.1967  1.5704
 7399SOL     OW22433   0.069   0.156   2.240 -0.3282  0.5754 -0.2672
 7399SOL    HW122434   0.089   0.202   2.322 -0.6331  1.0224 -0.4390
 7399SOL    HW222435   0.047   0.067   2.267  1.6776  0.1060 -0.0527
 7400SOL     OW22436   1.500   4.092   4.766 -0.0211 -0.2559  0.2099
 7400SOL    HW122437   1.436   4.055   4.705 -1.6022 -0.4102  1.8525
 7400SOL    HW222438   1.495   4.187   4.751  0.3204 -0.3520 -0.5449
 7401SOL     OW22439   2.112   1.224   0.986  0.1176  0.4035  0.4016
 7401SOL    HW122440   2.116   1.173   0.905 -0.6271  2.0393 -0.7279
 7401SOL    HW222441   2.050   1.176   1.041 -0.2686 -0.1284 -0.4700
 7402SOL     OW22442   2.167   4.749   0.819  0.1367  0.2257 -0.8343
 7402SOL    HW122443   2.082   4.792   0.811  0.0583  0.0886 -0.7405
 7402SOL    HW222444   2.149   4.657   0.799  0.2035  0.1370 -0.4861
 7403SOL     OW22445   1.988   2.898   5.831 -0.5031 -0.0986  0.0706
 7403SOL    HW122446   2.072   2.854   5.841 -1.8783 -3.0678 -0.4771
 7403SOL    HW222447   1.967   2.890   5.738 -1.1921  1.0428  0.0999
 7404SOL     OW22448   1.604   1.409   2.021  0.2484  0.2817  0.5099
 7404SOL    HW122449   1.694   1.411   2.054 -0.3729 -1.8137  2.6305
 7404SOL    HW222450   1.572   1.322   2.043 -1.5158 -0.0275 -2.5580
 7405SOL     OW22451   5.657   3.274   0.122 -0.2042 -0.5264  0.3560
 7405SOL    HW122452   5.657   3.358   0.075  1.3330 -0.2270  0.8351
 7405SOL    HW222453   5.627   3.210   0.057 -1.9633  0.4589  0.1556
 7406SOL     OW22454   2.779   5.483   4.790 -0.0169  0.6784  0.0844
 7406SOL    HW122455   2.750   5.566   4.751  0.3610  0.5676 -0.4408
 7406SOL    HW222456   2.777   5.421   4.718  0.4240  0.4049  0.3052
 7407SOL     OW22457   1.298   2.691   4.356  0.3122  0.1364 -0.0939
 7407SOL    HW122458   1.253   2.655   4.433  0.8322 -1.3966 -0.4699
 7407SOL    HW222459   1.229   2.739   4.310 -0.3175 -0.0070  0.6553
 7408SOL     OW22460   3.849   5.318   4.927  0.0548 -0.4565  0.2050
 7408SOL    HW122461   3.928   5.277   4.893  0.1568  0.4549 -0.7145
 7408SOL    HW222462   3.845   5.403   4.883 -1.6284 -0.6245 -0.0377
 7409SOL     OW22463   3.573   5.325   3.250 -0.6700 -0.1009  0.2600
 7409SOL    HW122464   3.487   5.367   3.257 -1.2906 -1.4511  1.1519
 7409SOL    HW222465   3.588   5.317   3.156 -1.4972  0.1768  0.0948
 7410SOL     OW22466   3.467   2.351   0.963 -1.1742  0.4719 -0.1437
 7410SOL    HW122467   3.544   2.405   0.946 -1.2182  0.9436  1.0298
 7410SOL    HW222468   3.393   2.406   0.937 -1.1509  0.3233 -0.5284
 7411SOL     OW22469   1.326   1.012   1.318  0.1731 -0.1205  0.5721
 7411SOL    HW122470   1.404   0.959   1.332  0.5033  0.4441  0.8702
 7411SOL    HW222471   1.350   1.099   1.348  0.4750  0.8229 -2.1504
 7412SOL     OW22472   5.744   1.251   0.183  0.1906 -0.0596 -0.0954
 7412SOL    HW122473   5.836   1.253   0.157  0.3100 -0.6537  0.2877
 7412SOL    HW222474   5.730   1.335   0.226  1.3616 -1.1386  2.5846
 7413SOL     OW22475   2.668   5.530   6.141 -0.4709  0.5041  0.1023
 7413SOL    HW122476   2.581   5.568   6.126 -0.2372  1.0790  0.1833
 7413SOL    HW222477   2.718   5.557   6.064 -0.0037  1.2571  0.6609
 7414SOL     OW22478   2.615   2.474   3.778 -0.2282  0.0893  0.1051
 7414SOL    HW122479   2.669   2.527   3.838 -1.4140  1.5539 -0.0668
 7414SOL    HW222480   2.668   2.396   3.761  1.3383  0.9413  0.8436
 7415SOL     OW22481   4.395   0.337   0.448  0.0344  0.0701  0.1353
 7415SOL    HW122482   4.341   0.341   0.527 -0.4780 -1.9679 -0.0541
 7415SOL    HW222483   4.403   0.428   0.419 -2.6695  0.5143  0.5905
 7416SOL     OW22484   5.686   2.276   1.972  0.3104 -0.1090  0.4148
 7416SOL    HW122485   5.710   2.277   1.879 -2.6810  0.3068 -0.4564
 7416SOL    HW222486   5.753   2.330   2.015  1.7090 -0.2410 -1.4966
 7417SOL     OW22487   4.139   0.650   1.170  0.3280  0.4570 -0.1206
 7417SOL    HW122488   4.190   0.590   1.115  1.8315  0.8701  0.7643
 7417SOL    HW222489   4.098   0.593   1.235 -0.1173  0.1558 -0.6517
 7418SOL     OW22490   3.193   1.465   1.862  0.4636  0.0591  0.1415
 7418SOL    HW122491   3.288   1.455   1.873  0.1549 -1.2916  2.0769
 7418SOL    HW222492   3.173   1.408   1.788  1.1857  0.6245 -0.5130
 7419SOL     OW22493   0.546   1.871   5.342  0.3728  0.3462  0.4251
 7419SOL    HW122494   0.561   1.962   5.368 -0.8092  0.7068 -0.0770
 7419SOL    HW222495   0.466   1.846   5.388 -0.0562  0.0162 -0.4745
 7420SOL     OW22496   1.709   2.135   5.817 -0.1038  0.0235  0.0464
 7420SOL    HW122497   1.627   2.088   5.798 -0.0444 -0.0565 -0.0119
 7420SOL    HW222498   1.767   2.067   5.852 -0.8657  0.5042  2.4929
 7421SOL     OW22499   6.140   5.699   1.561 -0.0581  0.2836 -1.0145
 7421SOL    HW122500   6.197   5.757   1.510  1.8609  1.9201  2.5718
 7421SOL    HW222501   6.053   5.712   1.524  0.8654  2.8506 -2.5549
 7422SOL     OW22502   4.731   2.028   0.512  0.5881  0.2713 -0.2490
 7422SOL    HW122503   4.723   1.952   0.570  0.9528  1.7677  1.8861
 7422SOL    HW222504   4.702   1.997   0.427 -0.4808 -1.9134  0.8412
 7423SOL     OW22505   6.124   4.188   1.797  0.0319 -0.1471 -0.0313
 7423SOL    HW122506   6.158   4.230   1.876  0.5491  1.9720 -1.3241
 7423SOL    HW222507   6.040   4.230   1.781  0.3063  0.0496 -1.0482
 7424SOL     OW22508   5.825   3.028   1.075 -0.0298 -0.1739 -0.0276
 7424SOL    HW122509   5.864   3.095   1.018  0.7885 -0.9030 -0.3355
 7424SOL    HW222510   5.773   2.974   1.015  1.0111 -1.0777 -0.1437
 7425SOL     OW22511   3.346   0.120   3.369  0.3086 -0.7108 -0.0837
 7425SOL    HW122512   3.307   0.207   3.361  0.4045 -0.7504 -1.0921
 7425SOL    HW222513   3.303   0.068   3.302  1.3548 -1.0192 -0.5423
 7426SOL     OW22514   3.840   3.835   5.543  0.3160  0.8213 -0.1217
 7426SOL    HW122515   3.818   3.742   5.537 -0.8853  1.1731 -1.8230
 7426SOL    HW222516   3.779   3.870   5.609 -1.0545  0.8470 -1.3358
 7427SOL     OW22517   2.669   5.911   0.015  0.6753  0.0048  0.1732
 7427SOL    HW122518   2.763   5.893   0.017  1.0119  1.3643 -1.2861
 7427SOL    HW222519   2.653   5.960   0.096  1.5542  1.0515 -0.2448
 7428SOL     OW22520   1.110   0.075   4.708  0.6301  0.3693  0.2681
 7428SOL    HW122521   1.175   0.084   4.638  0.1779 -0.7099 -0.3138
 7428SOL    HW222522   1.073   0.163   4.718  1.7529  0.8637  0.2038
 7429SOL     OW22523   1.086   0.247   4.074  0.1130 -0.9923  0.3918
 7429SOL    HW122524   1.119   0.175   4.021 -0.5161 -1.4703  0.6353
 7429SOL    HW222525   1.098   0.325   4.020 -0.1079 -1.4128 -0.2704
 7430SOL     OW22526   2.898   4.546   2.448  0.2857  0.2638 -0.5899
 7430SOL    HW122527   2.897   4.459   2.408  1.1204  0.6074 -1.4043
 7430SOL    HW222528   2.843   4.599   2.390  0.8034  0.5616 -0.8208
 7431SOL     OW22529   5.595   5.718   5.499 -0.1829 -0.1756  0.1692
 7431SOL    HW122530   5.592   5.676   5.585  1.0577 -0.4830  0.0809
 7431SOL    HW222531   5.555   5.654   5.440 -0.1440 -0.3770  0.3598
 7432SOL     OW22532   5.019   3.531   4.281  0.7320  0.2628 -0.4359
 7432SOL    HW122533   5.050   3.528   4.191  0.1290  2.8920 -0.8032
 7432SOL    HW222534   5.078   3.593   4.324  0.5531 -0.3955  0.8066
 7433SOL     OW22535   2.511   3.668   2.297 -0.3701 -0.0052  0.1296
 7433SOL    HW122536   2.571   3.700   2.364 -0.7263  1.2878 -0.1466
 7433SOL    HW222537   2.521   3.573   2.301 -0.0167  0.0572  1.6666
 7434SOL     OW22538   4.008   2.827   5.447  0.0114 -0.6576 -0.1523
 7434SOL    HW122539   4.073   2.859   5.384 -0.3561 -1.9637 -1.2277
 7434SOL    HW222540   4.055   2.763   5.499  0.1270 -0.0788  0.4706
 7435SOL     OW22541   2.124   3.402   2.627  0.5172 -0.4374 -0.3836
 7435SOL    HW122542   2.162   3.423   2.712  1.7636 -0.9906 -0.7841
 7435SOL    HW222543   2.170   3.458   2.565 -0.0432 -0.3843 -0.7586
 7436SOL     OW22544   2.784   4.049   1.401  0.0151 -0.4453 -0.2408
 7436SOL    HW122545   2.811   4.020   1.488 -2.0879 -0.9300  0.2988
 7436SOL    HW222546   2.713   4.111   1.418  0.2944  0.2715 -1.5935
 7437SOL     OW22547   1.319   3.630   5.294 -0.1339 -0.0729  0.1162
 7437SOL    HW122548   1.316   3.665   5.205  2.1910 -0.1503 -0.0672
 7437SOL    HW222549   1.231   3.643   5.328 -1.1667 -0.2761 -2.2704
 7438SOL     OW22550   2.335   2.129   1.994  0.7260 -0.1001  0.2434
 7438SOL    HW122551   2.396   2.133   1.921  1.0178 -2.0288  0.3407
 7438SOL    HW222552   2.390   2.138   2.072  0.5877  0.4488  0.2864
 7439SOL     OW22553   0.847   2.133   0.883  0.2797 -0.2030  0.0694
 7439SOL    HW122554   0.853   2.201   0.949  0.3700  0.2947 -0.4413
 7439SOL    HW222555   0.836   2.052   0.932 -1.5438  0.3507  0.6672
 7440SOL     OW22556   2.596   3.334   5.227 -0.1088  0.1034  0.1964
 7440SOL    HW122557   2.510   3.374   5.237 -0.0213  0.2241  0.4812
 7440SOL    HW222558   2.619   3.303   5.314  0.5441  0.9157  0.3199
 7441SOL     OW22559   1.434   3.163   1.802 -0.0139  0.1548  0.7330
 7441SOL    HW122560   1.504   3.224   1.781 -0.1496  0.5180  1.3229
 7441SOL    HW222561   1.393   3.143   1.718 -0.6057  1.6440  0.6398
 7442SOL     OW22562   3.887   0.085   2.687 -0.1701  0.2977  0.2847
 7442SOL    HW122563   3.872  -0.003   2.653 -0.8465 -0.3149  2.0265
 7442SOL    HW222564   3.811   0.102   2.742  0.3060  1.6820  0.5486
 7443SOL     OW22565   4.397   4.127   5.532  0.2348  0.4269  0.3968
 7443SOL    HW122566   4.427   4.211   5.568 -1.5843  0.1357  2.8892
 7443SOL    HW222567   4.325   4.151   5.474 -0.1856  0.6426  0.9898
 7444SOL     OW22568   5.261   1.396   5.079  0.4814 -0.1228 -0.3445
 7444SOL    HW122569   5.311   1.399   4.997  0.6388 -0.2086 -0.2521
 7444SOL    HW222570   5.203   1.472   5.074 -0.8442 -1.1425 -1.3905
 7445SOL     OW22571   4.134   2.654   5.009 -0.1954 -0.5959 -0.5319
 7445SOL    HW122572   4.220   2.614   5.001  0.5770  0.6364  0.9389
 7445SOL    HW222573   4.106   2.670   4.918  0.4152 -2.3875 -1.0669
 7446SOL     OW22574   5.736   3.276   5.572 -0.6074  0.0494  0.4207
 7446SOL    HW122575   5.760   3.368   5.585 -2.6555  0.6995  0.0198
 7446SOL    HW222576   5.799   3.227   5.624  1.7271  1.5249 -0.8264
 7447SOL     OW22577   3.406   2.508   0.543 -0.4445 -0.2054  0.1149
 7447SOL    HW122578   3.491   2.466   0.533 -0.6502 -0.5974 -0.0150
 7447SOL    HW222579   3.395   2.559   0.462 -1.1030 -1.5580 -0.6679
 7448SOL     OW22580   3.662   5.464   1.231  0.2371  0.1091 -0.0660
 7448SOL    HW122581   3.676   5.483   1.138 -0.0102 -0.5694 -0.2493
 7448SOL    HW222582   3.633   5.373   1.232  1.1502 -0.1905  0.7582
 7449SOL     OW22583   0.514   2.878   4.070 -0.0413 -0.0521 -0.1218
 7449SOL    HW122584   0.541   2.903   4.158  0.5063 -0.0332 -0.2953
 7449SOL    HW222585   0.590   2.894   4.015 -1.0835  2.1347 -1.0190
 7450SOL     OW22586   2.834   1.182   0.421  0.2736  0.2377 -0.1527
 7450SOL    HW122587   2.746   1.219   0.417 -0.0573 -0.4685  0.3874
 7450SOL    HW222588   2.855   1.160   0.330 -0.2540  0.0570 -0.2302
 7451SOL     OW22589   4.522   1.134   0.737  0.1335 -0.3143  0.1477
 7451SOL    HW122590   4.547   1.045   0.763 -1.0678 -0.2578  1.6358
 7451SOL    HW222591   4.583   1.156   0.666  0.1191 -2.5147 -0.6373
 7452SOL     OW22592   1.664   3.106   2.895  0.1939  0.5723  0.0522
 7452SOL    HW122593   1.692   3.124   2.985 -0.7400 -0.0316  0.4768
 7452SOL    HW222594   1.571   3.128   2.893  0.0022 -0.2304 -0.5220
 7453SOL     OW22595   5.826   3.465   3.052 -0.3533  0.0876 -0.0446
 7453SOL    HW122596   5.882   3.393   3.079  0.3548  0.7148  0.1645
 7453SOL    HW222597   5.764   3.424   2.991  0.7277 -0.4828 -0.7894
 7454SOL     OW22598   3.088   2.035   5.441  0.3291 -0.0600  0.3670
 7454SOL    HW122599   3.053   1.970   5.501  1.0611 -0.6471  0.1746
 7454SOL    HW222600   3.111   1.985   5.362 -0.2636  0.6356 -0.2635
 7455SOL     OW22601   2.823   2.140   1.059 -0.2616  0.6885  0.4288
 7455SOL    HW122602   2.732   2.153   1.088 -0.5121  0.7147 -0.3379
 7455SOL    HW222603   2.836   2.045   1.061 -0.2890  0.6879  0.5881
 7456SOL     OW22604   3.649   0.090   2.833 -0.2433  0.3025 -0.0899
 7456SOL    HW122605   3.597   0.144   2.893  0.2197  0.0421  0.5566
 7456SOL    HW222606   3.622   0.000   2.851  0.6043  0.1410  0.4458
 7457SOL     OW22607   1.362   5.940   1.860  0.7442  0.6894 -0.5225
 7457SOL    HW122608   1.313   5.895   1.792  2.0550 -1.3025 -0.2309
 7457SOL    HW222609   1.327   5.904   1.942  4.0136 -2.5688 -0.2990
 7458SOL     OW22610   5.897   4.457   5.720  0.0237  0.0439  0.0093
 7458SOL    HW122611   5.856   4.400   5.785  0.3386 -1.5941 -1.1648
 7458SOL    HW222612   5.953   4.515   5.771 -0.3944 -0.6118  1.2575
 7459SOL     OW22613   5.540   0.283   3.832 -0.0876 -0.2438  0.1896
 7459SOL    HW122614   5.580   0.280   3.919 -0.4456  1.1901  0.4308
 7459SOL    HW222615   5.545   0.193   3.800  1.5965 -0.4614  0.9846
 7460SOL     OW22616   2.167   4.793   1.601 -0.0434 -0.4044  0.2401
 7460SOL    HW122617   2.206   4.756   1.680  2.5679 -2.2913 -1.7472
 7460SOL    HW222618   2.131   4.718   1.554  0.2270  0.3436 -1.2441
 7461SOL     OW22619   0.480   2.095   1.444 -0.4750 -0.5323  0.0416
 7461SOL    HW122620   0.402   2.139   1.411 -0.0409  0.5364  0.4138
 7461SOL    HW222621   0.446   2.018   1.491 -1.2928 -0.1575  0.0771
 7462SOL     OW22622   4.768   0.043   0.647  0.1014  0.3721 -0.2609
 7462SOL    HW122623   4.750  -0.035   0.594 -1.8874  1.1463 -0.8300
 7462SOL    HW222624   4.725   0.114   0.600 -1.8894  1.0852  2.3845
 7463SOL     OW22625   3.365   1.196   5.651 -0.0152  0.1186 -0.0932
 7463SOL    HW122626   3.300   1.215   5.718  0.5232 -2.1570  1.1681
 7463SOL    HW222627   3.317   1.148   5.584 -0.1351  0.6531 -0.3972
 7464SOL     OW22628   5.155   1.677   2.890  0.3387 -0.3184  0.2925
 7464SOL    HW122629   5.211   1.646   2.961 -0.5024 -2.7909 -0.0369
 7464SOL    HW222630   5.184   1.629   2.813 -0.7401  0.0510 -0.3748
 7465SOL     OW22631   3.521   1.979   1.237  0.0266  0.0043 -0.0401
 7465SOL    HW122632   3.563   1.895   1.214  0.8210 -0.0721  1.5480
 7465SOL    HW222633   3.431   1.970   1.205  0.3362 -1.1079 -0.6749
 7466SOL     OW22634   4.991   0.556   2.848  0.0909 -0.1133 -0.1680
 7466SOL    HW122635   4.901   0.582   2.827  0.3181  0.3293 -0.6169
 7466SOL    HW222636   5.029   0.532   2.763  0.0628 -1.3903  0.1618
 7467SOL     OW22637   0.634   4.149   4.387 -0.2133 -0.4662  0.5629
 7467SOL    HW122638   0.612   4.155   4.295  1.1063  2.0081  0.3224
 7467SOL    HW222639   0.562   4.193   4.432  0.4469  0.8399  0.4125
 7468SOL     OW22640   4.859   5.104   2.380 -0.2257  0.2049 -0.3921
 7468SOL    HW122641   4.872   5.042   2.451  0.2708 -1.3770 -1.7940
 7468SOL    HW222642   4.930   5.168   2.390 -1.4429  1.3403  1.7696
 7469SOL     OW22643   4.276   5.517   0.440 -0.3773  0.5195 -0.0829
 7469SOL    HW122644   4.275   5.432   0.482  1.8271  0.6495  0.3390
 7469SOL    HW222645   4.257   5.579   0.510 -1.6574  0.4395 -0.3273
 7470SOL     OW22646   6.012   1.202   1.684  0.1309  0.3283  0.2581
 7470SOL    HW122647   5.929   1.247   1.668 -0.0670 -0.1552 -0.1061
 7470SOL    HW222648   6.079   1.268   1.667 -0.1426  0.3598 -0.7446
 7471SOL     OW22649   4.447   1.399   5.646  0.4877 -0.1137  0.4229
 7471SOL    HW122650   4.442   1.335   5.574 -1.0656 -2.3375  2.3428
 7471SOL    HW222651   4.393   1.472   5.616  0.3244 -0.7347 -0.8924
 7472SOL     OW22652   0.783   4.651   3.996  0.0184 -0.2397 -0.1503
 7472SOL    HW122653   0.795   4.642   4.090 -0.4212 -1.1788 -0.1746
 7472SOL    HW222654   0.711   4.712   3.987 -1.4023 -1.7916  0.1949
 7473SOL     OW22655   0.655   3.324   1.915 -0.6202 -0.3775  0.2843
 7473SOL    HW122656   0.738   3.320   1.867 -1.4804  1.3068 -1.4667
 7473SOL    HW222657   0.608   3.245   1.888 -0.0501 -0.7743  0.4266
 7474SOL     OW22658   4.949   4.002   4.850  0.6870 -0.3083 -0.0869
 7474SOL    HW122659   4.925   3.933   4.912  1.4030  1.1514  1.9105
 7474SOL    HW222660   4.875   4.062   4.852  0.9532  0.0254 -0.2158
 7475SOL     OW22661   2.812   0.158   4.939  0.5297  0.8876  0.1058
 7475SOL    HW122662   2.828   0.141   5.031 -0.5898  0.0441  0.1708
 7475SOL    HW222663   2.820   0.253   4.929 -0.4039  1.1182  1.2983
 7476SOL     OW22664   4.033   5.693   4.303  0.9529 -0.1553 -0.9667
 7476SOL    HW122665   4.046   5.598   4.307 -0.8708 -0.3953  0.8244
 7476SOL    HW222666   3.940   5.705   4.318  1.2708  1.9740 -0.4019
 7477SOL     OW22667   4.815   2.852   0.029  0.7054  0.3317  0.4245
 7477SOL    HW122668   4.764   2.860  -0.052 -0.2177 -1.1605  0.8186
 7477SOL    HW222669   4.799   2.934   0.076  1.3003  1.2362 -0.9127
 7478SOL     OW22670   1.520   2.961   1.097  0.1517 -0.0955 -0.2085
 7478SOL    HW122671   1.484   2.884   1.141  0.2049  0.3128  0.5504
 7478SOL    HW222672   1.458   3.031   1.116  2.1035  1.0388  2.5237
 7479SOL     OW22673   2.525   0.970   5.863  0.2064  0.7720 -0.0571
 7479SOL    HW122674   2.529   0.906   5.933  2.4386 -1.1193 -1.7775
 7479SOL    HW222675   2.483   1.047   5.903  0.3190 -0.6097  2.9486
 7480SOL     OW22676   2.732   3.861   3.049  0.4720  0.1761  0.1325
 7480SOL    HW122677   2.774   3.938   3.010  0.7883 -0.4448 -0.7919
 7480SOL    HW222678   2.799   3.823   3.105  0.4911  0.2925  0.1879
 7481SOL     OW22679   5.857   3.651   5.193  0.6865  0.1004  0.4375
 7481SOL    HW122680   5.904   3.582   5.146 -1.2378  0.4949 -2.3201
 7481SOL    HW222681   5.917   3.725   5.193  1.4801 -0.5308  0.3718
 7482SOL     OW22682   5.880   4.108   2.881 -0.3446  0.5363  0.1578
 7482SOL    HW122683   5.857   4.017   2.865 -1.1966  0.2107  2.7208
 7482SOL    HW222684   5.974   4.112   2.866 -0.1561 -0.9705  0.7773
 7483SOL     OW22685   2.870   1.557   5.275  0.6221  0.0014 -0.6122
 7483SOL    HW122686   2.826   1.481   5.238 -0.3228  0.6266 -0.8115
 7483SOL    HW222687   2.913   1.524   5.354  2.8351 -1.4022 -2.2894
 7484SOL     OW22688   0.090   6.020   2.744  0.2265  0.2044 -0.3281
 7484SOL    HW122689   0.061   5.988   2.830 -2.4249  1.2268 -0.7386
 7484SOL    HW222690   0.057   5.955   2.682 -2.8688  2.1865 -0.9434
 7485SOL     OW22691   0.298   5.739   6.061 -0.4653  0.0127 -0.0628
 7485SOL    HW122692   0.246   5.722   5.982 -0.6927  0.7483 -0.0745
 7485SOL    HW222693   0.271   5.826   6.090 -0.9304 -0.5380  1.2570
 7486SOL     OW22694   5.330   5.685   2.752  0.4438 -0.2173  0.2026
 7486SOL    HW122695   5.265   5.633   2.800  0.6414 -1.1173 -0.4801
 7486SOL    HW222696   5.283   5.764   2.726  0.6184  0.8905  2.8491
 7487SOL     OW22697   1.642   4.195   2.447  0.2913 -0.7673 -0.8169
 7487SOL    HW122698   1.725   4.229   2.416 -0.6571  1.5955 -0.9969
 7487SOL    HW222699   1.639   4.219   2.539 -0.4027 -0.3586 -0.9380
 7488SOL     OW22700   3.902   3.707   1.326  0.7116  0.4043 -0.1388
 7488SOL    HW122701   3.918   3.801   1.318  1.5076  0.3393  0.5660
 7488SOL    HW222702   3.987   3.666   1.309  0.5313 -0.1538  0.2644
 7489SOL     OW22703   3.849   5.779   0.891  0.3237 -0.3285  0.1278
 7489SOL    HW122704   3.898   5.733   0.959  0.1519 -0.2358  0.3144
 7489SOL    HW222705   3.912   5.839   0.852  0.2878 -0.0117  0.5532
 7490SOL     OW22706   5.114   5.858   2.916  0.3307  0.1604 -0.2417
 7490SOL    HW122707   5.021   5.873   2.896  0.1808 -1.3133 -0.7283
 7490SOL    HW222708   5.130   5.768   2.889  1.9695  0.4657 -0.3611
 7491SOL     OW22709   2.548   4.806   3.601 -0.0964 -0.2343 -0.2576
 7491SOL    HW122710   2.579   4.788   3.690  1.1222 -0.7854 -0.7806
 7491SOL    HW222711   2.542   4.901   3.596 -1.1526 -0.2240  0.7273
 7492SOL     OW22712   0.384   3.413   4.108  0.3520 -0.0361 -0.3318
 7492SOL    HW122713   0.432   3.350   4.162 -1.6552  0.8021  2.7531
 7492SOL    HW222714   0.303   3.367   4.085 -0.1751  0.6481  0.1109
 7493SOL     OW22715   4.064   1.121   0.997 -0.3358  0.4630  0.2997
 7493SOL    HW122716   4.143   1.081   1.032 -0.5770  0.0687  0.4039
 7493SOL    HW222717   4.010   1.140   1.073 -0.2907  0.8434  0.2375
 7494SOL     OW22718   0.323   4.803   4.432  0.0535 -0.3356 -0.1285
 7494SOL    HW122719   0.345   4.744   4.504 -0.6367 -0.5579 -0.0842
 7494SOL    HW222720   0.392   4.869   4.432 -0.1837 -0.0625  1.0443
 7495SOL     OW22721   2.029   5.000   5.430 -0.6548  0.1677 -0.0733
 7495SOL    HW122722   2.000   5.079   5.385  0.1068  0.2337 -0.4769
 7495SOL    HW222723   2.000   5.012   5.520  1.0144  1.7836  0.3194
 7496SOL     OW22724   0.220   2.613   2.830  0.2249  0.2301  0.6756
 7496SOL    HW122725   0.179   2.646   2.750 -1.9974  0.2882  1.7377
 7496SOL    HW222726   0.291   2.674   2.848  0.9442  0.0617 -1.3463
 7497SOL     OW22727   3.962   4.791   5.103  0.6020 -0.5841  0.3999
 7497SOL    HW122728   3.922   4.806   5.189  0.6019 -0.3516  0.3586
 7497SOL    HW222729   4.015   4.869   5.087  1.8057 -1.2690  0.8616
 7498SOL     OW22730   3.120   2.896   4.123 -0.4418 -0.0708  0.0516
 7498SOL    HW122731   3.204   2.942   4.118 -0.5990  0.1019 -1.5425
 7498SOL    HW222732   3.074   2.922   4.043 -2.4007  0.5560  1.3199
 7499SOL     OW22733   1.891   1.883   2.372  0.2047  0.2265 -0.1272
 7499SOL    HW122734   1.889   1.813   2.305 -0.7767  1.1325 -1.0839
 7499SOL    HW222735   1.807   1.874   2.417  0.6108  0.0091  0.5907
 7500SOL     OW22736   1.063   0.536   2.359  0.2477  0.5740  0.2497
 7500SOL    HW122737   1.015   0.617   2.343  0.1084  0.5491  0.5283
 7500SOL    HW222738   1.039   0.479   2.286 -1.7152 -0.1516  1.3704
 7501SOL     OW22739   5.370   3.606   1.628 -0.3941  0.1701  0.9073
 7501SOL    HW122740   5.290   3.561   1.601 -0.2966  0.4525  0.1247
 7501SOL    HW222741   5.432   3.590   1.557  0.6782 -1.1139  2.0642
 7502SOL     OW22742   1.115   3.783   4.189  0.0299  0.0288 -0.0348
 7502SOL    HW122743   1.093   3.731   4.111 -0.6181  0.5861 -0.2279
 7502SOL    HW222744   1.141   3.718   4.254 -1.6715 -0.6279  0.0346
 7503SOL     OW22745   4.715   3.022   5.385  0.1883  0.5751  0.5095
 7503SOL    HW122746   4.630   3.012   5.428 -0.5163 -3.4225 -1.4226
 7503SOL    HW222747   4.694   3.050   5.296  1.2100  2.3718  0.7670
 7504SOL     OW22748   1.590   4.745   2.908  0.7091  0.5315  0.3077
 7504SOL    HW122749   1.670   4.782   2.945  1.2006  0.2207 -0.4331
 7504SOL    HW222750   1.542   4.821   2.874  0.8697  0.6770  0.4085
 7505SOL     OW22751   1.358   5.069   4.565  0.7283 -0.2461  0.0673
 7505SOL    HW122752   1.301   5.143   4.588  0.3075 -0.7112  0.5268
 7505SOL    HW222753   1.301   4.993   4.567  1.0718 -0.5315 -0.8328
 7506SOL     OW22754   0.794   1.789   2.921 -0.7662  0.5334 -0.4412
 7506SOL    HW122755   0.715   1.811   2.873 -0.5318  0.1536 -1.0049
 7506SOL    HW222756   0.771   1.710   2.971 -1.2626  1.3919  0.7202
 7507SOL     OW22757   3.112   3.937   3.454 -0.1912  0.1074 -0.2428
 7507SOL    HW122758   3.110   3.964   3.363  0.8872 -1.2106 -0.6983
 7507SOL    HW222759   3.204   3.943   3.479 -0.3335 -0.4299  0.4547
 7508SOL     OW22760   3.493   5.136   5.411  0.2337  0.3270 -0.2309
 7508SOL    HW122761   3.547   5.060   5.390 -0.2763  0.1937 -1.1181
 7508SOL    HW222762   3.555   5.209   5.412  0.7950 -0.1427  1.0384
 7509SOL     OW22763   2.585   3.661   0.136 -0.0427 -0.3360  0.3241
 7509SOL    HW122764   2.633   3.738   0.166 -2.2394  0.9752  0.7371
 7509SOL    HW222765   2.621   3.588   0.186  0.2202  0.8929  1.9786
 7510SOL     OW22766   2.421   1.793   0.687  0.1819  0.2975 -0.6083
 7510SOL    HW122767   2.406   1.887   0.684  1.3220  0.5210 -0.0604
 7510SOL    HW222768   2.494   1.778   0.627  2.1658  0.2806  1.6412
 7511SOL     OW22769   2.533   3.421   1.665 -0.4547 -0.1304 -0.2246
 7511SOL    HW122770   2.621   3.390   1.644 -0.8374 -2.0326  0.7900
 7511SOL    HW222771   2.546   3.485   1.735  0.1189 -0.3637 -0.1147
 7512SOL     OW22772   2.422   3.736   4.303  0.7741  0.3835  0.6300
 7512SOL    HW122773   2.467   3.694   4.377 -0.7955 -2.8807 -0.0619
 7512SOL    HW222774   2.467   3.702   4.226  0.3250  1.1179  0.0443
 7513SOL     OW22775   3.219   4.598   1.947 -0.2471  0.1370  0.3103
 7513SOL    HW122776   3.295   4.547   1.978 -0.6272 -0.1441  0.7850
 7513SOL    HW222777   3.150   4.533   1.936 -0.1787  0.2464 -0.9919
 7514SOL     OW22778   4.348   5.072   1.941  0.8771  0.1667  0.0214
 7514SOL    HW122779   4.399   5.148   1.970  1.2103  0.2189 -0.6818
 7514SOL    HW222780   4.280   5.062   2.007 -0.1710  2.0697 -0.7128
 7515SOL     OW22781   1.330   2.164   2.838  0.4707  0.1639  0.1725
 7515SOL    HW122782   1.250   2.213   2.819  0.1768 -0.6460 -0.7655
 7515SOL    HW222783   1.311   2.075   2.809  1.5073 -0.1700  0.4799
 7516SOL     OW22784   4.902   2.223   2.957 -0.1820 -0.2041 -0.1343
 7516SOL    HW122785   4.971   2.158   2.974 -0.8089 -1.2742 -1.5202
 7516SOL    HW222786   4.909   2.284   3.031  1.1539 -1.2120  0.6323
 7517SOL     OW22787   6.090   4.556   0.714  0.3977  0.0065 -0.0063
 7517SOL    HW122788   6.172   4.568   0.667 -0.0132  0.6442 -0.5816
 7517SOL    HW222789   6.024   4.550   0.645 -0.1996  0.7899  0.4783
 7518SOL     OW22790   3.070   0.033   2.615 -0.3176  0.5148 -0.3141
 7518SOL    HW122791   2.978   0.010   2.598 -0.4337 -0.1655  1.1076
 7518SOL    HW222792   3.066   0.104   2.678  0.1216 -0.4384  0.8259
 7519SOL     OW22793   5.270   3.308   5.863 -0.6088 -0.1192  0.1192
 7519SOL    HW122794   5.347   3.268   5.822 -1.1696 -0.5925 -0.4891
 7519SOL    HW222795   5.198   3.285   5.805 -0.9241  1.9885 -0.4059
 7520SOL     OW22796   4.161   5.403   3.578  0.2939  0.9097 -0.0380
 7520SOL    HW122797   4.161   5.470   3.646  1.0252  0.9520 -0.0718
 7520SOL    HW222798   4.180   5.451   3.497 -1.6082  1.0176 -0.4524
 7521SOL     OW22799   1.117   3.899   1.931 -1.2133  0.0730 -1.1979
 7521SOL    HW122800   1.146   3.878   1.843 -0.9424 -0.0246 -1.0847
 7521SOL    HW222801   1.172   3.973   1.958 -0.3866 -0.7369 -0.6127
 7522SOL     OW22802   2.109   3.986   4.822 -0.0605 -0.5607 -0.2416
 7522SOL    HW122803   2.094   3.950   4.735 -0.5738 -1.9028  0.3767
 7522SOL    HW222804   2.146   3.914   4.872 -2.2739 -0.6915  1.3788
 7523SOL     OW22805   3.068   4.422   4.073 -0.3657  0.5790 -0.4485
 7523SOL    HW122806   3.076   4.330   4.048  0.4571  0.9416 -1.5821
 7523SOL    HW222807   3.000   4.457   4.016  0.8320  1.1743 -1.5506
 7524SOL     OW22808   0.432   4.592   5.280 -0.4306  0.3223  0.2523
 7524SOL    HW122809   0.346   4.625   5.306 -0.4850 -0.6197  1.3297
 7524SOL    HW222810   0.492   4.625   5.346  0.0393  0.8994 -0.4454
 7525SOL     OW22811   0.878   1.987   3.608  0.5072 -0.0390  0.4930
 7525SOL    HW122812   0.795   2.018   3.642  1.5721 -0.9134  4.3493
 7525SOL    HW222813   0.932   2.066   3.600 -0.2445  0.3719 -0.8907
 7526SOL     OW22814   4.943   2.290   3.594  0.2407  0.0757 -0.1753
 7526SOL    HW122815   5.018   2.349   3.602 -1.2551  2.0802 -0.4625
 7526SOL    HW222816   4.962   2.238   3.516  1.5563  0.1760  0.0500
 7527SOL     OW22817   0.355   1.924   1.840  0.2117  0.2189 -0.3511
 7527SOL    HW122818   0.407   2.000   1.865 -0.2217 -0.3458  2.6594
 7527SOL    HW222819   0.354   1.869   1.918 -0.6680 -2.2322 -1.9761
 7528SOL     OW22820   1.253   1.213   2.670 -0.5257 -0.3290 -0.4227
 7528SOL    HW122821   1.166   1.188   2.702  0.0200 -3.9974 -1.3634
 7528SOL    HW222822   1.285   1.276   2.735 -2.6879 -1.1725  1.6187
 7529SOL     OW22823   5.721   5.321   0.977  0.2941 -0.2468  0.3778
 7529SOL    HW122824   5.654   5.260   1.007 -0.3025  0.3583  0.2891
 7529SOL    HW222825   5.684   5.361   0.898  1.2720 -0.8081 -0.3810
 7530SOL     OW22826   5.047   2.756   5.026  0.0650 -0.5483  0.8173
 7530SOL    HW122827   5.113   2.814   4.986  0.5472 -0.1864  2.0735
 7530SOL    HW222828   4.964   2.788   4.992  0.5086 -0.8395 -0.5910
 7531SOL     OW22829   0.588   3.945   5.848 -0.2120 -0.1996  0.0115
 7531SOL    HW122830   0.545   3.946   5.933  0.1436 -2.1871  0.2620
 7531SOL    HW222831   0.678   3.919   5.867  0.3238  0.9431 -0.8179
 7532SOL     OW22832   0.512   4.356   3.783  0.1980  0.7990 -0.0155
 7532SOL    HW122833   0.590   4.398   3.818  0.4866  0.5701 -0.3830
 7532SOL    HW222834   0.497   4.400   3.699 -1.2213  2.2322  0.9366
 7533SOL     OW22835   4.564   5.950   0.013 -0.2435 -0.2848 -0.1124
 7533SOL    HW122836   4.539   5.863  -0.019  1.7894 -1.3887  1.1443
 7533SOL    HW222837   4.547   5.946   0.107 -0.5047  0.8383 -0.1022
 7534SOL     OW22838   6.126   2.977   2.051 -0.2896  0.3958 -0.0442
 7534SOL    HW122839   6.200   2.972   2.112  0.6149 -0.1380 -1.1540
 7534SOL    HW222840   6.056   2.927   2.094  1.1014 -2.0931 -0.5032
 7535SOL     OW22841   4.648   4.718   0.653 -0.5369  0.0202  0.8378
 7535SOL    HW122842   4.705   4.666   0.597 -0.5813  0.4263  0.4122
 7535SOL    HW222843   4.658   4.679   0.740 -0.7194 -0.8123  0.4928
 7536SOL     OW22844   1.262   0.706   2.590  0.2991  0.1953  0.3601
 7536SOL    HW122845   1.211   0.756   2.526  0.1298 -0.3225  0.0827
 7536SOL    HW222846   1.199   0.679   2.656  0.4360  0.5488  0.6416
 7537SOL     OW22847   0.024   1.158   0.760  0.3368 -0.3501 -0.3061
 7537SOL    HW122848   0.004   1.252   0.758 -1.0827 -0.6193 -2.8836
 7537SOL    HW222849  -0.033   1.123   0.828  1.0650  0.6584  0.8644
 7538SOL     OW22850   3.489   4.806   1.681  0.2550  0.2410 -0.2983
 7538SOL    HW122851   3.414   4.748   1.665  0.1076 -0.3320  2.0098
 7538SOL    HW222852   3.466   4.853   1.761  2.4352 -0.1314  0.6223
 7539SOL     OW22853   1.161   4.449   5.854  0.0855 -0.6402  0.5273
 7539SOL    HW122854   1.126   4.396   5.782 -1.1867 -0.4906  0.9991
 7539SOL    HW222855   1.255   4.436   5.850  0.1694  0.2355 -1.8663
 7540SOL     OW22856   5.135   2.709   4.694  0.2269  0.0238  0.4086
 7540SOL    HW122857   5.117   2.664   4.776  2.2883 -0.5015  0.6323
 7540SOL    HW222858   5.049   2.722   4.654 -0.6808 -1.1905  1.8606
 7541SOL     OW22859   5.060   3.431   3.281 -0.5734  0.0894  0.8293
 7541SOL    HW122860   4.983   3.488   3.273 -1.7882 -1.2590  2.1915
 7541SOL    HW222861   5.127   3.486   3.321 -1.1524  0.9992  0.5900
 7542SOL     OW22862   5.444   4.339   4.663 -0.0150 -0.0069 -0.5290
 7542SOL    HW122863   5.472   4.309   4.577  1.0256 -0.5366 -0.0197
 7542SOL    HW222864   5.519   4.388   4.697 -1.0187  1.6525 -0.5953
 7543SOL     OW22865   4.981   4.136   3.945  0.6810  0.1345 -0.4307
 7543SOL    HW122866   5.049   4.101   4.002  2.1571  1.1824 -1.4585
 7543SOL    HW222867   5.011   4.114   3.856 -0.3323  0.6038 -0.9027
 7544SOL     OW22868   2.156   5.044   4.734  0.3601  0.1271 -0.0897
 7544SOL    HW122869   2.091   5.111   4.754  0.8748  0.5235  0.2805
 7544SOL    HW222870   2.109   4.961   4.748 -0.2327  0.3998 -0.4044
 7545SOL     OW22871   3.615   3.918   3.942 -0.3365 -0.3229 -1.0770
 7545SOL    HW122872   3.679   3.970   3.991 -1.3245  0.2517 -0.3602
 7545SOL    HW222873   3.608   3.836   3.992 -0.2333 -0.3435 -1.0967
 7546SOL     OW22874   3.672   2.356   2.019  0.1430  0.4597 -0.4730
 7546SOL    HW122875   3.581   2.373   2.043  0.5802  0.1608  1.5957
 7546SOL    HW222876   3.691   2.421   1.951 -0.9736  2.0073  0.6141
 7547SOL     OW22877   1.970   0.609   1.804 -0.2983  0.7678 -0.2367
 7547SOL    HW122878   2.019   0.691   1.802 -0.4692  0.8565 -0.7374
 7547SOL    HW222879   2.037   0.541   1.808 -0.0817  0.8331 -2.1300
 7548SOL     OW22880   6.134   2.266   3.272  0.2924  0.0786 -0.1409
 7548SOL    HW122881   6.078   2.202   3.229  0.7306  1.3723 -2.8462
 7548SOL    HW222882   6.085   2.348   3.269  0.5893  0.3567  1.4022
 7549SOL     OW22883   4.851   0.729   3.131 -0.0837  0.0821  0.4627
 7549SOL    HW122884   4.928   0.747   3.184 -1.0471  0.8488  1.6757
 7549SOL    HW222885   4.803   0.663   3.180 -0.2764 -0.2797 -0.2005
 7550SOL     OW22886   0.543   4.134   2.282 -0.2394  1.1654 -0.2391
 7550SOL    HW122887   0.632   4.115   2.253 -0.8488 -1.7109 -0.4612
 7550SOL    HW222888   0.545   4.122   2.377 -0.4499  0.7682 -0.2822
 7551SOL     OW22889   0.081   3.830   4.113  0.0321  0.4461 -0.2257
 7551SOL    HW122890   0.176   3.815   4.108 -0.1288 -2.1262  2.0869
 7551SOL    HW222891   0.045   3.778   4.041  0.2765 -0.1662  0.0865
 7552SOL     OW22892   6.125   3.806   0.194  0.6675 -0.0943  0.0492
 7552SOL    HW122893   6.094   3.725   0.235  1.3507  0.0016  0.7750
 7552SOL    HW222894   6.094   3.876   0.252  0.4175  0.1348 -0.3620
 7553SOL     OW22895   4.155   1.077   2.024 -0.4405  0.2531  0.0157
 7553SOL    HW122896   4.197   1.008   1.972  0.2567  0.7553 -0.1067
 7553SOL    HW222897   4.072   1.039   2.053 -0.0131 -0.6688  0.0451
 7554SOL     OW22898   0.427   2.855   3.740  0.0060 -0.3926 -0.0334
 7554SOL    HW122899   0.432   2.786   3.673 -0.5145  0.8399 -1.4070
 7554SOL    HW222900   0.334   2.863   3.760 -0.0493  0.4740 -0.5477
 7555SOL     OW22901   1.876   4.447   3.059 -0.1151  0.6330  0.5139
 7555SOL    HW122902   1.930   4.525   3.051 -0.9649  1.2159  0.3664
 7555SOL    HW222903   1.919   4.394   3.126  2.6148 -0.5675 -1.9273
 7556SOL     OW22904   5.399   4.691   1.412  0.3711 -0.2265  0.3676
 7556SOL    HW122905   5.369   4.612   1.368  1.0112 -1.1757  1.5523
 7556SOL    HW222906   5.374   4.677   1.504 -1.6584  2.0345  0.2366
 7557SOL     OW22907   6.063   4.876   3.816  1.0318 -0.2300  0.2288
 7557SOL    HW122908   6.126   4.841   3.879 -1.6771 -5.0482  0.7847
 7557SOL    HW222909   6.071   4.820   3.739  0.4123  1.9477 -1.5369
 7558SOL     OW22910   3.026   3.285   3.257 -0.3094 -0.0390  0.0609
 7558SOL    HW122911   3.112   3.252   3.284  0.0604 -0.1714 -1.2529
 7558SOL    HW222912   2.964   3.222   3.295  0.2243 -0.4763  0.2285
 7559SOL     OW22913   5.039   4.589   5.661  0.4953  0.0857 -0.1438
 7559SOL    HW122914   5.041   4.494   5.657  0.3310  0.1090 -0.9088
 7559SOL    HW222915   4.998   4.616   5.579  1.3636  0.8493 -0.3481
 7560SOL     OW22916   2.221   3.505   3.787  0.1429  1.0480  0.3249
 7560SOL    HW122917   2.222   3.576   3.852  2.3364 -0.3471  1.9824
 7560SOL    HW222918   2.312   3.500   3.756  0.5051 -2.0214  1.5231
 7561SOL     OW22919   1.244   2.131   1.315  0.1635  0.0795 -0.0016
 7561SOL    HW122920   1.166   2.103   1.364  0.0180 -0.4376 -0.5120
 7561SOL    HW222921   1.317   2.113   1.374  0.0952 -1.6441 -0.3749
 7562NA      NA22922   3.344   0.486   4.210  0.5181 -0.0915  0.1585
 7563NA      NA22923   4.276   1.283   4.582 -0.1947 -0.0895  0.0615
 7564NA      NA22924   4.483   3.096   1.622  0.3266 -0.0141  0.1046
 7565NA      NA22925   4.539   5.167   1.524  0.2465 -0.1399 -0.4714
 7566NA      NA22926   3.834   3.734   3.602 -0.0966 -0.5890 -0.2496
 7567NA      NA22927   4.672   1.610   4.148 -0.4153 -0.2532 -0.3373
 7568NA      NA22928   1.781   5.476   1.361  0.3670  0.1475  0.0516
 7569NA      NA22929   3.607   5.257   0.678 -0.1330 -0.2483 -0.1822
 7570NA      NA22930   0.685   3.161   2.828  0.1822 -0.2144  0.2338
 7571NA      NA22931   0.714   1.962   0.325 -0.2863  0.3907  0.4032
 7572NA      NA22932   6.004   1.486   5.320  0.6662  0.6954 -0.3371
 7573NA      NA22933   3.336   3.417   5.302  0.0663  0.1923 -0.0819
 7574NA      NA22934   6.118   2.046   4.396 -0.3586 -0.2536  0.1657
 7575NA      NA22935   1.755   2.876   4.204 -0.6795  0.1787 -0.5093
 7576NA      NA22936   3.028   4.671   2.591  0.4314  0.1873  0.5661
 7577NA      NA22937   3.206   3.006   1.529 -0.3015 -0.1540 -0.1942
 7578NA      NA22938   3.266   4.995   0.373  0.1325  0.1784 -0.1856
 7579NA      NA22939   3.003   6.027   5.317 -0.3678  0.0670  0.1471
 7580NA      NA22940   0.549   4.478   5.155  0.0284 -0.0007 -0.3095
 7581NA      NA22941   0.690   4.878   3.169 -0.0190 -0.0127 -0.3291
 7582NA      NA22942   1.074   4.718   3.619 -0.2125  0.0504 -0.0842
 7583CL      CL22943   0.929   0.758   5.114  0.0629 -0.1609 -0.2654
 7584CL      CL22944   2.390   1.209   3.240  0.2180 -0.0994 -0.1176
 7585CL      CL22945   2.000   5.409   5.616 -0.1324  0.3053  0.4467
 7586CL      CL22946   3.364   3.060   1.973  0.2715 -0.2233 -0.1497
 7587CL      CL22947   3.883   5.432   1.000 -0.1185  0.0613 -0.0712
 7588CL      CL22948   4.149   0.477   4.409  0.3502  0.1834 -0.4174
 7589CL      CL22949   2.848   3.544   4.547 -0.0849 -0.3121  0.2563
 7590CL      CL22950   1.044   3.885   4.900 -0.0594 -0.0258 -0.0526
 7591CL      CL22951   5.170   2.412   0.176 -0.0804  0.0988  0.2045
 7592CL      CL22952   2.183   6.043   4.014 -0.5645  0.0415  0.1544
 7593CL      CL22953   4.454   4.675   1.472 -0.7982 -0.3436 -0.0546
 7594CL      CL22954   5.695   1.266   1.936  0.4795  0.1486  0.3681
 7595CL      CL22955   0.186   3.099   2.579 -0.0885 -0.3312  0.3853
 7596CL      CL22956   2.259   2.158   2.439  0.1124  0.1728  0.1978
 7597CL      CL22957   0.677   2.013   0.097  0.0355  0.0941 -0.0291
 7598CL      CL22958   4.042   1.853   4.669 -0.1064  0.0375 -0.2001
 7599CL      CL22959   0.970   4.772   0.703 -0.4890 -0.0848 -0.0723
 7600CL      CL22960   0.731   5.000   3.367  0.4696  0.0074  0.3587
 7601CL      CL22961   2.811   0.868   4.781  0.2418 -0.3607 -0.2073
 7602CL      CL22962   0.882   4.854   4.629  0.1857 -0.1034  0.0477
 7603CL      CL22963   2.629   0.431   3.073 -0.1865 -0.0966 -0.2521
   6.15185   6.15185   6.15185
