;
;   File g5np_pamam.itp  was generated
;   By user: sairam (1000)
;   On host: sairam
;   At date: Wed. August  3 19:50:38 2023
;
;   This is a standalone topology file
;
;   Created by:
;   ParmEd:       amb2gro_top_gro.py, VERSION 3.4.1
;   Executable:   amb2gro_top_gro.py
;   Library dir:  /usr/local/gromacs/share/gromacs/top
;   Command line:
;     ./amb2gro_top_gro.py -p g5np_pamam.prmtop -c g5np_pamam.inpcrd -t g5np_pamam.itp -g g5np_pamam.gro -b g5np_pamam.pdb
;

;[ defaults ]
;; nbfunc        comb-rule       gen-pairs       fudgeLJ fudgeQQ
;1               2               yes             0.5          0.83333333  
;
;[ atomtypes ]
;; name    at.num    mass    charge ptype  sigma      epsilon
;c3             6  12.010000  0.00000000  A     0.33996695      0.4577296
;h1             1   1.008000  0.00000000  A      0.2471353      0.0656888
;n3             7  14.010000  0.00000000  A     0.32499985        0.71128
;hc             1   1.008000  0.00000000  A     0.26495328      0.0656888
;c              6  12.010000  0.00000000  A     0.33996695       0.359824
;o              8  16.000000  0.00000000  A     0.29599219        0.87864
;n              7  14.010000  0.00000000  A     0.32499985        0.71128
;hn             1   1.008000  0.00000000  A     0.10690785      0.0656888


[ moleculetype ]
; Name            nrexcl
g5np_pamam          3

[ atoms ]
;   nr       type  resnr residue  atom   cgnr    charge       mass  typeB    chargeB      massB
; residue    1 aaa rtp aaa q -0.0
    1         c3      1    aaa     C1      1 0.02890000  12.010000   ; qtot 0.028900
    2         h1      1    aaa     H1      2 0.08460000   1.008000   ; qtot 0.113500
    3         h1      1    aaa     H2      3 0.08460000   1.008000   ; qtot 0.198100
    4         c3      1    aaa     C2      4 0.02890000  12.010000   ; qtot 0.227000
    5         h1      1    aaa     H3      5 0.08460000   1.008000   ; qtot 0.311600
    6         h1      1    aaa     H4      6 0.08460000   1.008000   ; qtot 0.396200
    7         n3      1    aaa     N1      7 -0.65770000  14.010000   ; qtot -0.261500
    8         n3      1    aaa     N2      8 -0.65770000  14.010000   ; qtot -0.919200
    9         c3      1    aaa     C3      9 0.36940000  12.010000   ; qtot -0.549800
   10         h1      1    aaa     H5     10 0.00650000   1.008000   ; qtot -0.543300
   11         h1      1    aaa     H6     11 0.00650000   1.008000   ; qtot -0.536800
   12         c3      1    aaa     C4     12 0.36940000  12.010000   ; qtot -0.167400
   13         h1      1    aaa     H7     13 0.00650000   1.008000   ; qtot -0.160900
   14         h1      1    aaa     H8     14 0.00650000   1.008000   ; qtot -0.154400
   15         c3      1    aaa     C5     15 0.36940000  12.010000   ; qtot 0.215000
   16         h1      1    aaa     H9     16 0.00650000   1.008000   ; qtot 0.221500
   17         h1      1    aaa    H10     17 0.00650000   1.008000   ; qtot 0.228000
   18         c3      1    aaa     C6     18 0.36940000  12.010000   ; qtot 0.597400
   19         h1      1    aaa    H11     19 0.00650000   1.008000   ; qtot 0.603900
   20         h1      1    aaa    H12     20 0.00650000   1.008000   ; qtot 0.610400
   21         c3      1    aaa     C7     21 -0.54350000  12.010000   ; qtot 0.066900
   22         hc      1    aaa    H13     22 0.15890000   1.008000   ; qtot 0.225800
   23         hc      1    aaa    H14     23 0.15890000   1.008000   ; qtot 0.384700
   24         c3      1    aaa     C8     24 -0.54350000  12.010000   ; qtot -0.158800
   25         hc      1    aaa    H15     25 0.15890000   1.008000   ; qtot 0.000100
   26         hc      1    aaa    H16     26 0.15890000   1.008000   ; qtot 0.159000
   27         c3      1    aaa     C9     27 -0.54350000  12.010000   ; qtot -0.384500
   28         hc      1    aaa    H17     28 0.15890000   1.008000   ; qtot -0.225600
   29         hc      1    aaa    H18     29 0.15890000   1.008000   ; qtot -0.066700
   30         c3      1    aaa    C10     30 -0.54350000  12.010000   ; qtot -0.610200
   31         hc      1    aaa    H19     31 0.15890000   1.008000   ; qtot -0.451300
   32         hc      1    aaa    H20     32 0.15890000   1.008000   ; qtot -0.292400
   33          c      1    aaa    C11     33 0.67800000  12.010000   ; qtot 0.385600
   34          c      1    aaa    C12     34 0.67800000  12.010000   ; qtot 1.063600
   35          c      1    aaa    C13     35 0.67800000  12.010000   ; qtot 1.741600
   36          c      1    aaa    C14     36 0.67800000  12.010000   ; qtot 2.419600
   37          o      1    aaa     O1     37 -0.60490000  16.000000   ; qtot 1.814700
   38          o      1    aaa     O2     38 -0.60490000  16.000000   ; qtot 1.209800
   39          o      1    aaa     O3     39 -0.60490000  16.000000   ; qtot 0.604900
   40          o      1    aaa     O4     40 -0.60490000  16.000000   ; qtot -0.000000
; residue    2 bbb rtp bbb q -0.0
   41         c3      2    bbb     C1     41 0.44180000  12.010000   ; qtot 0.441800
   42         h1      2    bbb     H1     42 -0.03530000   1.008000   ; qtot 0.406500
   43         h1      2    bbb     H2     43 -0.03530000   1.008000   ; qtot 0.371200
   44         c3      2    bbb     C2     44 -0.28250000  12.010000   ; qtot 0.088700
   45         h1      2    bbb     H3     45 0.15710000   1.008000   ; qtot 0.245800
   46         h1      2    bbb     H4     46 0.15710000   1.008000   ; qtot 0.402900
   47         n3      2    bbb     N1     47 -0.74090000  14.010000   ; qtot -0.338000
   48         c3      2    bbb     C3     48 0.51680000  12.010000   ; qtot 0.178800
   49         h1      2    bbb     H5     49 -0.05230000   1.008000   ; qtot 0.126500
   50         h1      2    bbb     H6     50 -0.05230000   1.008000   ; qtot 0.074200
   51         c3      2    bbb     C4     51 0.51680000  12.010000   ; qtot 0.591000
   52         h1      2    bbb     H7     52 -0.05230000   1.008000   ; qtot 0.538700
   53         h1      2    bbb     H8     53 -0.05230000   1.008000   ; qtot 0.486400
   54         c3      2    bbb     C5     54 -0.60390000  12.010000   ; qtot -0.117500
   55         hc      2    bbb     H9     55 0.16730000   1.008000   ; qtot 0.049800
   56         hc      2    bbb    H10     56 0.16730000   1.008000   ; qtot 0.217100
   57         c3      2    bbb     C6     57 -0.60390000  12.010000   ; qtot -0.386800
   58         hc      2    bbb    H11     58 0.16730000   1.008000   ; qtot -0.219500
   59         hc      2    bbb    H12     59 0.16730000   1.008000   ; qtot -0.052200
   60          c      2    bbb     C7     60 0.72110000  12.010000   ; qtot 0.668900
   61          c      2    bbb     C8     61 0.72110000  12.010000   ; qtot 1.390000
   62          o      2    bbb     O1     62 -0.61950000  16.000000   ; qtot 0.770500
   63          o      2    bbb     O2     63 -0.61950000  16.000000   ; qtot 0.151000
   64          n      2    bbb     N4     64 -0.46580000  14.010000   ; qtot -0.314800
   65         hn      2    bbb    H21     65 0.31480000   1.008000   ; qtot -0.000000
; residue    3 bbb rtp bbb q -0.0
   66         c3      3    bbb     C1     66 0.44180000  12.010000   ; qtot 0.441800
   67         h1      3    bbb     H1     67 -0.03530000   1.008000   ; qtot 0.406500
   68         h1      3    bbb     H2     68 -0.03530000   1.008000   ; qtot 0.371200
   69         c3      3    bbb     C2     69 -0.28250000  12.010000   ; qtot 0.088700
   70         h1      3    bbb     H3     70 0.15710000   1.008000   ; qtot 0.245800
   71         h1      3    bbb     H4     71 0.15710000   1.008000   ; qtot 0.402900
   72         n3      3    bbb     N1     72 -0.74090000  14.010000   ; qtot -0.338000
   73         c3      3    bbb     C3     73 0.51680000  12.010000   ; qtot 0.178800
   74         h1      3    bbb     H5     74 -0.05230000   1.008000   ; qtot 0.126500
   75         h1      3    bbb     H6     75 -0.05230000   1.008000   ; qtot 0.074200
   76         c3      3    bbb     C4     76 0.51680000  12.010000   ; qtot 0.591000
   77         h1      3    bbb     H7     77 -0.05230000   1.008000   ; qtot 0.538700
   78         h1      3    bbb     H8     78 -0.05230000   1.008000   ; qtot 0.486400
   79         c3      3    bbb     C5     79 -0.60390000  12.010000   ; qtot -0.117500
   80         hc      3    bbb     H9     80 0.16730000   1.008000   ; qtot 0.049800
   81         hc      3    bbb    H10     81 0.16730000   1.008000   ; qtot 0.217100
   82         c3      3    bbb     C6     82 -0.60390000  12.010000   ; qtot -0.386800
   83         hc      3    bbb    H11     83 0.16730000   1.008000   ; qtot -0.219500
   84         hc      3    bbb    H12     84 0.16730000   1.008000   ; qtot -0.052200
   85          c      3    bbb     C7     85 0.72110000  12.010000   ; qtot 0.668900
   86          c      3    bbb     C8     86 0.72110000  12.010000   ; qtot 1.390000
   87          o      3    bbb     O1     87 -0.61950000  16.000000   ; qtot 0.770500
   88          o      3    bbb     O2     88 -0.61950000  16.000000   ; qtot 0.151000
   89          n      3    bbb     N4     89 -0.46580000  14.010000   ; qtot -0.314800
   90         hn      3    bbb    H21     90 0.31480000   1.008000   ; qtot -0.000000
; residue    4 bbb rtp bbb q -0.0
   91         c3      4    bbb     C1     91 0.44180000  12.010000   ; qtot 0.441800
   92         h1      4    bbb     H1     92 -0.03530000   1.008000   ; qtot 0.406500
   93         h1      4    bbb     H2     93 -0.03530000   1.008000   ; qtot 0.371200
   94         c3      4    bbb     C2     94 -0.28250000  12.010000   ; qtot 0.088700
   95         h1      4    bbb     H3     95 0.15710000   1.008000   ; qtot 0.245800
   96         h1      4    bbb     H4     96 0.15710000   1.008000   ; qtot 0.402900
   97         n3      4    bbb     N1     97 -0.74090000  14.010000   ; qtot -0.338000
   98         c3      4    bbb     C3     98 0.51680000  12.010000   ; qtot 0.178800
   99         h1      4    bbb     H5     99 -0.05230000   1.008000   ; qtot 0.126500
  100         h1      4    bbb     H6    100 -0.05230000   1.008000   ; qtot 0.074200
  101         c3      4    bbb     C4    101 0.51680000  12.010000   ; qtot 0.591000
  102         h1      4    bbb     H7    102 -0.05230000   1.008000   ; qtot 0.538700
  103         h1      4    bbb     H8    103 -0.05230000   1.008000   ; qtot 0.486400
  104         c3      4    bbb     C5    104 -0.60390000  12.010000   ; qtot -0.117500
  105         hc      4    bbb     H9    105 0.16730000   1.008000   ; qtot 0.049800
  106         hc      4    bbb    H10    106 0.16730000   1.008000   ; qtot 0.217100
  107         c3      4    bbb     C6    107 -0.60390000  12.010000   ; qtot -0.386800
  108         hc      4    bbb    H11    108 0.16730000   1.008000   ; qtot -0.219500
  109         hc      4    bbb    H12    109 0.16730000   1.008000   ; qtot -0.052200
  110          c      4    bbb     C7    110 0.72110000  12.010000   ; qtot 0.668900
  111          c      4    bbb     C8    111 0.72110000  12.010000   ; qtot 1.390000
  112          o      4    bbb     O1    112 -0.61950000  16.000000   ; qtot 0.770500
  113          o      4    bbb     O2    113 -0.61950000  16.000000   ; qtot 0.151000
  114          n      4    bbb     N4    114 -0.46580000  14.010000   ; qtot -0.314800
  115         hn      4    bbb    H21    115 0.31480000   1.008000   ; qtot -0.000000
; residue    5 bbb rtp bbb q -0.0
  116         c3      5    bbb     C1    116 0.44180000  12.010000   ; qtot 0.441800
  117         h1      5    bbb     H1    117 -0.03530000   1.008000   ; qtot 0.406500
  118         h1      5    bbb     H2    118 -0.03530000   1.008000   ; qtot 0.371200
  119         c3      5    bbb     C2    119 -0.28250000  12.010000   ; qtot 0.088700
  120         h1      5    bbb     H3    120 0.15710000   1.008000   ; qtot 0.245800
  121         h1      5    bbb     H4    121 0.15710000   1.008000   ; qtot 0.402900
  122         n3      5    bbb     N1    122 -0.74090000  14.010000   ; qtot -0.338000
  123         c3      5    bbb     C3    123 0.51680000  12.010000   ; qtot 0.178800
  124         h1      5    bbb     H5    124 -0.05230000   1.008000   ; qtot 0.126500
  125         h1      5    bbb     H6    125 -0.05230000   1.008000   ; qtot 0.074200
  126         c3      5    bbb     C4    126 0.51680000  12.010000   ; qtot 0.591000
  127         h1      5    bbb     H7    127 -0.05230000   1.008000   ; qtot 0.538700
  128         h1      5    bbb     H8    128 -0.05230000   1.008000   ; qtot 0.486400
  129         c3      5    bbb     C5    129 -0.60390000  12.010000   ; qtot -0.117500
  130         hc      5    bbb     H9    130 0.16730000   1.008000   ; qtot 0.049800
  131         hc      5    bbb    H10    131 0.16730000   1.008000   ; qtot 0.217100
  132         c3      5    bbb     C6    132 -0.60390000  12.010000   ; qtot -0.386800
  133         hc      5    bbb    H11    133 0.16730000   1.008000   ; qtot -0.219500
  134         hc      5    bbb    H12    134 0.16730000   1.008000   ; qtot -0.052200
  135          c      5    bbb     C7    135 0.72110000  12.010000   ; qtot 0.668900
  136          c      5    bbb     C8    136 0.72110000  12.010000   ; qtot 1.390000
  137          o      5    bbb     O1    137 -0.61950000  16.000000   ; qtot 0.770500
  138          o      5    bbb     O2    138 -0.61950000  16.000000   ; qtot 0.151000
  139          n      5    bbb     N4    139 -0.46580000  14.010000   ; qtot -0.314800
  140         hn      5    bbb    H21    140 0.31480000   1.008000   ; qtot -0.000000
; residue    6 bbb rtp bbb q -0.0
  141         c3      6    bbb     C1    141 0.44180000  12.010000   ; qtot 0.441800
  142         h1      6    bbb     H1    142 -0.03530000   1.008000   ; qtot 0.406500
  143         h1      6    bbb     H2    143 -0.03530000   1.008000   ; qtot 0.371200
  144         c3      6    bbb     C2    144 -0.28250000  12.010000   ; qtot 0.088700
  145         h1      6    bbb     H3    145 0.15710000   1.008000   ; qtot 0.245800
  146         h1      6    bbb     H4    146 0.15710000   1.008000   ; qtot 0.402900
  147         n3      6    bbb     N1    147 -0.74090000  14.010000   ; qtot -0.338000
  148         c3      6    bbb     C3    148 0.51680000  12.010000   ; qtot 0.178800
  149         h1      6    bbb     H5    149 -0.05230000   1.008000   ; qtot 0.126500
  150         h1      6    bbb     H6    150 -0.05230000   1.008000   ; qtot 0.074200
  151         c3      6    bbb     C4    151 0.51680000  12.010000   ; qtot 0.591000
  152         h1      6    bbb     H7    152 -0.05230000   1.008000   ; qtot 0.538700
  153         h1      6    bbb     H8    153 -0.05230000   1.008000   ; qtot 0.486400
  154         c3      6    bbb     C5    154 -0.60390000  12.010000   ; qtot -0.117500
  155         hc      6    bbb     H9    155 0.16730000   1.008000   ; qtot 0.049800
  156         hc      6    bbb    H10    156 0.16730000   1.008000   ; qtot 0.217100
  157         c3      6    bbb     C6    157 -0.60390000  12.010000   ; qtot -0.386800
  158         hc      6    bbb    H11    158 0.16730000   1.008000   ; qtot -0.219500
  159         hc      6    bbb    H12    159 0.16730000   1.008000   ; qtot -0.052200
  160          c      6    bbb     C7    160 0.72110000  12.010000   ; qtot 0.668900
  161          c      6    bbb     C8    161 0.72110000  12.010000   ; qtot 1.390000
  162          o      6    bbb     O1    162 -0.61950000  16.000000   ; qtot 0.770500
  163          o      6    bbb     O2    163 -0.61950000  16.000000   ; qtot 0.151000
  164          n      6    bbb     N4    164 -0.46580000  14.010000   ; qtot -0.314800
  165         hn      6    bbb    H21    165 0.31480000   1.008000   ; qtot -0.000000
; residue    7 bbb rtp bbb q -0.0
  166         c3      7    bbb     C1    166 0.44180000  12.010000   ; qtot 0.441800
  167         h1      7    bbb     H1    167 -0.03530000   1.008000   ; qtot 0.406500
  168         h1      7    bbb     H2    168 -0.03530000   1.008000   ; qtot 0.371200
  169         c3      7    bbb     C2    169 -0.28250000  12.010000   ; qtot 0.088700
  170         h1      7    bbb     H3    170 0.15710000   1.008000   ; qtot 0.245800
  171         h1      7    bbb     H4    171 0.15710000   1.008000   ; qtot 0.402900
  172         n3      7    bbb     N1    172 -0.74090000  14.010000   ; qtot -0.338000
  173         c3      7    bbb     C3    173 0.51680000  12.010000   ; qtot 0.178800
  174         h1      7    bbb     H5    174 -0.05230000   1.008000   ; qtot 0.126500
  175         h1      7    bbb     H6    175 -0.05230000   1.008000   ; qtot 0.074200
  176         c3      7    bbb     C4    176 0.51680000  12.010000   ; qtot 0.591000
  177         h1      7    bbb     H7    177 -0.05230000   1.008000   ; qtot 0.538700
  178         h1      7    bbb     H8    178 -0.05230000   1.008000   ; qtot 0.486400
  179         c3      7    bbb     C5    179 -0.60390000  12.010000   ; qtot -0.117500
  180         hc      7    bbb     H9    180 0.16730000   1.008000   ; qtot 0.049800
  181         hc      7    bbb    H10    181 0.16730000   1.008000   ; qtot 0.217100
  182         c3      7    bbb     C6    182 -0.60390000  12.010000   ; qtot -0.386800
  183         hc      7    bbb    H11    183 0.16730000   1.008000   ; qtot -0.219500
  184         hc      7    bbb    H12    184 0.16730000   1.008000   ; qtot -0.052200
  185          c      7    bbb     C7    185 0.72110000  12.010000   ; qtot 0.668900
  186          c      7    bbb     C8    186 0.72110000  12.010000   ; qtot 1.390000
  187          o      7    bbb     O1    187 -0.61950000  16.000000   ; qtot 0.770500
  188          o      7    bbb     O2    188 -0.61950000  16.000000   ; qtot 0.151000
  189          n      7    bbb     N4    189 -0.46580000  14.010000   ; qtot -0.314800
  190         hn      7    bbb    H21    190 0.31480000   1.008000   ; qtot -0.000000
; residue    8 bbb rtp bbb q -0.0
  191         c3      8    bbb     C1    191 0.44180000  12.010000   ; qtot 0.441800
  192         h1      8    bbb     H1    192 -0.03530000   1.008000   ; qtot 0.406500
  193         h1      8    bbb     H2    193 -0.03530000   1.008000   ; qtot 0.371200
  194         c3      8    bbb     C2    194 -0.28250000  12.010000   ; qtot 0.088700
  195         h1      8    bbb     H3    195 0.15710000   1.008000   ; qtot 0.245800
  196         h1      8    bbb     H4    196 0.15710000   1.008000   ; qtot 0.402900
  197         n3      8    bbb     N1    197 -0.74090000  14.010000   ; qtot -0.338000
  198         c3      8    bbb     C3    198 0.51680000  12.010000   ; qtot 0.178800
  199         h1      8    bbb     H5    199 -0.05230000   1.008000   ; qtot 0.126500
  200         h1      8    bbb     H6    200 -0.05230000   1.008000   ; qtot 0.074200
  201         c3      8    bbb     C4    201 0.51680000  12.010000   ; qtot 0.591000
  202         h1      8    bbb     H7    202 -0.05230000   1.008000   ; qtot 0.538700
  203         h1      8    bbb     H8    203 -0.05230000   1.008000   ; qtot 0.486400
  204         c3      8    bbb     C5    204 -0.60390000  12.010000   ; qtot -0.117500
  205         hc      8    bbb     H9    205 0.16730000   1.008000   ; qtot 0.049800
  206         hc      8    bbb    H10    206 0.16730000   1.008000   ; qtot 0.217100
  207         c3      8    bbb     C6    207 -0.60390000  12.010000   ; qtot -0.386800
  208         hc      8    bbb    H11    208 0.16730000   1.008000   ; qtot -0.219500
  209         hc      8    bbb    H12    209 0.16730000   1.008000   ; qtot -0.052200
  210          c      8    bbb     C7    210 0.72110000  12.010000   ; qtot 0.668900
  211          c      8    bbb     C8    211 0.72110000  12.010000   ; qtot 1.390000
  212          o      8    bbb     O1    212 -0.61950000  16.000000   ; qtot 0.770500
  213          o      8    bbb     O2    213 -0.61950000  16.000000   ; qtot 0.151000
  214          n      8    bbb     N4    214 -0.46580000  14.010000   ; qtot -0.314800
  215         hn      8    bbb    H21    215 0.31480000   1.008000   ; qtot -0.000000
; residue    9 bbb rtp bbb q -0.0
  216         c3      9    bbb     C1    216 0.44180000  12.010000   ; qtot 0.441800
  217         h1      9    bbb     H1    217 -0.03530000   1.008000   ; qtot 0.406500
  218         h1      9    bbb     H2    218 -0.03530000   1.008000   ; qtot 0.371200
  219         c3      9    bbb     C2    219 -0.28250000  12.010000   ; qtot 0.088700
  220         h1      9    bbb     H3    220 0.15710000   1.008000   ; qtot 0.245800
  221         h1      9    bbb     H4    221 0.15710000   1.008000   ; qtot 0.402900
  222         n3      9    bbb     N1    222 -0.74090000  14.010000   ; qtot -0.338000
  223         c3      9    bbb     C3    223 0.51680000  12.010000   ; qtot 0.178800
  224         h1      9    bbb     H5    224 -0.05230000   1.008000   ; qtot 0.126500
  225         h1      9    bbb     H6    225 -0.05230000   1.008000   ; qtot 0.074200
  226         c3      9    bbb     C4    226 0.51680000  12.010000   ; qtot 0.591000
  227         h1      9    bbb     H7    227 -0.05230000   1.008000   ; qtot 0.538700
  228         h1      9    bbb     H8    228 -0.05230000   1.008000   ; qtot 0.486400
  229         c3      9    bbb     C5    229 -0.60390000  12.010000   ; qtot -0.117500
  230         hc      9    bbb     H9    230 0.16730000   1.008000   ; qtot 0.049800
  231         hc      9    bbb    H10    231 0.16730000   1.008000   ; qtot 0.217100
  232         c3      9    bbb     C6    232 -0.60390000  12.010000   ; qtot -0.386800
  233         hc      9    bbb    H11    233 0.16730000   1.008000   ; qtot -0.219500
  234         hc      9    bbb    H12    234 0.16730000   1.008000   ; qtot -0.052200
  235          c      9    bbb     C7    235 0.72110000  12.010000   ; qtot 0.668900
  236          c      9    bbb     C8    236 0.72110000  12.010000   ; qtot 1.390000
  237          o      9    bbb     O1    237 -0.61950000  16.000000   ; qtot 0.770500
  238          o      9    bbb     O2    238 -0.61950000  16.000000   ; qtot 0.151000
  239          n      9    bbb     N4    239 -0.46580000  14.010000   ; qtot -0.314800
  240         hn      9    bbb    H21    240 0.31480000   1.008000   ; qtot -0.000000
; residue   10 bbb rtp bbb q -0.0
  241         c3     10    bbb     C1    241 0.44180000  12.010000   ; qtot 0.441800
  242         h1     10    bbb     H1    242 -0.03530000   1.008000   ; qtot 0.406500
  243         h1     10    bbb     H2    243 -0.03530000   1.008000   ; qtot 0.371200
  244         c3     10    bbb     C2    244 -0.28250000  12.010000   ; qtot 0.088700
  245         h1     10    bbb     H3    245 0.15710000   1.008000   ; qtot 0.245800
  246         h1     10    bbb     H4    246 0.15710000   1.008000   ; qtot 0.402900
  247         n3     10    bbb     N1    247 -0.74090000  14.010000   ; qtot -0.338000
  248         c3     10    bbb     C3    248 0.51680000  12.010000   ; qtot 0.178800
  249         h1     10    bbb     H5    249 -0.05230000   1.008000   ; qtot 0.126500
  250         h1     10    bbb     H6    250 -0.05230000   1.008000   ; qtot 0.074200
  251         c3     10    bbb     C4    251 0.51680000  12.010000   ; qtot 0.591000
  252         h1     10    bbb     H7    252 -0.05230000   1.008000   ; qtot 0.538700
  253         h1     10    bbb     H8    253 -0.05230000   1.008000   ; qtot 0.486400
  254         c3     10    bbb     C5    254 -0.60390000  12.010000   ; qtot -0.117500
  255         hc     10    bbb     H9    255 0.16730000   1.008000   ; qtot 0.049800
  256         hc     10    bbb    H10    256 0.16730000   1.008000   ; qtot 0.217100
  257         c3     10    bbb     C6    257 -0.60390000  12.010000   ; qtot -0.386800
  258         hc     10    bbb    H11    258 0.16730000   1.008000   ; qtot -0.219500
  259         hc     10    bbb    H12    259 0.16730000   1.008000   ; qtot -0.052200
  260          c     10    bbb     C7    260 0.72110000  12.010000   ; qtot 0.668900
  261          c     10    bbb     C8    261 0.72110000  12.010000   ; qtot 1.390000
  262          o     10    bbb     O1    262 -0.61950000  16.000000   ; qtot 0.770500
  263          o     10    bbb     O2    263 -0.61950000  16.000000   ; qtot 0.151000
  264          n     10    bbb     N4    264 -0.46580000  14.010000   ; qtot -0.314800
  265         hn     10    bbb    H21    265 0.31480000   1.008000   ; qtot -0.000000
; residue   11 bbb rtp bbb q -0.0
  266         c3     11    bbb     C1    266 0.44180000  12.010000   ; qtot 0.441800
  267         h1     11    bbb     H1    267 -0.03530000   1.008000   ; qtot 0.406500
  268         h1     11    bbb     H2    268 -0.03530000   1.008000   ; qtot 0.371200
  269         c3     11    bbb     C2    269 -0.28250000  12.010000   ; qtot 0.088700
  270         h1     11    bbb     H3    270 0.15710000   1.008000   ; qtot 0.245800
  271         h1     11    bbb     H4    271 0.15710000   1.008000   ; qtot 0.402900
  272         n3     11    bbb     N1    272 -0.74090000  14.010000   ; qtot -0.338000
  273         c3     11    bbb     C3    273 0.51680000  12.010000   ; qtot 0.178800
  274         h1     11    bbb     H5    274 -0.05230000   1.008000   ; qtot 0.126500
  275         h1     11    bbb     H6    275 -0.05230000   1.008000   ; qtot 0.074200
  276         c3     11    bbb     C4    276 0.51680000  12.010000   ; qtot 0.591000
  277         h1     11    bbb     H7    277 -0.05230000   1.008000   ; qtot 0.538700
  278         h1     11    bbb     H8    278 -0.05230000   1.008000   ; qtot 0.486400
  279         c3     11    bbb     C5    279 -0.60390000  12.010000   ; qtot -0.117500
  280         hc     11    bbb     H9    280 0.16730000   1.008000   ; qtot 0.049800
  281         hc     11    bbb    H10    281 0.16730000   1.008000   ; qtot 0.217100
  282         c3     11    bbb     C6    282 -0.60390000  12.010000   ; qtot -0.386800
  283         hc     11    bbb    H11    283 0.16730000   1.008000   ; qtot -0.219500
  284         hc     11    bbb    H12    284 0.16730000   1.008000   ; qtot -0.052200
  285          c     11    bbb     C7    285 0.72110000  12.010000   ; qtot 0.668900
  286          c     11    bbb     C8    286 0.72110000  12.010000   ; qtot 1.390000
  287          o     11    bbb     O1    287 -0.61950000  16.000000   ; qtot 0.770500
  288          o     11    bbb     O2    288 -0.61950000  16.000000   ; qtot 0.151000
  289          n     11    bbb     N4    289 -0.46580000  14.010000   ; qtot -0.314800
  290         hn     11    bbb    H21    290 0.31480000   1.008000   ; qtot -0.000000
; residue   12 bbb rtp bbb q -0.0
  291         c3     12    bbb     C1    291 0.44180000  12.010000   ; qtot 0.441800
  292         h1     12    bbb     H1    292 -0.03530000   1.008000   ; qtot 0.406500
  293         h1     12    bbb     H2    293 -0.03530000   1.008000   ; qtot 0.371200
  294         c3     12    bbb     C2    294 -0.28250000  12.010000   ; qtot 0.088700
  295         h1     12    bbb     H3    295 0.15710000   1.008000   ; qtot 0.245800
  296         h1     12    bbb     H4    296 0.15710000   1.008000   ; qtot 0.402900
  297         n3     12    bbb     N1    297 -0.74090000  14.010000   ; qtot -0.338000
  298         c3     12    bbb     C3    298 0.51680000  12.010000   ; qtot 0.178800
  299         h1     12    bbb     H5    299 -0.05230000   1.008000   ; qtot 0.126500
  300         h1     12    bbb     H6    300 -0.05230000   1.008000   ; qtot 0.074200
  301         c3     12    bbb     C4    301 0.51680000  12.010000   ; qtot 0.591000
  302         h1     12    bbb     H7    302 -0.05230000   1.008000   ; qtot 0.538700
  303         h1     12    bbb     H8    303 -0.05230000   1.008000   ; qtot 0.486400
  304         c3     12    bbb     C5    304 -0.60390000  12.010000   ; qtot -0.117500
  305         hc     12    bbb     H9    305 0.16730000   1.008000   ; qtot 0.049800
  306         hc     12    bbb    H10    306 0.16730000   1.008000   ; qtot 0.217100
  307         c3     12    bbb     C6    307 -0.60390000  12.010000   ; qtot -0.386800
  308         hc     12    bbb    H11    308 0.16730000   1.008000   ; qtot -0.219500
  309         hc     12    bbb    H12    309 0.16730000   1.008000   ; qtot -0.052200
  310          c     12    bbb     C7    310 0.72110000  12.010000   ; qtot 0.668900
  311          c     12    bbb     C8    311 0.72110000  12.010000   ; qtot 1.390000
  312          o     12    bbb     O1    312 -0.61950000  16.000000   ; qtot 0.770500
  313          o     12    bbb     O2    313 -0.61950000  16.000000   ; qtot 0.151000
  314          n     12    bbb     N4    314 -0.46580000  14.010000   ; qtot -0.314800
  315         hn     12    bbb    H21    315 0.31480000   1.008000   ; qtot -0.000000
; residue   13 bbb rtp bbb q -0.0
  316         c3     13    bbb     C1    316 0.44180000  12.010000   ; qtot 0.441800
  317         h1     13    bbb     H1    317 -0.03530000   1.008000   ; qtot 0.406500
  318         h1     13    bbb     H2    318 -0.03530000   1.008000   ; qtot 0.371200
  319         c3     13    bbb     C2    319 -0.28250000  12.010000   ; qtot 0.088700
  320         h1     13    bbb     H3    320 0.15710000   1.008000   ; qtot 0.245800
  321         h1     13    bbb     H4    321 0.15710000   1.008000   ; qtot 0.402900
  322         n3     13    bbb     N1    322 -0.74090000  14.010000   ; qtot -0.338000
  323         c3     13    bbb     C3    323 0.51680000  12.010000   ; qtot 0.178800
  324         h1     13    bbb     H5    324 -0.05230000   1.008000   ; qtot 0.126500
  325         h1     13    bbb     H6    325 -0.05230000   1.008000   ; qtot 0.074200
  326         c3     13    bbb     C4    326 0.51680000  12.010000   ; qtot 0.591000
  327         h1     13    bbb     H7    327 -0.05230000   1.008000   ; qtot 0.538700
  328         h1     13    bbb     H8    328 -0.05230000   1.008000   ; qtot 0.486400
  329         c3     13    bbb     C5    329 -0.60390000  12.010000   ; qtot -0.117500
  330         hc     13    bbb     H9    330 0.16730000   1.008000   ; qtot 0.049800
  331         hc     13    bbb    H10    331 0.16730000   1.008000   ; qtot 0.217100
  332         c3     13    bbb     C6    332 -0.60390000  12.010000   ; qtot -0.386800
  333         hc     13    bbb    H11    333 0.16730000   1.008000   ; qtot -0.219500
  334         hc     13    bbb    H12    334 0.16730000   1.008000   ; qtot -0.052200
  335          c     13    bbb     C7    335 0.72110000  12.010000   ; qtot 0.668900
  336          c     13    bbb     C8    336 0.72110000  12.010000   ; qtot 1.390000
  337          o     13    bbb     O1    337 -0.61950000  16.000000   ; qtot 0.770500
  338          o     13    bbb     O2    338 -0.61950000  16.000000   ; qtot 0.151000
  339          n     13    bbb     N4    339 -0.46580000  14.010000   ; qtot -0.314800
  340         hn     13    bbb    H21    340 0.31480000   1.008000   ; qtot -0.000000
; residue   14 bbb rtp bbb q -0.0
  341         c3     14    bbb     C1    341 0.44180000  12.010000   ; qtot 0.441800
  342         h1     14    bbb     H1    342 -0.03530000   1.008000   ; qtot 0.406500
  343         h1     14    bbb     H2    343 -0.03530000   1.008000   ; qtot 0.371200
  344         c3     14    bbb     C2    344 -0.28250000  12.010000   ; qtot 0.088700
  345         h1     14    bbb     H3    345 0.15710000   1.008000   ; qtot 0.245800
  346         h1     14    bbb     H4    346 0.15710000   1.008000   ; qtot 0.402900
  347         n3     14    bbb     N1    347 -0.74090000  14.010000   ; qtot -0.338000
  348         c3     14    bbb     C3    348 0.51680000  12.010000   ; qtot 0.178800
  349         h1     14    bbb     H5    349 -0.05230000   1.008000   ; qtot 0.126500
  350         h1     14    bbb     H6    350 -0.05230000   1.008000   ; qtot 0.074200
  351         c3     14    bbb     C4    351 0.51680000  12.010000   ; qtot 0.591000
  352         h1     14    bbb     H7    352 -0.05230000   1.008000   ; qtot 0.538700
  353         h1     14    bbb     H8    353 -0.05230000   1.008000   ; qtot 0.486400
  354         c3     14    bbb     C5    354 -0.60390000  12.010000   ; qtot -0.117500
  355         hc     14    bbb     H9    355 0.16730000   1.008000   ; qtot 0.049800
  356         hc     14    bbb    H10    356 0.16730000   1.008000   ; qtot 0.217100
  357         c3     14    bbb     C6    357 -0.60390000  12.010000   ; qtot -0.386800
  358         hc     14    bbb    H11    358 0.16730000   1.008000   ; qtot -0.219500
  359         hc     14    bbb    H12    359 0.16730000   1.008000   ; qtot -0.052200
  360          c     14    bbb     C7    360 0.72110000  12.010000   ; qtot 0.668900
  361          c     14    bbb     C8    361 0.72110000  12.010000   ; qtot 1.390000
  362          o     14    bbb     O1    362 -0.61950000  16.000000   ; qtot 0.770500
  363          o     14    bbb     O2    363 -0.61950000  16.000000   ; qtot 0.151000
  364          n     14    bbb     N4    364 -0.46580000  14.010000   ; qtot -0.314800
  365         hn     14    bbb    H21    365 0.31480000   1.008000   ; qtot -0.000000
; residue   15 bbb rtp bbb q -0.0
  366         c3     15    bbb     C1    366 0.44180000  12.010000   ; qtot 0.441800
  367         h1     15    bbb     H1    367 -0.03530000   1.008000   ; qtot 0.406500
  368         h1     15    bbb     H2    368 -0.03530000   1.008000   ; qtot 0.371200
  369         c3     15    bbb     C2    369 -0.28250000  12.010000   ; qtot 0.088700
  370         h1     15    bbb     H3    370 0.15710000   1.008000   ; qtot 0.245800
  371         h1     15    bbb     H4    371 0.15710000   1.008000   ; qtot 0.402900
  372         n3     15    bbb     N1    372 -0.74090000  14.010000   ; qtot -0.338000
  373         c3     15    bbb     C3    373 0.51680000  12.010000   ; qtot 0.178800
  374         h1     15    bbb     H5    374 -0.05230000   1.008000   ; qtot 0.126500
  375         h1     15    bbb     H6    375 -0.05230000   1.008000   ; qtot 0.074200
  376         c3     15    bbb     C4    376 0.51680000  12.010000   ; qtot 0.591000
  377         h1     15    bbb     H7    377 -0.05230000   1.008000   ; qtot 0.538700
  378         h1     15    bbb     H8    378 -0.05230000   1.008000   ; qtot 0.486400
  379         c3     15    bbb     C5    379 -0.60390000  12.010000   ; qtot -0.117500
  380         hc     15    bbb     H9    380 0.16730000   1.008000   ; qtot 0.049800
  381         hc     15    bbb    H10    381 0.16730000   1.008000   ; qtot 0.217100
  382         c3     15    bbb     C6    382 -0.60390000  12.010000   ; qtot -0.386800
  383         hc     15    bbb    H11    383 0.16730000   1.008000   ; qtot -0.219500
  384         hc     15    bbb    H12    384 0.16730000   1.008000   ; qtot -0.052200
  385          c     15    bbb     C7    385 0.72110000  12.010000   ; qtot 0.668900
  386          c     15    bbb     C8    386 0.72110000  12.010000   ; qtot 1.390000
  387          o     15    bbb     O1    387 -0.61950000  16.000000   ; qtot 0.770500
  388          o     15    bbb     O2    388 -0.61950000  16.000000   ; qtot 0.151000
  389          n     15    bbb     N4    389 -0.46580000  14.010000   ; qtot -0.314800
  390         hn     15    bbb    H21    390 0.31480000   1.008000   ; qtot -0.000000
; residue   16 bbb rtp bbb q -0.0
  391         c3     16    bbb     C1    391 0.44180000  12.010000   ; qtot 0.441800
  392         h1     16    bbb     H1    392 -0.03530000   1.008000   ; qtot 0.406500
  393         h1     16    bbb     H2    393 -0.03530000   1.008000   ; qtot 0.371200
  394         c3     16    bbb     C2    394 -0.28250000  12.010000   ; qtot 0.088700
  395         h1     16    bbb     H3    395 0.15710000   1.008000   ; qtot 0.245800
  396         h1     16    bbb     H4    396 0.15710000   1.008000   ; qtot 0.402900
  397         n3     16    bbb     N1    397 -0.74090000  14.010000   ; qtot -0.338000
  398         c3     16    bbb     C3    398 0.51680000  12.010000   ; qtot 0.178800
  399         h1     16    bbb     H5    399 -0.05230000   1.008000   ; qtot 0.126500
  400         h1     16    bbb     H6    400 -0.05230000   1.008000   ; qtot 0.074200
  401         c3     16    bbb     C4    401 0.51680000  12.010000   ; qtot 0.591000
  402         h1     16    bbb     H7    402 -0.05230000   1.008000   ; qtot 0.538700
  403         h1     16    bbb     H8    403 -0.05230000   1.008000   ; qtot 0.486400
  404         c3     16    bbb     C5    404 -0.60390000  12.010000   ; qtot -0.117500
  405         hc     16    bbb     H9    405 0.16730000   1.008000   ; qtot 0.049800
  406         hc     16    bbb    H10    406 0.16730000   1.008000   ; qtot 0.217100
  407         c3     16    bbb     C6    407 -0.60390000  12.010000   ; qtot -0.386800
  408         hc     16    bbb    H11    408 0.16730000   1.008000   ; qtot -0.219500
  409         hc     16    bbb    H12    409 0.16730000   1.008000   ; qtot -0.052200
  410          c     16    bbb     C7    410 0.72110000  12.010000   ; qtot 0.668900
  411          c     16    bbb     C8    411 0.72110000  12.010000   ; qtot 1.390000
  412          o     16    bbb     O1    412 -0.61950000  16.000000   ; qtot 0.770500
  413          o     16    bbb     O2    413 -0.61950000  16.000000   ; qtot 0.151000
  414          n     16    bbb     N4    414 -0.46580000  14.010000   ; qtot -0.314800
  415         hn     16    bbb    H21    415 0.31480000   1.008000   ; qtot -0.000000
; residue   17 bbb rtp bbb q -0.0
  416         c3     17    bbb     C1    416 0.44180000  12.010000   ; qtot 0.441800
  417         h1     17    bbb     H1    417 -0.03530000   1.008000   ; qtot 0.406500
  418         h1     17    bbb     H2    418 -0.03530000   1.008000   ; qtot 0.371200
  419         c3     17    bbb     C2    419 -0.28250000  12.010000   ; qtot 0.088700
  420         h1     17    bbb     H3    420 0.15710000   1.008000   ; qtot 0.245800
  421         h1     17    bbb     H4    421 0.15710000   1.008000   ; qtot 0.402900
  422         n3     17    bbb     N1    422 -0.74090000  14.010000   ; qtot -0.338000
  423         c3     17    bbb     C3    423 0.51680000  12.010000   ; qtot 0.178800
  424         h1     17    bbb     H5    424 -0.05230000   1.008000   ; qtot 0.126500
  425         h1     17    bbb     H6    425 -0.05230000   1.008000   ; qtot 0.074200
  426         c3     17    bbb     C4    426 0.51680000  12.010000   ; qtot 0.591000
  427         h1     17    bbb     H7    427 -0.05230000   1.008000   ; qtot 0.538700
  428         h1     17    bbb     H8    428 -0.05230000   1.008000   ; qtot 0.486400
  429         c3     17    bbb     C5    429 -0.60390000  12.010000   ; qtot -0.117500
  430         hc     17    bbb     H9    430 0.16730000   1.008000   ; qtot 0.049800
  431         hc     17    bbb    H10    431 0.16730000   1.008000   ; qtot 0.217100
  432         c3     17    bbb     C6    432 -0.60390000  12.010000   ; qtot -0.386800
  433         hc     17    bbb    H11    433 0.16730000   1.008000   ; qtot -0.219500
  434         hc     17    bbb    H12    434 0.16730000   1.008000   ; qtot -0.052200
  435          c     17    bbb     C7    435 0.72110000  12.010000   ; qtot 0.668900
  436          c     17    bbb     C8    436 0.72110000  12.010000   ; qtot 1.390000
  437          o     17    bbb     O1    437 -0.61950000  16.000000   ; qtot 0.770500
  438          o     17    bbb     O2    438 -0.61950000  16.000000   ; qtot 0.151000
  439          n     17    bbb     N4    439 -0.46580000  14.010000   ; qtot -0.314800
  440         hn     17    bbb    H21    440 0.31480000   1.008000   ; qtot -0.000000
; residue   18 bbb rtp bbb q -0.0
  441         c3     18    bbb     C1    441 0.44180000  12.010000   ; qtot 0.441800
  442         h1     18    bbb     H1    442 -0.03530000   1.008000   ; qtot 0.406500
  443         h1     18    bbb     H2    443 -0.03530000   1.008000   ; qtot 0.371200
  444         c3     18    bbb     C2    444 -0.28250000  12.010000   ; qtot 0.088700
  445         h1     18    bbb     H3    445 0.15710000   1.008000   ; qtot 0.245800
  446         h1     18    bbb     H4    446 0.15710000   1.008000   ; qtot 0.402900
  447         n3     18    bbb     N1    447 -0.74090000  14.010000   ; qtot -0.338000
  448         c3     18    bbb     C3    448 0.51680000  12.010000   ; qtot 0.178800
  449         h1     18    bbb     H5    449 -0.05230000   1.008000   ; qtot 0.126500
  450         h1     18    bbb     H6    450 -0.05230000   1.008000   ; qtot 0.074200
  451         c3     18    bbb     C4    451 0.51680000  12.010000   ; qtot 0.591000
  452         h1     18    bbb     H7    452 -0.05230000   1.008000   ; qtot 0.538700
  453         h1     18    bbb     H8    453 -0.05230000   1.008000   ; qtot 0.486400
  454         c3     18    bbb     C5    454 -0.60390000  12.010000   ; qtot -0.117500
  455         hc     18    bbb     H9    455 0.16730000   1.008000   ; qtot 0.049800
  456         hc     18    bbb    H10    456 0.16730000   1.008000   ; qtot 0.217100
  457         c3     18    bbb     C6    457 -0.60390000  12.010000   ; qtot -0.386800
  458         hc     18    bbb    H11    458 0.16730000   1.008000   ; qtot -0.219500
  459         hc     18    bbb    H12    459 0.16730000   1.008000   ; qtot -0.052200
  460          c     18    bbb     C7    460 0.72110000  12.010000   ; qtot 0.668900
  461          c     18    bbb     C8    461 0.72110000  12.010000   ; qtot 1.390000
  462          o     18    bbb     O1    462 -0.61950000  16.000000   ; qtot 0.770500
  463          o     18    bbb     O2    463 -0.61950000  16.000000   ; qtot 0.151000
  464          n     18    bbb     N4    464 -0.46580000  14.010000   ; qtot -0.314800
  465         hn     18    bbb    H21    465 0.31480000   1.008000   ; qtot -0.000000
; residue   19 bbb rtp bbb q -0.0
  466         c3     19    bbb     C1    466 0.44180000  12.010000   ; qtot 0.441800
  467         h1     19    bbb     H1    467 -0.03530000   1.008000   ; qtot 0.406500
  468         h1     19    bbb     H2    468 -0.03530000   1.008000   ; qtot 0.371200
  469         c3     19    bbb     C2    469 -0.28250000  12.010000   ; qtot 0.088700
  470         h1     19    bbb     H3    470 0.15710000   1.008000   ; qtot 0.245800
  471         h1     19    bbb     H4    471 0.15710000   1.008000   ; qtot 0.402900
  472         n3     19    bbb     N1    472 -0.74090000  14.010000   ; qtot -0.338000
  473         c3     19    bbb     C3    473 0.51680000  12.010000   ; qtot 0.178800
  474         h1     19    bbb     H5    474 -0.05230000   1.008000   ; qtot 0.126500
  475         h1     19    bbb     H6    475 -0.05230000   1.008000   ; qtot 0.074200
  476         c3     19    bbb     C4    476 0.51680000  12.010000   ; qtot 0.591000
  477         h1     19    bbb     H7    477 -0.05230000   1.008000   ; qtot 0.538700
  478         h1     19    bbb     H8    478 -0.05230000   1.008000   ; qtot 0.486400
  479         c3     19    bbb     C5    479 -0.60390000  12.010000   ; qtot -0.117500
  480         hc     19    bbb     H9    480 0.16730000   1.008000   ; qtot 0.049800
  481         hc     19    bbb    H10    481 0.16730000   1.008000   ; qtot 0.217100
  482         c3     19    bbb     C6    482 -0.60390000  12.010000   ; qtot -0.386800
  483         hc     19    bbb    H11    483 0.16730000   1.008000   ; qtot -0.219500
  484         hc     19    bbb    H12    484 0.16730000   1.008000   ; qtot -0.052200
  485          c     19    bbb     C7    485 0.72110000  12.010000   ; qtot 0.668900
  486          c     19    bbb     C8    486 0.72110000  12.010000   ; qtot 1.390000
  487          o     19    bbb     O1    487 -0.61950000  16.000000   ; qtot 0.770500
  488          o     19    bbb     O2    488 -0.61950000  16.000000   ; qtot 0.151000
  489          n     19    bbb     N4    489 -0.46580000  14.010000   ; qtot -0.314800
  490         hn     19    bbb    H21    490 0.31480000   1.008000   ; qtot -0.000000
; residue   20 bbb rtp bbb q -0.0
  491         c3     20    bbb     C1    491 0.44180000  12.010000   ; qtot 0.441800
  492         h1     20    bbb     H1    492 -0.03530000   1.008000   ; qtot 0.406500
  493         h1     20    bbb     H2    493 -0.03530000   1.008000   ; qtot 0.371200
  494         c3     20    bbb     C2    494 -0.28250000  12.010000   ; qtot 0.088700
  495         h1     20    bbb     H3    495 0.15710000   1.008000   ; qtot 0.245800
  496         h1     20    bbb     H4    496 0.15710000   1.008000   ; qtot 0.402900
  497         n3     20    bbb     N1    497 -0.74090000  14.010000   ; qtot -0.338000
  498         c3     20    bbb     C3    498 0.51680000  12.010000   ; qtot 0.178800
  499         h1     20    bbb     H5    499 -0.05230000   1.008000   ; qtot 0.126500
  500         h1     20    bbb     H6    500 -0.05230000   1.008000   ; qtot 0.074200
  501         c3     20    bbb     C4    501 0.51680000  12.010000   ; qtot 0.591000
  502         h1     20    bbb     H7    502 -0.05230000   1.008000   ; qtot 0.538700
  503         h1     20    bbb     H8    503 -0.05230000   1.008000   ; qtot 0.486400
  504         c3     20    bbb     C5    504 -0.60390000  12.010000   ; qtot -0.117500
  505         hc     20    bbb     H9    505 0.16730000   1.008000   ; qtot 0.049800
  506         hc     20    bbb    H10    506 0.16730000   1.008000   ; qtot 0.217100
  507         c3     20    bbb     C6    507 -0.60390000  12.010000   ; qtot -0.386800
  508         hc     20    bbb    H11    508 0.16730000   1.008000   ; qtot -0.219500
  509         hc     20    bbb    H12    509 0.16730000   1.008000   ; qtot -0.052200
  510          c     20    bbb     C7    510 0.72110000  12.010000   ; qtot 0.668900
  511          c     20    bbb     C8    511 0.72110000  12.010000   ; qtot 1.390000
  512          o     20    bbb     O1    512 -0.61950000  16.000000   ; qtot 0.770500
  513          o     20    bbb     O2    513 -0.61950000  16.000000   ; qtot 0.151000
  514          n     20    bbb     N4    514 -0.46580000  14.010000   ; qtot -0.314800
  515         hn     20    bbb    H21    515 0.31480000   1.008000   ; qtot -0.000000
; residue   21 bbb rtp bbb q -0.0
  516         c3     21    bbb     C1    516 0.44180000  12.010000   ; qtot 0.441800
  517         h1     21    bbb     H1    517 -0.03530000   1.008000   ; qtot 0.406500
  518         h1     21    bbb     H2    518 -0.03530000   1.008000   ; qtot 0.371200
  519         c3     21    bbb     C2    519 -0.28250000  12.010000   ; qtot 0.088700
  520         h1     21    bbb     H3    520 0.15710000   1.008000   ; qtot 0.245800
  521         h1     21    bbb     H4    521 0.15710000   1.008000   ; qtot 0.402900
  522         n3     21    bbb     N1    522 -0.74090000  14.010000   ; qtot -0.338000
  523         c3     21    bbb     C3    523 0.51680000  12.010000   ; qtot 0.178800
  524         h1     21    bbb     H5    524 -0.05230000   1.008000   ; qtot 0.126500
  525         h1     21    bbb     H6    525 -0.05230000   1.008000   ; qtot 0.074200
  526         c3     21    bbb     C4    526 0.51680000  12.010000   ; qtot 0.591000
  527         h1     21    bbb     H7    527 -0.05230000   1.008000   ; qtot 0.538700
  528         h1     21    bbb     H8    528 -0.05230000   1.008000   ; qtot 0.486400
  529         c3     21    bbb     C5    529 -0.60390000  12.010000   ; qtot -0.117500
  530         hc     21    bbb     H9    530 0.16730000   1.008000   ; qtot 0.049800
  531         hc     21    bbb    H10    531 0.16730000   1.008000   ; qtot 0.217100
  532         c3     21    bbb     C6    532 -0.60390000  12.010000   ; qtot -0.386800
  533         hc     21    bbb    H11    533 0.16730000   1.008000   ; qtot -0.219500
  534         hc     21    bbb    H12    534 0.16730000   1.008000   ; qtot -0.052200
  535          c     21    bbb     C7    535 0.72110000  12.010000   ; qtot 0.668900
  536          c     21    bbb     C8    536 0.72110000  12.010000   ; qtot 1.390000
  537          o     21    bbb     O1    537 -0.61950000  16.000000   ; qtot 0.770500
  538          o     21    bbb     O2    538 -0.61950000  16.000000   ; qtot 0.151000
  539          n     21    bbb     N4    539 -0.46580000  14.010000   ; qtot -0.314800
  540         hn     21    bbb    H21    540 0.31480000   1.008000   ; qtot -0.000000
; residue   22 bbb rtp bbb q -0.0
  541         c3     22    bbb     C1    541 0.44180000  12.010000   ; qtot 0.441800
  542         h1     22    bbb     H1    542 -0.03530000   1.008000   ; qtot 0.406500
  543         h1     22    bbb     H2    543 -0.03530000   1.008000   ; qtot 0.371200
  544         c3     22    bbb     C2    544 -0.28250000  12.010000   ; qtot 0.088700
  545         h1     22    bbb     H3    545 0.15710000   1.008000   ; qtot 0.245800
  546         h1     22    bbb     H4    546 0.15710000   1.008000   ; qtot 0.402900
  547         n3     22    bbb     N1    547 -0.74090000  14.010000   ; qtot -0.338000
  548         c3     22    bbb     C3    548 0.51680000  12.010000   ; qtot 0.178800
  549         h1     22    bbb     H5    549 -0.05230000   1.008000   ; qtot 0.126500
  550         h1     22    bbb     H6    550 -0.05230000   1.008000   ; qtot 0.074200
  551         c3     22    bbb     C4    551 0.51680000  12.010000   ; qtot 0.591000
  552         h1     22    bbb     H7    552 -0.05230000   1.008000   ; qtot 0.538700
  553         h1     22    bbb     H8    553 -0.05230000   1.008000   ; qtot 0.486400
  554         c3     22    bbb     C5    554 -0.60390000  12.010000   ; qtot -0.117500
  555         hc     22    bbb     H9    555 0.16730000   1.008000   ; qtot 0.049800
  556         hc     22    bbb    H10    556 0.16730000   1.008000   ; qtot 0.217100
  557         c3     22    bbb     C6    557 -0.60390000  12.010000   ; qtot -0.386800
  558         hc     22    bbb    H11    558 0.16730000   1.008000   ; qtot -0.219500
  559         hc     22    bbb    H12    559 0.16730000   1.008000   ; qtot -0.052200
  560          c     22    bbb     C7    560 0.72110000  12.010000   ; qtot 0.668900
  561          c     22    bbb     C8    561 0.72110000  12.010000   ; qtot 1.390000
  562          o     22    bbb     O1    562 -0.61950000  16.000000   ; qtot 0.770500
  563          o     22    bbb     O2    563 -0.61950000  16.000000   ; qtot 0.151000
  564          n     22    bbb     N4    564 -0.46580000  14.010000   ; qtot -0.314800
  565         hn     22    bbb    H21    565 0.31480000   1.008000   ; qtot -0.000000
; residue   23 bbb rtp bbb q -0.0
  566         c3     23    bbb     C1    566 0.44180000  12.010000   ; qtot 0.441800
  567         h1     23    bbb     H1    567 -0.03530000   1.008000   ; qtot 0.406500
  568         h1     23    bbb     H2    568 -0.03530000   1.008000   ; qtot 0.371200
  569         c3     23    bbb     C2    569 -0.28250000  12.010000   ; qtot 0.088700
  570         h1     23    bbb     H3    570 0.15710000   1.008000   ; qtot 0.245800
  571         h1     23    bbb     H4    571 0.15710000   1.008000   ; qtot 0.402900
  572         n3     23    bbb     N1    572 -0.74090000  14.010000   ; qtot -0.338000
  573         c3     23    bbb     C3    573 0.51680000  12.010000   ; qtot 0.178800
  574         h1     23    bbb     H5    574 -0.05230000   1.008000   ; qtot 0.126500
  575         h1     23    bbb     H6    575 -0.05230000   1.008000   ; qtot 0.074200
  576         c3     23    bbb     C4    576 0.51680000  12.010000   ; qtot 0.591000
  577         h1     23    bbb     H7    577 -0.05230000   1.008000   ; qtot 0.538700
  578         h1     23    bbb     H8    578 -0.05230000   1.008000   ; qtot 0.486400
  579         c3     23    bbb     C5    579 -0.60390000  12.010000   ; qtot -0.117500
  580         hc     23    bbb     H9    580 0.16730000   1.008000   ; qtot 0.049800
  581         hc     23    bbb    H10    581 0.16730000   1.008000   ; qtot 0.217100
  582         c3     23    bbb     C6    582 -0.60390000  12.010000   ; qtot -0.386800
  583         hc     23    bbb    H11    583 0.16730000   1.008000   ; qtot -0.219500
  584         hc     23    bbb    H12    584 0.16730000   1.008000   ; qtot -0.052200
  585          c     23    bbb     C7    585 0.72110000  12.010000   ; qtot 0.668900
  586          c     23    bbb     C8    586 0.72110000  12.010000   ; qtot 1.390000
  587          o     23    bbb     O1    587 -0.61950000  16.000000   ; qtot 0.770500
  588          o     23    bbb     O2    588 -0.61950000  16.000000   ; qtot 0.151000
  589          n     23    bbb     N4    589 -0.46580000  14.010000   ; qtot -0.314800
  590         hn     23    bbb    H21    590 0.31480000   1.008000   ; qtot -0.000000
; residue   24 bbb rtp bbb q -0.0
  591         c3     24    bbb     C1    591 0.44180000  12.010000   ; qtot 0.441800
  592         h1     24    bbb     H1    592 -0.03530000   1.008000   ; qtot 0.406500
  593         h1     24    bbb     H2    593 -0.03530000   1.008000   ; qtot 0.371200
  594         c3     24    bbb     C2    594 -0.28250000  12.010000   ; qtot 0.088700
  595         h1     24    bbb     H3    595 0.15710000   1.008000   ; qtot 0.245800
  596         h1     24    bbb     H4    596 0.15710000   1.008000   ; qtot 0.402900
  597         n3     24    bbb     N1    597 -0.74090000  14.010000   ; qtot -0.338000
  598         c3     24    bbb     C3    598 0.51680000  12.010000   ; qtot 0.178800
  599         h1     24    bbb     H5    599 -0.05230000   1.008000   ; qtot 0.126500
  600         h1     24    bbb     H6    600 -0.05230000   1.008000   ; qtot 0.074200
  601         c3     24    bbb     C4    601 0.51680000  12.010000   ; qtot 0.591000
  602         h1     24    bbb     H7    602 -0.05230000   1.008000   ; qtot 0.538700
  603         h1     24    bbb     H8    603 -0.05230000   1.008000   ; qtot 0.486400
  604         c3     24    bbb     C5    604 -0.60390000  12.010000   ; qtot -0.117500
  605         hc     24    bbb     H9    605 0.16730000   1.008000   ; qtot 0.049800
  606         hc     24    bbb    H10    606 0.16730000   1.008000   ; qtot 0.217100
  607         c3     24    bbb     C6    607 -0.60390000  12.010000   ; qtot -0.386800
  608         hc     24    bbb    H11    608 0.16730000   1.008000   ; qtot -0.219500
  609         hc     24    bbb    H12    609 0.16730000   1.008000   ; qtot -0.052200
  610          c     24    bbb     C7    610 0.72110000  12.010000   ; qtot 0.668900
  611          c     24    bbb     C8    611 0.72110000  12.010000   ; qtot 1.390000
  612          o     24    bbb     O1    612 -0.61950000  16.000000   ; qtot 0.770500
  613          o     24    bbb     O2    613 -0.61950000  16.000000   ; qtot 0.151000
  614          n     24    bbb     N4    614 -0.46580000  14.010000   ; qtot -0.314800
  615         hn     24    bbb    H21    615 0.31480000   1.008000   ; qtot -0.000000
; residue   25 bbb rtp bbb q -0.0
  616         c3     25    bbb     C1    616 0.44180000  12.010000   ; qtot 0.441800
  617         h1     25    bbb     H1    617 -0.03530000   1.008000   ; qtot 0.406500
  618         h1     25    bbb     H2    618 -0.03530000   1.008000   ; qtot 0.371200
  619         c3     25    bbb     C2    619 -0.28250000  12.010000   ; qtot 0.088700
  620         h1     25    bbb     H3    620 0.15710000   1.008000   ; qtot 0.245800
  621         h1     25    bbb     H4    621 0.15710000   1.008000   ; qtot 0.402900
  622         n3     25    bbb     N1    622 -0.74090000  14.010000   ; qtot -0.338000
  623         c3     25    bbb     C3    623 0.51680000  12.010000   ; qtot 0.178800
  624         h1     25    bbb     H5    624 -0.05230000   1.008000   ; qtot 0.126500
  625         h1     25    bbb     H6    625 -0.05230000   1.008000   ; qtot 0.074200
  626         c3     25    bbb     C4    626 0.51680000  12.010000   ; qtot 0.591000
  627         h1     25    bbb     H7    627 -0.05230000   1.008000   ; qtot 0.538700
  628         h1     25    bbb     H8    628 -0.05230000   1.008000   ; qtot 0.486400
  629         c3     25    bbb     C5    629 -0.60390000  12.010000   ; qtot -0.117500
  630         hc     25    bbb     H9    630 0.16730000   1.008000   ; qtot 0.049800
  631         hc     25    bbb    H10    631 0.16730000   1.008000   ; qtot 0.217100
  632         c3     25    bbb     C6    632 -0.60390000  12.010000   ; qtot -0.386800
  633         hc     25    bbb    H11    633 0.16730000   1.008000   ; qtot -0.219500
  634         hc     25    bbb    H12    634 0.16730000   1.008000   ; qtot -0.052200
  635          c     25    bbb     C7    635 0.72110000  12.010000   ; qtot 0.668900
  636          c     25    bbb     C8    636 0.72110000  12.010000   ; qtot 1.390000
  637          o     25    bbb     O1    637 -0.61950000  16.000000   ; qtot 0.770500
  638          o     25    bbb     O2    638 -0.61950000  16.000000   ; qtot 0.151000
  639          n     25    bbb     N4    639 -0.46580000  14.010000   ; qtot -0.314800
  640         hn     25    bbb    H21    640 0.31480000   1.008000   ; qtot -0.000000
; residue   26 bbb rtp bbb q -0.0
  641         c3     26    bbb     C1    641 0.44180000  12.010000   ; qtot 0.441800
  642         h1     26    bbb     H1    642 -0.03530000   1.008000   ; qtot 0.406500
  643         h1     26    bbb     H2    643 -0.03530000   1.008000   ; qtot 0.371200
  644         c3     26    bbb     C2    644 -0.28250000  12.010000   ; qtot 0.088700
  645         h1     26    bbb     H3    645 0.15710000   1.008000   ; qtot 0.245800
  646         h1     26    bbb     H4    646 0.15710000   1.008000   ; qtot 0.402900
  647         n3     26    bbb     N1    647 -0.74090000  14.010000   ; qtot -0.338000
  648         c3     26    bbb     C3    648 0.51680000  12.010000   ; qtot 0.178800
  649         h1     26    bbb     H5    649 -0.05230000   1.008000   ; qtot 0.126500
  650         h1     26    bbb     H6    650 -0.05230000   1.008000   ; qtot 0.074200
  651         c3     26    bbb     C4    651 0.51680000  12.010000   ; qtot 0.591000
  652         h1     26    bbb     H7    652 -0.05230000   1.008000   ; qtot 0.538700
  653         h1     26    bbb     H8    653 -0.05230000   1.008000   ; qtot 0.486400
  654         c3     26    bbb     C5    654 -0.60390000  12.010000   ; qtot -0.117500
  655         hc     26    bbb     H9    655 0.16730000   1.008000   ; qtot 0.049800
  656         hc     26    bbb    H10    656 0.16730000   1.008000   ; qtot 0.217100
  657         c3     26    bbb     C6    657 -0.60390000  12.010000   ; qtot -0.386800
  658         hc     26    bbb    H11    658 0.16730000   1.008000   ; qtot -0.219500
  659         hc     26    bbb    H12    659 0.16730000   1.008000   ; qtot -0.052200
  660          c     26    bbb     C7    660 0.72110000  12.010000   ; qtot 0.668900
  661          c     26    bbb     C8    661 0.72110000  12.010000   ; qtot 1.390000
  662          o     26    bbb     O1    662 -0.61950000  16.000000   ; qtot 0.770500
  663          o     26    bbb     O2    663 -0.61950000  16.000000   ; qtot 0.151000
  664          n     26    bbb     N4    664 -0.46580000  14.010000   ; qtot -0.314800
  665         hn     26    bbb    H21    665 0.31480000   1.008000   ; qtot -0.000000
; residue   27 bbb rtp bbb q -0.0
  666         c3     27    bbb     C1    666 0.44180000  12.010000   ; qtot 0.441800
  667         h1     27    bbb     H1    667 -0.03530000   1.008000   ; qtot 0.406500
  668         h1     27    bbb     H2    668 -0.03530000   1.008000   ; qtot 0.371200
  669         c3     27    bbb     C2    669 -0.28250000  12.010000   ; qtot 0.088700
  670         h1     27    bbb     H3    670 0.15710000   1.008000   ; qtot 0.245800
  671         h1     27    bbb     H4    671 0.15710000   1.008000   ; qtot 0.402900
  672         n3     27    bbb     N1    672 -0.74090000  14.010000   ; qtot -0.338000
  673         c3     27    bbb     C3    673 0.51680000  12.010000   ; qtot 0.178800
  674         h1     27    bbb     H5    674 -0.05230000   1.008000   ; qtot 0.126500
  675         h1     27    bbb     H6    675 -0.05230000   1.008000   ; qtot 0.074200
  676         c3     27    bbb     C4    676 0.51680000  12.010000   ; qtot 0.591000
  677         h1     27    bbb     H7    677 -0.05230000   1.008000   ; qtot 0.538700
  678         h1     27    bbb     H8    678 -0.05230000   1.008000   ; qtot 0.486400
  679         c3     27    bbb     C5    679 -0.60390000  12.010000   ; qtot -0.117500
  680         hc     27    bbb     H9    680 0.16730000   1.008000   ; qtot 0.049800
  681         hc     27    bbb    H10    681 0.16730000   1.008000   ; qtot 0.217100
  682         c3     27    bbb     C6    682 -0.60390000  12.010000   ; qtot -0.386800
  683         hc     27    bbb    H11    683 0.16730000   1.008000   ; qtot -0.219500
  684         hc     27    bbb    H12    684 0.16730000   1.008000   ; qtot -0.052200
  685          c     27    bbb     C7    685 0.72110000  12.010000   ; qtot 0.668900
  686          c     27    bbb     C8    686 0.72110000  12.010000   ; qtot 1.390000
  687          o     27    bbb     O1    687 -0.61950000  16.000000   ; qtot 0.770500
  688          o     27    bbb     O2    688 -0.61950000  16.000000   ; qtot 0.151000
  689          n     27    bbb     N4    689 -0.46580000  14.010000   ; qtot -0.314800
  690         hn     27    bbb    H21    690 0.31480000   1.008000   ; qtot -0.000000
; residue   28 bbb rtp bbb q -0.0
  691         c3     28    bbb     C1    691 0.44180000  12.010000   ; qtot 0.441800
  692         h1     28    bbb     H1    692 -0.03530000   1.008000   ; qtot 0.406500
  693         h1     28    bbb     H2    693 -0.03530000   1.008000   ; qtot 0.371200
  694         c3     28    bbb     C2    694 -0.28250000  12.010000   ; qtot 0.088700
  695         h1     28    bbb     H3    695 0.15710000   1.008000   ; qtot 0.245800
  696         h1     28    bbb     H4    696 0.15710000   1.008000   ; qtot 0.402900
  697         n3     28    bbb     N1    697 -0.74090000  14.010000   ; qtot -0.338000
  698         c3     28    bbb     C3    698 0.51680000  12.010000   ; qtot 0.178800
  699         h1     28    bbb     H5    699 -0.05230000   1.008000   ; qtot 0.126500
  700         h1     28    bbb     H6    700 -0.05230000   1.008000   ; qtot 0.074200
  701         c3     28    bbb     C4    701 0.51680000  12.010000   ; qtot 0.591000
  702         h1     28    bbb     H7    702 -0.05230000   1.008000   ; qtot 0.538700
  703         h1     28    bbb     H8    703 -0.05230000   1.008000   ; qtot 0.486400
  704         c3     28    bbb     C5    704 -0.60390000  12.010000   ; qtot -0.117500
  705         hc     28    bbb     H9    705 0.16730000   1.008000   ; qtot 0.049800
  706         hc     28    bbb    H10    706 0.16730000   1.008000   ; qtot 0.217100
  707         c3     28    bbb     C6    707 -0.60390000  12.010000   ; qtot -0.386800
  708         hc     28    bbb    H11    708 0.16730000   1.008000   ; qtot -0.219500
  709         hc     28    bbb    H12    709 0.16730000   1.008000   ; qtot -0.052200
  710          c     28    bbb     C7    710 0.72110000  12.010000   ; qtot 0.668900
  711          c     28    bbb     C8    711 0.72110000  12.010000   ; qtot 1.390000
  712          o     28    bbb     O1    712 -0.61950000  16.000000   ; qtot 0.770500
  713          o     28    bbb     O2    713 -0.61950000  16.000000   ; qtot 0.151000
  714          n     28    bbb     N4    714 -0.46580000  14.010000   ; qtot -0.314800
  715         hn     28    bbb    H21    715 0.31480000   1.008000   ; qtot -0.000000
; residue   29 bbb rtp bbb q -0.0
  716         c3     29    bbb     C1    716 0.44180000  12.010000   ; qtot 0.441800
  717         h1     29    bbb     H1    717 -0.03530000   1.008000   ; qtot 0.406500
  718         h1     29    bbb     H2    718 -0.03530000   1.008000   ; qtot 0.371200
  719         c3     29    bbb     C2    719 -0.28250000  12.010000   ; qtot 0.088700
  720         h1     29    bbb     H3    720 0.15710000   1.008000   ; qtot 0.245800
  721         h1     29    bbb     H4    721 0.15710000   1.008000   ; qtot 0.402900
  722         n3     29    bbb     N1    722 -0.74090000  14.010000   ; qtot -0.338000
  723         c3     29    bbb     C3    723 0.51680000  12.010000   ; qtot 0.178800
  724         h1     29    bbb     H5    724 -0.05230000   1.008000   ; qtot 0.126500
  725         h1     29    bbb     H6    725 -0.05230000   1.008000   ; qtot 0.074200
  726         c3     29    bbb     C4    726 0.51680000  12.010000   ; qtot 0.591000
  727         h1     29    bbb     H7    727 -0.05230000   1.008000   ; qtot 0.538700
  728         h1     29    bbb     H8    728 -0.05230000   1.008000   ; qtot 0.486400
  729         c3     29    bbb     C5    729 -0.60390000  12.010000   ; qtot -0.117500
  730         hc     29    bbb     H9    730 0.16730000   1.008000   ; qtot 0.049800
  731         hc     29    bbb    H10    731 0.16730000   1.008000   ; qtot 0.217100
  732         c3     29    bbb     C6    732 -0.60390000  12.010000   ; qtot -0.386800
  733         hc     29    bbb    H11    733 0.16730000   1.008000   ; qtot -0.219500
  734         hc     29    bbb    H12    734 0.16730000   1.008000   ; qtot -0.052200
  735          c     29    bbb     C7    735 0.72110000  12.010000   ; qtot 0.668900
  736          c     29    bbb     C8    736 0.72110000  12.010000   ; qtot 1.390000
  737          o     29    bbb     O1    737 -0.61950000  16.000000   ; qtot 0.770500
  738          o     29    bbb     O2    738 -0.61950000  16.000000   ; qtot 0.151000
  739          n     29    bbb     N4    739 -0.46580000  14.010000   ; qtot -0.314800
  740         hn     29    bbb    H21    740 0.31480000   1.008000   ; qtot -0.000000
; residue   30 bbb rtp bbb q -0.0
  741         c3     30    bbb     C1    741 0.44180000  12.010000   ; qtot 0.441800
  742         h1     30    bbb     H1    742 -0.03530000   1.008000   ; qtot 0.406500
  743         h1     30    bbb     H2    743 -0.03530000   1.008000   ; qtot 0.371200
  744         c3     30    bbb     C2    744 -0.28250000  12.010000   ; qtot 0.088700
  745         h1     30    bbb     H3    745 0.15710000   1.008000   ; qtot 0.245800
  746         h1     30    bbb     H4    746 0.15710000   1.008000   ; qtot 0.402900
  747         n3     30    bbb     N1    747 -0.74090000  14.010000   ; qtot -0.338000
  748         c3     30    bbb     C3    748 0.51680000  12.010000   ; qtot 0.178800
  749         h1     30    bbb     H5    749 -0.05230000   1.008000   ; qtot 0.126500
  750         h1     30    bbb     H6    750 -0.05230000   1.008000   ; qtot 0.074200
  751         c3     30    bbb     C4    751 0.51680000  12.010000   ; qtot 0.591000
  752         h1     30    bbb     H7    752 -0.05230000   1.008000   ; qtot 0.538700
  753         h1     30    bbb     H8    753 -0.05230000   1.008000   ; qtot 0.486400
  754         c3     30    bbb     C5    754 -0.60390000  12.010000   ; qtot -0.117500
  755         hc     30    bbb     H9    755 0.16730000   1.008000   ; qtot 0.049800
  756         hc     30    bbb    H10    756 0.16730000   1.008000   ; qtot 0.217100
  757         c3     30    bbb     C6    757 -0.60390000  12.010000   ; qtot -0.386800
  758         hc     30    bbb    H11    758 0.16730000   1.008000   ; qtot -0.219500
  759         hc     30    bbb    H12    759 0.16730000   1.008000   ; qtot -0.052200
  760          c     30    bbb     C7    760 0.72110000  12.010000   ; qtot 0.668900
  761          c     30    bbb     C8    761 0.72110000  12.010000   ; qtot 1.390000
  762          o     30    bbb     O1    762 -0.61950000  16.000000   ; qtot 0.770500
  763          o     30    bbb     O2    763 -0.61950000  16.000000   ; qtot 0.151000
  764          n     30    bbb     N4    764 -0.46580000  14.010000   ; qtot -0.314800
  765         hn     30    bbb    H21    765 0.31480000   1.008000   ; qtot -0.000000
; residue   31 bbb rtp bbb q -0.0
  766         c3     31    bbb     C1    766 0.44180000  12.010000   ; qtot 0.441800
  767         h1     31    bbb     H1    767 -0.03530000   1.008000   ; qtot 0.406500
  768         h1     31    bbb     H2    768 -0.03530000   1.008000   ; qtot 0.371200
  769         c3     31    bbb     C2    769 -0.28250000  12.010000   ; qtot 0.088700
  770         h1     31    bbb     H3    770 0.15710000   1.008000   ; qtot 0.245800
  771         h1     31    bbb     H4    771 0.15710000   1.008000   ; qtot 0.402900
  772         n3     31    bbb     N1    772 -0.74090000  14.010000   ; qtot -0.338000
  773         c3     31    bbb     C3    773 0.51680000  12.010000   ; qtot 0.178800
  774         h1     31    bbb     H5    774 -0.05230000   1.008000   ; qtot 0.126500
  775         h1     31    bbb     H6    775 -0.05230000   1.008000   ; qtot 0.074200
  776         c3     31    bbb     C4    776 0.51680000  12.010000   ; qtot 0.591000
  777         h1     31    bbb     H7    777 -0.05230000   1.008000   ; qtot 0.538700
  778         h1     31    bbb     H8    778 -0.05230000   1.008000   ; qtot 0.486400
  779         c3     31    bbb     C5    779 -0.60390000  12.010000   ; qtot -0.117500
  780         hc     31    bbb     H9    780 0.16730000   1.008000   ; qtot 0.049800
  781         hc     31    bbb    H10    781 0.16730000   1.008000   ; qtot 0.217100
  782         c3     31    bbb     C6    782 -0.60390000  12.010000   ; qtot -0.386800
  783         hc     31    bbb    H11    783 0.16730000   1.008000   ; qtot -0.219500
  784         hc     31    bbb    H12    784 0.16730000   1.008000   ; qtot -0.052200
  785          c     31    bbb     C7    785 0.72110000  12.010000   ; qtot 0.668900
  786          c     31    bbb     C8    786 0.72110000  12.010000   ; qtot 1.390000
  787          o     31    bbb     O1    787 -0.61950000  16.000000   ; qtot 0.770500
  788          o     31    bbb     O2    788 -0.61950000  16.000000   ; qtot 0.151000
  789          n     31    bbb     N4    789 -0.46580000  14.010000   ; qtot -0.314800
  790         hn     31    bbb    H21    790 0.31480000   1.008000   ; qtot -0.000000
; residue   32 bbb rtp bbb q -0.0
  791         c3     32    bbb     C1    791 0.44180000  12.010000   ; qtot 0.441800
  792         h1     32    bbb     H1    792 -0.03530000   1.008000   ; qtot 0.406500
  793         h1     32    bbb     H2    793 -0.03530000   1.008000   ; qtot 0.371200
  794         c3     32    bbb     C2    794 -0.28250000  12.010000   ; qtot 0.088700
  795         h1     32    bbb     H3    795 0.15710000   1.008000   ; qtot 0.245800
  796         h1     32    bbb     H4    796 0.15710000   1.008000   ; qtot 0.402900
  797         n3     32    bbb     N1    797 -0.74090000  14.010000   ; qtot -0.338000
  798         c3     32    bbb     C3    798 0.51680000  12.010000   ; qtot 0.178800
  799         h1     32    bbb     H5    799 -0.05230000   1.008000   ; qtot 0.126500
  800         h1     32    bbb     H6    800 -0.05230000   1.008000   ; qtot 0.074200
  801         c3     32    bbb     C4    801 0.51680000  12.010000   ; qtot 0.591000
  802         h1     32    bbb     H7    802 -0.05230000   1.008000   ; qtot 0.538700
  803         h1     32    bbb     H8    803 -0.05230000   1.008000   ; qtot 0.486400
  804         c3     32    bbb     C5    804 -0.60390000  12.010000   ; qtot -0.117500
  805         hc     32    bbb     H9    805 0.16730000   1.008000   ; qtot 0.049800
  806         hc     32    bbb    H10    806 0.16730000   1.008000   ; qtot 0.217100
  807         c3     32    bbb     C6    807 -0.60390000  12.010000   ; qtot -0.386800
  808         hc     32    bbb    H11    808 0.16730000   1.008000   ; qtot -0.219500
  809         hc     32    bbb    H12    809 0.16730000   1.008000   ; qtot -0.052200
  810          c     32    bbb     C7    810 0.72110000  12.010000   ; qtot 0.668900
  811          c     32    bbb     C8    811 0.72110000  12.010000   ; qtot 1.390000
  812          o     32    bbb     O1    812 -0.61950000  16.000000   ; qtot 0.770500
  813          o     32    bbb     O2    813 -0.61950000  16.000000   ; qtot 0.151000
  814          n     32    bbb     N4    814 -0.46580000  14.010000   ; qtot -0.314800
  815         hn     32    bbb    H21    815 0.31480000   1.008000   ; qtot -0.000000
; residue   33 bbb rtp bbb q -0.0
  816         c3     33    bbb     C1    816 0.44180000  12.010000   ; qtot 0.441800
  817         h1     33    bbb     H1    817 -0.03530000   1.008000   ; qtot 0.406500
  818         h1     33    bbb     H2    818 -0.03530000   1.008000   ; qtot 0.371200
  819         c3     33    bbb     C2    819 -0.28250000  12.010000   ; qtot 0.088700
  820         h1     33    bbb     H3    820 0.15710000   1.008000   ; qtot 0.245800
  821         h1     33    bbb     H4    821 0.15710000   1.008000   ; qtot 0.402900
  822         n3     33    bbb     N1    822 -0.74090000  14.010000   ; qtot -0.338000
  823         c3     33    bbb     C3    823 0.51680000  12.010000   ; qtot 0.178800
  824         h1     33    bbb     H5    824 -0.05230000   1.008000   ; qtot 0.126500
  825         h1     33    bbb     H6    825 -0.05230000   1.008000   ; qtot 0.074200
  826         c3     33    bbb     C4    826 0.51680000  12.010000   ; qtot 0.591000
  827         h1     33    bbb     H7    827 -0.05230000   1.008000   ; qtot 0.538700
  828         h1     33    bbb     H8    828 -0.05230000   1.008000   ; qtot 0.486400
  829         c3     33    bbb     C5    829 -0.60390000  12.010000   ; qtot -0.117500
  830         hc     33    bbb     H9    830 0.16730000   1.008000   ; qtot 0.049800
  831         hc     33    bbb    H10    831 0.16730000   1.008000   ; qtot 0.217100
  832         c3     33    bbb     C6    832 -0.60390000  12.010000   ; qtot -0.386800
  833         hc     33    bbb    H11    833 0.16730000   1.008000   ; qtot -0.219500
  834         hc     33    bbb    H12    834 0.16730000   1.008000   ; qtot -0.052200
  835          c     33    bbb     C7    835 0.72110000  12.010000   ; qtot 0.668900
  836          c     33    bbb     C8    836 0.72110000  12.010000   ; qtot 1.390000
  837          o     33    bbb     O1    837 -0.61950000  16.000000   ; qtot 0.770500
  838          o     33    bbb     O2    838 -0.61950000  16.000000   ; qtot 0.151000
  839          n     33    bbb     N4    839 -0.46580000  14.010000   ; qtot -0.314800
  840         hn     33    bbb    H21    840 0.31480000   1.008000   ; qtot -0.000000
; residue   34 bbb rtp bbb q -0.0
  841         c3     34    bbb     C1    841 0.44180000  12.010000   ; qtot 0.441800
  842         h1     34    bbb     H1    842 -0.03530000   1.008000   ; qtot 0.406500
  843         h1     34    bbb     H2    843 -0.03530000   1.008000   ; qtot 0.371200
  844         c3     34    bbb     C2    844 -0.28250000  12.010000   ; qtot 0.088700
  845         h1     34    bbb     H3    845 0.15710000   1.008000   ; qtot 0.245800
  846         h1     34    bbb     H4    846 0.15710000   1.008000   ; qtot 0.402900
  847         n3     34    bbb     N1    847 -0.74090000  14.010000   ; qtot -0.338000
  848         c3     34    bbb     C3    848 0.51680000  12.010000   ; qtot 0.178800
  849         h1     34    bbb     H5    849 -0.05230000   1.008000   ; qtot 0.126500
  850         h1     34    bbb     H6    850 -0.05230000   1.008000   ; qtot 0.074200
  851         c3     34    bbb     C4    851 0.51680000  12.010000   ; qtot 0.591000
  852         h1     34    bbb     H7    852 -0.05230000   1.008000   ; qtot 0.538700
  853         h1     34    bbb     H8    853 -0.05230000   1.008000   ; qtot 0.486400
  854         c3     34    bbb     C5    854 -0.60390000  12.010000   ; qtot -0.117500
  855         hc     34    bbb     H9    855 0.16730000   1.008000   ; qtot 0.049800
  856         hc     34    bbb    H10    856 0.16730000   1.008000   ; qtot 0.217100
  857         c3     34    bbb     C6    857 -0.60390000  12.010000   ; qtot -0.386800
  858         hc     34    bbb    H11    858 0.16730000   1.008000   ; qtot -0.219500
  859         hc     34    bbb    H12    859 0.16730000   1.008000   ; qtot -0.052200
  860          c     34    bbb     C7    860 0.72110000  12.010000   ; qtot 0.668900
  861          c     34    bbb     C8    861 0.72110000  12.010000   ; qtot 1.390000
  862          o     34    bbb     O1    862 -0.61950000  16.000000   ; qtot 0.770500
  863          o     34    bbb     O2    863 -0.61950000  16.000000   ; qtot 0.151000
  864          n     34    bbb     N4    864 -0.46580000  14.010000   ; qtot -0.314800
  865         hn     34    bbb    H21    865 0.31480000   1.008000   ; qtot -0.000000
; residue   35 bbb rtp bbb q -0.0
  866         c3     35    bbb     C1    866 0.44180000  12.010000   ; qtot 0.441800
  867         h1     35    bbb     H1    867 -0.03530000   1.008000   ; qtot 0.406500
  868         h1     35    bbb     H2    868 -0.03530000   1.008000   ; qtot 0.371200
  869         c3     35    bbb     C2    869 -0.28250000  12.010000   ; qtot 0.088700
  870         h1     35    bbb     H3    870 0.15710000   1.008000   ; qtot 0.245800
  871         h1     35    bbb     H4    871 0.15710000   1.008000   ; qtot 0.402900
  872         n3     35    bbb     N1    872 -0.74090000  14.010000   ; qtot -0.338000
  873         c3     35    bbb     C3    873 0.51680000  12.010000   ; qtot 0.178800
  874         h1     35    bbb     H5    874 -0.05230000   1.008000   ; qtot 0.126500
  875         h1     35    bbb     H6    875 -0.05230000   1.008000   ; qtot 0.074200
  876         c3     35    bbb     C4    876 0.51680000  12.010000   ; qtot 0.591000
  877         h1     35    bbb     H7    877 -0.05230000   1.008000   ; qtot 0.538700
  878         h1     35    bbb     H8    878 -0.05230000   1.008000   ; qtot 0.486400
  879         c3     35    bbb     C5    879 -0.60390000  12.010000   ; qtot -0.117500
  880         hc     35    bbb     H9    880 0.16730000   1.008000   ; qtot 0.049800
  881         hc     35    bbb    H10    881 0.16730000   1.008000   ; qtot 0.217100
  882         c3     35    bbb     C6    882 -0.60390000  12.010000   ; qtot -0.386800
  883         hc     35    bbb    H11    883 0.16730000   1.008000   ; qtot -0.219500
  884         hc     35    bbb    H12    884 0.16730000   1.008000   ; qtot -0.052200
  885          c     35    bbb     C7    885 0.72110000  12.010000   ; qtot 0.668900
  886          c     35    bbb     C8    886 0.72110000  12.010000   ; qtot 1.390000
  887          o     35    bbb     O1    887 -0.61950000  16.000000   ; qtot 0.770500
  888          o     35    bbb     O2    888 -0.61950000  16.000000   ; qtot 0.151000
  889          n     35    bbb     N4    889 -0.46580000  14.010000   ; qtot -0.314800
  890         hn     35    bbb    H21    890 0.31480000   1.008000   ; qtot -0.000000
; residue   36 bbb rtp bbb q -0.0
  891         c3     36    bbb     C1    891 0.44180000  12.010000   ; qtot 0.441800
  892         h1     36    bbb     H1    892 -0.03530000   1.008000   ; qtot 0.406500
  893         h1     36    bbb     H2    893 -0.03530000   1.008000   ; qtot 0.371200
  894         c3     36    bbb     C2    894 -0.28250000  12.010000   ; qtot 0.088700
  895         h1     36    bbb     H3    895 0.15710000   1.008000   ; qtot 0.245800
  896         h1     36    bbb     H4    896 0.15710000   1.008000   ; qtot 0.402900
  897         n3     36    bbb     N1    897 -0.74090000  14.010000   ; qtot -0.338000
  898         c3     36    bbb     C3    898 0.51680000  12.010000   ; qtot 0.178800
  899         h1     36    bbb     H5    899 -0.05230000   1.008000   ; qtot 0.126500
  900         h1     36    bbb     H6    900 -0.05230000   1.008000   ; qtot 0.074200
  901         c3     36    bbb     C4    901 0.51680000  12.010000   ; qtot 0.591000
  902         h1     36    bbb     H7    902 -0.05230000   1.008000   ; qtot 0.538700
  903         h1     36    bbb     H8    903 -0.05230000   1.008000   ; qtot 0.486400
  904         c3     36    bbb     C5    904 -0.60390000  12.010000   ; qtot -0.117500
  905         hc     36    bbb     H9    905 0.16730000   1.008000   ; qtot 0.049800
  906         hc     36    bbb    H10    906 0.16730000   1.008000   ; qtot 0.217100
  907         c3     36    bbb     C6    907 -0.60390000  12.010000   ; qtot -0.386800
  908         hc     36    bbb    H11    908 0.16730000   1.008000   ; qtot -0.219500
  909         hc     36    bbb    H12    909 0.16730000   1.008000   ; qtot -0.052200
  910          c     36    bbb     C7    910 0.72110000  12.010000   ; qtot 0.668900
  911          c     36    bbb     C8    911 0.72110000  12.010000   ; qtot 1.390000
  912          o     36    bbb     O1    912 -0.61950000  16.000000   ; qtot 0.770500
  913          o     36    bbb     O2    913 -0.61950000  16.000000   ; qtot 0.151000
  914          n     36    bbb     N4    914 -0.46580000  14.010000   ; qtot -0.314800
  915         hn     36    bbb    H21    915 0.31480000   1.008000   ; qtot -0.000000
; residue   37 bbb rtp bbb q -0.0
  916         c3     37    bbb     C1    916 0.44180000  12.010000   ; qtot 0.441800
  917         h1     37    bbb     H1    917 -0.03530000   1.008000   ; qtot 0.406500
  918         h1     37    bbb     H2    918 -0.03530000   1.008000   ; qtot 0.371200
  919         c3     37    bbb     C2    919 -0.28250000  12.010000   ; qtot 0.088700
  920         h1     37    bbb     H3    920 0.15710000   1.008000   ; qtot 0.245800
  921         h1     37    bbb     H4    921 0.15710000   1.008000   ; qtot 0.402900
  922         n3     37    bbb     N1    922 -0.74090000  14.010000   ; qtot -0.338000
  923         c3     37    bbb     C3    923 0.51680000  12.010000   ; qtot 0.178800
  924         h1     37    bbb     H5    924 -0.05230000   1.008000   ; qtot 0.126500
  925         h1     37    bbb     H6    925 -0.05230000   1.008000   ; qtot 0.074200
  926         c3     37    bbb     C4    926 0.51680000  12.010000   ; qtot 0.591000
  927         h1     37    bbb     H7    927 -0.05230000   1.008000   ; qtot 0.538700
  928         h1     37    bbb     H8    928 -0.05230000   1.008000   ; qtot 0.486400
  929         c3     37    bbb     C5    929 -0.60390000  12.010000   ; qtot -0.117500
  930         hc     37    bbb     H9    930 0.16730000   1.008000   ; qtot 0.049800
  931         hc     37    bbb    H10    931 0.16730000   1.008000   ; qtot 0.217100
  932         c3     37    bbb     C6    932 -0.60390000  12.010000   ; qtot -0.386800
  933         hc     37    bbb    H11    933 0.16730000   1.008000   ; qtot -0.219500
  934         hc     37    bbb    H12    934 0.16730000   1.008000   ; qtot -0.052200
  935          c     37    bbb     C7    935 0.72110000  12.010000   ; qtot 0.668900
  936          c     37    bbb     C8    936 0.72110000  12.010000   ; qtot 1.390000
  937          o     37    bbb     O1    937 -0.61950000  16.000000   ; qtot 0.770500
  938          o     37    bbb     O2    938 -0.61950000  16.000000   ; qtot 0.151000
  939          n     37    bbb     N4    939 -0.46580000  14.010000   ; qtot -0.314800
  940         hn     37    bbb    H21    940 0.31480000   1.008000   ; qtot -0.000000
; residue   38 bbb rtp bbb q -0.0
  941         c3     38    bbb     C1    941 0.44180000  12.010000   ; qtot 0.441800
  942         h1     38    bbb     H1    942 -0.03530000   1.008000   ; qtot 0.406500
  943         h1     38    bbb     H2    943 -0.03530000   1.008000   ; qtot 0.371200
  944         c3     38    bbb     C2    944 -0.28250000  12.010000   ; qtot 0.088700
  945         h1     38    bbb     H3    945 0.15710000   1.008000   ; qtot 0.245800
  946         h1     38    bbb     H4    946 0.15710000   1.008000   ; qtot 0.402900
  947         n3     38    bbb     N1    947 -0.74090000  14.010000   ; qtot -0.338001
  948         c3     38    bbb     C3    948 0.51680000  12.010000   ; qtot 0.178799
  949         h1     38    bbb     H5    949 -0.05230000   1.008000   ; qtot 0.126499
  950         h1     38    bbb     H6    950 -0.05230000   1.008000   ; qtot 0.074199
  951         c3     38    bbb     C4    951 0.51680000  12.010000   ; qtot 0.590999
  952         h1     38    bbb     H7    952 -0.05230000   1.008000   ; qtot 0.538699
  953         h1     38    bbb     H8    953 -0.05230000   1.008000   ; qtot 0.486399
  954         c3     38    bbb     C5    954 -0.60390000  12.010000   ; qtot -0.117501
  955         hc     38    bbb     H9    955 0.16730000   1.008000   ; qtot 0.049799
  956         hc     38    bbb    H10    956 0.16730000   1.008000   ; qtot 0.217099
  957         c3     38    bbb     C6    957 -0.60390000  12.010000   ; qtot -0.386801
  958         hc     38    bbb    H11    958 0.16730000   1.008000   ; qtot -0.219501
  959         hc     38    bbb    H12    959 0.16730000   1.008000   ; qtot -0.052201
  960          c     38    bbb     C7    960 0.72110000  12.010000   ; qtot 0.668899
  961          c     38    bbb     C8    961 0.72110000  12.010000   ; qtot 1.389999
  962          o     38    bbb     O1    962 -0.61950000  16.000000   ; qtot 0.770499
  963          o     38    bbb     O2    963 -0.61950000  16.000000   ; qtot 0.150999
  964          n     38    bbb     N4    964 -0.46580000  14.010000   ; qtot -0.314801
  965         hn     38    bbb    H21    965 0.31480000   1.008000   ; qtot -0.000001
; residue   39 bbb rtp bbb q -0.0
  966         c3     39    bbb     C1    966 0.44180000  12.010000   ; qtot 0.441799
  967         h1     39    bbb     H1    967 -0.03530000   1.008000   ; qtot 0.406499
  968         h1     39    bbb     H2    968 -0.03530000   1.008000   ; qtot 0.371199
  969         c3     39    bbb     C2    969 -0.28250000  12.010000   ; qtot 0.088699
  970         h1     39    bbb     H3    970 0.15710000   1.008000   ; qtot 0.245799
  971         h1     39    bbb     H4    971 0.15710000   1.008000   ; qtot 0.402899
  972         n3     39    bbb     N1    972 -0.74090000  14.010000   ; qtot -0.338001
  973         c3     39    bbb     C3    973 0.51680000  12.010000   ; qtot 0.178799
  974         h1     39    bbb     H5    974 -0.05230000   1.008000   ; qtot 0.126499
  975         h1     39    bbb     H6    975 -0.05230000   1.008000   ; qtot 0.074199
  976         c3     39    bbb     C4    976 0.51680000  12.010000   ; qtot 0.590999
  977         h1     39    bbb     H7    977 -0.05230000   1.008000   ; qtot 0.538699
  978         h1     39    bbb     H8    978 -0.05230000   1.008000   ; qtot 0.486399
  979         c3     39    bbb     C5    979 -0.60390000  12.010000   ; qtot -0.117501
  980         hc     39    bbb     H9    980 0.16730000   1.008000   ; qtot 0.049799
  981         hc     39    bbb    H10    981 0.16730000   1.008000   ; qtot 0.217099
  982         c3     39    bbb     C6    982 -0.60390000  12.010000   ; qtot -0.386801
  983         hc     39    bbb    H11    983 0.16730000   1.008000   ; qtot -0.219501
  984         hc     39    bbb    H12    984 0.16730000   1.008000   ; qtot -0.052201
  985          c     39    bbb     C7    985 0.72110000  12.010000   ; qtot 0.668899
  986          c     39    bbb     C8    986 0.72110000  12.010000   ; qtot 1.389999
  987          o     39    bbb     O1    987 -0.61950000  16.000000   ; qtot 0.770499
  988          o     39    bbb     O2    988 -0.61950000  16.000000   ; qtot 0.150999
  989          n     39    bbb     N4    989 -0.46580000  14.010000   ; qtot -0.314801
  990         hn     39    bbb    H21    990 0.31480000   1.008000   ; qtot -0.000001
; residue   40 bbb rtp bbb q -0.0
  991         c3     40    bbb     C1    991 0.44180000  12.010000   ; qtot 0.441799
  992         h1     40    bbb     H1    992 -0.03530000   1.008000   ; qtot 0.406499
  993         h1     40    bbb     H2    993 -0.03530000   1.008000   ; qtot 0.371199
  994         c3     40    bbb     C2    994 -0.28250000  12.010000   ; qtot 0.088699
  995         h1     40    bbb     H3    995 0.15710000   1.008000   ; qtot 0.245799
  996         h1     40    bbb     H4    996 0.15710000   1.008000   ; qtot 0.402899
  997         n3     40    bbb     N1    997 -0.74090000  14.010000   ; qtot -0.338001
  998         c3     40    bbb     C3    998 0.51680000  12.010000   ; qtot 0.178799
  999         h1     40    bbb     H5    999 -0.05230000   1.008000   ; qtot 0.126499
 1000         h1     40    bbb     H6   1000 -0.05230000   1.008000   ; qtot 0.074199
 1001         c3     40    bbb     C4   1001 0.51680000  12.010000   ; qtot 0.590999
 1002         h1     40    bbb     H7   1002 -0.05230000   1.008000   ; qtot 0.538699
 1003         h1     40    bbb     H8   1003 -0.05230000   1.008000   ; qtot 0.486399
 1004         c3     40    bbb     C5   1004 -0.60390000  12.010000   ; qtot -0.117501
 1005         hc     40    bbb     H9   1005 0.16730000   1.008000   ; qtot 0.049799
 1006         hc     40    bbb    H10   1006 0.16730000   1.008000   ; qtot 0.217099
 1007         c3     40    bbb     C6   1007 -0.60390000  12.010000   ; qtot -0.386801
 1008         hc     40    bbb    H11   1008 0.16730000   1.008000   ; qtot -0.219501
 1009         hc     40    bbb    H12   1009 0.16730000   1.008000   ; qtot -0.052201
 1010          c     40    bbb     C7   1010 0.72110000  12.010000   ; qtot 0.668899
 1011          c     40    bbb     C8   1011 0.72110000  12.010000   ; qtot 1.389999
 1012          o     40    bbb     O1   1012 -0.61950000  16.000000   ; qtot 0.770499
 1013          o     40    bbb     O2   1013 -0.61950000  16.000000   ; qtot 0.150999
 1014          n     40    bbb     N4   1014 -0.46580000  14.010000   ; qtot -0.314801
 1015         hn     40    bbb    H21   1015 0.31480000   1.008000   ; qtot -0.000001
; residue   41 bbb rtp bbb q -0.0
 1016         c3     41    bbb     C1   1016 0.44180000  12.010000   ; qtot 0.441799
 1017         h1     41    bbb     H1   1017 -0.03530000   1.008000   ; qtot 0.406499
 1018         h1     41    bbb     H2   1018 -0.03530000   1.008000   ; qtot 0.371199
 1019         c3     41    bbb     C2   1019 -0.28250000  12.010000   ; qtot 0.088699
 1020         h1     41    bbb     H3   1020 0.15710000   1.008000   ; qtot 0.245799
 1021         h1     41    bbb     H4   1021 0.15710000   1.008000   ; qtot 0.402899
 1022         n3     41    bbb     N1   1022 -0.74090000  14.010000   ; qtot -0.338001
 1023         c3     41    bbb     C3   1023 0.51680000  12.010000   ; qtot 0.178799
 1024         h1     41    bbb     H5   1024 -0.05230000   1.008000   ; qtot 0.126499
 1025         h1     41    bbb     H6   1025 -0.05230000   1.008000   ; qtot 0.074199
 1026         c3     41    bbb     C4   1026 0.51680000  12.010000   ; qtot 0.590999
 1027         h1     41    bbb     H7   1027 -0.05230000   1.008000   ; qtot 0.538699
 1028         h1     41    bbb     H8   1028 -0.05230000   1.008000   ; qtot 0.486399
 1029         c3     41    bbb     C5   1029 -0.60390000  12.010000   ; qtot -0.117501
 1030         hc     41    bbb     H9   1030 0.16730000   1.008000   ; qtot 0.049799
 1031         hc     41    bbb    H10   1031 0.16730000   1.008000   ; qtot 0.217099
 1032         c3     41    bbb     C6   1032 -0.60390000  12.010000   ; qtot -0.386801
 1033         hc     41    bbb    H11   1033 0.16730000   1.008000   ; qtot -0.219501
 1034         hc     41    bbb    H12   1034 0.16730000   1.008000   ; qtot -0.052201
 1035          c     41    bbb     C7   1035 0.72110000  12.010000   ; qtot 0.668899
 1036          c     41    bbb     C8   1036 0.72110000  12.010000   ; qtot 1.389999
 1037          o     41    bbb     O1   1037 -0.61950000  16.000000   ; qtot 0.770499
 1038          o     41    bbb     O2   1038 -0.61950000  16.000000   ; qtot 0.150999
 1039          n     41    bbb     N4   1039 -0.46580000  14.010000   ; qtot -0.314801
 1040         hn     41    bbb    H21   1040 0.31480000   1.008000   ; qtot -0.000001
; residue   42 bbb rtp bbb q -0.0
 1041         c3     42    bbb     C1   1041 0.44180000  12.010000   ; qtot 0.441799
 1042         h1     42    bbb     H1   1042 -0.03530000   1.008000   ; qtot 0.406499
 1043         h1     42    bbb     H2   1043 -0.03530000   1.008000   ; qtot 0.371199
 1044         c3     42    bbb     C2   1044 -0.28250000  12.010000   ; qtot 0.088699
 1045         h1     42    bbb     H3   1045 0.15710000   1.008000   ; qtot 0.245799
 1046         h1     42    bbb     H4   1046 0.15710000   1.008000   ; qtot 0.402899
 1047         n3     42    bbb     N1   1047 -0.74090000  14.010000   ; qtot -0.338001
 1048         c3     42    bbb     C3   1048 0.51680000  12.010000   ; qtot 0.178799
 1049         h1     42    bbb     H5   1049 -0.05230000   1.008000   ; qtot 0.126499
 1050         h1     42    bbb     H6   1050 -0.05230000   1.008000   ; qtot 0.074199
 1051         c3     42    bbb     C4   1051 0.51680000  12.010000   ; qtot 0.590999
 1052         h1     42    bbb     H7   1052 -0.05230000   1.008000   ; qtot 0.538699
 1053         h1     42    bbb     H8   1053 -0.05230000   1.008000   ; qtot 0.486399
 1054         c3     42    bbb     C5   1054 -0.60390000  12.010000   ; qtot -0.117501
 1055         hc     42    bbb     H9   1055 0.16730000   1.008000   ; qtot 0.049799
 1056         hc     42    bbb    H10   1056 0.16730000   1.008000   ; qtot 0.217099
 1057         c3     42    bbb     C6   1057 -0.60390000  12.010000   ; qtot -0.386801
 1058         hc     42    bbb    H11   1058 0.16730000   1.008000   ; qtot -0.219501
 1059         hc     42    bbb    H12   1059 0.16730000   1.008000   ; qtot -0.052201
 1060          c     42    bbb     C7   1060 0.72110000  12.010000   ; qtot 0.668899
 1061          c     42    bbb     C8   1061 0.72110000  12.010000   ; qtot 1.389999
 1062          o     42    bbb     O1   1062 -0.61950000  16.000000   ; qtot 0.770499
 1063          o     42    bbb     O2   1063 -0.61950000  16.000000   ; qtot 0.150999
 1064          n     42    bbb     N4   1064 -0.46580000  14.010000   ; qtot -0.314801
 1065         hn     42    bbb    H21   1065 0.31480000   1.008000   ; qtot -0.000001
; residue   43 bbb rtp bbb q -0.0
 1066         c3     43    bbb     C1   1066 0.44180000  12.010000   ; qtot 0.441799
 1067         h1     43    bbb     H1   1067 -0.03530000   1.008000   ; qtot 0.406499
 1068         h1     43    bbb     H2   1068 -0.03530000   1.008000   ; qtot 0.371199
 1069         c3     43    bbb     C2   1069 -0.28250000  12.010000   ; qtot 0.088699
 1070         h1     43    bbb     H3   1070 0.15710000   1.008000   ; qtot 0.245799
 1071         h1     43    bbb     H4   1071 0.15710000   1.008000   ; qtot 0.402899
 1072         n3     43    bbb     N1   1072 -0.74090000  14.010000   ; qtot -0.338001
 1073         c3     43    bbb     C3   1073 0.51680000  12.010000   ; qtot 0.178799
 1074         h1     43    bbb     H5   1074 -0.05230000   1.008000   ; qtot 0.126499
 1075         h1     43    bbb     H6   1075 -0.05230000   1.008000   ; qtot 0.074199
 1076         c3     43    bbb     C4   1076 0.51680000  12.010000   ; qtot 0.590999
 1077         h1     43    bbb     H7   1077 -0.05230000   1.008000   ; qtot 0.538699
 1078         h1     43    bbb     H8   1078 -0.05230000   1.008000   ; qtot 0.486399
 1079         c3     43    bbb     C5   1079 -0.60390000  12.010000   ; qtot -0.117501
 1080         hc     43    bbb     H9   1080 0.16730000   1.008000   ; qtot 0.049799
 1081         hc     43    bbb    H10   1081 0.16730000   1.008000   ; qtot 0.217099
 1082         c3     43    bbb     C6   1082 -0.60390000  12.010000   ; qtot -0.386801
 1083         hc     43    bbb    H11   1083 0.16730000   1.008000   ; qtot -0.219501
 1084         hc     43    bbb    H12   1084 0.16730000   1.008000   ; qtot -0.052201
 1085          c     43    bbb     C7   1085 0.72110000  12.010000   ; qtot 0.668899
 1086          c     43    bbb     C8   1086 0.72110000  12.010000   ; qtot 1.389999
 1087          o     43    bbb     O1   1087 -0.61950000  16.000000   ; qtot 0.770499
 1088          o     43    bbb     O2   1088 -0.61950000  16.000000   ; qtot 0.150999
 1089          n     43    bbb     N4   1089 -0.46580000  14.010000   ; qtot -0.314801
 1090         hn     43    bbb    H21   1090 0.31480000   1.008000   ; qtot -0.000001
; residue   44 bbb rtp bbb q -0.0
 1091         c3     44    bbb     C1   1091 0.44180000  12.010000   ; qtot 0.441799
 1092         h1     44    bbb     H1   1092 -0.03530000   1.008000   ; qtot 0.406499
 1093         h1     44    bbb     H2   1093 -0.03530000   1.008000   ; qtot 0.371199
 1094         c3     44    bbb     C2   1094 -0.28250000  12.010000   ; qtot 0.088699
 1095         h1     44    bbb     H3   1095 0.15710000   1.008000   ; qtot 0.245799
 1096         h1     44    bbb     H4   1096 0.15710000   1.008000   ; qtot 0.402899
 1097         n3     44    bbb     N1   1097 -0.74090000  14.010000   ; qtot -0.338001
 1098         c3     44    bbb     C3   1098 0.51680000  12.010000   ; qtot 0.178799
 1099         h1     44    bbb     H5   1099 -0.05230000   1.008000   ; qtot 0.126499
 1100         h1     44    bbb     H6   1100 -0.05230000   1.008000   ; qtot 0.074199
 1101         c3     44    bbb     C4   1101 0.51680000  12.010000   ; qtot 0.590999
 1102         h1     44    bbb     H7   1102 -0.05230000   1.008000   ; qtot 0.538699
 1103         h1     44    bbb     H8   1103 -0.05230000   1.008000   ; qtot 0.486399
 1104         c3     44    bbb     C5   1104 -0.60390000  12.010000   ; qtot -0.117501
 1105         hc     44    bbb     H9   1105 0.16730000   1.008000   ; qtot 0.049799
 1106         hc     44    bbb    H10   1106 0.16730000   1.008000   ; qtot 0.217099
 1107         c3     44    bbb     C6   1107 -0.60390000  12.010000   ; qtot -0.386801
 1108         hc     44    bbb    H11   1108 0.16730000   1.008000   ; qtot -0.219501
 1109         hc     44    bbb    H12   1109 0.16730000   1.008000   ; qtot -0.052201
 1110          c     44    bbb     C7   1110 0.72110000  12.010000   ; qtot 0.668899
 1111          c     44    bbb     C8   1111 0.72110000  12.010000   ; qtot 1.389999
 1112          o     44    bbb     O1   1112 -0.61950000  16.000000   ; qtot 0.770499
 1113          o     44    bbb     O2   1113 -0.61950000  16.000000   ; qtot 0.150999
 1114          n     44    bbb     N4   1114 -0.46580000  14.010000   ; qtot -0.314801
 1115         hn     44    bbb    H21   1115 0.31480000   1.008000   ; qtot -0.000001
; residue   45 bbb rtp bbb q -0.0
 1116         c3     45    bbb     C1   1116 0.44180000  12.010000   ; qtot 0.441799
 1117         h1     45    bbb     H1   1117 -0.03530000   1.008000   ; qtot 0.406499
 1118         h1     45    bbb     H2   1118 -0.03530000   1.008000   ; qtot 0.371199
 1119         c3     45    bbb     C2   1119 -0.28250000  12.010000   ; qtot 0.088699
 1120         h1     45    bbb     H3   1120 0.15710000   1.008000   ; qtot 0.245799
 1121         h1     45    bbb     H4   1121 0.15710000   1.008000   ; qtot 0.402899
 1122         n3     45    bbb     N1   1122 -0.74090000  14.010000   ; qtot -0.338001
 1123         c3     45    bbb     C3   1123 0.51680000  12.010000   ; qtot 0.178799
 1124         h1     45    bbb     H5   1124 -0.05230000   1.008000   ; qtot 0.126499
 1125         h1     45    bbb     H6   1125 -0.05230000   1.008000   ; qtot 0.074199
 1126         c3     45    bbb     C4   1126 0.51680000  12.010000   ; qtot 0.590999
 1127         h1     45    bbb     H7   1127 -0.05230000   1.008000   ; qtot 0.538699
 1128         h1     45    bbb     H8   1128 -0.05230000   1.008000   ; qtot 0.486399
 1129         c3     45    bbb     C5   1129 -0.60390000  12.010000   ; qtot -0.117501
 1130         hc     45    bbb     H9   1130 0.16730000   1.008000   ; qtot 0.049799
 1131         hc     45    bbb    H10   1131 0.16730000   1.008000   ; qtot 0.217099
 1132         c3     45    bbb     C6   1132 -0.60390000  12.010000   ; qtot -0.386801
 1133         hc     45    bbb    H11   1133 0.16730000   1.008000   ; qtot -0.219501
 1134         hc     45    bbb    H12   1134 0.16730000   1.008000   ; qtot -0.052201
 1135          c     45    bbb     C7   1135 0.72110000  12.010000   ; qtot 0.668899
 1136          c     45    bbb     C8   1136 0.72110000  12.010000   ; qtot 1.389999
 1137          o     45    bbb     O1   1137 -0.61950000  16.000000   ; qtot 0.770499
 1138          o     45    bbb     O2   1138 -0.61950000  16.000000   ; qtot 0.150999
 1139          n     45    bbb     N4   1139 -0.46580000  14.010000   ; qtot -0.314801
 1140         hn     45    bbb    H21   1140 0.31480000   1.008000   ; qtot -0.000001
; residue   46 bbb rtp bbb q -0.0
 1141         c3     46    bbb     C1   1141 0.44180000  12.010000   ; qtot 0.441799
 1142         h1     46    bbb     H1   1142 -0.03530000   1.008000   ; qtot 0.406499
 1143         h1     46    bbb     H2   1143 -0.03530000   1.008000   ; qtot 0.371199
 1144         c3     46    bbb     C2   1144 -0.28250000  12.010000   ; qtot 0.088699
 1145         h1     46    bbb     H3   1145 0.15710000   1.008000   ; qtot 0.245799
 1146         h1     46    bbb     H4   1146 0.15710000   1.008000   ; qtot 0.402899
 1147         n3     46    bbb     N1   1147 -0.74090000  14.010000   ; qtot -0.338001
 1148         c3     46    bbb     C3   1148 0.51680000  12.010000   ; qtot 0.178799
 1149         h1     46    bbb     H5   1149 -0.05230000   1.008000   ; qtot 0.126499
 1150         h1     46    bbb     H6   1150 -0.05230000   1.008000   ; qtot 0.074199
 1151         c3     46    bbb     C4   1151 0.51680000  12.010000   ; qtot 0.590999
 1152         h1     46    bbb     H7   1152 -0.05230000   1.008000   ; qtot 0.538699
 1153         h1     46    bbb     H8   1153 -0.05230000   1.008000   ; qtot 0.486399
 1154         c3     46    bbb     C5   1154 -0.60390000  12.010000   ; qtot -0.117501
 1155         hc     46    bbb     H9   1155 0.16730000   1.008000   ; qtot 0.049799
 1156         hc     46    bbb    H10   1156 0.16730000   1.008000   ; qtot 0.217099
 1157         c3     46    bbb     C6   1157 -0.60390000  12.010000   ; qtot -0.386801
 1158         hc     46    bbb    H11   1158 0.16730000   1.008000   ; qtot -0.219501
 1159         hc     46    bbb    H12   1159 0.16730000   1.008000   ; qtot -0.052201
 1160          c     46    bbb     C7   1160 0.72110000  12.010000   ; qtot 0.668899
 1161          c     46    bbb     C8   1161 0.72110000  12.010000   ; qtot 1.389999
 1162          o     46    bbb     O1   1162 -0.61950000  16.000000   ; qtot 0.770499
 1163          o     46    bbb     O2   1163 -0.61950000  16.000000   ; qtot 0.150999
 1164          n     46    bbb     N4   1164 -0.46580000  14.010000   ; qtot -0.314801
 1165         hn     46    bbb    H21   1165 0.31480000   1.008000   ; qtot -0.000001
; residue   47 bbb rtp bbb q -0.0
 1166         c3     47    bbb     C1   1166 0.44180000  12.010000   ; qtot 0.441799
 1167         h1     47    bbb     H1   1167 -0.03530000   1.008000   ; qtot 0.406499
 1168         h1     47    bbb     H2   1168 -0.03530000   1.008000   ; qtot 0.371199
 1169         c3     47    bbb     C2   1169 -0.28250000  12.010000   ; qtot 0.088699
 1170         h1     47    bbb     H3   1170 0.15710000   1.008000   ; qtot 0.245799
 1171         h1     47    bbb     H4   1171 0.15710000   1.008000   ; qtot 0.402899
 1172         n3     47    bbb     N1   1172 -0.74090000  14.010000   ; qtot -0.338001
 1173         c3     47    bbb     C3   1173 0.51680000  12.010000   ; qtot 0.178799
 1174         h1     47    bbb     H5   1174 -0.05230000   1.008000   ; qtot 0.126499
 1175         h1     47    bbb     H6   1175 -0.05230000   1.008000   ; qtot 0.074199
 1176         c3     47    bbb     C4   1176 0.51680000  12.010000   ; qtot 0.590999
 1177         h1     47    bbb     H7   1177 -0.05230000   1.008000   ; qtot 0.538699
 1178         h1     47    bbb     H8   1178 -0.05230000   1.008000   ; qtot 0.486399
 1179         c3     47    bbb     C5   1179 -0.60390000  12.010000   ; qtot -0.117501
 1180         hc     47    bbb     H9   1180 0.16730000   1.008000   ; qtot 0.049799
 1181         hc     47    bbb    H10   1181 0.16730000   1.008000   ; qtot 0.217099
 1182         c3     47    bbb     C6   1182 -0.60390000  12.010000   ; qtot -0.386801
 1183         hc     47    bbb    H11   1183 0.16730000   1.008000   ; qtot -0.219501
 1184         hc     47    bbb    H12   1184 0.16730000   1.008000   ; qtot -0.052201
 1185          c     47    bbb     C7   1185 0.72110000  12.010000   ; qtot 0.668899
 1186          c     47    bbb     C8   1186 0.72110000  12.010000   ; qtot 1.389999
 1187          o     47    bbb     O1   1187 -0.61950000  16.000000   ; qtot 0.770499
 1188          o     47    bbb     O2   1188 -0.61950000  16.000000   ; qtot 0.150999
 1189          n     47    bbb     N4   1189 -0.46580000  14.010000   ; qtot -0.314801
 1190         hn     47    bbb    H21   1190 0.31480000   1.008000   ; qtot -0.000001
; residue   48 bbb rtp bbb q -0.0
 1191         c3     48    bbb     C1   1191 0.44180000  12.010000   ; qtot 0.441799
 1192         h1     48    bbb     H1   1192 -0.03530000   1.008000   ; qtot 0.406499
 1193         h1     48    bbb     H2   1193 -0.03530000   1.008000   ; qtot 0.371199
 1194         c3     48    bbb     C2   1194 -0.28250000  12.010000   ; qtot 0.088699
 1195         h1     48    bbb     H3   1195 0.15710000   1.008000   ; qtot 0.245799
 1196         h1     48    bbb     H4   1196 0.15710000   1.008000   ; qtot 0.402899
 1197         n3     48    bbb     N1   1197 -0.74090000  14.010000   ; qtot -0.338001
 1198         c3     48    bbb     C3   1198 0.51680000  12.010000   ; qtot 0.178799
 1199         h1     48    bbb     H5   1199 -0.05230000   1.008000   ; qtot 0.126499
 1200         h1     48    bbb     H6   1200 -0.05230000   1.008000   ; qtot 0.074199
 1201         c3     48    bbb     C4   1201 0.51680000  12.010000   ; qtot 0.590999
 1202         h1     48    bbb     H7   1202 -0.05230000   1.008000   ; qtot 0.538699
 1203         h1     48    bbb     H8   1203 -0.05230000   1.008000   ; qtot 0.486399
 1204         c3     48    bbb     C5   1204 -0.60390000  12.010000   ; qtot -0.117501
 1205         hc     48    bbb     H9   1205 0.16730000   1.008000   ; qtot 0.049799
 1206         hc     48    bbb    H10   1206 0.16730000   1.008000   ; qtot 0.217099
 1207         c3     48    bbb     C6   1207 -0.60390000  12.010000   ; qtot -0.386801
 1208         hc     48    bbb    H11   1208 0.16730000   1.008000   ; qtot -0.219501
 1209         hc     48    bbb    H12   1209 0.16730000   1.008000   ; qtot -0.052201
 1210          c     48    bbb     C7   1210 0.72110000  12.010000   ; qtot 0.668899
 1211          c     48    bbb     C8   1211 0.72110000  12.010000   ; qtot 1.389999
 1212          o     48    bbb     O1   1212 -0.61950000  16.000000   ; qtot 0.770499
 1213          o     48    bbb     O2   1213 -0.61950000  16.000000   ; qtot 0.150999
 1214          n     48    bbb     N4   1214 -0.46580000  14.010000   ; qtot -0.314801
 1215         hn     48    bbb    H21   1215 0.31480000   1.008000   ; qtot -0.000001
; residue   49 bbb rtp bbb q -0.0
 1216         c3     49    bbb     C1   1216 0.44180000  12.010000   ; qtot 0.441799
 1217         h1     49    bbb     H1   1217 -0.03530000   1.008000   ; qtot 0.406499
 1218         h1     49    bbb     H2   1218 -0.03530000   1.008000   ; qtot 0.371199
 1219         c3     49    bbb     C2   1219 -0.28250000  12.010000   ; qtot 0.088699
 1220         h1     49    bbb     H3   1220 0.15710000   1.008000   ; qtot 0.245799
 1221         h1     49    bbb     H4   1221 0.15710000   1.008000   ; qtot 0.402899
 1222         n3     49    bbb     N1   1222 -0.74090000  14.010000   ; qtot -0.338001
 1223         c3     49    bbb     C3   1223 0.51680000  12.010000   ; qtot 0.178799
 1224         h1     49    bbb     H5   1224 -0.05230000   1.008000   ; qtot 0.126499
 1225         h1     49    bbb     H6   1225 -0.05230000   1.008000   ; qtot 0.074199
 1226         c3     49    bbb     C4   1226 0.51680000  12.010000   ; qtot 0.590999
 1227         h1     49    bbb     H7   1227 -0.05230000   1.008000   ; qtot 0.538699
 1228         h1     49    bbb     H8   1228 -0.05230000   1.008000   ; qtot 0.486399
 1229         c3     49    bbb     C5   1229 -0.60390000  12.010000   ; qtot -0.117501
 1230         hc     49    bbb     H9   1230 0.16730000   1.008000   ; qtot 0.049799
 1231         hc     49    bbb    H10   1231 0.16730000   1.008000   ; qtot 0.217099
 1232         c3     49    bbb     C6   1232 -0.60390000  12.010000   ; qtot -0.386801
 1233         hc     49    bbb    H11   1233 0.16730000   1.008000   ; qtot -0.219501
 1234         hc     49    bbb    H12   1234 0.16730000   1.008000   ; qtot -0.052201
 1235          c     49    bbb     C7   1235 0.72110000  12.010000   ; qtot 0.668899
 1236          c     49    bbb     C8   1236 0.72110000  12.010000   ; qtot 1.389999
 1237          o     49    bbb     O1   1237 -0.61950000  16.000000   ; qtot 0.770499
 1238          o     49    bbb     O2   1238 -0.61950000  16.000000   ; qtot 0.150999
 1239          n     49    bbb     N4   1239 -0.46580000  14.010000   ; qtot -0.314801
 1240         hn     49    bbb    H21   1240 0.31480000   1.008000   ; qtot -0.000001
; residue   50 bbb rtp bbb q -0.0
 1241         c3     50    bbb     C1   1241 0.44180000  12.010000   ; qtot 0.441799
 1242         h1     50    bbb     H1   1242 -0.03530000   1.008000   ; qtot 0.406499
 1243         h1     50    bbb     H2   1243 -0.03530000   1.008000   ; qtot 0.371199
 1244         c3     50    bbb     C2   1244 -0.28250000  12.010000   ; qtot 0.088699
 1245         h1     50    bbb     H3   1245 0.15710000   1.008000   ; qtot 0.245799
 1246         h1     50    bbb     H4   1246 0.15710000   1.008000   ; qtot 0.402899
 1247         n3     50    bbb     N1   1247 -0.74090000  14.010000   ; qtot -0.338001
 1248         c3     50    bbb     C3   1248 0.51680000  12.010000   ; qtot 0.178799
 1249         h1     50    bbb     H5   1249 -0.05230000   1.008000   ; qtot 0.126499
 1250         h1     50    bbb     H6   1250 -0.05230000   1.008000   ; qtot 0.074199
 1251         c3     50    bbb     C4   1251 0.51680000  12.010000   ; qtot 0.590999
 1252         h1     50    bbb     H7   1252 -0.05230000   1.008000   ; qtot 0.538699
 1253         h1     50    bbb     H8   1253 -0.05230000   1.008000   ; qtot 0.486399
 1254         c3     50    bbb     C5   1254 -0.60390000  12.010000   ; qtot -0.117501
 1255         hc     50    bbb     H9   1255 0.16730000   1.008000   ; qtot 0.049799
 1256         hc     50    bbb    H10   1256 0.16730000   1.008000   ; qtot 0.217099
 1257         c3     50    bbb     C6   1257 -0.60390000  12.010000   ; qtot -0.386801
 1258         hc     50    bbb    H11   1258 0.16730000   1.008000   ; qtot -0.219501
 1259         hc     50    bbb    H12   1259 0.16730000   1.008000   ; qtot -0.052201
 1260          c     50    bbb     C7   1260 0.72110000  12.010000   ; qtot 0.668899
 1261          c     50    bbb     C8   1261 0.72110000  12.010000   ; qtot 1.389999
 1262          o     50    bbb     O1   1262 -0.61950000  16.000000   ; qtot 0.770499
 1263          o     50    bbb     O2   1263 -0.61950000  16.000000   ; qtot 0.150999
 1264          n     50    bbb     N4   1264 -0.46580000  14.010000   ; qtot -0.314801
 1265         hn     50    bbb    H21   1265 0.31480000   1.008000   ; qtot -0.000001
; residue   51 bbb rtp bbb q -0.0
 1266         c3     51    bbb     C1   1266 0.44180000  12.010000   ; qtot 0.441799
 1267         h1     51    bbb     H1   1267 -0.03530000   1.008000   ; qtot 0.406499
 1268         h1     51    bbb     H2   1268 -0.03530000   1.008000   ; qtot 0.371199
 1269         c3     51    bbb     C2   1269 -0.28250000  12.010000   ; qtot 0.088699
 1270         h1     51    bbb     H3   1270 0.15710000   1.008000   ; qtot 0.245799
 1271         h1     51    bbb     H4   1271 0.15710000   1.008000   ; qtot 0.402899
 1272         n3     51    bbb     N1   1272 -0.74090000  14.010000   ; qtot -0.338001
 1273         c3     51    bbb     C3   1273 0.51680000  12.010000   ; qtot 0.178799
 1274         h1     51    bbb     H5   1274 -0.05230000   1.008000   ; qtot 0.126499
 1275         h1     51    bbb     H6   1275 -0.05230000   1.008000   ; qtot 0.074199
 1276         c3     51    bbb     C4   1276 0.51680000  12.010000   ; qtot 0.590999
 1277         h1     51    bbb     H7   1277 -0.05230000   1.008000   ; qtot 0.538699
 1278         h1     51    bbb     H8   1278 -0.05230000   1.008000   ; qtot 0.486399
 1279         c3     51    bbb     C5   1279 -0.60390000  12.010000   ; qtot -0.117501
 1280         hc     51    bbb     H9   1280 0.16730000   1.008000   ; qtot 0.049799
 1281         hc     51    bbb    H10   1281 0.16730000   1.008000   ; qtot 0.217099
 1282         c3     51    bbb     C6   1282 -0.60390000  12.010000   ; qtot -0.386801
 1283         hc     51    bbb    H11   1283 0.16730000   1.008000   ; qtot -0.219501
 1284         hc     51    bbb    H12   1284 0.16730000   1.008000   ; qtot -0.052201
 1285          c     51    bbb     C7   1285 0.72110000  12.010000   ; qtot 0.668899
 1286          c     51    bbb     C8   1286 0.72110000  12.010000   ; qtot 1.389999
 1287          o     51    bbb     O1   1287 -0.61950000  16.000000   ; qtot 0.770499
 1288          o     51    bbb     O2   1288 -0.61950000  16.000000   ; qtot 0.150999
 1289          n     51    bbb     N4   1289 -0.46580000  14.010000   ; qtot -0.314801
 1290         hn     51    bbb    H21   1290 0.31480000   1.008000   ; qtot -0.000001
; residue   52 bbb rtp bbb q -0.0
 1291         c3     52    bbb     C1   1291 0.44180000  12.010000   ; qtot 0.441799
 1292         h1     52    bbb     H1   1292 -0.03530000   1.008000   ; qtot 0.406499
 1293         h1     52    bbb     H2   1293 -0.03530000   1.008000   ; qtot 0.371199
 1294         c3     52    bbb     C2   1294 -0.28250000  12.010000   ; qtot 0.088699
 1295         h1     52    bbb     H3   1295 0.15710000   1.008000   ; qtot 0.245799
 1296         h1     52    bbb     H4   1296 0.15710000   1.008000   ; qtot 0.402899
 1297         n3     52    bbb     N1   1297 -0.74090000  14.010000   ; qtot -0.338001
 1298         c3     52    bbb     C3   1298 0.51680000  12.010000   ; qtot 0.178799
 1299         h1     52    bbb     H5   1299 -0.05230000   1.008000   ; qtot 0.126499
 1300         h1     52    bbb     H6   1300 -0.05230000   1.008000   ; qtot 0.074199
 1301         c3     52    bbb     C4   1301 0.51680000  12.010000   ; qtot 0.590999
 1302         h1     52    bbb     H7   1302 -0.05230000   1.008000   ; qtot 0.538699
 1303         h1     52    bbb     H8   1303 -0.05230000   1.008000   ; qtot 0.486399
 1304         c3     52    bbb     C5   1304 -0.60390000  12.010000   ; qtot -0.117501
 1305         hc     52    bbb     H9   1305 0.16730000   1.008000   ; qtot 0.049799
 1306         hc     52    bbb    H10   1306 0.16730000   1.008000   ; qtot 0.217099
 1307         c3     52    bbb     C6   1307 -0.60390000  12.010000   ; qtot -0.386801
 1308         hc     52    bbb    H11   1308 0.16730000   1.008000   ; qtot -0.219501
 1309         hc     52    bbb    H12   1309 0.16730000   1.008000   ; qtot -0.052201
 1310          c     52    bbb     C7   1310 0.72110000  12.010000   ; qtot 0.668899
 1311          c     52    bbb     C8   1311 0.72110000  12.010000   ; qtot 1.389999
 1312          o     52    bbb     O1   1312 -0.61950000  16.000000   ; qtot 0.770499
 1313          o     52    bbb     O2   1313 -0.61950000  16.000000   ; qtot 0.150999
 1314          n     52    bbb     N4   1314 -0.46580000  14.010000   ; qtot -0.314801
 1315         hn     52    bbb    H21   1315 0.31480000   1.008000   ; qtot -0.000001
; residue   53 bbb rtp bbb q -0.0
 1316         c3     53    bbb     C1   1316 0.44180000  12.010000   ; qtot 0.441799
 1317         h1     53    bbb     H1   1317 -0.03530000   1.008000   ; qtot 0.406499
 1318         h1     53    bbb     H2   1318 -0.03530000   1.008000   ; qtot 0.371199
 1319         c3     53    bbb     C2   1319 -0.28250000  12.010000   ; qtot 0.088699
 1320         h1     53    bbb     H3   1320 0.15710000   1.008000   ; qtot 0.245799
 1321         h1     53    bbb     H4   1321 0.15710000   1.008000   ; qtot 0.402899
 1322         n3     53    bbb     N1   1322 -0.74090000  14.010000   ; qtot -0.338001
 1323         c3     53    bbb     C3   1323 0.51680000  12.010000   ; qtot 0.178799
 1324         h1     53    bbb     H5   1324 -0.05230000   1.008000   ; qtot 0.126499
 1325         h1     53    bbb     H6   1325 -0.05230000   1.008000   ; qtot 0.074199
 1326         c3     53    bbb     C4   1326 0.51680000  12.010000   ; qtot 0.590999
 1327         h1     53    bbb     H7   1327 -0.05230000   1.008000   ; qtot 0.538699
 1328         h1     53    bbb     H8   1328 -0.05230000   1.008000   ; qtot 0.486399
 1329         c3     53    bbb     C5   1329 -0.60390000  12.010000   ; qtot -0.117501
 1330         hc     53    bbb     H9   1330 0.16730000   1.008000   ; qtot 0.049799
 1331         hc     53    bbb    H10   1331 0.16730000   1.008000   ; qtot 0.217099
 1332         c3     53    bbb     C6   1332 -0.60390000  12.010000   ; qtot -0.386801
 1333         hc     53    bbb    H11   1333 0.16730000   1.008000   ; qtot -0.219501
 1334         hc     53    bbb    H12   1334 0.16730000   1.008000   ; qtot -0.052201
 1335          c     53    bbb     C7   1335 0.72110000  12.010000   ; qtot 0.668899
 1336          c     53    bbb     C8   1336 0.72110000  12.010000   ; qtot 1.389999
 1337          o     53    bbb     O1   1337 -0.61950000  16.000000   ; qtot 0.770499
 1338          o     53    bbb     O2   1338 -0.61950000  16.000000   ; qtot 0.150999
 1339          n     53    bbb     N4   1339 -0.46580000  14.010000   ; qtot -0.314801
 1340         hn     53    bbb    H21   1340 0.31480000   1.008000   ; qtot -0.000001
; residue   54 bbb rtp bbb q -0.0
 1341         c3     54    bbb     C1   1341 0.44180000  12.010000   ; qtot 0.441799
 1342         h1     54    bbb     H1   1342 -0.03530000   1.008000   ; qtot 0.406499
 1343         h1     54    bbb     H2   1343 -0.03530000   1.008000   ; qtot 0.371199
 1344         c3     54    bbb     C2   1344 -0.28250000  12.010000   ; qtot 0.088699
 1345         h1     54    bbb     H3   1345 0.15710000   1.008000   ; qtot 0.245799
 1346         h1     54    bbb     H4   1346 0.15710000   1.008000   ; qtot 0.402899
 1347         n3     54    bbb     N1   1347 -0.74090000  14.010000   ; qtot -0.338001
 1348         c3     54    bbb     C3   1348 0.51680000  12.010000   ; qtot 0.178799
 1349         h1     54    bbb     H5   1349 -0.05230000   1.008000   ; qtot 0.126499
 1350         h1     54    bbb     H6   1350 -0.05230000   1.008000   ; qtot 0.074199
 1351         c3     54    bbb     C4   1351 0.51680000  12.010000   ; qtot 0.590999
 1352         h1     54    bbb     H7   1352 -0.05230000   1.008000   ; qtot 0.538699
 1353         h1     54    bbb     H8   1353 -0.05230000   1.008000   ; qtot 0.486399
 1354         c3     54    bbb     C5   1354 -0.60390000  12.010000   ; qtot -0.117501
 1355         hc     54    bbb     H9   1355 0.16730000   1.008000   ; qtot 0.049799
 1356         hc     54    bbb    H10   1356 0.16730000   1.008000   ; qtot 0.217099
 1357         c3     54    bbb     C6   1357 -0.60390000  12.010000   ; qtot -0.386801
 1358         hc     54    bbb    H11   1358 0.16730000   1.008000   ; qtot -0.219501
 1359         hc     54    bbb    H12   1359 0.16730000   1.008000   ; qtot -0.052201
 1360          c     54    bbb     C7   1360 0.72110000  12.010000   ; qtot 0.668899
 1361          c     54    bbb     C8   1361 0.72110000  12.010000   ; qtot 1.389999
 1362          o     54    bbb     O1   1362 -0.61950000  16.000000   ; qtot 0.770499
 1363          o     54    bbb     O2   1363 -0.61950000  16.000000   ; qtot 0.150999
 1364          n     54    bbb     N4   1364 -0.46580000  14.010000   ; qtot -0.314801
 1365         hn     54    bbb    H21   1365 0.31480000   1.008000   ; qtot -0.000001
; residue   55 bbb rtp bbb q -0.0
 1366         c3     55    bbb     C1   1366 0.44180000  12.010000   ; qtot 0.441799
 1367         h1     55    bbb     H1   1367 -0.03530000   1.008000   ; qtot 0.406499
 1368         h1     55    bbb     H2   1368 -0.03530000   1.008000   ; qtot 0.371199
 1369         c3     55    bbb     C2   1369 -0.28250000  12.010000   ; qtot 0.088699
 1370         h1     55    bbb     H3   1370 0.15710000   1.008000   ; qtot 0.245799
 1371         h1     55    bbb     H4   1371 0.15710000   1.008000   ; qtot 0.402899
 1372         n3     55    bbb     N1   1372 -0.74090000  14.010000   ; qtot -0.338001
 1373         c3     55    bbb     C3   1373 0.51680000  12.010000   ; qtot 0.178799
 1374         h1     55    bbb     H5   1374 -0.05230000   1.008000   ; qtot 0.126499
 1375         h1     55    bbb     H6   1375 -0.05230000   1.008000   ; qtot 0.074199
 1376         c3     55    bbb     C4   1376 0.51680000  12.010000   ; qtot 0.590999
 1377         h1     55    bbb     H7   1377 -0.05230000   1.008000   ; qtot 0.538699
 1378         h1     55    bbb     H8   1378 -0.05230000   1.008000   ; qtot 0.486399
 1379         c3     55    bbb     C5   1379 -0.60390000  12.010000   ; qtot -0.117501
 1380         hc     55    bbb     H9   1380 0.16730000   1.008000   ; qtot 0.049799
 1381         hc     55    bbb    H10   1381 0.16730000   1.008000   ; qtot 0.217099
 1382         c3     55    bbb     C6   1382 -0.60390000  12.010000   ; qtot -0.386801
 1383         hc     55    bbb    H11   1383 0.16730000   1.008000   ; qtot -0.219501
 1384         hc     55    bbb    H12   1384 0.16730000   1.008000   ; qtot -0.052201
 1385          c     55    bbb     C7   1385 0.72110000  12.010000   ; qtot 0.668899
 1386          c     55    bbb     C8   1386 0.72110000  12.010000   ; qtot 1.389999
 1387          o     55    bbb     O1   1387 -0.61950000  16.000000   ; qtot 0.770499
 1388          o     55    bbb     O2   1388 -0.61950000  16.000000   ; qtot 0.150999
 1389          n     55    bbb     N4   1389 -0.46580000  14.010000   ; qtot -0.314801
 1390         hn     55    bbb    H21   1390 0.31480000   1.008000   ; qtot -0.000001
; residue   56 bbb rtp bbb q -0.0
 1391         c3     56    bbb     C1   1391 0.44180000  12.010000   ; qtot 0.441799
 1392         h1     56    bbb     H1   1392 -0.03530000   1.008000   ; qtot 0.406499
 1393         h1     56    bbb     H2   1393 -0.03530000   1.008000   ; qtot 0.371199
 1394         c3     56    bbb     C2   1394 -0.28250000  12.010000   ; qtot 0.088699
 1395         h1     56    bbb     H3   1395 0.15710000   1.008000   ; qtot 0.245799
 1396         h1     56    bbb     H4   1396 0.15710000   1.008000   ; qtot 0.402899
 1397         n3     56    bbb     N1   1397 -0.74090000  14.010000   ; qtot -0.338001
 1398         c3     56    bbb     C3   1398 0.51680000  12.010000   ; qtot 0.178799
 1399         h1     56    bbb     H5   1399 -0.05230000   1.008000   ; qtot 0.126499
 1400         h1     56    bbb     H6   1400 -0.05230000   1.008000   ; qtot 0.074199
 1401         c3     56    bbb     C4   1401 0.51680000  12.010000   ; qtot 0.590999
 1402         h1     56    bbb     H7   1402 -0.05230000   1.008000   ; qtot 0.538699
 1403         h1     56    bbb     H8   1403 -0.05230000   1.008000   ; qtot 0.486399
 1404         c3     56    bbb     C5   1404 -0.60390000  12.010000   ; qtot -0.117501
 1405         hc     56    bbb     H9   1405 0.16730000   1.008000   ; qtot 0.049799
 1406         hc     56    bbb    H10   1406 0.16730000   1.008000   ; qtot 0.217099
 1407         c3     56    bbb     C6   1407 -0.60390000  12.010000   ; qtot -0.386801
 1408         hc     56    bbb    H11   1408 0.16730000   1.008000   ; qtot -0.219501
 1409         hc     56    bbb    H12   1409 0.16730000   1.008000   ; qtot -0.052201
 1410          c     56    bbb     C7   1410 0.72110000  12.010000   ; qtot 0.668899
 1411          c     56    bbb     C8   1411 0.72110000  12.010000   ; qtot 1.389999
 1412          o     56    bbb     O1   1412 -0.61950000  16.000000   ; qtot 0.770499
 1413          o     56    bbb     O2   1413 -0.61950000  16.000000   ; qtot 0.150999
 1414          n     56    bbb     N4   1414 -0.46580000  14.010000   ; qtot -0.314801
 1415         hn     56    bbb    H21   1415 0.31480000   1.008000   ; qtot -0.000001
; residue   57 bbb rtp bbb q -0.0
 1416         c3     57    bbb     C1   1416 0.44180000  12.010000   ; qtot 0.441799
 1417         h1     57    bbb     H1   1417 -0.03530000   1.008000   ; qtot 0.406499
 1418         h1     57    bbb     H2   1418 -0.03530000   1.008000   ; qtot 0.371199
 1419         c3     57    bbb     C2   1419 -0.28250000  12.010000   ; qtot 0.088699
 1420         h1     57    bbb     H3   1420 0.15710000   1.008000   ; qtot 0.245799
 1421         h1     57    bbb     H4   1421 0.15710000   1.008000   ; qtot 0.402899
 1422         n3     57    bbb     N1   1422 -0.74090000  14.010000   ; qtot -0.338001
 1423         c3     57    bbb     C3   1423 0.51680000  12.010000   ; qtot 0.178799
 1424         h1     57    bbb     H5   1424 -0.05230000   1.008000   ; qtot 0.126499
 1425         h1     57    bbb     H6   1425 -0.05230000   1.008000   ; qtot 0.074199
 1426         c3     57    bbb     C4   1426 0.51680000  12.010000   ; qtot 0.590999
 1427         h1     57    bbb     H7   1427 -0.05230000   1.008000   ; qtot 0.538699
 1428         h1     57    bbb     H8   1428 -0.05230000   1.008000   ; qtot 0.486399
 1429         c3     57    bbb     C5   1429 -0.60390000  12.010000   ; qtot -0.117501
 1430         hc     57    bbb     H9   1430 0.16730000   1.008000   ; qtot 0.049799
 1431         hc     57    bbb    H10   1431 0.16730000   1.008000   ; qtot 0.217099
 1432         c3     57    bbb     C6   1432 -0.60390000  12.010000   ; qtot -0.386801
 1433         hc     57    bbb    H11   1433 0.16730000   1.008000   ; qtot -0.219501
 1434         hc     57    bbb    H12   1434 0.16730000   1.008000   ; qtot -0.052201
 1435          c     57    bbb     C7   1435 0.72110000  12.010000   ; qtot 0.668899
 1436          c     57    bbb     C8   1436 0.72110000  12.010000   ; qtot 1.389999
 1437          o     57    bbb     O1   1437 -0.61950000  16.000000   ; qtot 0.770499
 1438          o     57    bbb     O2   1438 -0.61950000  16.000000   ; qtot 0.150999
 1439          n     57    bbb     N4   1439 -0.46580000  14.010000   ; qtot -0.314801
 1440         hn     57    bbb    H21   1440 0.31480000   1.008000   ; qtot -0.000001
; residue   58 bbb rtp bbb q -0.0
 1441         c3     58    bbb     C1   1441 0.44180000  12.010000   ; qtot 0.441799
 1442         h1     58    bbb     H1   1442 -0.03530000   1.008000   ; qtot 0.406499
 1443         h1     58    bbb     H2   1443 -0.03530000   1.008000   ; qtot 0.371199
 1444         c3     58    bbb     C2   1444 -0.28250000  12.010000   ; qtot 0.088699
 1445         h1     58    bbb     H3   1445 0.15710000   1.008000   ; qtot 0.245799
 1446         h1     58    bbb     H4   1446 0.15710000   1.008000   ; qtot 0.402899
 1447         n3     58    bbb     N1   1447 -0.74090000  14.010000   ; qtot -0.338001
 1448         c3     58    bbb     C3   1448 0.51680000  12.010000   ; qtot 0.178799
 1449         h1     58    bbb     H5   1449 -0.05230000   1.008000   ; qtot 0.126499
 1450         h1     58    bbb     H6   1450 -0.05230000   1.008000   ; qtot 0.074199
 1451         c3     58    bbb     C4   1451 0.51680000  12.010000   ; qtot 0.590999
 1452         h1     58    bbb     H7   1452 -0.05230000   1.008000   ; qtot 0.538699
 1453         h1     58    bbb     H8   1453 -0.05230000   1.008000   ; qtot 0.486399
 1454         c3     58    bbb     C5   1454 -0.60390000  12.010000   ; qtot -0.117501
 1455         hc     58    bbb     H9   1455 0.16730000   1.008000   ; qtot 0.049799
 1456         hc     58    bbb    H10   1456 0.16730000   1.008000   ; qtot 0.217099
 1457         c3     58    bbb     C6   1457 -0.60390000  12.010000   ; qtot -0.386801
 1458         hc     58    bbb    H11   1458 0.16730000   1.008000   ; qtot -0.219501
 1459         hc     58    bbb    H12   1459 0.16730000   1.008000   ; qtot -0.052201
 1460          c     58    bbb     C7   1460 0.72110000  12.010000   ; qtot 0.668899
 1461          c     58    bbb     C8   1461 0.72110000  12.010000   ; qtot 1.389999
 1462          o     58    bbb     O1   1462 -0.61950000  16.000000   ; qtot 0.770499
 1463          o     58    bbb     O2   1463 -0.61950000  16.000000   ; qtot 0.150999
 1464          n     58    bbb     N4   1464 -0.46580000  14.010000   ; qtot -0.314801
 1465         hn     58    bbb    H21   1465 0.31480000   1.008000   ; qtot -0.000001
; residue   59 bbb rtp bbb q -0.0
 1466         c3     59    bbb     C1   1466 0.44180000  12.010000   ; qtot 0.441799
 1467         h1     59    bbb     H1   1467 -0.03530000   1.008000   ; qtot 0.406499
 1468         h1     59    bbb     H2   1468 -0.03530000   1.008000   ; qtot 0.371199
 1469         c3     59    bbb     C2   1469 -0.28250000  12.010000   ; qtot 0.088699
 1470         h1     59    bbb     H3   1470 0.15710000   1.008000   ; qtot 0.245799
 1471         h1     59    bbb     H4   1471 0.15710000   1.008000   ; qtot 0.402899
 1472         n3     59    bbb     N1   1472 -0.74090000  14.010000   ; qtot -0.338001
 1473         c3     59    bbb     C3   1473 0.51680000  12.010000   ; qtot 0.178799
 1474         h1     59    bbb     H5   1474 -0.05230000   1.008000   ; qtot 0.126499
 1475         h1     59    bbb     H6   1475 -0.05230000   1.008000   ; qtot 0.074199
 1476         c3     59    bbb     C4   1476 0.51680000  12.010000   ; qtot 0.590999
 1477         h1     59    bbb     H7   1477 -0.05230000   1.008000   ; qtot 0.538699
 1478         h1     59    bbb     H8   1478 -0.05230000   1.008000   ; qtot 0.486399
 1479         c3     59    bbb     C5   1479 -0.60390000  12.010000   ; qtot -0.117501
 1480         hc     59    bbb     H9   1480 0.16730000   1.008000   ; qtot 0.049799
 1481         hc     59    bbb    H10   1481 0.16730000   1.008000   ; qtot 0.217099
 1482         c3     59    bbb     C6   1482 -0.60390000  12.010000   ; qtot -0.386801
 1483         hc     59    bbb    H11   1483 0.16730000   1.008000   ; qtot -0.219501
 1484         hc     59    bbb    H12   1484 0.16730000   1.008000   ; qtot -0.052201
 1485          c     59    bbb     C7   1485 0.72110000  12.010000   ; qtot 0.668899
 1486          c     59    bbb     C8   1486 0.72110000  12.010000   ; qtot 1.389999
 1487          o     59    bbb     O1   1487 -0.61950000  16.000000   ; qtot 0.770499
 1488          o     59    bbb     O2   1488 -0.61950000  16.000000   ; qtot 0.150999
 1489          n     59    bbb     N4   1489 -0.46580000  14.010000   ; qtot -0.314801
 1490         hn     59    bbb    H21   1490 0.31480000   1.008000   ; qtot -0.000001
; residue   60 bbb rtp bbb q -0.0
 1491         c3     60    bbb     C1   1491 0.44180000  12.010000   ; qtot 0.441799
 1492         h1     60    bbb     H1   1492 -0.03530000   1.008000   ; qtot 0.406499
 1493         h1     60    bbb     H2   1493 -0.03530000   1.008000   ; qtot 0.371199
 1494         c3     60    bbb     C2   1494 -0.28250000  12.010000   ; qtot 0.088699
 1495         h1     60    bbb     H3   1495 0.15710000   1.008000   ; qtot 0.245799
 1496         h1     60    bbb     H4   1496 0.15710000   1.008000   ; qtot 0.402899
 1497         n3     60    bbb     N1   1497 -0.74090000  14.010000   ; qtot -0.338001
 1498         c3     60    bbb     C3   1498 0.51680000  12.010000   ; qtot 0.178799
 1499         h1     60    bbb     H5   1499 -0.05230000   1.008000   ; qtot 0.126499
 1500         h1     60    bbb     H6   1500 -0.05230000   1.008000   ; qtot 0.074199
 1501         c3     60    bbb     C4   1501 0.51680000  12.010000   ; qtot 0.590999
 1502         h1     60    bbb     H7   1502 -0.05230000   1.008000   ; qtot 0.538699
 1503         h1     60    bbb     H8   1503 -0.05230000   1.008000   ; qtot 0.486399
 1504         c3     60    bbb     C5   1504 -0.60390000  12.010000   ; qtot -0.117501
 1505         hc     60    bbb     H9   1505 0.16730000   1.008000   ; qtot 0.049799
 1506         hc     60    bbb    H10   1506 0.16730000   1.008000   ; qtot 0.217099
 1507         c3     60    bbb     C6   1507 -0.60390000  12.010000   ; qtot -0.386801
 1508         hc     60    bbb    H11   1508 0.16730000   1.008000   ; qtot -0.219501
 1509         hc     60    bbb    H12   1509 0.16730000   1.008000   ; qtot -0.052201
 1510          c     60    bbb     C7   1510 0.72110000  12.010000   ; qtot 0.668899
 1511          c     60    bbb     C8   1511 0.72110000  12.010000   ; qtot 1.389999
 1512          o     60    bbb     O1   1512 -0.61950000  16.000000   ; qtot 0.770499
 1513          o     60    bbb     O2   1513 -0.61950000  16.000000   ; qtot 0.150999
 1514          n     60    bbb     N4   1514 -0.46580000  14.010000   ; qtot -0.314801
 1515         hn     60    bbb    H21   1515 0.31480000   1.008000   ; qtot -0.000001
; residue   61 bbb rtp bbb q -0.0
 1516         c3     61    bbb     C1   1516 0.44180000  12.010000   ; qtot 0.441799
 1517         h1     61    bbb     H1   1517 -0.03530000   1.008000   ; qtot 0.406499
 1518         h1     61    bbb     H2   1518 -0.03530000   1.008000   ; qtot 0.371199
 1519         c3     61    bbb     C2   1519 -0.28250000  12.010000   ; qtot 0.088699
 1520         h1     61    bbb     H3   1520 0.15710000   1.008000   ; qtot 0.245799
 1521         h1     61    bbb     H4   1521 0.15710000   1.008000   ; qtot 0.402899
 1522         n3     61    bbb     N1   1522 -0.74090000  14.010000   ; qtot -0.338001
 1523         c3     61    bbb     C3   1523 0.51680000  12.010000   ; qtot 0.178799
 1524         h1     61    bbb     H5   1524 -0.05230000   1.008000   ; qtot 0.126499
 1525         h1     61    bbb     H6   1525 -0.05230000   1.008000   ; qtot 0.074199
 1526         c3     61    bbb     C4   1526 0.51680000  12.010000   ; qtot 0.590999
 1527         h1     61    bbb     H7   1527 -0.05230000   1.008000   ; qtot 0.538699
 1528         h1     61    bbb     H8   1528 -0.05230000   1.008000   ; qtot 0.486399
 1529         c3     61    bbb     C5   1529 -0.60390000  12.010000   ; qtot -0.117501
 1530         hc     61    bbb     H9   1530 0.16730000   1.008000   ; qtot 0.049799
 1531         hc     61    bbb    H10   1531 0.16730000   1.008000   ; qtot 0.217099
 1532         c3     61    bbb     C6   1532 -0.60390000  12.010000   ; qtot -0.386801
 1533         hc     61    bbb    H11   1533 0.16730000   1.008000   ; qtot -0.219501
 1534         hc     61    bbb    H12   1534 0.16730000   1.008000   ; qtot -0.052201
 1535          c     61    bbb     C7   1535 0.72110000  12.010000   ; qtot 0.668899
 1536          c     61    bbb     C8   1536 0.72110000  12.010000   ; qtot 1.389999
 1537          o     61    bbb     O1   1537 -0.61950000  16.000000   ; qtot 0.770499
 1538          o     61    bbb     O2   1538 -0.61950000  16.000000   ; qtot 0.150999
 1539          n     61    bbb     N4   1539 -0.46580000  14.010000   ; qtot -0.314801
 1540         hn     61    bbb    H21   1540 0.31480000   1.008000   ; qtot -0.000001
; residue   62 bbb rtp bbb q -0.0
 1541         c3     62    bbb     C1   1541 0.44180000  12.010000   ; qtot 0.441799
 1542         h1     62    bbb     H1   1542 -0.03530000   1.008000   ; qtot 0.406499
 1543         h1     62    bbb     H2   1543 -0.03530000   1.008000   ; qtot 0.371199
 1544         c3     62    bbb     C2   1544 -0.28250000  12.010000   ; qtot 0.088699
 1545         h1     62    bbb     H3   1545 0.15710000   1.008000   ; qtot 0.245799
 1546         h1     62    bbb     H4   1546 0.15710000   1.008000   ; qtot 0.402899
 1547         n3     62    bbb     N1   1547 -0.74090000  14.010000   ; qtot -0.338001
 1548         c3     62    bbb     C3   1548 0.51680000  12.010000   ; qtot 0.178799
 1549         h1     62    bbb     H5   1549 -0.05230000   1.008000   ; qtot 0.126499
 1550         h1     62    bbb     H6   1550 -0.05230000   1.008000   ; qtot 0.074199
 1551         c3     62    bbb     C4   1551 0.51680000  12.010000   ; qtot 0.590999
 1552         h1     62    bbb     H7   1552 -0.05230000   1.008000   ; qtot 0.538699
 1553         h1     62    bbb     H8   1553 -0.05230000   1.008000   ; qtot 0.486399
 1554         c3     62    bbb     C5   1554 -0.60390000  12.010000   ; qtot -0.117501
 1555         hc     62    bbb     H9   1555 0.16730000   1.008000   ; qtot 0.049799
 1556         hc     62    bbb    H10   1556 0.16730000   1.008000   ; qtot 0.217099
 1557         c3     62    bbb     C6   1557 -0.60390000  12.010000   ; qtot -0.386801
 1558         hc     62    bbb    H11   1558 0.16730000   1.008000   ; qtot -0.219501
 1559         hc     62    bbb    H12   1559 0.16730000   1.008000   ; qtot -0.052201
 1560          c     62    bbb     C7   1560 0.72110000  12.010000   ; qtot 0.668899
 1561          c     62    bbb     C8   1561 0.72110000  12.010000   ; qtot 1.389999
 1562          o     62    bbb     O1   1562 -0.61950000  16.000000   ; qtot 0.770499
 1563          o     62    bbb     O2   1563 -0.61950000  16.000000   ; qtot 0.150999
 1564          n     62    bbb     N4   1564 -0.46580000  14.010000   ; qtot -0.314801
 1565         hn     62    bbb    H21   1565 0.31480000   1.008000   ; qtot -0.000001
; residue   63 bbb rtp bbb q -0.0
 1566         c3     63    bbb     C1   1566 0.44180000  12.010000   ; qtot 0.441799
 1567         h1     63    bbb     H1   1567 -0.03530000   1.008000   ; qtot 0.406499
 1568         h1     63    bbb     H2   1568 -0.03530000   1.008000   ; qtot 0.371199
 1569         c3     63    bbb     C2   1569 -0.28250000  12.010000   ; qtot 0.088699
 1570         h1     63    bbb     H3   1570 0.15710000   1.008000   ; qtot 0.245799
 1571         h1     63    bbb     H4   1571 0.15710000   1.008000   ; qtot 0.402899
 1572         n3     63    bbb     N1   1572 -0.74090000  14.010000   ; qtot -0.338001
 1573         c3     63    bbb     C3   1573 0.51680000  12.010000   ; qtot 0.178799
 1574         h1     63    bbb     H5   1574 -0.05230000   1.008000   ; qtot 0.126499
 1575         h1     63    bbb     H6   1575 -0.05230000   1.008000   ; qtot 0.074199
 1576         c3     63    bbb     C4   1576 0.51680000  12.010000   ; qtot 0.590999
 1577         h1     63    bbb     H7   1577 -0.05230000   1.008000   ; qtot 0.538699
 1578         h1     63    bbb     H8   1578 -0.05230000   1.008000   ; qtot 0.486399
 1579         c3     63    bbb     C5   1579 -0.60390000  12.010000   ; qtot -0.117501
 1580         hc     63    bbb     H9   1580 0.16730000   1.008000   ; qtot 0.049799
 1581         hc     63    bbb    H10   1581 0.16730000   1.008000   ; qtot 0.217099
 1582         c3     63    bbb     C6   1582 -0.60390000  12.010000   ; qtot -0.386801
 1583         hc     63    bbb    H11   1583 0.16730000   1.008000   ; qtot -0.219501
 1584         hc     63    bbb    H12   1584 0.16730000   1.008000   ; qtot -0.052201
 1585          c     63    bbb     C7   1585 0.72110000  12.010000   ; qtot 0.668899
 1586          c     63    bbb     C8   1586 0.72110000  12.010000   ; qtot 1.389999
 1587          o     63    bbb     O1   1587 -0.61950000  16.000000   ; qtot 0.770499
 1588          o     63    bbb     O2   1588 -0.61950000  16.000000   ; qtot 0.150999
 1589          n     63    bbb     N4   1589 -0.46580000  14.010000   ; qtot -0.314801
 1590         hn     63    bbb    H21   1590 0.31480000   1.008000   ; qtot -0.000001
; residue   64 bbb rtp bbb q -0.0
 1591         c3     64    bbb     C1   1591 0.44180000  12.010000   ; qtot 0.441799
 1592         h1     64    bbb     H1   1592 -0.03530000   1.008000   ; qtot 0.406499
 1593         h1     64    bbb     H2   1593 -0.03530000   1.008000   ; qtot 0.371199
 1594         c3     64    bbb     C2   1594 -0.28250000  12.010000   ; qtot 0.088699
 1595         h1     64    bbb     H3   1595 0.15710000   1.008000   ; qtot 0.245799
 1596         h1     64    bbb     H4   1596 0.15710000   1.008000   ; qtot 0.402899
 1597         n3     64    bbb     N1   1597 -0.74090000  14.010000   ; qtot -0.338001
 1598         c3     64    bbb     C3   1598 0.51680000  12.010000   ; qtot 0.178799
 1599         h1     64    bbb     H5   1599 -0.05230000   1.008000   ; qtot 0.126499
 1600         h1     64    bbb     H6   1600 -0.05230000   1.008000   ; qtot 0.074199
 1601         c3     64    bbb     C4   1601 0.51680000  12.010000   ; qtot 0.590999
 1602         h1     64    bbb     H7   1602 -0.05230000   1.008000   ; qtot 0.538699
 1603         h1     64    bbb     H8   1603 -0.05230000   1.008000   ; qtot 0.486399
 1604         c3     64    bbb     C5   1604 -0.60390000  12.010000   ; qtot -0.117501
 1605         hc     64    bbb     H9   1605 0.16730000   1.008000   ; qtot 0.049799
 1606         hc     64    bbb    H10   1606 0.16730000   1.008000   ; qtot 0.217099
 1607         c3     64    bbb     C6   1607 -0.60390000  12.010000   ; qtot -0.386801
 1608         hc     64    bbb    H11   1608 0.16730000   1.008000   ; qtot -0.219501
 1609         hc     64    bbb    H12   1609 0.16730000   1.008000   ; qtot -0.052201
 1610          c     64    bbb     C7   1610 0.72110000  12.010000   ; qtot 0.668899
 1611          c     64    bbb     C8   1611 0.72110000  12.010000   ; qtot 1.389999
 1612          o     64    bbb     O1   1612 -0.61950000  16.000000   ; qtot 0.770499
 1613          o     64    bbb     O2   1613 -0.61950000  16.000000   ; qtot 0.150999
 1614          n     64    bbb     N4   1614 -0.46580000  14.010000   ; qtot -0.314801
 1615         hn     64    bbb    H21   1615 0.31480000   1.008000   ; qtot -0.000001
; residue   65 bbb rtp bbb q -0.0
 1616         c3     65    bbb     C1   1616 0.44180000  12.010000   ; qtot 0.441799
 1617         h1     65    bbb     H1   1617 -0.03530000   1.008000   ; qtot 0.406499
 1618         h1     65    bbb     H2   1618 -0.03530000   1.008000   ; qtot 0.371199
 1619         c3     65    bbb     C2   1619 -0.28250000  12.010000   ; qtot 0.088699
 1620         h1     65    bbb     H3   1620 0.15710000   1.008000   ; qtot 0.245799
 1621         h1     65    bbb     H4   1621 0.15710000   1.008000   ; qtot 0.402899
 1622         n3     65    bbb     N1   1622 -0.74090000  14.010000   ; qtot -0.338001
 1623         c3     65    bbb     C3   1623 0.51680000  12.010000   ; qtot 0.178799
 1624         h1     65    bbb     H5   1624 -0.05230000   1.008000   ; qtot 0.126499
 1625         h1     65    bbb     H6   1625 -0.05230000   1.008000   ; qtot 0.074199
 1626         c3     65    bbb     C4   1626 0.51680000  12.010000   ; qtot 0.590999
 1627         h1     65    bbb     H7   1627 -0.05230000   1.008000   ; qtot 0.538699
 1628         h1     65    bbb     H8   1628 -0.05230000   1.008000   ; qtot 0.486399
 1629         c3     65    bbb     C5   1629 -0.60390000  12.010000   ; qtot -0.117501
 1630         hc     65    bbb     H9   1630 0.16730000   1.008000   ; qtot 0.049799
 1631         hc     65    bbb    H10   1631 0.16730000   1.008000   ; qtot 0.217099
 1632         c3     65    bbb     C6   1632 -0.60390000  12.010000   ; qtot -0.386801
 1633         hc     65    bbb    H11   1633 0.16730000   1.008000   ; qtot -0.219501
 1634         hc     65    bbb    H12   1634 0.16730000   1.008000   ; qtot -0.052201
 1635          c     65    bbb     C7   1635 0.72110000  12.010000   ; qtot 0.668899
 1636          c     65    bbb     C8   1636 0.72110000  12.010000   ; qtot 1.389999
 1637          o     65    bbb     O1   1637 -0.61950000  16.000000   ; qtot 0.770499
 1638          o     65    bbb     O2   1638 -0.61950000  16.000000   ; qtot 0.150999
 1639          n     65    bbb     N4   1639 -0.46580000  14.010000   ; qtot -0.314801
 1640         hn     65    bbb    H21   1640 0.31480000   1.008000   ; qtot -0.000001
; residue   66 bbb rtp bbb q -0.0
 1641         c3     66    bbb     C1   1641 0.44180000  12.010000   ; qtot 0.441799
 1642         h1     66    bbb     H1   1642 -0.03530000   1.008000   ; qtot 0.406499
 1643         h1     66    bbb     H2   1643 -0.03530000   1.008000   ; qtot 0.371199
 1644         c3     66    bbb     C2   1644 -0.28250000  12.010000   ; qtot 0.088699
 1645         h1     66    bbb     H3   1645 0.15710000   1.008000   ; qtot 0.245799
 1646         h1     66    bbb     H4   1646 0.15710000   1.008000   ; qtot 0.402899
 1647         n3     66    bbb     N1   1647 -0.74090000  14.010000   ; qtot -0.338001
 1648         c3     66    bbb     C3   1648 0.51680000  12.010000   ; qtot 0.178799
 1649         h1     66    bbb     H5   1649 -0.05230000   1.008000   ; qtot 0.126499
 1650         h1     66    bbb     H6   1650 -0.05230000   1.008000   ; qtot 0.074199
 1651         c3     66    bbb     C4   1651 0.51680000  12.010000   ; qtot 0.590999
 1652         h1     66    bbb     H7   1652 -0.05230000   1.008000   ; qtot 0.538699
 1653         h1     66    bbb     H8   1653 -0.05230000   1.008000   ; qtot 0.486399
 1654         c3     66    bbb     C5   1654 -0.60390000  12.010000   ; qtot -0.117501
 1655         hc     66    bbb     H9   1655 0.16730000   1.008000   ; qtot 0.049799
 1656         hc     66    bbb    H10   1656 0.16730000   1.008000   ; qtot 0.217099
 1657         c3     66    bbb     C6   1657 -0.60390000  12.010000   ; qtot -0.386801
 1658         hc     66    bbb    H11   1658 0.16730000   1.008000   ; qtot -0.219501
 1659         hc     66    bbb    H12   1659 0.16730000   1.008000   ; qtot -0.052201
 1660          c     66    bbb     C7   1660 0.72110000  12.010000   ; qtot 0.668899
 1661          c     66    bbb     C8   1661 0.72110000  12.010000   ; qtot 1.389999
 1662          o     66    bbb     O1   1662 -0.61950000  16.000000   ; qtot 0.770499
 1663          o     66    bbb     O2   1663 -0.61950000  16.000000   ; qtot 0.150999
 1664          n     66    bbb     N4   1664 -0.46580000  14.010000   ; qtot -0.314801
 1665         hn     66    bbb    H21   1665 0.31480000   1.008000   ; qtot -0.000001
; residue   67 bbb rtp bbb q -0.0
 1666         c3     67    bbb     C1   1666 0.44180000  12.010000   ; qtot 0.441799
 1667         h1     67    bbb     H1   1667 -0.03530000   1.008000   ; qtot 0.406499
 1668         h1     67    bbb     H2   1668 -0.03530000   1.008000   ; qtot 0.371199
 1669         c3     67    bbb     C2   1669 -0.28250000  12.010000   ; qtot 0.088699
 1670         h1     67    bbb     H3   1670 0.15710000   1.008000   ; qtot 0.245799
 1671         h1     67    bbb     H4   1671 0.15710000   1.008000   ; qtot 0.402899
 1672         n3     67    bbb     N1   1672 -0.74090000  14.010000   ; qtot -0.338001
 1673         c3     67    bbb     C3   1673 0.51680000  12.010000   ; qtot 0.178799
 1674         h1     67    bbb     H5   1674 -0.05230000   1.008000   ; qtot 0.126499
 1675         h1     67    bbb     H6   1675 -0.05230000   1.008000   ; qtot 0.074199
 1676         c3     67    bbb     C4   1676 0.51680000  12.010000   ; qtot 0.590999
 1677         h1     67    bbb     H7   1677 -0.05230000   1.008000   ; qtot 0.538699
 1678         h1     67    bbb     H8   1678 -0.05230000   1.008000   ; qtot 0.486399
 1679         c3     67    bbb     C5   1679 -0.60390000  12.010000   ; qtot -0.117501
 1680         hc     67    bbb     H9   1680 0.16730000   1.008000   ; qtot 0.049799
 1681         hc     67    bbb    H10   1681 0.16730000   1.008000   ; qtot 0.217099
 1682         c3     67    bbb     C6   1682 -0.60390000  12.010000   ; qtot -0.386801
 1683         hc     67    bbb    H11   1683 0.16730000   1.008000   ; qtot -0.219501
 1684         hc     67    bbb    H12   1684 0.16730000   1.008000   ; qtot -0.052201
 1685          c     67    bbb     C7   1685 0.72110000  12.010000   ; qtot 0.668899
 1686          c     67    bbb     C8   1686 0.72110000  12.010000   ; qtot 1.389999
 1687          o     67    bbb     O1   1687 -0.61950000  16.000000   ; qtot 0.770499
 1688          o     67    bbb     O2   1688 -0.61950000  16.000000   ; qtot 0.150999
 1689          n     67    bbb     N4   1689 -0.46580000  14.010000   ; qtot -0.314801
 1690         hn     67    bbb    H21   1690 0.31480000   1.008000   ; qtot -0.000001
; residue   68 bbb rtp bbb q -0.0
 1691         c3     68    bbb     C1   1691 0.44180000  12.010000   ; qtot 0.441799
 1692         h1     68    bbb     H1   1692 -0.03530000   1.008000   ; qtot 0.406499
 1693         h1     68    bbb     H2   1693 -0.03530000   1.008000   ; qtot 0.371199
 1694         c3     68    bbb     C2   1694 -0.28250000  12.010000   ; qtot 0.088699
 1695         h1     68    bbb     H3   1695 0.15710000   1.008000   ; qtot 0.245799
 1696         h1     68    bbb     H4   1696 0.15710000   1.008000   ; qtot 0.402899
 1697         n3     68    bbb     N1   1697 -0.74090000  14.010000   ; qtot -0.338001
 1698         c3     68    bbb     C3   1698 0.51680000  12.010000   ; qtot 0.178799
 1699         h1     68    bbb     H5   1699 -0.05230000   1.008000   ; qtot 0.126499
 1700         h1     68    bbb     H6   1700 -0.05230000   1.008000   ; qtot 0.074199
 1701         c3     68    bbb     C4   1701 0.51680000  12.010000   ; qtot 0.590999
 1702         h1     68    bbb     H7   1702 -0.05230000   1.008000   ; qtot 0.538699
 1703         h1     68    bbb     H8   1703 -0.05230000   1.008000   ; qtot 0.486399
 1704         c3     68    bbb     C5   1704 -0.60390000  12.010000   ; qtot -0.117501
 1705         hc     68    bbb     H9   1705 0.16730000   1.008000   ; qtot 0.049799
 1706         hc     68    bbb    H10   1706 0.16730000   1.008000   ; qtot 0.217099
 1707         c3     68    bbb     C6   1707 -0.60390000  12.010000   ; qtot -0.386801
 1708         hc     68    bbb    H11   1708 0.16730000   1.008000   ; qtot -0.219501
 1709         hc     68    bbb    H12   1709 0.16730000   1.008000   ; qtot -0.052201
 1710          c     68    bbb     C7   1710 0.72110000  12.010000   ; qtot 0.668899
 1711          c     68    bbb     C8   1711 0.72110000  12.010000   ; qtot 1.389999
 1712          o     68    bbb     O1   1712 -0.61950000  16.000000   ; qtot 0.770499
 1713          o     68    bbb     O2   1713 -0.61950000  16.000000   ; qtot 0.150999
 1714          n     68    bbb     N4   1714 -0.46580000  14.010000   ; qtot -0.314801
 1715         hn     68    bbb    H21   1715 0.31480000   1.008000   ; qtot -0.000001
; residue   69 bbb rtp bbb q -0.0
 1716         c3     69    bbb     C1   1716 0.44180000  12.010000   ; qtot 0.441799
 1717         h1     69    bbb     H1   1717 -0.03530000   1.008000   ; qtot 0.406499
 1718         h1     69    bbb     H2   1718 -0.03530000   1.008000   ; qtot 0.371199
 1719         c3     69    bbb     C2   1719 -0.28250000  12.010000   ; qtot 0.088699
 1720         h1     69    bbb     H3   1720 0.15710000   1.008000   ; qtot 0.245799
 1721         h1     69    bbb     H4   1721 0.15710000   1.008000   ; qtot 0.402899
 1722         n3     69    bbb     N1   1722 -0.74090000  14.010000   ; qtot -0.338001
 1723         c3     69    bbb     C3   1723 0.51680000  12.010000   ; qtot 0.178799
 1724         h1     69    bbb     H5   1724 -0.05230000   1.008000   ; qtot 0.126499
 1725         h1     69    bbb     H6   1725 -0.05230000   1.008000   ; qtot 0.074199
 1726         c3     69    bbb     C4   1726 0.51680000  12.010000   ; qtot 0.590999
 1727         h1     69    bbb     H7   1727 -0.05230000   1.008000   ; qtot 0.538699
 1728         h1     69    bbb     H8   1728 -0.05230000   1.008000   ; qtot 0.486399
 1729         c3     69    bbb     C5   1729 -0.60390000  12.010000   ; qtot -0.117501
 1730         hc     69    bbb     H9   1730 0.16730000   1.008000   ; qtot 0.049799
 1731         hc     69    bbb    H10   1731 0.16730000   1.008000   ; qtot 0.217099
 1732         c3     69    bbb     C6   1732 -0.60390000  12.010000   ; qtot -0.386801
 1733         hc     69    bbb    H11   1733 0.16730000   1.008000   ; qtot -0.219501
 1734         hc     69    bbb    H12   1734 0.16730000   1.008000   ; qtot -0.052201
 1735          c     69    bbb     C7   1735 0.72110000  12.010000   ; qtot 0.668899
 1736          c     69    bbb     C8   1736 0.72110000  12.010000   ; qtot 1.389999
 1737          o     69    bbb     O1   1737 -0.61950000  16.000000   ; qtot 0.770499
 1738          o     69    bbb     O2   1738 -0.61950000  16.000000   ; qtot 0.150999
 1739          n     69    bbb     N4   1739 -0.46580000  14.010000   ; qtot -0.314801
 1740         hn     69    bbb    H21   1740 0.31480000   1.008000   ; qtot -0.000001
; residue   70 bbb rtp bbb q -0.0
 1741         c3     70    bbb     C1   1741 0.44180000  12.010000   ; qtot 0.441799
 1742         h1     70    bbb     H1   1742 -0.03530000   1.008000   ; qtot 0.406499
 1743         h1     70    bbb     H2   1743 -0.03530000   1.008000   ; qtot 0.371199
 1744         c3     70    bbb     C2   1744 -0.28250000  12.010000   ; qtot 0.088699
 1745         h1     70    bbb     H3   1745 0.15710000   1.008000   ; qtot 0.245799
 1746         h1     70    bbb     H4   1746 0.15710000   1.008000   ; qtot 0.402899
 1747         n3     70    bbb     N1   1747 -0.74090000  14.010000   ; qtot -0.338001
 1748         c3     70    bbb     C3   1748 0.51680000  12.010000   ; qtot 0.178799
 1749         h1     70    bbb     H5   1749 -0.05230000   1.008000   ; qtot 0.126499
 1750         h1     70    bbb     H6   1750 -0.05230000   1.008000   ; qtot 0.074199
 1751         c3     70    bbb     C4   1751 0.51680000  12.010000   ; qtot 0.590999
 1752         h1     70    bbb     H7   1752 -0.05230000   1.008000   ; qtot 0.538699
 1753         h1     70    bbb     H8   1753 -0.05230000   1.008000   ; qtot 0.486399
 1754         c3     70    bbb     C5   1754 -0.60390000  12.010000   ; qtot -0.117501
 1755         hc     70    bbb     H9   1755 0.16730000   1.008000   ; qtot 0.049799
 1756         hc     70    bbb    H10   1756 0.16730000   1.008000   ; qtot 0.217099
 1757         c3     70    bbb     C6   1757 -0.60390000  12.010000   ; qtot -0.386801
 1758         hc     70    bbb    H11   1758 0.16730000   1.008000   ; qtot -0.219501
 1759         hc     70    bbb    H12   1759 0.16730000   1.008000   ; qtot -0.052201
 1760          c     70    bbb     C7   1760 0.72110000  12.010000   ; qtot 0.668899
 1761          c     70    bbb     C8   1761 0.72110000  12.010000   ; qtot 1.389999
 1762          o     70    bbb     O1   1762 -0.61950000  16.000000   ; qtot 0.770499
 1763          o     70    bbb     O2   1763 -0.61950000  16.000000   ; qtot 0.150999
 1764          n     70    bbb     N4   1764 -0.46580000  14.010000   ; qtot -0.314801
 1765         hn     70    bbb    H21   1765 0.31480000   1.008000   ; qtot -0.000001
; residue   71 bbb rtp bbb q -0.0
 1766         c3     71    bbb     C1   1766 0.44180000  12.010000   ; qtot 0.441799
 1767         h1     71    bbb     H1   1767 -0.03530000   1.008000   ; qtot 0.406499
 1768         h1     71    bbb     H2   1768 -0.03530000   1.008000   ; qtot 0.371199
 1769         c3     71    bbb     C2   1769 -0.28250000  12.010000   ; qtot 0.088699
 1770         h1     71    bbb     H3   1770 0.15710000   1.008000   ; qtot 0.245799
 1771         h1     71    bbb     H4   1771 0.15710000   1.008000   ; qtot 0.402899
 1772         n3     71    bbb     N1   1772 -0.74090000  14.010000   ; qtot -0.338001
 1773         c3     71    bbb     C3   1773 0.51680000  12.010000   ; qtot 0.178799
 1774         h1     71    bbb     H5   1774 -0.05230000   1.008000   ; qtot 0.126499
 1775         h1     71    bbb     H6   1775 -0.05230000   1.008000   ; qtot 0.074199
 1776         c3     71    bbb     C4   1776 0.51680000  12.010000   ; qtot 0.590999
 1777         h1     71    bbb     H7   1777 -0.05230000   1.008000   ; qtot 0.538699
 1778         h1     71    bbb     H8   1778 -0.05230000   1.008000   ; qtot 0.486399
 1779         c3     71    bbb     C5   1779 -0.60390000  12.010000   ; qtot -0.117501
 1780         hc     71    bbb     H9   1780 0.16730000   1.008000   ; qtot 0.049799
 1781         hc     71    bbb    H10   1781 0.16730000   1.008000   ; qtot 0.217099
 1782         c3     71    bbb     C6   1782 -0.60390000  12.010000   ; qtot -0.386801
 1783         hc     71    bbb    H11   1783 0.16730000   1.008000   ; qtot -0.219501
 1784         hc     71    bbb    H12   1784 0.16730000   1.008000   ; qtot -0.052201
 1785          c     71    bbb     C7   1785 0.72110000  12.010000   ; qtot 0.668899
 1786          c     71    bbb     C8   1786 0.72110000  12.010000   ; qtot 1.389999
 1787          o     71    bbb     O1   1787 -0.61950000  16.000000   ; qtot 0.770499
 1788          o     71    bbb     O2   1788 -0.61950000  16.000000   ; qtot 0.150999
 1789          n     71    bbb     N4   1789 -0.46580000  14.010000   ; qtot -0.314801
 1790         hn     71    bbb    H21   1790 0.31480000   1.008000   ; qtot -0.000001
; residue   72 bbb rtp bbb q -0.0
 1791         c3     72    bbb     C1   1791 0.44180000  12.010000   ; qtot 0.441799
 1792         h1     72    bbb     H1   1792 -0.03530000   1.008000   ; qtot 0.406499
 1793         h1     72    bbb     H2   1793 -0.03530000   1.008000   ; qtot 0.371199
 1794         c3     72    bbb     C2   1794 -0.28250000  12.010000   ; qtot 0.088699
 1795         h1     72    bbb     H3   1795 0.15710000   1.008000   ; qtot 0.245799
 1796         h1     72    bbb     H4   1796 0.15710000   1.008000   ; qtot 0.402899
 1797         n3     72    bbb     N1   1797 -0.74090000  14.010000   ; qtot -0.338001
 1798         c3     72    bbb     C3   1798 0.51680000  12.010000   ; qtot 0.178799
 1799         h1     72    bbb     H5   1799 -0.05230000   1.008000   ; qtot 0.126499
 1800         h1     72    bbb     H6   1800 -0.05230000   1.008000   ; qtot 0.074199
 1801         c3     72    bbb     C4   1801 0.51680000  12.010000   ; qtot 0.590999
 1802         h1     72    bbb     H7   1802 -0.05230000   1.008000   ; qtot 0.538699
 1803         h1     72    bbb     H8   1803 -0.05230000   1.008000   ; qtot 0.486399
 1804         c3     72    bbb     C5   1804 -0.60390000  12.010000   ; qtot -0.117501
 1805         hc     72    bbb     H9   1805 0.16730000   1.008000   ; qtot 0.049799
 1806         hc     72    bbb    H10   1806 0.16730000   1.008000   ; qtot 0.217099
 1807         c3     72    bbb     C6   1807 -0.60390000  12.010000   ; qtot -0.386801
 1808         hc     72    bbb    H11   1808 0.16730000   1.008000   ; qtot -0.219501
 1809         hc     72    bbb    H12   1809 0.16730000   1.008000   ; qtot -0.052201
 1810          c     72    bbb     C7   1810 0.72110000  12.010000   ; qtot 0.668899
 1811          c     72    bbb     C8   1811 0.72110000  12.010000   ; qtot 1.389999
 1812          o     72    bbb     O1   1812 -0.61950000  16.000000   ; qtot 0.770499
 1813          o     72    bbb     O2   1813 -0.61950000  16.000000   ; qtot 0.150999
 1814          n     72    bbb     N4   1814 -0.46580000  14.010000   ; qtot -0.314801
 1815         hn     72    bbb    H21   1815 0.31480000   1.008000   ; qtot -0.000001
; residue   73 bbb rtp bbb q -0.0
 1816         c3     73    bbb     C1   1816 0.44180000  12.010000   ; qtot 0.441799
 1817         h1     73    bbb     H1   1817 -0.03530000   1.008000   ; qtot 0.406499
 1818         h1     73    bbb     H2   1818 -0.03530000   1.008000   ; qtot 0.371199
 1819         c3     73    bbb     C2   1819 -0.28250000  12.010000   ; qtot 0.088699
 1820         h1     73    bbb     H3   1820 0.15710000   1.008000   ; qtot 0.245799
 1821         h1     73    bbb     H4   1821 0.15710000   1.008000   ; qtot 0.402899
 1822         n3     73    bbb     N1   1822 -0.74090000  14.010000   ; qtot -0.338001
 1823         c3     73    bbb     C3   1823 0.51680000  12.010000   ; qtot 0.178799
 1824         h1     73    bbb     H5   1824 -0.05230000   1.008000   ; qtot 0.126499
 1825         h1     73    bbb     H6   1825 -0.05230000   1.008000   ; qtot 0.074199
 1826         c3     73    bbb     C4   1826 0.51680000  12.010000   ; qtot 0.590999
 1827         h1     73    bbb     H7   1827 -0.05230000   1.008000   ; qtot 0.538699
 1828         h1     73    bbb     H8   1828 -0.05230000   1.008000   ; qtot 0.486399
 1829         c3     73    bbb     C5   1829 -0.60390000  12.010000   ; qtot -0.117501
 1830         hc     73    bbb     H9   1830 0.16730000   1.008000   ; qtot 0.049799
 1831         hc     73    bbb    H10   1831 0.16730000   1.008000   ; qtot 0.217099
 1832         c3     73    bbb     C6   1832 -0.60390000  12.010000   ; qtot -0.386801
 1833         hc     73    bbb    H11   1833 0.16730000   1.008000   ; qtot -0.219501
 1834         hc     73    bbb    H12   1834 0.16730000   1.008000   ; qtot -0.052201
 1835          c     73    bbb     C7   1835 0.72110000  12.010000   ; qtot 0.668899
 1836          c     73    bbb     C8   1836 0.72110000  12.010000   ; qtot 1.389999
 1837          o     73    bbb     O1   1837 -0.61950000  16.000000   ; qtot 0.770499
 1838          o     73    bbb     O2   1838 -0.61950000  16.000000   ; qtot 0.150999
 1839          n     73    bbb     N4   1839 -0.46580000  14.010000   ; qtot -0.314801
 1840         hn     73    bbb    H21   1840 0.31480000   1.008000   ; qtot -0.000001
; residue   74 bbb rtp bbb q -0.0
 1841         c3     74    bbb     C1   1841 0.44180000  12.010000   ; qtot 0.441799
 1842         h1     74    bbb     H1   1842 -0.03530000   1.008000   ; qtot 0.406499
 1843         h1     74    bbb     H2   1843 -0.03530000   1.008000   ; qtot 0.371199
 1844         c3     74    bbb     C2   1844 -0.28250000  12.010000   ; qtot 0.088699
 1845         h1     74    bbb     H3   1845 0.15710000   1.008000   ; qtot 0.245799
 1846         h1     74    bbb     H4   1846 0.15710000   1.008000   ; qtot 0.402899
 1847         n3     74    bbb     N1   1847 -0.74090000  14.010000   ; qtot -0.338001
 1848         c3     74    bbb     C3   1848 0.51680000  12.010000   ; qtot 0.178799
 1849         h1     74    bbb     H5   1849 -0.05230000   1.008000   ; qtot 0.126499
 1850         h1     74    bbb     H6   1850 -0.05230000   1.008000   ; qtot 0.074199
 1851         c3     74    bbb     C4   1851 0.51680000  12.010000   ; qtot 0.590999
 1852         h1     74    bbb     H7   1852 -0.05230000   1.008000   ; qtot 0.538699
 1853         h1     74    bbb     H8   1853 -0.05230000   1.008000   ; qtot 0.486399
 1854         c3     74    bbb     C5   1854 -0.60390000  12.010000   ; qtot -0.117501
 1855         hc     74    bbb     H9   1855 0.16730000   1.008000   ; qtot 0.049799
 1856         hc     74    bbb    H10   1856 0.16730000   1.008000   ; qtot 0.217099
 1857         c3     74    bbb     C6   1857 -0.60390000  12.010000   ; qtot -0.386801
 1858         hc     74    bbb    H11   1858 0.16730000   1.008000   ; qtot -0.219501
 1859         hc     74    bbb    H12   1859 0.16730000   1.008000   ; qtot -0.052201
 1860          c     74    bbb     C7   1860 0.72110000  12.010000   ; qtot 0.668899
 1861          c     74    bbb     C8   1861 0.72110000  12.010000   ; qtot 1.389999
 1862          o     74    bbb     O1   1862 -0.61950000  16.000000   ; qtot 0.770499
 1863          o     74    bbb     O2   1863 -0.61950000  16.000000   ; qtot 0.150999
 1864          n     74    bbb     N4   1864 -0.46580000  14.010000   ; qtot -0.314801
 1865         hn     74    bbb    H21   1865 0.31480000   1.008000   ; qtot -0.000001
; residue   75 bbb rtp bbb q -0.0
 1866         c3     75    bbb     C1   1866 0.44180000  12.010000   ; qtot 0.441799
 1867         h1     75    bbb     H1   1867 -0.03530000   1.008000   ; qtot 0.406499
 1868         h1     75    bbb     H2   1868 -0.03530000   1.008000   ; qtot 0.371199
 1869         c3     75    bbb     C2   1869 -0.28250000  12.010000   ; qtot 0.088699
 1870         h1     75    bbb     H3   1870 0.15710000   1.008000   ; qtot 0.245799
 1871         h1     75    bbb     H4   1871 0.15710000   1.008000   ; qtot 0.402899
 1872         n3     75    bbb     N1   1872 -0.74090000  14.010000   ; qtot -0.338001
 1873         c3     75    bbb     C3   1873 0.51680000  12.010000   ; qtot 0.178799
 1874         h1     75    bbb     H5   1874 -0.05230000   1.008000   ; qtot 0.126499
 1875         h1     75    bbb     H6   1875 -0.05230000   1.008000   ; qtot 0.074199
 1876         c3     75    bbb     C4   1876 0.51680000  12.010000   ; qtot 0.590999
 1877         h1     75    bbb     H7   1877 -0.05230000   1.008000   ; qtot 0.538699
 1878         h1     75    bbb     H8   1878 -0.05230000   1.008000   ; qtot 0.486399
 1879         c3     75    bbb     C5   1879 -0.60390000  12.010000   ; qtot -0.117501
 1880         hc     75    bbb     H9   1880 0.16730000   1.008000   ; qtot 0.049799
 1881         hc     75    bbb    H10   1881 0.16730000   1.008000   ; qtot 0.217099
 1882         c3     75    bbb     C6   1882 -0.60390000  12.010000   ; qtot -0.386801
 1883         hc     75    bbb    H11   1883 0.16730000   1.008000   ; qtot -0.219501
 1884         hc     75    bbb    H12   1884 0.16730000   1.008000   ; qtot -0.052201
 1885          c     75    bbb     C7   1885 0.72110000  12.010000   ; qtot 0.668899
 1886          c     75    bbb     C8   1886 0.72110000  12.010000   ; qtot 1.389999
 1887          o     75    bbb     O1   1887 -0.61950000  16.000000   ; qtot 0.770499
 1888          o     75    bbb     O2   1888 -0.61950000  16.000000   ; qtot 0.150999
 1889          n     75    bbb     N4   1889 -0.46580000  14.010000   ; qtot -0.314801
 1890         hn     75    bbb    H21   1890 0.31480000   1.008000   ; qtot -0.000001
; residue   76 bbb rtp bbb q -0.0
 1891         c3     76    bbb     C1   1891 0.44180000  12.010000   ; qtot 0.441799
 1892         h1     76    bbb     H1   1892 -0.03530000   1.008000   ; qtot 0.406499
 1893         h1     76    bbb     H2   1893 -0.03530000   1.008000   ; qtot 0.371199
 1894         c3     76    bbb     C2   1894 -0.28250000  12.010000   ; qtot 0.088699
 1895         h1     76    bbb     H3   1895 0.15710000   1.008000   ; qtot 0.245799
 1896         h1     76    bbb     H4   1896 0.15710000   1.008000   ; qtot 0.402899
 1897         n3     76    bbb     N1   1897 -0.74090000  14.010000   ; qtot -0.338001
 1898         c3     76    bbb     C3   1898 0.51680000  12.010000   ; qtot 0.178799
 1899         h1     76    bbb     H5   1899 -0.05230000   1.008000   ; qtot 0.126499
 1900         h1     76    bbb     H6   1900 -0.05230000   1.008000   ; qtot 0.074199
 1901         c3     76    bbb     C4   1901 0.51680000  12.010000   ; qtot 0.590999
 1902         h1     76    bbb     H7   1902 -0.05230000   1.008000   ; qtot 0.538699
 1903         h1     76    bbb     H8   1903 -0.05230000   1.008000   ; qtot 0.486399
 1904         c3     76    bbb     C5   1904 -0.60390000  12.010000   ; qtot -0.117501
 1905         hc     76    bbb     H9   1905 0.16730000   1.008000   ; qtot 0.049799
 1906         hc     76    bbb    H10   1906 0.16730000   1.008000   ; qtot 0.217099
 1907         c3     76    bbb     C6   1907 -0.60390000  12.010000   ; qtot -0.386801
 1908         hc     76    bbb    H11   1908 0.16730000   1.008000   ; qtot -0.219501
 1909         hc     76    bbb    H12   1909 0.16730000   1.008000   ; qtot -0.052201
 1910          c     76    bbb     C7   1910 0.72110000  12.010000   ; qtot 0.668899
 1911          c     76    bbb     C8   1911 0.72110000  12.010000   ; qtot 1.389999
 1912          o     76    bbb     O1   1912 -0.61950000  16.000000   ; qtot 0.770499
 1913          o     76    bbb     O2   1913 -0.61950000  16.000000   ; qtot 0.150999
 1914          n     76    bbb     N4   1914 -0.46580000  14.010000   ; qtot -0.314801
 1915         hn     76    bbb    H21   1915 0.31480000   1.008000   ; qtot -0.000001
; residue   77 bbb rtp bbb q -0.0
 1916         c3     77    bbb     C1   1916 0.44180000  12.010000   ; qtot 0.441799
 1917         h1     77    bbb     H1   1917 -0.03530000   1.008000   ; qtot 0.406499
 1918         h1     77    bbb     H2   1918 -0.03530000   1.008000   ; qtot 0.371199
 1919         c3     77    bbb     C2   1919 -0.28250000  12.010000   ; qtot 0.088699
 1920         h1     77    bbb     H3   1920 0.15710000   1.008000   ; qtot 0.245799
 1921         h1     77    bbb     H4   1921 0.15710000   1.008000   ; qtot 0.402899
 1922         n3     77    bbb     N1   1922 -0.74090000  14.010000   ; qtot -0.338001
 1923         c3     77    bbb     C3   1923 0.51680000  12.010000   ; qtot 0.178799
 1924         h1     77    bbb     H5   1924 -0.05230000   1.008000   ; qtot 0.126499
 1925         h1     77    bbb     H6   1925 -0.05230000   1.008000   ; qtot 0.074199
 1926         c3     77    bbb     C4   1926 0.51680000  12.010000   ; qtot 0.590999
 1927         h1     77    bbb     H7   1927 -0.05230000   1.008000   ; qtot 0.538699
 1928         h1     77    bbb     H8   1928 -0.05230000   1.008000   ; qtot 0.486399
 1929         c3     77    bbb     C5   1929 -0.60390000  12.010000   ; qtot -0.117501
 1930         hc     77    bbb     H9   1930 0.16730000   1.008000   ; qtot 0.049799
 1931         hc     77    bbb    H10   1931 0.16730000   1.008000   ; qtot 0.217099
 1932         c3     77    bbb     C6   1932 -0.60390000  12.010000   ; qtot -0.386801
 1933         hc     77    bbb    H11   1933 0.16730000   1.008000   ; qtot -0.219501
 1934         hc     77    bbb    H12   1934 0.16730000   1.008000   ; qtot -0.052201
 1935          c     77    bbb     C7   1935 0.72110000  12.010000   ; qtot 0.668899
 1936          c     77    bbb     C8   1936 0.72110000  12.010000   ; qtot 1.389999
 1937          o     77    bbb     O1   1937 -0.61950000  16.000000   ; qtot 0.770499
 1938          o     77    bbb     O2   1938 -0.61950000  16.000000   ; qtot 0.150999
 1939          n     77    bbb     N4   1939 -0.46580000  14.010000   ; qtot -0.314801
 1940         hn     77    bbb    H21   1940 0.31480000   1.008000   ; qtot -0.000001
; residue   78 bbb rtp bbb q -0.0
 1941         c3     78    bbb     C1   1941 0.44180000  12.010000   ; qtot 0.441799
 1942         h1     78    bbb     H1   1942 -0.03530000   1.008000   ; qtot 0.406499
 1943         h1     78    bbb     H2   1943 -0.03530000   1.008000   ; qtot 0.371199
 1944         c3     78    bbb     C2   1944 -0.28250000  12.010000   ; qtot 0.088699
 1945         h1     78    bbb     H3   1945 0.15710000   1.008000   ; qtot 0.245799
 1946         h1     78    bbb     H4   1946 0.15710000   1.008000   ; qtot 0.402899
 1947         n3     78    bbb     N1   1947 -0.74090000  14.010000   ; qtot -0.338001
 1948         c3     78    bbb     C3   1948 0.51680000  12.010000   ; qtot 0.178799
 1949         h1     78    bbb     H5   1949 -0.05230000   1.008000   ; qtot 0.126499
 1950         h1     78    bbb     H6   1950 -0.05230000   1.008000   ; qtot 0.074199
 1951         c3     78    bbb     C4   1951 0.51680000  12.010000   ; qtot 0.590999
 1952         h1     78    bbb     H7   1952 -0.05230000   1.008000   ; qtot 0.538699
 1953         h1     78    bbb     H8   1953 -0.05230000   1.008000   ; qtot 0.486399
 1954         c3     78    bbb     C5   1954 -0.60390000  12.010000   ; qtot -0.117501
 1955         hc     78    bbb     H9   1955 0.16730000   1.008000   ; qtot 0.049799
 1956         hc     78    bbb    H10   1956 0.16730000   1.008000   ; qtot 0.217099
 1957         c3     78    bbb     C6   1957 -0.60390000  12.010000   ; qtot -0.386801
 1958         hc     78    bbb    H11   1958 0.16730000   1.008000   ; qtot -0.219501
 1959         hc     78    bbb    H12   1959 0.16730000   1.008000   ; qtot -0.052201
 1960          c     78    bbb     C7   1960 0.72110000  12.010000   ; qtot 0.668899
 1961          c     78    bbb     C8   1961 0.72110000  12.010000   ; qtot 1.389999
 1962          o     78    bbb     O1   1962 -0.61950000  16.000000   ; qtot 0.770499
 1963          o     78    bbb     O2   1963 -0.61950000  16.000000   ; qtot 0.150999
 1964          n     78    bbb     N4   1964 -0.46580000  14.010000   ; qtot -0.314801
 1965         hn     78    bbb    H21   1965 0.31480000   1.008000   ; qtot -0.000001
; residue   79 bbb rtp bbb q -0.0
 1966         c3     79    bbb     C1   1966 0.44180000  12.010000   ; qtot 0.441799
 1967         h1     79    bbb     H1   1967 -0.03530000   1.008000   ; qtot 0.406499
 1968         h1     79    bbb     H2   1968 -0.03530000   1.008000   ; qtot 0.371199
 1969         c3     79    bbb     C2   1969 -0.28250000  12.010000   ; qtot 0.088699
 1970         h1     79    bbb     H3   1970 0.15710000   1.008000   ; qtot 0.245799
 1971         h1     79    bbb     H4   1971 0.15710000   1.008000   ; qtot 0.402899
 1972         n3     79    bbb     N1   1972 -0.74090000  14.010000   ; qtot -0.338001
 1973         c3     79    bbb     C3   1973 0.51680000  12.010000   ; qtot 0.178799
 1974         h1     79    bbb     H5   1974 -0.05230000   1.008000   ; qtot 0.126499
 1975         h1     79    bbb     H6   1975 -0.05230000   1.008000   ; qtot 0.074199
 1976         c3     79    bbb     C4   1976 0.51680000  12.010000   ; qtot 0.590999
 1977         h1     79    bbb     H7   1977 -0.05230000   1.008000   ; qtot 0.538699
 1978         h1     79    bbb     H8   1978 -0.05230000   1.008000   ; qtot 0.486399
 1979         c3     79    bbb     C5   1979 -0.60390000  12.010000   ; qtot -0.117501
 1980         hc     79    bbb     H9   1980 0.16730000   1.008000   ; qtot 0.049799
 1981         hc     79    bbb    H10   1981 0.16730000   1.008000   ; qtot 0.217099
 1982         c3     79    bbb     C6   1982 -0.60390000  12.010000   ; qtot -0.386801
 1983         hc     79    bbb    H11   1983 0.16730000   1.008000   ; qtot -0.219501
 1984         hc     79    bbb    H12   1984 0.16730000   1.008000   ; qtot -0.052201
 1985          c     79    bbb     C7   1985 0.72110000  12.010000   ; qtot 0.668899
 1986          c     79    bbb     C8   1986 0.72110000  12.010000   ; qtot 1.389999
 1987          o     79    bbb     O1   1987 -0.61950000  16.000000   ; qtot 0.770499
 1988          o     79    bbb     O2   1988 -0.61950000  16.000000   ; qtot 0.150999
 1989          n     79    bbb     N4   1989 -0.46580000  14.010000   ; qtot -0.314801
 1990         hn     79    bbb    H21   1990 0.31480000   1.008000   ; qtot -0.000001
; residue   80 bbb rtp bbb q -0.0
 1991         c3     80    bbb     C1   1991 0.44180000  12.010000   ; qtot 0.441799
 1992         h1     80    bbb     H1   1992 -0.03530000   1.008000   ; qtot 0.406499
 1993         h1     80    bbb     H2   1993 -0.03530000   1.008000   ; qtot 0.371199
 1994         c3     80    bbb     C2   1994 -0.28250000  12.010000   ; qtot 0.088699
 1995         h1     80    bbb     H3   1995 0.15710000   1.008000   ; qtot 0.245799
 1996         h1     80    bbb     H4   1996 0.15710000   1.008000   ; qtot 0.402899
 1997         n3     80    bbb     N1   1997 -0.74090000  14.010000   ; qtot -0.338001
 1998         c3     80    bbb     C3   1998 0.51680000  12.010000   ; qtot 0.178799
 1999         h1     80    bbb     H5   1999 -0.05230000   1.008000   ; qtot 0.126499
 2000         h1     80    bbb     H6   2000 -0.05230000   1.008000   ; qtot 0.074199
 2001         c3     80    bbb     C4   2001 0.51680000  12.010000   ; qtot 0.590999
 2002         h1     80    bbb     H7   2002 -0.05230000   1.008000   ; qtot 0.538699
 2003         h1     80    bbb     H8   2003 -0.05230000   1.008000   ; qtot 0.486399
 2004         c3     80    bbb     C5   2004 -0.60390000  12.010000   ; qtot -0.117501
 2005         hc     80    bbb     H9   2005 0.16730000   1.008000   ; qtot 0.049799
 2006         hc     80    bbb    H10   2006 0.16730000   1.008000   ; qtot 0.217099
 2007         c3     80    bbb     C6   2007 -0.60390000  12.010000   ; qtot -0.386801
 2008         hc     80    bbb    H11   2008 0.16730000   1.008000   ; qtot -0.219501
 2009         hc     80    bbb    H12   2009 0.16730000   1.008000   ; qtot -0.052201
 2010          c     80    bbb     C7   2010 0.72110000  12.010000   ; qtot 0.668899
 2011          c     80    bbb     C8   2011 0.72110000  12.010000   ; qtot 1.389999
 2012          o     80    bbb     O1   2012 -0.61950000  16.000000   ; qtot 0.770499
 2013          o     80    bbb     O2   2013 -0.61950000  16.000000   ; qtot 0.150999
 2014          n     80    bbb     N4   2014 -0.46580000  14.010000   ; qtot -0.314801
 2015         hn     80    bbb    H21   2015 0.31480000   1.008000   ; qtot -0.000001
; residue   81 bbb rtp bbb q -0.0
 2016         c3     81    bbb     C1   2016 0.44180000  12.010000   ; qtot 0.441799
 2017         h1     81    bbb     H1   2017 -0.03530000   1.008000   ; qtot 0.406499
 2018         h1     81    bbb     H2   2018 -0.03530000   1.008000   ; qtot 0.371199
 2019         c3     81    bbb     C2   2019 -0.28250000  12.010000   ; qtot 0.088699
 2020         h1     81    bbb     H3   2020 0.15710000   1.008000   ; qtot 0.245799
 2021         h1     81    bbb     H4   2021 0.15710000   1.008000   ; qtot 0.402899
 2022         n3     81    bbb     N1   2022 -0.74090000  14.010000   ; qtot -0.338001
 2023         c3     81    bbb     C3   2023 0.51680000  12.010000   ; qtot 0.178799
 2024         h1     81    bbb     H5   2024 -0.05230000   1.008000   ; qtot 0.126499
 2025         h1     81    bbb     H6   2025 -0.05230000   1.008000   ; qtot 0.074199
 2026         c3     81    bbb     C4   2026 0.51680000  12.010000   ; qtot 0.590999
 2027         h1     81    bbb     H7   2027 -0.05230000   1.008000   ; qtot 0.538699
 2028         h1     81    bbb     H8   2028 -0.05230000   1.008000   ; qtot 0.486399
 2029         c3     81    bbb     C5   2029 -0.60390000  12.010000   ; qtot -0.117501
 2030         hc     81    bbb     H9   2030 0.16730000   1.008000   ; qtot 0.049799
 2031         hc     81    bbb    H10   2031 0.16730000   1.008000   ; qtot 0.217099
 2032         c3     81    bbb     C6   2032 -0.60390000  12.010000   ; qtot -0.386801
 2033         hc     81    bbb    H11   2033 0.16730000   1.008000   ; qtot -0.219501
 2034         hc     81    bbb    H12   2034 0.16730000   1.008000   ; qtot -0.052201
 2035          c     81    bbb     C7   2035 0.72110000  12.010000   ; qtot 0.668899
 2036          c     81    bbb     C8   2036 0.72110000  12.010000   ; qtot 1.389999
 2037          o     81    bbb     O1   2037 -0.61950000  16.000000   ; qtot 0.770499
 2038          o     81    bbb     O2   2038 -0.61950000  16.000000   ; qtot 0.150999
 2039          n     81    bbb     N4   2039 -0.46580000  14.010000   ; qtot -0.314801
 2040         hn     81    bbb    H21   2040 0.31480000   1.008000   ; qtot -0.000001
; residue   82 bbb rtp bbb q -0.0
 2041         c3     82    bbb     C1   2041 0.44180000  12.010000   ; qtot 0.441799
 2042         h1     82    bbb     H1   2042 -0.03530000   1.008000   ; qtot 0.406499
 2043         h1     82    bbb     H2   2043 -0.03530000   1.008000   ; qtot 0.371199
 2044         c3     82    bbb     C2   2044 -0.28250000  12.010000   ; qtot 0.088699
 2045         h1     82    bbb     H3   2045 0.15710000   1.008000   ; qtot 0.245799
 2046         h1     82    bbb     H4   2046 0.15710000   1.008000   ; qtot 0.402899
 2047         n3     82    bbb     N1   2047 -0.74090000  14.010000   ; qtot -0.338001
 2048         c3     82    bbb     C3   2048 0.51680000  12.010000   ; qtot 0.178799
 2049         h1     82    bbb     H5   2049 -0.05230000   1.008000   ; qtot 0.126499
 2050         h1     82    bbb     H6   2050 -0.05230000   1.008000   ; qtot 0.074199
 2051         c3     82    bbb     C4   2051 0.51680000  12.010000   ; qtot 0.590999
 2052         h1     82    bbb     H7   2052 -0.05230000   1.008000   ; qtot 0.538699
 2053         h1     82    bbb     H8   2053 -0.05230000   1.008000   ; qtot 0.486399
 2054         c3     82    bbb     C5   2054 -0.60390000  12.010000   ; qtot -0.117501
 2055         hc     82    bbb     H9   2055 0.16730000   1.008000   ; qtot 0.049799
 2056         hc     82    bbb    H10   2056 0.16730000   1.008000   ; qtot 0.217099
 2057         c3     82    bbb     C6   2057 -0.60390000  12.010000   ; qtot -0.386801
 2058         hc     82    bbb    H11   2058 0.16730000   1.008000   ; qtot -0.219501
 2059         hc     82    bbb    H12   2059 0.16730000   1.008000   ; qtot -0.052201
 2060          c     82    bbb     C7   2060 0.72110000  12.010000   ; qtot 0.668899
 2061          c     82    bbb     C8   2061 0.72110000  12.010000   ; qtot 1.389999
 2062          o     82    bbb     O1   2062 -0.61950000  16.000000   ; qtot 0.770499
 2063          o     82    bbb     O2   2063 -0.61950000  16.000000   ; qtot 0.150999
 2064          n     82    bbb     N4   2064 -0.46580000  14.010000   ; qtot -0.314801
 2065         hn     82    bbb    H21   2065 0.31480000   1.008000   ; qtot -0.000001
; residue   83 bbb rtp bbb q -0.0
 2066         c3     83    bbb     C1   2066 0.44180000  12.010000   ; qtot 0.441799
 2067         h1     83    bbb     H1   2067 -0.03530000   1.008000   ; qtot 0.406499
 2068         h1     83    bbb     H2   2068 -0.03530000   1.008000   ; qtot 0.371199
 2069         c3     83    bbb     C2   2069 -0.28250000  12.010000   ; qtot 0.088699
 2070         h1     83    bbb     H3   2070 0.15710000   1.008000   ; qtot 0.245799
 2071         h1     83    bbb     H4   2071 0.15710000   1.008000   ; qtot 0.402899
 2072         n3     83    bbb     N1   2072 -0.74090000  14.010000   ; qtot -0.338001
 2073         c3     83    bbb     C3   2073 0.51680000  12.010000   ; qtot 0.178799
 2074         h1     83    bbb     H5   2074 -0.05230000   1.008000   ; qtot 0.126499
 2075         h1     83    bbb     H6   2075 -0.05230000   1.008000   ; qtot 0.074199
 2076         c3     83    bbb     C4   2076 0.51680000  12.010000   ; qtot 0.590999
 2077         h1     83    bbb     H7   2077 -0.05230000   1.008000   ; qtot 0.538699
 2078         h1     83    bbb     H8   2078 -0.05230000   1.008000   ; qtot 0.486399
 2079         c3     83    bbb     C5   2079 -0.60390000  12.010000   ; qtot -0.117501
 2080         hc     83    bbb     H9   2080 0.16730000   1.008000   ; qtot 0.049799
 2081         hc     83    bbb    H10   2081 0.16730000   1.008000   ; qtot 0.217099
 2082         c3     83    bbb     C6   2082 -0.60390000  12.010000   ; qtot -0.386801
 2083         hc     83    bbb    H11   2083 0.16730000   1.008000   ; qtot -0.219501
 2084         hc     83    bbb    H12   2084 0.16730000   1.008000   ; qtot -0.052201
 2085          c     83    bbb     C7   2085 0.72110000  12.010000   ; qtot 0.668899
 2086          c     83    bbb     C8   2086 0.72110000  12.010000   ; qtot 1.389999
 2087          o     83    bbb     O1   2087 -0.61950000  16.000000   ; qtot 0.770499
 2088          o     83    bbb     O2   2088 -0.61950000  16.000000   ; qtot 0.150999
 2089          n     83    bbb     N4   2089 -0.46580000  14.010000   ; qtot -0.314801
 2090         hn     83    bbb    H21   2090 0.31480000   1.008000   ; qtot -0.000001
; residue   84 bbb rtp bbb q -0.0
 2091         c3     84    bbb     C1   2091 0.44180000  12.010000   ; qtot 0.441799
 2092         h1     84    bbb     H1   2092 -0.03530000   1.008000   ; qtot 0.406499
 2093         h1     84    bbb     H2   2093 -0.03530000   1.008000   ; qtot 0.371199
 2094         c3     84    bbb     C2   2094 -0.28250000  12.010000   ; qtot 0.088699
 2095         h1     84    bbb     H3   2095 0.15710000   1.008000   ; qtot 0.245799
 2096         h1     84    bbb     H4   2096 0.15710000   1.008000   ; qtot 0.402899
 2097         n3     84    bbb     N1   2097 -0.74090000  14.010000   ; qtot -0.338001
 2098         c3     84    bbb     C3   2098 0.51680000  12.010000   ; qtot 0.178799
 2099         h1     84    bbb     H5   2099 -0.05230000   1.008000   ; qtot 0.126499
 2100         h1     84    bbb     H6   2100 -0.05230000   1.008000   ; qtot 0.074199
 2101         c3     84    bbb     C4   2101 0.51680000  12.010000   ; qtot 0.590999
 2102         h1     84    bbb     H7   2102 -0.05230000   1.008000   ; qtot 0.538699
 2103         h1     84    bbb     H8   2103 -0.05230000   1.008000   ; qtot 0.486399
 2104         c3     84    bbb     C5   2104 -0.60390000  12.010000   ; qtot -0.117501
 2105         hc     84    bbb     H9   2105 0.16730000   1.008000   ; qtot 0.049799
 2106         hc     84    bbb    H10   2106 0.16730000   1.008000   ; qtot 0.217099
 2107         c3     84    bbb     C6   2107 -0.60390000  12.010000   ; qtot -0.386801
 2108         hc     84    bbb    H11   2108 0.16730000   1.008000   ; qtot -0.219501
 2109         hc     84    bbb    H12   2109 0.16730000   1.008000   ; qtot -0.052201
 2110          c     84    bbb     C7   2110 0.72110000  12.010000   ; qtot 0.668899
 2111          c     84    bbb     C8   2111 0.72110000  12.010000   ; qtot 1.389999
 2112          o     84    bbb     O1   2112 -0.61950000  16.000000   ; qtot 0.770499
 2113          o     84    bbb     O2   2113 -0.61950000  16.000000   ; qtot 0.150999
 2114          n     84    bbb     N4   2114 -0.46580000  14.010000   ; qtot -0.314801
 2115         hn     84    bbb    H21   2115 0.31480000   1.008000   ; qtot -0.000001
; residue   85 bbb rtp bbb q -0.0
 2116         c3     85    bbb     C1   2116 0.44180000  12.010000   ; qtot 0.441799
 2117         h1     85    bbb     H1   2117 -0.03530000   1.008000   ; qtot 0.406499
 2118         h1     85    bbb     H2   2118 -0.03530000   1.008000   ; qtot 0.371199
 2119         c3     85    bbb     C2   2119 -0.28250000  12.010000   ; qtot 0.088699
 2120         h1     85    bbb     H3   2120 0.15710000   1.008000   ; qtot 0.245799
 2121         h1     85    bbb     H4   2121 0.15710000   1.008000   ; qtot 0.402899
 2122         n3     85    bbb     N1   2122 -0.74090000  14.010000   ; qtot -0.338001
 2123         c3     85    bbb     C3   2123 0.51680000  12.010000   ; qtot 0.178799
 2124         h1     85    bbb     H5   2124 -0.05230000   1.008000   ; qtot 0.126499
 2125         h1     85    bbb     H6   2125 -0.05230000   1.008000   ; qtot 0.074199
 2126         c3     85    bbb     C4   2126 0.51680000  12.010000   ; qtot 0.590999
 2127         h1     85    bbb     H7   2127 -0.05230000   1.008000   ; qtot 0.538699
 2128         h1     85    bbb     H8   2128 -0.05230000   1.008000   ; qtot 0.486399
 2129         c3     85    bbb     C5   2129 -0.60390000  12.010000   ; qtot -0.117501
 2130         hc     85    bbb     H9   2130 0.16730000   1.008000   ; qtot 0.049799
 2131         hc     85    bbb    H10   2131 0.16730000   1.008000   ; qtot 0.217099
 2132         c3     85    bbb     C6   2132 -0.60390000  12.010000   ; qtot -0.386801
 2133         hc     85    bbb    H11   2133 0.16730000   1.008000   ; qtot -0.219501
 2134         hc     85    bbb    H12   2134 0.16730000   1.008000   ; qtot -0.052201
 2135          c     85    bbb     C7   2135 0.72110000  12.010000   ; qtot 0.668899
 2136          c     85    bbb     C8   2136 0.72110000  12.010000   ; qtot 1.389999
 2137          o     85    bbb     O1   2137 -0.61950000  16.000000   ; qtot 0.770499
 2138          o     85    bbb     O2   2138 -0.61950000  16.000000   ; qtot 0.150999
 2139          n     85    bbb     N4   2139 -0.46580000  14.010000   ; qtot -0.314801
 2140         hn     85    bbb    H21   2140 0.31480000   1.008000   ; qtot -0.000001
; residue   86 bbb rtp bbb q -0.0
 2141         c3     86    bbb     C1   2141 0.44180000  12.010000   ; qtot 0.441799
 2142         h1     86    bbb     H1   2142 -0.03530000   1.008000   ; qtot 0.406499
 2143         h1     86    bbb     H2   2143 -0.03530000   1.008000   ; qtot 0.371199
 2144         c3     86    bbb     C2   2144 -0.28250000  12.010000   ; qtot 0.088699
 2145         h1     86    bbb     H3   2145 0.15710000   1.008000   ; qtot 0.245799
 2146         h1     86    bbb     H4   2146 0.15710000   1.008000   ; qtot 0.402899
 2147         n3     86    bbb     N1   2147 -0.74090000  14.010000   ; qtot -0.338001
 2148         c3     86    bbb     C3   2148 0.51680000  12.010000   ; qtot 0.178799
 2149         h1     86    bbb     H5   2149 -0.05230000   1.008000   ; qtot 0.126499
 2150         h1     86    bbb     H6   2150 -0.05230000   1.008000   ; qtot 0.074199
 2151         c3     86    bbb     C4   2151 0.51680000  12.010000   ; qtot 0.590999
 2152         h1     86    bbb     H7   2152 -0.05230000   1.008000   ; qtot 0.538699
 2153         h1     86    bbb     H8   2153 -0.05230000   1.008000   ; qtot 0.486399
 2154         c3     86    bbb     C5   2154 -0.60390000  12.010000   ; qtot -0.117501
 2155         hc     86    bbb     H9   2155 0.16730000   1.008000   ; qtot 0.049799
 2156         hc     86    bbb    H10   2156 0.16730000   1.008000   ; qtot 0.217099
 2157         c3     86    bbb     C6   2157 -0.60390000  12.010000   ; qtot -0.386801
 2158         hc     86    bbb    H11   2158 0.16730000   1.008000   ; qtot -0.219501
 2159         hc     86    bbb    H12   2159 0.16730000   1.008000   ; qtot -0.052201
 2160          c     86    bbb     C7   2160 0.72110000  12.010000   ; qtot 0.668899
 2161          c     86    bbb     C8   2161 0.72110000  12.010000   ; qtot 1.389999
 2162          o     86    bbb     O1   2162 -0.61950000  16.000000   ; qtot 0.770499
 2163          o     86    bbb     O2   2163 -0.61950000  16.000000   ; qtot 0.150999
 2164          n     86    bbb     N4   2164 -0.46580000  14.010000   ; qtot -0.314801
 2165         hn     86    bbb    H21   2165 0.31480000   1.008000   ; qtot -0.000001
; residue   87 bbb rtp bbb q -0.0
 2166         c3     87    bbb     C1   2166 0.44180000  12.010000   ; qtot 0.441799
 2167         h1     87    bbb     H1   2167 -0.03530000   1.008000   ; qtot 0.406499
 2168         h1     87    bbb     H2   2168 -0.03530000   1.008000   ; qtot 0.371199
 2169         c3     87    bbb     C2   2169 -0.28250000  12.010000   ; qtot 0.088699
 2170         h1     87    bbb     H3   2170 0.15710000   1.008000   ; qtot 0.245799
 2171         h1     87    bbb     H4   2171 0.15710000   1.008000   ; qtot 0.402899
 2172         n3     87    bbb     N1   2172 -0.74090000  14.010000   ; qtot -0.338001
 2173         c3     87    bbb     C3   2173 0.51680000  12.010000   ; qtot 0.178799
 2174         h1     87    bbb     H5   2174 -0.05230000   1.008000   ; qtot 0.126499
 2175         h1     87    bbb     H6   2175 -0.05230000   1.008000   ; qtot 0.074199
 2176         c3     87    bbb     C4   2176 0.51680000  12.010000   ; qtot 0.590999
 2177         h1     87    bbb     H7   2177 -0.05230000   1.008000   ; qtot 0.538699
 2178         h1     87    bbb     H8   2178 -0.05230000   1.008000   ; qtot 0.486399
 2179         c3     87    bbb     C5   2179 -0.60390000  12.010000   ; qtot -0.117501
 2180         hc     87    bbb     H9   2180 0.16730000   1.008000   ; qtot 0.049799
 2181         hc     87    bbb    H10   2181 0.16730000   1.008000   ; qtot 0.217099
 2182         c3     87    bbb     C6   2182 -0.60390000  12.010000   ; qtot -0.386801
 2183         hc     87    bbb    H11   2183 0.16730000   1.008000   ; qtot -0.219501
 2184         hc     87    bbb    H12   2184 0.16730000   1.008000   ; qtot -0.052201
 2185          c     87    bbb     C7   2185 0.72110000  12.010000   ; qtot 0.668899
 2186          c     87    bbb     C8   2186 0.72110000  12.010000   ; qtot 1.389999
 2187          o     87    bbb     O1   2187 -0.61950000  16.000000   ; qtot 0.770499
 2188          o     87    bbb     O2   2188 -0.61950000  16.000000   ; qtot 0.150999
 2189          n     87    bbb     N4   2189 -0.46580000  14.010000   ; qtot -0.314801
 2190         hn     87    bbb    H21   2190 0.31480000   1.008000   ; qtot -0.000001
; residue   88 bbb rtp bbb q -0.0
 2191         c3     88    bbb     C1   2191 0.44180000  12.010000   ; qtot 0.441799
 2192         h1     88    bbb     H1   2192 -0.03530000   1.008000   ; qtot 0.406499
 2193         h1     88    bbb     H2   2193 -0.03530000   1.008000   ; qtot 0.371199
 2194         c3     88    bbb     C2   2194 -0.28250000  12.010000   ; qtot 0.088699
 2195         h1     88    bbb     H3   2195 0.15710000   1.008000   ; qtot 0.245799
 2196         h1     88    bbb     H4   2196 0.15710000   1.008000   ; qtot 0.402899
 2197         n3     88    bbb     N1   2197 -0.74090000  14.010000   ; qtot -0.338001
 2198         c3     88    bbb     C3   2198 0.51680000  12.010000   ; qtot 0.178799
 2199         h1     88    bbb     H5   2199 -0.05230000   1.008000   ; qtot 0.126499
 2200         h1     88    bbb     H6   2200 -0.05230000   1.008000   ; qtot 0.074199
 2201         c3     88    bbb     C4   2201 0.51680000  12.010000   ; qtot 0.590999
 2202         h1     88    bbb     H7   2202 -0.05230000   1.008000   ; qtot 0.538699
 2203         h1     88    bbb     H8   2203 -0.05230000   1.008000   ; qtot 0.486399
 2204         c3     88    bbb     C5   2204 -0.60390000  12.010000   ; qtot -0.117501
 2205         hc     88    bbb     H9   2205 0.16730000   1.008000   ; qtot 0.049799
 2206         hc     88    bbb    H10   2206 0.16730000   1.008000   ; qtot 0.217099
 2207         c3     88    bbb     C6   2207 -0.60390000  12.010000   ; qtot -0.386801
 2208         hc     88    bbb    H11   2208 0.16730000   1.008000   ; qtot -0.219501
 2209         hc     88    bbb    H12   2209 0.16730000   1.008000   ; qtot -0.052201
 2210          c     88    bbb     C7   2210 0.72110000  12.010000   ; qtot 0.668899
 2211          c     88    bbb     C8   2211 0.72110000  12.010000   ; qtot 1.389999
 2212          o     88    bbb     O1   2212 -0.61950000  16.000000   ; qtot 0.770499
 2213          o     88    bbb     O2   2213 -0.61950000  16.000000   ; qtot 0.150999
 2214          n     88    bbb     N4   2214 -0.46580000  14.010000   ; qtot -0.314801
 2215         hn     88    bbb    H21   2215 0.31480000   1.008000   ; qtot -0.000001
; residue   89 bbb rtp bbb q -0.0
 2216         c3     89    bbb     C1   2216 0.44180000  12.010000   ; qtot 0.441799
 2217         h1     89    bbb     H1   2217 -0.03530000   1.008000   ; qtot 0.406499
 2218         h1     89    bbb     H2   2218 -0.03530000   1.008000   ; qtot 0.371199
 2219         c3     89    bbb     C2   2219 -0.28250000  12.010000   ; qtot 0.088699
 2220         h1     89    bbb     H3   2220 0.15710000   1.008000   ; qtot 0.245799
 2221         h1     89    bbb     H4   2221 0.15710000   1.008000   ; qtot 0.402899
 2222         n3     89    bbb     N1   2222 -0.74090000  14.010000   ; qtot -0.338001
 2223         c3     89    bbb     C3   2223 0.51680000  12.010000   ; qtot 0.178799
 2224         h1     89    bbb     H5   2224 -0.05230000   1.008000   ; qtot 0.126499
 2225         h1     89    bbb     H6   2225 -0.05230000   1.008000   ; qtot 0.074199
 2226         c3     89    bbb     C4   2226 0.51680000  12.010000   ; qtot 0.590999
 2227         h1     89    bbb     H7   2227 -0.05230000   1.008000   ; qtot 0.538699
 2228         h1     89    bbb     H8   2228 -0.05230000   1.008000   ; qtot 0.486399
 2229         c3     89    bbb     C5   2229 -0.60390000  12.010000   ; qtot -0.117501
 2230         hc     89    bbb     H9   2230 0.16730000   1.008000   ; qtot 0.049799
 2231         hc     89    bbb    H10   2231 0.16730000   1.008000   ; qtot 0.217099
 2232         c3     89    bbb     C6   2232 -0.60390000  12.010000   ; qtot -0.386801
 2233         hc     89    bbb    H11   2233 0.16730000   1.008000   ; qtot -0.219501
 2234         hc     89    bbb    H12   2234 0.16730000   1.008000   ; qtot -0.052201
 2235          c     89    bbb     C7   2235 0.72110000  12.010000   ; qtot 0.668899
 2236          c     89    bbb     C8   2236 0.72110000  12.010000   ; qtot 1.389999
 2237          o     89    bbb     O1   2237 -0.61950000  16.000000   ; qtot 0.770499
 2238          o     89    bbb     O2   2238 -0.61950000  16.000000   ; qtot 0.150999
 2239          n     89    bbb     N4   2239 -0.46580000  14.010000   ; qtot -0.314801
 2240         hn     89    bbb    H21   2240 0.31480000   1.008000   ; qtot -0.000001
; residue   90 bbb rtp bbb q -0.0
 2241         c3     90    bbb     C1   2241 0.44180000  12.010000   ; qtot 0.441799
 2242         h1     90    bbb     H1   2242 -0.03530000   1.008000   ; qtot 0.406499
 2243         h1     90    bbb     H2   2243 -0.03530000   1.008000   ; qtot 0.371199
 2244         c3     90    bbb     C2   2244 -0.28250000  12.010000   ; qtot 0.088699
 2245         h1     90    bbb     H3   2245 0.15710000   1.008000   ; qtot 0.245799
 2246         h1     90    bbb     H4   2246 0.15710000   1.008000   ; qtot 0.402899
 2247         n3     90    bbb     N1   2247 -0.74090000  14.010000   ; qtot -0.338001
 2248         c3     90    bbb     C3   2248 0.51680000  12.010000   ; qtot 0.178799
 2249         h1     90    bbb     H5   2249 -0.05230000   1.008000   ; qtot 0.126499
 2250         h1     90    bbb     H6   2250 -0.05230000   1.008000   ; qtot 0.074199
 2251         c3     90    bbb     C4   2251 0.51680000  12.010000   ; qtot 0.590999
 2252         h1     90    bbb     H7   2252 -0.05230000   1.008000   ; qtot 0.538699
 2253         h1     90    bbb     H8   2253 -0.05230000   1.008000   ; qtot 0.486399
 2254         c3     90    bbb     C5   2254 -0.60390000  12.010000   ; qtot -0.117501
 2255         hc     90    bbb     H9   2255 0.16730000   1.008000   ; qtot 0.049799
 2256         hc     90    bbb    H10   2256 0.16730000   1.008000   ; qtot 0.217099
 2257         c3     90    bbb     C6   2257 -0.60390000  12.010000   ; qtot -0.386801
 2258         hc     90    bbb    H11   2258 0.16730000   1.008000   ; qtot -0.219501
 2259         hc     90    bbb    H12   2259 0.16730000   1.008000   ; qtot -0.052201
 2260          c     90    bbb     C7   2260 0.72110000  12.010000   ; qtot 0.668899
 2261          c     90    bbb     C8   2261 0.72110000  12.010000   ; qtot 1.389999
 2262          o     90    bbb     O1   2262 -0.61950000  16.000000   ; qtot 0.770499
 2263          o     90    bbb     O2   2263 -0.61950000  16.000000   ; qtot 0.150999
 2264          n     90    bbb     N4   2264 -0.46580000  14.010000   ; qtot -0.314801
 2265         hn     90    bbb    H21   2265 0.31480000   1.008000   ; qtot -0.000001
; residue   91 bbb rtp bbb q -0.0
 2266         c3     91    bbb     C1   2266 0.44180000  12.010000   ; qtot 0.441799
 2267         h1     91    bbb     H1   2267 -0.03530000   1.008000   ; qtot 0.406499
 2268         h1     91    bbb     H2   2268 -0.03530000   1.008000   ; qtot 0.371199
 2269         c3     91    bbb     C2   2269 -0.28250000  12.010000   ; qtot 0.088699
 2270         h1     91    bbb     H3   2270 0.15710000   1.008000   ; qtot 0.245799
 2271         h1     91    bbb     H4   2271 0.15710000   1.008000   ; qtot 0.402899
 2272         n3     91    bbb     N1   2272 -0.74090000  14.010000   ; qtot -0.338001
 2273         c3     91    bbb     C3   2273 0.51680000  12.010000   ; qtot 0.178799
 2274         h1     91    bbb     H5   2274 -0.05230000   1.008000   ; qtot 0.126499
 2275         h1     91    bbb     H6   2275 -0.05230000   1.008000   ; qtot 0.074199
 2276         c3     91    bbb     C4   2276 0.51680000  12.010000   ; qtot 0.590999
 2277         h1     91    bbb     H7   2277 -0.05230000   1.008000   ; qtot 0.538699
 2278         h1     91    bbb     H8   2278 -0.05230000   1.008000   ; qtot 0.486399
 2279         c3     91    bbb     C5   2279 -0.60390000  12.010000   ; qtot -0.117501
 2280         hc     91    bbb     H9   2280 0.16730000   1.008000   ; qtot 0.049799
 2281         hc     91    bbb    H10   2281 0.16730000   1.008000   ; qtot 0.217099
 2282         c3     91    bbb     C6   2282 -0.60390000  12.010000   ; qtot -0.386801
 2283         hc     91    bbb    H11   2283 0.16730000   1.008000   ; qtot -0.219501
 2284         hc     91    bbb    H12   2284 0.16730000   1.008000   ; qtot -0.052201
 2285          c     91    bbb     C7   2285 0.72110000  12.010000   ; qtot 0.668899
 2286          c     91    bbb     C8   2286 0.72110000  12.010000   ; qtot 1.389999
 2287          o     91    bbb     O1   2287 -0.61950000  16.000000   ; qtot 0.770499
 2288          o     91    bbb     O2   2288 -0.61950000  16.000000   ; qtot 0.150999
 2289          n     91    bbb     N4   2289 -0.46580000  14.010000   ; qtot -0.314801
 2290         hn     91    bbb    H21   2290 0.31480000   1.008000   ; qtot -0.000001
; residue   92 bbb rtp bbb q -0.0
 2291         c3     92    bbb     C1   2291 0.44180000  12.010000   ; qtot 0.441799
 2292         h1     92    bbb     H1   2292 -0.03530000   1.008000   ; qtot 0.406499
 2293         h1     92    bbb     H2   2293 -0.03530000   1.008000   ; qtot 0.371199
 2294         c3     92    bbb     C2   2294 -0.28250000  12.010000   ; qtot 0.088699
 2295         h1     92    bbb     H3   2295 0.15710000   1.008000   ; qtot 0.245799
 2296         h1     92    bbb     H4   2296 0.15710000   1.008000   ; qtot 0.402899
 2297         n3     92    bbb     N1   2297 -0.74090000  14.010000   ; qtot -0.338001
 2298         c3     92    bbb     C3   2298 0.51680000  12.010000   ; qtot 0.178799
 2299         h1     92    bbb     H5   2299 -0.05230000   1.008000   ; qtot 0.126499
 2300         h1     92    bbb     H6   2300 -0.05230000   1.008000   ; qtot 0.074199
 2301         c3     92    bbb     C4   2301 0.51680000  12.010000   ; qtot 0.590999
 2302         h1     92    bbb     H7   2302 -0.05230000   1.008000   ; qtot 0.538699
 2303         h1     92    bbb     H8   2303 -0.05230000   1.008000   ; qtot 0.486399
 2304         c3     92    bbb     C5   2304 -0.60390000  12.010000   ; qtot -0.117501
 2305         hc     92    bbb     H9   2305 0.16730000   1.008000   ; qtot 0.049799
 2306         hc     92    bbb    H10   2306 0.16730000   1.008000   ; qtot 0.217099
 2307         c3     92    bbb     C6   2307 -0.60390000  12.010000   ; qtot -0.386801
 2308         hc     92    bbb    H11   2308 0.16730000   1.008000   ; qtot -0.219501
 2309         hc     92    bbb    H12   2309 0.16730000   1.008000   ; qtot -0.052201
 2310          c     92    bbb     C7   2310 0.72110000  12.010000   ; qtot 0.668899
 2311          c     92    bbb     C8   2311 0.72110000  12.010000   ; qtot 1.389999
 2312          o     92    bbb     O1   2312 -0.61950000  16.000000   ; qtot 0.770499
 2313          o     92    bbb     O2   2313 -0.61950000  16.000000   ; qtot 0.150999
 2314          n     92    bbb     N4   2314 -0.46580000  14.010000   ; qtot -0.314801
 2315         hn     92    bbb    H21   2315 0.31480000   1.008000   ; qtot -0.000001
; residue   93 bbb rtp bbb q -0.0
 2316         c3     93    bbb     C1   2316 0.44180000  12.010000   ; qtot 0.441799
 2317         h1     93    bbb     H1   2317 -0.03530000   1.008000   ; qtot 0.406499
 2318         h1     93    bbb     H2   2318 -0.03530000   1.008000   ; qtot 0.371199
 2319         c3     93    bbb     C2   2319 -0.28250000  12.010000   ; qtot 0.088699
 2320         h1     93    bbb     H3   2320 0.15710000   1.008000   ; qtot 0.245799
 2321         h1     93    bbb     H4   2321 0.15710000   1.008000   ; qtot 0.402899
 2322         n3     93    bbb     N1   2322 -0.74090000  14.010000   ; qtot -0.338001
 2323         c3     93    bbb     C3   2323 0.51680000  12.010000   ; qtot 0.178799
 2324         h1     93    bbb     H5   2324 -0.05230000   1.008000   ; qtot 0.126499
 2325         h1     93    bbb     H6   2325 -0.05230000   1.008000   ; qtot 0.074199
 2326         c3     93    bbb     C4   2326 0.51680000  12.010000   ; qtot 0.590999
 2327         h1     93    bbb     H7   2327 -0.05230000   1.008000   ; qtot 0.538699
 2328         h1     93    bbb     H8   2328 -0.05230000   1.008000   ; qtot 0.486399
 2329         c3     93    bbb     C5   2329 -0.60390000  12.010000   ; qtot -0.117501
 2330         hc     93    bbb     H9   2330 0.16730000   1.008000   ; qtot 0.049799
 2331         hc     93    bbb    H10   2331 0.16730000   1.008000   ; qtot 0.217099
 2332         c3     93    bbb     C6   2332 -0.60390000  12.010000   ; qtot -0.386801
 2333         hc     93    bbb    H11   2333 0.16730000   1.008000   ; qtot -0.219501
 2334         hc     93    bbb    H12   2334 0.16730000   1.008000   ; qtot -0.052201
 2335          c     93    bbb     C7   2335 0.72110000  12.010000   ; qtot 0.668899
 2336          c     93    bbb     C8   2336 0.72110000  12.010000   ; qtot 1.389999
 2337          o     93    bbb     O1   2337 -0.61950000  16.000000   ; qtot 0.770499
 2338          o     93    bbb     O2   2338 -0.61950000  16.000000   ; qtot 0.150999
 2339          n     93    bbb     N4   2339 -0.46580000  14.010000   ; qtot -0.314801
 2340         hn     93    bbb    H21   2340 0.31480000   1.008000   ; qtot -0.000001
; residue   94 bbb rtp bbb q -0.0
 2341         c3     94    bbb     C1   2341 0.44180000  12.010000   ; qtot 0.441799
 2342         h1     94    bbb     H1   2342 -0.03530000   1.008000   ; qtot 0.406499
 2343         h1     94    bbb     H2   2343 -0.03530000   1.008000   ; qtot 0.371199
 2344         c3     94    bbb     C2   2344 -0.28250000  12.010000   ; qtot 0.088699
 2345         h1     94    bbb     H3   2345 0.15710000   1.008000   ; qtot 0.245799
 2346         h1     94    bbb     H4   2346 0.15710000   1.008000   ; qtot 0.402899
 2347         n3     94    bbb     N1   2347 -0.74090000  14.010000   ; qtot -0.338001
 2348         c3     94    bbb     C3   2348 0.51680000  12.010000   ; qtot 0.178799
 2349         h1     94    bbb     H5   2349 -0.05230000   1.008000   ; qtot 0.126499
 2350         h1     94    bbb     H6   2350 -0.05230000   1.008000   ; qtot 0.074199
 2351         c3     94    bbb     C4   2351 0.51680000  12.010000   ; qtot 0.590999
 2352         h1     94    bbb     H7   2352 -0.05230000   1.008000   ; qtot 0.538699
 2353         h1     94    bbb     H8   2353 -0.05230000   1.008000   ; qtot 0.486399
 2354         c3     94    bbb     C5   2354 -0.60390000  12.010000   ; qtot -0.117501
 2355         hc     94    bbb     H9   2355 0.16730000   1.008000   ; qtot 0.049799
 2356         hc     94    bbb    H10   2356 0.16730000   1.008000   ; qtot 0.217099
 2357         c3     94    bbb     C6   2357 -0.60390000  12.010000   ; qtot -0.386801
 2358         hc     94    bbb    H11   2358 0.16730000   1.008000   ; qtot -0.219501
 2359         hc     94    bbb    H12   2359 0.16730000   1.008000   ; qtot -0.052201
 2360          c     94    bbb     C7   2360 0.72110000  12.010000   ; qtot 0.668899
 2361          c     94    bbb     C8   2361 0.72110000  12.010000   ; qtot 1.389999
 2362          o     94    bbb     O1   2362 -0.61950000  16.000000   ; qtot 0.770499
 2363          o     94    bbb     O2   2363 -0.61950000  16.000000   ; qtot 0.150999
 2364          n     94    bbb     N4   2364 -0.46580000  14.010000   ; qtot -0.314801
 2365         hn     94    bbb    H21   2365 0.31480000   1.008000   ; qtot -0.000001
; residue   95 bbb rtp bbb q -0.0
 2366         c3     95    bbb     C1   2366 0.44180000  12.010000   ; qtot 0.441799
 2367         h1     95    bbb     H1   2367 -0.03530000   1.008000   ; qtot 0.406499
 2368         h1     95    bbb     H2   2368 -0.03530000   1.008000   ; qtot 0.371199
 2369         c3     95    bbb     C2   2369 -0.28250000  12.010000   ; qtot 0.088699
 2370         h1     95    bbb     H3   2370 0.15710000   1.008000   ; qtot 0.245799
 2371         h1     95    bbb     H4   2371 0.15710000   1.008000   ; qtot 0.402899
 2372         n3     95    bbb     N1   2372 -0.74090000  14.010000   ; qtot -0.338001
 2373         c3     95    bbb     C3   2373 0.51680000  12.010000   ; qtot 0.178799
 2374         h1     95    bbb     H5   2374 -0.05230000   1.008000   ; qtot 0.126499
 2375         h1     95    bbb     H6   2375 -0.05230000   1.008000   ; qtot 0.074199
 2376         c3     95    bbb     C4   2376 0.51680000  12.010000   ; qtot 0.590999
 2377         h1     95    bbb     H7   2377 -0.05230000   1.008000   ; qtot 0.538699
 2378         h1     95    bbb     H8   2378 -0.05230000   1.008000   ; qtot 0.486399
 2379         c3     95    bbb     C5   2379 -0.60390000  12.010000   ; qtot -0.117501
 2380         hc     95    bbb     H9   2380 0.16730000   1.008000   ; qtot 0.049799
 2381         hc     95    bbb    H10   2381 0.16730000   1.008000   ; qtot 0.217099
 2382         c3     95    bbb     C6   2382 -0.60390000  12.010000   ; qtot -0.386801
 2383         hc     95    bbb    H11   2383 0.16730000   1.008000   ; qtot -0.219501
 2384         hc     95    bbb    H12   2384 0.16730000   1.008000   ; qtot -0.052201
 2385          c     95    bbb     C7   2385 0.72110000  12.010000   ; qtot 0.668899
 2386          c     95    bbb     C8   2386 0.72110000  12.010000   ; qtot 1.389999
 2387          o     95    bbb     O1   2387 -0.61950000  16.000000   ; qtot 0.770499
 2388          o     95    bbb     O2   2388 -0.61950000  16.000000   ; qtot 0.150999
 2389          n     95    bbb     N4   2389 -0.46580000  14.010000   ; qtot -0.314801
 2390         hn     95    bbb    H21   2390 0.31480000   1.008000   ; qtot -0.000001
; residue   96 bbb rtp bbb q -0.0
 2391         c3     96    bbb     C1   2391 0.44180000  12.010000   ; qtot 0.441799
 2392         h1     96    bbb     H1   2392 -0.03530000   1.008000   ; qtot 0.406499
 2393         h1     96    bbb     H2   2393 -0.03530000   1.008000   ; qtot 0.371199
 2394         c3     96    bbb     C2   2394 -0.28250000  12.010000   ; qtot 0.088699
 2395         h1     96    bbb     H3   2395 0.15710000   1.008000   ; qtot 0.245799
 2396         h1     96    bbb     H4   2396 0.15710000   1.008000   ; qtot 0.402899
 2397         n3     96    bbb     N1   2397 -0.74090000  14.010000   ; qtot -0.338001
 2398         c3     96    bbb     C3   2398 0.51680000  12.010000   ; qtot 0.178799
 2399         h1     96    bbb     H5   2399 -0.05230000   1.008000   ; qtot 0.126499
 2400         h1     96    bbb     H6   2400 -0.05230000   1.008000   ; qtot 0.074199
 2401         c3     96    bbb     C4   2401 0.51680000  12.010000   ; qtot 0.590999
 2402         h1     96    bbb     H7   2402 -0.05230000   1.008000   ; qtot 0.538699
 2403         h1     96    bbb     H8   2403 -0.05230000   1.008000   ; qtot 0.486399
 2404         c3     96    bbb     C5   2404 -0.60390000  12.010000   ; qtot -0.117501
 2405         hc     96    bbb     H9   2405 0.16730000   1.008000   ; qtot 0.049799
 2406         hc     96    bbb    H10   2406 0.16730000   1.008000   ; qtot 0.217099
 2407         c3     96    bbb     C6   2407 -0.60390000  12.010000   ; qtot -0.386801
 2408         hc     96    bbb    H11   2408 0.16730000   1.008000   ; qtot -0.219501
 2409         hc     96    bbb    H12   2409 0.16730000   1.008000   ; qtot -0.052201
 2410          c     96    bbb     C7   2410 0.72110000  12.010000   ; qtot 0.668899
 2411          c     96    bbb     C8   2411 0.72110000  12.010000   ; qtot 1.389999
 2412          o     96    bbb     O1   2412 -0.61950000  16.000000   ; qtot 0.770499
 2413          o     96    bbb     O2   2413 -0.61950000  16.000000   ; qtot 0.150999
 2414          n     96    bbb     N4   2414 -0.46580000  14.010000   ; qtot -0.314801
 2415         hn     96    bbb    H21   2415 0.31480000   1.008000   ; qtot -0.000001
; residue   97 bbb rtp bbb q -0.0
 2416         c3     97    bbb     C1   2416 0.44180000  12.010000   ; qtot 0.441799
 2417         h1     97    bbb     H1   2417 -0.03530000   1.008000   ; qtot 0.406499
 2418         h1     97    bbb     H2   2418 -0.03530000   1.008000   ; qtot 0.371199
 2419         c3     97    bbb     C2   2419 -0.28250000  12.010000   ; qtot 0.088699
 2420         h1     97    bbb     H3   2420 0.15710000   1.008000   ; qtot 0.245799
 2421         h1     97    bbb     H4   2421 0.15710000   1.008000   ; qtot 0.402899
 2422         n3     97    bbb     N1   2422 -0.74090000  14.010000   ; qtot -0.338001
 2423         c3     97    bbb     C3   2423 0.51680000  12.010000   ; qtot 0.178799
 2424         h1     97    bbb     H5   2424 -0.05230000   1.008000   ; qtot 0.126499
 2425         h1     97    bbb     H6   2425 -0.05230000   1.008000   ; qtot 0.074199
 2426         c3     97    bbb     C4   2426 0.51680000  12.010000   ; qtot 0.590999
 2427         h1     97    bbb     H7   2427 -0.05230000   1.008000   ; qtot 0.538699
 2428         h1     97    bbb     H8   2428 -0.05230000   1.008000   ; qtot 0.486399
 2429         c3     97    bbb     C5   2429 -0.60390000  12.010000   ; qtot -0.117501
 2430         hc     97    bbb     H9   2430 0.16730000   1.008000   ; qtot 0.049799
 2431         hc     97    bbb    H10   2431 0.16730000   1.008000   ; qtot 0.217099
 2432         c3     97    bbb     C6   2432 -0.60390000  12.010000   ; qtot -0.386801
 2433         hc     97    bbb    H11   2433 0.16730000   1.008000   ; qtot -0.219501
 2434         hc     97    bbb    H12   2434 0.16730000   1.008000   ; qtot -0.052201
 2435          c     97    bbb     C7   2435 0.72110000  12.010000   ; qtot 0.668899
 2436          c     97    bbb     C8   2436 0.72110000  12.010000   ; qtot 1.389999
 2437          o     97    bbb     O1   2437 -0.61950000  16.000000   ; qtot 0.770499
 2438          o     97    bbb     O2   2438 -0.61950000  16.000000   ; qtot 0.150999
 2439          n     97    bbb     N4   2439 -0.46580000  14.010000   ; qtot -0.314801
 2440         hn     97    bbb    H21   2440 0.31480000   1.008000   ; qtot -0.000001
; residue   98 bbb rtp bbb q -0.0
 2441         c3     98    bbb     C1   2441 0.44180000  12.010000   ; qtot 0.441799
 2442         h1     98    bbb     H1   2442 -0.03530000   1.008000   ; qtot 0.406499
 2443         h1     98    bbb     H2   2443 -0.03530000   1.008000   ; qtot 0.371199
 2444         c3     98    bbb     C2   2444 -0.28250000  12.010000   ; qtot 0.088699
 2445         h1     98    bbb     H3   2445 0.15710000   1.008000   ; qtot 0.245799
 2446         h1     98    bbb     H4   2446 0.15710000   1.008000   ; qtot 0.402899
 2447         n3     98    bbb     N1   2447 -0.74090000  14.010000   ; qtot -0.338001
 2448         c3     98    bbb     C3   2448 0.51680000  12.010000   ; qtot 0.178799
 2449         h1     98    bbb     H5   2449 -0.05230000   1.008000   ; qtot 0.126499
 2450         h1     98    bbb     H6   2450 -0.05230000   1.008000   ; qtot 0.074199
 2451         c3     98    bbb     C4   2451 0.51680000  12.010000   ; qtot 0.590999
 2452         h1     98    bbb     H7   2452 -0.05230000   1.008000   ; qtot 0.538699
 2453         h1     98    bbb     H8   2453 -0.05230000   1.008000   ; qtot 0.486399
 2454         c3     98    bbb     C5   2454 -0.60390000  12.010000   ; qtot -0.117501
 2455         hc     98    bbb     H9   2455 0.16730000   1.008000   ; qtot 0.049799
 2456         hc     98    bbb    H10   2456 0.16730000   1.008000   ; qtot 0.217099
 2457         c3     98    bbb     C6   2457 -0.60390000  12.010000   ; qtot -0.386801
 2458         hc     98    bbb    H11   2458 0.16730000   1.008000   ; qtot -0.219501
 2459         hc     98    bbb    H12   2459 0.16730000   1.008000   ; qtot -0.052201
 2460          c     98    bbb     C7   2460 0.72110000  12.010000   ; qtot 0.668899
 2461          c     98    bbb     C8   2461 0.72110000  12.010000   ; qtot 1.389999
 2462          o     98    bbb     O1   2462 -0.61950000  16.000000   ; qtot 0.770499
 2463          o     98    bbb     O2   2463 -0.61950000  16.000000   ; qtot 0.150999
 2464          n     98    bbb     N4   2464 -0.46580000  14.010000   ; qtot -0.314801
 2465         hn     98    bbb    H21   2465 0.31480000   1.008000   ; qtot -0.000001
; residue   99 bbb rtp bbb q -0.0
 2466         c3     99    bbb     C1   2466 0.44180000  12.010000   ; qtot 0.441799
 2467         h1     99    bbb     H1   2467 -0.03530000   1.008000   ; qtot 0.406499
 2468         h1     99    bbb     H2   2468 -0.03530000   1.008000   ; qtot 0.371199
 2469         c3     99    bbb     C2   2469 -0.28250000  12.010000   ; qtot 0.088699
 2470         h1     99    bbb     H3   2470 0.15710000   1.008000   ; qtot 0.245799
 2471         h1     99    bbb     H4   2471 0.15710000   1.008000   ; qtot 0.402899
 2472         n3     99    bbb     N1   2472 -0.74090000  14.010000   ; qtot -0.338001
 2473         c3     99    bbb     C3   2473 0.51680000  12.010000   ; qtot 0.178799
 2474         h1     99    bbb     H5   2474 -0.05230000   1.008000   ; qtot 0.126499
 2475         h1     99    bbb     H6   2475 -0.05230000   1.008000   ; qtot 0.074199
 2476         c3     99    bbb     C4   2476 0.51680000  12.010000   ; qtot 0.590999
 2477         h1     99    bbb     H7   2477 -0.05230000   1.008000   ; qtot 0.538699
 2478         h1     99    bbb     H8   2478 -0.05230000   1.008000   ; qtot 0.486399
 2479         c3     99    bbb     C5   2479 -0.60390000  12.010000   ; qtot -0.117501
 2480         hc     99    bbb     H9   2480 0.16730000   1.008000   ; qtot 0.049799
 2481         hc     99    bbb    H10   2481 0.16730000   1.008000   ; qtot 0.217099
 2482         c3     99    bbb     C6   2482 -0.60390000  12.010000   ; qtot -0.386801
 2483         hc     99    bbb    H11   2483 0.16730000   1.008000   ; qtot -0.219501
 2484         hc     99    bbb    H12   2484 0.16730000   1.008000   ; qtot -0.052201
 2485          c     99    bbb     C7   2485 0.72110000  12.010000   ; qtot 0.668899
 2486          c     99    bbb     C8   2486 0.72110000  12.010000   ; qtot 1.389999
 2487          o     99    bbb     O1   2487 -0.61950000  16.000000   ; qtot 0.770499
 2488          o     99    bbb     O2   2488 -0.61950000  16.000000   ; qtot 0.150999
 2489          n     99    bbb     N4   2489 -0.46580000  14.010000   ; qtot -0.314801
 2490         hn     99    bbb    H21   2490 0.31480000   1.008000   ; qtot -0.000001
; residue  100 bbb rtp bbb q -0.0
 2491         c3    100    bbb     C1   2491 0.44180000  12.010000   ; qtot 0.441799
 2492         h1    100    bbb     H1   2492 -0.03530000   1.008000   ; qtot 0.406499
 2493         h1    100    bbb     H2   2493 -0.03530000   1.008000   ; qtot 0.371199
 2494         c3    100    bbb     C2   2494 -0.28250000  12.010000   ; qtot 0.088699
 2495         h1    100    bbb     H3   2495 0.15710000   1.008000   ; qtot 0.245799
 2496         h1    100    bbb     H4   2496 0.15710000   1.008000   ; qtot 0.402899
 2497         n3    100    bbb     N1   2497 -0.74090000  14.010000   ; qtot -0.338001
 2498         c3    100    bbb     C3   2498 0.51680000  12.010000   ; qtot 0.178799
 2499         h1    100    bbb     H5   2499 -0.05230000   1.008000   ; qtot 0.126499
 2500         h1    100    bbb     H6   2500 -0.05230000   1.008000   ; qtot 0.074199
 2501         c3    100    bbb     C4   2501 0.51680000  12.010000   ; qtot 0.590999
 2502         h1    100    bbb     H7   2502 -0.05230000   1.008000   ; qtot 0.538699
 2503         h1    100    bbb     H8   2503 -0.05230000   1.008000   ; qtot 0.486399
 2504         c3    100    bbb     C5   2504 -0.60390000  12.010000   ; qtot -0.117501
 2505         hc    100    bbb     H9   2505 0.16730000   1.008000   ; qtot 0.049799
 2506         hc    100    bbb    H10   2506 0.16730000   1.008000   ; qtot 0.217099
 2507         c3    100    bbb     C6   2507 -0.60390000  12.010000   ; qtot -0.386801
 2508         hc    100    bbb    H11   2508 0.16730000   1.008000   ; qtot -0.219501
 2509         hc    100    bbb    H12   2509 0.16730000   1.008000   ; qtot -0.052201
 2510          c    100    bbb     C7   2510 0.72110000  12.010000   ; qtot 0.668899
 2511          c    100    bbb     C8   2511 0.72110000  12.010000   ; qtot 1.389999
 2512          o    100    bbb     O1   2512 -0.61950000  16.000000   ; qtot 0.770499
 2513          o    100    bbb     O2   2513 -0.61950000  16.000000   ; qtot 0.150999
 2514          n    100    bbb     N4   2514 -0.46580000  14.010000   ; qtot -0.314801
 2515         hn    100    bbb    H21   2515 0.31480000   1.008000   ; qtot -0.000001
; residue  101 bbb rtp bbb q -0.0
 2516         c3    101    bbb     C1   2516 0.44180000  12.010000   ; qtot 0.441799
 2517         h1    101    bbb     H1   2517 -0.03530000   1.008000   ; qtot 0.406499
 2518         h1    101    bbb     H2   2518 -0.03530000   1.008000   ; qtot 0.371199
 2519         c3    101    bbb     C2   2519 -0.28250000  12.010000   ; qtot 0.088699
 2520         h1    101    bbb     H3   2520 0.15710000   1.008000   ; qtot 0.245799
 2521         h1    101    bbb     H4   2521 0.15710000   1.008000   ; qtot 0.402899
 2522         n3    101    bbb     N1   2522 -0.74090000  14.010000   ; qtot -0.338001
 2523         c3    101    bbb     C3   2523 0.51680000  12.010000   ; qtot 0.178799
 2524         h1    101    bbb     H5   2524 -0.05230000   1.008000   ; qtot 0.126499
 2525         h1    101    bbb     H6   2525 -0.05230000   1.008000   ; qtot 0.074199
 2526         c3    101    bbb     C4   2526 0.51680000  12.010000   ; qtot 0.590999
 2527         h1    101    bbb     H7   2527 -0.05230000   1.008000   ; qtot 0.538699
 2528         h1    101    bbb     H8   2528 -0.05230000   1.008000   ; qtot 0.486399
 2529         c3    101    bbb     C5   2529 -0.60390000  12.010000   ; qtot -0.117501
 2530         hc    101    bbb     H9   2530 0.16730000   1.008000   ; qtot 0.049799
 2531         hc    101    bbb    H10   2531 0.16730000   1.008000   ; qtot 0.217099
 2532         c3    101    bbb     C6   2532 -0.60390000  12.010000   ; qtot -0.386801
 2533         hc    101    bbb    H11   2533 0.16730000   1.008000   ; qtot -0.219501
 2534         hc    101    bbb    H12   2534 0.16730000   1.008000   ; qtot -0.052201
 2535          c    101    bbb     C7   2535 0.72110000  12.010000   ; qtot 0.668899
 2536          c    101    bbb     C8   2536 0.72110000  12.010000   ; qtot 1.389999
 2537          o    101    bbb     O1   2537 -0.61950000  16.000000   ; qtot 0.770499
 2538          o    101    bbb     O2   2538 -0.61950000  16.000000   ; qtot 0.150999
 2539          n    101    bbb     N4   2539 -0.46580000  14.010000   ; qtot -0.314801
 2540         hn    101    bbb    H21   2540 0.31480000   1.008000   ; qtot -0.000001
; residue  102 bbb rtp bbb q -0.0
 2541         c3    102    bbb     C1   2541 0.44180000  12.010000   ; qtot 0.441799
 2542         h1    102    bbb     H1   2542 -0.03530000   1.008000   ; qtot 0.406499
 2543         h1    102    bbb     H2   2543 -0.03530000   1.008000   ; qtot 0.371199
 2544         c3    102    bbb     C2   2544 -0.28250000  12.010000   ; qtot 0.088699
 2545         h1    102    bbb     H3   2545 0.15710000   1.008000   ; qtot 0.245799
 2546         h1    102    bbb     H4   2546 0.15710000   1.008000   ; qtot 0.402899
 2547         n3    102    bbb     N1   2547 -0.74090000  14.010000   ; qtot -0.338001
 2548         c3    102    bbb     C3   2548 0.51680000  12.010000   ; qtot 0.178799
 2549         h1    102    bbb     H5   2549 -0.05230000   1.008000   ; qtot 0.126499
 2550         h1    102    bbb     H6   2550 -0.05230000   1.008000   ; qtot 0.074199
 2551         c3    102    bbb     C4   2551 0.51680000  12.010000   ; qtot 0.590999
 2552         h1    102    bbb     H7   2552 -0.05230000   1.008000   ; qtot 0.538699
 2553         h1    102    bbb     H8   2553 -0.05230000   1.008000   ; qtot 0.486399
 2554         c3    102    bbb     C5   2554 -0.60390000  12.010000   ; qtot -0.117501
 2555         hc    102    bbb     H9   2555 0.16730000   1.008000   ; qtot 0.049799
 2556         hc    102    bbb    H10   2556 0.16730000   1.008000   ; qtot 0.217099
 2557         c3    102    bbb     C6   2557 -0.60390000  12.010000   ; qtot -0.386801
 2558         hc    102    bbb    H11   2558 0.16730000   1.008000   ; qtot -0.219501
 2559         hc    102    bbb    H12   2559 0.16730000   1.008000   ; qtot -0.052201
 2560          c    102    bbb     C7   2560 0.72110000  12.010000   ; qtot 0.668899
 2561          c    102    bbb     C8   2561 0.72110000  12.010000   ; qtot 1.389999
 2562          o    102    bbb     O1   2562 -0.61950000  16.000000   ; qtot 0.770499
 2563          o    102    bbb     O2   2563 -0.61950000  16.000000   ; qtot 0.150999
 2564          n    102    bbb     N4   2564 -0.46580000  14.010000   ; qtot -0.314801
 2565         hn    102    bbb    H21   2565 0.31480000   1.008000   ; qtot -0.000001
; residue  103 bbb rtp bbb q -0.0
 2566         c3    103    bbb     C1   2566 0.44180000  12.010000   ; qtot 0.441799
 2567         h1    103    bbb     H1   2567 -0.03530000   1.008000   ; qtot 0.406499
 2568         h1    103    bbb     H2   2568 -0.03530000   1.008000   ; qtot 0.371199
 2569         c3    103    bbb     C2   2569 -0.28250000  12.010000   ; qtot 0.088699
 2570         h1    103    bbb     H3   2570 0.15710000   1.008000   ; qtot 0.245799
 2571         h1    103    bbb     H4   2571 0.15710000   1.008000   ; qtot 0.402899
 2572         n3    103    bbb     N1   2572 -0.74090000  14.010000   ; qtot -0.338001
 2573         c3    103    bbb     C3   2573 0.51680000  12.010000   ; qtot 0.178799
 2574         h1    103    bbb     H5   2574 -0.05230000   1.008000   ; qtot 0.126499
 2575         h1    103    bbb     H6   2575 -0.05230000   1.008000   ; qtot 0.074199
 2576         c3    103    bbb     C4   2576 0.51680000  12.010000   ; qtot 0.590999
 2577         h1    103    bbb     H7   2577 -0.05230000   1.008000   ; qtot 0.538699
 2578         h1    103    bbb     H8   2578 -0.05230000   1.008000   ; qtot 0.486399
 2579         c3    103    bbb     C5   2579 -0.60390000  12.010000   ; qtot -0.117501
 2580         hc    103    bbb     H9   2580 0.16730000   1.008000   ; qtot 0.049799
 2581         hc    103    bbb    H10   2581 0.16730000   1.008000   ; qtot 0.217099
 2582         c3    103    bbb     C6   2582 -0.60390000  12.010000   ; qtot -0.386801
 2583         hc    103    bbb    H11   2583 0.16730000   1.008000   ; qtot -0.219501
 2584         hc    103    bbb    H12   2584 0.16730000   1.008000   ; qtot -0.052201
 2585          c    103    bbb     C7   2585 0.72110000  12.010000   ; qtot 0.668899
 2586          c    103    bbb     C8   2586 0.72110000  12.010000   ; qtot 1.389999
 2587          o    103    bbb     O1   2587 -0.61950000  16.000000   ; qtot 0.770499
 2588          o    103    bbb     O2   2588 -0.61950000  16.000000   ; qtot 0.150999
 2589          n    103    bbb     N4   2589 -0.46580000  14.010000   ; qtot -0.314801
 2590         hn    103    bbb    H21   2590 0.31480000   1.008000   ; qtot -0.000001
; residue  104 bbb rtp bbb q -0.0
 2591         c3    104    bbb     C1   2591 0.44180000  12.010000   ; qtot 0.441799
 2592         h1    104    bbb     H1   2592 -0.03530000   1.008000   ; qtot 0.406499
 2593         h1    104    bbb     H2   2593 -0.03530000   1.008000   ; qtot 0.371199
 2594         c3    104    bbb     C2   2594 -0.28250000  12.010000   ; qtot 0.088699
 2595         h1    104    bbb     H3   2595 0.15710000   1.008000   ; qtot 0.245799
 2596         h1    104    bbb     H4   2596 0.15710000   1.008000   ; qtot 0.402899
 2597         n3    104    bbb     N1   2597 -0.74090000  14.010000   ; qtot -0.338001
 2598         c3    104    bbb     C3   2598 0.51680000  12.010000   ; qtot 0.178799
 2599         h1    104    bbb     H5   2599 -0.05230000   1.008000   ; qtot 0.126499
 2600         h1    104    bbb     H6   2600 -0.05230000   1.008000   ; qtot 0.074199
 2601         c3    104    bbb     C4   2601 0.51680000  12.010000   ; qtot 0.590999
 2602         h1    104    bbb     H7   2602 -0.05230000   1.008000   ; qtot 0.538699
 2603         h1    104    bbb     H8   2603 -0.05230000   1.008000   ; qtot 0.486399
 2604         c3    104    bbb     C5   2604 -0.60390000  12.010000   ; qtot -0.117501
 2605         hc    104    bbb     H9   2605 0.16730000   1.008000   ; qtot 0.049799
 2606         hc    104    bbb    H10   2606 0.16730000   1.008000   ; qtot 0.217099
 2607         c3    104    bbb     C6   2607 -0.60390000  12.010000   ; qtot -0.386801
 2608         hc    104    bbb    H11   2608 0.16730000   1.008000   ; qtot -0.219501
 2609         hc    104    bbb    H12   2609 0.16730000   1.008000   ; qtot -0.052201
 2610          c    104    bbb     C7   2610 0.72110000  12.010000   ; qtot 0.668899
 2611          c    104    bbb     C8   2611 0.72110000  12.010000   ; qtot 1.389999
 2612          o    104    bbb     O1   2612 -0.61950000  16.000000   ; qtot 0.770499
 2613          o    104    bbb     O2   2613 -0.61950000  16.000000   ; qtot 0.150999
 2614          n    104    bbb     N4   2614 -0.46580000  14.010000   ; qtot -0.314801
 2615         hn    104    bbb    H21   2615 0.31480000   1.008000   ; qtot -0.000001
; residue  105 bbb rtp bbb q -0.0
 2616         c3    105    bbb     C1   2616 0.44180000  12.010000   ; qtot 0.441799
 2617         h1    105    bbb     H1   2617 -0.03530000   1.008000   ; qtot 0.406499
 2618         h1    105    bbb     H2   2618 -0.03530000   1.008000   ; qtot 0.371199
 2619         c3    105    bbb     C2   2619 -0.28250000  12.010000   ; qtot 0.088699
 2620         h1    105    bbb     H3   2620 0.15710000   1.008000   ; qtot 0.245799
 2621         h1    105    bbb     H4   2621 0.15710000   1.008000   ; qtot 0.402899
 2622         n3    105    bbb     N1   2622 -0.74090000  14.010000   ; qtot -0.338001
 2623         c3    105    bbb     C3   2623 0.51680000  12.010000   ; qtot 0.178799
 2624         h1    105    bbb     H5   2624 -0.05230000   1.008000   ; qtot 0.126499
 2625         h1    105    bbb     H6   2625 -0.05230000   1.008000   ; qtot 0.074199
 2626         c3    105    bbb     C4   2626 0.51680000  12.010000   ; qtot 0.590999
 2627         h1    105    bbb     H7   2627 -0.05230000   1.008000   ; qtot 0.538699
 2628         h1    105    bbb     H8   2628 -0.05230000   1.008000   ; qtot 0.486399
 2629         c3    105    bbb     C5   2629 -0.60390000  12.010000   ; qtot -0.117501
 2630         hc    105    bbb     H9   2630 0.16730000   1.008000   ; qtot 0.049799
 2631         hc    105    bbb    H10   2631 0.16730000   1.008000   ; qtot 0.217099
 2632         c3    105    bbb     C6   2632 -0.60390000  12.010000   ; qtot -0.386801
 2633         hc    105    bbb    H11   2633 0.16730000   1.008000   ; qtot -0.219501
 2634         hc    105    bbb    H12   2634 0.16730000   1.008000   ; qtot -0.052201
 2635          c    105    bbb     C7   2635 0.72110000  12.010000   ; qtot 0.668899
 2636          c    105    bbb     C8   2636 0.72110000  12.010000   ; qtot 1.389999
 2637          o    105    bbb     O1   2637 -0.61950000  16.000000   ; qtot 0.770499
 2638          o    105    bbb     O2   2638 -0.61950000  16.000000   ; qtot 0.150999
 2639          n    105    bbb     N4   2639 -0.46580000  14.010000   ; qtot -0.314801
 2640         hn    105    bbb    H21   2640 0.31480000   1.008000   ; qtot -0.000001
; residue  106 bbb rtp bbb q -0.0
 2641         c3    106    bbb     C1   2641 0.44180000  12.010000   ; qtot 0.441799
 2642         h1    106    bbb     H1   2642 -0.03530000   1.008000   ; qtot 0.406499
 2643         h1    106    bbb     H2   2643 -0.03530000   1.008000   ; qtot 0.371199
 2644         c3    106    bbb     C2   2644 -0.28250000  12.010000   ; qtot 0.088699
 2645         h1    106    bbb     H3   2645 0.15710000   1.008000   ; qtot 0.245799
 2646         h1    106    bbb     H4   2646 0.15710000   1.008000   ; qtot 0.402899
 2647         n3    106    bbb     N1   2647 -0.74090000  14.010000   ; qtot -0.338001
 2648         c3    106    bbb     C3   2648 0.51680000  12.010000   ; qtot 0.178799
 2649         h1    106    bbb     H5   2649 -0.05230000   1.008000   ; qtot 0.126499
 2650         h1    106    bbb     H6   2650 -0.05230000   1.008000   ; qtot 0.074199
 2651         c3    106    bbb     C4   2651 0.51680000  12.010000   ; qtot 0.590999
 2652         h1    106    bbb     H7   2652 -0.05230000   1.008000   ; qtot 0.538699
 2653         h1    106    bbb     H8   2653 -0.05230000   1.008000   ; qtot 0.486399
 2654         c3    106    bbb     C5   2654 -0.60390000  12.010000   ; qtot -0.117501
 2655         hc    106    bbb     H9   2655 0.16730000   1.008000   ; qtot 0.049799
 2656         hc    106    bbb    H10   2656 0.16730000   1.008000   ; qtot 0.217099
 2657         c3    106    bbb     C6   2657 -0.60390000  12.010000   ; qtot -0.386801
 2658         hc    106    bbb    H11   2658 0.16730000   1.008000   ; qtot -0.219501
 2659         hc    106    bbb    H12   2659 0.16730000   1.008000   ; qtot -0.052201
 2660          c    106    bbb     C7   2660 0.72110000  12.010000   ; qtot 0.668899
 2661          c    106    bbb     C8   2661 0.72110000  12.010000   ; qtot 1.389999
 2662          o    106    bbb     O1   2662 -0.61950000  16.000000   ; qtot 0.770499
 2663          o    106    bbb     O2   2663 -0.61950000  16.000000   ; qtot 0.150999
 2664          n    106    bbb     N4   2664 -0.46580000  14.010000   ; qtot -0.314801
 2665         hn    106    bbb    H21   2665 0.31480000   1.008000   ; qtot -0.000001
; residue  107 bbb rtp bbb q -0.0
 2666         c3    107    bbb     C1   2666 0.44180000  12.010000   ; qtot 0.441799
 2667         h1    107    bbb     H1   2667 -0.03530000   1.008000   ; qtot 0.406499
 2668         h1    107    bbb     H2   2668 -0.03530000   1.008000   ; qtot 0.371199
 2669         c3    107    bbb     C2   2669 -0.28250000  12.010000   ; qtot 0.088699
 2670         h1    107    bbb     H3   2670 0.15710000   1.008000   ; qtot 0.245799
 2671         h1    107    bbb     H4   2671 0.15710000   1.008000   ; qtot 0.402899
 2672         n3    107    bbb     N1   2672 -0.74090000  14.010000   ; qtot -0.338001
 2673         c3    107    bbb     C3   2673 0.51680000  12.010000   ; qtot 0.178799
 2674         h1    107    bbb     H5   2674 -0.05230000   1.008000   ; qtot 0.126499
 2675         h1    107    bbb     H6   2675 -0.05230000   1.008000   ; qtot 0.074199
 2676         c3    107    bbb     C4   2676 0.51680000  12.010000   ; qtot 0.590999
 2677         h1    107    bbb     H7   2677 -0.05230000   1.008000   ; qtot 0.538699
 2678         h1    107    bbb     H8   2678 -0.05230000   1.008000   ; qtot 0.486399
 2679         c3    107    bbb     C5   2679 -0.60390000  12.010000   ; qtot -0.117501
 2680         hc    107    bbb     H9   2680 0.16730000   1.008000   ; qtot 0.049799
 2681         hc    107    bbb    H10   2681 0.16730000   1.008000   ; qtot 0.217099
 2682         c3    107    bbb     C6   2682 -0.60390000  12.010000   ; qtot -0.386801
 2683         hc    107    bbb    H11   2683 0.16730000   1.008000   ; qtot -0.219501
 2684         hc    107    bbb    H12   2684 0.16730000   1.008000   ; qtot -0.052201
 2685          c    107    bbb     C7   2685 0.72110000  12.010000   ; qtot 0.668899
 2686          c    107    bbb     C8   2686 0.72110000  12.010000   ; qtot 1.389999
 2687          o    107    bbb     O1   2687 -0.61950000  16.000000   ; qtot 0.770499
 2688          o    107    bbb     O2   2688 -0.61950000  16.000000   ; qtot 0.150999
 2689          n    107    bbb     N4   2689 -0.46580000  14.010000   ; qtot -0.314801
 2690         hn    107    bbb    H21   2690 0.31480000   1.008000   ; qtot -0.000001
; residue  108 bbb rtp bbb q -0.0
 2691         c3    108    bbb     C1   2691 0.44180000  12.010000   ; qtot 0.441799
 2692         h1    108    bbb     H1   2692 -0.03530000   1.008000   ; qtot 0.406499
 2693         h1    108    bbb     H2   2693 -0.03530000   1.008000   ; qtot 0.371199
 2694         c3    108    bbb     C2   2694 -0.28250000  12.010000   ; qtot 0.088699
 2695         h1    108    bbb     H3   2695 0.15710000   1.008000   ; qtot 0.245799
 2696         h1    108    bbb     H4   2696 0.15710000   1.008000   ; qtot 0.402899
 2697         n3    108    bbb     N1   2697 -0.74090000  14.010000   ; qtot -0.338001
 2698         c3    108    bbb     C3   2698 0.51680000  12.010000   ; qtot 0.178799
 2699         h1    108    bbb     H5   2699 -0.05230000   1.008000   ; qtot 0.126499
 2700         h1    108    bbb     H6   2700 -0.05230000   1.008000   ; qtot 0.074199
 2701         c3    108    bbb     C4   2701 0.51680000  12.010000   ; qtot 0.590999
 2702         h1    108    bbb     H7   2702 -0.05230000   1.008000   ; qtot 0.538699
 2703         h1    108    bbb     H8   2703 -0.05230000   1.008000   ; qtot 0.486399
 2704         c3    108    bbb     C5   2704 -0.60390000  12.010000   ; qtot -0.117501
 2705         hc    108    bbb     H9   2705 0.16730000   1.008000   ; qtot 0.049799
 2706         hc    108    bbb    H10   2706 0.16730000   1.008000   ; qtot 0.217099
 2707         c3    108    bbb     C6   2707 -0.60390000  12.010000   ; qtot -0.386801
 2708         hc    108    bbb    H11   2708 0.16730000   1.008000   ; qtot -0.219501
 2709         hc    108    bbb    H12   2709 0.16730000   1.008000   ; qtot -0.052201
 2710          c    108    bbb     C7   2710 0.72110000  12.010000   ; qtot 0.668899
 2711          c    108    bbb     C8   2711 0.72110000  12.010000   ; qtot 1.389999
 2712          o    108    bbb     O1   2712 -0.61950000  16.000000   ; qtot 0.770499
 2713          o    108    bbb     O2   2713 -0.61950000  16.000000   ; qtot 0.150999
 2714          n    108    bbb     N4   2714 -0.46580000  14.010000   ; qtot -0.314801
 2715         hn    108    bbb    H21   2715 0.31480000   1.008000   ; qtot -0.000001
; residue  109 bbb rtp bbb q -0.0
 2716         c3    109    bbb     C1   2716 0.44180000  12.010000   ; qtot 0.441799
 2717         h1    109    bbb     H1   2717 -0.03530000   1.008000   ; qtot 0.406499
 2718         h1    109    bbb     H2   2718 -0.03530000   1.008000   ; qtot 0.371199
 2719         c3    109    bbb     C2   2719 -0.28250000  12.010000   ; qtot 0.088699
 2720         h1    109    bbb     H3   2720 0.15710000   1.008000   ; qtot 0.245799
 2721         h1    109    bbb     H4   2721 0.15710000   1.008000   ; qtot 0.402899
 2722         n3    109    bbb     N1   2722 -0.74090000  14.010000   ; qtot -0.338001
 2723         c3    109    bbb     C3   2723 0.51680000  12.010000   ; qtot 0.178799
 2724         h1    109    bbb     H5   2724 -0.05230000   1.008000   ; qtot 0.126499
 2725         h1    109    bbb     H6   2725 -0.05230000   1.008000   ; qtot 0.074199
 2726         c3    109    bbb     C4   2726 0.51680000  12.010000   ; qtot 0.590999
 2727         h1    109    bbb     H7   2727 -0.05230000   1.008000   ; qtot 0.538699
 2728         h1    109    bbb     H8   2728 -0.05230000   1.008000   ; qtot 0.486399
 2729         c3    109    bbb     C5   2729 -0.60390000  12.010000   ; qtot -0.117501
 2730         hc    109    bbb     H9   2730 0.16730000   1.008000   ; qtot 0.049799
 2731         hc    109    bbb    H10   2731 0.16730000   1.008000   ; qtot 0.217099
 2732         c3    109    bbb     C6   2732 -0.60390000  12.010000   ; qtot -0.386801
 2733         hc    109    bbb    H11   2733 0.16730000   1.008000   ; qtot -0.219501
 2734         hc    109    bbb    H12   2734 0.16730000   1.008000   ; qtot -0.052201
 2735          c    109    bbb     C7   2735 0.72110000  12.010000   ; qtot 0.668899
 2736          c    109    bbb     C8   2736 0.72110000  12.010000   ; qtot 1.389999
 2737          o    109    bbb     O1   2737 -0.61950000  16.000000   ; qtot 0.770499
 2738          o    109    bbb     O2   2738 -0.61950000  16.000000   ; qtot 0.150999
 2739          n    109    bbb     N4   2739 -0.46580000  14.010000   ; qtot -0.314801
 2740         hn    109    bbb    H21   2740 0.31480000   1.008000   ; qtot -0.000001
; residue  110 bbb rtp bbb q -0.0
 2741         c3    110    bbb     C1   2741 0.44180000  12.010000   ; qtot 0.441799
 2742         h1    110    bbb     H1   2742 -0.03530000   1.008000   ; qtot 0.406499
 2743         h1    110    bbb     H2   2743 -0.03530000   1.008000   ; qtot 0.371199
 2744         c3    110    bbb     C2   2744 -0.28250000  12.010000   ; qtot 0.088699
 2745         h1    110    bbb     H3   2745 0.15710000   1.008000   ; qtot 0.245799
 2746         h1    110    bbb     H4   2746 0.15710000   1.008000   ; qtot 0.402899
 2747         n3    110    bbb     N1   2747 -0.74090000  14.010000   ; qtot -0.338001
 2748         c3    110    bbb     C3   2748 0.51680000  12.010000   ; qtot 0.178799
 2749         h1    110    bbb     H5   2749 -0.05230000   1.008000   ; qtot 0.126499
 2750         h1    110    bbb     H6   2750 -0.05230000   1.008000   ; qtot 0.074199
 2751         c3    110    bbb     C4   2751 0.51680000  12.010000   ; qtot 0.590999
 2752         h1    110    bbb     H7   2752 -0.05230000   1.008000   ; qtot 0.538699
 2753         h1    110    bbb     H8   2753 -0.05230000   1.008000   ; qtot 0.486399
 2754         c3    110    bbb     C5   2754 -0.60390000  12.010000   ; qtot -0.117501
 2755         hc    110    bbb     H9   2755 0.16730000   1.008000   ; qtot 0.049799
 2756         hc    110    bbb    H10   2756 0.16730000   1.008000   ; qtot 0.217099
 2757         c3    110    bbb     C6   2757 -0.60390000  12.010000   ; qtot -0.386801
 2758         hc    110    bbb    H11   2758 0.16730000   1.008000   ; qtot -0.219501
 2759         hc    110    bbb    H12   2759 0.16730000   1.008000   ; qtot -0.052201
 2760          c    110    bbb     C7   2760 0.72110000  12.010000   ; qtot 0.668899
 2761          c    110    bbb     C8   2761 0.72110000  12.010000   ; qtot 1.389999
 2762          o    110    bbb     O1   2762 -0.61950000  16.000000   ; qtot 0.770499
 2763          o    110    bbb     O2   2763 -0.61950000  16.000000   ; qtot 0.150998
 2764          n    110    bbb     N4   2764 -0.46580000  14.010000   ; qtot -0.314802
 2765         hn    110    bbb    H21   2765 0.31480000   1.008000   ; qtot -0.000002
; residue  111 bbb rtp bbb q -0.0
 2766         c3    111    bbb     C1   2766 0.44180000  12.010000   ; qtot 0.441798
 2767         h1    111    bbb     H1   2767 -0.03530000   1.008000   ; qtot 0.406498
 2768         h1    111    bbb     H2   2768 -0.03530000   1.008000   ; qtot 0.371198
 2769         c3    111    bbb     C2   2769 -0.28250000  12.010000   ; qtot 0.088698
 2770         h1    111    bbb     H3   2770 0.15710000   1.008000   ; qtot 0.245798
 2771         h1    111    bbb     H4   2771 0.15710000   1.008000   ; qtot 0.402898
 2772         n3    111    bbb     N1   2772 -0.74090000  14.010000   ; qtot -0.338002
 2773         c3    111    bbb     C3   2773 0.51680000  12.010000   ; qtot 0.178798
 2774         h1    111    bbb     H5   2774 -0.05230000   1.008000   ; qtot 0.126498
 2775         h1    111    bbb     H6   2775 -0.05230000   1.008000   ; qtot 0.074198
 2776         c3    111    bbb     C4   2776 0.51680000  12.010000   ; qtot 0.590998
 2777         h1    111    bbb     H7   2777 -0.05230000   1.008000   ; qtot 0.538698
 2778         h1    111    bbb     H8   2778 -0.05230000   1.008000   ; qtot 0.486398
 2779         c3    111    bbb     C5   2779 -0.60390000  12.010000   ; qtot -0.117502
 2780         hc    111    bbb     H9   2780 0.16730000   1.008000   ; qtot 0.049798
 2781         hc    111    bbb    H10   2781 0.16730000   1.008000   ; qtot 0.217098
 2782         c3    111    bbb     C6   2782 -0.60390000  12.010000   ; qtot -0.386802
 2783         hc    111    bbb    H11   2783 0.16730000   1.008000   ; qtot -0.219502
 2784         hc    111    bbb    H12   2784 0.16730000   1.008000   ; qtot -0.052202
 2785          c    111    bbb     C7   2785 0.72110000  12.010000   ; qtot 0.668898
 2786          c    111    bbb     C8   2786 0.72110000  12.010000   ; qtot 1.389998
 2787          o    111    bbb     O1   2787 -0.61950000  16.000000   ; qtot 0.770498
 2788          o    111    bbb     O2   2788 -0.61950000  16.000000   ; qtot 0.150998
 2789          n    111    bbb     N4   2789 -0.46580000  14.010000   ; qtot -0.314802
 2790         hn    111    bbb    H21   2790 0.31480000   1.008000   ; qtot -0.000002
; residue  112 bbb rtp bbb q -0.0
 2791         c3    112    bbb     C1   2791 0.44180000  12.010000   ; qtot 0.441798
 2792         h1    112    bbb     H1   2792 -0.03530000   1.008000   ; qtot 0.406498
 2793         h1    112    bbb     H2   2793 -0.03530000   1.008000   ; qtot 0.371198
 2794         c3    112    bbb     C2   2794 -0.28250000  12.010000   ; qtot 0.088698
 2795         h1    112    bbb     H3   2795 0.15710000   1.008000   ; qtot 0.245798
 2796         h1    112    bbb     H4   2796 0.15710000   1.008000   ; qtot 0.402898
 2797         n3    112    bbb     N1   2797 -0.74090000  14.010000   ; qtot -0.338002
 2798         c3    112    bbb     C3   2798 0.51680000  12.010000   ; qtot 0.178798
 2799         h1    112    bbb     H5   2799 -0.05230000   1.008000   ; qtot 0.126498
 2800         h1    112    bbb     H6   2800 -0.05230000   1.008000   ; qtot 0.074198
 2801         c3    112    bbb     C4   2801 0.51680000  12.010000   ; qtot 0.590998
 2802         h1    112    bbb     H7   2802 -0.05230000   1.008000   ; qtot 0.538698
 2803         h1    112    bbb     H8   2803 -0.05230000   1.008000   ; qtot 0.486398
 2804         c3    112    bbb     C5   2804 -0.60390000  12.010000   ; qtot -0.117502
 2805         hc    112    bbb     H9   2805 0.16730000   1.008000   ; qtot 0.049798
 2806         hc    112    bbb    H10   2806 0.16730000   1.008000   ; qtot 0.217098
 2807         c3    112    bbb     C6   2807 -0.60390000  12.010000   ; qtot -0.386802
 2808         hc    112    bbb    H11   2808 0.16730000   1.008000   ; qtot -0.219502
 2809         hc    112    bbb    H12   2809 0.16730000   1.008000   ; qtot -0.052202
 2810          c    112    bbb     C7   2810 0.72110000  12.010000   ; qtot 0.668898
 2811          c    112    bbb     C8   2811 0.72110000  12.010000   ; qtot 1.389998
 2812          o    112    bbb     O1   2812 -0.61950000  16.000000   ; qtot 0.770498
 2813          o    112    bbb     O2   2813 -0.61950000  16.000000   ; qtot 0.150998
 2814          n    112    bbb     N4   2814 -0.46580000  14.010000   ; qtot -0.314802
 2815         hn    112    bbb    H21   2815 0.31480000   1.008000   ; qtot -0.000002
; residue  113 bbb rtp bbb q -0.0
 2816         c3    113    bbb     C1   2816 0.44180000  12.010000   ; qtot 0.441798
 2817         h1    113    bbb     H1   2817 -0.03530000   1.008000   ; qtot 0.406498
 2818         h1    113    bbb     H2   2818 -0.03530000   1.008000   ; qtot 0.371198
 2819         c3    113    bbb     C2   2819 -0.28250000  12.010000   ; qtot 0.088698
 2820         h1    113    bbb     H3   2820 0.15710000   1.008000   ; qtot 0.245798
 2821         h1    113    bbb     H4   2821 0.15710000   1.008000   ; qtot 0.402898
 2822         n3    113    bbb     N1   2822 -0.74090000  14.010000   ; qtot -0.338002
 2823         c3    113    bbb     C3   2823 0.51680000  12.010000   ; qtot 0.178798
 2824         h1    113    bbb     H5   2824 -0.05230000   1.008000   ; qtot 0.126498
 2825         h1    113    bbb     H6   2825 -0.05230000   1.008000   ; qtot 0.074198
 2826         c3    113    bbb     C4   2826 0.51680000  12.010000   ; qtot 0.590998
 2827         h1    113    bbb     H7   2827 -0.05230000   1.008000   ; qtot 0.538698
 2828         h1    113    bbb     H8   2828 -0.05230000   1.008000   ; qtot 0.486398
 2829         c3    113    bbb     C5   2829 -0.60390000  12.010000   ; qtot -0.117502
 2830         hc    113    bbb     H9   2830 0.16730000   1.008000   ; qtot 0.049798
 2831         hc    113    bbb    H10   2831 0.16730000   1.008000   ; qtot 0.217098
 2832         c3    113    bbb     C6   2832 -0.60390000  12.010000   ; qtot -0.386802
 2833         hc    113    bbb    H11   2833 0.16730000   1.008000   ; qtot -0.219502
 2834         hc    113    bbb    H12   2834 0.16730000   1.008000   ; qtot -0.052202
 2835          c    113    bbb     C7   2835 0.72110000  12.010000   ; qtot 0.668898
 2836          c    113    bbb     C8   2836 0.72110000  12.010000   ; qtot 1.389998
 2837          o    113    bbb     O1   2837 -0.61950000  16.000000   ; qtot 0.770498
 2838          o    113    bbb     O2   2838 -0.61950000  16.000000   ; qtot 0.150998
 2839          n    113    bbb     N4   2839 -0.46580000  14.010000   ; qtot -0.314802
 2840         hn    113    bbb    H21   2840 0.31480000   1.008000   ; qtot -0.000002
; residue  114 bbb rtp bbb q -0.0
 2841         c3    114    bbb     C1   2841 0.44180000  12.010000   ; qtot 0.441798
 2842         h1    114    bbb     H1   2842 -0.03530000   1.008000   ; qtot 0.406498
 2843         h1    114    bbb     H2   2843 -0.03530000   1.008000   ; qtot 0.371198
 2844         c3    114    bbb     C2   2844 -0.28250000  12.010000   ; qtot 0.088698
 2845         h1    114    bbb     H3   2845 0.15710000   1.008000   ; qtot 0.245798
 2846         h1    114    bbb     H4   2846 0.15710000   1.008000   ; qtot 0.402898
 2847         n3    114    bbb     N1   2847 -0.74090000  14.010000   ; qtot -0.338002
 2848         c3    114    bbb     C3   2848 0.51680000  12.010000   ; qtot 0.178798
 2849         h1    114    bbb     H5   2849 -0.05230000   1.008000   ; qtot 0.126498
 2850         h1    114    bbb     H6   2850 -0.05230000   1.008000   ; qtot 0.074198
 2851         c3    114    bbb     C4   2851 0.51680000  12.010000   ; qtot 0.590998
 2852         h1    114    bbb     H7   2852 -0.05230000   1.008000   ; qtot 0.538698
 2853         h1    114    bbb     H8   2853 -0.05230000   1.008000   ; qtot 0.486398
 2854         c3    114    bbb     C5   2854 -0.60390000  12.010000   ; qtot -0.117502
 2855         hc    114    bbb     H9   2855 0.16730000   1.008000   ; qtot 0.049798
 2856         hc    114    bbb    H10   2856 0.16730000   1.008000   ; qtot 0.217098
 2857         c3    114    bbb     C6   2857 -0.60390000  12.010000   ; qtot -0.386802
 2858         hc    114    bbb    H11   2858 0.16730000   1.008000   ; qtot -0.219502
 2859         hc    114    bbb    H12   2859 0.16730000   1.008000   ; qtot -0.052202
 2860          c    114    bbb     C7   2860 0.72110000  12.010000   ; qtot 0.668898
 2861          c    114    bbb     C8   2861 0.72110000  12.010000   ; qtot 1.389998
 2862          o    114    bbb     O1   2862 -0.61950000  16.000000   ; qtot 0.770498
 2863          o    114    bbb     O2   2863 -0.61950000  16.000000   ; qtot 0.150998
 2864          n    114    bbb     N4   2864 -0.46580000  14.010000   ; qtot -0.314802
 2865         hn    114    bbb    H21   2865 0.31480000   1.008000   ; qtot -0.000002
; residue  115 bbb rtp bbb q -0.0
 2866         c3    115    bbb     C1   2866 0.44180000  12.010000   ; qtot 0.441798
 2867         h1    115    bbb     H1   2867 -0.03530000   1.008000   ; qtot 0.406498
 2868         h1    115    bbb     H2   2868 -0.03530000   1.008000   ; qtot 0.371198
 2869         c3    115    bbb     C2   2869 -0.28250000  12.010000   ; qtot 0.088698
 2870         h1    115    bbb     H3   2870 0.15710000   1.008000   ; qtot 0.245798
 2871         h1    115    bbb     H4   2871 0.15710000   1.008000   ; qtot 0.402898
 2872         n3    115    bbb     N1   2872 -0.74090000  14.010000   ; qtot -0.338002
 2873         c3    115    bbb     C3   2873 0.51680000  12.010000   ; qtot 0.178798
 2874         h1    115    bbb     H5   2874 -0.05230000   1.008000   ; qtot 0.126498
 2875         h1    115    bbb     H6   2875 -0.05230000   1.008000   ; qtot 0.074198
 2876         c3    115    bbb     C4   2876 0.51680000  12.010000   ; qtot 0.590998
 2877         h1    115    bbb     H7   2877 -0.05230000   1.008000   ; qtot 0.538698
 2878         h1    115    bbb     H8   2878 -0.05230000   1.008000   ; qtot 0.486398
 2879         c3    115    bbb     C5   2879 -0.60390000  12.010000   ; qtot -0.117502
 2880         hc    115    bbb     H9   2880 0.16730000   1.008000   ; qtot 0.049798
 2881         hc    115    bbb    H10   2881 0.16730000   1.008000   ; qtot 0.217098
 2882         c3    115    bbb     C6   2882 -0.60390000  12.010000   ; qtot -0.386802
 2883         hc    115    bbb    H11   2883 0.16730000   1.008000   ; qtot -0.219502
 2884         hc    115    bbb    H12   2884 0.16730000   1.008000   ; qtot -0.052202
 2885          c    115    bbb     C7   2885 0.72110000  12.010000   ; qtot 0.668898
 2886          c    115    bbb     C8   2886 0.72110000  12.010000   ; qtot 1.389998
 2887          o    115    bbb     O1   2887 -0.61950000  16.000000   ; qtot 0.770498
 2888          o    115    bbb     O2   2888 -0.61950000  16.000000   ; qtot 0.150998
 2889          n    115    bbb     N4   2889 -0.46580000  14.010000   ; qtot -0.314802
 2890         hn    115    bbb    H21   2890 0.31480000   1.008000   ; qtot -0.000002
; residue  116 bbb rtp bbb q -0.0
 2891         c3    116    bbb     C1   2891 0.44180000  12.010000   ; qtot 0.441798
 2892         h1    116    bbb     H1   2892 -0.03530000   1.008000   ; qtot 0.406498
 2893         h1    116    bbb     H2   2893 -0.03530000   1.008000   ; qtot 0.371198
 2894         c3    116    bbb     C2   2894 -0.28250000  12.010000   ; qtot 0.088698
 2895         h1    116    bbb     H3   2895 0.15710000   1.008000   ; qtot 0.245798
 2896         h1    116    bbb     H4   2896 0.15710000   1.008000   ; qtot 0.402898
 2897         n3    116    bbb     N1   2897 -0.74090000  14.010000   ; qtot -0.338002
 2898         c3    116    bbb     C3   2898 0.51680000  12.010000   ; qtot 0.178798
 2899         h1    116    bbb     H5   2899 -0.05230000   1.008000   ; qtot 0.126498
 2900         h1    116    bbb     H6   2900 -0.05230000   1.008000   ; qtot 0.074198
 2901         c3    116    bbb     C4   2901 0.51680000  12.010000   ; qtot 0.590998
 2902         h1    116    bbb     H7   2902 -0.05230000   1.008000   ; qtot 0.538698
 2903         h1    116    bbb     H8   2903 -0.05230000   1.008000   ; qtot 0.486398
 2904         c3    116    bbb     C5   2904 -0.60390000  12.010000   ; qtot -0.117502
 2905         hc    116    bbb     H9   2905 0.16730000   1.008000   ; qtot 0.049798
 2906         hc    116    bbb    H10   2906 0.16730000   1.008000   ; qtot 0.217098
 2907         c3    116    bbb     C6   2907 -0.60390000  12.010000   ; qtot -0.386802
 2908         hc    116    bbb    H11   2908 0.16730000   1.008000   ; qtot -0.219502
 2909         hc    116    bbb    H12   2909 0.16730000   1.008000   ; qtot -0.052202
 2910          c    116    bbb     C7   2910 0.72110000  12.010000   ; qtot 0.668898
 2911          c    116    bbb     C8   2911 0.72110000  12.010000   ; qtot 1.389998
 2912          o    116    bbb     O1   2912 -0.61950000  16.000000   ; qtot 0.770498
 2913          o    116    bbb     O2   2913 -0.61950000  16.000000   ; qtot 0.150998
 2914          n    116    bbb     N4   2914 -0.46580000  14.010000   ; qtot -0.314802
 2915         hn    116    bbb    H21   2915 0.31480000   1.008000   ; qtot -0.000002
; residue  117 bbb rtp bbb q -0.0
 2916         c3    117    bbb     C1   2916 0.44180000  12.010000   ; qtot 0.441798
 2917         h1    117    bbb     H1   2917 -0.03530000   1.008000   ; qtot 0.406498
 2918         h1    117    bbb     H2   2918 -0.03530000   1.008000   ; qtot 0.371198
 2919         c3    117    bbb     C2   2919 -0.28250000  12.010000   ; qtot 0.088698
 2920         h1    117    bbb     H3   2920 0.15710000   1.008000   ; qtot 0.245798
 2921         h1    117    bbb     H4   2921 0.15710000   1.008000   ; qtot 0.402898
 2922         n3    117    bbb     N1   2922 -0.74090000  14.010000   ; qtot -0.338002
 2923         c3    117    bbb     C3   2923 0.51680000  12.010000   ; qtot 0.178798
 2924         h1    117    bbb     H5   2924 -0.05230000   1.008000   ; qtot 0.126498
 2925         h1    117    bbb     H6   2925 -0.05230000   1.008000   ; qtot 0.074198
 2926         c3    117    bbb     C4   2926 0.51680000  12.010000   ; qtot 0.590998
 2927         h1    117    bbb     H7   2927 -0.05230000   1.008000   ; qtot 0.538698
 2928         h1    117    bbb     H8   2928 -0.05230000   1.008000   ; qtot 0.486398
 2929         c3    117    bbb     C5   2929 -0.60390000  12.010000   ; qtot -0.117502
 2930         hc    117    bbb     H9   2930 0.16730000   1.008000   ; qtot 0.049798
 2931         hc    117    bbb    H10   2931 0.16730000   1.008000   ; qtot 0.217098
 2932         c3    117    bbb     C6   2932 -0.60390000  12.010000   ; qtot -0.386802
 2933         hc    117    bbb    H11   2933 0.16730000   1.008000   ; qtot -0.219502
 2934         hc    117    bbb    H12   2934 0.16730000   1.008000   ; qtot -0.052202
 2935          c    117    bbb     C7   2935 0.72110000  12.010000   ; qtot 0.668898
 2936          c    117    bbb     C8   2936 0.72110000  12.010000   ; qtot 1.389998
 2937          o    117    bbb     O1   2937 -0.61950000  16.000000   ; qtot 0.770498
 2938          o    117    bbb     O2   2938 -0.61950000  16.000000   ; qtot 0.150998
 2939          n    117    bbb     N4   2939 -0.46580000  14.010000   ; qtot -0.314802
 2940         hn    117    bbb    H21   2940 0.31480000   1.008000   ; qtot -0.000002
; residue  118 bbb rtp bbb q -0.0
 2941         c3    118    bbb     C1   2941 0.44180000  12.010000   ; qtot 0.441798
 2942         h1    118    bbb     H1   2942 -0.03530000   1.008000   ; qtot 0.406498
 2943         h1    118    bbb     H2   2943 -0.03530000   1.008000   ; qtot 0.371198
 2944         c3    118    bbb     C2   2944 -0.28250000  12.010000   ; qtot 0.088698
 2945         h1    118    bbb     H3   2945 0.15710000   1.008000   ; qtot 0.245798
 2946         h1    118    bbb     H4   2946 0.15710000   1.008000   ; qtot 0.402898
 2947         n3    118    bbb     N1   2947 -0.74090000  14.010000   ; qtot -0.338002
 2948         c3    118    bbb     C3   2948 0.51680000  12.010000   ; qtot 0.178798
 2949         h1    118    bbb     H5   2949 -0.05230000   1.008000   ; qtot 0.126498
 2950         h1    118    bbb     H6   2950 -0.05230000   1.008000   ; qtot 0.074198
 2951         c3    118    bbb     C4   2951 0.51680000  12.010000   ; qtot 0.590998
 2952         h1    118    bbb     H7   2952 -0.05230000   1.008000   ; qtot 0.538698
 2953         h1    118    bbb     H8   2953 -0.05230000   1.008000   ; qtot 0.486398
 2954         c3    118    bbb     C5   2954 -0.60390000  12.010000   ; qtot -0.117502
 2955         hc    118    bbb     H9   2955 0.16730000   1.008000   ; qtot 0.049798
 2956         hc    118    bbb    H10   2956 0.16730000   1.008000   ; qtot 0.217098
 2957         c3    118    bbb     C6   2957 -0.60390000  12.010000   ; qtot -0.386802
 2958         hc    118    bbb    H11   2958 0.16730000   1.008000   ; qtot -0.219502
 2959         hc    118    bbb    H12   2959 0.16730000   1.008000   ; qtot -0.052202
 2960          c    118    bbb     C7   2960 0.72110000  12.010000   ; qtot 0.668898
 2961          c    118    bbb     C8   2961 0.72110000  12.010000   ; qtot 1.389998
 2962          o    118    bbb     O1   2962 -0.61950000  16.000000   ; qtot 0.770498
 2963          o    118    bbb     O2   2963 -0.61950000  16.000000   ; qtot 0.150998
 2964          n    118    bbb     N4   2964 -0.46580000  14.010000   ; qtot -0.314802
 2965         hn    118    bbb    H21   2965 0.31480000   1.008000   ; qtot -0.000002
; residue  119 bbb rtp bbb q -0.0
 2966         c3    119    bbb     C1   2966 0.44180000  12.010000   ; qtot 0.441798
 2967         h1    119    bbb     H1   2967 -0.03530000   1.008000   ; qtot 0.406498
 2968         h1    119    bbb     H2   2968 -0.03530000   1.008000   ; qtot 0.371198
 2969         c3    119    bbb     C2   2969 -0.28250000  12.010000   ; qtot 0.088698
 2970         h1    119    bbb     H3   2970 0.15710000   1.008000   ; qtot 0.245798
 2971         h1    119    bbb     H4   2971 0.15710000   1.008000   ; qtot 0.402898
 2972         n3    119    bbb     N1   2972 -0.74090000  14.010000   ; qtot -0.338002
 2973         c3    119    bbb     C3   2973 0.51680000  12.010000   ; qtot 0.178798
 2974         h1    119    bbb     H5   2974 -0.05230000   1.008000   ; qtot 0.126498
 2975         h1    119    bbb     H6   2975 -0.05230000   1.008000   ; qtot 0.074198
 2976         c3    119    bbb     C4   2976 0.51680000  12.010000   ; qtot 0.590998
 2977         h1    119    bbb     H7   2977 -0.05230000   1.008000   ; qtot 0.538698
 2978         h1    119    bbb     H8   2978 -0.05230000   1.008000   ; qtot 0.486398
 2979         c3    119    bbb     C5   2979 -0.60390000  12.010000   ; qtot -0.117502
 2980         hc    119    bbb     H9   2980 0.16730000   1.008000   ; qtot 0.049798
 2981         hc    119    bbb    H10   2981 0.16730000   1.008000   ; qtot 0.217098
 2982         c3    119    bbb     C6   2982 -0.60390000  12.010000   ; qtot -0.386802
 2983         hc    119    bbb    H11   2983 0.16730000   1.008000   ; qtot -0.219502
 2984         hc    119    bbb    H12   2984 0.16730000   1.008000   ; qtot -0.052202
 2985          c    119    bbb     C7   2985 0.72110000  12.010000   ; qtot 0.668898
 2986          c    119    bbb     C8   2986 0.72110000  12.010000   ; qtot 1.389998
 2987          o    119    bbb     O1   2987 -0.61950000  16.000000   ; qtot 0.770498
 2988          o    119    bbb     O2   2988 -0.61950000  16.000000   ; qtot 0.150998
 2989          n    119    bbb     N4   2989 -0.46580000  14.010000   ; qtot -0.314802
 2990         hn    119    bbb    H21   2990 0.31480000   1.008000   ; qtot -0.000002
; residue  120 bbb rtp bbb q -0.0
 2991         c3    120    bbb     C1   2991 0.44180000  12.010000   ; qtot 0.441798
 2992         h1    120    bbb     H1   2992 -0.03530000   1.008000   ; qtot 0.406498
 2993         h1    120    bbb     H2   2993 -0.03530000   1.008000   ; qtot 0.371198
 2994         c3    120    bbb     C2   2994 -0.28250000  12.010000   ; qtot 0.088698
 2995         h1    120    bbb     H3   2995 0.15710000   1.008000   ; qtot 0.245798
 2996         h1    120    bbb     H4   2996 0.15710000   1.008000   ; qtot 0.402898
 2997         n3    120    bbb     N1   2997 -0.74090000  14.010000   ; qtot -0.338002
 2998         c3    120    bbb     C3   2998 0.51680000  12.010000   ; qtot 0.178798
 2999         h1    120    bbb     H5   2999 -0.05230000   1.008000   ; qtot 0.126498
 3000         h1    120    bbb     H6   3000 -0.05230000   1.008000   ; qtot 0.074198
 3001         c3    120    bbb     C4   3001 0.51680000  12.010000   ; qtot 0.590998
 3002         h1    120    bbb     H7   3002 -0.05230000   1.008000   ; qtot 0.538698
 3003         h1    120    bbb     H8   3003 -0.05230000   1.008000   ; qtot 0.486398
 3004         c3    120    bbb     C5   3004 -0.60390000  12.010000   ; qtot -0.117502
 3005         hc    120    bbb     H9   3005 0.16730000   1.008000   ; qtot 0.049798
 3006         hc    120    bbb    H10   3006 0.16730000   1.008000   ; qtot 0.217098
 3007         c3    120    bbb     C6   3007 -0.60390000  12.010000   ; qtot -0.386802
 3008         hc    120    bbb    H11   3008 0.16730000   1.008000   ; qtot -0.219502
 3009         hc    120    bbb    H12   3009 0.16730000   1.008000   ; qtot -0.052202
 3010          c    120    bbb     C7   3010 0.72110000  12.010000   ; qtot 0.668898
 3011          c    120    bbb     C8   3011 0.72110000  12.010000   ; qtot 1.389998
 3012          o    120    bbb     O1   3012 -0.61950000  16.000000   ; qtot 0.770498
 3013          o    120    bbb     O2   3013 -0.61950000  16.000000   ; qtot 0.150998
 3014          n    120    bbb     N4   3014 -0.46580000  14.010000   ; qtot -0.314802
 3015         hn    120    bbb    H21   3015 0.31480000   1.008000   ; qtot -0.000002
; residue  121 bbb rtp bbb q -0.0
 3016         c3    121    bbb     C1   3016 0.44180000  12.010000   ; qtot 0.441798
 3017         h1    121    bbb     H1   3017 -0.03530000   1.008000   ; qtot 0.406498
 3018         h1    121    bbb     H2   3018 -0.03530000   1.008000   ; qtot 0.371198
 3019         c3    121    bbb     C2   3019 -0.28250000  12.010000   ; qtot 0.088698
 3020         h1    121    bbb     H3   3020 0.15710000   1.008000   ; qtot 0.245798
 3021         h1    121    bbb     H4   3021 0.15710000   1.008000   ; qtot 0.402898
 3022         n3    121    bbb     N1   3022 -0.74090000  14.010000   ; qtot -0.338002
 3023         c3    121    bbb     C3   3023 0.51680000  12.010000   ; qtot 0.178798
 3024         h1    121    bbb     H5   3024 -0.05230000   1.008000   ; qtot 0.126498
 3025         h1    121    bbb     H6   3025 -0.05230000   1.008000   ; qtot 0.074198
 3026         c3    121    bbb     C4   3026 0.51680000  12.010000   ; qtot 0.590998
 3027         h1    121    bbb     H7   3027 -0.05230000   1.008000   ; qtot 0.538698
 3028         h1    121    bbb     H8   3028 -0.05230000   1.008000   ; qtot 0.486398
 3029         c3    121    bbb     C5   3029 -0.60390000  12.010000   ; qtot -0.117502
 3030         hc    121    bbb     H9   3030 0.16730000   1.008000   ; qtot 0.049798
 3031         hc    121    bbb    H10   3031 0.16730000   1.008000   ; qtot 0.217098
 3032         c3    121    bbb     C6   3032 -0.60390000  12.010000   ; qtot -0.386802
 3033         hc    121    bbb    H11   3033 0.16730000   1.008000   ; qtot -0.219502
 3034         hc    121    bbb    H12   3034 0.16730000   1.008000   ; qtot -0.052202
 3035          c    121    bbb     C7   3035 0.72110000  12.010000   ; qtot 0.668898
 3036          c    121    bbb     C8   3036 0.72110000  12.010000   ; qtot 1.389998
 3037          o    121    bbb     O1   3037 -0.61950000  16.000000   ; qtot 0.770498
 3038          o    121    bbb     O2   3038 -0.61950000  16.000000   ; qtot 0.150998
 3039          n    121    bbb     N4   3039 -0.46580000  14.010000   ; qtot -0.314802
 3040         hn    121    bbb    H21   3040 0.31480000   1.008000   ; qtot -0.000002
; residue  122 bbb rtp bbb q -0.0
 3041         c3    122    bbb     C1   3041 0.44180000  12.010000   ; qtot 0.441798
 3042         h1    122    bbb     H1   3042 -0.03530000   1.008000   ; qtot 0.406498
 3043         h1    122    bbb     H2   3043 -0.03530000   1.008000   ; qtot 0.371198
 3044         c3    122    bbb     C2   3044 -0.28250000  12.010000   ; qtot 0.088698
 3045         h1    122    bbb     H3   3045 0.15710000   1.008000   ; qtot 0.245798
 3046         h1    122    bbb     H4   3046 0.15710000   1.008000   ; qtot 0.402898
 3047         n3    122    bbb     N1   3047 -0.74090000  14.010000   ; qtot -0.338002
 3048         c3    122    bbb     C3   3048 0.51680000  12.010000   ; qtot 0.178798
 3049         h1    122    bbb     H5   3049 -0.05230000   1.008000   ; qtot 0.126498
 3050         h1    122    bbb     H6   3050 -0.05230000   1.008000   ; qtot 0.074198
 3051         c3    122    bbb     C4   3051 0.51680000  12.010000   ; qtot 0.590998
 3052         h1    122    bbb     H7   3052 -0.05230000   1.008000   ; qtot 0.538698
 3053         h1    122    bbb     H8   3053 -0.05230000   1.008000   ; qtot 0.486398
 3054         c3    122    bbb     C5   3054 -0.60390000  12.010000   ; qtot -0.117502
 3055         hc    122    bbb     H9   3055 0.16730000   1.008000   ; qtot 0.049798
 3056         hc    122    bbb    H10   3056 0.16730000   1.008000   ; qtot 0.217098
 3057         c3    122    bbb     C6   3057 -0.60390000  12.010000   ; qtot -0.386802
 3058         hc    122    bbb    H11   3058 0.16730000   1.008000   ; qtot -0.219502
 3059         hc    122    bbb    H12   3059 0.16730000   1.008000   ; qtot -0.052202
 3060          c    122    bbb     C7   3060 0.72110000  12.010000   ; qtot 0.668898
 3061          c    122    bbb     C8   3061 0.72110000  12.010000   ; qtot 1.389998
 3062          o    122    bbb     O1   3062 -0.61950000  16.000000   ; qtot 0.770498
 3063          o    122    bbb     O2   3063 -0.61950000  16.000000   ; qtot 0.150998
 3064          n    122    bbb     N4   3064 -0.46580000  14.010000   ; qtot -0.314802
 3065         hn    122    bbb    H21   3065 0.31480000   1.008000   ; qtot -0.000002
; residue  123 bbb rtp bbb q -0.0
 3066         c3    123    bbb     C1   3066 0.44180000  12.010000   ; qtot 0.441798
 3067         h1    123    bbb     H1   3067 -0.03530000   1.008000   ; qtot 0.406498
 3068         h1    123    bbb     H2   3068 -0.03530000   1.008000   ; qtot 0.371198
 3069         c3    123    bbb     C2   3069 -0.28250000  12.010000   ; qtot 0.088698
 3070         h1    123    bbb     H3   3070 0.15710000   1.008000   ; qtot 0.245798
 3071         h1    123    bbb     H4   3071 0.15710000   1.008000   ; qtot 0.402898
 3072         n3    123    bbb     N1   3072 -0.74090000  14.010000   ; qtot -0.338002
 3073         c3    123    bbb     C3   3073 0.51680000  12.010000   ; qtot 0.178798
 3074         h1    123    bbb     H5   3074 -0.05230000   1.008000   ; qtot 0.126498
 3075         h1    123    bbb     H6   3075 -0.05230000   1.008000   ; qtot 0.074198
 3076         c3    123    bbb     C4   3076 0.51680000  12.010000   ; qtot 0.590998
 3077         h1    123    bbb     H7   3077 -0.05230000   1.008000   ; qtot 0.538698
 3078         h1    123    bbb     H8   3078 -0.05230000   1.008000   ; qtot 0.486398
 3079         c3    123    bbb     C5   3079 -0.60390000  12.010000   ; qtot -0.117502
 3080         hc    123    bbb     H9   3080 0.16730000   1.008000   ; qtot 0.049798
 3081         hc    123    bbb    H10   3081 0.16730000   1.008000   ; qtot 0.217098
 3082         c3    123    bbb     C6   3082 -0.60390000  12.010000   ; qtot -0.386802
 3083         hc    123    bbb    H11   3083 0.16730000   1.008000   ; qtot -0.219502
 3084         hc    123    bbb    H12   3084 0.16730000   1.008000   ; qtot -0.052202
 3085          c    123    bbb     C7   3085 0.72110000  12.010000   ; qtot 0.668898
 3086          c    123    bbb     C8   3086 0.72110000  12.010000   ; qtot 1.389998
 3087          o    123    bbb     O1   3087 -0.61950000  16.000000   ; qtot 0.770498
 3088          o    123    bbb     O2   3088 -0.61950000  16.000000   ; qtot 0.150998
 3089          n    123    bbb     N4   3089 -0.46580000  14.010000   ; qtot -0.314802
 3090         hn    123    bbb    H21   3090 0.31480000   1.008000   ; qtot -0.000002
; residue  124 bbb rtp bbb q -0.0
 3091         c3    124    bbb     C1   3091 0.44180000  12.010000   ; qtot 0.441798
 3092         h1    124    bbb     H1   3092 -0.03530000   1.008000   ; qtot 0.406498
 3093         h1    124    bbb     H2   3093 -0.03530000   1.008000   ; qtot 0.371198
 3094         c3    124    bbb     C2   3094 -0.28250000  12.010000   ; qtot 0.088698
 3095         h1    124    bbb     H3   3095 0.15710000   1.008000   ; qtot 0.245798
 3096         h1    124    bbb     H4   3096 0.15710000   1.008000   ; qtot 0.402898
 3097         n3    124    bbb     N1   3097 -0.74090000  14.010000   ; qtot -0.338002
 3098         c3    124    bbb     C3   3098 0.51680000  12.010000   ; qtot 0.178798
 3099         h1    124    bbb     H5   3099 -0.05230000   1.008000   ; qtot 0.126498
 3100         h1    124    bbb     H6   3100 -0.05230000   1.008000   ; qtot 0.074198
 3101         c3    124    bbb     C4   3101 0.51680000  12.010000   ; qtot 0.590998
 3102         h1    124    bbb     H7   3102 -0.05230000   1.008000   ; qtot 0.538698
 3103         h1    124    bbb     H8   3103 -0.05230000   1.008000   ; qtot 0.486398
 3104         c3    124    bbb     C5   3104 -0.60390000  12.010000   ; qtot -0.117502
 3105         hc    124    bbb     H9   3105 0.16730000   1.008000   ; qtot 0.049798
 3106         hc    124    bbb    H10   3106 0.16730000   1.008000   ; qtot 0.217098
 3107         c3    124    bbb     C6   3107 -0.60390000  12.010000   ; qtot -0.386802
 3108         hc    124    bbb    H11   3108 0.16730000   1.008000   ; qtot -0.219502
 3109         hc    124    bbb    H12   3109 0.16730000   1.008000   ; qtot -0.052202
 3110          c    124    bbb     C7   3110 0.72110000  12.010000   ; qtot 0.668898
 3111          c    124    bbb     C8   3111 0.72110000  12.010000   ; qtot 1.389998
 3112          o    124    bbb     O1   3112 -0.61950000  16.000000   ; qtot 0.770498
 3113          o    124    bbb     O2   3113 -0.61950000  16.000000   ; qtot 0.150998
 3114          n    124    bbb     N4   3114 -0.46580000  14.010000   ; qtot -0.314802
 3115         hn    124    bbb    H21   3115 0.31480000   1.008000   ; qtot -0.000002
; residue  125 bbb rtp bbb q -0.0
 3116         c3    125    bbb     C1   3116 0.44180000  12.010000   ; qtot 0.441798
 3117         h1    125    bbb     H1   3117 -0.03530000   1.008000   ; qtot 0.406498
 3118         h1    125    bbb     H2   3118 -0.03530000   1.008000   ; qtot 0.371198
 3119         c3    125    bbb     C2   3119 -0.28250000  12.010000   ; qtot 0.088698
 3120         h1    125    bbb     H3   3120 0.15710000   1.008000   ; qtot 0.245798
 3121         h1    125    bbb     H4   3121 0.15710000   1.008000   ; qtot 0.402898
 3122         n3    125    bbb     N1   3122 -0.74090000  14.010000   ; qtot -0.338002
 3123         c3    125    bbb     C3   3123 0.51680000  12.010000   ; qtot 0.178798
 3124         h1    125    bbb     H5   3124 -0.05230000   1.008000   ; qtot 0.126498
 3125         h1    125    bbb     H6   3125 -0.05230000   1.008000   ; qtot 0.074198
 3126         c3    125    bbb     C4   3126 0.51680000  12.010000   ; qtot 0.590998
 3127         h1    125    bbb     H7   3127 -0.05230000   1.008000   ; qtot 0.538698
 3128         h1    125    bbb     H8   3128 -0.05230000   1.008000   ; qtot 0.486398
 3129         c3    125    bbb     C5   3129 -0.60390000  12.010000   ; qtot -0.117502
 3130         hc    125    bbb     H9   3130 0.16730000   1.008000   ; qtot 0.049798
 3131         hc    125    bbb    H10   3131 0.16730000   1.008000   ; qtot 0.217098
 3132         c3    125    bbb     C6   3132 -0.60390000  12.010000   ; qtot -0.386802
 3133         hc    125    bbb    H11   3133 0.16730000   1.008000   ; qtot -0.219502
 3134         hc    125    bbb    H12   3134 0.16730000   1.008000   ; qtot -0.052202
 3135          c    125    bbb     C7   3135 0.72110000  12.010000   ; qtot 0.668898
 3136          c    125    bbb     C8   3136 0.72110000  12.010000   ; qtot 1.389998
 3137          o    125    bbb     O1   3137 -0.61950000  16.000000   ; qtot 0.770498
 3138          o    125    bbb     O2   3138 -0.61950000  16.000000   ; qtot 0.150998
 3139          n    125    bbb     N4   3139 -0.46580000  14.010000   ; qtot -0.314802
 3140         hn    125    bbb    H21   3140 0.31480000   1.008000   ; qtot -0.000002
; residue  126 ccc rtp ccc q 0.0
 3141         c3    126    ccc     C1   3141 -0.02400000  12.010000   ; qtot -0.024002
 3142         h1    126    ccc     H1   3142 0.10170000   1.008000   ; qtot 0.077698
 3143         h1    126    ccc     H2   3143 0.10170000   1.008000   ; qtot 0.179398
 3144         c3    126    ccc     C2   3144 0.52570000  12.010000   ; qtot 0.705098
 3145         h1    126    ccc     H3   3145 -0.02490000   1.008000   ; qtot 0.680198
 3146         h1    126    ccc     H4   3146 -0.02490000   1.008000   ; qtot 0.655298
 3147         n3    126    ccc     N1   3147 -1.33770000  14.010000   ; qtot -0.682402
 3148         hn    126    ccc     H5   3148 0.47210000   1.008000   ; qtot -0.210302
 3149         hn    126    ccc     H6   3149 0.47210000   1.008000   ; qtot 0.261798
 3150          n    126    ccc     N2   3150 -0.59180000  14.010000   ; qtot -0.330002
 3151         hn    126    ccc     H7   3151 0.33000000   1.008000   ; qtot -0.000002
; residue  127 ccc rtp ccc q 0.0
 3152         c3    127    ccc     C1   3152 -0.02400000  12.010000   ; qtot -0.024002
 3153         h1    127    ccc     H1   3153 0.10170000   1.008000   ; qtot 0.077698
 3154         h1    127    ccc     H2   3154 0.10170000   1.008000   ; qtot 0.179398
 3155         c3    127    ccc     C2   3155 0.52570000  12.010000   ; qtot 0.705098
 3156         h1    127    ccc     H3   3156 -0.02490000   1.008000   ; qtot 0.680198
 3157         h1    127    ccc     H4   3157 -0.02490000   1.008000   ; qtot 0.655298
 3158         n3    127    ccc     N1   3158 -1.33770000  14.010000   ; qtot -0.682402
 3159         hn    127    ccc     H5   3159 0.47210000   1.008000   ; qtot -0.210302
 3160         hn    127    ccc     H6   3160 0.47210000   1.008000   ; qtot 0.261798
 3161          n    127    ccc     N2   3161 -0.59180000  14.010000   ; qtot -0.330002
 3162         hn    127    ccc     H7   3162 0.33000000   1.008000   ; qtot -0.000002
; residue  128 ccc rtp ccc q 0.0
 3163         c3    128    ccc     C1   3163 -0.02400000  12.010000   ; qtot -0.024002
 3164         h1    128    ccc     H1   3164 0.10170000   1.008000   ; qtot 0.077698
 3165         h1    128    ccc     H2   3165 0.10170000   1.008000   ; qtot 0.179398
 3166         c3    128    ccc     C2   3166 0.52570000  12.010000   ; qtot 0.705098
 3167         h1    128    ccc     H3   3167 -0.02490000   1.008000   ; qtot 0.680198
 3168         h1    128    ccc     H4   3168 -0.02490000   1.008000   ; qtot 0.655298
 3169         n3    128    ccc     N1   3169 -1.33770000  14.010000   ; qtot -0.682402
 3170         hn    128    ccc     H5   3170 0.47210000   1.008000   ; qtot -0.210302
 3171         hn    128    ccc     H6   3171 0.47210000   1.008000   ; qtot 0.261798
 3172          n    128    ccc     N2   3172 -0.59180000  14.010000   ; qtot -0.330002
 3173         hn    128    ccc     H7   3173 0.33000000   1.008000   ; qtot -0.000002
; residue  129 ccc rtp ccc q 0.0
 3174         c3    129    ccc     C1   3174 -0.02400000  12.010000   ; qtot -0.024002
 3175         h1    129    ccc     H1   3175 0.10170000   1.008000   ; qtot 0.077698
 3176         h1    129    ccc     H2   3176 0.10170000   1.008000   ; qtot 0.179398
 3177         c3    129    ccc     C2   3177 0.52570000  12.010000   ; qtot 0.705098
 3178         h1    129    ccc     H3   3178 -0.02490000   1.008000   ; qtot 0.680198
 3179         h1    129    ccc     H4   3179 -0.02490000   1.008000   ; qtot 0.655298
 3180         n3    129    ccc     N1   3180 -1.33770000  14.010000   ; qtot -0.682402
 3181         hn    129    ccc     H5   3181 0.47210000   1.008000   ; qtot -0.210302
 3182         hn    129    ccc     H6   3182 0.47210000   1.008000   ; qtot 0.261798
 3183          n    129    ccc     N2   3183 -0.59180000  14.010000   ; qtot -0.330002
 3184         hn    129    ccc     H7   3184 0.33000000   1.008000   ; qtot -0.000002
; residue  130 ccc rtp ccc q 0.0
 3185         c3    130    ccc     C1   3185 -0.02400000  12.010000   ; qtot -0.024002
 3186         h1    130    ccc     H1   3186 0.10170000   1.008000   ; qtot 0.077698
 3187         h1    130    ccc     H2   3187 0.10170000   1.008000   ; qtot 0.179398
 3188         c3    130    ccc     C2   3188 0.52570000  12.010000   ; qtot 0.705098
 3189         h1    130    ccc     H3   3189 -0.02490000   1.008000   ; qtot 0.680198
 3190         h1    130    ccc     H4   3190 -0.02490000   1.008000   ; qtot 0.655298
 3191         n3    130    ccc     N1   3191 -1.33770000  14.010000   ; qtot -0.682402
 3192         hn    130    ccc     H5   3192 0.47210000   1.008000   ; qtot -0.210302
 3193         hn    130    ccc     H6   3193 0.47210000   1.008000   ; qtot 0.261798
 3194          n    130    ccc     N2   3194 -0.59180000  14.010000   ; qtot -0.330002
 3195         hn    130    ccc     H7   3195 0.33000000   1.008000   ; qtot -0.000002
; residue  131 ccc rtp ccc q 0.0
 3196         c3    131    ccc     C1   3196 -0.02400000  12.010000   ; qtot -0.024002
 3197         h1    131    ccc     H1   3197 0.10170000   1.008000   ; qtot 0.077698
 3198         h1    131    ccc     H2   3198 0.10170000   1.008000   ; qtot 0.179398
 3199         c3    131    ccc     C2   3199 0.52570000  12.010000   ; qtot 0.705098
 3200         h1    131    ccc     H3   3200 -0.02490000   1.008000   ; qtot 0.680198
 3201         h1    131    ccc     H4   3201 -0.02490000   1.008000   ; qtot 0.655298
 3202         n3    131    ccc     N1   3202 -1.33770000  14.010000   ; qtot -0.682402
 3203         hn    131    ccc     H5   3203 0.47210000   1.008000   ; qtot -0.210302
 3204         hn    131    ccc     H6   3204 0.47210000   1.008000   ; qtot 0.261798
 3205          n    131    ccc     N2   3205 -0.59180000  14.010000   ; qtot -0.330002
 3206         hn    131    ccc     H7   3206 0.33000000   1.008000   ; qtot -0.000002
; residue  132 ccc rtp ccc q 0.0
 3207         c3    132    ccc     C1   3207 -0.02400000  12.010000   ; qtot -0.024002
 3208         h1    132    ccc     H1   3208 0.10170000   1.008000   ; qtot 0.077698
 3209         h1    132    ccc     H2   3209 0.10170000   1.008000   ; qtot 0.179398
 3210         c3    132    ccc     C2   3210 0.52570000  12.010000   ; qtot 0.705098
 3211         h1    132    ccc     H3   3211 -0.02490000   1.008000   ; qtot 0.680198
 3212         h1    132    ccc     H4   3212 -0.02490000   1.008000   ; qtot 0.655298
 3213         n3    132    ccc     N1   3213 -1.33770000  14.010000   ; qtot -0.682402
 3214         hn    132    ccc     H5   3214 0.47210000   1.008000   ; qtot -0.210302
 3215         hn    132    ccc     H6   3215 0.47210000   1.008000   ; qtot 0.261798
 3216          n    132    ccc     N2   3216 -0.59180000  14.010000   ; qtot -0.330002
 3217         hn    132    ccc     H7   3217 0.33000000   1.008000   ; qtot -0.000002
; residue  133 ccc rtp ccc q 0.0
 3218         c3    133    ccc     C1   3218 -0.02400000  12.010000   ; qtot -0.024002
 3219         h1    133    ccc     H1   3219 0.10170000   1.008000   ; qtot 0.077698
 3220         h1    133    ccc     H2   3220 0.10170000   1.008000   ; qtot 0.179398
 3221         c3    133    ccc     C2   3221 0.52570000  12.010000   ; qtot 0.705098
 3222         h1    133    ccc     H3   3222 -0.02490000   1.008000   ; qtot 0.680198
 3223         h1    133    ccc     H4   3223 -0.02490000   1.008000   ; qtot 0.655298
 3224         n3    133    ccc     N1   3224 -1.33770000  14.010000   ; qtot -0.682402
 3225         hn    133    ccc     H5   3225 0.47210000   1.008000   ; qtot -0.210302
 3226         hn    133    ccc     H6   3226 0.47210000   1.008000   ; qtot 0.261798
 3227          n    133    ccc     N2   3227 -0.59180000  14.010000   ; qtot -0.330002
 3228         hn    133    ccc     H7   3228 0.33000000   1.008000   ; qtot -0.000002
; residue  134 ccc rtp ccc q 0.0
 3229         c3    134    ccc     C1   3229 -0.02400000  12.010000   ; qtot -0.024002
 3230         h1    134    ccc     H1   3230 0.10170000   1.008000   ; qtot 0.077698
 3231         h1    134    ccc     H2   3231 0.10170000   1.008000   ; qtot 0.179398
 3232         c3    134    ccc     C2   3232 0.52570000  12.010000   ; qtot 0.705098
 3233         h1    134    ccc     H3   3233 -0.02490000   1.008000   ; qtot 0.680198
 3234         h1    134    ccc     H4   3234 -0.02490000   1.008000   ; qtot 0.655298
 3235         n3    134    ccc     N1   3235 -1.33770000  14.010000   ; qtot -0.682402
 3236         hn    134    ccc     H5   3236 0.47210000   1.008000   ; qtot -0.210302
 3237         hn    134    ccc     H6   3237 0.47210000   1.008000   ; qtot 0.261798
 3238          n    134    ccc     N2   3238 -0.59180000  14.010000   ; qtot -0.330002
 3239         hn    134    ccc     H7   3239 0.33000000   1.008000   ; qtot -0.000002
; residue  135 ccc rtp ccc q 0.0
 3240         c3    135    ccc     C1   3240 -0.02400000  12.010000   ; qtot -0.024002
 3241         h1    135    ccc     H1   3241 0.10170000   1.008000   ; qtot 0.077698
 3242         h1    135    ccc     H2   3242 0.10170000   1.008000   ; qtot 0.179398
 3243         c3    135    ccc     C2   3243 0.52570000  12.010000   ; qtot 0.705098
 3244         h1    135    ccc     H3   3244 -0.02490000   1.008000   ; qtot 0.680198
 3245         h1    135    ccc     H4   3245 -0.02490000   1.008000   ; qtot 0.655298
 3246         n3    135    ccc     N1   3246 -1.33770000  14.010000   ; qtot -0.682402
 3247         hn    135    ccc     H5   3247 0.47210000   1.008000   ; qtot -0.210302
 3248         hn    135    ccc     H6   3248 0.47210000   1.008000   ; qtot 0.261798
 3249          n    135    ccc     N2   3249 -0.59180000  14.010000   ; qtot -0.330002
 3250         hn    135    ccc     H7   3250 0.33000000   1.008000   ; qtot -0.000002
; residue  136 ccc rtp ccc q 0.0
 3251         c3    136    ccc     C1   3251 -0.02400000  12.010000   ; qtot -0.024002
 3252         h1    136    ccc     H1   3252 0.10170000   1.008000   ; qtot 0.077698
 3253         h1    136    ccc     H2   3253 0.10170000   1.008000   ; qtot 0.179398
 3254         c3    136    ccc     C2   3254 0.52570000  12.010000   ; qtot 0.705098
 3255         h1    136    ccc     H3   3255 -0.02490000   1.008000   ; qtot 0.680198
 3256         h1    136    ccc     H4   3256 -0.02490000   1.008000   ; qtot 0.655298
 3257         n3    136    ccc     N1   3257 -1.33770000  14.010000   ; qtot -0.682402
 3258         hn    136    ccc     H5   3258 0.47210000   1.008000   ; qtot -0.210302
 3259         hn    136    ccc     H6   3259 0.47210000   1.008000   ; qtot 0.261798
 3260          n    136    ccc     N2   3260 -0.59180000  14.010000   ; qtot -0.330002
 3261         hn    136    ccc     H7   3261 0.33000000   1.008000   ; qtot -0.000002
; residue  137 ccc rtp ccc q 0.0
 3262         c3    137    ccc     C1   3262 -0.02400000  12.010000   ; qtot -0.024002
 3263         h1    137    ccc     H1   3263 0.10170000   1.008000   ; qtot 0.077698
 3264         h1    137    ccc     H2   3264 0.10170000   1.008000   ; qtot 0.179398
 3265         c3    137    ccc     C2   3265 0.52570000  12.010000   ; qtot 0.705098
 3266         h1    137    ccc     H3   3266 -0.02490000   1.008000   ; qtot 0.680198
 3267         h1    137    ccc     H4   3267 -0.02490000   1.008000   ; qtot 0.655298
 3268         n3    137    ccc     N1   3268 -1.33770000  14.010000   ; qtot -0.682402
 3269         hn    137    ccc     H5   3269 0.47210000   1.008000   ; qtot -0.210302
 3270         hn    137    ccc     H6   3270 0.47210000   1.008000   ; qtot 0.261798
 3271          n    137    ccc     N2   3271 -0.59180000  14.010000   ; qtot -0.330002
 3272         hn    137    ccc     H7   3272 0.33000000   1.008000   ; qtot -0.000002
; residue  138 ccc rtp ccc q 0.0
 3273         c3    138    ccc     C1   3273 -0.02400000  12.010000   ; qtot -0.024002
 3274         h1    138    ccc     H1   3274 0.10170000   1.008000   ; qtot 0.077698
 3275         h1    138    ccc     H2   3275 0.10170000   1.008000   ; qtot 0.179398
 3276         c3    138    ccc     C2   3276 0.52570000  12.010000   ; qtot 0.705098
 3277         h1    138    ccc     H3   3277 -0.02490000   1.008000   ; qtot 0.680198
 3278         h1    138    ccc     H4   3278 -0.02490000   1.008000   ; qtot 0.655298
 3279         n3    138    ccc     N1   3279 -1.33770000  14.010000   ; qtot -0.682402
 3280         hn    138    ccc     H5   3280 0.47210000   1.008000   ; qtot -0.210302
 3281         hn    138    ccc     H6   3281 0.47210000   1.008000   ; qtot 0.261798
 3282          n    138    ccc     N2   3282 -0.59180000  14.010000   ; qtot -0.330002
 3283         hn    138    ccc     H7   3283 0.33000000   1.008000   ; qtot -0.000002
; residue  139 ccc rtp ccc q 0.0
 3284         c3    139    ccc     C1   3284 -0.02400000  12.010000   ; qtot -0.024002
 3285         h1    139    ccc     H1   3285 0.10170000   1.008000   ; qtot 0.077698
 3286         h1    139    ccc     H2   3286 0.10170000   1.008000   ; qtot 0.179398
 3287         c3    139    ccc     C2   3287 0.52570000  12.010000   ; qtot 0.705098
 3288         h1    139    ccc     H3   3288 -0.02490000   1.008000   ; qtot 0.680198
 3289         h1    139    ccc     H4   3289 -0.02490000   1.008000   ; qtot 0.655298
 3290         n3    139    ccc     N1   3290 -1.33770000  14.010000   ; qtot -0.682402
 3291         hn    139    ccc     H5   3291 0.47210000   1.008000   ; qtot -0.210302
 3292         hn    139    ccc     H6   3292 0.47210000   1.008000   ; qtot 0.261798
 3293          n    139    ccc     N2   3293 -0.59180000  14.010000   ; qtot -0.330002
 3294         hn    139    ccc     H7   3294 0.33000000   1.008000   ; qtot -0.000002
; residue  140 ccc rtp ccc q 0.0
 3295         c3    140    ccc     C1   3295 -0.02400000  12.010000   ; qtot -0.024002
 3296         h1    140    ccc     H1   3296 0.10170000   1.008000   ; qtot 0.077698
 3297         h1    140    ccc     H2   3297 0.10170000   1.008000   ; qtot 0.179398
 3298         c3    140    ccc     C2   3298 0.52570000  12.010000   ; qtot 0.705098
 3299         h1    140    ccc     H3   3299 -0.02490000   1.008000   ; qtot 0.680198
 3300         h1    140    ccc     H4   3300 -0.02490000   1.008000   ; qtot 0.655298
 3301         n3    140    ccc     N1   3301 -1.33770000  14.010000   ; qtot -0.682402
 3302         hn    140    ccc     H5   3302 0.47210000   1.008000   ; qtot -0.210302
 3303         hn    140    ccc     H6   3303 0.47210000   1.008000   ; qtot 0.261798
 3304          n    140    ccc     N2   3304 -0.59180000  14.010000   ; qtot -0.330002
 3305         hn    140    ccc     H7   3305 0.33000000   1.008000   ; qtot -0.000002
; residue  141 ccc rtp ccc q 0.0
 3306         c3    141    ccc     C1   3306 -0.02400000  12.010000   ; qtot -0.024002
 3307         h1    141    ccc     H1   3307 0.10170000   1.008000   ; qtot 0.077698
 3308         h1    141    ccc     H2   3308 0.10170000   1.008000   ; qtot 0.179398
 3309         c3    141    ccc     C2   3309 0.52570000  12.010000   ; qtot 0.705098
 3310         h1    141    ccc     H3   3310 -0.02490000   1.008000   ; qtot 0.680198
 3311         h1    141    ccc     H4   3311 -0.02490000   1.008000   ; qtot 0.655298
 3312         n3    141    ccc     N1   3312 -1.33770000  14.010000   ; qtot -0.682402
 3313         hn    141    ccc     H5   3313 0.47210000   1.008000   ; qtot -0.210302
 3314         hn    141    ccc     H6   3314 0.47210000   1.008000   ; qtot 0.261798
 3315          n    141    ccc     N2   3315 -0.59180000  14.010000   ; qtot -0.330002
 3316         hn    141    ccc     H7   3316 0.33000000   1.008000   ; qtot -0.000002
; residue  142 ccc rtp ccc q 0.0
 3317         c3    142    ccc     C1   3317 -0.02400000  12.010000   ; qtot -0.024002
 3318         h1    142    ccc     H1   3318 0.10170000   1.008000   ; qtot 0.077698
 3319         h1    142    ccc     H2   3319 0.10170000   1.008000   ; qtot 0.179398
 3320         c3    142    ccc     C2   3320 0.52570000  12.010000   ; qtot 0.705098
 3321         h1    142    ccc     H3   3321 -0.02490000   1.008000   ; qtot 0.680198
 3322         h1    142    ccc     H4   3322 -0.02490000   1.008000   ; qtot 0.655298
 3323         n3    142    ccc     N1   3323 -1.33770000  14.010000   ; qtot -0.682402
 3324         hn    142    ccc     H5   3324 0.47210000   1.008000   ; qtot -0.210302
 3325         hn    142    ccc     H6   3325 0.47210000   1.008000   ; qtot 0.261798
 3326          n    142    ccc     N2   3326 -0.59180000  14.010000   ; qtot -0.330002
 3327         hn    142    ccc     H7   3327 0.33000000   1.008000   ; qtot -0.000002
; residue  143 ccc rtp ccc q 0.0
 3328         c3    143    ccc     C1   3328 -0.02400000  12.010000   ; qtot -0.024002
 3329         h1    143    ccc     H1   3329 0.10170000   1.008000   ; qtot 0.077698
 3330         h1    143    ccc     H2   3330 0.10170000   1.008000   ; qtot 0.179398
 3331         c3    143    ccc     C2   3331 0.52570000  12.010000   ; qtot 0.705098
 3332         h1    143    ccc     H3   3332 -0.02490000   1.008000   ; qtot 0.680198
 3333         h1    143    ccc     H4   3333 -0.02490000   1.008000   ; qtot 0.655298
 3334         n3    143    ccc     N1   3334 -1.33770000  14.010000   ; qtot -0.682402
 3335         hn    143    ccc     H5   3335 0.47210000   1.008000   ; qtot -0.210302
 3336         hn    143    ccc     H6   3336 0.47210000   1.008000   ; qtot 0.261798
 3337          n    143    ccc     N2   3337 -0.59180000  14.010000   ; qtot -0.330002
 3338         hn    143    ccc     H7   3338 0.33000000   1.008000   ; qtot -0.000002
; residue  144 ccc rtp ccc q 0.0
 3339         c3    144    ccc     C1   3339 -0.02400000  12.010000   ; qtot -0.024002
 3340         h1    144    ccc     H1   3340 0.10170000   1.008000   ; qtot 0.077698
 3341         h1    144    ccc     H2   3341 0.10170000   1.008000   ; qtot 0.179398
 3342         c3    144    ccc     C2   3342 0.52570000  12.010000   ; qtot 0.705098
 3343         h1    144    ccc     H3   3343 -0.02490000   1.008000   ; qtot 0.680198
 3344         h1    144    ccc     H4   3344 -0.02490000   1.008000   ; qtot 0.655298
 3345         n3    144    ccc     N1   3345 -1.33770000  14.010000   ; qtot -0.682402
 3346         hn    144    ccc     H5   3346 0.47210000   1.008000   ; qtot -0.210302
 3347         hn    144    ccc     H6   3347 0.47210000   1.008000   ; qtot 0.261798
 3348          n    144    ccc     N2   3348 -0.59180000  14.010000   ; qtot -0.330002
 3349         hn    144    ccc     H7   3349 0.33000000   1.008000   ; qtot -0.000002
; residue  145 ccc rtp ccc q 0.0
 3350         c3    145    ccc     C1   3350 -0.02400000  12.010000   ; qtot -0.024002
 3351         h1    145    ccc     H1   3351 0.10170000   1.008000   ; qtot 0.077698
 3352         h1    145    ccc     H2   3352 0.10170000   1.008000   ; qtot 0.179398
 3353         c3    145    ccc     C2   3353 0.52570000  12.010000   ; qtot 0.705098
 3354         h1    145    ccc     H3   3354 -0.02490000   1.008000   ; qtot 0.680198
 3355         h1    145    ccc     H4   3355 -0.02490000   1.008000   ; qtot 0.655298
 3356         n3    145    ccc     N1   3356 -1.33770000  14.010000   ; qtot -0.682402
 3357         hn    145    ccc     H5   3357 0.47210000   1.008000   ; qtot -0.210302
 3358         hn    145    ccc     H6   3358 0.47210000   1.008000   ; qtot 0.261798
 3359          n    145    ccc     N2   3359 -0.59180000  14.010000   ; qtot -0.330002
 3360         hn    145    ccc     H7   3360 0.33000000   1.008000   ; qtot -0.000002
; residue  146 ccc rtp ccc q 0.0
 3361         c3    146    ccc     C1   3361 -0.02400000  12.010000   ; qtot -0.024002
 3362         h1    146    ccc     H1   3362 0.10170000   1.008000   ; qtot 0.077698
 3363         h1    146    ccc     H2   3363 0.10170000   1.008000   ; qtot 0.179398
 3364         c3    146    ccc     C2   3364 0.52570000  12.010000   ; qtot 0.705098
 3365         h1    146    ccc     H3   3365 -0.02490000   1.008000   ; qtot 0.680198
 3366         h1    146    ccc     H4   3366 -0.02490000   1.008000   ; qtot 0.655298
 3367         n3    146    ccc     N1   3367 -1.33770000  14.010000   ; qtot -0.682402
 3368         hn    146    ccc     H5   3368 0.47210000   1.008000   ; qtot -0.210302
 3369         hn    146    ccc     H6   3369 0.47210000   1.008000   ; qtot 0.261798
 3370          n    146    ccc     N2   3370 -0.59180000  14.010000   ; qtot -0.330002
 3371         hn    146    ccc     H7   3371 0.33000000   1.008000   ; qtot -0.000002
; residue  147 ccc rtp ccc q 0.0
 3372         c3    147    ccc     C1   3372 -0.02400000  12.010000   ; qtot -0.024002
 3373         h1    147    ccc     H1   3373 0.10170000   1.008000   ; qtot 0.077698
 3374         h1    147    ccc     H2   3374 0.10170000   1.008000   ; qtot 0.179398
 3375         c3    147    ccc     C2   3375 0.52570000  12.010000   ; qtot 0.705098
 3376         h1    147    ccc     H3   3376 -0.02490000   1.008000   ; qtot 0.680198
 3377         h1    147    ccc     H4   3377 -0.02490000   1.008000   ; qtot 0.655298
 3378         n3    147    ccc     N1   3378 -1.33770000  14.010000   ; qtot -0.682402
 3379         hn    147    ccc     H5   3379 0.47210000   1.008000   ; qtot -0.210302
 3380         hn    147    ccc     H6   3380 0.47210000   1.008000   ; qtot 0.261798
 3381          n    147    ccc     N2   3381 -0.59180000  14.010000   ; qtot -0.330002
 3382         hn    147    ccc     H7   3382 0.33000000   1.008000   ; qtot -0.000002
; residue  148 ccc rtp ccc q 0.0
 3383         c3    148    ccc     C1   3383 -0.02400000  12.010000   ; qtot -0.024002
 3384         h1    148    ccc     H1   3384 0.10170000   1.008000   ; qtot 0.077698
 3385         h1    148    ccc     H2   3385 0.10170000   1.008000   ; qtot 0.179398
 3386         c3    148    ccc     C2   3386 0.52570000  12.010000   ; qtot 0.705098
 3387         h1    148    ccc     H3   3387 -0.02490000   1.008000   ; qtot 0.680198
 3388         h1    148    ccc     H4   3388 -0.02490000   1.008000   ; qtot 0.655298
 3389         n3    148    ccc     N1   3389 -1.33770000  14.010000   ; qtot -0.682402
 3390         hn    148    ccc     H5   3390 0.47210000   1.008000   ; qtot -0.210302
 3391         hn    148    ccc     H6   3391 0.47210000   1.008000   ; qtot 0.261798
 3392          n    148    ccc     N2   3392 -0.59180000  14.010000   ; qtot -0.330002
 3393         hn    148    ccc     H7   3393 0.33000000   1.008000   ; qtot -0.000002
; residue  149 ccc rtp ccc q 0.0
 3394         c3    149    ccc     C1   3394 -0.02400000  12.010000   ; qtot -0.024002
 3395         h1    149    ccc     H1   3395 0.10170000   1.008000   ; qtot 0.077698
 3396         h1    149    ccc     H2   3396 0.10170000   1.008000   ; qtot 0.179398
 3397         c3    149    ccc     C2   3397 0.52570000  12.010000   ; qtot 0.705098
 3398         h1    149    ccc     H3   3398 -0.02490000   1.008000   ; qtot 0.680198
 3399         h1    149    ccc     H4   3399 -0.02490000   1.008000   ; qtot 0.655298
 3400         n3    149    ccc     N1   3400 -1.33770000  14.010000   ; qtot -0.682402
 3401         hn    149    ccc     H5   3401 0.47210000   1.008000   ; qtot -0.210302
 3402         hn    149    ccc     H6   3402 0.47210000   1.008000   ; qtot 0.261798
 3403          n    149    ccc     N2   3403 -0.59180000  14.010000   ; qtot -0.330002
 3404         hn    149    ccc     H7   3404 0.33000000   1.008000   ; qtot -0.000002
; residue  150 ccc rtp ccc q 0.0
 3405         c3    150    ccc     C1   3405 -0.02400000  12.010000   ; qtot -0.024002
 3406         h1    150    ccc     H1   3406 0.10170000   1.008000   ; qtot 0.077698
 3407         h1    150    ccc     H2   3407 0.10170000   1.008000   ; qtot 0.179398
 3408         c3    150    ccc     C2   3408 0.52570000  12.010000   ; qtot 0.705098
 3409         h1    150    ccc     H3   3409 -0.02490000   1.008000   ; qtot 0.680198
 3410         h1    150    ccc     H4   3410 -0.02490000   1.008000   ; qtot 0.655298
 3411         n3    150    ccc     N1   3411 -1.33770000  14.010000   ; qtot -0.682402
 3412         hn    150    ccc     H5   3412 0.47210000   1.008000   ; qtot -0.210302
 3413         hn    150    ccc     H6   3413 0.47210000   1.008000   ; qtot 0.261798
 3414          n    150    ccc     N2   3414 -0.59180000  14.010000   ; qtot -0.330002
 3415         hn    150    ccc     H7   3415 0.33000000   1.008000   ; qtot -0.000002
; residue  151 ccc rtp ccc q 0.0
 3416         c3    151    ccc     C1   3416 -0.02400000  12.010000   ; qtot -0.024002
 3417         h1    151    ccc     H1   3417 0.10170000   1.008000   ; qtot 0.077698
 3418         h1    151    ccc     H2   3418 0.10170000   1.008000   ; qtot 0.179398
 3419         c3    151    ccc     C2   3419 0.52570000  12.010000   ; qtot 0.705098
 3420         h1    151    ccc     H3   3420 -0.02490000   1.008000   ; qtot 0.680198
 3421         h1    151    ccc     H4   3421 -0.02490000   1.008000   ; qtot 0.655298
 3422         n3    151    ccc     N1   3422 -1.33770000  14.010000   ; qtot -0.682402
 3423         hn    151    ccc     H5   3423 0.47210000   1.008000   ; qtot -0.210302
 3424         hn    151    ccc     H6   3424 0.47210000   1.008000   ; qtot 0.261798
 3425          n    151    ccc     N2   3425 -0.59180000  14.010000   ; qtot -0.330002
 3426         hn    151    ccc     H7   3426 0.33000000   1.008000   ; qtot -0.000002
; residue  152 ccc rtp ccc q 0.0
 3427         c3    152    ccc     C1   3427 -0.02400000  12.010000   ; qtot -0.024002
 3428         h1    152    ccc     H1   3428 0.10170000   1.008000   ; qtot 0.077698
 3429         h1    152    ccc     H2   3429 0.10170000   1.008000   ; qtot 0.179398
 3430         c3    152    ccc     C2   3430 0.52570000  12.010000   ; qtot 0.705098
 3431         h1    152    ccc     H3   3431 -0.02490000   1.008000   ; qtot 0.680198
 3432         h1    152    ccc     H4   3432 -0.02490000   1.008000   ; qtot 0.655298
 3433         n3    152    ccc     N1   3433 -1.33770000  14.010000   ; qtot -0.682402
 3434         hn    152    ccc     H5   3434 0.47210000   1.008000   ; qtot -0.210302
 3435         hn    152    ccc     H6   3435 0.47210000   1.008000   ; qtot 0.261798
 3436          n    152    ccc     N2   3436 -0.59180000  14.010000   ; qtot -0.330002
 3437         hn    152    ccc     H7   3437 0.33000000   1.008000   ; qtot -0.000002
; residue  153 ccc rtp ccc q 0.0
 3438         c3    153    ccc     C1   3438 -0.02400000  12.010000   ; qtot -0.024002
 3439         h1    153    ccc     H1   3439 0.10170000   1.008000   ; qtot 0.077698
 3440         h1    153    ccc     H2   3440 0.10170000   1.008000   ; qtot 0.179398
 3441         c3    153    ccc     C2   3441 0.52570000  12.010000   ; qtot 0.705098
 3442         h1    153    ccc     H3   3442 -0.02490000   1.008000   ; qtot 0.680198
 3443         h1    153    ccc     H4   3443 -0.02490000   1.008000   ; qtot 0.655298
 3444         n3    153    ccc     N1   3444 -1.33770000  14.010000   ; qtot -0.682402
 3445         hn    153    ccc     H5   3445 0.47210000   1.008000   ; qtot -0.210302
 3446         hn    153    ccc     H6   3446 0.47210000   1.008000   ; qtot 0.261798
 3447          n    153    ccc     N2   3447 -0.59180000  14.010000   ; qtot -0.330002
 3448         hn    153    ccc     H7   3448 0.33000000   1.008000   ; qtot -0.000002
; residue  154 ccc rtp ccc q 0.0
 3449         c3    154    ccc     C1   3449 -0.02400000  12.010000   ; qtot -0.024002
 3450         h1    154    ccc     H1   3450 0.10170000   1.008000   ; qtot 0.077698
 3451         h1    154    ccc     H2   3451 0.10170000   1.008000   ; qtot 0.179398
 3452         c3    154    ccc     C2   3452 0.52570000  12.010000   ; qtot 0.705098
 3453         h1    154    ccc     H3   3453 -0.02490000   1.008000   ; qtot 0.680198
 3454         h1    154    ccc     H4   3454 -0.02490000   1.008000   ; qtot 0.655298
 3455         n3    154    ccc     N1   3455 -1.33770000  14.010000   ; qtot -0.682402
 3456         hn    154    ccc     H5   3456 0.47210000   1.008000   ; qtot -0.210302
 3457         hn    154    ccc     H6   3457 0.47210000   1.008000   ; qtot 0.261798
 3458          n    154    ccc     N2   3458 -0.59180000  14.010000   ; qtot -0.330002
 3459         hn    154    ccc     H7   3459 0.33000000   1.008000   ; qtot -0.000002
; residue  155 ccc rtp ccc q 0.0
 3460         c3    155    ccc     C1   3460 -0.02400000  12.010000   ; qtot -0.024002
 3461         h1    155    ccc     H1   3461 0.10170000   1.008000   ; qtot 0.077698
 3462         h1    155    ccc     H2   3462 0.10170000   1.008000   ; qtot 0.179398
 3463         c3    155    ccc     C2   3463 0.52570000  12.010000   ; qtot 0.705098
 3464         h1    155    ccc     H3   3464 -0.02490000   1.008000   ; qtot 0.680198
 3465         h1    155    ccc     H4   3465 -0.02490000   1.008000   ; qtot 0.655298
 3466         n3    155    ccc     N1   3466 -1.33770000  14.010000   ; qtot -0.682402
 3467         hn    155    ccc     H5   3467 0.47210000   1.008000   ; qtot -0.210302
 3468         hn    155    ccc     H6   3468 0.47210000   1.008000   ; qtot 0.261798
 3469          n    155    ccc     N2   3469 -0.59180000  14.010000   ; qtot -0.330002
 3470         hn    155    ccc     H7   3470 0.33000000   1.008000   ; qtot -0.000002
; residue  156 ccc rtp ccc q 0.0
 3471         c3    156    ccc     C1   3471 -0.02400000  12.010000   ; qtot -0.024002
 3472         h1    156    ccc     H1   3472 0.10170000   1.008000   ; qtot 0.077698
 3473         h1    156    ccc     H2   3473 0.10170000   1.008000   ; qtot 0.179398
 3474         c3    156    ccc     C2   3474 0.52570000  12.010000   ; qtot 0.705098
 3475         h1    156    ccc     H3   3475 -0.02490000   1.008000   ; qtot 0.680198
 3476         h1    156    ccc     H4   3476 -0.02490000   1.008000   ; qtot 0.655298
 3477         n3    156    ccc     N1   3477 -1.33770000  14.010000   ; qtot -0.682402
 3478         hn    156    ccc     H5   3478 0.47210000   1.008000   ; qtot -0.210302
 3479         hn    156    ccc     H6   3479 0.47210000   1.008000   ; qtot 0.261798
 3480          n    156    ccc     N2   3480 -0.59180000  14.010000   ; qtot -0.330002
 3481         hn    156    ccc     H7   3481 0.33000000   1.008000   ; qtot -0.000002
; residue  157 ccc rtp ccc q 0.0
 3482         c3    157    ccc     C1   3482 -0.02400000  12.010000   ; qtot -0.024002
 3483         h1    157    ccc     H1   3483 0.10170000   1.008000   ; qtot 0.077698
 3484         h1    157    ccc     H2   3484 0.10170000   1.008000   ; qtot 0.179398
 3485         c3    157    ccc     C2   3485 0.52570000  12.010000   ; qtot 0.705098
 3486         h1    157    ccc     H3   3486 -0.02490000   1.008000   ; qtot 0.680198
 3487         h1    157    ccc     H4   3487 -0.02490000   1.008000   ; qtot 0.655298
 3488         n3    157    ccc     N1   3488 -1.33770000  14.010000   ; qtot -0.682402
 3489         hn    157    ccc     H5   3489 0.47210000   1.008000   ; qtot -0.210302
 3490         hn    157    ccc     H6   3490 0.47210000   1.008000   ; qtot 0.261798
 3491          n    157    ccc     N2   3491 -0.59180000  14.010000   ; qtot -0.330002
 3492         hn    157    ccc     H7   3492 0.33000000   1.008000   ; qtot -0.000002
; residue  158 ccc rtp ccc q 0.0
 3493         c3    158    ccc     C1   3493 -0.02400000  12.010000   ; qtot -0.024002
 3494         h1    158    ccc     H1   3494 0.10170000   1.008000   ; qtot 0.077698
 3495         h1    158    ccc     H2   3495 0.10170000   1.008000   ; qtot 0.179398
 3496         c3    158    ccc     C2   3496 0.52570000  12.010000   ; qtot 0.705098
 3497         h1    158    ccc     H3   3497 -0.02490000   1.008000   ; qtot 0.680198
 3498         h1    158    ccc     H4   3498 -0.02490000   1.008000   ; qtot 0.655298
 3499         n3    158    ccc     N1   3499 -1.33770000  14.010000   ; qtot -0.682402
 3500         hn    158    ccc     H5   3500 0.47210000   1.008000   ; qtot -0.210302
 3501         hn    158    ccc     H6   3501 0.47210000   1.008000   ; qtot 0.261798
 3502          n    158    ccc     N2   3502 -0.59180000  14.010000   ; qtot -0.330002
 3503         hn    158    ccc     H7   3503 0.33000000   1.008000   ; qtot -0.000002
; residue  159 ccc rtp ccc q 0.0
 3504         c3    159    ccc     C1   3504 -0.02400000  12.010000   ; qtot -0.024002
 3505         h1    159    ccc     H1   3505 0.10170000   1.008000   ; qtot 0.077698
 3506         h1    159    ccc     H2   3506 0.10170000   1.008000   ; qtot 0.179398
 3507         c3    159    ccc     C2   3507 0.52570000  12.010000   ; qtot 0.705098
 3508         h1    159    ccc     H3   3508 -0.02490000   1.008000   ; qtot 0.680198
 3509         h1    159    ccc     H4   3509 -0.02490000   1.008000   ; qtot 0.655298
 3510         n3    159    ccc     N1   3510 -1.33770000  14.010000   ; qtot -0.682402
 3511         hn    159    ccc     H5   3511 0.47210000   1.008000   ; qtot -0.210302
 3512         hn    159    ccc     H6   3512 0.47210000   1.008000   ; qtot 0.261798
 3513          n    159    ccc     N2   3513 -0.59180000  14.010000   ; qtot -0.330002
 3514         hn    159    ccc     H7   3514 0.33000000   1.008000   ; qtot -0.000002
; residue  160 ccc rtp ccc q 0.0
 3515         c3    160    ccc     C1   3515 -0.02400000  12.010000   ; qtot -0.024002
 3516         h1    160    ccc     H1   3516 0.10170000   1.008000   ; qtot 0.077698
 3517         h1    160    ccc     H2   3517 0.10170000   1.008000   ; qtot 0.179398
 3518         c3    160    ccc     C2   3518 0.52570000  12.010000   ; qtot 0.705098
 3519         h1    160    ccc     H3   3519 -0.02490000   1.008000   ; qtot 0.680198
 3520         h1    160    ccc     H4   3520 -0.02490000   1.008000   ; qtot 0.655298
 3521         n3    160    ccc     N1   3521 -1.33770000  14.010000   ; qtot -0.682402
 3522         hn    160    ccc     H5   3522 0.47210000   1.008000   ; qtot -0.210302
 3523         hn    160    ccc     H6   3523 0.47210000   1.008000   ; qtot 0.261798
 3524          n    160    ccc     N2   3524 -0.59180000  14.010000   ; qtot -0.330002
 3525         hn    160    ccc     H7   3525 0.33000000   1.008000   ; qtot -0.000002
; residue  161 ccc rtp ccc q 0.0
 3526         c3    161    ccc     C1   3526 -0.02400000  12.010000   ; qtot -0.024002
 3527         h1    161    ccc     H1   3527 0.10170000   1.008000   ; qtot 0.077698
 3528         h1    161    ccc     H2   3528 0.10170000   1.008000   ; qtot 0.179398
 3529         c3    161    ccc     C2   3529 0.52570000  12.010000   ; qtot 0.705098
 3530         h1    161    ccc     H3   3530 -0.02490000   1.008000   ; qtot 0.680198
 3531         h1    161    ccc     H4   3531 -0.02490000   1.008000   ; qtot 0.655298
 3532         n3    161    ccc     N1   3532 -1.33770000  14.010000   ; qtot -0.682402
 3533         hn    161    ccc     H5   3533 0.47210000   1.008000   ; qtot -0.210302
 3534         hn    161    ccc     H6   3534 0.47210000   1.008000   ; qtot 0.261798
 3535          n    161    ccc     N2   3535 -0.59180000  14.010000   ; qtot -0.330002
 3536         hn    161    ccc     H7   3536 0.33000000   1.008000   ; qtot -0.000002
; residue  162 ccc rtp ccc q 0.0
 3537         c3    162    ccc     C1   3537 -0.02400000  12.010000   ; qtot -0.024002
 3538         h1    162    ccc     H1   3538 0.10170000   1.008000   ; qtot 0.077698
 3539         h1    162    ccc     H2   3539 0.10170000   1.008000   ; qtot 0.179398
 3540         c3    162    ccc     C2   3540 0.52570000  12.010000   ; qtot 0.705098
 3541         h1    162    ccc     H3   3541 -0.02490000   1.008000   ; qtot 0.680198
 3542         h1    162    ccc     H4   3542 -0.02490000   1.008000   ; qtot 0.655298
 3543         n3    162    ccc     N1   3543 -1.33770000  14.010000   ; qtot -0.682402
 3544         hn    162    ccc     H5   3544 0.47210000   1.008000   ; qtot -0.210302
 3545         hn    162    ccc     H6   3545 0.47210000   1.008000   ; qtot 0.261798
 3546          n    162    ccc     N2   3546 -0.59180000  14.010000   ; qtot -0.330002
 3547         hn    162    ccc     H7   3547 0.33000000   1.008000   ; qtot -0.000002
; residue  163 ccc rtp ccc q 0.0
 3548         c3    163    ccc     C1   3548 -0.02400000  12.010000   ; qtot -0.024002
 3549         h1    163    ccc     H1   3549 0.10170000   1.008000   ; qtot 0.077698
 3550         h1    163    ccc     H2   3550 0.10170000   1.008000   ; qtot 0.179398
 3551         c3    163    ccc     C2   3551 0.52570000  12.010000   ; qtot 0.705098
 3552         h1    163    ccc     H3   3552 -0.02490000   1.008000   ; qtot 0.680198
 3553         h1    163    ccc     H4   3553 -0.02490000   1.008000   ; qtot 0.655298
 3554         n3    163    ccc     N1   3554 -1.33770000  14.010000   ; qtot -0.682402
 3555         hn    163    ccc     H5   3555 0.47210000   1.008000   ; qtot -0.210302
 3556         hn    163    ccc     H6   3556 0.47210000   1.008000   ; qtot 0.261798
 3557          n    163    ccc     N2   3557 -0.59180000  14.010000   ; qtot -0.330002
 3558         hn    163    ccc     H7   3558 0.33000000   1.008000   ; qtot -0.000002
; residue  164 ccc rtp ccc q 0.0
 3559         c3    164    ccc     C1   3559 -0.02400000  12.010000   ; qtot -0.024002
 3560         h1    164    ccc     H1   3560 0.10170000   1.008000   ; qtot 0.077698
 3561         h1    164    ccc     H2   3561 0.10170000   1.008000   ; qtot 0.179398
 3562         c3    164    ccc     C2   3562 0.52570000  12.010000   ; qtot 0.705098
 3563         h1    164    ccc     H3   3563 -0.02490000   1.008000   ; qtot 0.680198
 3564         h1    164    ccc     H4   3564 -0.02490000   1.008000   ; qtot 0.655298
 3565         n3    164    ccc     N1   3565 -1.33770000  14.010000   ; qtot -0.682402
 3566         hn    164    ccc     H5   3566 0.47210000   1.008000   ; qtot -0.210302
 3567         hn    164    ccc     H6   3567 0.47210000   1.008000   ; qtot 0.261798
 3568          n    164    ccc     N2   3568 -0.59180000  14.010000   ; qtot -0.330002
 3569         hn    164    ccc     H7   3569 0.33000000   1.008000   ; qtot -0.000002
; residue  165 ccc rtp ccc q 0.0
 3570         c3    165    ccc     C1   3570 -0.02400000  12.010000   ; qtot -0.024002
 3571         h1    165    ccc     H1   3571 0.10170000   1.008000   ; qtot 0.077698
 3572         h1    165    ccc     H2   3572 0.10170000   1.008000   ; qtot 0.179398
 3573         c3    165    ccc     C2   3573 0.52570000  12.010000   ; qtot 0.705098
 3574         h1    165    ccc     H3   3574 -0.02490000   1.008000   ; qtot 0.680198
 3575         h1    165    ccc     H4   3575 -0.02490000   1.008000   ; qtot 0.655298
 3576         n3    165    ccc     N1   3576 -1.33770000  14.010000   ; qtot -0.682402
 3577         hn    165    ccc     H5   3577 0.47210000   1.008000   ; qtot -0.210302
 3578         hn    165    ccc     H6   3578 0.47210000   1.008000   ; qtot 0.261798
 3579          n    165    ccc     N2   3579 -0.59180000  14.010000   ; qtot -0.330002
 3580         hn    165    ccc     H7   3580 0.33000000   1.008000   ; qtot -0.000002
; residue  166 ccc rtp ccc q 0.0
 3581         c3    166    ccc     C1   3581 -0.02400000  12.010000   ; qtot -0.024002
 3582         h1    166    ccc     H1   3582 0.10170000   1.008000   ; qtot 0.077698
 3583         h1    166    ccc     H2   3583 0.10170000   1.008000   ; qtot 0.179398
 3584         c3    166    ccc     C2   3584 0.52570000  12.010000   ; qtot 0.705098
 3585         h1    166    ccc     H3   3585 -0.02490000   1.008000   ; qtot 0.680198
 3586         h1    166    ccc     H4   3586 -0.02490000   1.008000   ; qtot 0.655298
 3587         n3    166    ccc     N1   3587 -1.33770000  14.010000   ; qtot -0.682402
 3588         hn    166    ccc     H5   3588 0.47210000   1.008000   ; qtot -0.210302
 3589         hn    166    ccc     H6   3589 0.47210000   1.008000   ; qtot 0.261798
 3590          n    166    ccc     N2   3590 -0.59180000  14.010000   ; qtot -0.330002
 3591         hn    166    ccc     H7   3591 0.33000000   1.008000   ; qtot -0.000002
; residue  167 ccc rtp ccc q 0.0
 3592         c3    167    ccc     C1   3592 -0.02400000  12.010000   ; qtot -0.024002
 3593         h1    167    ccc     H1   3593 0.10170000   1.008000   ; qtot 0.077698
 3594         h1    167    ccc     H2   3594 0.10170000   1.008000   ; qtot 0.179398
 3595         c3    167    ccc     C2   3595 0.52570000  12.010000   ; qtot 0.705098
 3596         h1    167    ccc     H3   3596 -0.02490000   1.008000   ; qtot 0.680198
 3597         h1    167    ccc     H4   3597 -0.02490000   1.008000   ; qtot 0.655298
 3598         n3    167    ccc     N1   3598 -1.33770000  14.010000   ; qtot -0.682402
 3599         hn    167    ccc     H5   3599 0.47210000   1.008000   ; qtot -0.210302
 3600         hn    167    ccc     H6   3600 0.47210000   1.008000   ; qtot 0.261798
 3601          n    167    ccc     N2   3601 -0.59180000  14.010000   ; qtot -0.330002
 3602         hn    167    ccc     H7   3602 0.33000000   1.008000   ; qtot -0.000002
; residue  168 ccc rtp ccc q 0.0
 3603         c3    168    ccc     C1   3603 -0.02400000  12.010000   ; qtot -0.024002
 3604         h1    168    ccc     H1   3604 0.10170000   1.008000   ; qtot 0.077698
 3605         h1    168    ccc     H2   3605 0.10170000   1.008000   ; qtot 0.179398
 3606         c3    168    ccc     C2   3606 0.52570000  12.010000   ; qtot 0.705098
 3607         h1    168    ccc     H3   3607 -0.02490000   1.008000   ; qtot 0.680198
 3608         h1    168    ccc     H4   3608 -0.02490000   1.008000   ; qtot 0.655298
 3609         n3    168    ccc     N1   3609 -1.33770000  14.010000   ; qtot -0.682402
 3610         hn    168    ccc     H5   3610 0.47210000   1.008000   ; qtot -0.210302
 3611         hn    168    ccc     H6   3611 0.47210000   1.008000   ; qtot 0.261798
 3612          n    168    ccc     N2   3612 -0.59180000  14.010000   ; qtot -0.330002
 3613         hn    168    ccc     H7   3613 0.33000000   1.008000   ; qtot -0.000002
; residue  169 ccc rtp ccc q 0.0
 3614         c3    169    ccc     C1   3614 -0.02400000  12.010000   ; qtot -0.024002
 3615         h1    169    ccc     H1   3615 0.10170000   1.008000   ; qtot 0.077698
 3616         h1    169    ccc     H2   3616 0.10170000   1.008000   ; qtot 0.179398
 3617         c3    169    ccc     C2   3617 0.52570000  12.010000   ; qtot 0.705098
 3618         h1    169    ccc     H3   3618 -0.02490000   1.008000   ; qtot 0.680198
 3619         h1    169    ccc     H4   3619 -0.02490000   1.008000   ; qtot 0.655298
 3620         n3    169    ccc     N1   3620 -1.33770000  14.010000   ; qtot -0.682402
 3621         hn    169    ccc     H5   3621 0.47210000   1.008000   ; qtot -0.210302
 3622         hn    169    ccc     H6   3622 0.47210000   1.008000   ; qtot 0.261798
 3623          n    169    ccc     N2   3623 -0.59180000  14.010000   ; qtot -0.330002
 3624         hn    169    ccc     H7   3624 0.33000000   1.008000   ; qtot -0.000002
; residue  170 ccc rtp ccc q 0.0
 3625         c3    170    ccc     C1   3625 -0.02400000  12.010000   ; qtot -0.024002
 3626         h1    170    ccc     H1   3626 0.10170000   1.008000   ; qtot 0.077698
 3627         h1    170    ccc     H2   3627 0.10170000   1.008000   ; qtot 0.179398
 3628         c3    170    ccc     C2   3628 0.52570000  12.010000   ; qtot 0.705098
 3629         h1    170    ccc     H3   3629 -0.02490000   1.008000   ; qtot 0.680198
 3630         h1    170    ccc     H4   3630 -0.02490000   1.008000   ; qtot 0.655298
 3631         n3    170    ccc     N1   3631 -1.33770000  14.010000   ; qtot -0.682402
 3632         hn    170    ccc     H5   3632 0.47210000   1.008000   ; qtot -0.210302
 3633         hn    170    ccc     H6   3633 0.47210000   1.008000   ; qtot 0.261798
 3634          n    170    ccc     N2   3634 -0.59180000  14.010000   ; qtot -0.330002
 3635         hn    170    ccc     H7   3635 0.33000000   1.008000   ; qtot -0.000002
; residue  171 ccc rtp ccc q 0.0
 3636         c3    171    ccc     C1   3636 -0.02400000  12.010000   ; qtot -0.024002
 3637         h1    171    ccc     H1   3637 0.10170000   1.008000   ; qtot 0.077698
 3638         h1    171    ccc     H2   3638 0.10170000   1.008000   ; qtot 0.179398
 3639         c3    171    ccc     C2   3639 0.52570000  12.010000   ; qtot 0.705098
 3640         h1    171    ccc     H3   3640 -0.02490000   1.008000   ; qtot 0.680198
 3641         h1    171    ccc     H4   3641 -0.02490000   1.008000   ; qtot 0.655298
 3642         n3    171    ccc     N1   3642 -1.33770000  14.010000   ; qtot -0.682402
 3643         hn    171    ccc     H5   3643 0.47210000   1.008000   ; qtot -0.210302
 3644         hn    171    ccc     H6   3644 0.47210000   1.008000   ; qtot 0.261798
 3645          n    171    ccc     N2   3645 -0.59180000  14.010000   ; qtot -0.330002
 3646         hn    171    ccc     H7   3646 0.33000000   1.008000   ; qtot -0.000002
; residue  172 ccc rtp ccc q 0.0
 3647         c3    172    ccc     C1   3647 -0.02400000  12.010000   ; qtot -0.024002
 3648         h1    172    ccc     H1   3648 0.10170000   1.008000   ; qtot 0.077698
 3649         h1    172    ccc     H2   3649 0.10170000   1.008000   ; qtot 0.179398
 3650         c3    172    ccc     C2   3650 0.52570000  12.010000   ; qtot 0.705098
 3651         h1    172    ccc     H3   3651 -0.02490000   1.008000   ; qtot 0.680198
 3652         h1    172    ccc     H4   3652 -0.02490000   1.008000   ; qtot 0.655298
 3653         n3    172    ccc     N1   3653 -1.33770000  14.010000   ; qtot -0.682402
 3654         hn    172    ccc     H5   3654 0.47210000   1.008000   ; qtot -0.210302
 3655         hn    172    ccc     H6   3655 0.47210000   1.008000   ; qtot 0.261798
 3656          n    172    ccc     N2   3656 -0.59180000  14.010000   ; qtot -0.330002
 3657         hn    172    ccc     H7   3657 0.33000000   1.008000   ; qtot -0.000002
; residue  173 ccc rtp ccc q 0.0
 3658         c3    173    ccc     C1   3658 -0.02400000  12.010000   ; qtot -0.024002
 3659         h1    173    ccc     H1   3659 0.10170000   1.008000   ; qtot 0.077698
 3660         h1    173    ccc     H2   3660 0.10170000   1.008000   ; qtot 0.179398
 3661         c3    173    ccc     C2   3661 0.52570000  12.010000   ; qtot 0.705098
 3662         h1    173    ccc     H3   3662 -0.02490000   1.008000   ; qtot 0.680198
 3663         h1    173    ccc     H4   3663 -0.02490000   1.008000   ; qtot 0.655298
 3664         n3    173    ccc     N1   3664 -1.33770000  14.010000   ; qtot -0.682402
 3665         hn    173    ccc     H5   3665 0.47210000   1.008000   ; qtot -0.210302
 3666         hn    173    ccc     H6   3666 0.47210000   1.008000   ; qtot 0.261798
 3667          n    173    ccc     N2   3667 -0.59180000  14.010000   ; qtot -0.330002
 3668         hn    173    ccc     H7   3668 0.33000000   1.008000   ; qtot -0.000002
; residue  174 ccc rtp ccc q 0.0
 3669         c3    174    ccc     C1   3669 -0.02400000  12.010000   ; qtot -0.024002
 3670         h1    174    ccc     H1   3670 0.10170000   1.008000   ; qtot 0.077698
 3671         h1    174    ccc     H2   3671 0.10170000   1.008000   ; qtot 0.179398
 3672         c3    174    ccc     C2   3672 0.52570000  12.010000   ; qtot 0.705098
 3673         h1    174    ccc     H3   3673 -0.02490000   1.008000   ; qtot 0.680198
 3674         h1    174    ccc     H4   3674 -0.02490000   1.008000   ; qtot 0.655298
 3675         n3    174    ccc     N1   3675 -1.33770000  14.010000   ; qtot -0.682402
 3676         hn    174    ccc     H5   3676 0.47210000   1.008000   ; qtot -0.210302
 3677         hn    174    ccc     H6   3677 0.47210000   1.008000   ; qtot 0.261798
 3678          n    174    ccc     N2   3678 -0.59180000  14.010000   ; qtot -0.330002
 3679         hn    174    ccc     H7   3679 0.33000000   1.008000   ; qtot -0.000002
; residue  175 ccc rtp ccc q 0.0
 3680         c3    175    ccc     C1   3680 -0.02400000  12.010000   ; qtot -0.024002
 3681         h1    175    ccc     H1   3681 0.10170000   1.008000   ; qtot 0.077698
 3682         h1    175    ccc     H2   3682 0.10170000   1.008000   ; qtot 0.179398
 3683         c3    175    ccc     C2   3683 0.52570000  12.010000   ; qtot 0.705098
 3684         h1    175    ccc     H3   3684 -0.02490000   1.008000   ; qtot 0.680198
 3685         h1    175    ccc     H4   3685 -0.02490000   1.008000   ; qtot 0.655298
 3686         n3    175    ccc     N1   3686 -1.33770000  14.010000   ; qtot -0.682402
 3687         hn    175    ccc     H5   3687 0.47210000   1.008000   ; qtot -0.210302
 3688         hn    175    ccc     H6   3688 0.47210000   1.008000   ; qtot 0.261798
 3689          n    175    ccc     N2   3689 -0.59180000  14.010000   ; qtot -0.330002
 3690         hn    175    ccc     H7   3690 0.33000000   1.008000   ; qtot -0.000002
; residue  176 ccc rtp ccc q 0.0
 3691         c3    176    ccc     C1   3691 -0.02400000  12.010000   ; qtot -0.024002
 3692         h1    176    ccc     H1   3692 0.10170000   1.008000   ; qtot 0.077698
 3693         h1    176    ccc     H2   3693 0.10170000   1.008000   ; qtot 0.179398
 3694         c3    176    ccc     C2   3694 0.52570000  12.010000   ; qtot 0.705098
 3695         h1    176    ccc     H3   3695 -0.02490000   1.008000   ; qtot 0.680198
 3696         h1    176    ccc     H4   3696 -0.02490000   1.008000   ; qtot 0.655298
 3697         n3    176    ccc     N1   3697 -1.33770000  14.010000   ; qtot -0.682402
 3698         hn    176    ccc     H5   3698 0.47210000   1.008000   ; qtot -0.210302
 3699         hn    176    ccc     H6   3699 0.47210000   1.008000   ; qtot 0.261798
 3700          n    176    ccc     N2   3700 -0.59180000  14.010000   ; qtot -0.330002
 3701         hn    176    ccc     H7   3701 0.33000000   1.008000   ; qtot -0.000002
; residue  177 ccc rtp ccc q 0.0
 3702         c3    177    ccc     C1   3702 -0.02400000  12.010000   ; qtot -0.024002
 3703         h1    177    ccc     H1   3703 0.10170000   1.008000   ; qtot 0.077698
 3704         h1    177    ccc     H2   3704 0.10170000   1.008000   ; qtot 0.179398
 3705         c3    177    ccc     C2   3705 0.52570000  12.010000   ; qtot 0.705098
 3706         h1    177    ccc     H3   3706 -0.02490000   1.008000   ; qtot 0.680198
 3707         h1    177    ccc     H4   3707 -0.02490000   1.008000   ; qtot 0.655298
 3708         n3    177    ccc     N1   3708 -1.33770000  14.010000   ; qtot -0.682402
 3709         hn    177    ccc     H5   3709 0.47210000   1.008000   ; qtot -0.210302
 3710         hn    177    ccc     H6   3710 0.47210000   1.008000   ; qtot 0.261798
 3711          n    177    ccc     N2   3711 -0.59180000  14.010000   ; qtot -0.330002
 3712         hn    177    ccc     H7   3712 0.33000000   1.008000   ; qtot -0.000002
; residue  178 ccc rtp ccc q 0.0
 3713         c3    178    ccc     C1   3713 -0.02400000  12.010000   ; qtot -0.024002
 3714         h1    178    ccc     H1   3714 0.10170000   1.008000   ; qtot 0.077698
 3715         h1    178    ccc     H2   3715 0.10170000   1.008000   ; qtot 0.179398
 3716         c3    178    ccc     C2   3716 0.52570000  12.010000   ; qtot 0.705098
 3717         h1    178    ccc     H3   3717 -0.02490000   1.008000   ; qtot 0.680198
 3718         h1    178    ccc     H4   3718 -0.02490000   1.008000   ; qtot 0.655298
 3719         n3    178    ccc     N1   3719 -1.33770000  14.010000   ; qtot -0.682402
 3720         hn    178    ccc     H5   3720 0.47210000   1.008000   ; qtot -0.210302
 3721         hn    178    ccc     H6   3721 0.47210000   1.008000   ; qtot 0.261798
 3722          n    178    ccc     N2   3722 -0.59180000  14.010000   ; qtot -0.330002
 3723         hn    178    ccc     H7   3723 0.33000000   1.008000   ; qtot -0.000002
; residue  179 ccc rtp ccc q 0.0
 3724         c3    179    ccc     C1   3724 -0.02400000  12.010000   ; qtot -0.024002
 3725         h1    179    ccc     H1   3725 0.10170000   1.008000   ; qtot 0.077698
 3726         h1    179    ccc     H2   3726 0.10170000   1.008000   ; qtot 0.179398
 3727         c3    179    ccc     C2   3727 0.52570000  12.010000   ; qtot 0.705098
 3728         h1    179    ccc     H3   3728 -0.02490000   1.008000   ; qtot 0.680198
 3729         h1    179    ccc     H4   3729 -0.02490000   1.008000   ; qtot 0.655298
 3730         n3    179    ccc     N1   3730 -1.33770000  14.010000   ; qtot -0.682402
 3731         hn    179    ccc     H5   3731 0.47210000   1.008000   ; qtot -0.210302
 3732         hn    179    ccc     H6   3732 0.47210000   1.008000   ; qtot 0.261798
 3733          n    179    ccc     N2   3733 -0.59180000  14.010000   ; qtot -0.330002
 3734         hn    179    ccc     H7   3734 0.33000000   1.008000   ; qtot -0.000002
; residue  180 ccc rtp ccc q 0.0
 3735         c3    180    ccc     C1   3735 -0.02400000  12.010000   ; qtot -0.024002
 3736         h1    180    ccc     H1   3736 0.10170000   1.008000   ; qtot 0.077698
 3737         h1    180    ccc     H2   3737 0.10170000   1.008000   ; qtot 0.179398
 3738         c3    180    ccc     C2   3738 0.52570000  12.010000   ; qtot 0.705098
 3739         h1    180    ccc     H3   3739 -0.02490000   1.008000   ; qtot 0.680198
 3740         h1    180    ccc     H4   3740 -0.02490000   1.008000   ; qtot 0.655298
 3741         n3    180    ccc     N1   3741 -1.33770000  14.010000   ; qtot -0.682402
 3742         hn    180    ccc     H5   3742 0.47210000   1.008000   ; qtot -0.210302
 3743         hn    180    ccc     H6   3743 0.47210000   1.008000   ; qtot 0.261798
 3744          n    180    ccc     N2   3744 -0.59180000  14.010000   ; qtot -0.330002
 3745         hn    180    ccc     H7   3745 0.33000000   1.008000   ; qtot -0.000002
; residue  181 ccc rtp ccc q 0.0
 3746         c3    181    ccc     C1   3746 -0.02400000  12.010000   ; qtot -0.024002
 3747         h1    181    ccc     H1   3747 0.10170000   1.008000   ; qtot 0.077698
 3748         h1    181    ccc     H2   3748 0.10170000   1.008000   ; qtot 0.179398
 3749         c3    181    ccc     C2   3749 0.52570000  12.010000   ; qtot 0.705098
 3750         h1    181    ccc     H3   3750 -0.02490000   1.008000   ; qtot 0.680198
 3751         h1    181    ccc     H4   3751 -0.02490000   1.008000   ; qtot 0.655298
 3752         n3    181    ccc     N1   3752 -1.33770000  14.010000   ; qtot -0.682402
 3753         hn    181    ccc     H5   3753 0.47210000   1.008000   ; qtot -0.210302
 3754         hn    181    ccc     H6   3754 0.47210000   1.008000   ; qtot 0.261798
 3755          n    181    ccc     N2   3755 -0.59180000  14.010000   ; qtot -0.330002
 3756         hn    181    ccc     H7   3756 0.33000000   1.008000   ; qtot -0.000002
; residue  182 ccc rtp ccc q 0.0
 3757         c3    182    ccc     C1   3757 -0.02400000  12.010000   ; qtot -0.024002
 3758         h1    182    ccc     H1   3758 0.10170000   1.008000   ; qtot 0.077698
 3759         h1    182    ccc     H2   3759 0.10170000   1.008000   ; qtot 0.179398
 3760         c3    182    ccc     C2   3760 0.52570000  12.010000   ; qtot 0.705098
 3761         h1    182    ccc     H3   3761 -0.02490000   1.008000   ; qtot 0.680198
 3762         h1    182    ccc     H4   3762 -0.02490000   1.008000   ; qtot 0.655298
 3763         n3    182    ccc     N1   3763 -1.33770000  14.010000   ; qtot -0.682402
 3764         hn    182    ccc     H5   3764 0.47210000   1.008000   ; qtot -0.210302
 3765         hn    182    ccc     H6   3765 0.47210000   1.008000   ; qtot 0.261798
 3766          n    182    ccc     N2   3766 -0.59180000  14.010000   ; qtot -0.330002
 3767         hn    182    ccc     H7   3767 0.33000000   1.008000   ; qtot -0.000002
; residue  183 ccc rtp ccc q 0.0
 3768         c3    183    ccc     C1   3768 -0.02400000  12.010000   ; qtot -0.024002
 3769         h1    183    ccc     H1   3769 0.10170000   1.008000   ; qtot 0.077698
 3770         h1    183    ccc     H2   3770 0.10170000   1.008000   ; qtot 0.179398
 3771         c3    183    ccc     C2   3771 0.52570000  12.010000   ; qtot 0.705098
 3772         h1    183    ccc     H3   3772 -0.02490000   1.008000   ; qtot 0.680198
 3773         h1    183    ccc     H4   3773 -0.02490000   1.008000   ; qtot 0.655298
 3774         n3    183    ccc     N1   3774 -1.33770000  14.010000   ; qtot -0.682402
 3775         hn    183    ccc     H5   3775 0.47210000   1.008000   ; qtot -0.210302
 3776         hn    183    ccc     H6   3776 0.47210000   1.008000   ; qtot 0.261798
 3777          n    183    ccc     N2   3777 -0.59180000  14.010000   ; qtot -0.330002
 3778         hn    183    ccc     H7   3778 0.33000000   1.008000   ; qtot -0.000002
; residue  184 ccc rtp ccc q 0.0
 3779         c3    184    ccc     C1   3779 -0.02400000  12.010000   ; qtot -0.024002
 3780         h1    184    ccc     H1   3780 0.10170000   1.008000   ; qtot 0.077698
 3781         h1    184    ccc     H2   3781 0.10170000   1.008000   ; qtot 0.179398
 3782         c3    184    ccc     C2   3782 0.52570000  12.010000   ; qtot 0.705098
 3783         h1    184    ccc     H3   3783 -0.02490000   1.008000   ; qtot 0.680198
 3784         h1    184    ccc     H4   3784 -0.02490000   1.008000   ; qtot 0.655298
 3785         n3    184    ccc     N1   3785 -1.33770000  14.010000   ; qtot -0.682402
 3786         hn    184    ccc     H5   3786 0.47210000   1.008000   ; qtot -0.210302
 3787         hn    184    ccc     H6   3787 0.47210000   1.008000   ; qtot 0.261798
 3788          n    184    ccc     N2   3788 -0.59180000  14.010000   ; qtot -0.330002
 3789         hn    184    ccc     H7   3789 0.33000000   1.008000   ; qtot -0.000002
; residue  185 ccc rtp ccc q 0.0
 3790         c3    185    ccc     C1   3790 -0.02400000  12.010000   ; qtot -0.024002
 3791         h1    185    ccc     H1   3791 0.10170000   1.008000   ; qtot 0.077698
 3792         h1    185    ccc     H2   3792 0.10170000   1.008000   ; qtot 0.179398
 3793         c3    185    ccc     C2   3793 0.52570000  12.010000   ; qtot 0.705098
 3794         h1    185    ccc     H3   3794 -0.02490000   1.008000   ; qtot 0.680198
 3795         h1    185    ccc     H4   3795 -0.02490000   1.008000   ; qtot 0.655298
 3796         n3    185    ccc     N1   3796 -1.33770000  14.010000   ; qtot -0.682402
 3797         hn    185    ccc     H5   3797 0.47210000   1.008000   ; qtot -0.210302
 3798         hn    185    ccc     H6   3798 0.47210000   1.008000   ; qtot 0.261798
 3799          n    185    ccc     N2   3799 -0.59180000  14.010000   ; qtot -0.330002
 3800         hn    185    ccc     H7   3800 0.33000000   1.008000   ; qtot -0.000002
; residue  186 ccc rtp ccc q 0.0
 3801         c3    186    ccc     C1   3801 -0.02400000  12.010000   ; qtot -0.024002
 3802         h1    186    ccc     H1   3802 0.10170000   1.008000   ; qtot 0.077698
 3803         h1    186    ccc     H2   3803 0.10170000   1.008000   ; qtot 0.179398
 3804         c3    186    ccc     C2   3804 0.52570000  12.010000   ; qtot 0.705098
 3805         h1    186    ccc     H3   3805 -0.02490000   1.008000   ; qtot 0.680198
 3806         h1    186    ccc     H4   3806 -0.02490000   1.008000   ; qtot 0.655298
 3807         n3    186    ccc     N1   3807 -1.33770000  14.010000   ; qtot -0.682402
 3808         hn    186    ccc     H5   3808 0.47210000   1.008000   ; qtot -0.210302
 3809         hn    186    ccc     H6   3809 0.47210000   1.008000   ; qtot 0.261798
 3810          n    186    ccc     N2   3810 -0.59180000  14.010000   ; qtot -0.330002
 3811         hn    186    ccc     H7   3811 0.33000000   1.008000   ; qtot -0.000002
; residue  187 ccc rtp ccc q 0.0
 3812         c3    187    ccc     C1   3812 -0.02400000  12.010000   ; qtot -0.024002
 3813         h1    187    ccc     H1   3813 0.10170000   1.008000   ; qtot 0.077698
 3814         h1    187    ccc     H2   3814 0.10170000   1.008000   ; qtot 0.179398
 3815         c3    187    ccc     C2   3815 0.52570000  12.010000   ; qtot 0.705098
 3816         h1    187    ccc     H3   3816 -0.02490000   1.008000   ; qtot 0.680198
 3817         h1    187    ccc     H4   3817 -0.02490000   1.008000   ; qtot 0.655298
 3818         n3    187    ccc     N1   3818 -1.33770000  14.010000   ; qtot -0.682402
 3819         hn    187    ccc     H5   3819 0.47210000   1.008000   ; qtot -0.210302
 3820         hn    187    ccc     H6   3820 0.47210000   1.008000   ; qtot 0.261798
 3821          n    187    ccc     N2   3821 -0.59180000  14.010000   ; qtot -0.330002
 3822         hn    187    ccc     H7   3822 0.33000000   1.008000   ; qtot -0.000002
; residue  188 ccc rtp ccc q 0.0
 3823         c3    188    ccc     C1   3823 -0.02400000  12.010000   ; qtot -0.024002
 3824         h1    188    ccc     H1   3824 0.10170000   1.008000   ; qtot 0.077698
 3825         h1    188    ccc     H2   3825 0.10170000   1.008000   ; qtot 0.179398
 3826         c3    188    ccc     C2   3826 0.52570000  12.010000   ; qtot 0.705098
 3827         h1    188    ccc     H3   3827 -0.02490000   1.008000   ; qtot 0.680198
 3828         h1    188    ccc     H4   3828 -0.02490000   1.008000   ; qtot 0.655298
 3829         n3    188    ccc     N1   3829 -1.33770000  14.010000   ; qtot -0.682402
 3830         hn    188    ccc     H5   3830 0.47210000   1.008000   ; qtot -0.210302
 3831         hn    188    ccc     H6   3831 0.47210000   1.008000   ; qtot 0.261798
 3832          n    188    ccc     N2   3832 -0.59180000  14.010000   ; qtot -0.330002
 3833         hn    188    ccc     H7   3833 0.33000000   1.008000   ; qtot -0.000002
; residue  189 ccc rtp ccc q 0.0
 3834         c3    189    ccc     C1   3834 -0.02400000  12.010000   ; qtot -0.024002
 3835         h1    189    ccc     H1   3835 0.10170000   1.008000   ; qtot 0.077698
 3836         h1    189    ccc     H2   3836 0.10170000   1.008000   ; qtot 0.179398
 3837         c3    189    ccc     C2   3837 0.52570000  12.010000   ; qtot 0.705098
 3838         h1    189    ccc     H3   3838 -0.02490000   1.008000   ; qtot 0.680198
 3839         h1    189    ccc     H4   3839 -0.02490000   1.008000   ; qtot 0.655298
 3840         n3    189    ccc     N1   3840 -1.33770000  14.010000   ; qtot -0.682402
 3841         hn    189    ccc     H5   3841 0.47210000   1.008000   ; qtot -0.210302
 3842         hn    189    ccc     H6   3842 0.47210000   1.008000   ; qtot 0.261798
 3843          n    189    ccc     N2   3843 -0.59180000  14.010000   ; qtot -0.330002
 3844         hn    189    ccc     H7   3844 0.33000000   1.008000   ; qtot -0.000002
; residue  190 ccc rtp ccc q 0.0
 3845         c3    190    ccc     C1   3845 -0.02400000  12.010000   ; qtot -0.024002
 3846         h1    190    ccc     H1   3846 0.10170000   1.008000   ; qtot 0.077698
 3847         h1    190    ccc     H2   3847 0.10170000   1.008000   ; qtot 0.179398
 3848         c3    190    ccc     C2   3848 0.52570000  12.010000   ; qtot 0.705098
 3849         h1    190    ccc     H3   3849 -0.02490000   1.008000   ; qtot 0.680198
 3850         h1    190    ccc     H4   3850 -0.02490000   1.008000   ; qtot 0.655298
 3851         n3    190    ccc     N1   3851 -1.33770000  14.010000   ; qtot -0.682402
 3852         hn    190    ccc     H5   3852 0.47210000   1.008000   ; qtot -0.210302
 3853         hn    190    ccc     H6   3853 0.47210000   1.008000   ; qtot 0.261798
 3854          n    190    ccc     N2   3854 -0.59180000  14.010000   ; qtot -0.330002
 3855         hn    190    ccc     H7   3855 0.33000000   1.008000   ; qtot -0.000002
; residue  191 ccc rtp ccc q 0.0
 3856         c3    191    ccc     C1   3856 -0.02400000  12.010000   ; qtot -0.024002
 3857         h1    191    ccc     H1   3857 0.10170000   1.008000   ; qtot 0.077698
 3858         h1    191    ccc     H2   3858 0.10170000   1.008000   ; qtot 0.179398
 3859         c3    191    ccc     C2   3859 0.52570000  12.010000   ; qtot 0.705098
 3860         h1    191    ccc     H3   3860 -0.02490000   1.008000   ; qtot 0.680198
 3861         h1    191    ccc     H4   3861 -0.02490000   1.008000   ; qtot 0.655298
 3862         n3    191    ccc     N1   3862 -1.33770000  14.010000   ; qtot -0.682402
 3863         hn    191    ccc     H5   3863 0.47210000   1.008000   ; qtot -0.210302
 3864         hn    191    ccc     H6   3864 0.47210000   1.008000   ; qtot 0.261798
 3865          n    191    ccc     N2   3865 -0.59180000  14.010000   ; qtot -0.330002
 3866         hn    191    ccc     H7   3866 0.33000000   1.008000   ; qtot -0.000002
; residue  192 ccc rtp ccc q 0.0
 3867         c3    192    ccc     C1   3867 -0.02400000  12.010000   ; qtot -0.024002
 3868         h1    192    ccc     H1   3868 0.10170000   1.008000   ; qtot 0.077698
 3869         h1    192    ccc     H2   3869 0.10170000   1.008000   ; qtot 0.179398
 3870         c3    192    ccc     C2   3870 0.52570000  12.010000   ; qtot 0.705098
 3871         h1    192    ccc     H3   3871 -0.02490000   1.008000   ; qtot 0.680198
 3872         h1    192    ccc     H4   3872 -0.02490000   1.008000   ; qtot 0.655298
 3873         n3    192    ccc     N1   3873 -1.33770000  14.010000   ; qtot -0.682402
 3874         hn    192    ccc     H5   3874 0.47210000   1.008000   ; qtot -0.210302
 3875         hn    192    ccc     H6   3875 0.47210000   1.008000   ; qtot 0.261798
 3876          n    192    ccc     N2   3876 -0.59180000  14.010000   ; qtot -0.330002
 3877         hn    192    ccc     H7   3877 0.33000000   1.008000   ; qtot -0.000002
; residue  193 ccc rtp ccc q 0.0
 3878         c3    193    ccc     C1   3878 -0.02400000  12.010000   ; qtot -0.024002
 3879         h1    193    ccc     H1   3879 0.10170000   1.008000   ; qtot 0.077698
 3880         h1    193    ccc     H2   3880 0.10170000   1.008000   ; qtot 0.179398
 3881         c3    193    ccc     C2   3881 0.52570000  12.010000   ; qtot 0.705098
 3882         h1    193    ccc     H3   3882 -0.02490000   1.008000   ; qtot 0.680198
 3883         h1    193    ccc     H4   3883 -0.02490000   1.008000   ; qtot 0.655298
 3884         n3    193    ccc     N1   3884 -1.33770000  14.010000   ; qtot -0.682402
 3885         hn    193    ccc     H5   3885 0.47210000   1.008000   ; qtot -0.210302
 3886         hn    193    ccc     H6   3886 0.47210000   1.008000   ; qtot 0.261798
 3887          n    193    ccc     N2   3887 -0.59180000  14.010000   ; qtot -0.330002
 3888         hn    193    ccc     H7   3888 0.33000000   1.008000   ; qtot -0.000002
; residue  194 ccc rtp ccc q 0.0
 3889         c3    194    ccc     C1   3889 -0.02400000  12.010000   ; qtot -0.024002
 3890         h1    194    ccc     H1   3890 0.10170000   1.008000   ; qtot 0.077698
 3891         h1    194    ccc     H2   3891 0.10170000   1.008000   ; qtot 0.179398
 3892         c3    194    ccc     C2   3892 0.52570000  12.010000   ; qtot 0.705098
 3893         h1    194    ccc     H3   3893 -0.02490000   1.008000   ; qtot 0.680198
 3894         h1    194    ccc     H4   3894 -0.02490000   1.008000   ; qtot 0.655298
 3895         n3    194    ccc     N1   3895 -1.33770000  14.010000   ; qtot -0.682402
 3896         hn    194    ccc     H5   3896 0.47210000   1.008000   ; qtot -0.210302
 3897         hn    194    ccc     H6   3897 0.47210000   1.008000   ; qtot 0.261798
 3898          n    194    ccc     N2   3898 -0.59180000  14.010000   ; qtot -0.330002
 3899         hn    194    ccc     H7   3899 0.33000000   1.008000   ; qtot -0.000002
; residue  195 ccc rtp ccc q 0.0
 3900         c3    195    ccc     C1   3900 -0.02400000  12.010000   ; qtot -0.024002
 3901         h1    195    ccc     H1   3901 0.10170000   1.008000   ; qtot 0.077698
 3902         h1    195    ccc     H2   3902 0.10170000   1.008000   ; qtot 0.179398
 3903         c3    195    ccc     C2   3903 0.52570000  12.010000   ; qtot 0.705098
 3904         h1    195    ccc     H3   3904 -0.02490000   1.008000   ; qtot 0.680198
 3905         h1    195    ccc     H4   3905 -0.02490000   1.008000   ; qtot 0.655298
 3906         n3    195    ccc     N1   3906 -1.33770000  14.010000   ; qtot -0.682402
 3907         hn    195    ccc     H5   3907 0.47210000   1.008000   ; qtot -0.210302
 3908         hn    195    ccc     H6   3908 0.47210000   1.008000   ; qtot 0.261798
 3909          n    195    ccc     N2   3909 -0.59180000  14.010000   ; qtot -0.330002
 3910         hn    195    ccc     H7   3910 0.33000000   1.008000   ; qtot -0.000002
; residue  196 ccc rtp ccc q 0.0
 3911         c3    196    ccc     C1   3911 -0.02400000  12.010000   ; qtot -0.024002
 3912         h1    196    ccc     H1   3912 0.10170000   1.008000   ; qtot 0.077698
 3913         h1    196    ccc     H2   3913 0.10170000   1.008000   ; qtot 0.179398
 3914         c3    196    ccc     C2   3914 0.52570000  12.010000   ; qtot 0.705098
 3915         h1    196    ccc     H3   3915 -0.02490000   1.008000   ; qtot 0.680198
 3916         h1    196    ccc     H4   3916 -0.02490000   1.008000   ; qtot 0.655298
 3917         n3    196    ccc     N1   3917 -1.33770000  14.010000   ; qtot -0.682402
 3918         hn    196    ccc     H5   3918 0.47210000   1.008000   ; qtot -0.210302
 3919         hn    196    ccc     H6   3919 0.47210000   1.008000   ; qtot 0.261798
 3920          n    196    ccc     N2   3920 -0.59180000  14.010000   ; qtot -0.330002
 3921         hn    196    ccc     H7   3921 0.33000000   1.008000   ; qtot -0.000002
; residue  197 ccc rtp ccc q 0.0
 3922         c3    197    ccc     C1   3922 -0.02400000  12.010000   ; qtot -0.024002
 3923         h1    197    ccc     H1   3923 0.10170000   1.008000   ; qtot 0.077698
 3924         h1    197    ccc     H2   3924 0.10170000   1.008000   ; qtot 0.179398
 3925         c3    197    ccc     C2   3925 0.52570000  12.010000   ; qtot 0.705098
 3926         h1    197    ccc     H3   3926 -0.02490000   1.008000   ; qtot 0.680198
 3927         h1    197    ccc     H4   3927 -0.02490000   1.008000   ; qtot 0.655298
 3928         n3    197    ccc     N1   3928 -1.33770000  14.010000   ; qtot -0.682402
 3929         hn    197    ccc     H5   3929 0.47210000   1.008000   ; qtot -0.210302
 3930         hn    197    ccc     H6   3930 0.47210000   1.008000   ; qtot 0.261798
 3931          n    197    ccc     N2   3931 -0.59180000  14.010000   ; qtot -0.330002
 3932         hn    197    ccc     H7   3932 0.33000000   1.008000   ; qtot -0.000002
; residue  198 ccc rtp ccc q 0.0
 3933         c3    198    ccc     C1   3933 -0.02400000  12.010000   ; qtot -0.024002
 3934         h1    198    ccc     H1   3934 0.10170000   1.008000   ; qtot 0.077698
 3935         h1    198    ccc     H2   3935 0.10170000   1.008000   ; qtot 0.179398
 3936         c3    198    ccc     C2   3936 0.52570000  12.010000   ; qtot 0.705098
 3937         h1    198    ccc     H3   3937 -0.02490000   1.008000   ; qtot 0.680198
 3938         h1    198    ccc     H4   3938 -0.02490000   1.008000   ; qtot 0.655298
 3939         n3    198    ccc     N1   3939 -1.33770000  14.010000   ; qtot -0.682402
 3940         hn    198    ccc     H5   3940 0.47210000   1.008000   ; qtot -0.210302
 3941         hn    198    ccc     H6   3941 0.47210000   1.008000   ; qtot 0.261798
 3942          n    198    ccc     N2   3942 -0.59180000  14.010000   ; qtot -0.330002
 3943         hn    198    ccc     H7   3943 0.33000000   1.008000   ; qtot -0.000002
; residue  199 ccc rtp ccc q 0.0
 3944         c3    199    ccc     C1   3944 -0.02400000  12.010000   ; qtot -0.024002
 3945         h1    199    ccc     H1   3945 0.10170000   1.008000   ; qtot 0.077698
 3946         h1    199    ccc     H2   3946 0.10170000   1.008000   ; qtot 0.179398
 3947         c3    199    ccc     C2   3947 0.52570000  12.010000   ; qtot 0.705098
 3948         h1    199    ccc     H3   3948 -0.02490000   1.008000   ; qtot 0.680198
 3949         h1    199    ccc     H4   3949 -0.02490000   1.008000   ; qtot 0.655298
 3950         n3    199    ccc     N1   3950 -1.33770000  14.010000   ; qtot -0.682402
 3951         hn    199    ccc     H5   3951 0.47210000   1.008000   ; qtot -0.210302
 3952         hn    199    ccc     H6   3952 0.47210000   1.008000   ; qtot 0.261798
 3953          n    199    ccc     N2   3953 -0.59180000  14.010000   ; qtot -0.330002
 3954         hn    199    ccc     H7   3954 0.33000000   1.008000   ; qtot -0.000002
; residue  200 ccc rtp ccc q 0.0
 3955         c3    200    ccc     C1   3955 -0.02400000  12.010000   ; qtot -0.024002
 3956         h1    200    ccc     H1   3956 0.10170000   1.008000   ; qtot 0.077698
 3957         h1    200    ccc     H2   3957 0.10170000   1.008000   ; qtot 0.179398
 3958         c3    200    ccc     C2   3958 0.52570000  12.010000   ; qtot 0.705098
 3959         h1    200    ccc     H3   3959 -0.02490000   1.008000   ; qtot 0.680198
 3960         h1    200    ccc     H4   3960 -0.02490000   1.008000   ; qtot 0.655298
 3961         n3    200    ccc     N1   3961 -1.33770000  14.010000   ; qtot -0.682402
 3962         hn    200    ccc     H5   3962 0.47210000   1.008000   ; qtot -0.210302
 3963         hn    200    ccc     H6   3963 0.47210000   1.008000   ; qtot 0.261798
 3964          n    200    ccc     N2   3964 -0.59180000  14.010000   ; qtot -0.330002
 3965         hn    200    ccc     H7   3965 0.33000000   1.008000   ; qtot -0.000002
; residue  201 ccc rtp ccc q 0.0
 3966         c3    201    ccc     C1   3966 -0.02400000  12.010000   ; qtot -0.024002
 3967         h1    201    ccc     H1   3967 0.10170000   1.008000   ; qtot 0.077698
 3968         h1    201    ccc     H2   3968 0.10170000   1.008000   ; qtot 0.179398
 3969         c3    201    ccc     C2   3969 0.52570000  12.010000   ; qtot 0.705098
 3970         h1    201    ccc     H3   3970 -0.02490000   1.008000   ; qtot 0.680198
 3971         h1    201    ccc     H4   3971 -0.02490000   1.008000   ; qtot 0.655298
 3972         n3    201    ccc     N1   3972 -1.33770000  14.010000   ; qtot -0.682402
 3973         hn    201    ccc     H5   3973 0.47210000   1.008000   ; qtot -0.210302
 3974         hn    201    ccc     H6   3974 0.47210000   1.008000   ; qtot 0.261798
 3975          n    201    ccc     N2   3975 -0.59180000  14.010000   ; qtot -0.330001
 3976         hn    201    ccc     H7   3976 0.33000000   1.008000   ; qtot -0.000001
; residue  202 ccc rtp ccc q 0.0
 3977         c3    202    ccc     C1   3977 -0.02400000  12.010000   ; qtot -0.024001
 3978         h1    202    ccc     H1   3978 0.10170000   1.008000   ; qtot 0.077699
 3979         h1    202    ccc     H2   3979 0.10170000   1.008000   ; qtot 0.179399
 3980         c3    202    ccc     C2   3980 0.52570000  12.010000   ; qtot 0.705099
 3981         h1    202    ccc     H3   3981 -0.02490000   1.008000   ; qtot 0.680199
 3982         h1    202    ccc     H4   3982 -0.02490000   1.008000   ; qtot 0.655299
 3983         n3    202    ccc     N1   3983 -1.33770000  14.010000   ; qtot -0.682401
 3984         hn    202    ccc     H5   3984 0.47210000   1.008000   ; qtot -0.210301
 3985         hn    202    ccc     H6   3985 0.47210000   1.008000   ; qtot 0.261799
 3986          n    202    ccc     N2   3986 -0.59180000  14.010000   ; qtot -0.330001
 3987         hn    202    ccc     H7   3987 0.33000000   1.008000   ; qtot -0.000001
; residue  203 ccc rtp ccc q 0.0
 3988         c3    203    ccc     C1   3988 -0.02400000  12.010000   ; qtot -0.024001
 3989         h1    203    ccc     H1   3989 0.10170000   1.008000   ; qtot 0.077699
 3990         h1    203    ccc     H2   3990 0.10170000   1.008000   ; qtot 0.179399
 3991         c3    203    ccc     C2   3991 0.52570000  12.010000   ; qtot 0.705099
 3992         h1    203    ccc     H3   3992 -0.02490000   1.008000   ; qtot 0.680199
 3993         h1    203    ccc     H4   3993 -0.02490000   1.008000   ; qtot 0.655299
 3994         n3    203    ccc     N1   3994 -1.33770000  14.010000   ; qtot -0.682401
 3995         hn    203    ccc     H5   3995 0.47210000   1.008000   ; qtot -0.210301
 3996         hn    203    ccc     H6   3996 0.47210000   1.008000   ; qtot 0.261799
 3997          n    203    ccc     N2   3997 -0.59180000  14.010000   ; qtot -0.330001
 3998         hn    203    ccc     H7   3998 0.33000000   1.008000   ; qtot -0.000001
; residue  204 ccc rtp ccc q 0.0
 3999         c3    204    ccc     C1   3999 -0.02400000  12.010000   ; qtot -0.024001
 4000         h1    204    ccc     H1   4000 0.10170000   1.008000   ; qtot 0.077699
 4001         h1    204    ccc     H2   4001 0.10170000   1.008000   ; qtot 0.179399
 4002         c3    204    ccc     C2   4002 0.52570000  12.010000   ; qtot 0.705099
 4003         h1    204    ccc     H3   4003 -0.02490000   1.008000   ; qtot 0.680199
 4004         h1    204    ccc     H4   4004 -0.02490000   1.008000   ; qtot 0.655299
 4005         n3    204    ccc     N1   4005 -1.33770000  14.010000   ; qtot -0.682401
 4006         hn    204    ccc     H5   4006 0.47210000   1.008000   ; qtot -0.210301
 4007         hn    204    ccc     H6   4007 0.47210000   1.008000   ; qtot 0.261799
 4008          n    204    ccc     N2   4008 -0.59180000  14.010000   ; qtot -0.330001
 4009         hn    204    ccc     H7   4009 0.33000000   1.008000   ; qtot -0.000001
; residue  205 ccc rtp ccc q 0.0
 4010         c3    205    ccc     C1   4010 -0.02400000  12.010000   ; qtot -0.024001
 4011         h1    205    ccc     H1   4011 0.10170000   1.008000   ; qtot 0.077699
 4012         h1    205    ccc     H2   4012 0.10170000   1.008000   ; qtot 0.179399
 4013         c3    205    ccc     C2   4013 0.52570000  12.010000   ; qtot 0.705099
 4014         h1    205    ccc     H3   4014 -0.02490000   1.008000   ; qtot 0.680199
 4015         h1    205    ccc     H4   4015 -0.02490000   1.008000   ; qtot 0.655299
 4016         n3    205    ccc     N1   4016 -1.33770000  14.010000   ; qtot -0.682401
 4017         hn    205    ccc     H5   4017 0.47210000   1.008000   ; qtot -0.210301
 4018         hn    205    ccc     H6   4018 0.47210000   1.008000   ; qtot 0.261799
 4019          n    205    ccc     N2   4019 -0.59180000  14.010000   ; qtot -0.330001
 4020         hn    205    ccc     H7   4020 0.33000000   1.008000   ; qtot -0.000001
; residue  206 ccc rtp ccc q 0.0
 4021         c3    206    ccc     C1   4021 -0.02400000  12.010000   ; qtot -0.024001
 4022         h1    206    ccc     H1   4022 0.10170000   1.008000   ; qtot 0.077699
 4023         h1    206    ccc     H2   4023 0.10170000   1.008000   ; qtot 0.179399
 4024         c3    206    ccc     C2   4024 0.52570000  12.010000   ; qtot 0.705099
 4025         h1    206    ccc     H3   4025 -0.02490000   1.008000   ; qtot 0.680199
 4026         h1    206    ccc     H4   4026 -0.02490000   1.008000   ; qtot 0.655299
 4027         n3    206    ccc     N1   4027 -1.33770000  14.010000   ; qtot -0.682401
 4028         hn    206    ccc     H5   4028 0.47210000   1.008000   ; qtot -0.210301
 4029         hn    206    ccc     H6   4029 0.47210000   1.008000   ; qtot 0.261799
 4030          n    206    ccc     N2   4030 -0.59180000  14.010000   ; qtot -0.330001
 4031         hn    206    ccc     H7   4031 0.33000000   1.008000   ; qtot -0.000001
; residue  207 ccc rtp ccc q 0.0
 4032         c3    207    ccc     C1   4032 -0.02400000  12.010000   ; qtot -0.024001
 4033         h1    207    ccc     H1   4033 0.10170000   1.008000   ; qtot 0.077699
 4034         h1    207    ccc     H2   4034 0.10170000   1.008000   ; qtot 0.179399
 4035         c3    207    ccc     C2   4035 0.52570000  12.010000   ; qtot 0.705099
 4036         h1    207    ccc     H3   4036 -0.02490000   1.008000   ; qtot 0.680199
 4037         h1    207    ccc     H4   4037 -0.02490000   1.008000   ; qtot 0.655299
 4038         n3    207    ccc     N1   4038 -1.33770000  14.010000   ; qtot -0.682401
 4039         hn    207    ccc     H5   4039 0.47210000   1.008000   ; qtot -0.210301
 4040         hn    207    ccc     H6   4040 0.47210000   1.008000   ; qtot 0.261799
 4041          n    207    ccc     N2   4041 -0.59180000  14.010000   ; qtot -0.330001
 4042         hn    207    ccc     H7   4042 0.33000000   1.008000   ; qtot -0.000001
; residue  208 ccc rtp ccc q 0.0
 4043         c3    208    ccc     C1   4043 -0.02400000  12.010000   ; qtot -0.024001
 4044         h1    208    ccc     H1   4044 0.10170000   1.008000   ; qtot 0.077699
 4045         h1    208    ccc     H2   4045 0.10170000   1.008000   ; qtot 0.179399
 4046         c3    208    ccc     C2   4046 0.52570000  12.010000   ; qtot 0.705099
 4047         h1    208    ccc     H3   4047 -0.02490000   1.008000   ; qtot 0.680199
 4048         h1    208    ccc     H4   4048 -0.02490000   1.008000   ; qtot 0.655299
 4049         n3    208    ccc     N1   4049 -1.33770000  14.010000   ; qtot -0.682401
 4050         hn    208    ccc     H5   4050 0.47210000   1.008000   ; qtot -0.210301
 4051         hn    208    ccc     H6   4051 0.47210000   1.008000   ; qtot 0.261799
 4052          n    208    ccc     N2   4052 -0.59180000  14.010000   ; qtot -0.330001
 4053         hn    208    ccc     H7   4053 0.33000000   1.008000   ; qtot -0.000001
; residue  209 ccc rtp ccc q 0.0
 4054         c3    209    ccc     C1   4054 -0.02400000  12.010000   ; qtot -0.024001
 4055         h1    209    ccc     H1   4055 0.10170000   1.008000   ; qtot 0.077699
 4056         h1    209    ccc     H2   4056 0.10170000   1.008000   ; qtot 0.179399
 4057         c3    209    ccc     C2   4057 0.52570000  12.010000   ; qtot 0.705099
 4058         h1    209    ccc     H3   4058 -0.02490000   1.008000   ; qtot 0.680199
 4059         h1    209    ccc     H4   4059 -0.02490000   1.008000   ; qtot 0.655299
 4060         n3    209    ccc     N1   4060 -1.33770000  14.010000   ; qtot -0.682401
 4061         hn    209    ccc     H5   4061 0.47210000   1.008000   ; qtot -0.210301
 4062         hn    209    ccc     H6   4062 0.47210000   1.008000   ; qtot 0.261799
 4063          n    209    ccc     N2   4063 -0.59180000  14.010000   ; qtot -0.330001
 4064         hn    209    ccc     H7   4064 0.33000000   1.008000   ; qtot -0.000001
; residue  210 ccc rtp ccc q 0.0
 4065         c3    210    ccc     C1   4065 -0.02400000  12.010000   ; qtot -0.024001
 4066         h1    210    ccc     H1   4066 0.10170000   1.008000   ; qtot 0.077699
 4067         h1    210    ccc     H2   4067 0.10170000   1.008000   ; qtot 0.179399
 4068         c3    210    ccc     C2   4068 0.52570000  12.010000   ; qtot 0.705099
 4069         h1    210    ccc     H3   4069 -0.02490000   1.008000   ; qtot 0.680199
 4070         h1    210    ccc     H4   4070 -0.02490000   1.008000   ; qtot 0.655299
 4071         n3    210    ccc     N1   4071 -1.33770000  14.010000   ; qtot -0.682401
 4072         hn    210    ccc     H5   4072 0.47210000   1.008000   ; qtot -0.210301
 4073         hn    210    ccc     H6   4073 0.47210000   1.008000   ; qtot 0.261799
 4074          n    210    ccc     N2   4074 -0.59180000  14.010000   ; qtot -0.330001
 4075         hn    210    ccc     H7   4075 0.33000000   1.008000   ; qtot -0.000001
; residue  211 ccc rtp ccc q 0.0
 4076         c3    211    ccc     C1   4076 -0.02400000  12.010000   ; qtot -0.024001
 4077         h1    211    ccc     H1   4077 0.10170000   1.008000   ; qtot 0.077699
 4078         h1    211    ccc     H2   4078 0.10170000   1.008000   ; qtot 0.179399
 4079         c3    211    ccc     C2   4079 0.52570000  12.010000   ; qtot 0.705099
 4080         h1    211    ccc     H3   4080 -0.02490000   1.008000   ; qtot 0.680199
 4081         h1    211    ccc     H4   4081 -0.02490000   1.008000   ; qtot 0.655299
 4082         n3    211    ccc     N1   4082 -1.33770000  14.010000   ; qtot -0.682401
 4083         hn    211    ccc     H5   4083 0.47210000   1.008000   ; qtot -0.210301
 4084         hn    211    ccc     H6   4084 0.47210000   1.008000   ; qtot 0.261799
 4085          n    211    ccc     N2   4085 -0.59180000  14.010000   ; qtot -0.330001
 4086         hn    211    ccc     H7   4086 0.33000000   1.008000   ; qtot -0.000001
; residue  212 ccc rtp ccc q 0.0
 4087         c3    212    ccc     C1   4087 -0.02400000  12.010000   ; qtot -0.024001
 4088         h1    212    ccc     H1   4088 0.10170000   1.008000   ; qtot 0.077699
 4089         h1    212    ccc     H2   4089 0.10170000   1.008000   ; qtot 0.179399
 4090         c3    212    ccc     C2   4090 0.52570000  12.010000   ; qtot 0.705099
 4091         h1    212    ccc     H3   4091 -0.02490000   1.008000   ; qtot 0.680199
 4092         h1    212    ccc     H4   4092 -0.02490000   1.008000   ; qtot 0.655299
 4093         n3    212    ccc     N1   4093 -1.33770000  14.010000   ; qtot -0.682401
 4094         hn    212    ccc     H5   4094 0.47210000   1.008000   ; qtot -0.210301
 4095         hn    212    ccc     H6   4095 0.47210000   1.008000   ; qtot 0.261799
 4096          n    212    ccc     N2   4096 -0.59180000  14.010000   ; qtot -0.330001
 4097         hn    212    ccc     H7   4097 0.33000000   1.008000   ; qtot -0.000001
; residue  213 ccc rtp ccc q 0.0
 4098         c3    213    ccc     C1   4098 -0.02400000  12.010000   ; qtot -0.024001
 4099         h1    213    ccc     H1   4099 0.10170000   1.008000   ; qtot 0.077699
 4100         h1    213    ccc     H2   4100 0.10170000   1.008000   ; qtot 0.179399
 4101         c3    213    ccc     C2   4101 0.52570000  12.010000   ; qtot 0.705099
 4102         h1    213    ccc     H3   4102 -0.02490000   1.008000   ; qtot 0.680199
 4103         h1    213    ccc     H4   4103 -0.02490000   1.008000   ; qtot 0.655299
 4104         n3    213    ccc     N1   4104 -1.33770000  14.010000   ; qtot -0.682401
 4105         hn    213    ccc     H5   4105 0.47210000   1.008000   ; qtot -0.210301
 4106         hn    213    ccc     H6   4106 0.47210000   1.008000   ; qtot 0.261799
 4107          n    213    ccc     N2   4107 -0.59180000  14.010000   ; qtot -0.330001
 4108         hn    213    ccc     H7   4108 0.33000000   1.008000   ; qtot -0.000001
; residue  214 ccc rtp ccc q 0.0
 4109         c3    214    ccc     C1   4109 -0.02400000  12.010000   ; qtot -0.024001
 4110         h1    214    ccc     H1   4110 0.10170000   1.008000   ; qtot 0.077699
 4111         h1    214    ccc     H2   4111 0.10170000   1.008000   ; qtot 0.179399
 4112         c3    214    ccc     C2   4112 0.52570000  12.010000   ; qtot 0.705099
 4113         h1    214    ccc     H3   4113 -0.02490000   1.008000   ; qtot 0.680199
 4114         h1    214    ccc     H4   4114 -0.02490000   1.008000   ; qtot 0.655299
 4115         n3    214    ccc     N1   4115 -1.33770000  14.010000   ; qtot -0.682401
 4116         hn    214    ccc     H5   4116 0.47210000   1.008000   ; qtot -0.210301
 4117         hn    214    ccc     H6   4117 0.47210000   1.008000   ; qtot 0.261799
 4118          n    214    ccc     N2   4118 -0.59180000  14.010000   ; qtot -0.330001
 4119         hn    214    ccc     H7   4119 0.33000000   1.008000   ; qtot -0.000001
; residue  215 ccc rtp ccc q 0.0
 4120         c3    215    ccc     C1   4120 -0.02400000  12.010000   ; qtot -0.024001
 4121         h1    215    ccc     H1   4121 0.10170000   1.008000   ; qtot 0.077699
 4122         h1    215    ccc     H2   4122 0.10170000   1.008000   ; qtot 0.179399
 4123         c3    215    ccc     C2   4123 0.52570000  12.010000   ; qtot 0.705099
 4124         h1    215    ccc     H3   4124 -0.02490000   1.008000   ; qtot 0.680199
 4125         h1    215    ccc     H4   4125 -0.02490000   1.008000   ; qtot 0.655299
 4126         n3    215    ccc     N1   4126 -1.33770000  14.010000   ; qtot -0.682401
 4127         hn    215    ccc     H5   4127 0.47210000   1.008000   ; qtot -0.210301
 4128         hn    215    ccc     H6   4128 0.47210000   1.008000   ; qtot 0.261799
 4129          n    215    ccc     N2   4129 -0.59180000  14.010000   ; qtot -0.330001
 4130         hn    215    ccc     H7   4130 0.33000000   1.008000   ; qtot -0.000001
; residue  216 ccc rtp ccc q 0.0
 4131         c3    216    ccc     C1   4131 -0.02400000  12.010000   ; qtot -0.024001
 4132         h1    216    ccc     H1   4132 0.10170000   1.008000   ; qtot 0.077699
 4133         h1    216    ccc     H2   4133 0.10170000   1.008000   ; qtot 0.179399
 4134         c3    216    ccc     C2   4134 0.52570000  12.010000   ; qtot 0.705099
 4135         h1    216    ccc     H3   4135 -0.02490000   1.008000   ; qtot 0.680199
 4136         h1    216    ccc     H4   4136 -0.02490000   1.008000   ; qtot 0.655299
 4137         n3    216    ccc     N1   4137 -1.33770000  14.010000   ; qtot -0.682401
 4138         hn    216    ccc     H5   4138 0.47210000   1.008000   ; qtot -0.210301
 4139         hn    216    ccc     H6   4139 0.47210000   1.008000   ; qtot 0.261799
 4140          n    216    ccc     N2   4140 -0.59180000  14.010000   ; qtot -0.330001
 4141         hn    216    ccc     H7   4141 0.33000000   1.008000   ; qtot -0.000001
; residue  217 ccc rtp ccc q 0.0
 4142         c3    217    ccc     C1   4142 -0.02400000  12.010000   ; qtot -0.024001
 4143         h1    217    ccc     H1   4143 0.10170000   1.008000   ; qtot 0.077699
 4144         h1    217    ccc     H2   4144 0.10170000   1.008000   ; qtot 0.179399
 4145         c3    217    ccc     C2   4145 0.52570000  12.010000   ; qtot 0.705099
 4146         h1    217    ccc     H3   4146 -0.02490000   1.008000   ; qtot 0.680199
 4147         h1    217    ccc     H4   4147 -0.02490000   1.008000   ; qtot 0.655299
 4148         n3    217    ccc     N1   4148 -1.33770000  14.010000   ; qtot -0.682401
 4149         hn    217    ccc     H5   4149 0.47210000   1.008000   ; qtot -0.210301
 4150         hn    217    ccc     H6   4150 0.47210000   1.008000   ; qtot 0.261799
 4151          n    217    ccc     N2   4151 -0.59180000  14.010000   ; qtot -0.330001
 4152         hn    217    ccc     H7   4152 0.33000000   1.008000   ; qtot -0.000001
; residue  218 ccc rtp ccc q 0.0
 4153         c3    218    ccc     C1   4153 -0.02400000  12.010000   ; qtot -0.024001
 4154         h1    218    ccc     H1   4154 0.10170000   1.008000   ; qtot 0.077699
 4155         h1    218    ccc     H2   4155 0.10170000   1.008000   ; qtot 0.179399
 4156         c3    218    ccc     C2   4156 0.52570000  12.010000   ; qtot 0.705099
 4157         h1    218    ccc     H3   4157 -0.02490000   1.008000   ; qtot 0.680199
 4158         h1    218    ccc     H4   4158 -0.02490000   1.008000   ; qtot 0.655299
 4159         n3    218    ccc     N1   4159 -1.33770000  14.010000   ; qtot -0.682401
 4160         hn    218    ccc     H5   4160 0.47210000   1.008000   ; qtot -0.210301
 4161         hn    218    ccc     H6   4161 0.47210000   1.008000   ; qtot 0.261799
 4162          n    218    ccc     N2   4162 -0.59180000  14.010000   ; qtot -0.330001
 4163         hn    218    ccc     H7   4163 0.33000000   1.008000   ; qtot -0.000001
; residue  219 ccc rtp ccc q 0.0
 4164         c3    219    ccc     C1   4164 -0.02400000  12.010000   ; qtot -0.024001
 4165         h1    219    ccc     H1   4165 0.10170000   1.008000   ; qtot 0.077699
 4166         h1    219    ccc     H2   4166 0.10170000   1.008000   ; qtot 0.179399
 4167         c3    219    ccc     C2   4167 0.52570000  12.010000   ; qtot 0.705099
 4168         h1    219    ccc     H3   4168 -0.02490000   1.008000   ; qtot 0.680199
 4169         h1    219    ccc     H4   4169 -0.02490000   1.008000   ; qtot 0.655299
 4170         n3    219    ccc     N1   4170 -1.33770000  14.010000   ; qtot -0.682401
 4171         hn    219    ccc     H5   4171 0.47210000   1.008000   ; qtot -0.210301
 4172         hn    219    ccc     H6   4172 0.47210000   1.008000   ; qtot 0.261799
 4173          n    219    ccc     N2   4173 -0.59180000  14.010000   ; qtot -0.330001
 4174         hn    219    ccc     H7   4174 0.33000000   1.008000   ; qtot -0.000001
; residue  220 ccc rtp ccc q 0.0
 4175         c3    220    ccc     C1   4175 -0.02400000  12.010000   ; qtot -0.024001
 4176         h1    220    ccc     H1   4176 0.10170000   1.008000   ; qtot 0.077699
 4177         h1    220    ccc     H2   4177 0.10170000   1.008000   ; qtot 0.179399
 4178         c3    220    ccc     C2   4178 0.52570000  12.010000   ; qtot 0.705099
 4179         h1    220    ccc     H3   4179 -0.02490000   1.008000   ; qtot 0.680199
 4180         h1    220    ccc     H4   4180 -0.02490000   1.008000   ; qtot 0.655299
 4181         n3    220    ccc     N1   4181 -1.33770000  14.010000   ; qtot -0.682401
 4182         hn    220    ccc     H5   4182 0.47210000   1.008000   ; qtot -0.210301
 4183         hn    220    ccc     H6   4183 0.47210000   1.008000   ; qtot 0.261799
 4184          n    220    ccc     N2   4184 -0.59180000  14.010000   ; qtot -0.330001
 4185         hn    220    ccc     H7   4185 0.33000000   1.008000   ; qtot -0.000001
; residue  221 ccc rtp ccc q 0.0
 4186         c3    221    ccc     C1   4186 -0.02400000  12.010000   ; qtot -0.024001
 4187         h1    221    ccc     H1   4187 0.10170000   1.008000   ; qtot 0.077699
 4188         h1    221    ccc     H2   4188 0.10170000   1.008000   ; qtot 0.179399
 4189         c3    221    ccc     C2   4189 0.52570000  12.010000   ; qtot 0.705099
 4190         h1    221    ccc     H3   4190 -0.02490000   1.008000   ; qtot 0.680199
 4191         h1    221    ccc     H4   4191 -0.02490000   1.008000   ; qtot 0.655299
 4192         n3    221    ccc     N1   4192 -1.33770000  14.010000   ; qtot -0.682401
 4193         hn    221    ccc     H5   4193 0.47210000   1.008000   ; qtot -0.210301
 4194         hn    221    ccc     H6   4194 0.47210000   1.008000   ; qtot 0.261799
 4195          n    221    ccc     N2   4195 -0.59180000  14.010000   ; qtot -0.330001
 4196         hn    221    ccc     H7   4196 0.33000000   1.008000   ; qtot -0.000001
; residue  222 ccc rtp ccc q 0.0
 4197         c3    222    ccc     C1   4197 -0.02400000  12.010000   ; qtot -0.024001
 4198         h1    222    ccc     H1   4198 0.10170000   1.008000   ; qtot 0.077699
 4199         h1    222    ccc     H2   4199 0.10170000   1.008000   ; qtot 0.179399
 4200         c3    222    ccc     C2   4200 0.52570000  12.010000   ; qtot 0.705099
 4201         h1    222    ccc     H3   4201 -0.02490000   1.008000   ; qtot 0.680199
 4202         h1    222    ccc     H4   4202 -0.02490000   1.008000   ; qtot 0.655299
 4203         n3    222    ccc     N1   4203 -1.33770000  14.010000   ; qtot -0.682401
 4204         hn    222    ccc     H5   4204 0.47210000   1.008000   ; qtot -0.210301
 4205         hn    222    ccc     H6   4205 0.47210000   1.008000   ; qtot 0.261799
 4206          n    222    ccc     N2   4206 -0.59180000  14.010000   ; qtot -0.330001
 4207         hn    222    ccc     H7   4207 0.33000000   1.008000   ; qtot -0.000001
; residue  223 ccc rtp ccc q 0.0
 4208         c3    223    ccc     C1   4208 -0.02400000  12.010000   ; qtot -0.024001
 4209         h1    223    ccc     H1   4209 0.10170000   1.008000   ; qtot 0.077699
 4210         h1    223    ccc     H2   4210 0.10170000   1.008000   ; qtot 0.179399
 4211         c3    223    ccc     C2   4211 0.52570000  12.010000   ; qtot 0.705099
 4212         h1    223    ccc     H3   4212 -0.02490000   1.008000   ; qtot 0.680199
 4213         h1    223    ccc     H4   4213 -0.02490000   1.008000   ; qtot 0.655299
 4214         n3    223    ccc     N1   4214 -1.33770000  14.010000   ; qtot -0.682401
 4215         hn    223    ccc     H5   4215 0.47210000   1.008000   ; qtot -0.210301
 4216         hn    223    ccc     H6   4216 0.47210000   1.008000   ; qtot 0.261799
 4217          n    223    ccc     N2   4217 -0.59180000  14.010000   ; qtot -0.330001
 4218         hn    223    ccc     H7   4218 0.33000000   1.008000   ; qtot -0.000001
; residue  224 ccc rtp ccc q 0.0
 4219         c3    224    ccc     C1   4219 -0.02400000  12.010000   ; qtot -0.024001
 4220         h1    224    ccc     H1   4220 0.10170000   1.008000   ; qtot 0.077699
 4221         h1    224    ccc     H2   4221 0.10170000   1.008000   ; qtot 0.179399
 4222         c3    224    ccc     C2   4222 0.52570000  12.010000   ; qtot 0.705099
 4223         h1    224    ccc     H3   4223 -0.02490000   1.008000   ; qtot 0.680199
 4224         h1    224    ccc     H4   4224 -0.02490000   1.008000   ; qtot 0.655299
 4225         n3    224    ccc     N1   4225 -1.33770000  14.010000   ; qtot -0.682401
 4226         hn    224    ccc     H5   4226 0.47210000   1.008000   ; qtot -0.210301
 4227         hn    224    ccc     H6   4227 0.47210000   1.008000   ; qtot 0.261799
 4228          n    224    ccc     N2   4228 -0.59180000  14.010000   ; qtot -0.330001
 4229         hn    224    ccc     H7   4229 0.33000000   1.008000   ; qtot -0.000001
; residue  225 ccc rtp ccc q 0.0
 4230         c3    225    ccc     C1   4230 -0.02400000  12.010000   ; qtot -0.024001
 4231         h1    225    ccc     H1   4231 0.10170000   1.008000   ; qtot 0.077699
 4232         h1    225    ccc     H2   4232 0.10170000   1.008000   ; qtot 0.179399
 4233         c3    225    ccc     C2   4233 0.52570000  12.010000   ; qtot 0.705099
 4234         h1    225    ccc     H3   4234 -0.02490000   1.008000   ; qtot 0.680199
 4235         h1    225    ccc     H4   4235 -0.02490000   1.008000   ; qtot 0.655299
 4236         n3    225    ccc     N1   4236 -1.33770000  14.010000   ; qtot -0.682401
 4237         hn    225    ccc     H5   4237 0.47210000   1.008000   ; qtot -0.210301
 4238         hn    225    ccc     H6   4238 0.47210000   1.008000   ; qtot 0.261799
 4239          n    225    ccc     N2   4239 -0.59180000  14.010000   ; qtot -0.330001
 4240         hn    225    ccc     H7   4240 0.33000000   1.008000   ; qtot -0.000001
; residue  226 ccc rtp ccc q 0.0
 4241         c3    226    ccc     C1   4241 -0.02400000  12.010000   ; qtot -0.024001
 4242         h1    226    ccc     H1   4242 0.10170000   1.008000   ; qtot 0.077699
 4243         h1    226    ccc     H2   4243 0.10170000   1.008000   ; qtot 0.179399
 4244         c3    226    ccc     C2   4244 0.52570000  12.010000   ; qtot 0.705099
 4245         h1    226    ccc     H3   4245 -0.02490000   1.008000   ; qtot 0.680199
 4246         h1    226    ccc     H4   4246 -0.02490000   1.008000   ; qtot 0.655299
 4247         n3    226    ccc     N1   4247 -1.33770000  14.010000   ; qtot -0.682401
 4248         hn    226    ccc     H5   4248 0.47210000   1.008000   ; qtot -0.210301
 4249         hn    226    ccc     H6   4249 0.47210000   1.008000   ; qtot 0.261799
 4250          n    226    ccc     N2   4250 -0.59180000  14.010000   ; qtot -0.330001
 4251         hn    226    ccc     H7   4251 0.33000000   1.008000   ; qtot -0.000001
; residue  227 ccc rtp ccc q 0.0
 4252         c3    227    ccc     C1   4252 -0.02400000  12.010000   ; qtot -0.024001
 4253         h1    227    ccc     H1   4253 0.10170000   1.008000   ; qtot 0.077699
 4254         h1    227    ccc     H2   4254 0.10170000   1.008000   ; qtot 0.179399
 4255         c3    227    ccc     C2   4255 0.52570000  12.010000   ; qtot 0.705099
 4256         h1    227    ccc     H3   4256 -0.02490000   1.008000   ; qtot 0.680199
 4257         h1    227    ccc     H4   4257 -0.02490000   1.008000   ; qtot 0.655299
 4258         n3    227    ccc     N1   4258 -1.33770000  14.010000   ; qtot -0.682401
 4259         hn    227    ccc     H5   4259 0.47210000   1.008000   ; qtot -0.210301
 4260         hn    227    ccc     H6   4260 0.47210000   1.008000   ; qtot 0.261799
 4261          n    227    ccc     N2   4261 -0.59180000  14.010000   ; qtot -0.330001
 4262         hn    227    ccc     H7   4262 0.33000000   1.008000   ; qtot -0.000001
; residue  228 ccc rtp ccc q 0.0
 4263         c3    228    ccc     C1   4263 -0.02400000  12.010000   ; qtot -0.024001
 4264         h1    228    ccc     H1   4264 0.10170000   1.008000   ; qtot 0.077699
 4265         h1    228    ccc     H2   4265 0.10170000   1.008000   ; qtot 0.179399
 4266         c3    228    ccc     C2   4266 0.52570000  12.010000   ; qtot 0.705099
 4267         h1    228    ccc     H3   4267 -0.02490000   1.008000   ; qtot 0.680199
 4268         h1    228    ccc     H4   4268 -0.02490000   1.008000   ; qtot 0.655299
 4269         n3    228    ccc     N1   4269 -1.33770000  14.010000   ; qtot -0.682401
 4270         hn    228    ccc     H5   4270 0.47210000   1.008000   ; qtot -0.210301
 4271         hn    228    ccc     H6   4271 0.47210000   1.008000   ; qtot 0.261799
 4272          n    228    ccc     N2   4272 -0.59180000  14.010000   ; qtot -0.330001
 4273         hn    228    ccc     H7   4273 0.33000000   1.008000   ; qtot -0.000001
; residue  229 ccc rtp ccc q 0.0
 4274         c3    229    ccc     C1   4274 -0.02400000  12.010000   ; qtot -0.024001
 4275         h1    229    ccc     H1   4275 0.10170000   1.008000   ; qtot 0.077699
 4276         h1    229    ccc     H2   4276 0.10170000   1.008000   ; qtot 0.179399
 4277         c3    229    ccc     C2   4277 0.52570000  12.010000   ; qtot 0.705099
 4278         h1    229    ccc     H3   4278 -0.02490000   1.008000   ; qtot 0.680199
 4279         h1    229    ccc     H4   4279 -0.02490000   1.008000   ; qtot 0.655299
 4280         n3    229    ccc     N1   4280 -1.33770000  14.010000   ; qtot -0.682401
 4281         hn    229    ccc     H5   4281 0.47210000   1.008000   ; qtot -0.210301
 4282         hn    229    ccc     H6   4282 0.47210000   1.008000   ; qtot 0.261799
 4283          n    229    ccc     N2   4283 -0.59180000  14.010000   ; qtot -0.330001
 4284         hn    229    ccc     H7   4284 0.33000000   1.008000   ; qtot -0.000001
; residue  230 ccc rtp ccc q 0.0
 4285         c3    230    ccc     C1   4285 -0.02400000  12.010000   ; qtot -0.024001
 4286         h1    230    ccc     H1   4286 0.10170000   1.008000   ; qtot 0.077699
 4287         h1    230    ccc     H2   4287 0.10170000   1.008000   ; qtot 0.179399
 4288         c3    230    ccc     C2   4288 0.52570000  12.010000   ; qtot 0.705099
 4289         h1    230    ccc     H3   4289 -0.02490000   1.008000   ; qtot 0.680199
 4290         h1    230    ccc     H4   4290 -0.02490000   1.008000   ; qtot 0.655299
 4291         n3    230    ccc     N1   4291 -1.33770000  14.010000   ; qtot -0.682401
 4292         hn    230    ccc     H5   4292 0.47210000   1.008000   ; qtot -0.210301
 4293         hn    230    ccc     H6   4293 0.47210000   1.008000   ; qtot 0.261799
 4294          n    230    ccc     N2   4294 -0.59180000  14.010000   ; qtot -0.330001
 4295         hn    230    ccc     H7   4295 0.33000000   1.008000   ; qtot -0.000001
; residue  231 ccc rtp ccc q 0.0
 4296         c3    231    ccc     C1   4296 -0.02400000  12.010000   ; qtot -0.024001
 4297         h1    231    ccc     H1   4297 0.10170000   1.008000   ; qtot 0.077699
 4298         h1    231    ccc     H2   4298 0.10170000   1.008000   ; qtot 0.179399
 4299         c3    231    ccc     C2   4299 0.52570000  12.010000   ; qtot 0.705099
 4300         h1    231    ccc     H3   4300 -0.02490000   1.008000   ; qtot 0.680199
 4301         h1    231    ccc     H4   4301 -0.02490000   1.008000   ; qtot 0.655299
 4302         n3    231    ccc     N1   4302 -1.33770000  14.010000   ; qtot -0.682401
 4303         hn    231    ccc     H5   4303 0.47210000   1.008000   ; qtot -0.210301
 4304         hn    231    ccc     H6   4304 0.47210000   1.008000   ; qtot 0.261799
 4305          n    231    ccc     N2   4305 -0.59180000  14.010000   ; qtot -0.330001
 4306         hn    231    ccc     H7   4306 0.33000000   1.008000   ; qtot -0.000001
; residue  232 ccc rtp ccc q 0.0
 4307         c3    232    ccc     C1   4307 -0.02400000  12.010000   ; qtot -0.024001
 4308         h1    232    ccc     H1   4308 0.10170000   1.008000   ; qtot 0.077699
 4309         h1    232    ccc     H2   4309 0.10170000   1.008000   ; qtot 0.179399
 4310         c3    232    ccc     C2   4310 0.52570000  12.010000   ; qtot 0.705099
 4311         h1    232    ccc     H3   4311 -0.02490000   1.008000   ; qtot 0.680199
 4312         h1    232    ccc     H4   4312 -0.02490000   1.008000   ; qtot 0.655299
 4313         n3    232    ccc     N1   4313 -1.33770000  14.010000   ; qtot -0.682401
 4314         hn    232    ccc     H5   4314 0.47210000   1.008000   ; qtot -0.210301
 4315         hn    232    ccc     H6   4315 0.47210000   1.008000   ; qtot 0.261799
 4316          n    232    ccc     N2   4316 -0.59180000  14.010000   ; qtot -0.330001
 4317         hn    232    ccc     H7   4317 0.33000000   1.008000   ; qtot -0.000001
; residue  233 ccc rtp ccc q 0.0
 4318         c3    233    ccc     C1   4318 -0.02400000  12.010000   ; qtot -0.024001
 4319         h1    233    ccc     H1   4319 0.10170000   1.008000   ; qtot 0.077699
 4320         h1    233    ccc     H2   4320 0.10170000   1.008000   ; qtot 0.179399
 4321         c3    233    ccc     C2   4321 0.52570000  12.010000   ; qtot 0.705099
 4322         h1    233    ccc     H3   4322 -0.02490000   1.008000   ; qtot 0.680199
 4323         h1    233    ccc     H4   4323 -0.02490000   1.008000   ; qtot 0.655299
 4324         n3    233    ccc     N1   4324 -1.33770000  14.010000   ; qtot -0.682401
 4325         hn    233    ccc     H5   4325 0.47210000   1.008000   ; qtot -0.210301
 4326         hn    233    ccc     H6   4326 0.47210000   1.008000   ; qtot 0.261799
 4327          n    233    ccc     N2   4327 -0.59180000  14.010000   ; qtot -0.330001
 4328         hn    233    ccc     H7   4328 0.33000000   1.008000   ; qtot -0.000001
; residue  234 ccc rtp ccc q 0.0
 4329         c3    234    ccc     C1   4329 -0.02400000  12.010000   ; qtot -0.024001
 4330         h1    234    ccc     H1   4330 0.10170000   1.008000   ; qtot 0.077699
 4331         h1    234    ccc     H2   4331 0.10170000   1.008000   ; qtot 0.179399
 4332         c3    234    ccc     C2   4332 0.52570000  12.010000   ; qtot 0.705099
 4333         h1    234    ccc     H3   4333 -0.02490000   1.008000   ; qtot 0.680199
 4334         h1    234    ccc     H4   4334 -0.02490000   1.008000   ; qtot 0.655299
 4335         n3    234    ccc     N1   4335 -1.33770000  14.010000   ; qtot -0.682401
 4336         hn    234    ccc     H5   4336 0.47210000   1.008000   ; qtot -0.210301
 4337         hn    234    ccc     H6   4337 0.47210000   1.008000   ; qtot 0.261799
 4338          n    234    ccc     N2   4338 -0.59180000  14.010000   ; qtot -0.330001
 4339         hn    234    ccc     H7   4339 0.33000000   1.008000   ; qtot -0.000001
; residue  235 ccc rtp ccc q 0.0
 4340         c3    235    ccc     C1   4340 -0.02400000  12.010000   ; qtot -0.024001
 4341         h1    235    ccc     H1   4341 0.10170000   1.008000   ; qtot 0.077699
 4342         h1    235    ccc     H2   4342 0.10170000   1.008000   ; qtot 0.179399
 4343         c3    235    ccc     C2   4343 0.52570000  12.010000   ; qtot 0.705099
 4344         h1    235    ccc     H3   4344 -0.02490000   1.008000   ; qtot 0.680199
 4345         h1    235    ccc     H4   4345 -0.02490000   1.008000   ; qtot 0.655299
 4346         n3    235    ccc     N1   4346 -1.33770000  14.010000   ; qtot -0.682401
 4347         hn    235    ccc     H5   4347 0.47210000   1.008000   ; qtot -0.210301
 4348         hn    235    ccc     H6   4348 0.47210000   1.008000   ; qtot 0.261799
 4349          n    235    ccc     N2   4349 -0.59180000  14.010000   ; qtot -0.330001
 4350         hn    235    ccc     H7   4350 0.33000000   1.008000   ; qtot -0.000001
; residue  236 ccc rtp ccc q 0.0
 4351         c3    236    ccc     C1   4351 -0.02400000  12.010000   ; qtot -0.024001
 4352         h1    236    ccc     H1   4352 0.10170000   1.008000   ; qtot 0.077699
 4353         h1    236    ccc     H2   4353 0.10170000   1.008000   ; qtot 0.179399
 4354         c3    236    ccc     C2   4354 0.52570000  12.010000   ; qtot 0.705099
 4355         h1    236    ccc     H3   4355 -0.02490000   1.008000   ; qtot 0.680199
 4356         h1    236    ccc     H4   4356 -0.02490000   1.008000   ; qtot 0.655299
 4357         n3    236    ccc     N1   4357 -1.33770000  14.010000   ; qtot -0.682401
 4358         hn    236    ccc     H5   4358 0.47210000   1.008000   ; qtot -0.210301
 4359         hn    236    ccc     H6   4359 0.47210000   1.008000   ; qtot 0.261799
 4360          n    236    ccc     N2   4360 -0.59180000  14.010000   ; qtot -0.330001
 4361         hn    236    ccc     H7   4361 0.33000000   1.008000   ; qtot -0.000001
; residue  237 ccc rtp ccc q 0.0
 4362         c3    237    ccc     C1   4362 -0.02400000  12.010000   ; qtot -0.024001
 4363         h1    237    ccc     H1   4363 0.10170000   1.008000   ; qtot 0.077699
 4364         h1    237    ccc     H2   4364 0.10170000   1.008000   ; qtot 0.179399
 4365         c3    237    ccc     C2   4365 0.52570000  12.010000   ; qtot 0.705099
 4366         h1    237    ccc     H3   4366 -0.02490000   1.008000   ; qtot 0.680199
 4367         h1    237    ccc     H4   4367 -0.02490000   1.008000   ; qtot 0.655299
 4368         n3    237    ccc     N1   4368 -1.33770000  14.010000   ; qtot -0.682401
 4369         hn    237    ccc     H5   4369 0.47210000   1.008000   ; qtot -0.210301
 4370         hn    237    ccc     H6   4370 0.47210000   1.008000   ; qtot 0.261799
 4371          n    237    ccc     N2   4371 -0.59180000  14.010000   ; qtot -0.330001
 4372         hn    237    ccc     H7   4372 0.33000000   1.008000   ; qtot -0.000001
; residue  238 ccc rtp ccc q 0.0
 4373         c3    238    ccc     C1   4373 -0.02400000  12.010000   ; qtot -0.024001
 4374         h1    238    ccc     H1   4374 0.10170000   1.008000   ; qtot 0.077699
 4375         h1    238    ccc     H2   4375 0.10170000   1.008000   ; qtot 0.179399
 4376         c3    238    ccc     C2   4376 0.52570000  12.010000   ; qtot 0.705099
 4377         h1    238    ccc     H3   4377 -0.02490000   1.008000   ; qtot 0.680199
 4378         h1    238    ccc     H4   4378 -0.02490000   1.008000   ; qtot 0.655299
 4379         n3    238    ccc     N1   4379 -1.33770000  14.010000   ; qtot -0.682401
 4380         hn    238    ccc     H5   4380 0.47210000   1.008000   ; qtot -0.210301
 4381         hn    238    ccc     H6   4381 0.47210000   1.008000   ; qtot 0.261799
 4382          n    238    ccc     N2   4382 -0.59180000  14.010000   ; qtot -0.330001
 4383         hn    238    ccc     H7   4383 0.33000000   1.008000   ; qtot -0.000001
; residue  239 ccc rtp ccc q 0.0
 4384         c3    239    ccc     C1   4384 -0.02400000  12.010000   ; qtot -0.024001
 4385         h1    239    ccc     H1   4385 0.10170000   1.008000   ; qtot 0.077699
 4386         h1    239    ccc     H2   4386 0.10170000   1.008000   ; qtot 0.179399
 4387         c3    239    ccc     C2   4387 0.52570000  12.010000   ; qtot 0.705099
 4388         h1    239    ccc     H3   4388 -0.02490000   1.008000   ; qtot 0.680199
 4389         h1    239    ccc     H4   4389 -0.02490000   1.008000   ; qtot 0.655299
 4390         n3    239    ccc     N1   4390 -1.33770000  14.010000   ; qtot -0.682401
 4391         hn    239    ccc     H5   4391 0.47210000   1.008000   ; qtot -0.210301
 4392         hn    239    ccc     H6   4392 0.47210000   1.008000   ; qtot 0.261799
 4393          n    239    ccc     N2   4393 -0.59180000  14.010000   ; qtot -0.330001
 4394         hn    239    ccc     H7   4394 0.33000000   1.008000   ; qtot -0.000001
; residue  240 ccc rtp ccc q 0.0
 4395         c3    240    ccc     C1   4395 -0.02400000  12.010000   ; qtot -0.024001
 4396         h1    240    ccc     H1   4396 0.10170000   1.008000   ; qtot 0.077699
 4397         h1    240    ccc     H2   4397 0.10170000   1.008000   ; qtot 0.179399
 4398         c3    240    ccc     C2   4398 0.52570000  12.010000   ; qtot 0.705099
 4399         h1    240    ccc     H3   4399 -0.02490000   1.008000   ; qtot 0.680199
 4400         h1    240    ccc     H4   4400 -0.02490000   1.008000   ; qtot 0.655299
 4401         n3    240    ccc     N1   4401 -1.33770000  14.010000   ; qtot -0.682401
 4402         hn    240    ccc     H5   4402 0.47210000   1.008000   ; qtot -0.210301
 4403         hn    240    ccc     H6   4403 0.47210000   1.008000   ; qtot 0.261799
 4404          n    240    ccc     N2   4404 -0.59180000  14.010000   ; qtot -0.330001
 4405         hn    240    ccc     H7   4405 0.33000000   1.008000   ; qtot -0.000001
; residue  241 ccc rtp ccc q 0.0
 4406         c3    241    ccc     C1   4406 -0.02400000  12.010000   ; qtot -0.024001
 4407         h1    241    ccc     H1   4407 0.10170000   1.008000   ; qtot 0.077699
 4408         h1    241    ccc     H2   4408 0.10170000   1.008000   ; qtot 0.179399
 4409         c3    241    ccc     C2   4409 0.52570000  12.010000   ; qtot 0.705099
 4410         h1    241    ccc     H3   4410 -0.02490000   1.008000   ; qtot 0.680199
 4411         h1    241    ccc     H4   4411 -0.02490000   1.008000   ; qtot 0.655299
 4412         n3    241    ccc     N1   4412 -1.33770000  14.010000   ; qtot -0.682401
 4413         hn    241    ccc     H5   4413 0.47210000   1.008000   ; qtot -0.210301
 4414         hn    241    ccc     H6   4414 0.47210000   1.008000   ; qtot 0.261799
 4415          n    241    ccc     N2   4415 -0.59180000  14.010000   ; qtot -0.330001
 4416         hn    241    ccc     H7   4416 0.33000000   1.008000   ; qtot -0.000001
; residue  242 ccc rtp ccc q 0.0
 4417         c3    242    ccc     C1   4417 -0.02400000  12.010000   ; qtot -0.024001
 4418         h1    242    ccc     H1   4418 0.10170000   1.008000   ; qtot 0.077699
 4419         h1    242    ccc     H2   4419 0.10170000   1.008000   ; qtot 0.179399
 4420         c3    242    ccc     C2   4420 0.52570000  12.010000   ; qtot 0.705099
 4421         h1    242    ccc     H3   4421 -0.02490000   1.008000   ; qtot 0.680199
 4422         h1    242    ccc     H4   4422 -0.02490000   1.008000   ; qtot 0.655299
 4423         n3    242    ccc     N1   4423 -1.33770000  14.010000   ; qtot -0.682401
 4424         hn    242    ccc     H5   4424 0.47210000   1.008000   ; qtot -0.210301
 4425         hn    242    ccc     H6   4425 0.47210000   1.008000   ; qtot 0.261799
 4426          n    242    ccc     N2   4426 -0.59180000  14.010000   ; qtot -0.330001
 4427         hn    242    ccc     H7   4427 0.33000000   1.008000   ; qtot -0.000001
; residue  243 ccc rtp ccc q 0.0
 4428         c3    243    ccc     C1   4428 -0.02400000  12.010000   ; qtot -0.024001
 4429         h1    243    ccc     H1   4429 0.10170000   1.008000   ; qtot 0.077699
 4430         h1    243    ccc     H2   4430 0.10170000   1.008000   ; qtot 0.179399
 4431         c3    243    ccc     C2   4431 0.52570000  12.010000   ; qtot 0.705099
 4432         h1    243    ccc     H3   4432 -0.02490000   1.008000   ; qtot 0.680199
 4433         h1    243    ccc     H4   4433 -0.02490000   1.008000   ; qtot 0.655299
 4434         n3    243    ccc     N1   4434 -1.33770000  14.010000   ; qtot -0.682401
 4435         hn    243    ccc     H5   4435 0.47210000   1.008000   ; qtot -0.210301
 4436         hn    243    ccc     H6   4436 0.47210000   1.008000   ; qtot 0.261799
 4437          n    243    ccc     N2   4437 -0.59180000  14.010000   ; qtot -0.330001
 4438         hn    243    ccc     H7   4438 0.33000000   1.008000   ; qtot -0.000001
; residue  244 ccc rtp ccc q 0.0
 4439         c3    244    ccc     C1   4439 -0.02400000  12.010000   ; qtot -0.024001
 4440         h1    244    ccc     H1   4440 0.10170000   1.008000   ; qtot 0.077699
 4441         h1    244    ccc     H2   4441 0.10170000   1.008000   ; qtot 0.179399
 4442         c3    244    ccc     C2   4442 0.52570000  12.010000   ; qtot 0.705099
 4443         h1    244    ccc     H3   4443 -0.02490000   1.008000   ; qtot 0.680199
 4444         h1    244    ccc     H4   4444 -0.02490000   1.008000   ; qtot 0.655299
 4445         n3    244    ccc     N1   4445 -1.33770000  14.010000   ; qtot -0.682401
 4446         hn    244    ccc     H5   4446 0.47210000   1.008000   ; qtot -0.210301
 4447         hn    244    ccc     H6   4447 0.47210000   1.008000   ; qtot 0.261799
 4448          n    244    ccc     N2   4448 -0.59180000  14.010000   ; qtot -0.330001
 4449         hn    244    ccc     H7   4449 0.33000000   1.008000   ; qtot -0.000001
; residue  245 ccc rtp ccc q 0.0
 4450         c3    245    ccc     C1   4450 -0.02400000  12.010000   ; qtot -0.024001
 4451         h1    245    ccc     H1   4451 0.10170000   1.008000   ; qtot 0.077699
 4452         h1    245    ccc     H2   4452 0.10170000   1.008000   ; qtot 0.179399
 4453         c3    245    ccc     C2   4453 0.52570000  12.010000   ; qtot 0.705099
 4454         h1    245    ccc     H3   4454 -0.02490000   1.008000   ; qtot 0.680199
 4455         h1    245    ccc     H4   4455 -0.02490000   1.008000   ; qtot 0.655299
 4456         n3    245    ccc     N1   4456 -1.33770000  14.010000   ; qtot -0.682401
 4457         hn    245    ccc     H5   4457 0.47210000   1.008000   ; qtot -0.210301
 4458         hn    245    ccc     H6   4458 0.47210000   1.008000   ; qtot 0.261799
 4459          n    245    ccc     N2   4459 -0.59180000  14.010000   ; qtot -0.330001
 4460         hn    245    ccc     H7   4460 0.33000000   1.008000   ; qtot -0.000001
; residue  246 ccc rtp ccc q 0.0
 4461         c3    246    ccc     C1   4461 -0.02400000  12.010000   ; qtot -0.024001
 4462         h1    246    ccc     H1   4462 0.10170000   1.008000   ; qtot 0.077699
 4463         h1    246    ccc     H2   4463 0.10170000   1.008000   ; qtot 0.179399
 4464         c3    246    ccc     C2   4464 0.52570000  12.010000   ; qtot 0.705099
 4465         h1    246    ccc     H3   4465 -0.02490000   1.008000   ; qtot 0.680199
 4466         h1    246    ccc     H4   4466 -0.02490000   1.008000   ; qtot 0.655299
 4467         n3    246    ccc     N1   4467 -1.33770000  14.010000   ; qtot -0.682401
 4468         hn    246    ccc     H5   4468 0.47210000   1.008000   ; qtot -0.210301
 4469         hn    246    ccc     H6   4469 0.47210000   1.008000   ; qtot 0.261799
 4470          n    246    ccc     N2   4470 -0.59180000  14.010000   ; qtot -0.330001
 4471         hn    246    ccc     H7   4471 0.33000000   1.008000   ; qtot -0.000001
; residue  247 ccc rtp ccc q 0.0
 4472         c3    247    ccc     C1   4472 -0.02400000  12.010000   ; qtot -0.024001
 4473         h1    247    ccc     H1   4473 0.10170000   1.008000   ; qtot 0.077699
 4474         h1    247    ccc     H2   4474 0.10170000   1.008000   ; qtot 0.179399
 4475         c3    247    ccc     C2   4475 0.52570000  12.010000   ; qtot 0.705099
 4476         h1    247    ccc     H3   4476 -0.02490000   1.008000   ; qtot 0.680199
 4477         h1    247    ccc     H4   4477 -0.02490000   1.008000   ; qtot 0.655299
 4478         n3    247    ccc     N1   4478 -1.33770000  14.010000   ; qtot -0.682401
 4479         hn    247    ccc     H5   4479 0.47210000   1.008000   ; qtot -0.210301
 4480         hn    247    ccc     H6   4480 0.47210000   1.008000   ; qtot 0.261799
 4481          n    247    ccc     N2   4481 -0.59180000  14.010000   ; qtot -0.330001
 4482         hn    247    ccc     H7   4482 0.33000000   1.008000   ; qtot -0.000001
; residue  248 ccc rtp ccc q 0.0
 4483         c3    248    ccc     C1   4483 -0.02400000  12.010000   ; qtot -0.024001
 4484         h1    248    ccc     H1   4484 0.10170000   1.008000   ; qtot 0.077699
 4485         h1    248    ccc     H2   4485 0.10170000   1.008000   ; qtot 0.179399
 4486         c3    248    ccc     C2   4486 0.52570000  12.010000   ; qtot 0.705099
 4487         h1    248    ccc     H3   4487 -0.02490000   1.008000   ; qtot 0.680199
 4488         h1    248    ccc     H4   4488 -0.02490000   1.008000   ; qtot 0.655299
 4489         n3    248    ccc     N1   4489 -1.33770000  14.010000   ; qtot -0.682401
 4490         hn    248    ccc     H5   4490 0.47210000   1.008000   ; qtot -0.210301
 4491         hn    248    ccc     H6   4491 0.47210000   1.008000   ; qtot 0.261799
 4492          n    248    ccc     N2   4492 -0.59180000  14.010000   ; qtot -0.330001
 4493         hn    248    ccc     H7   4493 0.33000000   1.008000   ; qtot -0.000001
; residue  249 ccc rtp ccc q 0.0
 4494         c3    249    ccc     C1   4494 -0.02400000  12.010000   ; qtot -0.024001
 4495         h1    249    ccc     H1   4495 0.10170000   1.008000   ; qtot 0.077699
 4496         h1    249    ccc     H2   4496 0.10170000   1.008000   ; qtot 0.179399
 4497         c3    249    ccc     C2   4497 0.52570000  12.010000   ; qtot 0.705099
 4498         h1    249    ccc     H3   4498 -0.02490000   1.008000   ; qtot 0.680199
 4499         h1    249    ccc     H4   4499 -0.02490000   1.008000   ; qtot 0.655299
 4500         n3    249    ccc     N1   4500 -1.33770000  14.010000   ; qtot -0.682401
 4501         hn    249    ccc     H5   4501 0.47210000   1.008000   ; qtot -0.210301
 4502         hn    249    ccc     H6   4502 0.47210000   1.008000   ; qtot 0.261799
 4503          n    249    ccc     N2   4503 -0.59180000  14.010000   ; qtot -0.330001
 4504         hn    249    ccc     H7   4504 0.33000000   1.008000   ; qtot -0.000001
; residue  250 ccc rtp ccc q 0.0
 4505         c3    250    ccc     C1   4505 -0.02400000  12.010000   ; qtot -0.024001
 4506         h1    250    ccc     H1   4506 0.10170000   1.008000   ; qtot 0.077699
 4507         h1    250    ccc     H2   4507 0.10170000   1.008000   ; qtot 0.179399
 4508         c3    250    ccc     C2   4508 0.52570000  12.010000   ; qtot 0.705099
 4509         h1    250    ccc     H3   4509 -0.02490000   1.008000   ; qtot 0.680199
 4510         h1    250    ccc     H4   4510 -0.02490000   1.008000   ; qtot 0.655299
 4511         n3    250    ccc     N1   4511 -1.33770000  14.010000   ; qtot -0.682401
 4512         hn    250    ccc     H5   4512 0.47210000   1.008000   ; qtot -0.210301
 4513         hn    250    ccc     H6   4513 0.47210000   1.008000   ; qtot 0.261799
 4514          n    250    ccc     N2   4514 -0.59180000  14.010000   ; qtot -0.330001
 4515         hn    250    ccc     H7   4515 0.33000000   1.008000   ; qtot -0.000001
; residue  251 ccc rtp ccc q 0.0
 4516         c3    251    ccc     C1   4516 -0.02400000  12.010000   ; qtot -0.024001
 4517         h1    251    ccc     H1   4517 0.10170000   1.008000   ; qtot 0.077699
 4518         h1    251    ccc     H2   4518 0.10170000   1.008000   ; qtot 0.179399
 4519         c3    251    ccc     C2   4519 0.52570000  12.010000   ; qtot 0.705099
 4520         h1    251    ccc     H3   4520 -0.02490000   1.008000   ; qtot 0.680199
 4521         h1    251    ccc     H4   4521 -0.02490000   1.008000   ; qtot 0.655299
 4522         n3    251    ccc     N1   4522 -1.33770000  14.010000   ; qtot -0.682401
 4523         hn    251    ccc     H5   4523 0.47210000   1.008000   ; qtot -0.210301
 4524         hn    251    ccc     H6   4524 0.47210000   1.008000   ; qtot 0.261799
 4525          n    251    ccc     N2   4525 -0.59180000  14.010000   ; qtot -0.330001
 4526         hn    251    ccc     H7   4526 0.33000000   1.008000   ; qtot -0.000001
; residue  252 ccc rtp ccc q 0.0
 4527         c3    252    ccc     C1   4527 -0.02400000  12.010000   ; qtot -0.024001
 4528         h1    252    ccc     H1   4528 0.10170000   1.008000   ; qtot 0.077699
 4529         h1    252    ccc     H2   4529 0.10170000   1.008000   ; qtot 0.179399
 4530         c3    252    ccc     C2   4530 0.52570000  12.010000   ; qtot 0.705099
 4531         h1    252    ccc     H3   4531 -0.02490000   1.008000   ; qtot 0.680199
 4532         h1    252    ccc     H4   4532 -0.02490000   1.008000   ; qtot 0.655299
 4533         n3    252    ccc     N1   4533 -1.33770000  14.010000   ; qtot -0.682401
 4534         hn    252    ccc     H5   4534 0.47210000   1.008000   ; qtot -0.210301
 4535         hn    252    ccc     H6   4535 0.47210000   1.008000   ; qtot 0.261799
 4536          n    252    ccc     N2   4536 -0.59180000  14.010000   ; qtot -0.330001
 4537         hn    252    ccc     H7   4537 0.33000000   1.008000   ; qtot -0.000001
; residue  253 ccc rtp ccc q 0.0
 4538         c3    253    ccc     C1   4538 -0.02400000  12.010000   ; qtot -0.024001
 4539         h1    253    ccc     H1   4539 0.10170000   1.008000   ; qtot 0.077699
 4540         h1    253    ccc     H2   4540 0.10170000   1.008000   ; qtot 0.179399
 4541         c3    253    ccc     C2   4541 0.52570000  12.010000   ; qtot 0.705099
 4542         h1    253    ccc     H3   4542 -0.02490000   1.008000   ; qtot 0.680199
 4543         h1    253    ccc     H4   4543 -0.02490000   1.008000   ; qtot 0.655299
 4544         n3    253    ccc     N1   4544 -1.33770000  14.010000   ; qtot -0.682401
 4545         hn    253    ccc     H5   4545 0.47210000   1.008000   ; qtot -0.210301
 4546         hn    253    ccc     H6   4546 0.47210000   1.008000   ; qtot 0.261799
 4547          n    253    ccc     N2   4547 -0.59180000  14.010000   ; qtot -0.330001
 4548         hn    253    ccc     H7   4548 0.33000000   1.008000   ; qtot -0.000001

[ bonds ]
;    ai     aj funct         c0         c1         c2         c3
      1      4     1   0.15375 251793.120000
      1      8     1   0.14647 272713.120000
      4      7     1   0.14647 272713.120000
      7     15     1   0.14647 272713.120000
      7     18     1   0.14647 272713.120000
      8      9     1   0.14647 272713.120000
      8     12     1   0.14647 272713.120000
      9     30     1   0.15375 251793.120000
     12     27     1   0.15375 251793.120000
     15     21     1   0.15375 251793.120000
     18     24     1   0.15375 251793.120000
     21     35     1   0.15241 261918.400000
     24     36     1   0.15241 261918.400000
     27     33     1   0.15241 261918.400000
     30     34     1   0.15241 261918.400000
     33     37     1   0.12183 533627.360000
     33     64     1   0.13789 357815.680000
     34     40     1   0.12183 533627.360000
     34     89     1   0.13789 357815.680000
     35     38     1   0.12183 533627.360000
     35    114     1   0.13789 357815.680000
     36     39     1   0.12183 533627.360000
     36    139     1   0.13789 357815.680000
     41     44     1   0.15375 251793.120000
     41     47     1   0.14647 272713.120000
     44     64     1   0.14619 275056.160000
     47     48     1   0.14647 272713.120000
     47     51     1   0.14647 272713.120000
     48     57     1   0.15375 251793.120000
     51     54     1   0.15375 251793.120000
     54     60     1   0.15241 261918.400000
     57     61     1   0.15241 261918.400000
     60     62     1   0.12183 533627.360000
     60    164     1   0.13789 357815.680000
     61     63     1   0.12183 533627.360000
     61    189     1   0.13789 357815.680000
     66     69     1   0.15375 251793.120000
     66     72     1   0.14647 272713.120000
     69     89     1   0.14619 275056.160000
     72     73     1   0.14647 272713.120000
     72     76     1   0.14647 272713.120000
     73     82     1   0.15375 251793.120000
     76     79     1   0.15375 251793.120000
     79     85     1   0.15241 261918.400000
     82     86     1   0.15241 261918.400000
     85     87     1   0.12183 533627.360000
     85    214     1   0.13789 357815.680000
     86     88     1   0.12183 533627.360000
     86    239     1   0.13789 357815.680000
     91     94     1   0.15375 251793.120000
     91     97     1   0.14647 272713.120000
     94    114     1   0.14619 275056.160000
     97     98     1   0.14647 272713.120000
     97    101     1   0.14647 272713.120000
     98    107     1   0.15375 251793.120000
    101    104     1   0.15375 251793.120000
    104    110     1   0.15241 261918.400000
    107    111     1   0.15241 261918.400000
    110    112     1   0.12183 533627.360000
    110    264     1   0.13789 357815.680000
    111    113     1   0.12183 533627.360000
    111    289     1   0.13789 357815.680000
    116    119     1   0.15375 251793.120000
    116    122     1   0.14647 272713.120000
    119    139     1   0.14619 275056.160000
    122    123     1   0.14647 272713.120000
    122    126     1   0.14647 272713.120000
    123    132     1   0.15375 251793.120000
    126    129     1   0.15375 251793.120000
    129    135     1   0.15241 261918.400000
    132    136     1   0.15241 261918.400000
    135    137     1   0.12183 533627.360000
    135    314     1   0.13789 357815.680000
    136    138     1   0.12183 533627.360000
    136    339     1   0.13789 357815.680000
    141    144     1   0.15375 251793.120000
    141    147     1   0.14647 272713.120000
    144    164     1   0.14619 275056.160000
    147    148     1   0.14647 272713.120000
    147    151     1   0.14647 272713.120000
    148    157     1   0.15375 251793.120000
    151    154     1   0.15375 251793.120000
    154    160     1   0.15241 261918.400000
    157    161     1   0.15241 261918.400000
    160    162     1   0.12183 533627.360000
    160    364     1   0.13789 357815.680000
    161    163     1   0.12183 533627.360000
    161    389     1   0.13789 357815.680000
    166    169     1   0.15375 251793.120000
    166    172     1   0.14647 272713.120000
    169    189     1   0.14619 275056.160000
    172    173     1   0.14647 272713.120000
    172    176     1   0.14647 272713.120000
    173    182     1   0.15375 251793.120000
    176    179     1   0.15375 251793.120000
    179    185     1   0.15241 261918.400000
    182    186     1   0.15241 261918.400000
    185    187     1   0.12183 533627.360000
    185    414     1   0.13789 357815.680000
    186    188     1   0.12183 533627.360000
    186    439     1   0.13789 357815.680000
    191    194     1   0.15375 251793.120000
    191    197     1   0.14647 272713.120000
    194    214     1   0.14619 275056.160000
    197    198     1   0.14647 272713.120000
    197    201     1   0.14647 272713.120000
    198    207     1   0.15375 251793.120000
    201    204     1   0.15375 251793.120000
    204    210     1   0.15241 261918.400000
    207    211     1   0.15241 261918.400000
    210    212     1   0.12183 533627.360000
    210    464     1   0.13789 357815.680000
    211    213     1   0.12183 533627.360000
    211    489     1   0.13789 357815.680000
    216    219     1   0.15375 251793.120000
    216    222     1   0.14647 272713.120000
    219    239     1   0.14619 275056.160000
    222    223     1   0.14647 272713.120000
    222    226     1   0.14647 272713.120000
    223    232     1   0.15375 251793.120000
    226    229     1   0.15375 251793.120000
    229    235     1   0.15241 261918.400000
    232    236     1   0.15241 261918.400000
    235    237     1   0.12183 533627.360000
    235    514     1   0.13789 357815.680000
    236    238     1   0.12183 533627.360000
    236    539     1   0.13789 357815.680000
    241    244     1   0.15375 251793.120000
    241    247     1   0.14647 272713.120000
    244    264     1   0.14619 275056.160000
    247    248     1   0.14647 272713.120000
    247    251     1   0.14647 272713.120000
    248    257     1   0.15375 251793.120000
    251    254     1   0.15375 251793.120000
    254    260     1   0.15241 261918.400000
    257    261     1   0.15241 261918.400000
    260    262     1   0.12183 533627.360000
    260    564     1   0.13789 357815.680000
    261    263     1   0.12183 533627.360000
    261    589     1   0.13789 357815.680000
    266    269     1   0.15375 251793.120000
    266    272     1   0.14647 272713.120000
    269    289     1   0.14619 275056.160000
    272    273     1   0.14647 272713.120000
    272    276     1   0.14647 272713.120000
    273    282     1   0.15375 251793.120000
    276    279     1   0.15375 251793.120000
    279    285     1   0.15241 261918.400000
    282    286     1   0.15241 261918.400000
    285    287     1   0.12183 533627.360000
    285    614     1   0.13789 357815.680000
    286    288     1   0.12183 533627.360000
    286    639     1   0.13789 357815.680000
    291    294     1   0.15375 251793.120000
    291    297     1   0.14647 272713.120000
    294    314     1   0.14619 275056.160000
    297    298     1   0.14647 272713.120000
    297    301     1   0.14647 272713.120000
    298    307     1   0.15375 251793.120000
    301    304     1   0.15375 251793.120000
    304    310     1   0.15241 261918.400000
    307    311     1   0.15241 261918.400000
    310    312     1   0.12183 533627.360000
    310    664     1   0.13789 357815.680000
    311    313     1   0.12183 533627.360000
    311    689     1   0.13789 357815.680000
    316    319     1   0.15375 251793.120000
    316    322     1   0.14647 272713.120000
    319    339     1   0.14619 275056.160000
    322    323     1   0.14647 272713.120000
    322    326     1   0.14647 272713.120000
    323    332     1   0.15375 251793.120000
    326    329     1   0.15375 251793.120000
    329    335     1   0.15241 261918.400000
    332    336     1   0.15241 261918.400000
    335    337     1   0.12183 533627.360000
    335    714     1   0.13789 357815.680000
    336    338     1   0.12183 533627.360000
    336    739     1   0.13789 357815.680000
    341    344     1   0.15375 251793.120000
    341    347     1   0.14647 272713.120000
    344    364     1   0.14619 275056.160000
    347    348     1   0.14647 272713.120000
    347    351     1   0.14647 272713.120000
    348    357     1   0.15375 251793.120000
    351    354     1   0.15375 251793.120000
    354    360     1   0.15241 261918.400000
    357    361     1   0.15241 261918.400000
    360    362     1   0.12183 533627.360000
    360    764     1   0.13789 357815.680000
    361    363     1   0.12183 533627.360000
    361    789     1   0.13789 357815.680000
    366    369     1   0.15375 251793.120000
    366    372     1   0.14647 272713.120000
    369    389     1   0.14619 275056.160000
    372    373     1   0.14647 272713.120000
    372    376     1   0.14647 272713.120000
    373    382     1   0.15375 251793.120000
    376    379     1   0.15375 251793.120000
    379    385     1   0.15241 261918.400000
    382    386     1   0.15241 261918.400000
    385    387     1   0.12183 533627.360000
    385    814     1   0.13789 357815.680000
    386    388     1   0.12183 533627.360000
    386    839     1   0.13789 357815.680000
    391    394     1   0.15375 251793.120000
    391    397     1   0.14647 272713.120000
    394    414     1   0.14619 275056.160000
    397    398     1   0.14647 272713.120000
    397    401     1   0.14647 272713.120000
    398    407     1   0.15375 251793.120000
    401    404     1   0.15375 251793.120000
    404    410     1   0.15241 261918.400000
    407    411     1   0.15241 261918.400000
    410    412     1   0.12183 533627.360000
    410    864     1   0.13789 357815.680000
    411    413     1   0.12183 533627.360000
    411    889     1   0.13789 357815.680000
    416    419     1   0.15375 251793.120000
    416    422     1   0.14647 272713.120000
    419    439     1   0.14619 275056.160000
    422    423     1   0.14647 272713.120000
    422    426     1   0.14647 272713.120000
    423    432     1   0.15375 251793.120000
    426    429     1   0.15375 251793.120000
    429    435     1   0.15241 261918.400000
    432    436     1   0.15241 261918.400000
    435    437     1   0.12183 533627.360000
    435    914     1   0.13789 357815.680000
    436    438     1   0.12183 533627.360000
    436    939     1   0.13789 357815.680000
    441    444     1   0.15375 251793.120000
    441    447     1   0.14647 272713.120000
    444    464     1   0.14619 275056.160000
    447    448     1   0.14647 272713.120000
    447    451     1   0.14647 272713.120000
    448    457     1   0.15375 251793.120000
    451    454     1   0.15375 251793.120000
    454    460     1   0.15241 261918.400000
    457    461     1   0.15241 261918.400000
    460    462     1   0.12183 533627.360000
    460    964     1   0.13789 357815.680000
    461    463     1   0.12183 533627.360000
    461    989     1   0.13789 357815.680000
    466    469     1   0.15375 251793.120000
    466    472     1   0.14647 272713.120000
    469    489     1   0.14619 275056.160000
    472    473     1   0.14647 272713.120000
    472    476     1   0.14647 272713.120000
    473    482     1   0.15375 251793.120000
    476    479     1   0.15375 251793.120000
    479    485     1   0.15241 261918.400000
    482    486     1   0.15241 261918.400000
    485    487     1   0.12183 533627.360000
    485   1014     1   0.13789 357815.680000
    486    488     1   0.12183 533627.360000
    486   1039     1   0.13789 357815.680000
    491    494     1   0.15375 251793.120000
    491    497     1   0.14647 272713.120000
    494    514     1   0.14619 275056.160000
    497    498     1   0.14647 272713.120000
    497    501     1   0.14647 272713.120000
    498    507     1   0.15375 251793.120000
    501    504     1   0.15375 251793.120000
    504    510     1   0.15241 261918.400000
    507    511     1   0.15241 261918.400000
    510    512     1   0.12183 533627.360000
    510   1064     1   0.13789 357815.680000
    511    513     1   0.12183 533627.360000
    511   1089     1   0.13789 357815.680000
    516    519     1   0.15375 251793.120000
    516    522     1   0.14647 272713.120000
    519    539     1   0.14619 275056.160000
    522    523     1   0.14647 272713.120000
    522    526     1   0.14647 272713.120000
    523    532     1   0.15375 251793.120000
    526    529     1   0.15375 251793.120000
    529    535     1   0.15241 261918.400000
    532    536     1   0.15241 261918.400000
    535    537     1   0.12183 533627.360000
    535   1114     1   0.13789 357815.680000
    536    538     1   0.12183 533627.360000
    536   1139     1   0.13789 357815.680000
    541    544     1   0.15375 251793.120000
    541    547     1   0.14647 272713.120000
    544    564     1   0.14619 275056.160000
    547    548     1   0.14647 272713.120000
    547    551     1   0.14647 272713.120000
    548    557     1   0.15375 251793.120000
    551    554     1   0.15375 251793.120000
    554    560     1   0.15241 261918.400000
    557    561     1   0.15241 261918.400000
    560    562     1   0.12183 533627.360000
    560   1164     1   0.13789 357815.680000
    561    563     1   0.12183 533627.360000
    561   1189     1   0.13789 357815.680000
    566    569     1   0.15375 251793.120000
    566    572     1   0.14647 272713.120000
    569    589     1   0.14619 275056.160000
    572    573     1   0.14647 272713.120000
    572    576     1   0.14647 272713.120000
    573    582     1   0.15375 251793.120000
    576    579     1   0.15375 251793.120000
    579    585     1   0.15241 261918.400000
    582    586     1   0.15241 261918.400000
    585    587     1   0.12183 533627.360000
    585   1214     1   0.13789 357815.680000
    586    588     1   0.12183 533627.360000
    586   1239     1   0.13789 357815.680000
    591    594     1   0.15375 251793.120000
    591    597     1   0.14647 272713.120000
    594    614     1   0.14619 275056.160000
    597    598     1   0.14647 272713.120000
    597    601     1   0.14647 272713.120000
    598    607     1   0.15375 251793.120000
    601    604     1   0.15375 251793.120000
    604    610     1   0.15241 261918.400000
    607    611     1   0.15241 261918.400000
    610    612     1   0.12183 533627.360000
    610   1264     1   0.13789 357815.680000
    611    613     1   0.12183 533627.360000
    611   1289     1   0.13789 357815.680000
    616    619     1   0.15375 251793.120000
    616    622     1   0.14647 272713.120000
    619    639     1   0.14619 275056.160000
    622    623     1   0.14647 272713.120000
    622    626     1   0.14647 272713.120000
    623    632     1   0.15375 251793.120000
    626    629     1   0.15375 251793.120000
    629    635     1   0.15241 261918.400000
    632    636     1   0.15241 261918.400000
    635    637     1   0.12183 533627.360000
    635   1314     1   0.13789 357815.680000
    636    638     1   0.12183 533627.360000
    636   1339     1   0.13789 357815.680000
    641    644     1   0.15375 251793.120000
    641    647     1   0.14647 272713.120000
    644    664     1   0.14619 275056.160000
    647    648     1   0.14647 272713.120000
    647    651     1   0.14647 272713.120000
    648    657     1   0.15375 251793.120000
    651    654     1   0.15375 251793.120000
    654    660     1   0.15241 261918.400000
    657    661     1   0.15241 261918.400000
    660    662     1   0.12183 533627.360000
    660   1364     1   0.13789 357815.680000
    661    663     1   0.12183 533627.360000
    661   1389     1   0.13789 357815.680000
    666    669     1   0.15375 251793.120000
    666    672     1   0.14647 272713.120000
    669    689     1   0.14619 275056.160000
    672    673     1   0.14647 272713.120000
    672    676     1   0.14647 272713.120000
    673    682     1   0.15375 251793.120000
    676    679     1   0.15375 251793.120000
    679    685     1   0.15241 261918.400000
    682    686     1   0.15241 261918.400000
    685    687     1   0.12183 533627.360000
    685   1414     1   0.13789 357815.680000
    686    688     1   0.12183 533627.360000
    686   1439     1   0.13789 357815.680000
    691    694     1   0.15375 251793.120000
    691    697     1   0.14647 272713.120000
    694    714     1   0.14619 275056.160000
    697    698     1   0.14647 272713.120000
    697    701     1   0.14647 272713.120000
    698    707     1   0.15375 251793.120000
    701    704     1   0.15375 251793.120000
    704    710     1   0.15241 261918.400000
    707    711     1   0.15241 261918.400000
    710    712     1   0.12183 533627.360000
    710   1464     1   0.13789 357815.680000
    711    713     1   0.12183 533627.360000
    711   1489     1   0.13789 357815.680000
    716    719     1   0.15375 251793.120000
    716    722     1   0.14647 272713.120000
    719    739     1   0.14619 275056.160000
    722    723     1   0.14647 272713.120000
    722    726     1   0.14647 272713.120000
    723    732     1   0.15375 251793.120000
    726    729     1   0.15375 251793.120000
    729    735     1   0.15241 261918.400000
    732    736     1   0.15241 261918.400000
    735    737     1   0.12183 533627.360000
    735   1514     1   0.13789 357815.680000
    736    738     1   0.12183 533627.360000
    736   1539     1   0.13789 357815.680000
    741    744     1   0.15375 251793.120000
    741    747     1   0.14647 272713.120000
    744    764     1   0.14619 275056.160000
    747    748     1   0.14647 272713.120000
    747    751     1   0.14647 272713.120000
    748    757     1   0.15375 251793.120000
    751    754     1   0.15375 251793.120000
    754    760     1   0.15241 261918.400000
    757    761     1   0.15241 261918.400000
    760    762     1   0.12183 533627.360000
    760   1564     1   0.13789 357815.680000
    761    763     1   0.12183 533627.360000
    761   1589     1   0.13789 357815.680000
    766    769     1   0.15375 251793.120000
    766    772     1   0.14647 272713.120000
    769    789     1   0.14619 275056.160000
    772    773     1   0.14647 272713.120000
    772    776     1   0.14647 272713.120000
    773    782     1   0.15375 251793.120000
    776    779     1   0.15375 251793.120000
    779    785     1   0.15241 261918.400000
    782    786     1   0.15241 261918.400000
    785    787     1   0.12183 533627.360000
    785   1614     1   0.13789 357815.680000
    786    788     1   0.12183 533627.360000
    786   1639     1   0.13789 357815.680000
    791    794     1   0.15375 251793.120000
    791    797     1   0.14647 272713.120000
    794    814     1   0.14619 275056.160000
    797    798     1   0.14647 272713.120000
    797    801     1   0.14647 272713.120000
    798    807     1   0.15375 251793.120000
    801    804     1   0.15375 251793.120000
    804    810     1   0.15241 261918.400000
    807    811     1   0.15241 261918.400000
    810    812     1   0.12183 533627.360000
    810   1664     1   0.13789 357815.680000
    811    813     1   0.12183 533627.360000
    811   1689     1   0.13789 357815.680000
    816    819     1   0.15375 251793.120000
    816    822     1   0.14647 272713.120000
    819    839     1   0.14619 275056.160000
    822    823     1   0.14647 272713.120000
    822    826     1   0.14647 272713.120000
    823    832     1   0.15375 251793.120000
    826    829     1   0.15375 251793.120000
    829    835     1   0.15241 261918.400000
    832    836     1   0.15241 261918.400000
    835    837     1   0.12183 533627.360000
    835   1714     1   0.13789 357815.680000
    836    838     1   0.12183 533627.360000
    836   1739     1   0.13789 357815.680000
    841    844     1   0.15375 251793.120000
    841    847     1   0.14647 272713.120000
    844    864     1   0.14619 275056.160000
    847    848     1   0.14647 272713.120000
    847    851     1   0.14647 272713.120000
    848    857     1   0.15375 251793.120000
    851    854     1   0.15375 251793.120000
    854    860     1   0.15241 261918.400000
    857    861     1   0.15241 261918.400000
    860    862     1   0.12183 533627.360000
    860   1764     1   0.13789 357815.680000
    861    863     1   0.12183 533627.360000
    861   1789     1   0.13789 357815.680000
    866    869     1   0.15375 251793.120000
    866    872     1   0.14647 272713.120000
    869    889     1   0.14619 275056.160000
    872    873     1   0.14647 272713.120000
    872    876     1   0.14647 272713.120000
    873    882     1   0.15375 251793.120000
    876    879     1   0.15375 251793.120000
    879    885     1   0.15241 261918.400000
    882    886     1   0.15241 261918.400000
    885    887     1   0.12183 533627.360000
    885   1814     1   0.13789 357815.680000
    886    888     1   0.12183 533627.360000
    886   1839     1   0.13789 357815.680000
    891    894     1   0.15375 251793.120000
    891    897     1   0.14647 272713.120000
    894    914     1   0.14619 275056.160000
    897    898     1   0.14647 272713.120000
    897    901     1   0.14647 272713.120000
    898    907     1   0.15375 251793.120000
    901    904     1   0.15375 251793.120000
    904    910     1   0.15241 261918.400000
    907    911     1   0.15241 261918.400000
    910    912     1   0.12183 533627.360000
    910   1864     1   0.13789 357815.680000
    911    913     1   0.12183 533627.360000
    911   1889     1   0.13789 357815.680000
    916    919     1   0.15375 251793.120000
    916    922     1   0.14647 272713.120000
    919    939     1   0.14619 275056.160000
    922    923     1   0.14647 272713.120000
    922    926     1   0.14647 272713.120000
    923    932     1   0.15375 251793.120000
    926    929     1   0.15375 251793.120000
    929    935     1   0.15241 261918.400000
    932    936     1   0.15241 261918.400000
    935    937     1   0.12183 533627.360000
    935   1914     1   0.13789 357815.680000
    936    938     1   0.12183 533627.360000
    936   1939     1   0.13789 357815.680000
    941    944     1   0.15375 251793.120000
    941    947     1   0.14647 272713.120000
    944    964     1   0.14619 275056.160000
    947    948     1   0.14647 272713.120000
    947    951     1   0.14647 272713.120000
    948    957     1   0.15375 251793.120000
    951    954     1   0.15375 251793.120000
    954    960     1   0.15241 261918.400000
    957    961     1   0.15241 261918.400000
    960    962     1   0.12183 533627.360000
    960   1964     1   0.13789 357815.680000
    961    963     1   0.12183 533627.360000
    961   1989     1   0.13789 357815.680000
    966    969     1   0.15375 251793.120000
    966    972     1   0.14647 272713.120000
    969    989     1   0.14619 275056.160000
    972    973     1   0.14647 272713.120000
    972    976     1   0.14647 272713.120000
    973    982     1   0.15375 251793.120000
    976    979     1   0.15375 251793.120000
    979    985     1   0.15241 261918.400000
    982    986     1   0.15241 261918.400000
    985    987     1   0.12183 533627.360000
    985   2014     1   0.13789 357815.680000
    986    988     1   0.12183 533627.360000
    986   2039     1   0.13789 357815.680000
    991    994     1   0.15375 251793.120000
    991    997     1   0.14647 272713.120000
    994   1014     1   0.14619 275056.160000
    997    998     1   0.14647 272713.120000
    997   1001     1   0.14647 272713.120000
    998   1007     1   0.15375 251793.120000
   1001   1004     1   0.15375 251793.120000
   1004   1010     1   0.15241 261918.400000
   1007   1011     1   0.15241 261918.400000
   1010   1012     1   0.12183 533627.360000
   1010   2064     1   0.13789 357815.680000
   1011   1013     1   0.12183 533627.360000
   1011   2089     1   0.13789 357815.680000
   1016   1019     1   0.15375 251793.120000
   1016   1022     1   0.14647 272713.120000
   1019   1039     1   0.14619 275056.160000
   1022   1023     1   0.14647 272713.120000
   1022   1026     1   0.14647 272713.120000
   1023   1032     1   0.15375 251793.120000
   1026   1029     1   0.15375 251793.120000
   1029   1035     1   0.15241 261918.400000
   1032   1036     1   0.15241 261918.400000
   1035   1037     1   0.12183 533627.360000
   1035   2114     1   0.13789 357815.680000
   1036   1038     1   0.12183 533627.360000
   1036   2139     1   0.13789 357815.680000
   1041   1044     1   0.15375 251793.120000
   1041   1047     1   0.14647 272713.120000
   1044   1064     1   0.14619 275056.160000
   1047   1048     1   0.14647 272713.120000
   1047   1051     1   0.14647 272713.120000
   1048   1057     1   0.15375 251793.120000
   1051   1054     1   0.15375 251793.120000
   1054   1060     1   0.15241 261918.400000
   1057   1061     1   0.15241 261918.400000
   1060   1062     1   0.12183 533627.360000
   1060   2164     1   0.13789 357815.680000
   1061   1063     1   0.12183 533627.360000
   1061   2189     1   0.13789 357815.680000
   1066   1069     1   0.15375 251793.120000
   1066   1072     1   0.14647 272713.120000
   1069   1089     1   0.14619 275056.160000
   1072   1073     1   0.14647 272713.120000
   1072   1076     1   0.14647 272713.120000
   1073   1082     1   0.15375 251793.120000
   1076   1079     1   0.15375 251793.120000
   1079   1085     1   0.15241 261918.400000
   1082   1086     1   0.15241 261918.400000
   1085   1087     1   0.12183 533627.360000
   1085   2214     1   0.13789 357815.680000
   1086   1088     1   0.12183 533627.360000
   1086   2239     1   0.13789 357815.680000
   1091   1094     1   0.15375 251793.120000
   1091   1097     1   0.14647 272713.120000
   1094   1114     1   0.14619 275056.160000
   1097   1098     1   0.14647 272713.120000
   1097   1101     1   0.14647 272713.120000
   1098   1107     1   0.15375 251793.120000
   1101   1104     1   0.15375 251793.120000
   1104   1110     1   0.15241 261918.400000
   1107   1111     1   0.15241 261918.400000
   1110   1112     1   0.12183 533627.360000
   1110   2264     1   0.13789 357815.680000
   1111   1113     1   0.12183 533627.360000
   1111   2289     1   0.13789 357815.680000
   1116   1119     1   0.15375 251793.120000
   1116   1122     1   0.14647 272713.120000
   1119   1139     1   0.14619 275056.160000
   1122   1123     1   0.14647 272713.120000
   1122   1126     1   0.14647 272713.120000
   1123   1132     1   0.15375 251793.120000
   1126   1129     1   0.15375 251793.120000
   1129   1135     1   0.15241 261918.400000
   1132   1136     1   0.15241 261918.400000
   1135   1137     1   0.12183 533627.360000
   1135   2314     1   0.13789 357815.680000
   1136   1138     1   0.12183 533627.360000
   1136   2339     1   0.13789 357815.680000
   1141   1144     1   0.15375 251793.120000
   1141   1147     1   0.14647 272713.120000
   1144   1164     1   0.14619 275056.160000
   1147   1148     1   0.14647 272713.120000
   1147   1151     1   0.14647 272713.120000
   1148   1157     1   0.15375 251793.120000
   1151   1154     1   0.15375 251793.120000
   1154   1160     1   0.15241 261918.400000
   1157   1161     1   0.15241 261918.400000
   1160   1162     1   0.12183 533627.360000
   1160   2364     1   0.13789 357815.680000
   1161   1163     1   0.12183 533627.360000
   1161   2389     1   0.13789 357815.680000
   1166   1169     1   0.15375 251793.120000
   1166   1172     1   0.14647 272713.120000
   1169   1189     1   0.14619 275056.160000
   1172   1173     1   0.14647 272713.120000
   1172   1176     1   0.14647 272713.120000
   1173   1182     1   0.15375 251793.120000
   1176   1179     1   0.15375 251793.120000
   1179   1185     1   0.15241 261918.400000
   1182   1186     1   0.15241 261918.400000
   1185   1187     1   0.12183 533627.360000
   1185   2414     1   0.13789 357815.680000
   1186   1188     1   0.12183 533627.360000
   1186   2439     1   0.13789 357815.680000
   1191   1194     1   0.15375 251793.120000
   1191   1197     1   0.14647 272713.120000
   1194   1214     1   0.14619 275056.160000
   1197   1198     1   0.14647 272713.120000
   1197   1201     1   0.14647 272713.120000
   1198   1207     1   0.15375 251793.120000
   1201   1204     1   0.15375 251793.120000
   1204   1210     1   0.15241 261918.400000
   1207   1211     1   0.15241 261918.400000
   1210   1212     1   0.12183 533627.360000
   1210   2464     1   0.13789 357815.680000
   1211   1213     1   0.12183 533627.360000
   1211   2489     1   0.13789 357815.680000
   1216   1219     1   0.15375 251793.120000
   1216   1222     1   0.14647 272713.120000
   1219   1239     1   0.14619 275056.160000
   1222   1223     1   0.14647 272713.120000
   1222   1226     1   0.14647 272713.120000
   1223   1232     1   0.15375 251793.120000
   1226   1229     1   0.15375 251793.120000
   1229   1235     1   0.15241 261918.400000
   1232   1236     1   0.15241 261918.400000
   1235   1237     1   0.12183 533627.360000
   1235   2514     1   0.13789 357815.680000
   1236   1238     1   0.12183 533627.360000
   1236   2539     1   0.13789 357815.680000
   1241   1244     1   0.15375 251793.120000
   1241   1247     1   0.14647 272713.120000
   1244   1264     1   0.14619 275056.160000
   1247   1248     1   0.14647 272713.120000
   1247   1251     1   0.14647 272713.120000
   1248   1257     1   0.15375 251793.120000
   1251   1254     1   0.15375 251793.120000
   1254   1260     1   0.15241 261918.400000
   1257   1261     1   0.15241 261918.400000
   1260   1262     1   0.12183 533627.360000
   1260   2564     1   0.13789 357815.680000
   1261   1263     1   0.12183 533627.360000
   1261   2589     1   0.13789 357815.680000
   1266   1269     1   0.15375 251793.120000
   1266   1272     1   0.14647 272713.120000
   1269   1289     1   0.14619 275056.160000
   1272   1273     1   0.14647 272713.120000
   1272   1276     1   0.14647 272713.120000
   1273   1282     1   0.15375 251793.120000
   1276   1279     1   0.15375 251793.120000
   1279   1285     1   0.15241 261918.400000
   1282   1286     1   0.15241 261918.400000
   1285   1287     1   0.12183 533627.360000
   1285   2614     1   0.13789 357815.680000
   1286   1288     1   0.12183 533627.360000
   1286   2639     1   0.13789 357815.680000
   1291   1294     1   0.15375 251793.120000
   1291   1297     1   0.14647 272713.120000
   1294   1314     1   0.14619 275056.160000
   1297   1298     1   0.14647 272713.120000
   1297   1301     1   0.14647 272713.120000
   1298   1307     1   0.15375 251793.120000
   1301   1304     1   0.15375 251793.120000
   1304   1310     1   0.15241 261918.400000
   1307   1311     1   0.15241 261918.400000
   1310   1312     1   0.12183 533627.360000
   1310   2664     1   0.13789 357815.680000
   1311   1313     1   0.12183 533627.360000
   1311   2689     1   0.13789 357815.680000
   1316   1319     1   0.15375 251793.120000
   1316   1322     1   0.14647 272713.120000
   1319   1339     1   0.14619 275056.160000
   1322   1323     1   0.14647 272713.120000
   1322   1326     1   0.14647 272713.120000
   1323   1332     1   0.15375 251793.120000
   1326   1329     1   0.15375 251793.120000
   1329   1335     1   0.15241 261918.400000
   1332   1336     1   0.15241 261918.400000
   1335   1337     1   0.12183 533627.360000
   1335   2714     1   0.13789 357815.680000
   1336   1338     1   0.12183 533627.360000
   1336   2739     1   0.13789 357815.680000
   1341   1344     1   0.15375 251793.120000
   1341   1347     1   0.14647 272713.120000
   1344   1364     1   0.14619 275056.160000
   1347   1348     1   0.14647 272713.120000
   1347   1351     1   0.14647 272713.120000
   1348   1357     1   0.15375 251793.120000
   1351   1354     1   0.15375 251793.120000
   1354   1360     1   0.15241 261918.400000
   1357   1361     1   0.15241 261918.400000
   1360   1362     1   0.12183 533627.360000
   1360   2764     1   0.13789 357815.680000
   1361   1363     1   0.12183 533627.360000
   1361   2789     1   0.13789 357815.680000
   1366   1369     1   0.15375 251793.120000
   1366   1372     1   0.14647 272713.120000
   1369   1389     1   0.14619 275056.160000
   1372   1373     1   0.14647 272713.120000
   1372   1376     1   0.14647 272713.120000
   1373   1382     1   0.15375 251793.120000
   1376   1379     1   0.15375 251793.120000
   1379   1385     1   0.15241 261918.400000
   1382   1386     1   0.15241 261918.400000
   1385   1387     1   0.12183 533627.360000
   1385   2814     1   0.13789 357815.680000
   1386   1388     1   0.12183 533627.360000
   1386   2839     1   0.13789 357815.680000
   1391   1394     1   0.15375 251793.120000
   1391   1397     1   0.14647 272713.120000
   1394   1414     1   0.14619 275056.160000
   1397   1398     1   0.14647 272713.120000
   1397   1401     1   0.14647 272713.120000
   1398   1407     1   0.15375 251793.120000
   1401   1404     1   0.15375 251793.120000
   1404   1410     1   0.15241 261918.400000
   1407   1411     1   0.15241 261918.400000
   1410   1412     1   0.12183 533627.360000
   1410   2864     1   0.13789 357815.680000
   1411   1413     1   0.12183 533627.360000
   1411   2889     1   0.13789 357815.680000
   1416   1419     1   0.15375 251793.120000
   1416   1422     1   0.14647 272713.120000
   1419   1439     1   0.14619 275056.160000
   1422   1423     1   0.14647 272713.120000
   1422   1426     1   0.14647 272713.120000
   1423   1432     1   0.15375 251793.120000
   1426   1429     1   0.15375 251793.120000
   1429   1435     1   0.15241 261918.400000
   1432   1436     1   0.15241 261918.400000
   1435   1437     1   0.12183 533627.360000
   1435   2914     1   0.13789 357815.680000
   1436   1438     1   0.12183 533627.360000
   1436   2939     1   0.13789 357815.680000
   1441   1444     1   0.15375 251793.120000
   1441   1447     1   0.14647 272713.120000
   1444   1464     1   0.14619 275056.160000
   1447   1448     1   0.14647 272713.120000
   1447   1451     1   0.14647 272713.120000
   1448   1457     1   0.15375 251793.120000
   1451   1454     1   0.15375 251793.120000
   1454   1460     1   0.15241 261918.400000
   1457   1461     1   0.15241 261918.400000
   1460   1462     1   0.12183 533627.360000
   1460   2964     1   0.13789 357815.680000
   1461   1463     1   0.12183 533627.360000
   1461   2989     1   0.13789 357815.680000
   1466   1469     1   0.15375 251793.120000
   1466   1472     1   0.14647 272713.120000
   1469   1489     1   0.14619 275056.160000
   1472   1473     1   0.14647 272713.120000
   1472   1476     1   0.14647 272713.120000
   1473   1482     1   0.15375 251793.120000
   1476   1479     1   0.15375 251793.120000
   1479   1485     1   0.15241 261918.400000
   1482   1486     1   0.15241 261918.400000
   1485   1487     1   0.12183 533627.360000
   1485   3014     1   0.13789 357815.680000
   1486   1488     1   0.12183 533627.360000
   1486   3039     1   0.13789 357815.680000
   1491   1494     1   0.15375 251793.120000
   1491   1497     1   0.14647 272713.120000
   1494   1514     1   0.14619 275056.160000
   1497   1498     1   0.14647 272713.120000
   1497   1501     1   0.14647 272713.120000
   1498   1507     1   0.15375 251793.120000
   1501   1504     1   0.15375 251793.120000
   1504   1510     1   0.15241 261918.400000
   1507   1511     1   0.15241 261918.400000
   1510   1512     1   0.12183 533627.360000
   1510   3064     1   0.13789 357815.680000
   1511   1513     1   0.12183 533627.360000
   1511   3089     1   0.13789 357815.680000
   1516   1519     1   0.15375 251793.120000
   1516   1522     1   0.14647 272713.120000
   1519   1539     1   0.14619 275056.160000
   1522   1523     1   0.14647 272713.120000
   1522   1526     1   0.14647 272713.120000
   1523   1532     1   0.15375 251793.120000
   1526   1529     1   0.15375 251793.120000
   1529   1535     1   0.15241 261918.400000
   1532   1536     1   0.15241 261918.400000
   1535   1537     1   0.12183 533627.360000
   1535   3114     1   0.13789 357815.680000
   1536   1538     1   0.12183 533627.360000
   1536   3139     1   0.13789 357815.680000
   1541   1544     1   0.15375 251793.120000
   1541   1547     1   0.14647 272713.120000
   1544   1564     1   0.14619 275056.160000
   1547   1548     1   0.14647 272713.120000
   1547   1551     1   0.14647 272713.120000
   1548   1557     1   0.15375 251793.120000
   1551   1554     1   0.15375 251793.120000
   1554   1560     1   0.15241 261918.400000
   1557   1561     1   0.15241 261918.400000
   1560   3150     1   0.13789 357815.680000
   1560   1562     1   0.12183 533627.360000
   1561   1563     1   0.12183 533627.360000
   1561   3161     1   0.13789 357815.680000
   1566   1569     1   0.15375 251793.120000
   1566   1572     1   0.14647 272713.120000
   1569   1589     1   0.14619 275056.160000
   1572   1573     1   0.14647 272713.120000
   1572   1576     1   0.14647 272713.120000
   1573   1582     1   0.15375 251793.120000
   1576   1579     1   0.15375 251793.120000
   1579   1585     1   0.15241 261918.400000
   1582   1586     1   0.15241 261918.400000
   1585   3172     1   0.13789 357815.680000
   1585   1587     1   0.12183 533627.360000
   1586   1588     1   0.12183 533627.360000
   1586   3183     1   0.13789 357815.680000
   1591   1594     1   0.15375 251793.120000
   1591   1597     1   0.14647 272713.120000
   1594   1614     1   0.14619 275056.160000
   1597   1598     1   0.14647 272713.120000
   1597   1601     1   0.14647 272713.120000
   1598   1607     1   0.15375 251793.120000
   1601   1604     1   0.15375 251793.120000
   1604   1610     1   0.15241 261918.400000
   1607   1611     1   0.15241 261918.400000
   1610   3194     1   0.13789 357815.680000
   1610   1612     1   0.12183 533627.360000
   1611   1613     1   0.12183 533627.360000
   1611   3205     1   0.13789 357815.680000
   1616   1619     1   0.15375 251793.120000
   1616   1622     1   0.14647 272713.120000
   1619   1639     1   0.14619 275056.160000
   1622   1623     1   0.14647 272713.120000
   1622   1626     1   0.14647 272713.120000
   1623   1632     1   0.15375 251793.120000
   1626   1629     1   0.15375 251793.120000
   1629   1635     1   0.15241 261918.400000
   1632   1636     1   0.15241 261918.400000
   1635   3216     1   0.13789 357815.680000
   1635   1637     1   0.12183 533627.360000
   1636   1638     1   0.12183 533627.360000
   1636   3227     1   0.13789 357815.680000
   1641   1644     1   0.15375 251793.120000
   1641   1647     1   0.14647 272713.120000
   1644   1664     1   0.14619 275056.160000
   1647   1648     1   0.14647 272713.120000
   1647   1651     1   0.14647 272713.120000
   1648   1657     1   0.15375 251793.120000
   1651   1654     1   0.15375 251793.120000
   1654   1660     1   0.15241 261918.400000
   1657   1661     1   0.15241 261918.400000
   1660   3238     1   0.13789 357815.680000
   1660   1662     1   0.12183 533627.360000
   1661   1663     1   0.12183 533627.360000
   1661   3249     1   0.13789 357815.680000
   1666   1669     1   0.15375 251793.120000
   1666   1672     1   0.14647 272713.120000
   1669   1689     1   0.14619 275056.160000
   1672   1673     1   0.14647 272713.120000
   1672   1676     1   0.14647 272713.120000
   1673   1682     1   0.15375 251793.120000
   1676   1679     1   0.15375 251793.120000
   1679   1685     1   0.15241 261918.400000
   1682   1686     1   0.15241 261918.400000
   1685   3260     1   0.13789 357815.680000
   1685   1687     1   0.12183 533627.360000
   1686   1688     1   0.12183 533627.360000
   1686   3271     1   0.13789 357815.680000
   1691   1694     1   0.15375 251793.120000
   1691   1697     1   0.14647 272713.120000
   1694   1714     1   0.14619 275056.160000
   1697   1698     1   0.14647 272713.120000
   1697   1701     1   0.14647 272713.120000
   1698   1707     1   0.15375 251793.120000
   1701   1704     1   0.15375 251793.120000
   1704   1710     1   0.15241 261918.400000
   1707   1711     1   0.15241 261918.400000
   1710   3282     1   0.13789 357815.680000
   1710   1712     1   0.12183 533627.360000
   1711   1713     1   0.12183 533627.360000
   1711   3293     1   0.13789 357815.680000
   1716   1719     1   0.15375 251793.120000
   1716   1722     1   0.14647 272713.120000
   1719   1739     1   0.14619 275056.160000
   1722   1723     1   0.14647 272713.120000
   1722   1726     1   0.14647 272713.120000
   1723   1732     1   0.15375 251793.120000
   1726   1729     1   0.15375 251793.120000
   1729   1735     1   0.15241 261918.400000
   1732   1736     1   0.15241 261918.400000
   1735   3304     1   0.13789 357815.680000
   1735   1737     1   0.12183 533627.360000
   1736   1738     1   0.12183 533627.360000
   1736   3315     1   0.13789 357815.680000
   1741   1744     1   0.15375 251793.120000
   1741   1747     1   0.14647 272713.120000
   1744   1764     1   0.14619 275056.160000
   1747   1748     1   0.14647 272713.120000
   1747   1751     1   0.14647 272713.120000
   1748   1757     1   0.15375 251793.120000
   1751   1754     1   0.15375 251793.120000
   1754   1760     1   0.15241 261918.400000
   1757   1761     1   0.15241 261918.400000
   1760   3326     1   0.13789 357815.680000
   1760   1762     1   0.12183 533627.360000
   1761   1763     1   0.12183 533627.360000
   1761   3337     1   0.13789 357815.680000
   1766   1769     1   0.15375 251793.120000
   1766   1772     1   0.14647 272713.120000
   1769   1789     1   0.14619 275056.160000
   1772   1773     1   0.14647 272713.120000
   1772   1776     1   0.14647 272713.120000
   1773   1782     1   0.15375 251793.120000
   1776   1779     1   0.15375 251793.120000
   1779   1785     1   0.15241 261918.400000
   1782   1786     1   0.15241 261918.400000
   1785   3348     1   0.13789 357815.680000
   1785   1787     1   0.12183 533627.360000
   1786   1788     1   0.12183 533627.360000
   1786   3359     1   0.13789 357815.680000
   1791   1794     1   0.15375 251793.120000
   1791   1797     1   0.14647 272713.120000
   1794   1814     1   0.14619 275056.160000
   1797   1798     1   0.14647 272713.120000
   1797   1801     1   0.14647 272713.120000
   1798   1807     1   0.15375 251793.120000
   1801   1804     1   0.15375 251793.120000
   1804   1810     1   0.15241 261918.400000
   1807   1811     1   0.15241 261918.400000
   1810   3370     1   0.13789 357815.680000
   1810   1812     1   0.12183 533627.360000
   1811   1813     1   0.12183 533627.360000
   1811   3381     1   0.13789 357815.680000
   1816   1819     1   0.15375 251793.120000
   1816   1822     1   0.14647 272713.120000
   1819   1839     1   0.14619 275056.160000
   1822   1823     1   0.14647 272713.120000
   1822   1826     1   0.14647 272713.120000
   1823   1832     1   0.15375 251793.120000
   1826   1829     1   0.15375 251793.120000
   1829   1835     1   0.15241 261918.400000
   1832   1836     1   0.15241 261918.400000
   1835   3392     1   0.13789 357815.680000
   1835   1837     1   0.12183 533627.360000
   1836   1838     1   0.12183 533627.360000
   1836   3403     1   0.13789 357815.680000
   1841   1844     1   0.15375 251793.120000
   1841   1847     1   0.14647 272713.120000
   1844   1864     1   0.14619 275056.160000
   1847   1848     1   0.14647 272713.120000
   1847   1851     1   0.14647 272713.120000
   1848   1857     1   0.15375 251793.120000
   1851   1854     1   0.15375 251793.120000
   1854   1860     1   0.15241 261918.400000
   1857   1861     1   0.15241 261918.400000
   1860   3414     1   0.13789 357815.680000
   1860   1862     1   0.12183 533627.360000
   1861   1863     1   0.12183 533627.360000
   1861   3425     1   0.13789 357815.680000
   1866   1869     1   0.15375 251793.120000
   1866   1872     1   0.14647 272713.120000
   1869   1889     1   0.14619 275056.160000
   1872   1873     1   0.14647 272713.120000
   1872   1876     1   0.14647 272713.120000
   1873   1882     1   0.15375 251793.120000
   1876   1879     1   0.15375 251793.120000
   1879   1885     1   0.15241 261918.400000
   1882   1886     1   0.15241 261918.400000
   1885   3436     1   0.13789 357815.680000
   1885   1887     1   0.12183 533627.360000
   1886   1888     1   0.12183 533627.360000
   1886   3447     1   0.13789 357815.680000
   1891   1894     1   0.15375 251793.120000
   1891   1897     1   0.14647 272713.120000
   1894   1914     1   0.14619 275056.160000
   1897   1898     1   0.14647 272713.120000
   1897   1901     1   0.14647 272713.120000
   1898   1907     1   0.15375 251793.120000
   1901   1904     1   0.15375 251793.120000
   1904   1910     1   0.15241 261918.400000
   1907   1911     1   0.15241 261918.400000
   1910   3458     1   0.13789 357815.680000
   1910   1912     1   0.12183 533627.360000
   1911   1913     1   0.12183 533627.360000
   1911   3469     1   0.13789 357815.680000
   1916   1919     1   0.15375 251793.120000
   1916   1922     1   0.14647 272713.120000
   1919   1939     1   0.14619 275056.160000
   1922   1923     1   0.14647 272713.120000
   1922   1926     1   0.14647 272713.120000
   1923   1932     1   0.15375 251793.120000
   1926   1929     1   0.15375 251793.120000
   1929   1935     1   0.15241 261918.400000
   1932   1936     1   0.15241 261918.400000
   1935   3480     1   0.13789 357815.680000
   1935   1937     1   0.12183 533627.360000
   1936   1938     1   0.12183 533627.360000
   1936   3491     1   0.13789 357815.680000
   1941   1944     1   0.15375 251793.120000
   1941   1947     1   0.14647 272713.120000
   1944   1964     1   0.14619 275056.160000
   1947   1948     1   0.14647 272713.120000
   1947   1951     1   0.14647 272713.120000
   1948   1957     1   0.15375 251793.120000
   1951   1954     1   0.15375 251793.120000
   1954   1960     1   0.15241 261918.400000
   1957   1961     1   0.15241 261918.400000
   1960   3502     1   0.13789 357815.680000
   1960   1962     1   0.12183 533627.360000
   1961   1963     1   0.12183 533627.360000
   1961   3513     1   0.13789 357815.680000
   1966   1969     1   0.15375 251793.120000
   1966   1972     1   0.14647 272713.120000
   1969   1989     1   0.14619 275056.160000
   1972   1973     1   0.14647 272713.120000
   1972   1976     1   0.14647 272713.120000
   1973   1982     1   0.15375 251793.120000
   1976   1979     1   0.15375 251793.120000
   1979   1985     1   0.15241 261918.400000
   1982   1986     1   0.15241 261918.400000
   1985   3524     1   0.13789 357815.680000
   1985   1987     1   0.12183 533627.360000
   1986   1988     1   0.12183 533627.360000
   1986   3535     1   0.13789 357815.680000
   1991   1994     1   0.15375 251793.120000
   1991   1997     1   0.14647 272713.120000
   1994   2014     1   0.14619 275056.160000
   1997   1998     1   0.14647 272713.120000
   1997   2001     1   0.14647 272713.120000
   1998   2007     1   0.15375 251793.120000
   2001   2004     1   0.15375 251793.120000
   2004   2010     1   0.15241 261918.400000
   2007   2011     1   0.15241 261918.400000
   2010   3546     1   0.13789 357815.680000
   2010   2012     1   0.12183 533627.360000
   2011   2013     1   0.12183 533627.360000
   2011   3557     1   0.13789 357815.680000
   2016   2019     1   0.15375 251793.120000
   2016   2022     1   0.14647 272713.120000
   2019   2039     1   0.14619 275056.160000
   2022   2023     1   0.14647 272713.120000
   2022   2026     1   0.14647 272713.120000
   2023   2032     1   0.15375 251793.120000
   2026   2029     1   0.15375 251793.120000
   2029   2035     1   0.15241 261918.400000
   2032   2036     1   0.15241 261918.400000
   2035   3568     1   0.13789 357815.680000
   2035   2037     1   0.12183 533627.360000
   2036   2038     1   0.12183 533627.360000
   2036   3579     1   0.13789 357815.680000
   2041   2044     1   0.15375 251793.120000
   2041   2047     1   0.14647 272713.120000
   2044   2064     1   0.14619 275056.160000
   2047   2048     1   0.14647 272713.120000
   2047   2051     1   0.14647 272713.120000
   2048   2057     1   0.15375 251793.120000
   2051   2054     1   0.15375 251793.120000
   2054   2060     1   0.15241 261918.400000
   2057   2061     1   0.15241 261918.400000
   2060   3590     1   0.13789 357815.680000
   2060   2062     1   0.12183 533627.360000
   2061   2063     1   0.12183 533627.360000
   2061   3601     1   0.13789 357815.680000
   2066   2069     1   0.15375 251793.120000
   2066   2072     1   0.14647 272713.120000
   2069   2089     1   0.14619 275056.160000
   2072   2073     1   0.14647 272713.120000
   2072   2076     1   0.14647 272713.120000
   2073   2082     1   0.15375 251793.120000
   2076   2079     1   0.15375 251793.120000
   2079   2085     1   0.15241 261918.400000
   2082   2086     1   0.15241 261918.400000
   2085   3612     1   0.13789 357815.680000
   2085   2087     1   0.12183 533627.360000
   2086   2088     1   0.12183 533627.360000
   2086   3623     1   0.13789 357815.680000
   2091   2094     1   0.15375 251793.120000
   2091   2097     1   0.14647 272713.120000
   2094   2114     1   0.14619 275056.160000
   2097   2098     1   0.14647 272713.120000
   2097   2101     1   0.14647 272713.120000
   2098   2107     1   0.15375 251793.120000
   2101   2104     1   0.15375 251793.120000
   2104   2110     1   0.15241 261918.400000
   2107   2111     1   0.15241 261918.400000
   2110   3634     1   0.13789 357815.680000
   2110   2112     1   0.12183 533627.360000
   2111   2113     1   0.12183 533627.360000
   2111   3645     1   0.13789 357815.680000
   2116   2119     1   0.15375 251793.120000
   2116   2122     1   0.14647 272713.120000
   2119   2139     1   0.14619 275056.160000
   2122   2123     1   0.14647 272713.120000
   2122   2126     1   0.14647 272713.120000
   2123   2132     1   0.15375 251793.120000
   2126   2129     1   0.15375 251793.120000
   2129   2135     1   0.15241 261918.400000
   2132   2136     1   0.15241 261918.400000
   2135   3656     1   0.13789 357815.680000
   2135   2137     1   0.12183 533627.360000
   2136   2138     1   0.12183 533627.360000
   2136   3667     1   0.13789 357815.680000
   2141   2144     1   0.15375 251793.120000
   2141   2147     1   0.14647 272713.120000
   2144   2164     1   0.14619 275056.160000
   2147   2148     1   0.14647 272713.120000
   2147   2151     1   0.14647 272713.120000
   2148   2157     1   0.15375 251793.120000
   2151   2154     1   0.15375 251793.120000
   2154   2160     1   0.15241 261918.400000
   2157   2161     1   0.15241 261918.400000
   2160   3678     1   0.13789 357815.680000
   2160   2162     1   0.12183 533627.360000
   2161   2163     1   0.12183 533627.360000
   2161   3689     1   0.13789 357815.680000
   2166   2169     1   0.15375 251793.120000
   2166   2172     1   0.14647 272713.120000
   2169   2189     1   0.14619 275056.160000
   2172   2173     1   0.14647 272713.120000
   2172   2176     1   0.14647 272713.120000
   2173   2182     1   0.15375 251793.120000
   2176   2179     1   0.15375 251793.120000
   2179   2185     1   0.15241 261918.400000
   2182   2186     1   0.15241 261918.400000
   2185   3700     1   0.13789 357815.680000
   2185   2187     1   0.12183 533627.360000
   2186   2188     1   0.12183 533627.360000
   2186   3711     1   0.13789 357815.680000
   2191   2194     1   0.15375 251793.120000
   2191   2197     1   0.14647 272713.120000
   2194   2214     1   0.14619 275056.160000
   2197   2198     1   0.14647 272713.120000
   2197   2201     1   0.14647 272713.120000
   2198   2207     1   0.15375 251793.120000
   2201   2204     1   0.15375 251793.120000
   2204   2210     1   0.15241 261918.400000
   2207   2211     1   0.15241 261918.400000
   2210   3722     1   0.13789 357815.680000
   2210   2212     1   0.12183 533627.360000
   2211   2213     1   0.12183 533627.360000
   2211   3733     1   0.13789 357815.680000
   2216   2219     1   0.15375 251793.120000
   2216   2222     1   0.14647 272713.120000
   2219   2239     1   0.14619 275056.160000
   2222   2223     1   0.14647 272713.120000
   2222   2226     1   0.14647 272713.120000
   2223   2232     1   0.15375 251793.120000
   2226   2229     1   0.15375 251793.120000
   2229   2235     1   0.15241 261918.400000
   2232   2236     1   0.15241 261918.400000
   2235   3744     1   0.13789 357815.680000
   2235   2237     1   0.12183 533627.360000
   2236   2238     1   0.12183 533627.360000
   2236   3755     1   0.13789 357815.680000
   2241   2244     1   0.15375 251793.120000
   2241   2247     1   0.14647 272713.120000
   2244   2264     1   0.14619 275056.160000
   2247   2248     1   0.14647 272713.120000
   2247   2251     1   0.14647 272713.120000
   2248   2257     1   0.15375 251793.120000
   2251   2254     1   0.15375 251793.120000
   2254   2260     1   0.15241 261918.400000
   2257   2261     1   0.15241 261918.400000
   2260   3766     1   0.13789 357815.680000
   2260   2262     1   0.12183 533627.360000
   2261   2263     1   0.12183 533627.360000
   2261   3777     1   0.13789 357815.680000
   2266   2269     1   0.15375 251793.120000
   2266   2272     1   0.14647 272713.120000
   2269   2289     1   0.14619 275056.160000
   2272   2273     1   0.14647 272713.120000
   2272   2276     1   0.14647 272713.120000
   2273   2282     1   0.15375 251793.120000
   2276   2279     1   0.15375 251793.120000
   2279   2285     1   0.15241 261918.400000
   2282   2286     1   0.15241 261918.400000
   2285   3788     1   0.13789 357815.680000
   2285   2287     1   0.12183 533627.360000
   2286   2288     1   0.12183 533627.360000
   2286   3799     1   0.13789 357815.680000
   2291   2294     1   0.15375 251793.120000
   2291   2297     1   0.14647 272713.120000
   2294   2314     1   0.14619 275056.160000
   2297   2298     1   0.14647 272713.120000
   2297   2301     1   0.14647 272713.120000
   2298   2307     1   0.15375 251793.120000
   2301   2304     1   0.15375 251793.120000
   2304   2310     1   0.15241 261918.400000
   2307   2311     1   0.15241 261918.400000
   2310   3810     1   0.13789 357815.680000
   2310   2312     1   0.12183 533627.360000
   2311   2313     1   0.12183 533627.360000
   2311   3821     1   0.13789 357815.680000
   2316   2319     1   0.15375 251793.120000
   2316   2322     1   0.14647 272713.120000
   2319   2339     1   0.14619 275056.160000
   2322   2323     1   0.14647 272713.120000
   2322   2326     1   0.14647 272713.120000
   2323   2332     1   0.15375 251793.120000
   2326   2329     1   0.15375 251793.120000
   2329   2335     1   0.15241 261918.400000
   2332   2336     1   0.15241 261918.400000
   2335   3832     1   0.13789 357815.680000
   2335   2337     1   0.12183 533627.360000
   2336   2338     1   0.12183 533627.360000
   2336   3843     1   0.13789 357815.680000
   2341   2344     1   0.15375 251793.120000
   2341   2347     1   0.14647 272713.120000
   2344   2364     1   0.14619 275056.160000
   2347   2348     1   0.14647 272713.120000
   2347   2351     1   0.14647 272713.120000
   2348   2357     1   0.15375 251793.120000
   2351   2354     1   0.15375 251793.120000
   2354   2360     1   0.15241 261918.400000
   2357   2361     1   0.15241 261918.400000
   2360   3854     1   0.13789 357815.680000
   2360   2362     1   0.12183 533627.360000
   2361   2363     1   0.12183 533627.360000
   2361   3865     1   0.13789 357815.680000
   2366   2369     1   0.15375 251793.120000
   2366   2372     1   0.14647 272713.120000
   2369   2389     1   0.14619 275056.160000
   2372   2373     1   0.14647 272713.120000
   2372   2376     1   0.14647 272713.120000
   2373   2382     1   0.15375 251793.120000
   2376   2379     1   0.15375 251793.120000
   2379   2385     1   0.15241 261918.400000
   2382   2386     1   0.15241 261918.400000
   2385   3876     1   0.13789 357815.680000
   2385   2387     1   0.12183 533627.360000
   2386   2388     1   0.12183 533627.360000
   2386   3887     1   0.13789 357815.680000
   2391   2394     1   0.15375 251793.120000
   2391   2397     1   0.14647 272713.120000
   2394   2414     1   0.14619 275056.160000
   2397   2398     1   0.14647 272713.120000
   2397   2401     1   0.14647 272713.120000
   2398   2407     1   0.15375 251793.120000
   2401   2404     1   0.15375 251793.120000
   2404   2410     1   0.15241 261918.400000
   2407   2411     1   0.15241 261918.400000
   2410   3898     1   0.13789 357815.680000
   2410   2412     1   0.12183 533627.360000
   2411   2413     1   0.12183 533627.360000
   2411   3909     1   0.13789 357815.680000
   2416   2419     1   0.15375 251793.120000
   2416   2422     1   0.14647 272713.120000
   2419   2439     1   0.14619 275056.160000
   2422   2423     1   0.14647 272713.120000
   2422   2426     1   0.14647 272713.120000
   2423   2432     1   0.15375 251793.120000
   2426   2429     1   0.15375 251793.120000
   2429   2435     1   0.15241 261918.400000
   2432   2436     1   0.15241 261918.400000
   2435   3920     1   0.13789 357815.680000
   2435   2437     1   0.12183 533627.360000
   2436   2438     1   0.12183 533627.360000
   2436   3931     1   0.13789 357815.680000
   2441   2444     1   0.15375 251793.120000
   2441   2447     1   0.14647 272713.120000
   2444   2464     1   0.14619 275056.160000
   2447   2448     1   0.14647 272713.120000
   2447   2451     1   0.14647 272713.120000
   2448   2457     1   0.15375 251793.120000
   2451   2454     1   0.15375 251793.120000
   2454   2460     1   0.15241 261918.400000
   2457   2461     1   0.15241 261918.400000
   2460   3942     1   0.13789 357815.680000
   2460   2462     1   0.12183 533627.360000
   2461   2463     1   0.12183 533627.360000
   2461   3953     1   0.13789 357815.680000
   2466   2469     1   0.15375 251793.120000
   2466   2472     1   0.14647 272713.120000
   2469   2489     1   0.14619 275056.160000
   2472   2473     1   0.14647 272713.120000
   2472   2476     1   0.14647 272713.120000
   2473   2482     1   0.15375 251793.120000
   2476   2479     1   0.15375 251793.120000
   2479   2485     1   0.15241 261918.400000
   2482   2486     1   0.15241 261918.400000
   2485   3964     1   0.13789 357815.680000
   2485   2487     1   0.12183 533627.360000
   2486   2488     1   0.12183 533627.360000
   2486   3975     1   0.13789 357815.680000
   2491   2494     1   0.15375 251793.120000
   2491   2497     1   0.14647 272713.120000
   2494   2514     1   0.14619 275056.160000
   2497   2498     1   0.14647 272713.120000
   2497   2501     1   0.14647 272713.120000
   2498   2507     1   0.15375 251793.120000
   2501   2504     1   0.15375 251793.120000
   2504   2510     1   0.15241 261918.400000
   2507   2511     1   0.15241 261918.400000
   2510   3986     1   0.13789 357815.680000
   2510   2512     1   0.12183 533627.360000
   2511   2513     1   0.12183 533627.360000
   2511   3997     1   0.13789 357815.680000
   2516   2519     1   0.15375 251793.120000
   2516   2522     1   0.14647 272713.120000
   2519   2539     1   0.14619 275056.160000
   2522   2523     1   0.14647 272713.120000
   2522   2526     1   0.14647 272713.120000
   2523   2532     1   0.15375 251793.120000
   2526   2529     1   0.15375 251793.120000
   2529   2535     1   0.15241 261918.400000
   2532   2536     1   0.15241 261918.400000
   2535   4008     1   0.13789 357815.680000
   2535   2537     1   0.12183 533627.360000
   2536   2538     1   0.12183 533627.360000
   2536   4019     1   0.13789 357815.680000
   2541   2544     1   0.15375 251793.120000
   2541   2547     1   0.14647 272713.120000
   2544   2564     1   0.14619 275056.160000
   2547   2548     1   0.14647 272713.120000
   2547   2551     1   0.14647 272713.120000
   2548   2557     1   0.15375 251793.120000
   2551   2554     1   0.15375 251793.120000
   2554   2560     1   0.15241 261918.400000
   2557   2561     1   0.15241 261918.400000
   2560   4030     1   0.13789 357815.680000
   2560   2562     1   0.12183 533627.360000
   2561   2563     1   0.12183 533627.360000
   2561   4041     1   0.13789 357815.680000
   2566   2569     1   0.15375 251793.120000
   2566   2572     1   0.14647 272713.120000
   2569   2589     1   0.14619 275056.160000
   2572   2573     1   0.14647 272713.120000
   2572   2576     1   0.14647 272713.120000
   2573   2582     1   0.15375 251793.120000
   2576   2579     1   0.15375 251793.120000
   2579   2585     1   0.15241 261918.400000
   2582   2586     1   0.15241 261918.400000
   2585   4052     1   0.13789 357815.680000
   2585   2587     1   0.12183 533627.360000
   2586   2588     1   0.12183 533627.360000
   2586   4063     1   0.13789 357815.680000
   2591   2594     1   0.15375 251793.120000
   2591   2597     1   0.14647 272713.120000
   2594   2614     1   0.14619 275056.160000
   2597   2598     1   0.14647 272713.120000
   2597   2601     1   0.14647 272713.120000
   2598   2607     1   0.15375 251793.120000
   2601   2604     1   0.15375 251793.120000
   2604   2610     1   0.15241 261918.400000
   2607   2611     1   0.15241 261918.400000
   2610   4074     1   0.13789 357815.680000
   2610   2612     1   0.12183 533627.360000
   2611   2613     1   0.12183 533627.360000
   2611   4085     1   0.13789 357815.680000
   2616   2619     1   0.15375 251793.120000
   2616   2622     1   0.14647 272713.120000
   2619   2639     1   0.14619 275056.160000
   2622   2623     1   0.14647 272713.120000
   2622   2626     1   0.14647 272713.120000
   2623   2632     1   0.15375 251793.120000
   2626   2629     1   0.15375 251793.120000
   2629   2635     1   0.15241 261918.400000
   2632   2636     1   0.15241 261918.400000
   2635   4096     1   0.13789 357815.680000
   2635   2637     1   0.12183 533627.360000
   2636   2638     1   0.12183 533627.360000
   2636   4107     1   0.13789 357815.680000
   2641   2644     1   0.15375 251793.120000
   2641   2647     1   0.14647 272713.120000
   2644   2664     1   0.14619 275056.160000
   2647   2648     1   0.14647 272713.120000
   2647   2651     1   0.14647 272713.120000
   2648   2657     1   0.15375 251793.120000
   2651   2654     1   0.15375 251793.120000
   2654   2660     1   0.15241 261918.400000
   2657   2661     1   0.15241 261918.400000
   2660   4118     1   0.13789 357815.680000
   2660   2662     1   0.12183 533627.360000
   2661   2663     1   0.12183 533627.360000
   2661   4129     1   0.13789 357815.680000
   2666   2669     1   0.15375 251793.120000
   2666   2672     1   0.14647 272713.120000
   2669   2689     1   0.14619 275056.160000
   2672   2673     1   0.14647 272713.120000
   2672   2676     1   0.14647 272713.120000
   2673   2682     1   0.15375 251793.120000
   2676   2679     1   0.15375 251793.120000
   2679   2685     1   0.15241 261918.400000
   2682   2686     1   0.15241 261918.400000
   2685   4140     1   0.13789 357815.680000
   2685   2687     1   0.12183 533627.360000
   2686   2688     1   0.12183 533627.360000
   2686   4151     1   0.13789 357815.680000
   2691   2694     1   0.15375 251793.120000
   2691   2697     1   0.14647 272713.120000
   2694   2714     1   0.14619 275056.160000
   2697   2698     1   0.14647 272713.120000
   2697   2701     1   0.14647 272713.120000
   2698   2707     1   0.15375 251793.120000
   2701   2704     1   0.15375 251793.120000
   2704   2710     1   0.15241 261918.400000
   2707   2711     1   0.15241 261918.400000
   2710   4162     1   0.13789 357815.680000
   2710   2712     1   0.12183 533627.360000
   2711   2713     1   0.12183 533627.360000
   2711   4173     1   0.13789 357815.680000
   2716   2719     1   0.15375 251793.120000
   2716   2722     1   0.14647 272713.120000
   2719   2739     1   0.14619 275056.160000
   2722   2723     1   0.14647 272713.120000
   2722   2726     1   0.14647 272713.120000
   2723   2732     1   0.15375 251793.120000
   2726   2729     1   0.15375 251793.120000
   2729   2735     1   0.15241 261918.400000
   2732   2736     1   0.15241 261918.400000
   2735   4184     1   0.13789 357815.680000
   2735   2737     1   0.12183 533627.360000
   2736   2738     1   0.12183 533627.360000
   2736   4195     1   0.13789 357815.680000
   2741   2744     1   0.15375 251793.120000
   2741   2747     1   0.14647 272713.120000
   2744   2764     1   0.14619 275056.160000
   2747   2748     1   0.14647 272713.120000
   2747   2751     1   0.14647 272713.120000
   2748   2757     1   0.15375 251793.120000
   2751   2754     1   0.15375 251793.120000
   2754   2760     1   0.15241 261918.400000
   2757   2761     1   0.15241 261918.400000
   2760   4206     1   0.13789 357815.680000
   2760   2762     1   0.12183 533627.360000
   2761   2763     1   0.12183 533627.360000
   2761   4217     1   0.13789 357815.680000
   2766   2769     1   0.15375 251793.120000
   2766   2772     1   0.14647 272713.120000
   2769   2789     1   0.14619 275056.160000
   2772   2773     1   0.14647 272713.120000
   2772   2776     1   0.14647 272713.120000
   2773   2782     1   0.15375 251793.120000
   2776   2779     1   0.15375 251793.120000
   2779   2785     1   0.15241 261918.400000
   2782   2786     1   0.15241 261918.400000
   2785   4228     1   0.13789 357815.680000
   2785   2787     1   0.12183 533627.360000
   2786   2788     1   0.12183 533627.360000
   2786   4239     1   0.13789 357815.680000
   2791   2794     1   0.15375 251793.120000
   2791   2797     1   0.14647 272713.120000
   2794   2814     1   0.14619 275056.160000
   2797   2798     1   0.14647 272713.120000
   2797   2801     1   0.14647 272713.120000
   2798   2807     1   0.15375 251793.120000
   2801   2804     1   0.15375 251793.120000
   2804   2810     1   0.15241 261918.400000
   2807   2811     1   0.15241 261918.400000
   2810   4250     1   0.13789 357815.680000
   2810   2812     1   0.12183 533627.360000
   2811   2813     1   0.12183 533627.360000
   2811   4261     1   0.13789 357815.680000
   2816   2819     1   0.15375 251793.120000
   2816   2822     1   0.14647 272713.120000
   2819   2839     1   0.14619 275056.160000
   2822   2823     1   0.14647 272713.120000
   2822   2826     1   0.14647 272713.120000
   2823   2832     1   0.15375 251793.120000
   2826   2829     1   0.15375 251793.120000
   2829   2835     1   0.15241 261918.400000
   2832   2836     1   0.15241 261918.400000
   2835   4272     1   0.13789 357815.680000
   2835   2837     1   0.12183 533627.360000
   2836   2838     1   0.12183 533627.360000
   2836   4283     1   0.13789 357815.680000
   2841   2844     1   0.15375 251793.120000
   2841   2847     1   0.14647 272713.120000
   2844   2864     1   0.14619 275056.160000
   2847   2848     1   0.14647 272713.120000
   2847   2851     1   0.14647 272713.120000
   2848   2857     1   0.15375 251793.120000
   2851   2854     1   0.15375 251793.120000
   2854   2860     1   0.15241 261918.400000
   2857   2861     1   0.15241 261918.400000
   2860   4294     1   0.13789 357815.680000
   2860   2862     1   0.12183 533627.360000
   2861   2863     1   0.12183 533627.360000
   2861   4305     1   0.13789 357815.680000
   2866   2869     1   0.15375 251793.120000
   2866   2872     1   0.14647 272713.120000
   2869   2889     1   0.14619 275056.160000
   2872   2873     1   0.14647 272713.120000
   2872   2876     1   0.14647 272713.120000
   2873   2882     1   0.15375 251793.120000
   2876   2879     1   0.15375 251793.120000
   2879   2885     1   0.15241 261918.400000
   2882   2886     1   0.15241 261918.400000
   2885   4316     1   0.13789 357815.680000
   2885   2887     1   0.12183 533627.360000
   2886   2888     1   0.12183 533627.360000
   2886   4327     1   0.13789 357815.680000
   2891   2894     1   0.15375 251793.120000
   2891   2897     1   0.14647 272713.120000
   2894   2914     1   0.14619 275056.160000
   2897   2898     1   0.14647 272713.120000
   2897   2901     1   0.14647 272713.120000
   2898   2907     1   0.15375 251793.120000
   2901   2904     1   0.15375 251793.120000
   2904   2910     1   0.15241 261918.400000
   2907   2911     1   0.15241 261918.400000
   2910   4338     1   0.13789 357815.680000
   2910   2912     1   0.12183 533627.360000
   2911   2913     1   0.12183 533627.360000
   2911   4349     1   0.13789 357815.680000
   2916   2919     1   0.15375 251793.120000
   2916   2922     1   0.14647 272713.120000
   2919   2939     1   0.14619 275056.160000
   2922   2923     1   0.14647 272713.120000
   2922   2926     1   0.14647 272713.120000
   2923   2932     1   0.15375 251793.120000
   2926   2929     1   0.15375 251793.120000
   2929   2935     1   0.15241 261918.400000
   2932   2936     1   0.15241 261918.400000
   2935   4360     1   0.13789 357815.680000
   2935   2937     1   0.12183 533627.360000
   2936   2938     1   0.12183 533627.360000
   2936   4371     1   0.13789 357815.680000
   2941   2944     1   0.15375 251793.120000
   2941   2947     1   0.14647 272713.120000
   2944   2964     1   0.14619 275056.160000
   2947   2948     1   0.14647 272713.120000
   2947   2951     1   0.14647 272713.120000
   2948   2957     1   0.15375 251793.120000
   2951   2954     1   0.15375 251793.120000
   2954   2960     1   0.15241 261918.400000
   2957   2961     1   0.15241 261918.400000
   2960   4382     1   0.13789 357815.680000
   2960   2962     1   0.12183 533627.360000
   2961   2963     1   0.12183 533627.360000
   2961   4393     1   0.13789 357815.680000
   2966   2969     1   0.15375 251793.120000
   2966   2972     1   0.14647 272713.120000
   2969   2989     1   0.14619 275056.160000
   2972   2973     1   0.14647 272713.120000
   2972   2976     1   0.14647 272713.120000
   2973   2982     1   0.15375 251793.120000
   2976   2979     1   0.15375 251793.120000
   2979   2985     1   0.15241 261918.400000
   2982   2986     1   0.15241 261918.400000
   2985   4404     1   0.13789 357815.680000
   2985   2987     1   0.12183 533627.360000
   2986   2988     1   0.12183 533627.360000
   2986   4415     1   0.13789 357815.680000
   2991   2994     1   0.15375 251793.120000
   2991   2997     1   0.14647 272713.120000
   2994   3014     1   0.14619 275056.160000
   2997   2998     1   0.14647 272713.120000
   2997   3001     1   0.14647 272713.120000
   2998   3007     1   0.15375 251793.120000
   3001   3004     1   0.15375 251793.120000
   3004   3010     1   0.15241 261918.400000
   3007   3011     1   0.15241 261918.400000
   3010   4426     1   0.13789 357815.680000
   3010   3012     1   0.12183 533627.360000
   3011   3013     1   0.12183 533627.360000
   3011   4437     1   0.13789 357815.680000
   3016   3019     1   0.15375 251793.120000
   3016   3022     1   0.14647 272713.120000
   3019   3039     1   0.14619 275056.160000
   3022   3023     1   0.14647 272713.120000
   3022   3026     1   0.14647 272713.120000
   3023   3032     1   0.15375 251793.120000
   3026   3029     1   0.15375 251793.120000
   3029   3035     1   0.15241 261918.400000
   3032   3036     1   0.15241 261918.400000
   3035   4448     1   0.13789 357815.680000
   3035   3037     1   0.12183 533627.360000
   3036   3038     1   0.12183 533627.360000
   3036   4459     1   0.13789 357815.680000
   3041   3044     1   0.15375 251793.120000
   3041   3047     1   0.14647 272713.120000
   3044   3064     1   0.14619 275056.160000
   3047   3048     1   0.14647 272713.120000
   3047   3051     1   0.14647 272713.120000
   3048   3057     1   0.15375 251793.120000
   3051   3054     1   0.15375 251793.120000
   3054   3060     1   0.15241 261918.400000
   3057   3061     1   0.15241 261918.400000
   3060   4470     1   0.13789 357815.680000
   3060   3062     1   0.12183 533627.360000
   3061   3063     1   0.12183 533627.360000
   3061   4481     1   0.13789 357815.680000
   3066   3069     1   0.15375 251793.120000
   3066   3072     1   0.14647 272713.120000
   3069   3089     1   0.14619 275056.160000
   3072   3073     1   0.14647 272713.120000
   3072   3076     1   0.14647 272713.120000
   3073   3082     1   0.15375 251793.120000
   3076   3079     1   0.15375 251793.120000
   3079   3085     1   0.15241 261918.400000
   3082   3086     1   0.15241 261918.400000
   3085   4492     1   0.13789 357815.680000
   3085   3087     1   0.12183 533627.360000
   3086   3088     1   0.12183 533627.360000
   3086   4503     1   0.13789 357815.680000
   3091   3094     1   0.15375 251793.120000
   3091   3097     1   0.14647 272713.120000
   3094   3114     1   0.14619 275056.160000
   3097   3098     1   0.14647 272713.120000
   3097   3101     1   0.14647 272713.120000
   3098   3107     1   0.15375 251793.120000
   3101   3104     1   0.15375 251793.120000
   3104   3110     1   0.15241 261918.400000
   3107   3111     1   0.15241 261918.400000
   3110   4514     1   0.13789 357815.680000
   3110   3112     1   0.12183 533627.360000
   3111   3113     1   0.12183 533627.360000
   3111   4525     1   0.13789 357815.680000
   3116   3119     1   0.15375 251793.120000
   3116   3122     1   0.14647 272713.120000
   3119   3139     1   0.14619 275056.160000
   3122   3123     1   0.14647 272713.120000
   3122   3126     1   0.14647 272713.120000
   3123   3132     1   0.15375 251793.120000
   3126   3129     1   0.15375 251793.120000
   3129   3135     1   0.15241 261918.400000
   3132   3136     1   0.15241 261918.400000
   3135   4536     1   0.13789 357815.680000
   3135   3137     1   0.12183 533627.360000
   3136   4547     1   0.13789 357815.680000
   3136   3138     1   0.12183 533627.360000
   3141   3144     1   0.15375 251793.120000
   3141   3150     1   0.14619 275056.160000
   3144   3147     1   0.14647 272713.120000
   3152   3155     1   0.15375 251793.120000
   3152   3161     1   0.14619 275056.160000
   3155   3158     1   0.14647 272713.120000
   3163   3166     1   0.15375 251793.120000
   3163   3172     1   0.14619 275056.160000
   3166   3169     1   0.14647 272713.120000
   3174   3177     1   0.15375 251793.120000
   3174   3183     1   0.14619 275056.160000
   3177   3180     1   0.14647 272713.120000
   3185   3188     1   0.15375 251793.120000
   3185   3194     1   0.14619 275056.160000
   3188   3191     1   0.14647 272713.120000
   3196   3199     1   0.15375 251793.120000
   3196   3205     1   0.14619 275056.160000
   3199   3202     1   0.14647 272713.120000
   3207   3210     1   0.15375 251793.120000
   3207   3216     1   0.14619 275056.160000
   3210   3213     1   0.14647 272713.120000
   3218   3221     1   0.15375 251793.120000
   3218   3227     1   0.14619 275056.160000
   3221   3224     1   0.14647 272713.120000
   3229   3232     1   0.15375 251793.120000
   3229   3238     1   0.14619 275056.160000
   3232   3235     1   0.14647 272713.120000
   3240   3243     1   0.15375 251793.120000
   3240   3249     1   0.14619 275056.160000
   3243   3246     1   0.14647 272713.120000
   3251   3254     1   0.15375 251793.120000
   3251   3260     1   0.14619 275056.160000
   3254   3257     1   0.14647 272713.120000
   3262   3265     1   0.15375 251793.120000
   3262   3271     1   0.14619 275056.160000
   3265   3268     1   0.14647 272713.120000
   3273   3276     1   0.15375 251793.120000
   3273   3282     1   0.14619 275056.160000
   3276   3279     1   0.14647 272713.120000
   3284   3287     1   0.15375 251793.120000
   3284   3293     1   0.14619 275056.160000
   3287   3290     1   0.14647 272713.120000
   3295   3298     1   0.15375 251793.120000
   3295   3304     1   0.14619 275056.160000
   3298   3301     1   0.14647 272713.120000
   3306   3309     1   0.15375 251793.120000
   3306   3315     1   0.14619 275056.160000
   3309   3312     1   0.14647 272713.120000
   3317   3320     1   0.15375 251793.120000
   3317   3326     1   0.14619 275056.160000
   3320   3323     1   0.14647 272713.120000
   3328   3331     1   0.15375 251793.120000
   3328   3337     1   0.14619 275056.160000
   3331   3334     1   0.14647 272713.120000
   3339   3342     1   0.15375 251793.120000
   3339   3348     1   0.14619 275056.160000
   3342   3345     1   0.14647 272713.120000
   3350   3353     1   0.15375 251793.120000
   3350   3359     1   0.14619 275056.160000
   3353   3356     1   0.14647 272713.120000
   3361   3364     1   0.15375 251793.120000
   3361   3370     1   0.14619 275056.160000
   3364   3367     1   0.14647 272713.120000
   3372   3375     1   0.15375 251793.120000
   3372   3381     1   0.14619 275056.160000
   3375   3378     1   0.14647 272713.120000
   3383   3386     1   0.15375 251793.120000
   3383   3392     1   0.14619 275056.160000
   3386   3389     1   0.14647 272713.120000
   3394   3397     1   0.15375 251793.120000
   3394   3403     1   0.14619 275056.160000
   3397   3400     1   0.14647 272713.120000
   3405   3408     1   0.15375 251793.120000
   3405   3414     1   0.14619 275056.160000
   3408   3411     1   0.14647 272713.120000
   3416   3419     1   0.15375 251793.120000
   3416   3425     1   0.14619 275056.160000
   3419   3422     1   0.14647 272713.120000
   3427   3430     1   0.15375 251793.120000
   3427   3436     1   0.14619 275056.160000
   3430   3433     1   0.14647 272713.120000
   3438   3441     1   0.15375 251793.120000
   3438   3447     1   0.14619 275056.160000
   3441   3444     1   0.14647 272713.120000
   3449   3452     1   0.15375 251793.120000
   3449   3458     1   0.14619 275056.160000
   3452   3455     1   0.14647 272713.120000
   3460   3463     1   0.15375 251793.120000
   3460   3469     1   0.14619 275056.160000
   3463   3466     1   0.14647 272713.120000
   3471   3474     1   0.15375 251793.120000
   3471   3480     1   0.14619 275056.160000
   3474   3477     1   0.14647 272713.120000
   3482   3485     1   0.15375 251793.120000
   3482   3491     1   0.14619 275056.160000
   3485   3488     1   0.14647 272713.120000
   3493   3496     1   0.15375 251793.120000
   3493   3502     1   0.14619 275056.160000
   3496   3499     1   0.14647 272713.120000
   3504   3507     1   0.15375 251793.120000
   3504   3513     1   0.14619 275056.160000
   3507   3510     1   0.14647 272713.120000
   3515   3518     1   0.15375 251793.120000
   3515   3524     1   0.14619 275056.160000
   3518   3521     1   0.14647 272713.120000
   3526   3529     1   0.15375 251793.120000
   3526   3535     1   0.14619 275056.160000
   3529   3532     1   0.14647 272713.120000
   3537   3540     1   0.15375 251793.120000
   3537   3546     1   0.14619 275056.160000
   3540   3543     1   0.14647 272713.120000
   3548   3551     1   0.15375 251793.120000
   3548   3557     1   0.14619 275056.160000
   3551   3554     1   0.14647 272713.120000
   3559   3562     1   0.15375 251793.120000
   3559   3568     1   0.14619 275056.160000
   3562   3565     1   0.14647 272713.120000
   3570   3573     1   0.15375 251793.120000
   3570   3579     1   0.14619 275056.160000
   3573   3576     1   0.14647 272713.120000
   3581   3584     1   0.15375 251793.120000
   3581   3590     1   0.14619 275056.160000
   3584   3587     1   0.14647 272713.120000
   3592   3595     1   0.15375 251793.120000
   3592   3601     1   0.14619 275056.160000
   3595   3598     1   0.14647 272713.120000
   3603   3606     1   0.15375 251793.120000
   3603   3612     1   0.14619 275056.160000
   3606   3609     1   0.14647 272713.120000
   3614   3617     1   0.15375 251793.120000
   3614   3623     1   0.14619 275056.160000
   3617   3620     1   0.14647 272713.120000
   3625   3628     1   0.15375 251793.120000
   3625   3634     1   0.14619 275056.160000
   3628   3631     1   0.14647 272713.120000
   3636   3639     1   0.15375 251793.120000
   3636   3645     1   0.14619 275056.160000
   3639   3642     1   0.14647 272713.120000
   3647   3650     1   0.15375 251793.120000
   3647   3656     1   0.14619 275056.160000
   3650   3653     1   0.14647 272713.120000
   3658   3661     1   0.15375 251793.120000
   3658   3667     1   0.14619 275056.160000
   3661   3664     1   0.14647 272713.120000
   3669   3672     1   0.15375 251793.120000
   3669   3678     1   0.14619 275056.160000
   3672   3675     1   0.14647 272713.120000
   3680   3683     1   0.15375 251793.120000
   3680   3689     1   0.14619 275056.160000
   3683   3686     1   0.14647 272713.120000
   3691   3694     1   0.15375 251793.120000
   3691   3700     1   0.14619 275056.160000
   3694   3697     1   0.14647 272713.120000
   3702   3705     1   0.15375 251793.120000
   3702   3711     1   0.14619 275056.160000
   3705   3708     1   0.14647 272713.120000
   3713   3716     1   0.15375 251793.120000
   3713   3722     1   0.14619 275056.160000
   3716   3719     1   0.14647 272713.120000
   3724   3727     1   0.15375 251793.120000
   3724   3733     1   0.14619 275056.160000
   3727   3730     1   0.14647 272713.120000
   3735   3738     1   0.15375 251793.120000
   3735   3744     1   0.14619 275056.160000
   3738   3741     1   0.14647 272713.120000
   3746   3749     1   0.15375 251793.120000
   3746   3755     1   0.14619 275056.160000
   3749   3752     1   0.14647 272713.120000
   3757   3760     1   0.15375 251793.120000
   3757   3766     1   0.14619 275056.160000
   3760   3763     1   0.14647 272713.120000
   3768   3771     1   0.15375 251793.120000
   3768   3777     1   0.14619 275056.160000
   3771   3774     1   0.14647 272713.120000
   3779   3782     1   0.15375 251793.120000
   3779   3788     1   0.14619 275056.160000
   3782   3785     1   0.14647 272713.120000
   3790   3793     1   0.15375 251793.120000
   3790   3799     1   0.14619 275056.160000
   3793   3796     1   0.14647 272713.120000
   3801   3804     1   0.15375 251793.120000
   3801   3810     1   0.14619 275056.160000
   3804   3807     1   0.14647 272713.120000
   3812   3815     1   0.15375 251793.120000
   3812   3821     1   0.14619 275056.160000
   3815   3818     1   0.14647 272713.120000
   3823   3826     1   0.15375 251793.120000
   3823   3832     1   0.14619 275056.160000
   3826   3829     1   0.14647 272713.120000
   3834   3837     1   0.15375 251793.120000
   3834   3843     1   0.14619 275056.160000
   3837   3840     1   0.14647 272713.120000
   3845   3848     1   0.15375 251793.120000
   3845   3854     1   0.14619 275056.160000
   3848   3851     1   0.14647 272713.120000
   3856   3859     1   0.15375 251793.120000
   3856   3865     1   0.14619 275056.160000
   3859   3862     1   0.14647 272713.120000
   3867   3870     1   0.15375 251793.120000
   3867   3876     1   0.14619 275056.160000
   3870   3873     1   0.14647 272713.120000
   3878   3881     1   0.15375 251793.120000
   3878   3887     1   0.14619 275056.160000
   3881   3884     1   0.14647 272713.120000
   3889   3892     1   0.15375 251793.120000
   3889   3898     1   0.14619 275056.160000
   3892   3895     1   0.14647 272713.120000
   3900   3903     1   0.15375 251793.120000
   3900   3909     1   0.14619 275056.160000
   3903   3906     1   0.14647 272713.120000
   3911   3914     1   0.15375 251793.120000
   3911   3920     1   0.14619 275056.160000
   3914   3917     1   0.14647 272713.120000
   3922   3925     1   0.15375 251793.120000
   3922   3931     1   0.14619 275056.160000
   3925   3928     1   0.14647 272713.120000
   3933   3936     1   0.15375 251793.120000
   3933   3942     1   0.14619 275056.160000
   3936   3939     1   0.14647 272713.120000
   3944   3947     1   0.15375 251793.120000
   3944   3953     1   0.14619 275056.160000
   3947   3950     1   0.14647 272713.120000
   3955   3958     1   0.15375 251793.120000
   3955   3964     1   0.14619 275056.160000
   3958   3961     1   0.14647 272713.120000
   3966   3969     1   0.15375 251793.120000
   3966   3975     1   0.14619 275056.160000
   3969   3972     1   0.14647 272713.120000
   3977   3980     1   0.15375 251793.120000
   3977   3986     1   0.14619 275056.160000
   3980   3983     1   0.14647 272713.120000
   3988   3991     1   0.15375 251793.120000
   3988   3997     1   0.14619 275056.160000
   3991   3994     1   0.14647 272713.120000
   3999   4002     1   0.15375 251793.120000
   3999   4008     1   0.14619 275056.160000
   4002   4005     1   0.14647 272713.120000
   4010   4013     1   0.15375 251793.120000
   4010   4019     1   0.14619 275056.160000
   4013   4016     1   0.14647 272713.120000
   4021   4024     1   0.15375 251793.120000
   4021   4030     1   0.14619 275056.160000
   4024   4027     1   0.14647 272713.120000
   4032   4035     1   0.15375 251793.120000
   4032   4041     1   0.14619 275056.160000
   4035   4038     1   0.14647 272713.120000
   4043   4046     1   0.15375 251793.120000
   4043   4052     1   0.14619 275056.160000
   4046   4049     1   0.14647 272713.120000
   4054   4057     1   0.15375 251793.120000
   4054   4063     1   0.14619 275056.160000
   4057   4060     1   0.14647 272713.120000
   4065   4068     1   0.15375 251793.120000
   4065   4074     1   0.14619 275056.160000
   4068   4071     1   0.14647 272713.120000
   4076   4079     1   0.15375 251793.120000
   4076   4085     1   0.14619 275056.160000
   4079   4082     1   0.14647 272713.120000
   4087   4090     1   0.15375 251793.120000
   4087   4096     1   0.14619 275056.160000
   4090   4093     1   0.14647 272713.120000
   4098   4101     1   0.15375 251793.120000
   4098   4107     1   0.14619 275056.160000
   4101   4104     1   0.14647 272713.120000
   4109   4112     1   0.15375 251793.120000
   4109   4118     1   0.14619 275056.160000
   4112   4115     1   0.14647 272713.120000
   4120   4123     1   0.15375 251793.120000
   4120   4129     1   0.14619 275056.160000
   4123   4126     1   0.14647 272713.120000
   4131   4134     1   0.15375 251793.120000
   4131   4140     1   0.14619 275056.160000
   4134   4137     1   0.14647 272713.120000
   4142   4145     1   0.15375 251793.120000
   4142   4151     1   0.14619 275056.160000
   4145   4148     1   0.14647 272713.120000
   4153   4156     1   0.15375 251793.120000
   4153   4162     1   0.14619 275056.160000
   4156   4159     1   0.14647 272713.120000
   4164   4167     1   0.15375 251793.120000
   4164   4173     1   0.14619 275056.160000
   4167   4170     1   0.14647 272713.120000
   4175   4178     1   0.15375 251793.120000
   4175   4184     1   0.14619 275056.160000
   4178   4181     1   0.14647 272713.120000
   4186   4189     1   0.15375 251793.120000
   4186   4195     1   0.14619 275056.160000
   4189   4192     1   0.14647 272713.120000
   4197   4200     1   0.15375 251793.120000
   4197   4206     1   0.14619 275056.160000
   4200   4203     1   0.14647 272713.120000
   4208   4211     1   0.15375 251793.120000
   4208   4217     1   0.14619 275056.160000
   4211   4214     1   0.14647 272713.120000
   4219   4222     1   0.15375 251793.120000
   4219   4228     1   0.14619 275056.160000
   4222   4225     1   0.14647 272713.120000
   4230   4233     1   0.15375 251793.120000
   4230   4239     1   0.14619 275056.160000
   4233   4236     1   0.14647 272713.120000
   4241   4244     1   0.15375 251793.120000
   4241   4250     1   0.14619 275056.160000
   4244   4247     1   0.14647 272713.120000
   4252   4255     1   0.15375 251793.120000
   4252   4261     1   0.14619 275056.160000
   4255   4258     1   0.14647 272713.120000
   4263   4266     1   0.15375 251793.120000
   4263   4272     1   0.14619 275056.160000
   4266   4269     1   0.14647 272713.120000
   4274   4277     1   0.15375 251793.120000
   4274   4283     1   0.14619 275056.160000
   4277   4280     1   0.14647 272713.120000
   4285   4288     1   0.15375 251793.120000
   4285   4294     1   0.14619 275056.160000
   4288   4291     1   0.14647 272713.120000
   4296   4299     1   0.15375 251793.120000
   4296   4305     1   0.14619 275056.160000
   4299   4302     1   0.14647 272713.120000
   4307   4310     1   0.15375 251793.120000
   4307   4316     1   0.14619 275056.160000
   4310   4313     1   0.14647 272713.120000
   4318   4321     1   0.15375 251793.120000
   4318   4327     1   0.14619 275056.160000
   4321   4324     1   0.14647 272713.120000
   4329   4332     1   0.15375 251793.120000
   4329   4338     1   0.14619 275056.160000
   4332   4335     1   0.14647 272713.120000
   4340   4343     1   0.15375 251793.120000
   4340   4349     1   0.14619 275056.160000
   4343   4346     1   0.14647 272713.120000
   4351   4354     1   0.15375 251793.120000
   4351   4360     1   0.14619 275056.160000
   4354   4357     1   0.14647 272713.120000
   4362   4365     1   0.15375 251793.120000
   4362   4371     1   0.14619 275056.160000
   4365   4368     1   0.14647 272713.120000
   4373   4376     1   0.15375 251793.120000
   4373   4382     1   0.14619 275056.160000
   4376   4379     1   0.14647 272713.120000
   4384   4387     1   0.15375 251793.120000
   4384   4393     1   0.14619 275056.160000
   4387   4390     1   0.14647 272713.120000
   4395   4398     1   0.15375 251793.120000
   4395   4404     1   0.14619 275056.160000
   4398   4401     1   0.14647 272713.120000
   4406   4409     1   0.15375 251793.120000
   4406   4415     1   0.14619 275056.160000
   4409   4412     1   0.14647 272713.120000
   4417   4420     1   0.15375 251793.120000
   4417   4426     1   0.14619 275056.160000
   4420   4423     1   0.14647 272713.120000
   4428   4431     1   0.15375 251793.120000
   4428   4437     1   0.14619 275056.160000
   4431   4434     1   0.14647 272713.120000
   4439   4442     1   0.15375 251793.120000
   4439   4448     1   0.14619 275056.160000
   4442   4445     1   0.14647 272713.120000
   4450   4453     1   0.15375 251793.120000
   4450   4459     1   0.14619 275056.160000
   4453   4456     1   0.14647 272713.120000
   4461   4464     1   0.15375 251793.120000
   4461   4470     1   0.14619 275056.160000
   4464   4467     1   0.14647 272713.120000
   4472   4475     1   0.15375 251793.120000
   4472   4481     1   0.14619 275056.160000
   4475   4478     1   0.14647 272713.120000
   4483   4486     1   0.15375 251793.120000
   4483   4492     1   0.14619 275056.160000
   4486   4489     1   0.14647 272713.120000
   4494   4497     1   0.15375 251793.120000
   4494   4503     1   0.14619 275056.160000
   4497   4500     1   0.14647 272713.120000
   4505   4508     1   0.15375 251793.120000
   4505   4514     1   0.14619 275056.160000
   4508   4511     1   0.14647 272713.120000
   4516   4519     1   0.15375 251793.120000
   4516   4525     1   0.14619 275056.160000
   4519   4522     1   0.14647 272713.120000
   4527   4530     1   0.15375 251793.120000
   4527   4536     1   0.14619 275056.160000
   4530   4533     1   0.14647 272713.120000
   4538   4541     1   0.15375 251793.120000
   4538   4547     1   0.14619 275056.160000
   4541   4544     1   0.14647 272713.120000
      1      2     1   0.10969 276646.080000
      1      3     1   0.10969 276646.080000
      4      5     1   0.10969 276646.080000
      4      6     1   0.10969 276646.080000
      9     10     1   0.10969 276646.080000
      9     11     1   0.10969 276646.080000
     12     13     1   0.10969 276646.080000
     12     14     1   0.10969 276646.080000
     15     16     1   0.10969 276646.080000
     15     17     1   0.10969 276646.080000
     18     19     1   0.10969 276646.080000
     18     20     1   0.10969 276646.080000
     21     22     1   0.10969 276646.080000
     21     23     1   0.10969 276646.080000
     24     25     1   0.10969 276646.080000
     24     26     1   0.10969 276646.080000
     27     28     1   0.10969 276646.080000
     27     29     1   0.10969 276646.080000
     30     31     1   0.10969 276646.080000
     30     32     1   0.10969 276646.080000
     41     42     1   0.10969 276646.080000
     41     43     1   0.10969 276646.080000
     44     45     1   0.10969 276646.080000
     44     46     1   0.10969 276646.080000
     48     49     1   0.10969 276646.080000
     48     50     1   0.10969 276646.080000
     51     52     1   0.10969 276646.080000
     51     53     1   0.10969 276646.080000
     54     55     1   0.10969 276646.080000
     54     56     1   0.10969 276646.080000
     57     58     1   0.10969 276646.080000
     57     59     1   0.10969 276646.080000
     64     65     1   0.10129 337397.760000
     66     67     1   0.10969 276646.080000
     66     68     1   0.10969 276646.080000
     69     70     1   0.10969 276646.080000
     69     71     1   0.10969 276646.080000
     73     74     1   0.10969 276646.080000
     73     75     1   0.10969 276646.080000
     76     77     1   0.10969 276646.080000
     76     78     1   0.10969 276646.080000
     79     80     1   0.10969 276646.080000
     79     81     1   0.10969 276646.080000
     82     83     1   0.10969 276646.080000
     82     84     1   0.10969 276646.080000
     89     90     1   0.10129 337397.760000
     91     92     1   0.10969 276646.080000
     91     93     1   0.10969 276646.080000
     94     95     1   0.10969 276646.080000
     94     96     1   0.10969 276646.080000
     98     99     1   0.10969 276646.080000
     98    100     1   0.10969 276646.080000
    101    102     1   0.10969 276646.080000
    101    103     1   0.10969 276646.080000
    104    105     1   0.10969 276646.080000
    104    106     1   0.10969 276646.080000
    107    108     1   0.10969 276646.080000
    107    109     1   0.10969 276646.080000
    114    115     1   0.10129 337397.760000
    116    117     1   0.10969 276646.080000
    116    118     1   0.10969 276646.080000
    119    120     1   0.10969 276646.080000
    119    121     1   0.10969 276646.080000
    123    124     1   0.10969 276646.080000
    123    125     1   0.10969 276646.080000
    126    127     1   0.10969 276646.080000
    126    128     1   0.10969 276646.080000
    129    130     1   0.10969 276646.080000
    129    131     1   0.10969 276646.080000
    132    133     1   0.10969 276646.080000
    132    134     1   0.10969 276646.080000
    139    140     1   0.10129 337397.760000
    141    142     1   0.10969 276646.080000
    141    143     1   0.10969 276646.080000
    144    145     1   0.10969 276646.080000
    144    146     1   0.10969 276646.080000
    148    149     1   0.10969 276646.080000
    148    150     1   0.10969 276646.080000
    151    152     1   0.10969 276646.080000
    151    153     1   0.10969 276646.080000
    154    155     1   0.10969 276646.080000
    154    156     1   0.10969 276646.080000
    157    158     1   0.10969 276646.080000
    157    159     1   0.10969 276646.080000
    164    165     1   0.10129 337397.760000
    166    167     1   0.10969 276646.080000
    166    168     1   0.10969 276646.080000
    169    170     1   0.10969 276646.080000
    169    171     1   0.10969 276646.080000
    173    174     1   0.10969 276646.080000
    173    175     1   0.10969 276646.080000
    176    177     1   0.10969 276646.080000
    176    178     1   0.10969 276646.080000
    179    180     1   0.10969 276646.080000
    179    181     1   0.10969 276646.080000
    182    183     1   0.10969 276646.080000
    182    184     1   0.10969 276646.080000
    189    190     1   0.10129 337397.760000
    191    192     1   0.10969 276646.080000
    191    193     1   0.10969 276646.080000
    194    195     1   0.10969 276646.080000
    194    196     1   0.10969 276646.080000
    198    199     1   0.10969 276646.080000
    198    200     1   0.10969 276646.080000
    201    202     1   0.10969 276646.080000
    201    203     1   0.10969 276646.080000
    204    205     1   0.10969 276646.080000
    204    206     1   0.10969 276646.080000
    207    208     1   0.10969 276646.080000
    207    209     1   0.10969 276646.080000
    214    215     1   0.10129 337397.760000
    216    217     1   0.10969 276646.080000
    216    218     1   0.10969 276646.080000
    219    220     1   0.10969 276646.080000
    219    221     1   0.10969 276646.080000
    223    224     1   0.10969 276646.080000
    223    225     1   0.10969 276646.080000
    226    227     1   0.10969 276646.080000
    226    228     1   0.10969 276646.080000
    229    230     1   0.10969 276646.080000
    229    231     1   0.10969 276646.080000
    232    233     1   0.10969 276646.080000
    232    234     1   0.10969 276646.080000
    239    240     1   0.10129 337397.760000
    241    242     1   0.10969 276646.080000
    241    243     1   0.10969 276646.080000
    244    245     1   0.10969 276646.080000
    244    246     1   0.10969 276646.080000
    248    249     1   0.10969 276646.080000
    248    250     1   0.10969 276646.080000
    251    252     1   0.10969 276646.080000
    251    253     1   0.10969 276646.080000
    254    255     1   0.10969 276646.080000
    254    256     1   0.10969 276646.080000
    257    258     1   0.10969 276646.080000
    257    259     1   0.10969 276646.080000
    264    265     1   0.10129 337397.760000
    266    267     1   0.10969 276646.080000
    266    268     1   0.10969 276646.080000
    269    270     1   0.10969 276646.080000
    269    271     1   0.10969 276646.080000
    273    274     1   0.10969 276646.080000
    273    275     1   0.10969 276646.080000
    276    277     1   0.10969 276646.080000
    276    278     1   0.10969 276646.080000
    279    280     1   0.10969 276646.080000
    279    281     1   0.10969 276646.080000
    282    283     1   0.10969 276646.080000
    282    284     1   0.10969 276646.080000
    289    290     1   0.10129 337397.760000
    291    292     1   0.10969 276646.080000
    291    293     1   0.10969 276646.080000
    294    295     1   0.10969 276646.080000
    294    296     1   0.10969 276646.080000
    298    299     1   0.10969 276646.080000
    298    300     1   0.10969 276646.080000
    301    302     1   0.10969 276646.080000
    301    303     1   0.10969 276646.080000
    304    305     1   0.10969 276646.080000
    304    306     1   0.10969 276646.080000
    307    308     1   0.10969 276646.080000
    307    309     1   0.10969 276646.080000
    314    315     1   0.10129 337397.760000
    316    317     1   0.10969 276646.080000
    316    318     1   0.10969 276646.080000
    319    320     1   0.10969 276646.080000
    319    321     1   0.10969 276646.080000
    323    324     1   0.10969 276646.080000
    323    325     1   0.10969 276646.080000
    326    327     1   0.10969 276646.080000
    326    328     1   0.10969 276646.080000
    329    330     1   0.10969 276646.080000
    329    331     1   0.10969 276646.080000
    332    333     1   0.10969 276646.080000
    332    334     1   0.10969 276646.080000
    339    340     1   0.10129 337397.760000
    341    342     1   0.10969 276646.080000
    341    343     1   0.10969 276646.080000
    344    345     1   0.10969 276646.080000
    344    346     1   0.10969 276646.080000
    348    349     1   0.10969 276646.080000
    348    350     1   0.10969 276646.080000
    351    352     1   0.10969 276646.080000
    351    353     1   0.10969 276646.080000
    354    355     1   0.10969 276646.080000
    354    356     1   0.10969 276646.080000
    357    358     1   0.10969 276646.080000
    357    359     1   0.10969 276646.080000
    364    365     1   0.10129 337397.760000
    366    367     1   0.10969 276646.080000
    366    368     1   0.10969 276646.080000
    369    370     1   0.10969 276646.080000
    369    371     1   0.10969 276646.080000
    373    374     1   0.10969 276646.080000
    373    375     1   0.10969 276646.080000
    376    377     1   0.10969 276646.080000
    376    378     1   0.10969 276646.080000
    379    380     1   0.10969 276646.080000
    379    381     1   0.10969 276646.080000
    382    383     1   0.10969 276646.080000
    382    384     1   0.10969 276646.080000
    389    390     1   0.10129 337397.760000
    391    392     1   0.10969 276646.080000
    391    393     1   0.10969 276646.080000
    394    395     1   0.10969 276646.080000
    394    396     1   0.10969 276646.080000
    398    399     1   0.10969 276646.080000
    398    400     1   0.10969 276646.080000
    401    402     1   0.10969 276646.080000
    401    403     1   0.10969 276646.080000
    404    405     1   0.10969 276646.080000
    404    406     1   0.10969 276646.080000
    407    408     1   0.10969 276646.080000
    407    409     1   0.10969 276646.080000
    414    415     1   0.10129 337397.760000
    416    417     1   0.10969 276646.080000
    416    418     1   0.10969 276646.080000
    419    420     1   0.10969 276646.080000
    419    421     1   0.10969 276646.080000
    423    424     1   0.10969 276646.080000
    423    425     1   0.10969 276646.080000
    426    427     1   0.10969 276646.080000
    426    428     1   0.10969 276646.080000
    429    430     1   0.10969 276646.080000
    429    431     1   0.10969 276646.080000
    432    433     1   0.10969 276646.080000
    432    434     1   0.10969 276646.080000
    439    440     1   0.10129 337397.760000
    441    442     1   0.10969 276646.080000
    441    443     1   0.10969 276646.080000
    444    445     1   0.10969 276646.080000
    444    446     1   0.10969 276646.080000
    448    449     1   0.10969 276646.080000
    448    450     1   0.10969 276646.080000
    451    452     1   0.10969 276646.080000
    451    453     1   0.10969 276646.080000
    454    455     1   0.10969 276646.080000
    454    456     1   0.10969 276646.080000
    457    458     1   0.10969 276646.080000
    457    459     1   0.10969 276646.080000
    464    465     1   0.10129 337397.760000
    466    467     1   0.10969 276646.080000
    466    468     1   0.10969 276646.080000
    469    470     1   0.10969 276646.080000
    469    471     1   0.10969 276646.080000
    473    474     1   0.10969 276646.080000
    473    475     1   0.10969 276646.080000
    476    477     1   0.10969 276646.080000
    476    478     1   0.10969 276646.080000
    479    480     1   0.10969 276646.080000
    479    481     1   0.10969 276646.080000
    482    483     1   0.10969 276646.080000
    482    484     1   0.10969 276646.080000
    489    490     1   0.10129 337397.760000
    491    492     1   0.10969 276646.080000
    491    493     1   0.10969 276646.080000
    494    495     1   0.10969 276646.080000
    494    496     1   0.10969 276646.080000
    498    499     1   0.10969 276646.080000
    498    500     1   0.10969 276646.080000
    501    502     1   0.10969 276646.080000
    501    503     1   0.10969 276646.080000
    504    505     1   0.10969 276646.080000
    504    506     1   0.10969 276646.080000
    507    508     1   0.10969 276646.080000
    507    509     1   0.10969 276646.080000
    514    515     1   0.10129 337397.760000
    516    517     1   0.10969 276646.080000
    516    518     1   0.10969 276646.080000
    519    520     1   0.10969 276646.080000
    519    521     1   0.10969 276646.080000
    523    524     1   0.10969 276646.080000
    523    525     1   0.10969 276646.080000
    526    527     1   0.10969 276646.080000
    526    528     1   0.10969 276646.080000
    529    530     1   0.10969 276646.080000
    529    531     1   0.10969 276646.080000
    532    533     1   0.10969 276646.080000
    532    534     1   0.10969 276646.080000
    539    540     1   0.10129 337397.760000
    541    542     1   0.10969 276646.080000
    541    543     1   0.10969 276646.080000
    544    545     1   0.10969 276646.080000
    544    546     1   0.10969 276646.080000
    548    549     1   0.10969 276646.080000
    548    550     1   0.10969 276646.080000
    551    552     1   0.10969 276646.080000
    551    553     1   0.10969 276646.080000
    554    555     1   0.10969 276646.080000
    554    556     1   0.10969 276646.080000
    557    558     1   0.10969 276646.080000
    557    559     1   0.10969 276646.080000
    564    565     1   0.10129 337397.760000
    566    567     1   0.10969 276646.080000
    566    568     1   0.10969 276646.080000
    569    570     1   0.10969 276646.080000
    569    571     1   0.10969 276646.080000
    573    574     1   0.10969 276646.080000
    573    575     1   0.10969 276646.080000
    576    577     1   0.10969 276646.080000
    576    578     1   0.10969 276646.080000
    579    580     1   0.10969 276646.080000
    579    581     1   0.10969 276646.080000
    582    583     1   0.10969 276646.080000
    582    584     1   0.10969 276646.080000
    589    590     1   0.10129 337397.760000
    591    592     1   0.10969 276646.080000
    591    593     1   0.10969 276646.080000
    594    595     1   0.10969 276646.080000
    594    596     1   0.10969 276646.080000
    598    599     1   0.10969 276646.080000
    598    600     1   0.10969 276646.080000
    601    602     1   0.10969 276646.080000
    601    603     1   0.10969 276646.080000
    604    605     1   0.10969 276646.080000
    604    606     1   0.10969 276646.080000
    607    608     1   0.10969 276646.080000
    607    609     1   0.10969 276646.080000
    614    615     1   0.10129 337397.760000
    616    617     1   0.10969 276646.080000
    616    618     1   0.10969 276646.080000
    619    620     1   0.10969 276646.080000
    619    621     1   0.10969 276646.080000
    623    624     1   0.10969 276646.080000
    623    625     1   0.10969 276646.080000
    626    627     1   0.10969 276646.080000
    626    628     1   0.10969 276646.080000
    629    630     1   0.10969 276646.080000
    629    631     1   0.10969 276646.080000
    632    633     1   0.10969 276646.080000
    632    634     1   0.10969 276646.080000
    639    640     1   0.10129 337397.760000
    641    642     1   0.10969 276646.080000
    641    643     1   0.10969 276646.080000
    644    645     1   0.10969 276646.080000
    644    646     1   0.10969 276646.080000
    648    649     1   0.10969 276646.080000
    648    650     1   0.10969 276646.080000
    651    652     1   0.10969 276646.080000
    651    653     1   0.10969 276646.080000
    654    655     1   0.10969 276646.080000
    654    656     1   0.10969 276646.080000
    657    658     1   0.10969 276646.080000
    657    659     1   0.10969 276646.080000
    664    665     1   0.10129 337397.760000
    666    667     1   0.10969 276646.080000
    666    668     1   0.10969 276646.080000
    669    670     1   0.10969 276646.080000
    669    671     1   0.10969 276646.080000
    673    674     1   0.10969 276646.080000
    673    675     1   0.10969 276646.080000
    676    677     1   0.10969 276646.080000
    676    678     1   0.10969 276646.080000
    679    680     1   0.10969 276646.080000
    679    681     1   0.10969 276646.080000
    682    683     1   0.10969 276646.080000
    682    684     1   0.10969 276646.080000
    689    690     1   0.10129 337397.760000
    691    692     1   0.10969 276646.080000
    691    693     1   0.10969 276646.080000
    694    695     1   0.10969 276646.080000
    694    696     1   0.10969 276646.080000
    698    699     1   0.10969 276646.080000
    698    700     1   0.10969 276646.080000
    701    702     1   0.10969 276646.080000
    701    703     1   0.10969 276646.080000
    704    705     1   0.10969 276646.080000
    704    706     1   0.10969 276646.080000
    707    708     1   0.10969 276646.080000
    707    709     1   0.10969 276646.080000
    714    715     1   0.10129 337397.760000
    716    717     1   0.10969 276646.080000
    716    718     1   0.10969 276646.080000
    719    720     1   0.10969 276646.080000
    719    721     1   0.10969 276646.080000
    723    724     1   0.10969 276646.080000
    723    725     1   0.10969 276646.080000
    726    727     1   0.10969 276646.080000
    726    728     1   0.10969 276646.080000
    729    730     1   0.10969 276646.080000
    729    731     1   0.10969 276646.080000
    732    733     1   0.10969 276646.080000
    732    734     1   0.10969 276646.080000
    739    740     1   0.10129 337397.760000
    741    742     1   0.10969 276646.080000
    741    743     1   0.10969 276646.080000
    744    745     1   0.10969 276646.080000
    744    746     1   0.10969 276646.080000
    748    749     1   0.10969 276646.080000
    748    750     1   0.10969 276646.080000
    751    752     1   0.10969 276646.080000
    751    753     1   0.10969 276646.080000
    754    755     1   0.10969 276646.080000
    754    756     1   0.10969 276646.080000
    757    758     1   0.10969 276646.080000
    757    759     1   0.10969 276646.080000
    764    765     1   0.10129 337397.760000
    766    767     1   0.10969 276646.080000
    766    768     1   0.10969 276646.080000
    769    770     1   0.10969 276646.080000
    769    771     1   0.10969 276646.080000
    773    774     1   0.10969 276646.080000
    773    775     1   0.10969 276646.080000
    776    777     1   0.10969 276646.080000
    776    778     1   0.10969 276646.080000
    779    780     1   0.10969 276646.080000
    779    781     1   0.10969 276646.080000
    782    783     1   0.10969 276646.080000
    782    784     1   0.10969 276646.080000
    789    790     1   0.10129 337397.760000
    791    792     1   0.10969 276646.080000
    791    793     1   0.10969 276646.080000
    794    795     1   0.10969 276646.080000
    794    796     1   0.10969 276646.080000
    798    799     1   0.10969 276646.080000
    798    800     1   0.10969 276646.080000
    801    802     1   0.10969 276646.080000
    801    803     1   0.10969 276646.080000
    804    805     1   0.10969 276646.080000
    804    806     1   0.10969 276646.080000
    807    808     1   0.10969 276646.080000
    807    809     1   0.10969 276646.080000
    814    815     1   0.10129 337397.760000
    816    817     1   0.10969 276646.080000
    816    818     1   0.10969 276646.080000
    819    820     1   0.10969 276646.080000
    819    821     1   0.10969 276646.080000
    823    824     1   0.10969 276646.080000
    823    825     1   0.10969 276646.080000
    826    827     1   0.10969 276646.080000
    826    828     1   0.10969 276646.080000
    829    830     1   0.10969 276646.080000
    829    831     1   0.10969 276646.080000
    832    833     1   0.10969 276646.080000
    832    834     1   0.10969 276646.080000
    839    840     1   0.10129 337397.760000
    841    842     1   0.10969 276646.080000
    841    843     1   0.10969 276646.080000
    844    845     1   0.10969 276646.080000
    844    846     1   0.10969 276646.080000
    848    849     1   0.10969 276646.080000
    848    850     1   0.10969 276646.080000
    851    852     1   0.10969 276646.080000
    851    853     1   0.10969 276646.080000
    854    855     1   0.10969 276646.080000
    854    856     1   0.10969 276646.080000
    857    858     1   0.10969 276646.080000
    857    859     1   0.10969 276646.080000
    864    865     1   0.10129 337397.760000
    866    867     1   0.10969 276646.080000
    866    868     1   0.10969 276646.080000
    869    870     1   0.10969 276646.080000
    869    871     1   0.10969 276646.080000
    873    874     1   0.10969 276646.080000
    873    875     1   0.10969 276646.080000
    876    877     1   0.10969 276646.080000
    876    878     1   0.10969 276646.080000
    879    880     1   0.10969 276646.080000
    879    881     1   0.10969 276646.080000
    882    883     1   0.10969 276646.080000
    882    884     1   0.10969 276646.080000
    889    890     1   0.10129 337397.760000
    891    892     1   0.10969 276646.080000
    891    893     1   0.10969 276646.080000
    894    895     1   0.10969 276646.080000
    894    896     1   0.10969 276646.080000
    898    899     1   0.10969 276646.080000
    898    900     1   0.10969 276646.080000
    901    902     1   0.10969 276646.080000
    901    903     1   0.10969 276646.080000
    904    905     1   0.10969 276646.080000
    904    906     1   0.10969 276646.080000
    907    908     1   0.10969 276646.080000
    907    909     1   0.10969 276646.080000
    914    915     1   0.10129 337397.760000
    916    917     1   0.10969 276646.080000
    916    918     1   0.10969 276646.080000
    919    920     1   0.10969 276646.080000
    919    921     1   0.10969 276646.080000
    923    924     1   0.10969 276646.080000
    923    925     1   0.10969 276646.080000
    926    927     1   0.10969 276646.080000
    926    928     1   0.10969 276646.080000
    929    930     1   0.10969 276646.080000
    929    931     1   0.10969 276646.080000
    932    933     1   0.10969 276646.080000
    932    934     1   0.10969 276646.080000
    939    940     1   0.10129 337397.760000
    941    942     1   0.10969 276646.080000
    941    943     1   0.10969 276646.080000
    944    945     1   0.10969 276646.080000
    944    946     1   0.10969 276646.080000
    948    949     1   0.10969 276646.080000
    948    950     1   0.10969 276646.080000
    951    952     1   0.10969 276646.080000
    951    953     1   0.10969 276646.080000
    954    955     1   0.10969 276646.080000
    954    956     1   0.10969 276646.080000
    957    958     1   0.10969 276646.080000
    957    959     1   0.10969 276646.080000
    964    965     1   0.10129 337397.760000
    966    967     1   0.10969 276646.080000
    966    968     1   0.10969 276646.080000
    969    970     1   0.10969 276646.080000
    969    971     1   0.10969 276646.080000
    973    974     1   0.10969 276646.080000
    973    975     1   0.10969 276646.080000
    976    977     1   0.10969 276646.080000
    976    978     1   0.10969 276646.080000
    979    980     1   0.10969 276646.080000
    979    981     1   0.10969 276646.080000
    982    983     1   0.10969 276646.080000
    982    984     1   0.10969 276646.080000
    989    990     1   0.10129 337397.760000
    991    992     1   0.10969 276646.080000
    991    993     1   0.10969 276646.080000
    994    995     1   0.10969 276646.080000
    994    996     1   0.10969 276646.080000
    998    999     1   0.10969 276646.080000
    998   1000     1   0.10969 276646.080000
   1001   1002     1   0.10969 276646.080000
   1001   1003     1   0.10969 276646.080000
   1004   1005     1   0.10969 276646.080000
   1004   1006     1   0.10969 276646.080000
   1007   1008     1   0.10969 276646.080000
   1007   1009     1   0.10969 276646.080000
   1014   1015     1   0.10129 337397.760000
   1016   1017     1   0.10969 276646.080000
   1016   1018     1   0.10969 276646.080000
   1019   1020     1   0.10969 276646.080000
   1019   1021     1   0.10969 276646.080000
   1023   1024     1   0.10969 276646.080000
   1023   1025     1   0.10969 276646.080000
   1026   1027     1   0.10969 276646.080000
   1026   1028     1   0.10969 276646.080000
   1029   1030     1   0.10969 276646.080000
   1029   1031     1   0.10969 276646.080000
   1032   1033     1   0.10969 276646.080000
   1032   1034     1   0.10969 276646.080000
   1039   1040     1   0.10129 337397.760000
   1041   1042     1   0.10969 276646.080000
   1041   1043     1   0.10969 276646.080000
   1044   1045     1   0.10969 276646.080000
   1044   1046     1   0.10969 276646.080000
   1048   1049     1   0.10969 276646.080000
   1048   1050     1   0.10969 276646.080000
   1051   1052     1   0.10969 276646.080000
   1051   1053     1   0.10969 276646.080000
   1054   1055     1   0.10969 276646.080000
   1054   1056     1   0.10969 276646.080000
   1057   1058     1   0.10969 276646.080000
   1057   1059     1   0.10969 276646.080000
   1064   1065     1   0.10129 337397.760000
   1066   1067     1   0.10969 276646.080000
   1066   1068     1   0.10969 276646.080000
   1069   1070     1   0.10969 276646.080000
   1069   1071     1   0.10969 276646.080000
   1073   1074     1   0.10969 276646.080000
   1073   1075     1   0.10969 276646.080000
   1076   1077     1   0.10969 276646.080000
   1076   1078     1   0.10969 276646.080000
   1079   1080     1   0.10969 276646.080000
   1079   1081     1   0.10969 276646.080000
   1082   1083     1   0.10969 276646.080000
   1082   1084     1   0.10969 276646.080000
   1089   1090     1   0.10129 337397.760000
   1091   1092     1   0.10969 276646.080000
   1091   1093     1   0.10969 276646.080000
   1094   1095     1   0.10969 276646.080000
   1094   1096     1   0.10969 276646.080000
   1098   1099     1   0.10969 276646.080000
   1098   1100     1   0.10969 276646.080000
   1101   1102     1   0.10969 276646.080000
   1101   1103     1   0.10969 276646.080000
   1104   1105     1   0.10969 276646.080000
   1104   1106     1   0.10969 276646.080000
   1107   1108     1   0.10969 276646.080000
   1107   1109     1   0.10969 276646.080000
   1114   1115     1   0.10129 337397.760000
   1116   1117     1   0.10969 276646.080000
   1116   1118     1   0.10969 276646.080000
   1119   1120     1   0.10969 276646.080000
   1119   1121     1   0.10969 276646.080000
   1123   1124     1   0.10969 276646.080000
   1123   1125     1   0.10969 276646.080000
   1126   1127     1   0.10969 276646.080000
   1126   1128     1   0.10969 276646.080000
   1129   1130     1   0.10969 276646.080000
   1129   1131     1   0.10969 276646.080000
   1132   1133     1   0.10969 276646.080000
   1132   1134     1   0.10969 276646.080000
   1139   1140     1   0.10129 337397.760000
   1141   1142     1   0.10969 276646.080000
   1141   1143     1   0.10969 276646.080000
   1144   1145     1   0.10969 276646.080000
   1144   1146     1   0.10969 276646.080000
   1148   1149     1   0.10969 276646.080000
   1148   1150     1   0.10969 276646.080000
   1151   1152     1   0.10969 276646.080000
   1151   1153     1   0.10969 276646.080000
   1154   1155     1   0.10969 276646.080000
   1154   1156     1   0.10969 276646.080000
   1157   1158     1   0.10969 276646.080000
   1157   1159     1   0.10969 276646.080000
   1164   1165     1   0.10129 337397.760000
   1166   1167     1   0.10969 276646.080000
   1166   1168     1   0.10969 276646.080000
   1169   1170     1   0.10969 276646.080000
   1169   1171     1   0.10969 276646.080000
   1173   1174     1   0.10969 276646.080000
   1173   1175     1   0.10969 276646.080000
   1176   1177     1   0.10969 276646.080000
   1176   1178     1   0.10969 276646.080000
   1179   1180     1   0.10969 276646.080000
   1179   1181     1   0.10969 276646.080000
   1182   1183     1   0.10969 276646.080000
   1182   1184     1   0.10969 276646.080000
   1189   1190     1   0.10129 337397.760000
   1191   1192     1   0.10969 276646.080000
   1191   1193     1   0.10969 276646.080000
   1194   1195     1   0.10969 276646.080000
   1194   1196     1   0.10969 276646.080000
   1198   1199     1   0.10969 276646.080000
   1198   1200     1   0.10969 276646.080000
   1201   1202     1   0.10969 276646.080000
   1201   1203     1   0.10969 276646.080000
   1204   1205     1   0.10969 276646.080000
   1204   1206     1   0.10969 276646.080000
   1207   1208     1   0.10969 276646.080000
   1207   1209     1   0.10969 276646.080000
   1214   1215     1   0.10129 337397.760000
   1216   1217     1   0.10969 276646.080000
   1216   1218     1   0.10969 276646.080000
   1219   1220     1   0.10969 276646.080000
   1219   1221     1   0.10969 276646.080000
   1223   1224     1   0.10969 276646.080000
   1223   1225     1   0.10969 276646.080000
   1226   1227     1   0.10969 276646.080000
   1226   1228     1   0.10969 276646.080000
   1229   1230     1   0.10969 276646.080000
   1229   1231     1   0.10969 276646.080000
   1232   1233     1   0.10969 276646.080000
   1232   1234     1   0.10969 276646.080000
   1239   1240     1   0.10129 337397.760000
   1241   1242     1   0.10969 276646.080000
   1241   1243     1   0.10969 276646.080000
   1244   1245     1   0.10969 276646.080000
   1244   1246     1   0.10969 276646.080000
   1248   1249     1   0.10969 276646.080000
   1248   1250     1   0.10969 276646.080000
   1251   1252     1   0.10969 276646.080000
   1251   1253     1   0.10969 276646.080000
   1254   1255     1   0.10969 276646.080000
   1254   1256     1   0.10969 276646.080000
   1257   1258     1   0.10969 276646.080000
   1257   1259     1   0.10969 276646.080000
   1264   1265     1   0.10129 337397.760000
   1266   1267     1   0.10969 276646.080000
   1266   1268     1   0.10969 276646.080000
   1269   1270     1   0.10969 276646.080000
   1269   1271     1   0.10969 276646.080000
   1273   1274     1   0.10969 276646.080000
   1273   1275     1   0.10969 276646.080000
   1276   1277     1   0.10969 276646.080000
   1276   1278     1   0.10969 276646.080000
   1279   1280     1   0.10969 276646.080000
   1279   1281     1   0.10969 276646.080000
   1282   1283     1   0.10969 276646.080000
   1282   1284     1   0.10969 276646.080000
   1289   1290     1   0.10129 337397.760000
   1291   1292     1   0.10969 276646.080000
   1291   1293     1   0.10969 276646.080000
   1294   1295     1   0.10969 276646.080000
   1294   1296     1   0.10969 276646.080000
   1298   1299     1   0.10969 276646.080000
   1298   1300     1   0.10969 276646.080000
   1301   1302     1   0.10969 276646.080000
   1301   1303     1   0.10969 276646.080000
   1304   1305     1   0.10969 276646.080000
   1304   1306     1   0.10969 276646.080000
   1307   1308     1   0.10969 276646.080000
   1307   1309     1   0.10969 276646.080000
   1314   1315     1   0.10129 337397.760000
   1316   1317     1   0.10969 276646.080000
   1316   1318     1   0.10969 276646.080000
   1319   1320     1   0.10969 276646.080000
   1319   1321     1   0.10969 276646.080000
   1323   1324     1   0.10969 276646.080000
   1323   1325     1   0.10969 276646.080000
   1326   1327     1   0.10969 276646.080000
   1326   1328     1   0.10969 276646.080000
   1329   1330     1   0.10969 276646.080000
   1329   1331     1   0.10969 276646.080000
   1332   1333     1   0.10969 276646.080000
   1332   1334     1   0.10969 276646.080000
   1339   1340     1   0.10129 337397.760000
   1341   1342     1   0.10969 276646.080000
   1341   1343     1   0.10969 276646.080000
   1344   1345     1   0.10969 276646.080000
   1344   1346     1   0.10969 276646.080000
   1348   1349     1   0.10969 276646.080000
   1348   1350     1   0.10969 276646.080000
   1351   1352     1   0.10969 276646.080000
   1351   1353     1   0.10969 276646.080000
   1354   1355     1   0.10969 276646.080000
   1354   1356     1   0.10969 276646.080000
   1357   1358     1   0.10969 276646.080000
   1357   1359     1   0.10969 276646.080000
   1364   1365     1   0.10129 337397.760000
   1366   1367     1   0.10969 276646.080000
   1366   1368     1   0.10969 276646.080000
   1369   1370     1   0.10969 276646.080000
   1369   1371     1   0.10969 276646.080000
   1373   1374     1   0.10969 276646.080000
   1373   1375     1   0.10969 276646.080000
   1376   1377     1   0.10969 276646.080000
   1376   1378     1   0.10969 276646.080000
   1379   1380     1   0.10969 276646.080000
   1379   1381     1   0.10969 276646.080000
   1382   1383     1   0.10969 276646.080000
   1382   1384     1   0.10969 276646.080000
   1389   1390     1   0.10129 337397.760000
   1391   1392     1   0.10969 276646.080000
   1391   1393     1   0.10969 276646.080000
   1394   1395     1   0.10969 276646.080000
   1394   1396     1   0.10969 276646.080000
   1398   1399     1   0.10969 276646.080000
   1398   1400     1   0.10969 276646.080000
   1401   1402     1   0.10969 276646.080000
   1401   1403     1   0.10969 276646.080000
   1404   1405     1   0.10969 276646.080000
   1404   1406     1   0.10969 276646.080000
   1407   1408     1   0.10969 276646.080000
   1407   1409     1   0.10969 276646.080000
   1414   1415     1   0.10129 337397.760000
   1416   1417     1   0.10969 276646.080000
   1416   1418     1   0.10969 276646.080000
   1419   1420     1   0.10969 276646.080000
   1419   1421     1   0.10969 276646.080000
   1423   1424     1   0.10969 276646.080000
   1423   1425     1   0.10969 276646.080000
   1426   1427     1   0.10969 276646.080000
   1426   1428     1   0.10969 276646.080000
   1429   1430     1   0.10969 276646.080000
   1429   1431     1   0.10969 276646.080000
   1432   1433     1   0.10969 276646.080000
   1432   1434     1   0.10969 276646.080000
   1439   1440     1   0.10129 337397.760000
   1441   1442     1   0.10969 276646.080000
   1441   1443     1   0.10969 276646.080000
   1444   1445     1   0.10969 276646.080000
   1444   1446     1   0.10969 276646.080000
   1448   1449     1   0.10969 276646.080000
   1448   1450     1   0.10969 276646.080000
   1451   1452     1   0.10969 276646.080000
   1451   1453     1   0.10969 276646.080000
   1454   1455     1   0.10969 276646.080000
   1454   1456     1   0.10969 276646.080000
   1457   1458     1   0.10969 276646.080000
   1457   1459     1   0.10969 276646.080000
   1464   1465     1   0.10129 337397.760000
   1466   1467     1   0.10969 276646.080000
   1466   1468     1   0.10969 276646.080000
   1469   1470     1   0.10969 276646.080000
   1469   1471     1   0.10969 276646.080000
   1473   1474     1   0.10969 276646.080000
   1473   1475     1   0.10969 276646.080000
   1476   1477     1   0.10969 276646.080000
   1476   1478     1   0.10969 276646.080000
   1479   1480     1   0.10969 276646.080000
   1479   1481     1   0.10969 276646.080000
   1482   1483     1   0.10969 276646.080000
   1482   1484     1   0.10969 276646.080000
   1489   1490     1   0.10129 337397.760000
   1491   1492     1   0.10969 276646.080000
   1491   1493     1   0.10969 276646.080000
   1494   1495     1   0.10969 276646.080000
   1494   1496     1   0.10969 276646.080000
   1498   1499     1   0.10969 276646.080000
   1498   1500     1   0.10969 276646.080000
   1501   1502     1   0.10969 276646.080000
   1501   1503     1   0.10969 276646.080000
   1504   1505     1   0.10969 276646.080000
   1504   1506     1   0.10969 276646.080000
   1507   1508     1   0.10969 276646.080000
   1507   1509     1   0.10969 276646.080000
   1514   1515     1   0.10129 337397.760000
   1516   1517     1   0.10969 276646.080000
   1516   1518     1   0.10969 276646.080000
   1519   1520     1   0.10969 276646.080000
   1519   1521     1   0.10969 276646.080000
   1523   1524     1   0.10969 276646.080000
   1523   1525     1   0.10969 276646.080000
   1526   1527     1   0.10969 276646.080000
   1526   1528     1   0.10969 276646.080000
   1529   1530     1   0.10969 276646.080000
   1529   1531     1   0.10969 276646.080000
   1532   1533     1   0.10969 276646.080000
   1532   1534     1   0.10969 276646.080000
   1539   1540     1   0.10129 337397.760000
   1541   1542     1   0.10969 276646.080000
   1541   1543     1   0.10969 276646.080000
   1544   1545     1   0.10969 276646.080000
   1544   1546     1   0.10969 276646.080000
   1548   1549     1   0.10969 276646.080000
   1548   1550     1   0.10969 276646.080000
   1551   1552     1   0.10969 276646.080000
   1551   1553     1   0.10969 276646.080000
   1554   1555     1   0.10969 276646.080000
   1554   1556     1   0.10969 276646.080000
   1557   1558     1   0.10969 276646.080000
   1557   1559     1   0.10969 276646.080000
   1564   1565     1   0.10129 337397.760000
   1566   1567     1   0.10969 276646.080000
   1566   1568     1   0.10969 276646.080000
   1569   1570     1   0.10969 276646.080000
   1569   1571     1   0.10969 276646.080000
   1573   1574     1   0.10969 276646.080000
   1573   1575     1   0.10969 276646.080000
   1576   1577     1   0.10969 276646.080000
   1576   1578     1   0.10969 276646.080000
   1579   1580     1   0.10969 276646.080000
   1579   1581     1   0.10969 276646.080000
   1582   1583     1   0.10969 276646.080000
   1582   1584     1   0.10969 276646.080000
   1589   1590     1   0.10129 337397.760000
   1591   1592     1   0.10969 276646.080000
   1591   1593     1   0.10969 276646.080000
   1594   1595     1   0.10969 276646.080000
   1594   1596     1   0.10969 276646.080000
   1598   1599     1   0.10969 276646.080000
   1598   1600     1   0.10969 276646.080000
   1601   1602     1   0.10969 276646.080000
   1601   1603     1   0.10969 276646.080000
   1604   1605     1   0.10969 276646.080000
   1604   1606     1   0.10969 276646.080000
   1607   1608     1   0.10969 276646.080000
   1607   1609     1   0.10969 276646.080000
   1614   1615     1   0.10129 337397.760000
   1616   1617     1   0.10969 276646.080000
   1616   1618     1   0.10969 276646.080000
   1619   1620     1   0.10969 276646.080000
   1619   1621     1   0.10969 276646.080000
   1623   1624     1   0.10969 276646.080000
   1623   1625     1   0.10969 276646.080000
   1626   1627     1   0.10969 276646.080000
   1626   1628     1   0.10969 276646.080000
   1629   1630     1   0.10969 276646.080000
   1629   1631     1   0.10969 276646.080000
   1632   1633     1   0.10969 276646.080000
   1632   1634     1   0.10969 276646.080000
   1639   1640     1   0.10129 337397.760000
   1641   1642     1   0.10969 276646.080000
   1641   1643     1   0.10969 276646.080000
   1644   1645     1   0.10969 276646.080000
   1644   1646     1   0.10969 276646.080000
   1648   1649     1   0.10969 276646.080000
   1648   1650     1   0.10969 276646.080000
   1651   1652     1   0.10969 276646.080000
   1651   1653     1   0.10969 276646.080000
   1654   1655     1   0.10969 276646.080000
   1654   1656     1   0.10969 276646.080000
   1657   1658     1   0.10969 276646.080000
   1657   1659     1   0.10969 276646.080000
   1664   1665     1   0.10129 337397.760000
   1666   1667     1   0.10969 276646.080000
   1666   1668     1   0.10969 276646.080000
   1669   1670     1   0.10969 276646.080000
   1669   1671     1   0.10969 276646.080000
   1673   1674     1   0.10969 276646.080000
   1673   1675     1   0.10969 276646.080000
   1676   1677     1   0.10969 276646.080000
   1676   1678     1   0.10969 276646.080000
   1679   1680     1   0.10969 276646.080000
   1679   1681     1   0.10969 276646.080000
   1682   1683     1   0.10969 276646.080000
   1682   1684     1   0.10969 276646.080000
   1689   1690     1   0.10129 337397.760000
   1691   1692     1   0.10969 276646.080000
   1691   1693     1   0.10969 276646.080000
   1694   1695     1   0.10969 276646.080000
   1694   1696     1   0.10969 276646.080000
   1698   1699     1   0.10969 276646.080000
   1698   1700     1   0.10969 276646.080000
   1701   1702     1   0.10969 276646.080000
   1701   1703     1   0.10969 276646.080000
   1704   1705     1   0.10969 276646.080000
   1704   1706     1   0.10969 276646.080000
   1707   1708     1   0.10969 276646.080000
   1707   1709     1   0.10969 276646.080000
   1714   1715     1   0.10129 337397.760000
   1716   1717     1   0.10969 276646.080000
   1716   1718     1   0.10969 276646.080000
   1719   1720     1   0.10969 276646.080000
   1719   1721     1   0.10969 276646.080000
   1723   1724     1   0.10969 276646.080000
   1723   1725     1   0.10969 276646.080000
   1726   1727     1   0.10969 276646.080000
   1726   1728     1   0.10969 276646.080000
   1729   1730     1   0.10969 276646.080000
   1729   1731     1   0.10969 276646.080000
   1732   1733     1   0.10969 276646.080000
   1732   1734     1   0.10969 276646.080000
   1739   1740     1   0.10129 337397.760000
   1741   1742     1   0.10969 276646.080000
   1741   1743     1   0.10969 276646.080000
   1744   1745     1   0.10969 276646.080000
   1744   1746     1   0.10969 276646.080000
   1748   1749     1   0.10969 276646.080000
   1748   1750     1   0.10969 276646.080000
   1751   1752     1   0.10969 276646.080000
   1751   1753     1   0.10969 276646.080000
   1754   1755     1   0.10969 276646.080000
   1754   1756     1   0.10969 276646.080000
   1757   1758     1   0.10969 276646.080000
   1757   1759     1   0.10969 276646.080000
   1764   1765     1   0.10129 337397.760000
   1766   1767     1   0.10969 276646.080000
   1766   1768     1   0.10969 276646.080000
   1769   1770     1   0.10969 276646.080000
   1769   1771     1   0.10969 276646.080000
   1773   1774     1   0.10969 276646.080000
   1773   1775     1   0.10969 276646.080000
   1776   1777     1   0.10969 276646.080000
   1776   1778     1   0.10969 276646.080000
   1779   1780     1   0.10969 276646.080000
   1779   1781     1   0.10969 276646.080000
   1782   1783     1   0.10969 276646.080000
   1782   1784     1   0.10969 276646.080000
   1789   1790     1   0.10129 337397.760000
   1791   1792     1   0.10969 276646.080000
   1791   1793     1   0.10969 276646.080000
   1794   1795     1   0.10969 276646.080000
   1794   1796     1   0.10969 276646.080000
   1798   1799     1   0.10969 276646.080000
   1798   1800     1   0.10969 276646.080000
   1801   1802     1   0.10969 276646.080000
   1801   1803     1   0.10969 276646.080000
   1804   1805     1   0.10969 276646.080000
   1804   1806     1   0.10969 276646.080000
   1807   1808     1   0.10969 276646.080000
   1807   1809     1   0.10969 276646.080000
   1814   1815     1   0.10129 337397.760000
   1816   1817     1   0.10969 276646.080000
   1816   1818     1   0.10969 276646.080000
   1819   1820     1   0.10969 276646.080000
   1819   1821     1   0.10969 276646.080000
   1823   1824     1   0.10969 276646.080000
   1823   1825     1   0.10969 276646.080000
   1826   1827     1   0.10969 276646.080000
   1826   1828     1   0.10969 276646.080000
   1829   1830     1   0.10969 276646.080000
   1829   1831     1   0.10969 276646.080000
   1832   1833     1   0.10969 276646.080000
   1832   1834     1   0.10969 276646.080000
   1839   1840     1   0.10129 337397.760000
   1841   1842     1   0.10969 276646.080000
   1841   1843     1   0.10969 276646.080000
   1844   1845     1   0.10969 276646.080000
   1844   1846     1   0.10969 276646.080000
   1848   1849     1   0.10969 276646.080000
   1848   1850     1   0.10969 276646.080000
   1851   1852     1   0.10969 276646.080000
   1851   1853     1   0.10969 276646.080000
   1854   1855     1   0.10969 276646.080000
   1854   1856     1   0.10969 276646.080000
   1857   1858     1   0.10969 276646.080000
   1857   1859     1   0.10969 276646.080000
   1864   1865     1   0.10129 337397.760000
   1866   1867     1   0.10969 276646.080000
   1866   1868     1   0.10969 276646.080000
   1869   1870     1   0.10969 276646.080000
   1869   1871     1   0.10969 276646.080000
   1873   1874     1   0.10969 276646.080000
   1873   1875     1   0.10969 276646.080000
   1876   1877     1   0.10969 276646.080000
   1876   1878     1   0.10969 276646.080000
   1879   1880     1   0.10969 276646.080000
   1879   1881     1   0.10969 276646.080000
   1882   1883     1   0.10969 276646.080000
   1882   1884     1   0.10969 276646.080000
   1889   1890     1   0.10129 337397.760000
   1891   1892     1   0.10969 276646.080000
   1891   1893     1   0.10969 276646.080000
   1894   1895     1   0.10969 276646.080000
   1894   1896     1   0.10969 276646.080000
   1898   1899     1   0.10969 276646.080000
   1898   1900     1   0.10969 276646.080000
   1901   1902     1   0.10969 276646.080000
   1901   1903     1   0.10969 276646.080000
   1904   1905     1   0.10969 276646.080000
   1904   1906     1   0.10969 276646.080000
   1907   1908     1   0.10969 276646.080000
   1907   1909     1   0.10969 276646.080000
   1914   1915     1   0.10129 337397.760000
   1916   1917     1   0.10969 276646.080000
   1916   1918     1   0.10969 276646.080000
   1919   1920     1   0.10969 276646.080000
   1919   1921     1   0.10969 276646.080000
   1923   1924     1   0.10969 276646.080000
   1923   1925     1   0.10969 276646.080000
   1926   1927     1   0.10969 276646.080000
   1926   1928     1   0.10969 276646.080000
   1929   1930     1   0.10969 276646.080000
   1929   1931     1   0.10969 276646.080000
   1932   1933     1   0.10969 276646.080000
   1932   1934     1   0.10969 276646.080000
   1939   1940     1   0.10129 337397.760000
   1941   1942     1   0.10969 276646.080000
   1941   1943     1   0.10969 276646.080000
   1944   1945     1   0.10969 276646.080000
   1944   1946     1   0.10969 276646.080000
   1948   1949     1   0.10969 276646.080000
   1948   1950     1   0.10969 276646.080000
   1951   1952     1   0.10969 276646.080000
   1951   1953     1   0.10969 276646.080000
   1954   1955     1   0.10969 276646.080000
   1954   1956     1   0.10969 276646.080000
   1957   1958     1   0.10969 276646.080000
   1957   1959     1   0.10969 276646.080000
   1964   1965     1   0.10129 337397.760000
   1966   1967     1   0.10969 276646.080000
   1966   1968     1   0.10969 276646.080000
   1969   1970     1   0.10969 276646.080000
   1969   1971     1   0.10969 276646.080000
   1973   1974     1   0.10969 276646.080000
   1973   1975     1   0.10969 276646.080000
   1976   1977     1   0.10969 276646.080000
   1976   1978     1   0.10969 276646.080000
   1979   1980     1   0.10969 276646.080000
   1979   1981     1   0.10969 276646.080000
   1982   1983     1   0.10969 276646.080000
   1982   1984     1   0.10969 276646.080000
   1989   1990     1   0.10129 337397.760000
   1991   1992     1   0.10969 276646.080000
   1991   1993     1   0.10969 276646.080000
   1994   1995     1   0.10969 276646.080000
   1994   1996     1   0.10969 276646.080000
   1998   1999     1   0.10969 276646.080000
   1998   2000     1   0.10969 276646.080000
   2001   2002     1   0.10969 276646.080000
   2001   2003     1   0.10969 276646.080000
   2004   2005     1   0.10969 276646.080000
   2004   2006     1   0.10969 276646.080000
   2007   2008     1   0.10969 276646.080000
   2007   2009     1   0.10969 276646.080000
   2014   2015     1   0.10129 337397.760000
   2016   2017     1   0.10969 276646.080000
   2016   2018     1   0.10969 276646.080000
   2019   2020     1   0.10969 276646.080000
   2019   2021     1   0.10969 276646.080000
   2023   2024     1   0.10969 276646.080000
   2023   2025     1   0.10969 276646.080000
   2026   2027     1   0.10969 276646.080000
   2026   2028     1   0.10969 276646.080000
   2029   2030     1   0.10969 276646.080000
   2029   2031     1   0.10969 276646.080000
   2032   2033     1   0.10969 276646.080000
   2032   2034     1   0.10969 276646.080000
   2039   2040     1   0.10129 337397.760000
   2041   2042     1   0.10969 276646.080000
   2041   2043     1   0.10969 276646.080000
   2044   2045     1   0.10969 276646.080000
   2044   2046     1   0.10969 276646.080000
   2048   2049     1   0.10969 276646.080000
   2048   2050     1   0.10969 276646.080000
   2051   2052     1   0.10969 276646.080000
   2051   2053     1   0.10969 276646.080000
   2054   2055     1   0.10969 276646.080000
   2054   2056     1   0.10969 276646.080000
   2057   2058     1   0.10969 276646.080000
   2057   2059     1   0.10969 276646.080000
   2064   2065     1   0.10129 337397.760000
   2066   2067     1   0.10969 276646.080000
   2066   2068     1   0.10969 276646.080000
   2069   2070     1   0.10969 276646.080000
   2069   2071     1   0.10969 276646.080000
   2073   2074     1   0.10969 276646.080000
   2073   2075     1   0.10969 276646.080000
   2076   2077     1   0.10969 276646.080000
   2076   2078     1   0.10969 276646.080000
   2079   2080     1   0.10969 276646.080000
   2079   2081     1   0.10969 276646.080000
   2082   2083     1   0.10969 276646.080000
   2082   2084     1   0.10969 276646.080000
   2089   2090     1   0.10129 337397.760000
   2091   2092     1   0.10969 276646.080000
   2091   2093     1   0.10969 276646.080000
   2094   2095     1   0.10969 276646.080000
   2094   2096     1   0.10969 276646.080000
   2098   2099     1   0.10969 276646.080000
   2098   2100     1   0.10969 276646.080000
   2101   2102     1   0.10969 276646.080000
   2101   2103     1   0.10969 276646.080000
   2104   2105     1   0.10969 276646.080000
   2104   2106     1   0.10969 276646.080000
   2107   2108     1   0.10969 276646.080000
   2107   2109     1   0.10969 276646.080000
   2114   2115     1   0.10129 337397.760000
   2116   2117     1   0.10969 276646.080000
   2116   2118     1   0.10969 276646.080000
   2119   2120     1   0.10969 276646.080000
   2119   2121     1   0.10969 276646.080000
   2123   2124     1   0.10969 276646.080000
   2123   2125     1   0.10969 276646.080000
   2126   2127     1   0.10969 276646.080000
   2126   2128     1   0.10969 276646.080000
   2129   2130     1   0.10969 276646.080000
   2129   2131     1   0.10969 276646.080000
   2132   2133     1   0.10969 276646.080000
   2132   2134     1   0.10969 276646.080000
   2139   2140     1   0.10129 337397.760000
   2141   2142     1   0.10969 276646.080000
   2141   2143     1   0.10969 276646.080000
   2144   2145     1   0.10969 276646.080000
   2144   2146     1   0.10969 276646.080000
   2148   2149     1   0.10969 276646.080000
   2148   2150     1   0.10969 276646.080000
   2151   2152     1   0.10969 276646.080000
   2151   2153     1   0.10969 276646.080000
   2154   2155     1   0.10969 276646.080000
   2154   2156     1   0.10969 276646.080000
   2157   2158     1   0.10969 276646.080000
   2157   2159     1   0.10969 276646.080000
   2164   2165     1   0.10129 337397.760000
   2166   2167     1   0.10969 276646.080000
   2166   2168     1   0.10969 276646.080000
   2169   2170     1   0.10969 276646.080000
   2169   2171     1   0.10969 276646.080000
   2173   2174     1   0.10969 276646.080000
   2173   2175     1   0.10969 276646.080000
   2176   2177     1   0.10969 276646.080000
   2176   2178     1   0.10969 276646.080000
   2179   2180     1   0.10969 276646.080000
   2179   2181     1   0.10969 276646.080000
   2182   2183     1   0.10969 276646.080000
   2182   2184     1   0.10969 276646.080000
   2189   2190     1   0.10129 337397.760000
   2191   2192     1   0.10969 276646.080000
   2191   2193     1   0.10969 276646.080000
   2194   2195     1   0.10969 276646.080000
   2194   2196     1   0.10969 276646.080000
   2198   2199     1   0.10969 276646.080000
   2198   2200     1   0.10969 276646.080000
   2201   2202     1   0.10969 276646.080000
   2201   2203     1   0.10969 276646.080000
   2204   2205     1   0.10969 276646.080000
   2204   2206     1   0.10969 276646.080000
   2207   2208     1   0.10969 276646.080000
   2207   2209     1   0.10969 276646.080000
   2214   2215     1   0.10129 337397.760000
   2216   2217     1   0.10969 276646.080000
   2216   2218     1   0.10969 276646.080000
   2219   2220     1   0.10969 276646.080000
   2219   2221     1   0.10969 276646.080000
   2223   2224     1   0.10969 276646.080000
   2223   2225     1   0.10969 276646.080000
   2226   2227     1   0.10969 276646.080000
   2226   2228     1   0.10969 276646.080000
   2229   2230     1   0.10969 276646.080000
   2229   2231     1   0.10969 276646.080000
   2232   2233     1   0.10969 276646.080000
   2232   2234     1   0.10969 276646.080000
   2239   2240     1   0.10129 337397.760000
   2241   2242     1   0.10969 276646.080000
   2241   2243     1   0.10969 276646.080000
   2244   2245     1   0.10969 276646.080000
   2244   2246     1   0.10969 276646.080000
   2248   2249     1   0.10969 276646.080000
   2248   2250     1   0.10969 276646.080000
   2251   2252     1   0.10969 276646.080000
   2251   2253     1   0.10969 276646.080000
   2254   2255     1   0.10969 276646.080000
   2254   2256     1   0.10969 276646.080000
   2257   2258     1   0.10969 276646.080000
   2257   2259     1   0.10969 276646.080000
   2264   2265     1   0.10129 337397.760000
   2266   2267     1   0.10969 276646.080000
   2266   2268     1   0.10969 276646.080000
   2269   2270     1   0.10969 276646.080000
   2269   2271     1   0.10969 276646.080000
   2273   2274     1   0.10969 276646.080000
   2273   2275     1   0.10969 276646.080000
   2276   2277     1   0.10969 276646.080000
   2276   2278     1   0.10969 276646.080000
   2279   2280     1   0.10969 276646.080000
   2279   2281     1   0.10969 276646.080000
   2282   2283     1   0.10969 276646.080000
   2282   2284     1   0.10969 276646.080000
   2289   2290     1   0.10129 337397.760000
   2291   2292     1   0.10969 276646.080000
   2291   2293     1   0.10969 276646.080000
   2294   2295     1   0.10969 276646.080000
   2294   2296     1   0.10969 276646.080000
   2298   2299     1   0.10969 276646.080000
   2298   2300     1   0.10969 276646.080000
   2301   2302     1   0.10969 276646.080000
   2301   2303     1   0.10969 276646.080000
   2304   2305     1   0.10969 276646.080000
   2304   2306     1   0.10969 276646.080000
   2307   2308     1   0.10969 276646.080000
   2307   2309     1   0.10969 276646.080000
   2314   2315     1   0.10129 337397.760000
   2316   2317     1   0.10969 276646.080000
   2316   2318     1   0.10969 276646.080000
   2319   2320     1   0.10969 276646.080000
   2319   2321     1   0.10969 276646.080000
   2323   2324     1   0.10969 276646.080000
   2323   2325     1   0.10969 276646.080000
   2326   2327     1   0.10969 276646.080000
   2326   2328     1   0.10969 276646.080000
   2329   2330     1   0.10969 276646.080000
   2329   2331     1   0.10969 276646.080000
   2332   2333     1   0.10969 276646.080000
   2332   2334     1   0.10969 276646.080000
   2339   2340     1   0.10129 337397.760000
   2341   2342     1   0.10969 276646.080000
   2341   2343     1   0.10969 276646.080000
   2344   2345     1   0.10969 276646.080000
   2344   2346     1   0.10969 276646.080000
   2348   2349     1   0.10969 276646.080000
   2348   2350     1   0.10969 276646.080000
   2351   2352     1   0.10969 276646.080000
   2351   2353     1   0.10969 276646.080000
   2354   2355     1   0.10969 276646.080000
   2354   2356     1   0.10969 276646.080000
   2357   2358     1   0.10969 276646.080000
   2357   2359     1   0.10969 276646.080000
   2364   2365     1   0.10129 337397.760000
   2366   2367     1   0.10969 276646.080000
   2366   2368     1   0.10969 276646.080000
   2369   2370     1   0.10969 276646.080000
   2369   2371     1   0.10969 276646.080000
   2373   2374     1   0.10969 276646.080000
   2373   2375     1   0.10969 276646.080000
   2376   2377     1   0.10969 276646.080000
   2376   2378     1   0.10969 276646.080000
   2379   2380     1   0.10969 276646.080000
   2379   2381     1   0.10969 276646.080000
   2382   2383     1   0.10969 276646.080000
   2382   2384     1   0.10969 276646.080000
   2389   2390     1   0.10129 337397.760000
   2391   2392     1   0.10969 276646.080000
   2391   2393     1   0.10969 276646.080000
   2394   2395     1   0.10969 276646.080000
   2394   2396     1   0.10969 276646.080000
   2398   2399     1   0.10969 276646.080000
   2398   2400     1   0.10969 276646.080000
   2401   2402     1   0.10969 276646.080000
   2401   2403     1   0.10969 276646.080000
   2404   2405     1   0.10969 276646.080000
   2404   2406     1   0.10969 276646.080000
   2407   2408     1   0.10969 276646.080000
   2407   2409     1   0.10969 276646.080000
   2414   2415     1   0.10129 337397.760000
   2416   2417     1   0.10969 276646.080000
   2416   2418     1   0.10969 276646.080000
   2419   2420     1   0.10969 276646.080000
   2419   2421     1   0.10969 276646.080000
   2423   2424     1   0.10969 276646.080000
   2423   2425     1   0.10969 276646.080000
   2426   2427     1   0.10969 276646.080000
   2426   2428     1   0.10969 276646.080000
   2429   2430     1   0.10969 276646.080000
   2429   2431     1   0.10969 276646.080000
   2432   2433     1   0.10969 276646.080000
   2432   2434     1   0.10969 276646.080000
   2439   2440     1   0.10129 337397.760000
   2441   2442     1   0.10969 276646.080000
   2441   2443     1   0.10969 276646.080000
   2444   2445     1   0.10969 276646.080000
   2444   2446     1   0.10969 276646.080000
   2448   2449     1   0.10969 276646.080000
   2448   2450     1   0.10969 276646.080000
   2451   2452     1   0.10969 276646.080000
   2451   2453     1   0.10969 276646.080000
   2454   2455     1   0.10969 276646.080000
   2454   2456     1   0.10969 276646.080000
   2457   2458     1   0.10969 276646.080000
   2457   2459     1   0.10969 276646.080000
   2464   2465     1   0.10129 337397.760000
   2466   2467     1   0.10969 276646.080000
   2466   2468     1   0.10969 276646.080000
   2469   2470     1   0.10969 276646.080000
   2469   2471     1   0.10969 276646.080000
   2473   2474     1   0.10969 276646.080000
   2473   2475     1   0.10969 276646.080000
   2476   2477     1   0.10969 276646.080000
   2476   2478     1   0.10969 276646.080000
   2479   2480     1   0.10969 276646.080000
   2479   2481     1   0.10969 276646.080000
   2482   2483     1   0.10969 276646.080000
   2482   2484     1   0.10969 276646.080000
   2489   2490     1   0.10129 337397.760000
   2491   2492     1   0.10969 276646.080000
   2491   2493     1   0.10969 276646.080000
   2494   2495     1   0.10969 276646.080000
   2494   2496     1   0.10969 276646.080000
   2498   2499     1   0.10969 276646.080000
   2498   2500     1   0.10969 276646.080000
   2501   2502     1   0.10969 276646.080000
   2501   2503     1   0.10969 276646.080000
   2504   2505     1   0.10969 276646.080000
   2504   2506     1   0.10969 276646.080000
   2507   2508     1   0.10969 276646.080000
   2507   2509     1   0.10969 276646.080000
   2514   2515     1   0.10129 337397.760000
   2516   2517     1   0.10969 276646.080000
   2516   2518     1   0.10969 276646.080000
   2519   2520     1   0.10969 276646.080000
   2519   2521     1   0.10969 276646.080000
   2523   2524     1   0.10969 276646.080000
   2523   2525     1   0.10969 276646.080000
   2526   2527     1   0.10969 276646.080000
   2526   2528     1   0.10969 276646.080000
   2529   2530     1   0.10969 276646.080000
   2529   2531     1   0.10969 276646.080000
   2532   2533     1   0.10969 276646.080000
   2532   2534     1   0.10969 276646.080000
   2539   2540     1   0.10129 337397.760000
   2541   2542     1   0.10969 276646.080000
   2541   2543     1   0.10969 276646.080000
   2544   2545     1   0.10969 276646.080000
   2544   2546     1   0.10969 276646.080000
   2548   2549     1   0.10969 276646.080000
   2548   2550     1   0.10969 276646.080000
   2551   2552     1   0.10969 276646.080000
   2551   2553     1   0.10969 276646.080000
   2554   2555     1   0.10969 276646.080000
   2554   2556     1   0.10969 276646.080000
   2557   2558     1   0.10969 276646.080000
   2557   2559     1   0.10969 276646.080000
   2564   2565     1   0.10129 337397.760000
   2566   2567     1   0.10969 276646.080000
   2566   2568     1   0.10969 276646.080000
   2569   2570     1   0.10969 276646.080000
   2569   2571     1   0.10969 276646.080000
   2573   2574     1   0.10969 276646.080000
   2573   2575     1   0.10969 276646.080000
   2576   2577     1   0.10969 276646.080000
   2576   2578     1   0.10969 276646.080000
   2579   2580     1   0.10969 276646.080000
   2579   2581     1   0.10969 276646.080000
   2582   2583     1   0.10969 276646.080000
   2582   2584     1   0.10969 276646.080000
   2589   2590     1   0.10129 337397.760000
   2591   2592     1   0.10969 276646.080000
   2591   2593     1   0.10969 276646.080000
   2594   2595     1   0.10969 276646.080000
   2594   2596     1   0.10969 276646.080000
   2598   2599     1   0.10969 276646.080000
   2598   2600     1   0.10969 276646.080000
   2601   2602     1   0.10969 276646.080000
   2601   2603     1   0.10969 276646.080000
   2604   2605     1   0.10969 276646.080000
   2604   2606     1   0.10969 276646.080000
   2607   2608     1   0.10969 276646.080000
   2607   2609     1   0.10969 276646.080000
   2614   2615     1   0.10129 337397.760000
   2616   2617     1   0.10969 276646.080000
   2616   2618     1   0.10969 276646.080000
   2619   2620     1   0.10969 276646.080000
   2619   2621     1   0.10969 276646.080000
   2623   2624     1   0.10969 276646.080000
   2623   2625     1   0.10969 276646.080000
   2626   2627     1   0.10969 276646.080000
   2626   2628     1   0.10969 276646.080000
   2629   2630     1   0.10969 276646.080000
   2629   2631     1   0.10969 276646.080000
   2632   2633     1   0.10969 276646.080000
   2632   2634     1   0.10969 276646.080000
   2639   2640     1   0.10129 337397.760000
   2641   2642     1   0.10969 276646.080000
   2641   2643     1   0.10969 276646.080000
   2644   2645     1   0.10969 276646.080000
   2644   2646     1   0.10969 276646.080000
   2648   2649     1   0.10969 276646.080000
   2648   2650     1   0.10969 276646.080000
   2651   2652     1   0.10969 276646.080000
   2651   2653     1   0.10969 276646.080000
   2654   2655     1   0.10969 276646.080000
   2654   2656     1   0.10969 276646.080000
   2657   2658     1   0.10969 276646.080000
   2657   2659     1   0.10969 276646.080000
   2664   2665     1   0.10129 337397.760000
   2666   2667     1   0.10969 276646.080000
   2666   2668     1   0.10969 276646.080000
   2669   2670     1   0.10969 276646.080000
   2669   2671     1   0.10969 276646.080000
   2673   2674     1   0.10969 276646.080000
   2673   2675     1   0.10969 276646.080000
   2676   2677     1   0.10969 276646.080000
   2676   2678     1   0.10969 276646.080000
   2679   2680     1   0.10969 276646.080000
   2679   2681     1   0.10969 276646.080000
   2682   2683     1   0.10969 276646.080000
   2682   2684     1   0.10969 276646.080000
   2689   2690     1   0.10129 337397.760000
   2691   2692     1   0.10969 276646.080000
   2691   2693     1   0.10969 276646.080000
   2694   2695     1   0.10969 276646.080000
   2694   2696     1   0.10969 276646.080000
   2698   2699     1   0.10969 276646.080000
   2698   2700     1   0.10969 276646.080000
   2701   2702     1   0.10969 276646.080000
   2701   2703     1   0.10969 276646.080000
   2704   2705     1   0.10969 276646.080000
   2704   2706     1   0.10969 276646.080000
   2707   2708     1   0.10969 276646.080000
   2707   2709     1   0.10969 276646.080000
   2714   2715     1   0.10129 337397.760000
   2716   2717     1   0.10969 276646.080000
   2716   2718     1   0.10969 276646.080000
   2719   2720     1   0.10969 276646.080000
   2719   2721     1   0.10969 276646.080000
   2723   2724     1   0.10969 276646.080000
   2723   2725     1   0.10969 276646.080000
   2726   2727     1   0.10969 276646.080000
   2726   2728     1   0.10969 276646.080000
   2729   2730     1   0.10969 276646.080000
   2729   2731     1   0.10969 276646.080000
   2732   2733     1   0.10969 276646.080000
   2732   2734     1   0.10969 276646.080000
   2739   2740     1   0.10129 337397.760000
   2741   2742     1   0.10969 276646.080000
   2741   2743     1   0.10969 276646.080000
   2744   2745     1   0.10969 276646.080000
   2744   2746     1   0.10969 276646.080000
   2748   2749     1   0.10969 276646.080000
   2748   2750     1   0.10969 276646.080000
   2751   2752     1   0.10969 276646.080000
   2751   2753     1   0.10969 276646.080000
   2754   2755     1   0.10969 276646.080000
   2754   2756     1   0.10969 276646.080000
   2757   2758     1   0.10969 276646.080000
   2757   2759     1   0.10969 276646.080000
   2764   2765     1   0.10129 337397.760000
   2766   2767     1   0.10969 276646.080000
   2766   2768     1   0.10969 276646.080000
   2769   2770     1   0.10969 276646.080000
   2769   2771     1   0.10969 276646.080000
   2773   2774     1   0.10969 276646.080000
   2773   2775     1   0.10969 276646.080000
   2776   2777     1   0.10969 276646.080000
   2776   2778     1   0.10969 276646.080000
   2779   2780     1   0.10969 276646.080000
   2779   2781     1   0.10969 276646.080000
   2782   2783     1   0.10969 276646.080000
   2782   2784     1   0.10969 276646.080000
   2789   2790     1   0.10129 337397.760000
   2791   2792     1   0.10969 276646.080000
   2791   2793     1   0.10969 276646.080000
   2794   2795     1   0.10969 276646.080000
   2794   2796     1   0.10969 276646.080000
   2798   2799     1   0.10969 276646.080000
   2798   2800     1   0.10969 276646.080000
   2801   2802     1   0.10969 276646.080000
   2801   2803     1   0.10969 276646.080000
   2804   2805     1   0.10969 276646.080000
   2804   2806     1   0.10969 276646.080000
   2807   2808     1   0.10969 276646.080000
   2807   2809     1   0.10969 276646.080000
   2814   2815     1   0.10129 337397.760000
   2816   2817     1   0.10969 276646.080000
   2816   2818     1   0.10969 276646.080000
   2819   2820     1   0.10969 276646.080000
   2819   2821     1   0.10969 276646.080000
   2823   2824     1   0.10969 276646.080000
   2823   2825     1   0.10969 276646.080000
   2826   2827     1   0.10969 276646.080000
   2826   2828     1   0.10969 276646.080000
   2829   2830     1   0.10969 276646.080000
   2829   2831     1   0.10969 276646.080000
   2832   2833     1   0.10969 276646.080000
   2832   2834     1   0.10969 276646.080000
   2839   2840     1   0.10129 337397.760000
   2841   2842     1   0.10969 276646.080000
   2841   2843     1   0.10969 276646.080000
   2844   2845     1   0.10969 276646.080000
   2844   2846     1   0.10969 276646.080000
   2848   2849     1   0.10969 276646.080000
   2848   2850     1   0.10969 276646.080000
   2851   2852     1   0.10969 276646.080000
   2851   2853     1   0.10969 276646.080000
   2854   2855     1   0.10969 276646.080000
   2854   2856     1   0.10969 276646.080000
   2857   2858     1   0.10969 276646.080000
   2857   2859     1   0.10969 276646.080000
   2864   2865     1   0.10129 337397.760000
   2866   2867     1   0.10969 276646.080000
   2866   2868     1   0.10969 276646.080000
   2869   2870     1   0.10969 276646.080000
   2869   2871     1   0.10969 276646.080000
   2873   2874     1   0.10969 276646.080000
   2873   2875     1   0.10969 276646.080000
   2876   2877     1   0.10969 276646.080000
   2876   2878     1   0.10969 276646.080000
   2879   2880     1   0.10969 276646.080000
   2879   2881     1   0.10969 276646.080000
   2882   2883     1   0.10969 276646.080000
   2882   2884     1   0.10969 276646.080000
   2889   2890     1   0.10129 337397.760000
   2891   2892     1   0.10969 276646.080000
   2891   2893     1   0.10969 276646.080000
   2894   2895     1   0.10969 276646.080000
   2894   2896     1   0.10969 276646.080000
   2898   2899     1   0.10969 276646.080000
   2898   2900     1   0.10969 276646.080000
   2901   2902     1   0.10969 276646.080000
   2901   2903     1   0.10969 276646.080000
   2904   2905     1   0.10969 276646.080000
   2904   2906     1   0.10969 276646.080000
   2907   2908     1   0.10969 276646.080000
   2907   2909     1   0.10969 276646.080000
   2914   2915     1   0.10129 337397.760000
   2916   2917     1   0.10969 276646.080000
   2916   2918     1   0.10969 276646.080000
   2919   2920     1   0.10969 276646.080000
   2919   2921     1   0.10969 276646.080000
   2923   2924     1   0.10969 276646.080000
   2923   2925     1   0.10969 276646.080000
   2926   2927     1   0.10969 276646.080000
   2926   2928     1   0.10969 276646.080000
   2929   2930     1   0.10969 276646.080000
   2929   2931     1   0.10969 276646.080000
   2932   2933     1   0.10969 276646.080000
   2932   2934     1   0.10969 276646.080000
   2939   2940     1   0.10129 337397.760000
   2941   2942     1   0.10969 276646.080000
   2941   2943     1   0.10969 276646.080000
   2944   2945     1   0.10969 276646.080000
   2944   2946     1   0.10969 276646.080000
   2948   2949     1   0.10969 276646.080000
   2948   2950     1   0.10969 276646.080000
   2951   2952     1   0.10969 276646.080000
   2951   2953     1   0.10969 276646.080000
   2954   2955     1   0.10969 276646.080000
   2954   2956     1   0.10969 276646.080000
   2957   2958     1   0.10969 276646.080000
   2957   2959     1   0.10969 276646.080000
   2964   2965     1   0.10129 337397.760000
   2966   2967     1   0.10969 276646.080000
   2966   2968     1   0.10969 276646.080000
   2969   2970     1   0.10969 276646.080000
   2969   2971     1   0.10969 276646.080000
   2973   2974     1   0.10969 276646.080000
   2973   2975     1   0.10969 276646.080000
   2976   2977     1   0.10969 276646.080000
   2976   2978     1   0.10969 276646.080000
   2979   2980     1   0.10969 276646.080000
   2979   2981     1   0.10969 276646.080000
   2982   2983     1   0.10969 276646.080000
   2982   2984     1   0.10969 276646.080000
   2989   2990     1   0.10129 337397.760000
   2991   2992     1   0.10969 276646.080000
   2991   2993     1   0.10969 276646.080000
   2994   2995     1   0.10969 276646.080000
   2994   2996     1   0.10969 276646.080000
   2998   2999     1   0.10969 276646.080000
   2998   3000     1   0.10969 276646.080000
   3001   3002     1   0.10969 276646.080000
   3001   3003     1   0.10969 276646.080000
   3004   3005     1   0.10969 276646.080000
   3004   3006     1   0.10969 276646.080000
   3007   3008     1   0.10969 276646.080000
   3007   3009     1   0.10969 276646.080000
   3014   3015     1   0.10129 337397.760000
   3016   3017     1   0.10969 276646.080000
   3016   3018     1   0.10969 276646.080000
   3019   3020     1   0.10969 276646.080000
   3019   3021     1   0.10969 276646.080000
   3023   3024     1   0.10969 276646.080000
   3023   3025     1   0.10969 276646.080000
   3026   3027     1   0.10969 276646.080000
   3026   3028     1   0.10969 276646.080000
   3029   3030     1   0.10969 276646.080000
   3029   3031     1   0.10969 276646.080000
   3032   3033     1   0.10969 276646.080000
   3032   3034     1   0.10969 276646.080000
   3039   3040     1   0.10129 337397.760000
   3041   3042     1   0.10969 276646.080000
   3041   3043     1   0.10969 276646.080000
   3044   3045     1   0.10969 276646.080000
   3044   3046     1   0.10969 276646.080000
   3048   3049     1   0.10969 276646.080000
   3048   3050     1   0.10969 276646.080000
   3051   3052     1   0.10969 276646.080000
   3051   3053     1   0.10969 276646.080000
   3054   3055     1   0.10969 276646.080000
   3054   3056     1   0.10969 276646.080000
   3057   3058     1   0.10969 276646.080000
   3057   3059     1   0.10969 276646.080000
   3064   3065     1   0.10129 337397.760000
   3066   3067     1   0.10969 276646.080000
   3066   3068     1   0.10969 276646.080000
   3069   3070     1   0.10969 276646.080000
   3069   3071     1   0.10969 276646.080000
   3073   3074     1   0.10969 276646.080000
   3073   3075     1   0.10969 276646.080000
   3076   3077     1   0.10969 276646.080000
   3076   3078     1   0.10969 276646.080000
   3079   3080     1   0.10969 276646.080000
   3079   3081     1   0.10969 276646.080000
   3082   3083     1   0.10969 276646.080000
   3082   3084     1   0.10969 276646.080000
   3089   3090     1   0.10129 337397.760000
   3091   3092     1   0.10969 276646.080000
   3091   3093     1   0.10969 276646.080000
   3094   3095     1   0.10969 276646.080000
   3094   3096     1   0.10969 276646.080000
   3098   3099     1   0.10969 276646.080000
   3098   3100     1   0.10969 276646.080000
   3101   3102     1   0.10969 276646.080000
   3101   3103     1   0.10969 276646.080000
   3104   3105     1   0.10969 276646.080000
   3104   3106     1   0.10969 276646.080000
   3107   3108     1   0.10969 276646.080000
   3107   3109     1   0.10969 276646.080000
   3114   3115     1   0.10129 337397.760000
   3116   3117     1   0.10969 276646.080000
   3116   3118     1   0.10969 276646.080000
   3119   3120     1   0.10969 276646.080000
   3119   3121     1   0.10969 276646.080000
   3123   3124     1   0.10969 276646.080000
   3123   3125     1   0.10969 276646.080000
   3126   3127     1   0.10969 276646.080000
   3126   3128     1   0.10969 276646.080000
   3129   3130     1   0.10969 276646.080000
   3129   3131     1   0.10969 276646.080000
   3132   3133     1   0.10969 276646.080000
   3132   3134     1   0.10969 276646.080000
   3139   3140     1   0.10129 337397.760000
   3141   3142     1   0.10969 276646.080000
   3141   3143     1   0.10969 276646.080000
   3144   3145     1   0.10969 276646.080000
   3144   3146     1   0.10969 276646.080000
   3147   3148     1   0.10190 328360.320000
   3147   3149     1   0.10190 328360.320000
   3150   3151     1   0.10129 337397.760000
   3152   3153     1   0.10969 276646.080000
   3152   3154     1   0.10969 276646.080000
   3155   3156     1   0.10969 276646.080000
   3155   3157     1   0.10969 276646.080000
   3158   3159     1   0.10190 328360.320000
   3158   3160     1   0.10190 328360.320000
   3161   3162     1   0.10129 337397.760000
   3163   3164     1   0.10969 276646.080000
   3163   3165     1   0.10969 276646.080000
   3166   3167     1   0.10969 276646.080000
   3166   3168     1   0.10969 276646.080000
   3169   3170     1   0.10190 328360.320000
   3169   3171     1   0.10190 328360.320000
   3172   3173     1   0.10129 337397.760000
   3174   3175     1   0.10969 276646.080000
   3174   3176     1   0.10969 276646.080000
   3177   3178     1   0.10969 276646.080000
   3177   3179     1   0.10969 276646.080000
   3180   3181     1   0.10190 328360.320000
   3180   3182     1   0.10190 328360.320000
   3183   3184     1   0.10129 337397.760000
   3185   3186     1   0.10969 276646.080000
   3185   3187     1   0.10969 276646.080000
   3188   3189     1   0.10969 276646.080000
   3188   3190     1   0.10969 276646.080000
   3191   3192     1   0.10190 328360.320000
   3191   3193     1   0.10190 328360.320000
   3194   3195     1   0.10129 337397.760000
   3196   3197     1   0.10969 276646.080000
   3196   3198     1   0.10969 276646.080000
   3199   3200     1   0.10969 276646.080000
   3199   3201     1   0.10969 276646.080000
   3202   3203     1   0.10190 328360.320000
   3202   3204     1   0.10190 328360.320000
   3205   3206     1   0.10129 337397.760000
   3207   3208     1   0.10969 276646.080000
   3207   3209     1   0.10969 276646.080000
   3210   3211     1   0.10969 276646.080000
   3210   3212     1   0.10969 276646.080000
   3213   3214     1   0.10190 328360.320000
   3213   3215     1   0.10190 328360.320000
   3216   3217     1   0.10129 337397.760000
   3218   3219     1   0.10969 276646.080000
   3218   3220     1   0.10969 276646.080000
   3221   3222     1   0.10969 276646.080000
   3221   3223     1   0.10969 276646.080000
   3224   3225     1   0.10190 328360.320000
   3224   3226     1   0.10190 328360.320000
   3227   3228     1   0.10129 337397.760000
   3229   3230     1   0.10969 276646.080000
   3229   3231     1   0.10969 276646.080000
   3232   3233     1   0.10969 276646.080000
   3232   3234     1   0.10969 276646.080000
   3235   3236     1   0.10190 328360.320000
   3235   3237     1   0.10190 328360.320000
   3238   3239     1   0.10129 337397.760000
   3240   3241     1   0.10969 276646.080000
   3240   3242     1   0.10969 276646.080000
   3243   3244     1   0.10969 276646.080000
   3243   3245     1   0.10969 276646.080000
   3246   3247     1   0.10190 328360.320000
   3246   3248     1   0.10190 328360.320000
   3249   3250     1   0.10129 337397.760000
   3251   3252     1   0.10969 276646.080000
   3251   3253     1   0.10969 276646.080000
   3254   3255     1   0.10969 276646.080000
   3254   3256     1   0.10969 276646.080000
   3257   3258     1   0.10190 328360.320000
   3257   3259     1   0.10190 328360.320000
   3260   3261     1   0.10129 337397.760000
   3262   3263     1   0.10969 276646.080000
   3262   3264     1   0.10969 276646.080000
   3265   3266     1   0.10969 276646.080000
   3265   3267     1   0.10969 276646.080000
   3268   3269     1   0.10190 328360.320000
   3268   3270     1   0.10190 328360.320000
   3271   3272     1   0.10129 337397.760000
   3273   3274     1   0.10969 276646.080000
   3273   3275     1   0.10969 276646.080000
   3276   3277     1   0.10969 276646.080000
   3276   3278     1   0.10969 276646.080000
   3279   3280     1   0.10190 328360.320000
   3279   3281     1   0.10190 328360.320000
   3282   3283     1   0.10129 337397.760000
   3284   3285     1   0.10969 276646.080000
   3284   3286     1   0.10969 276646.080000
   3287   3288     1   0.10969 276646.080000
   3287   3289     1   0.10969 276646.080000
   3290   3291     1   0.10190 328360.320000
   3290   3292     1   0.10190 328360.320000
   3293   3294     1   0.10129 337397.760000
   3295   3296     1   0.10969 276646.080000
   3295   3297     1   0.10969 276646.080000
   3298   3299     1   0.10969 276646.080000
   3298   3300     1   0.10969 276646.080000
   3301   3302     1   0.10190 328360.320000
   3301   3303     1   0.10190 328360.320000
   3304   3305     1   0.10129 337397.760000
   3306   3307     1   0.10969 276646.080000
   3306   3308     1   0.10969 276646.080000
   3309   3310     1   0.10969 276646.080000
   3309   3311     1   0.10969 276646.080000
   3312   3313     1   0.10190 328360.320000
   3312   3314     1   0.10190 328360.320000
   3315   3316     1   0.10129 337397.760000
   3317   3318     1   0.10969 276646.080000
   3317   3319     1   0.10969 276646.080000
   3320   3321     1   0.10969 276646.080000
   3320   3322     1   0.10969 276646.080000
   3323   3324     1   0.10190 328360.320000
   3323   3325     1   0.10190 328360.320000
   3326   3327     1   0.10129 337397.760000
   3328   3329     1   0.10969 276646.080000
   3328   3330     1   0.10969 276646.080000
   3331   3332     1   0.10969 276646.080000
   3331   3333     1   0.10969 276646.080000
   3334   3335     1   0.10190 328360.320000
   3334   3336     1   0.10190 328360.320000
   3337   3338     1   0.10129 337397.760000
   3339   3340     1   0.10969 276646.080000
   3339   3341     1   0.10969 276646.080000
   3342   3343     1   0.10969 276646.080000
   3342   3344     1   0.10969 276646.080000
   3345   3346     1   0.10190 328360.320000
   3345   3347     1   0.10190 328360.320000
   3348   3349     1   0.10129 337397.760000
   3350   3351     1   0.10969 276646.080000
   3350   3352     1   0.10969 276646.080000
   3353   3354     1   0.10969 276646.080000
   3353   3355     1   0.10969 276646.080000
   3356   3357     1   0.10190 328360.320000
   3356   3358     1   0.10190 328360.320000
   3359   3360     1   0.10129 337397.760000
   3361   3362     1   0.10969 276646.080000
   3361   3363     1   0.10969 276646.080000
   3364   3365     1   0.10969 276646.080000
   3364   3366     1   0.10969 276646.080000
   3367   3368     1   0.10190 328360.320000
   3367   3369     1   0.10190 328360.320000
   3370   3371     1   0.10129 337397.760000
   3372   3373     1   0.10969 276646.080000
   3372   3374     1   0.10969 276646.080000
   3375   3376     1   0.10969 276646.080000
   3375   3377     1   0.10969 276646.080000
   3378   3379     1   0.10190 328360.320000
   3378   3380     1   0.10190 328360.320000
   3381   3382     1   0.10129 337397.760000
   3383   3384     1   0.10969 276646.080000
   3383   3385     1   0.10969 276646.080000
   3386   3387     1   0.10969 276646.080000
   3386   3388     1   0.10969 276646.080000
   3389   3390     1   0.10190 328360.320000
   3389   3391     1   0.10190 328360.320000
   3392   3393     1   0.10129 337397.760000
   3394   3395     1   0.10969 276646.080000
   3394   3396     1   0.10969 276646.080000
   3397   3398     1   0.10969 276646.080000
   3397   3399     1   0.10969 276646.080000
   3400   3401     1   0.10190 328360.320000
   3400   3402     1   0.10190 328360.320000
   3403   3404     1   0.10129 337397.760000
   3405   3406     1   0.10969 276646.080000
   3405   3407     1   0.10969 276646.080000
   3408   3409     1   0.10969 276646.080000
   3408   3410     1   0.10969 276646.080000
   3411   3412     1   0.10190 328360.320000
   3411   3413     1   0.10190 328360.320000
   3414   3415     1   0.10129 337397.760000
   3416   3417     1   0.10969 276646.080000
   3416   3418     1   0.10969 276646.080000
   3419   3420     1   0.10969 276646.080000
   3419   3421     1   0.10969 276646.080000
   3422   3423     1   0.10190 328360.320000
   3422   3424     1   0.10190 328360.320000
   3425   3426     1   0.10129 337397.760000
   3427   3428     1   0.10969 276646.080000
   3427   3429     1   0.10969 276646.080000
   3430   3431     1   0.10969 276646.080000
   3430   3432     1   0.10969 276646.080000
   3433   3434     1   0.10190 328360.320000
   3433   3435     1   0.10190 328360.320000
   3436   3437     1   0.10129 337397.760000
   3438   3439     1   0.10969 276646.080000
   3438   3440     1   0.10969 276646.080000
   3441   3442     1   0.10969 276646.080000
   3441   3443     1   0.10969 276646.080000
   3444   3445     1   0.10190 328360.320000
   3444   3446     1   0.10190 328360.320000
   3447   3448     1   0.10129 337397.760000
   3449   3450     1   0.10969 276646.080000
   3449   3451     1   0.10969 276646.080000
   3452   3453     1   0.10969 276646.080000
   3452   3454     1   0.10969 276646.080000
   3455   3456     1   0.10190 328360.320000
   3455   3457     1   0.10190 328360.320000
   3458   3459     1   0.10129 337397.760000
   3460   3461     1   0.10969 276646.080000
   3460   3462     1   0.10969 276646.080000
   3463   3464     1   0.10969 276646.080000
   3463   3465     1   0.10969 276646.080000
   3466   3467     1   0.10190 328360.320000
   3466   3468     1   0.10190 328360.320000
   3469   3470     1   0.10129 337397.760000
   3471   3472     1   0.10969 276646.080000
   3471   3473     1   0.10969 276646.080000
   3474   3475     1   0.10969 276646.080000
   3474   3476     1   0.10969 276646.080000
   3477   3478     1   0.10190 328360.320000
   3477   3479     1   0.10190 328360.320000
   3480   3481     1   0.10129 337397.760000
   3482   3483     1   0.10969 276646.080000
   3482   3484     1   0.10969 276646.080000
   3485   3486     1   0.10969 276646.080000
   3485   3487     1   0.10969 276646.080000
   3488   3489     1   0.10190 328360.320000
   3488   3490     1   0.10190 328360.320000
   3491   3492     1   0.10129 337397.760000
   3493   3494     1   0.10969 276646.080000
   3493   3495     1   0.10969 276646.080000
   3496   3497     1   0.10969 276646.080000
   3496   3498     1   0.10969 276646.080000
   3499   3500     1   0.10190 328360.320000
   3499   3501     1   0.10190 328360.320000
   3502   3503     1   0.10129 337397.760000
   3504   3505     1   0.10969 276646.080000
   3504   3506     1   0.10969 276646.080000
   3507   3508     1   0.10969 276646.080000
   3507   3509     1   0.10969 276646.080000
   3510   3511     1   0.10190 328360.320000
   3510   3512     1   0.10190 328360.320000
   3513   3514     1   0.10129 337397.760000
   3515   3516     1   0.10969 276646.080000
   3515   3517     1   0.10969 276646.080000
   3518   3519     1   0.10969 276646.080000
   3518   3520     1   0.10969 276646.080000
   3521   3522     1   0.10190 328360.320000
   3521   3523     1   0.10190 328360.320000
   3524   3525     1   0.10129 337397.760000
   3526   3527     1   0.10969 276646.080000
   3526   3528     1   0.10969 276646.080000
   3529   3530     1   0.10969 276646.080000
   3529   3531     1   0.10969 276646.080000
   3532   3533     1   0.10190 328360.320000
   3532   3534     1   0.10190 328360.320000
   3535   3536     1   0.10129 337397.760000
   3537   3538     1   0.10969 276646.080000
   3537   3539     1   0.10969 276646.080000
   3540   3541     1   0.10969 276646.080000
   3540   3542     1   0.10969 276646.080000
   3543   3544     1   0.10190 328360.320000
   3543   3545     1   0.10190 328360.320000
   3546   3547     1   0.10129 337397.760000
   3548   3549     1   0.10969 276646.080000
   3548   3550     1   0.10969 276646.080000
   3551   3552     1   0.10969 276646.080000
   3551   3553     1   0.10969 276646.080000
   3554   3555     1   0.10190 328360.320000
   3554   3556     1   0.10190 328360.320000
   3557   3558     1   0.10129 337397.760000
   3559   3560     1   0.10969 276646.080000
   3559   3561     1   0.10969 276646.080000
   3562   3563     1   0.10969 276646.080000
   3562   3564     1   0.10969 276646.080000
   3565   3566     1   0.10190 328360.320000
   3565   3567     1   0.10190 328360.320000
   3568   3569     1   0.10129 337397.760000
   3570   3571     1   0.10969 276646.080000
   3570   3572     1   0.10969 276646.080000
   3573   3574     1   0.10969 276646.080000
   3573   3575     1   0.10969 276646.080000
   3576   3577     1   0.10190 328360.320000
   3576   3578     1   0.10190 328360.320000
   3579   3580     1   0.10129 337397.760000
   3581   3582     1   0.10969 276646.080000
   3581   3583     1   0.10969 276646.080000
   3584   3585     1   0.10969 276646.080000
   3584   3586     1   0.10969 276646.080000
   3587   3588     1   0.10190 328360.320000
   3587   3589     1   0.10190 328360.320000
   3590   3591     1   0.10129 337397.760000
   3592   3593     1   0.10969 276646.080000
   3592   3594     1   0.10969 276646.080000
   3595   3596     1   0.10969 276646.080000
   3595   3597     1   0.10969 276646.080000
   3598   3599     1   0.10190 328360.320000
   3598   3600     1   0.10190 328360.320000
   3601   3602     1   0.10129 337397.760000
   3603   3604     1   0.10969 276646.080000
   3603   3605     1   0.10969 276646.080000
   3606   3607     1   0.10969 276646.080000
   3606   3608     1   0.10969 276646.080000
   3609   3610     1   0.10190 328360.320000
   3609   3611     1   0.10190 328360.320000
   3612   3613     1   0.10129 337397.760000
   3614   3615     1   0.10969 276646.080000
   3614   3616     1   0.10969 276646.080000
   3617   3618     1   0.10969 276646.080000
   3617   3619     1   0.10969 276646.080000
   3620   3621     1   0.10190 328360.320000
   3620   3622     1   0.10190 328360.320000
   3623   3624     1   0.10129 337397.760000
   3625   3626     1   0.10969 276646.080000
   3625   3627     1   0.10969 276646.080000
   3628   3629     1   0.10969 276646.080000
   3628   3630     1   0.10969 276646.080000
   3631   3632     1   0.10190 328360.320000
   3631   3633     1   0.10190 328360.320000
   3634   3635     1   0.10129 337397.760000
   3636   3637     1   0.10969 276646.080000
   3636   3638     1   0.10969 276646.080000
   3639   3640     1   0.10969 276646.080000
   3639   3641     1   0.10969 276646.080000
   3642   3643     1   0.10190 328360.320000
   3642   3644     1   0.10190 328360.320000
   3645   3646     1   0.10129 337397.760000
   3647   3648     1   0.10969 276646.080000
   3647   3649     1   0.10969 276646.080000
   3650   3651     1   0.10969 276646.080000
   3650   3652     1   0.10969 276646.080000
   3653   3654     1   0.10190 328360.320000
   3653   3655     1   0.10190 328360.320000
   3656   3657     1   0.10129 337397.760000
   3658   3659     1   0.10969 276646.080000
   3658   3660     1   0.10969 276646.080000
   3661   3662     1   0.10969 276646.080000
   3661   3663     1   0.10969 276646.080000
   3664   3665     1   0.10190 328360.320000
   3664   3666     1   0.10190 328360.320000
   3667   3668     1   0.10129 337397.760000
   3669   3670     1   0.10969 276646.080000
   3669   3671     1   0.10969 276646.080000
   3672   3673     1   0.10969 276646.080000
   3672   3674     1   0.10969 276646.080000
   3675   3676     1   0.10190 328360.320000
   3675   3677     1   0.10190 328360.320000
   3678   3679     1   0.10129 337397.760000
   3680   3681     1   0.10969 276646.080000
   3680   3682     1   0.10969 276646.080000
   3683   3684     1   0.10969 276646.080000
   3683   3685     1   0.10969 276646.080000
   3686   3687     1   0.10190 328360.320000
   3686   3688     1   0.10190 328360.320000
   3689   3690     1   0.10129 337397.760000
   3691   3692     1   0.10969 276646.080000
   3691   3693     1   0.10969 276646.080000
   3694   3695     1   0.10969 276646.080000
   3694   3696     1   0.10969 276646.080000
   3697   3698     1   0.10190 328360.320000
   3697   3699     1   0.10190 328360.320000
   3700   3701     1   0.10129 337397.760000
   3702   3703     1   0.10969 276646.080000
   3702   3704     1   0.10969 276646.080000
   3705   3706     1   0.10969 276646.080000
   3705   3707     1   0.10969 276646.080000
   3708   3709     1   0.10190 328360.320000
   3708   3710     1   0.10190 328360.320000
   3711   3712     1   0.10129 337397.760000
   3713   3714     1   0.10969 276646.080000
   3713   3715     1   0.10969 276646.080000
   3716   3717     1   0.10969 276646.080000
   3716   3718     1   0.10969 276646.080000
   3719   3720     1   0.10190 328360.320000
   3719   3721     1   0.10190 328360.320000
   3722   3723     1   0.10129 337397.760000
   3724   3725     1   0.10969 276646.080000
   3724   3726     1   0.10969 276646.080000
   3727   3728     1   0.10969 276646.080000
   3727   3729     1   0.10969 276646.080000
   3730   3731     1   0.10190 328360.320000
   3730   3732     1   0.10190 328360.320000
   3733   3734     1   0.10129 337397.760000
   3735   3736     1   0.10969 276646.080000
   3735   3737     1   0.10969 276646.080000
   3738   3739     1   0.10969 276646.080000
   3738   3740     1   0.10969 276646.080000
   3741   3742     1   0.10190 328360.320000
   3741   3743     1   0.10190 328360.320000
   3744   3745     1   0.10129 337397.760000
   3746   3747     1   0.10969 276646.080000
   3746   3748     1   0.10969 276646.080000
   3749   3750     1   0.10969 276646.080000
   3749   3751     1   0.10969 276646.080000
   3752   3753     1   0.10190 328360.320000
   3752   3754     1   0.10190 328360.320000
   3755   3756     1   0.10129 337397.760000
   3757   3758     1   0.10969 276646.080000
   3757   3759     1   0.10969 276646.080000
   3760   3761     1   0.10969 276646.080000
   3760   3762     1   0.10969 276646.080000
   3763   3764     1   0.10190 328360.320000
   3763   3765     1   0.10190 328360.320000
   3766   3767     1   0.10129 337397.760000
   3768   3769     1   0.10969 276646.080000
   3768   3770     1   0.10969 276646.080000
   3771   3772     1   0.10969 276646.080000
   3771   3773     1   0.10969 276646.080000
   3774   3775     1   0.10190 328360.320000
   3774   3776     1   0.10190 328360.320000
   3777   3778     1   0.10129 337397.760000
   3779   3780     1   0.10969 276646.080000
   3779   3781     1   0.10969 276646.080000
   3782   3783     1   0.10969 276646.080000
   3782   3784     1   0.10969 276646.080000
   3785   3786     1   0.10190 328360.320000
   3785   3787     1   0.10190 328360.320000
   3788   3789     1   0.10129 337397.760000
   3790   3791     1   0.10969 276646.080000
   3790   3792     1   0.10969 276646.080000
   3793   3794     1   0.10969 276646.080000
   3793   3795     1   0.10969 276646.080000
   3796   3797     1   0.10190 328360.320000
   3796   3798     1   0.10190 328360.320000
   3799   3800     1   0.10129 337397.760000
   3801   3802     1   0.10969 276646.080000
   3801   3803     1   0.10969 276646.080000
   3804   3805     1   0.10969 276646.080000
   3804   3806     1   0.10969 276646.080000
   3807   3808     1   0.10190 328360.320000
   3807   3809     1   0.10190 328360.320000
   3810   3811     1   0.10129 337397.760000
   3812   3813     1   0.10969 276646.080000
   3812   3814     1   0.10969 276646.080000
   3815   3816     1   0.10969 276646.080000
   3815   3817     1   0.10969 276646.080000
   3818   3819     1   0.10190 328360.320000
   3818   3820     1   0.10190 328360.320000
   3821   3822     1   0.10129 337397.760000
   3823   3824     1   0.10969 276646.080000
   3823   3825     1   0.10969 276646.080000
   3826   3827     1   0.10969 276646.080000
   3826   3828     1   0.10969 276646.080000
   3829   3830     1   0.10190 328360.320000
   3829   3831     1   0.10190 328360.320000
   3832   3833     1   0.10129 337397.760000
   3834   3835     1   0.10969 276646.080000
   3834   3836     1   0.10969 276646.080000
   3837   3838     1   0.10969 276646.080000
   3837   3839     1   0.10969 276646.080000
   3840   3841     1   0.10190 328360.320000
   3840   3842     1   0.10190 328360.320000
   3843   3844     1   0.10129 337397.760000
   3845   3846     1   0.10969 276646.080000
   3845   3847     1   0.10969 276646.080000
   3848   3849     1   0.10969 276646.080000
   3848   3850     1   0.10969 276646.080000
   3851   3852     1   0.10190 328360.320000
   3851   3853     1   0.10190 328360.320000
   3854   3855     1   0.10129 337397.760000
   3856   3857     1   0.10969 276646.080000
   3856   3858     1   0.10969 276646.080000
   3859   3860     1   0.10969 276646.080000
   3859   3861     1   0.10969 276646.080000
   3862   3863     1   0.10190 328360.320000
   3862   3864     1   0.10190 328360.320000
   3865   3866     1   0.10129 337397.760000
   3867   3868     1   0.10969 276646.080000
   3867   3869     1   0.10969 276646.080000
   3870   3871     1   0.10969 276646.080000
   3870   3872     1   0.10969 276646.080000
   3873   3874     1   0.10190 328360.320000
   3873   3875     1   0.10190 328360.320000
   3876   3877     1   0.10129 337397.760000
   3878   3879     1   0.10969 276646.080000
   3878   3880     1   0.10969 276646.080000
   3881   3882     1   0.10969 276646.080000
   3881   3883     1   0.10969 276646.080000
   3884   3885     1   0.10190 328360.320000
   3884   3886     1   0.10190 328360.320000
   3887   3888     1   0.10129 337397.760000
   3889   3890     1   0.10969 276646.080000
   3889   3891     1   0.10969 276646.080000
   3892   3893     1   0.10969 276646.080000
   3892   3894     1   0.10969 276646.080000
   3895   3896     1   0.10190 328360.320000
   3895   3897     1   0.10190 328360.320000
   3898   3899     1   0.10129 337397.760000
   3900   3901     1   0.10969 276646.080000
   3900   3902     1   0.10969 276646.080000
   3903   3904     1   0.10969 276646.080000
   3903   3905     1   0.10969 276646.080000
   3906   3907     1   0.10190 328360.320000
   3906   3908     1   0.10190 328360.320000
   3909   3910     1   0.10129 337397.760000
   3911   3912     1   0.10969 276646.080000
   3911   3913     1   0.10969 276646.080000
   3914   3915     1   0.10969 276646.080000
   3914   3916     1   0.10969 276646.080000
   3917   3918     1   0.10190 328360.320000
   3917   3919     1   0.10190 328360.320000
   3920   3921     1   0.10129 337397.760000
   3922   3923     1   0.10969 276646.080000
   3922   3924     1   0.10969 276646.080000
   3925   3926     1   0.10969 276646.080000
   3925   3927     1   0.10969 276646.080000
   3928   3929     1   0.10190 328360.320000
   3928   3930     1   0.10190 328360.320000
   3931   3932     1   0.10129 337397.760000
   3933   3934     1   0.10969 276646.080000
   3933   3935     1   0.10969 276646.080000
   3936   3937     1   0.10969 276646.080000
   3936   3938     1   0.10969 276646.080000
   3939   3940     1   0.10190 328360.320000
   3939   3941     1   0.10190 328360.320000
   3942   3943     1   0.10129 337397.760000
   3944   3945     1   0.10969 276646.080000
   3944   3946     1   0.10969 276646.080000
   3947   3948     1   0.10969 276646.080000
   3947   3949     1   0.10969 276646.080000
   3950   3951     1   0.10190 328360.320000
   3950   3952     1   0.10190 328360.320000
   3953   3954     1   0.10129 337397.760000
   3955   3956     1   0.10969 276646.080000
   3955   3957     1   0.10969 276646.080000
   3958   3959     1   0.10969 276646.080000
   3958   3960     1   0.10969 276646.080000
   3961   3962     1   0.10190 328360.320000
   3961   3963     1   0.10190 328360.320000
   3964   3965     1   0.10129 337397.760000
   3966   3967     1   0.10969 276646.080000
   3966   3968     1   0.10969 276646.080000
   3969   3970     1   0.10969 276646.080000
   3969   3971     1   0.10969 276646.080000
   3972   3973     1   0.10190 328360.320000
   3972   3974     1   0.10190 328360.320000
   3975   3976     1   0.10129 337397.760000
   3977   3978     1   0.10969 276646.080000
   3977   3979     1   0.10969 276646.080000
   3980   3981     1   0.10969 276646.080000
   3980   3982     1   0.10969 276646.080000
   3983   3984     1   0.10190 328360.320000
   3983   3985     1   0.10190 328360.320000
   3986   3987     1   0.10129 337397.760000
   3988   3989     1   0.10969 276646.080000
   3988   3990     1   0.10969 276646.080000
   3991   3992     1   0.10969 276646.080000
   3991   3993     1   0.10969 276646.080000
   3994   3995     1   0.10190 328360.320000
   3994   3996     1   0.10190 328360.320000
   3997   3998     1   0.10129 337397.760000
   3999   4000     1   0.10969 276646.080000
   3999   4001     1   0.10969 276646.080000
   4002   4003     1   0.10969 276646.080000
   4002   4004     1   0.10969 276646.080000
   4005   4006     1   0.10190 328360.320000
   4005   4007     1   0.10190 328360.320000
   4008   4009     1   0.10129 337397.760000
   4010   4011     1   0.10969 276646.080000
   4010   4012     1   0.10969 276646.080000
   4013   4014     1   0.10969 276646.080000
   4013   4015     1   0.10969 276646.080000
   4016   4017     1   0.10190 328360.320000
   4016   4018     1   0.10190 328360.320000
   4019   4020     1   0.10129 337397.760000
   4021   4022     1   0.10969 276646.080000
   4021   4023     1   0.10969 276646.080000
   4024   4025     1   0.10969 276646.080000
   4024   4026     1   0.10969 276646.080000
   4027   4028     1   0.10190 328360.320000
   4027   4029     1   0.10190 328360.320000
   4030   4031     1   0.10129 337397.760000
   4032   4033     1   0.10969 276646.080000
   4032   4034     1   0.10969 276646.080000
   4035   4036     1   0.10969 276646.080000
   4035   4037     1   0.10969 276646.080000
   4038   4039     1   0.10190 328360.320000
   4038   4040     1   0.10190 328360.320000
   4041   4042     1   0.10129 337397.760000
   4043   4044     1   0.10969 276646.080000
   4043   4045     1   0.10969 276646.080000
   4046   4047     1   0.10969 276646.080000
   4046   4048     1   0.10969 276646.080000
   4049   4050     1   0.10190 328360.320000
   4049   4051     1   0.10190 328360.320000
   4052   4053     1   0.10129 337397.760000
   4054   4055     1   0.10969 276646.080000
   4054   4056     1   0.10969 276646.080000
   4057   4058     1   0.10969 276646.080000
   4057   4059     1   0.10969 276646.080000
   4060   4061     1   0.10190 328360.320000
   4060   4062     1   0.10190 328360.320000
   4063   4064     1   0.10129 337397.760000
   4065   4066     1   0.10969 276646.080000
   4065   4067     1   0.10969 276646.080000
   4068   4069     1   0.10969 276646.080000
   4068   4070     1   0.10969 276646.080000
   4071   4072     1   0.10190 328360.320000
   4071   4073     1   0.10190 328360.320000
   4074   4075     1   0.10129 337397.760000
   4076   4077     1   0.10969 276646.080000
   4076   4078     1   0.10969 276646.080000
   4079   4080     1   0.10969 276646.080000
   4079   4081     1   0.10969 276646.080000
   4082   4083     1   0.10190 328360.320000
   4082   4084     1   0.10190 328360.320000
   4085   4086     1   0.10129 337397.760000
   4087   4088     1   0.10969 276646.080000
   4087   4089     1   0.10969 276646.080000
   4090   4091     1   0.10969 276646.080000
   4090   4092     1   0.10969 276646.080000
   4093   4094     1   0.10190 328360.320000
   4093   4095     1   0.10190 328360.320000
   4096   4097     1   0.10129 337397.760000
   4098   4099     1   0.10969 276646.080000
   4098   4100     1   0.10969 276646.080000
   4101   4102     1   0.10969 276646.080000
   4101   4103     1   0.10969 276646.080000
   4104   4105     1   0.10190 328360.320000
   4104   4106     1   0.10190 328360.320000
   4107   4108     1   0.10129 337397.760000
   4109   4110     1   0.10969 276646.080000
   4109   4111     1   0.10969 276646.080000
   4112   4113     1   0.10969 276646.080000
   4112   4114     1   0.10969 276646.080000
   4115   4116     1   0.10190 328360.320000
   4115   4117     1   0.10190 328360.320000
   4118   4119     1   0.10129 337397.760000
   4120   4121     1   0.10969 276646.080000
   4120   4122     1   0.10969 276646.080000
   4123   4124     1   0.10969 276646.080000
   4123   4125     1   0.10969 276646.080000
   4126   4127     1   0.10190 328360.320000
   4126   4128     1   0.10190 328360.320000
   4129   4130     1   0.10129 337397.760000
   4131   4132     1   0.10969 276646.080000
   4131   4133     1   0.10969 276646.080000
   4134   4135     1   0.10969 276646.080000
   4134   4136     1   0.10969 276646.080000
   4137   4138     1   0.10190 328360.320000
   4137   4139     1   0.10190 328360.320000
   4140   4141     1   0.10129 337397.760000
   4142   4143     1   0.10969 276646.080000
   4142   4144     1   0.10969 276646.080000
   4145   4146     1   0.10969 276646.080000
   4145   4147     1   0.10969 276646.080000
   4148   4149     1   0.10190 328360.320000
   4148   4150     1   0.10190 328360.320000
   4151   4152     1   0.10129 337397.760000
   4153   4154     1   0.10969 276646.080000
   4153   4155     1   0.10969 276646.080000
   4156   4157     1   0.10969 276646.080000
   4156   4158     1   0.10969 276646.080000
   4159   4160     1   0.10190 328360.320000
   4159   4161     1   0.10190 328360.320000
   4162   4163     1   0.10129 337397.760000
   4164   4165     1   0.10969 276646.080000
   4164   4166     1   0.10969 276646.080000
   4167   4168     1   0.10969 276646.080000
   4167   4169     1   0.10969 276646.080000
   4170   4171     1   0.10190 328360.320000
   4170   4172     1   0.10190 328360.320000
   4173   4174     1   0.10129 337397.760000
   4175   4176     1   0.10969 276646.080000
   4175   4177     1   0.10969 276646.080000
   4178   4179     1   0.10969 276646.080000
   4178   4180     1   0.10969 276646.080000
   4181   4182     1   0.10190 328360.320000
   4181   4183     1   0.10190 328360.320000
   4184   4185     1   0.10129 337397.760000
   4186   4187     1   0.10969 276646.080000
   4186   4188     1   0.10969 276646.080000
   4189   4190     1   0.10969 276646.080000
   4189   4191     1   0.10969 276646.080000
   4192   4193     1   0.10190 328360.320000
   4192   4194     1   0.10190 328360.320000
   4195   4196     1   0.10129 337397.760000
   4197   4198     1   0.10969 276646.080000
   4197   4199     1   0.10969 276646.080000
   4200   4201     1   0.10969 276646.080000
   4200   4202     1   0.10969 276646.080000
   4203   4204     1   0.10190 328360.320000
   4203   4205     1   0.10190 328360.320000
   4206   4207     1   0.10129 337397.760000
   4208   4209     1   0.10969 276646.080000
   4208   4210     1   0.10969 276646.080000
   4211   4212     1   0.10969 276646.080000
   4211   4213     1   0.10969 276646.080000
   4214   4215     1   0.10190 328360.320000
   4214   4216     1   0.10190 328360.320000
   4217   4218     1   0.10129 337397.760000
   4219   4220     1   0.10969 276646.080000
   4219   4221     1   0.10969 276646.080000
   4222   4223     1   0.10969 276646.080000
   4222   4224     1   0.10969 276646.080000
   4225   4226     1   0.10190 328360.320000
   4225   4227     1   0.10190 328360.320000
   4228   4229     1   0.10129 337397.760000
   4230   4231     1   0.10969 276646.080000
   4230   4232     1   0.10969 276646.080000
   4233   4234     1   0.10969 276646.080000
   4233   4235     1   0.10969 276646.080000
   4236   4237     1   0.10190 328360.320000
   4236   4238     1   0.10190 328360.320000
   4239   4240     1   0.10129 337397.760000
   4241   4242     1   0.10969 276646.080000
   4241   4243     1   0.10969 276646.080000
   4244   4245     1   0.10969 276646.080000
   4244   4246     1   0.10969 276646.080000
   4247   4248     1   0.10190 328360.320000
   4247   4249     1   0.10190 328360.320000
   4250   4251     1   0.10129 337397.760000
   4252   4253     1   0.10969 276646.080000
   4252   4254     1   0.10969 276646.080000
   4255   4256     1   0.10969 276646.080000
   4255   4257     1   0.10969 276646.080000
   4258   4259     1   0.10190 328360.320000
   4258   4260     1   0.10190 328360.320000
   4261   4262     1   0.10129 337397.760000
   4263   4264     1   0.10969 276646.080000
   4263   4265     1   0.10969 276646.080000
   4266   4267     1   0.10969 276646.080000
   4266   4268     1   0.10969 276646.080000
   4269   4270     1   0.10190 328360.320000
   4269   4271     1   0.10190 328360.320000
   4272   4273     1   0.10129 337397.760000
   4274   4275     1   0.10969 276646.080000
   4274   4276     1   0.10969 276646.080000
   4277   4278     1   0.10969 276646.080000
   4277   4279     1   0.10969 276646.080000
   4280   4281     1   0.10190 328360.320000
   4280   4282     1   0.10190 328360.320000
   4283   4284     1   0.10129 337397.760000
   4285   4286     1   0.10969 276646.080000
   4285   4287     1   0.10969 276646.080000
   4288   4289     1   0.10969 276646.080000
   4288   4290     1   0.10969 276646.080000
   4291   4292     1   0.10190 328360.320000
   4291   4293     1   0.10190 328360.320000
   4294   4295     1   0.10129 337397.760000
   4296   4297     1   0.10969 276646.080000
   4296   4298     1   0.10969 276646.080000
   4299   4300     1   0.10969 276646.080000
   4299   4301     1   0.10969 276646.080000
   4302   4303     1   0.10190 328360.320000
   4302   4304     1   0.10190 328360.320000
   4305   4306     1   0.10129 337397.760000
   4307   4308     1   0.10969 276646.080000
   4307   4309     1   0.10969 276646.080000
   4310   4311     1   0.10969 276646.080000
   4310   4312     1   0.10969 276646.080000
   4313   4314     1   0.10190 328360.320000
   4313   4315     1   0.10190 328360.320000
   4316   4317     1   0.10129 337397.760000
   4318   4319     1   0.10969 276646.080000
   4318   4320     1   0.10969 276646.080000
   4321   4322     1   0.10969 276646.080000
   4321   4323     1   0.10969 276646.080000
   4324   4325     1   0.10190 328360.320000
   4324   4326     1   0.10190 328360.320000
   4327   4328     1   0.10129 337397.760000
   4329   4330     1   0.10969 276646.080000
   4329   4331     1   0.10969 276646.080000
   4332   4333     1   0.10969 276646.080000
   4332   4334     1   0.10969 276646.080000
   4335   4336     1   0.10190 328360.320000
   4335   4337     1   0.10190 328360.320000
   4338   4339     1   0.10129 337397.760000
   4340   4341     1   0.10969 276646.080000
   4340   4342     1   0.10969 276646.080000
   4343   4344     1   0.10969 276646.080000
   4343   4345     1   0.10969 276646.080000
   4346   4347     1   0.10190 328360.320000
   4346   4348     1   0.10190 328360.320000
   4349   4350     1   0.10129 337397.760000
   4351   4352     1   0.10969 276646.080000
   4351   4353     1   0.10969 276646.080000
   4354   4355     1   0.10969 276646.080000
   4354   4356     1   0.10969 276646.080000
   4357   4358     1   0.10190 328360.320000
   4357   4359     1   0.10190 328360.320000
   4360   4361     1   0.10129 337397.760000
   4362   4363     1   0.10969 276646.080000
   4362   4364     1   0.10969 276646.080000
   4365   4366     1   0.10969 276646.080000
   4365   4367     1   0.10969 276646.080000
   4368   4369     1   0.10190 328360.320000
   4368   4370     1   0.10190 328360.320000
   4371   4372     1   0.10129 337397.760000
   4373   4374     1   0.10969 276646.080000
   4373   4375     1   0.10969 276646.080000
   4376   4377     1   0.10969 276646.080000
   4376   4378     1   0.10969 276646.080000
   4379   4380     1   0.10190 328360.320000
   4379   4381     1   0.10190 328360.320000
   4382   4383     1   0.10129 337397.760000
   4384   4385     1   0.10969 276646.080000
   4384   4386     1   0.10969 276646.080000
   4387   4388     1   0.10969 276646.080000
   4387   4389     1   0.10969 276646.080000
   4390   4391     1   0.10190 328360.320000
   4390   4392     1   0.10190 328360.320000
   4393   4394     1   0.10129 337397.760000
   4395   4396     1   0.10969 276646.080000
   4395   4397     1   0.10969 276646.080000
   4398   4399     1   0.10969 276646.080000
   4398   4400     1   0.10969 276646.080000
   4401   4402     1   0.10190 328360.320000
   4401   4403     1   0.10190 328360.320000
   4404   4405     1   0.10129 337397.760000
   4406   4407     1   0.10969 276646.080000
   4406   4408     1   0.10969 276646.080000
   4409   4410     1   0.10969 276646.080000
   4409   4411     1   0.10969 276646.080000
   4412   4413     1   0.10190 328360.320000
   4412   4414     1   0.10190 328360.320000
   4415   4416     1   0.10129 337397.760000
   4417   4418     1   0.10969 276646.080000
   4417   4419     1   0.10969 276646.080000
   4420   4421     1   0.10969 276646.080000
   4420   4422     1   0.10969 276646.080000
   4423   4424     1   0.10190 328360.320000
   4423   4425     1   0.10190 328360.320000
   4426   4427     1   0.10129 337397.760000
   4428   4429     1   0.10969 276646.080000
   4428   4430     1   0.10969 276646.080000
   4431   4432     1   0.10969 276646.080000
   4431   4433     1   0.10969 276646.080000
   4434   4435     1   0.10190 328360.320000
   4434   4436     1   0.10190 328360.320000
   4437   4438     1   0.10129 337397.760000
   4439   4440     1   0.10969 276646.080000
   4439   4441     1   0.10969 276646.080000
   4442   4443     1   0.10969 276646.080000
   4442   4444     1   0.10969 276646.080000
   4445   4446     1   0.10190 328360.320000
   4445   4447     1   0.10190 328360.320000
   4448   4449     1   0.10129 337397.760000
   4450   4451     1   0.10969 276646.080000
   4450   4452     1   0.10969 276646.080000
   4453   4454     1   0.10969 276646.080000
   4453   4455     1   0.10969 276646.080000
   4456   4457     1   0.10190 328360.320000
   4456   4458     1   0.10190 328360.320000
   4459   4460     1   0.10129 337397.760000
   4461   4462     1   0.10969 276646.080000
   4461   4463     1   0.10969 276646.080000
   4464   4465     1   0.10969 276646.080000
   4464   4466     1   0.10969 276646.080000
   4467   4468     1   0.10190 328360.320000
   4467   4469     1   0.10190 328360.320000
   4470   4471     1   0.10129 337397.760000
   4472   4473     1   0.10969 276646.080000
   4472   4474     1   0.10969 276646.080000
   4475   4476     1   0.10969 276646.080000
   4475   4477     1   0.10969 276646.080000
   4478   4479     1   0.10190 328360.320000
   4478   4480     1   0.10190 328360.320000
   4481   4482     1   0.10129 337397.760000
   4483   4484     1   0.10969 276646.080000
   4483   4485     1   0.10969 276646.080000
   4486   4487     1   0.10969 276646.080000
   4486   4488     1   0.10969 276646.080000
   4489   4490     1   0.10190 328360.320000
   4489   4491     1   0.10190 328360.320000
   4492   4493     1   0.10129 337397.760000
   4494   4495     1   0.10969 276646.080000
   4494   4496     1   0.10969 276646.080000
   4497   4498     1   0.10969 276646.080000
   4497   4499     1   0.10969 276646.080000
   4500   4501     1   0.10190 328360.320000
   4500   4502     1   0.10190 328360.320000
   4503   4504     1   0.10129 337397.760000
   4505   4506     1   0.10969 276646.080000
   4505   4507     1   0.10969 276646.080000
   4508   4509     1   0.10969 276646.080000
   4508   4510     1   0.10969 276646.080000
   4511   4512     1   0.10190 328360.320000
   4511   4513     1   0.10190 328360.320000
   4514   4515     1   0.10129 337397.760000
   4516   4517     1   0.10969 276646.080000
   4516   4518     1   0.10969 276646.080000
   4519   4520     1   0.10969 276646.080000
   4519   4521     1   0.10969 276646.080000
   4522   4523     1   0.10190 328360.320000
   4522   4524     1   0.10190 328360.320000
   4525   4526     1   0.10129 337397.760000
   4527   4528     1   0.10969 276646.080000
   4527   4529     1   0.10969 276646.080000
   4530   4531     1   0.10969 276646.080000
   4530   4532     1   0.10969 276646.080000
   4533   4534     1   0.10190 328360.320000
   4533   4535     1   0.10190 328360.320000
   4536   4537     1   0.10129 337397.760000
   4538   4539     1   0.10969 276646.080000
   4538   4540     1   0.10969 276646.080000
   4541   4542     1   0.10969 276646.080000
   4541   4543     1   0.10969 276646.080000
   4544   4545     1   0.10190 328360.320000
   4544   4546     1   0.10190 328360.320000
   4547   4548     1   0.10129 337397.760000

[ pairs ]
;    ai     aj funct         c0         c1         c2         c3
      1     15     1
      1     18     1
      1     30     1
      1     27     1
      4      9     1
      4     12     1
      4     21     1
      4     24     1
      8      7     1
      7     35     1
      7     36     1
      8     34     1
      8     33     1
      9     27     1
      9     40     1
      9     89     1
     12     30     1
     12     37     1
     12     64     1
     15     24     1
     15     38     1
     15    114     1
     18     21     1
     18     39     1
     18    139     1
     21     94     1
     24    119     1
     27     44     1
     30     69     1
     33     41     1
     34     66     1
     35     91     1
     36    116     1
     37     44     1
     38     94     1
     39    119     1
     40     69     1
     41     57     1
     41     54     1
     44     48     1
     44     51     1
     47     64     1
     47     61     1
     47     60     1
     48     54     1
     48     63     1
     48    189     1
     51     57     1
     51     62     1
     51    164     1
     54    144     1
     57    169     1
     60    141     1
     61    166     1
     62    144     1
     63    169     1
     66     82     1
     66     79     1
     69     73     1
     69     76     1
     72     89     1
     72     86     1
     72     85     1
     73     79     1
     73     88     1
     73    239     1
     76     82     1
     76     87     1
     76    214     1
     79    194     1
     82    219     1
     85    191     1
     86    216     1
     87    194     1
     88    219     1
     91    107     1
     91    104     1
     94     98     1
     94    101     1
     97    114     1
     97    111     1
     97    110     1
     98    104     1
     98    113     1
     98    289     1
    101    107     1
    101    112     1
    101    264     1
    104    244     1
    107    269     1
    110    241     1
    111    266     1
    112    244     1
    113    269     1
    116    132     1
    116    129     1
    119    123     1
    119    126     1
    122    139     1
    122    136     1
    122    135     1
    123    129     1
    123    138     1
    123    339     1
    126    132     1
    126    137     1
    126    314     1
    129    294     1
    132    319     1
    135    291     1
    136    316     1
    137    294     1
    138    319     1
    141    157     1
    141    154     1
    144    148     1
    144    151     1
    147    164     1
    147    161     1
    147    160     1
    148    154     1
    148    163     1
    148    389     1
    151    157     1
    151    162     1
    151    364     1
    154    344     1
    157    369     1
    160    341     1
    161    366     1
    162    344     1
    163    369     1
    166    182     1
    166    179     1
    169    173     1
    169    176     1
    172    189     1
    172    186     1
    172    185     1
    173    179     1
    173    188     1
    173    439     1
    176    182     1
    176    187     1
    176    414     1
    179    394     1
    182    419     1
    185    391     1
    186    416     1
    187    394     1
    188    419     1
    191    207     1
    191    204     1
    194    198     1
    194    201     1
    197    214     1
    197    211     1
    197    210     1
    198    204     1
    198    213     1
    198    489     1
    201    207     1
    201    212     1
    201    464     1
    204    444     1
    207    469     1
    210    441     1
    211    466     1
    212    444     1
    213    469     1
    216    232     1
    216    229     1
    219    223     1
    219    226     1
    222    239     1
    222    236     1
    222    235     1
    223    229     1
    223    238     1
    223    539     1
    226    232     1
    226    237     1
    226    514     1
    229    494     1
    232    519     1
    235    491     1
    236    516     1
    237    494     1
    238    519     1
    241    257     1
    241    254     1
    244    248     1
    244    251     1
    247    264     1
    247    261     1
    247    260     1
    248    254     1
    248    263     1
    248    589     1
    251    257     1
    251    262     1
    251    564     1
    254    544     1
    257    569     1
    260    541     1
    261    566     1
    262    544     1
    263    569     1
    266    282     1
    266    279     1
    269    273     1
    269    276     1
    272    289     1
    272    286     1
    272    285     1
    273    279     1
    273    288     1
    273    639     1
    276    282     1
    276    287     1
    276    614     1
    279    594     1
    282    619     1
    285    591     1
    286    616     1
    287    594     1
    288    619     1
    291    307     1
    291    304     1
    294    298     1
    294    301     1
    297    314     1
    297    311     1
    297    310     1
    298    304     1
    298    313     1
    298    689     1
    301    307     1
    301    312     1
    301    664     1
    304    644     1
    307    669     1
    310    641     1
    311    666     1
    312    644     1
    313    669     1
    316    332     1
    316    329     1
    319    323     1
    319    326     1
    322    339     1
    322    336     1
    322    335     1
    323    329     1
    323    338     1
    323    739     1
    326    332     1
    326    337     1
    326    714     1
    329    694     1
    332    719     1
    335    691     1
    336    716     1
    337    694     1
    338    719     1
    341    357     1
    341    354     1
    344    348     1
    344    351     1
    347    364     1
    347    361     1
    347    360     1
    348    354     1
    348    363     1
    348    789     1
    351    357     1
    351    362     1
    351    764     1
    354    744     1
    357    769     1
    360    741     1
    361    766     1
    362    744     1
    363    769     1
    366    382     1
    366    379     1
    369    373     1
    369    376     1
    372    389     1
    372    386     1
    372    385     1
    373    379     1
    373    388     1
    373    839     1
    376    382     1
    376    387     1
    376    814     1
    379    794     1
    382    819     1
    385    791     1
    386    816     1
    387    794     1
    388    819     1
    391    407     1
    391    404     1
    394    398     1
    394    401     1
    397    414     1
    397    411     1
    397    410     1
    398    404     1
    398    413     1
    398    889     1
    401    407     1
    401    412     1
    401    864     1
    404    844     1
    407    869     1
    410    841     1
    411    866     1
    412    844     1
    413    869     1
    416    432     1
    416    429     1
    419    423     1
    419    426     1
    422    439     1
    422    436     1
    422    435     1
    423    429     1
    423    438     1
    423    939     1
    426    432     1
    426    437     1
    426    914     1
    429    894     1
    432    919     1
    435    891     1
    436    916     1
    437    894     1
    438    919     1
    441    457     1
    441    454     1
    444    448     1
    444    451     1
    447    464     1
    447    461     1
    447    460     1
    448    454     1
    448    463     1
    448    989     1
    451    457     1
    451    462     1
    451    964     1
    454    944     1
    457    969     1
    460    941     1
    461    966     1
    462    944     1
    463    969     1
    466    482     1
    466    479     1
    469    473     1
    469    476     1
    472    489     1
    472    486     1
    472    485     1
    473    479     1
    473    488     1
    473   1039     1
    476    482     1
    476    487     1
    476   1014     1
    479    994     1
    482   1019     1
    485    991     1
    486   1016     1
    487    994     1
    488   1019     1
    491    507     1
    491    504     1
    494    498     1
    494    501     1
    497    514     1
    497    511     1
    497    510     1
    498    504     1
    498    513     1
    498   1089     1
    501    507     1
    501    512     1
    501   1064     1
    504   1044     1
    507   1069     1
    510   1041     1
    511   1066     1
    512   1044     1
    513   1069     1
    516    532     1
    516    529     1
    519    523     1
    519    526     1
    522    539     1
    522    536     1
    522    535     1
    523    529     1
    523    538     1
    523   1139     1
    526    532     1
    526    537     1
    526   1114     1
    529   1094     1
    532   1119     1
    535   1091     1
    536   1116     1
    537   1094     1
    538   1119     1
    541    557     1
    541    554     1
    544    548     1
    544    551     1
    547    564     1
    547    561     1
    547    560     1
    548    554     1
    548    563     1
    548   1189     1
    551    557     1
    551    562     1
    551   1164     1
    554   1144     1
    557   1169     1
    560   1141     1
    561   1166     1
    562   1144     1
    563   1169     1
    566    582     1
    566    579     1
    569    573     1
    569    576     1
    572    589     1
    572    586     1
    572    585     1
    573    579     1
    573    588     1
    573   1239     1
    576    582     1
    576    587     1
    576   1214     1
    579   1194     1
    582   1219     1
    585   1191     1
    586   1216     1
    587   1194     1
    588   1219     1
    591    607     1
    591    604     1
    594    598     1
    594    601     1
    597    614     1
    597    611     1
    597    610     1
    598    604     1
    598    613     1
    598   1289     1
    601    607     1
    601    612     1
    601   1264     1
    604   1244     1
    607   1269     1
    610   1241     1
    611   1266     1
    612   1244     1
    613   1269     1
    616    632     1
    616    629     1
    619    623     1
    619    626     1
    622    639     1
    622    636     1
    622    635     1
    623    629     1
    623    638     1
    623   1339     1
    626    632     1
    626    637     1
    626   1314     1
    629   1294     1
    632   1319     1
    635   1291     1
    636   1316     1
    637   1294     1
    638   1319     1
    641    657     1
    641    654     1
    644    648     1
    644    651     1
    647    664     1
    647    661     1
    647    660     1
    648    654     1
    648    663     1
    648   1389     1
    651    657     1
    651    662     1
    651   1364     1
    654   1344     1
    657   1369     1
    660   1341     1
    661   1366     1
    662   1344     1
    663   1369     1
    666    682     1
    666    679     1
    669    673     1
    669    676     1
    672    689     1
    672    686     1
    672    685     1
    673    679     1
    673    688     1
    673   1439     1
    676    682     1
    676    687     1
    676   1414     1
    679   1394     1
    682   1419     1
    685   1391     1
    686   1416     1
    687   1394     1
    688   1419     1
    691    707     1
    691    704     1
    694    698     1
    694    701     1
    697    714     1
    697    711     1
    697    710     1
    698    704     1
    698    713     1
    698   1489     1
    701    707     1
    701    712     1
    701   1464     1
    704   1444     1
    707   1469     1
    710   1441     1
    711   1466     1
    712   1444     1
    713   1469     1
    716    732     1
    716    729     1
    719    723     1
    719    726     1
    722    739     1
    722    736     1
    722    735     1
    723    729     1
    723    738     1
    723   1539     1
    726    732     1
    726    737     1
    726   1514     1
    729   1494     1
    732   1519     1
    735   1491     1
    736   1516     1
    737   1494     1
    738   1519     1
    741    757     1
    741    754     1
    744    748     1
    744    751     1
    747    764     1
    747    761     1
    747    760     1
    748    754     1
    748    763     1
    748   1589     1
    751    757     1
    751    762     1
    751   1564     1
    754   1544     1
    757   1569     1
    760   1541     1
    761   1566     1
    762   1544     1
    763   1569     1
    766    782     1
    766    779     1
    769    773     1
    769    776     1
    772    789     1
    772    786     1
    772    785     1
    773    779     1
    773    788     1
    773   1639     1
    776    782     1
    776    787     1
    776   1614     1
    779   1594     1
    782   1619     1
    785   1591     1
    786   1616     1
    787   1594     1
    788   1619     1
    791    807     1
    791    804     1
    794    798     1
    794    801     1
    797    814     1
    797    811     1
    797    810     1
    798    804     1
    798    813     1
    798   1689     1
    801    807     1
    801    812     1
    801   1664     1
    804   1644     1
    807   1669     1
    810   1641     1
    811   1666     1
    812   1644     1
    813   1669     1
    816    832     1
    816    829     1
    819    823     1
    819    826     1
    822    839     1
    822    836     1
    822    835     1
    823    829     1
    823    838     1
    823   1739     1
    826    832     1
    826    837     1
    826   1714     1
    829   1694     1
    832   1719     1
    835   1691     1
    836   1716     1
    837   1694     1
    838   1719     1
    841    857     1
    841    854     1
    844    848     1
    844    851     1
    847    864     1
    847    861     1
    847    860     1
    848    854     1
    848    863     1
    848   1789     1
    851    857     1
    851    862     1
    851   1764     1
    854   1744     1
    857   1769     1
    860   1741     1
    861   1766     1
    862   1744     1
    863   1769     1
    866    882     1
    866    879     1
    869    873     1
    869    876     1
    872    889     1
    872    886     1
    872    885     1
    873    879     1
    873    888     1
    873   1839     1
    876    882     1
    876    887     1
    876   1814     1
    879   1794     1
    882   1819     1
    885   1791     1
    886   1816     1
    887   1794     1
    888   1819     1
    891    907     1
    891    904     1
    894    898     1
    894    901     1
    897    914     1
    897    911     1
    897    910     1
    898    904     1
    898    913     1
    898   1889     1
    901    907     1
    901    912     1
    901   1864     1
    904   1844     1
    907   1869     1
    910   1841     1
    911   1866     1
    912   1844     1
    913   1869     1
    916    932     1
    916    929     1
    919    923     1
    919    926     1
    922    939     1
    922    936     1
    922    935     1
    923    929     1
    923    938     1
    923   1939     1
    926    932     1
    926    937     1
    926   1914     1
    929   1894     1
    932   1919     1
    935   1891     1
    936   1916     1
    937   1894     1
    938   1919     1
    941    957     1
    941    954     1
    944    948     1
    944    951     1
    947    964     1
    947    961     1
    947    960     1
    948    954     1
    948    963     1
    948   1989     1
    951    957     1
    951    962     1
    951   1964     1
    954   1944     1
    957   1969     1
    960   1941     1
    961   1966     1
    962   1944     1
    963   1969     1
    966    982     1
    966    979     1
    969    973     1
    969    976     1
    972    989     1
    972    986     1
    972    985     1
    973    979     1
    973    988     1
    973   2039     1
    976    982     1
    976    987     1
    976   2014     1
    979   1994     1
    982   2019     1
    985   1991     1
    986   2016     1
    987   1994     1
    988   2019     1
    991   1007     1
    991   1004     1
    994    998     1
    994   1001     1
    997   1014     1
    997   1011     1
    997   1010     1
    998   1004     1
    998   1013     1
    998   2089     1
   1001   1007     1
   1001   1012     1
   1001   2064     1
   1004   2044     1
   1007   2069     1
   1010   2041     1
   1011   2066     1
   1012   2044     1
   1013   2069     1
   1016   1032     1
   1016   1029     1
   1019   1023     1
   1019   1026     1
   1022   1039     1
   1022   1036     1
   1022   1035     1
   1023   1029     1
   1023   1038     1
   1023   2139     1
   1026   1032     1
   1026   1037     1
   1026   2114     1
   1029   2094     1
   1032   2119     1
   1035   2091     1
   1036   2116     1
   1037   2094     1
   1038   2119     1
   1041   1057     1
   1041   1054     1
   1044   1048     1
   1044   1051     1
   1047   1064     1
   1047   1061     1
   1047   1060     1
   1048   1054     1
   1048   1063     1
   1048   2189     1
   1051   1057     1
   1051   1062     1
   1051   2164     1
   1054   2144     1
   1057   2169     1
   1060   2141     1
   1061   2166     1
   1062   2144     1
   1063   2169     1
   1066   1082     1
   1066   1079     1
   1069   1073     1
   1069   1076     1
   1072   1089     1
   1072   1086     1
   1072   1085     1
   1073   1079     1
   1073   1088     1
   1073   2239     1
   1076   1082     1
   1076   1087     1
   1076   2214     1
   1079   2194     1
   1082   2219     1
   1085   2191     1
   1086   2216     1
   1087   2194     1
   1088   2219     1
   1091   1107     1
   1091   1104     1
   1094   1098     1
   1094   1101     1
   1097   1114     1
   1097   1111     1
   1097   1110     1
   1098   1104     1
   1098   1113     1
   1098   2289     1
   1101   1107     1
   1101   1112     1
   1101   2264     1
   1104   2244     1
   1107   2269     1
   1110   2241     1
   1111   2266     1
   1112   2244     1
   1113   2269     1
   1116   1132     1
   1116   1129     1
   1119   1123     1
   1119   1126     1
   1122   1139     1
   1122   1136     1
   1122   1135     1
   1123   1129     1
   1123   1138     1
   1123   2339     1
   1126   1132     1
   1126   1137     1
   1126   2314     1
   1129   2294     1
   1132   2319     1
   1135   2291     1
   1136   2316     1
   1137   2294     1
   1138   2319     1
   1141   1157     1
   1141   1154     1
   1144   1148     1
   1144   1151     1
   1147   1164     1
   1147   1161     1
   1147   1160     1
   1148   1154     1
   1148   1163     1
   1148   2389     1
   1151   1157     1
   1151   1162     1
   1151   2364     1
   1154   2344     1
   1157   2369     1
   1160   2341     1
   1161   2366     1
   1162   2344     1
   1163   2369     1
   1166   1182     1
   1166   1179     1
   1169   1173     1
   1169   1176     1
   1172   1189     1
   1172   1186     1
   1172   1185     1
   1173   1179     1
   1173   1188     1
   1173   2439     1
   1176   1182     1
   1176   1187     1
   1176   2414     1
   1179   2394     1
   1182   2419     1
   1185   2391     1
   1186   2416     1
   1187   2394     1
   1188   2419     1
   1191   1207     1
   1191   1204     1
   1194   1198     1
   1194   1201     1
   1197   1214     1
   1197   1211     1
   1197   1210     1
   1198   1204     1
   1198   1213     1
   1198   2489     1
   1201   1207     1
   1201   1212     1
   1201   2464     1
   1204   2444     1
   1207   2469     1
   1210   2441     1
   1211   2466     1
   1212   2444     1
   1213   2469     1
   1216   1232     1
   1216   1229     1
   1219   1223     1
   1219   1226     1
   1222   1239     1
   1222   1236     1
   1222   1235     1
   1223   1229     1
   1223   1238     1
   1223   2539     1
   1226   1232     1
   1226   1237     1
   1226   2514     1
   1229   2494     1
   1232   2519     1
   1235   2491     1
   1236   2516     1
   1237   2494     1
   1238   2519     1
   1241   1257     1
   1241   1254     1
   1244   1248     1
   1244   1251     1
   1247   1264     1
   1247   1261     1
   1247   1260     1
   1248   1254     1
   1248   1263     1
   1248   2589     1
   1251   1257     1
   1251   1262     1
   1251   2564     1
   1254   2544     1
   1257   2569     1
   1260   2541     1
   1261   2566     1
   1262   2544     1
   1263   2569     1
   1266   1282     1
   1266   1279     1
   1269   1273     1
   1269   1276     1
   1272   1289     1
   1272   1286     1
   1272   1285     1
   1273   1279     1
   1273   1288     1
   1273   2639     1
   1276   1282     1
   1276   1287     1
   1276   2614     1
   1279   2594     1
   1282   2619     1
   1285   2591     1
   1286   2616     1
   1287   2594     1
   1288   2619     1
   1291   1307     1
   1291   1304     1
   1294   1298     1
   1294   1301     1
   1297   1314     1
   1297   1311     1
   1297   1310     1
   1298   1304     1
   1298   1313     1
   1298   2689     1
   1301   1307     1
   1301   1312     1
   1301   2664     1
   1304   2644     1
   1307   2669     1
   1310   2641     1
   1311   2666     1
   1312   2644     1
   1313   2669     1
   1316   1332     1
   1316   1329     1
   1319   1323     1
   1319   1326     1
   1322   1339     1
   1322   1336     1
   1322   1335     1
   1323   1329     1
   1323   1338     1
   1323   2739     1
   1326   1332     1
   1326   1337     1
   1326   2714     1
   1329   2694     1
   1332   2719     1
   1335   2691     1
   1336   2716     1
   1337   2694     1
   1338   2719     1
   1341   1357     1
   1341   1354     1
   1344   1348     1
   1344   1351     1
   1347   1364     1
   1347   1361     1
   1347   1360     1
   1348   1354     1
   1348   1363     1
   1348   2789     1
   1351   1357     1
   1351   1362     1
   1351   2764     1
   1354   2744     1
   1357   2769     1
   1360   2741     1
   1361   2766     1
   1362   2744     1
   1363   2769     1
   1366   1382     1
   1366   1379     1
   1369   1373     1
   1369   1376     1
   1372   1389     1
   1372   1386     1
   1372   1385     1
   1373   1379     1
   1373   1388     1
   1373   2839     1
   1376   1382     1
   1376   1387     1
   1376   2814     1
   1379   2794     1
   1382   2819     1
   1385   2791     1
   1386   2816     1
   1387   2794     1
   1388   2819     1
   1391   1407     1
   1391   1404     1
   1394   1398     1
   1394   1401     1
   1397   1414     1
   1397   1411     1
   1397   1410     1
   1398   1404     1
   1398   1413     1
   1398   2889     1
   1401   1407     1
   1401   1412     1
   1401   2864     1
   1404   2844     1
   1407   2869     1
   1410   2841     1
   1411   2866     1
   1412   2844     1
   1413   2869     1
   1416   1432     1
   1416   1429     1
   1419   1423     1
   1419   1426     1
   1422   1439     1
   1422   1436     1
   1422   1435     1
   1423   1429     1
   1423   1438     1
   1423   2939     1
   1426   1432     1
   1426   1437     1
   1426   2914     1
   1429   2894     1
   1432   2919     1
   1435   2891     1
   1436   2916     1
   1437   2894     1
   1438   2919     1
   1441   1457     1
   1441   1454     1
   1444   1448     1
   1444   1451     1
   1447   1464     1
   1447   1461     1
   1447   1460     1
   1448   1454     1
   1448   1463     1
   1448   2989     1
   1451   1457     1
   1451   1462     1
   1451   2964     1
   1454   2944     1
   1457   2969     1
   1460   2941     1
   1461   2966     1
   1462   2944     1
   1463   2969     1
   1466   1482     1
   1466   1479     1
   1469   1473     1
   1469   1476     1
   1472   1489     1
   1472   1486     1
   1472   1485     1
   1473   1479     1
   1473   1488     1
   1473   3039     1
   1476   1482     1
   1476   1487     1
   1476   3014     1
   1479   2994     1
   1482   3019     1
   1485   2991     1
   1486   3016     1
   1487   2994     1
   1488   3019     1
   1491   1507     1
   1491   1504     1
   1494   1498     1
   1494   1501     1
   1497   1514     1
   1497   1511     1
   1497   1510     1
   1498   1504     1
   1498   1513     1
   1498   3089     1
   1501   1507     1
   1501   1512     1
   1501   3064     1
   1504   3044     1
   1507   3069     1
   1510   3041     1
   1511   3066     1
   1512   3044     1
   1513   3069     1
   1516   1532     1
   1516   1529     1
   1519   1523     1
   1519   1526     1
   1522   1539     1
   1522   1536     1
   1522   1535     1
   1523   1529     1
   1523   1538     1
   1523   3139     1
   1526   1532     1
   1526   1537     1
   1526   3114     1
   1529   3094     1
   1532   3119     1
   1535   3091     1
   1536   3116     1
   1537   3094     1
   1538   3119     1
   1541   1557     1
   1541   1554     1
   1544   1548     1
   1544   1551     1
   1547   1564     1
   1547   1561     1
   1547   1560     1
   1548   1554     1
   1548   1563     1
   1548   3161     1
   1551   1557     1
   1551   3150     1
   1551   1562     1
   1554   3141     1
   1557   3152     1
   1560   3144     1
   1561   3155     1
   1562   3141     1
   1563   3152     1
   1566   1582     1
   1566   1579     1
   1569   1573     1
   1569   1576     1
   1572   1589     1
   1572   1586     1
   1572   1585     1
   1573   1579     1
   1573   1588     1
   1573   3183     1
   1576   1582     1
   1576   3172     1
   1576   1587     1
   1579   3163     1
   1582   3174     1
   1585   3166     1
   1586   3177     1
   1587   3163     1
   1588   3174     1
   1591   1607     1
   1591   1604     1
   1594   1598     1
   1594   1601     1
   1597   1614     1
   1597   1611     1
   1597   1610     1
   1598   1604     1
   1598   1613     1
   1598   3205     1
   1601   1607     1
   1601   3194     1
   1601   1612     1
   1604   3185     1
   1607   3196     1
   1610   3188     1
   1611   3199     1
   1612   3185     1
   1613   3196     1
   1616   1632     1
   1616   1629     1
   1619   1623     1
   1619   1626     1
   1622   1639     1
   1622   1636     1
   1622   1635     1
   1623   1629     1
   1623   1638     1
   1623   3227     1
   1626   1632     1
   1626   3216     1
   1626   1637     1
   1629   3207     1
   1632   3218     1
   1635   3210     1
   1636   3221     1
   1637   3207     1
   1638   3218     1
   1641   1657     1
   1641   1654     1
   1644   1648     1
   1644   1651     1
   1647   1664     1
   1647   1661     1
   1647   1660     1
   1648   1654     1
   1648   1663     1
   1648   3249     1
   1651   1657     1
   1651   3238     1
   1651   1662     1
   1654   3229     1
   1657   3240     1
   1660   3232     1
   1661   3243     1
   1662   3229     1
   1663   3240     1
   1666   1682     1
   1666   1679     1
   1669   1673     1
   1669   1676     1
   1672   1689     1
   1672   1686     1
   1672   1685     1
   1673   1679     1
   1673   1688     1
   1673   3271     1
   1676   1682     1
   1676   3260     1
   1676   1687     1
   1679   3251     1
   1682   3262     1
   1685   3254     1
   1686   3265     1
   1687   3251     1
   1688   3262     1
   1691   1707     1
   1691   1704     1
   1694   1698     1
   1694   1701     1
   1697   1714     1
   1697   1711     1
   1697   1710     1
   1698   1704     1
   1698   1713     1
   1698   3293     1
   1701   1707     1
   1701   3282     1
   1701   1712     1
   1704   3273     1
   1707   3284     1
   1710   3276     1
   1711   3287     1
   1712   3273     1
   1713   3284     1
   1716   1732     1
   1716   1729     1
   1719   1723     1
   1719   1726     1
   1722   1739     1
   1722   1736     1
   1722   1735     1
   1723   1729     1
   1723   1738     1
   1723   3315     1
   1726   1732     1
   1726   3304     1
   1726   1737     1
   1729   3295     1
   1732   3306     1
   1735   3298     1
   1736   3309     1
   1737   3295     1
   1738   3306     1
   1741   1757     1
   1741   1754     1
   1744   1748     1
   1744   1751     1
   1747   1764     1
   1747   1761     1
   1747   1760     1
   1748   1754     1
   1748   1763     1
   1748   3337     1
   1751   1757     1
   1751   3326     1
   1751   1762     1
   1754   3317     1
   1757   3328     1
   1760   3320     1
   1761   3331     1
   1762   3317     1
   1763   3328     1
   1766   1782     1
   1766   1779     1
   1769   1773     1
   1769   1776     1
   1772   1789     1
   1772   1786     1
   1772   1785     1
   1773   1779     1
   1773   1788     1
   1773   3359     1
   1776   1782     1
   1776   3348     1
   1776   1787     1
   1779   3339     1
   1782   3350     1
   1785   3342     1
   1786   3353     1
   1787   3339     1
   1788   3350     1
   1791   1807     1
   1791   1804     1
   1794   1798     1
   1794   1801     1
   1797   1814     1
   1797   1811     1
   1797   1810     1
   1798   1804     1
   1798   1813     1
   1798   3381     1
   1801   1807     1
   1801   3370     1
   1801   1812     1
   1804   3361     1
   1807   3372     1
   1810   3364     1
   1811   3375     1
   1812   3361     1
   1813   3372     1
   1816   1832     1
   1816   1829     1
   1819   1823     1
   1819   1826     1
   1822   1839     1
   1822   1836     1
   1822   1835     1
   1823   1829     1
   1823   1838     1
   1823   3403     1
   1826   1832     1
   1826   3392     1
   1826   1837     1
   1829   3383     1
   1832   3394     1
   1835   3386     1
   1836   3397     1
   1837   3383     1
   1838   3394     1
   1841   1857     1
   1841   1854     1
   1844   1848     1
   1844   1851     1
   1847   1864     1
   1847   1861     1
   1847   1860     1
   1848   1854     1
   1848   1863     1
   1848   3425     1
   1851   1857     1
   1851   3414     1
   1851   1862     1
   1854   3405     1
   1857   3416     1
   1860   3408     1
   1861   3419     1
   1862   3405     1
   1863   3416     1
   1866   1882     1
   1866   1879     1
   1869   1873     1
   1869   1876     1
   1872   1889     1
   1872   1886     1
   1872   1885     1
   1873   1879     1
   1873   1888     1
   1873   3447     1
   1876   1882     1
   1876   3436     1
   1876   1887     1
   1879   3427     1
   1882   3438     1
   1885   3430     1
   1886   3441     1
   1887   3427     1
   1888   3438     1
   1891   1907     1
   1891   1904     1
   1894   1898     1
   1894   1901     1
   1897   1914     1
   1897   1911     1
   1897   1910     1
   1898   1904     1
   1898   1913     1
   1898   3469     1
   1901   1907     1
   1901   3458     1
   1901   1912     1
   1904   3449     1
   1907   3460     1
   1910   3452     1
   1911   3463     1
   1912   3449     1
   1913   3460     1
   1916   1932     1
   1916   1929     1
   1919   1923     1
   1919   1926     1
   1922   1939     1
   1922   1936     1
   1922   1935     1
   1923   1929     1
   1923   1938     1
   1923   3491     1
   1926   1932     1
   1926   3480     1
   1926   1937     1
   1929   3471     1
   1932   3482     1
   1935   3474     1
   1936   3485     1
   1937   3471     1
   1938   3482     1
   1941   1957     1
   1941   1954     1
   1944   1948     1
   1944   1951     1
   1947   1964     1
   1947   1961     1
   1947   1960     1
   1948   1954     1
   1948   1963     1
   1948   3513     1
   1951   1957     1
   1951   3502     1
   1951   1962     1
   1954   3493     1
   1957   3504     1
   1960   3496     1
   1961   3507     1
   1962   3493     1
   1963   3504     1
   1966   1982     1
   1966   1979     1
   1969   1973     1
   1969   1976     1
   1972   1989     1
   1972   1986     1
   1972   1985     1
   1973   1979     1
   1973   1988     1
   1973   3535     1
   1976   1982     1
   1976   3524     1
   1976   1987     1
   1979   3515     1
   1982   3526     1
   1985   3518     1
   1986   3529     1
   1987   3515     1
   1988   3526     1
   1991   2007     1
   1991   2004     1
   1994   1998     1
   1994   2001     1
   1997   2014     1
   1997   2011     1
   1997   2010     1
   1998   2004     1
   1998   2013     1
   1998   3557     1
   2001   2007     1
   2001   3546     1
   2001   2012     1
   2004   3537     1
   2007   3548     1
   2010   3540     1
   2011   3551     1
   2012   3537     1
   2013   3548     1
   2016   2032     1
   2016   2029     1
   2019   2023     1
   2019   2026     1
   2022   2039     1
   2022   2036     1
   2022   2035     1
   2023   2029     1
   2023   2038     1
   2023   3579     1
   2026   2032     1
   2026   3568     1
   2026   2037     1
   2029   3559     1
   2032   3570     1
   2035   3562     1
   2036   3573     1
   2037   3559     1
   2038   3570     1
   2041   2057     1
   2041   2054     1
   2044   2048     1
   2044   2051     1
   2047   2064     1
   2047   2061     1
   2047   2060     1
   2048   2054     1
   2048   2063     1
   2048   3601     1
   2051   2057     1
   2051   3590     1
   2051   2062     1
   2054   3581     1
   2057   3592     1
   2060   3584     1
   2061   3595     1
   2062   3581     1
   2063   3592     1
   2066   2082     1
   2066   2079     1
   2069   2073     1
   2069   2076     1
   2072   2089     1
   2072   2086     1
   2072   2085     1
   2073   2079     1
   2073   2088     1
   2073   3623     1
   2076   2082     1
   2076   3612     1
   2076   2087     1
   2079   3603     1
   2082   3614     1
   2085   3606     1
   2086   3617     1
   2087   3603     1
   2088   3614     1
   2091   2107     1
   2091   2104     1
   2094   2098     1
   2094   2101     1
   2097   2114     1
   2097   2111     1
   2097   2110     1
   2098   2104     1
   2098   2113     1
   2098   3645     1
   2101   2107     1
   2101   3634     1
   2101   2112     1
   2104   3625     1
   2107   3636     1
   2110   3628     1
   2111   3639     1
   2112   3625     1
   2113   3636     1
   2116   2132     1
   2116   2129     1
   2119   2123     1
   2119   2126     1
   2122   2139     1
   2122   2136     1
   2122   2135     1
   2123   2129     1
   2123   2138     1
   2123   3667     1
   2126   2132     1
   2126   3656     1
   2126   2137     1
   2129   3647     1
   2132   3658     1
   2135   3650     1
   2136   3661     1
   2137   3647     1
   2138   3658     1
   2141   2157     1
   2141   2154     1
   2144   2148     1
   2144   2151     1
   2147   2164     1
   2147   2161     1
   2147   2160     1
   2148   2154     1
   2148   2163     1
   2148   3689     1
   2151   2157     1
   2151   3678     1
   2151   2162     1
   2154   3669     1
   2157   3680     1
   2160   3672     1
   2161   3683     1
   2162   3669     1
   2163   3680     1
   2166   2182     1
   2166   2179     1
   2169   2173     1
   2169   2176     1
   2172   2189     1
   2172   2186     1
   2172   2185     1
   2173   2179     1
   2173   2188     1
   2173   3711     1
   2176   2182     1
   2176   3700     1
   2176   2187     1
   2179   3691     1
   2182   3702     1
   2185   3694     1
   2186   3705     1
   2187   3691     1
   2188   3702     1
   2191   2207     1
   2191   2204     1
   2194   2198     1
   2194   2201     1
   2197   2214     1
   2197   2211     1
   2197   2210     1
   2198   2204     1
   2198   2213     1
   2198   3733     1
   2201   2207     1
   2201   3722     1
   2201   2212     1
   2204   3713     1
   2207   3724     1
   2210   3716     1
   2211   3727     1
   2212   3713     1
   2213   3724     1
   2216   2232     1
   2216   2229     1
   2219   2223     1
   2219   2226     1
   2222   2239     1
   2222   2236     1
   2222   2235     1
   2223   2229     1
   2223   2238     1
   2223   3755     1
   2226   2232     1
   2226   3744     1
   2226   2237     1
   2229   3735     1
   2232   3746     1
   2235   3738     1
   2236   3749     1
   2237   3735     1
   2238   3746     1
   2241   2257     1
   2241   2254     1
   2244   2248     1
   2244   2251     1
   2247   2264     1
   2247   2261     1
   2247   2260     1
   2248   2254     1
   2248   2263     1
   2248   3777     1
   2251   2257     1
   2251   3766     1
   2251   2262     1
   2254   3757     1
   2257   3768     1
   2260   3760     1
   2261   3771     1
   2262   3757     1
   2263   3768     1
   2266   2282     1
   2266   2279     1
   2269   2273     1
   2269   2276     1
   2272   2289     1
   2272   2286     1
   2272   2285     1
   2273   2279     1
   2273   2288     1
   2273   3799     1
   2276   2282     1
   2276   3788     1
   2276   2287     1
   2279   3779     1
   2282   3790     1
   2285   3782     1
   2286   3793     1
   2287   3779     1
   2288   3790     1
   2291   2307     1
   2291   2304     1
   2294   2298     1
   2294   2301     1
   2297   2314     1
   2297   2311     1
   2297   2310     1
   2298   2304     1
   2298   2313     1
   2298   3821     1
   2301   2307     1
   2301   3810     1
   2301   2312     1
   2304   3801     1
   2307   3812     1
   2310   3804     1
   2311   3815     1
   2312   3801     1
   2313   3812     1
   2316   2332     1
   2316   2329     1
   2319   2323     1
   2319   2326     1
   2322   2339     1
   2322   2336     1
   2322   2335     1
   2323   2329     1
   2323   2338     1
   2323   3843     1
   2326   2332     1
   2326   3832     1
   2326   2337     1
   2329   3823     1
   2332   3834     1
   2335   3826     1
   2336   3837     1
   2337   3823     1
   2338   3834     1
   2341   2357     1
   2341   2354     1
   2344   2348     1
   2344   2351     1
   2347   2364     1
   2347   2361     1
   2347   2360     1
   2348   2354     1
   2348   2363     1
   2348   3865     1
   2351   2357     1
   2351   3854     1
   2351   2362     1
   2354   3845     1
   2357   3856     1
   2360   3848     1
   2361   3859     1
   2362   3845     1
   2363   3856     1
   2366   2382     1
   2366   2379     1
   2369   2373     1
   2369   2376     1
   2372   2389     1
   2372   2386     1
   2372   2385     1
   2373   2379     1
   2373   2388     1
   2373   3887     1
   2376   2382     1
   2376   3876     1
   2376   2387     1
   2379   3867     1
   2382   3878     1
   2385   3870     1
   2386   3881     1
   2387   3867     1
   2388   3878     1
   2391   2407     1
   2391   2404     1
   2394   2398     1
   2394   2401     1
   2397   2414     1
   2397   2411     1
   2397   2410     1
   2398   2404     1
   2398   2413     1
   2398   3909     1
   2401   2407     1
   2401   3898     1
   2401   2412     1
   2404   3889     1
   2407   3900     1
   2410   3892     1
   2411   3903     1
   2412   3889     1
   2413   3900     1
   2416   2432     1
   2416   2429     1
   2419   2423     1
   2419   2426     1
   2422   2439     1
   2422   2436     1
   2422   2435     1
   2423   2429     1
   2423   2438     1
   2423   3931     1
   2426   2432     1
   2426   3920     1
   2426   2437     1
   2429   3911     1
   2432   3922     1
   2435   3914     1
   2436   3925     1
   2437   3911     1
   2438   3922     1
   2441   2457     1
   2441   2454     1
   2444   2448     1
   2444   2451     1
   2447   2464     1
   2447   2461     1
   2447   2460     1
   2448   2454     1
   2448   2463     1
   2448   3953     1
   2451   2457     1
   2451   3942     1
   2451   2462     1
   2454   3933     1
   2457   3944     1
   2460   3936     1
   2461   3947     1
   2462   3933     1
   2463   3944     1
   2466   2482     1
   2466   2479     1
   2469   2473     1
   2469   2476     1
   2472   2489     1
   2472   2486     1
   2472   2485     1
   2473   2479     1
   2473   2488     1
   2473   3975     1
   2476   2482     1
   2476   3964     1
   2476   2487     1
   2479   3955     1
   2482   3966     1
   2485   3958     1
   2486   3969     1
   2487   3955     1
   2488   3966     1
   2491   2507     1
   2491   2504     1
   2494   2498     1
   2494   2501     1
   2497   2514     1
   2497   2511     1
   2497   2510     1
   2498   2504     1
   2498   2513     1
   2498   3997     1
   2501   2507     1
   2501   3986     1
   2501   2512     1
   2504   3977     1
   2507   3988     1
   2510   3980     1
   2511   3991     1
   2512   3977     1
   2513   3988     1
   2516   2532     1
   2516   2529     1
   2519   2523     1
   2519   2526     1
   2522   2539     1
   2522   2536     1
   2522   2535     1
   2523   2529     1
   2523   2538     1
   2523   4019     1
   2526   2532     1
   2526   4008     1
   2526   2537     1
   2529   3999     1
   2532   4010     1
   2535   4002     1
   2536   4013     1
   2537   3999     1
   2538   4010     1
   2541   2557     1
   2541   2554     1
   2544   2548     1
   2544   2551     1
   2547   2564     1
   2547   2561     1
   2547   2560     1
   2548   2554     1
   2548   2563     1
   2548   4041     1
   2551   2557     1
   2551   4030     1
   2551   2562     1
   2554   4021     1
   2557   4032     1
   2560   4024     1
   2561   4035     1
   2562   4021     1
   2563   4032     1
   2566   2582     1
   2566   2579     1
   2569   2573     1
   2569   2576     1
   2572   2589     1
   2572   2586     1
   2572   2585     1
   2573   2579     1
   2573   2588     1
   2573   4063     1
   2576   2582     1
   2576   4052     1
   2576   2587     1
   2579   4043     1
   2582   4054     1
   2585   4046     1
   2586   4057     1
   2587   4043     1
   2588   4054     1
   2591   2607     1
   2591   2604     1
   2594   2598     1
   2594   2601     1
   2597   2614     1
   2597   2611     1
   2597   2610     1
   2598   2604     1
   2598   2613     1
   2598   4085     1
   2601   2607     1
   2601   4074     1
   2601   2612     1
   2604   4065     1
   2607   4076     1
   2610   4068     1
   2611   4079     1
   2612   4065     1
   2613   4076     1
   2616   2632     1
   2616   2629     1
   2619   2623     1
   2619   2626     1
   2622   2639     1
   2622   2636     1
   2622   2635     1
   2623   2629     1
   2623   2638     1
   2623   4107     1
   2626   2632     1
   2626   4096     1
   2626   2637     1
   2629   4087     1
   2632   4098     1
   2635   4090     1
   2636   4101     1
   2637   4087     1
   2638   4098     1
   2641   2657     1
   2641   2654     1
   2644   2648     1
   2644   2651     1
   2647   2664     1
   2647   2661     1
   2647   2660     1
   2648   2654     1
   2648   2663     1
   2648   4129     1
   2651   2657     1
   2651   4118     1
   2651   2662     1
   2654   4109     1
   2657   4120     1
   2660   4112     1
   2661   4123     1
   2662   4109     1
   2663   4120     1
   2666   2682     1
   2666   2679     1
   2669   2673     1
   2669   2676     1
   2672   2689     1
   2672   2686     1
   2672   2685     1
   2673   2679     1
   2673   2688     1
   2673   4151     1
   2676   2682     1
   2676   4140     1
   2676   2687     1
   2679   4131     1
   2682   4142     1
   2685   4134     1
   2686   4145     1
   2687   4131     1
   2688   4142     1
   2691   2707     1
   2691   2704     1
   2694   2698     1
   2694   2701     1
   2697   2714     1
   2697   2711     1
   2697   2710     1
   2698   2704     1
   2698   2713     1
   2698   4173     1
   2701   2707     1
   2701   4162     1
   2701   2712     1
   2704   4153     1
   2707   4164     1
   2710   4156     1
   2711   4167     1
   2712   4153     1
   2713   4164     1
   2716   2732     1
   2716   2729     1
   2719   2723     1
   2719   2726     1
   2722   2739     1
   2722   2736     1
   2722   2735     1
   2723   2729     1
   2723   2738     1
   2723   4195     1
   2726   2732     1
   2726   4184     1
   2726   2737     1
   2729   4175     1
   2732   4186     1
   2735   4178     1
   2736   4189     1
   2737   4175     1
   2738   4186     1
   2741   2757     1
   2741   2754     1
   2744   2748     1
   2744   2751     1
   2747   2764     1
   2747   2761     1
   2747   2760     1
   2748   2754     1
   2748   2763     1
   2748   4217     1
   2751   2757     1
   2751   4206     1
   2751   2762     1
   2754   4197     1
   2757   4208     1
   2760   4200     1
   2761   4211     1
   2762   4197     1
   2763   4208     1
   2766   2782     1
   2766   2779     1
   2769   2773     1
   2769   2776     1
   2772   2789     1
   2772   2786     1
   2772   2785     1
   2773   2779     1
   2773   2788     1
   2773   4239     1
   2776   2782     1
   2776   4228     1
   2776   2787     1
   2779   4219     1
   2782   4230     1
   2785   4222     1
   2786   4233     1
   2787   4219     1
   2788   4230     1
   2791   2807     1
   2791   2804     1
   2794   2798     1
   2794   2801     1
   2797   2814     1
   2797   2811     1
   2797   2810     1
   2798   2804     1
   2798   2813     1
   2798   4261     1
   2801   2807     1
   2801   4250     1
   2801   2812     1
   2804   4241     1
   2807   4252     1
   2810   4244     1
   2811   4255     1
   2812   4241     1
   2813   4252     1
   2816   2832     1
   2816   2829     1
   2819   2823     1
   2819   2826     1
   2822   2839     1
   2822   2836     1
   2822   2835     1
   2823   2829     1
   2823   2838     1
   2823   4283     1
   2826   2832     1
   2826   4272     1
   2826   2837     1
   2829   4263     1
   2832   4274     1
   2835   4266     1
   2836   4277     1
   2837   4263     1
   2838   4274     1
   2841   2857     1
   2841   2854     1
   2844   2848     1
   2844   2851     1
   2847   2864     1
   2847   2861     1
   2847   2860     1
   2848   2854     1
   2848   2863     1
   2848   4305     1
   2851   2857     1
   2851   4294     1
   2851   2862     1
   2854   4285     1
   2857   4296     1
   2860   4288     1
   2861   4299     1
   2862   4285     1
   2863   4296     1
   2866   2882     1
   2866   2879     1
   2869   2873     1
   2869   2876     1
   2872   2889     1
   2872   2886     1
   2872   2885     1
   2873   2879     1
   2873   2888     1
   2873   4327     1
   2876   2882     1
   2876   4316     1
   2876   2887     1
   2879   4307     1
   2882   4318     1
   2885   4310     1
   2886   4321     1
   2887   4307     1
   2888   4318     1
   2891   2907     1
   2891   2904     1
   2894   2898     1
   2894   2901     1
   2897   2914     1
   2897   2911     1
   2897   2910     1
   2898   2904     1
   2898   2913     1
   2898   4349     1
   2901   2907     1
   2901   4338     1
   2901   2912     1
   2904   4329     1
   2907   4340     1
   2910   4332     1
   2911   4343     1
   2912   4329     1
   2913   4340     1
   2916   2932     1
   2916   2929     1
   2919   2923     1
   2919   2926     1
   2922   2939     1
   2922   2936     1
   2922   2935     1
   2923   2929     1
   2923   2938     1
   2923   4371     1
   2926   2932     1
   2926   4360     1
   2926   2937     1
   2929   4351     1
   2932   4362     1
   2935   4354     1
   2936   4365     1
   2937   4351     1
   2938   4362     1
   2941   2957     1
   2941   2954     1
   2944   2948     1
   2944   2951     1
   2947   2964     1
   2947   2961     1
   2947   2960     1
   2948   2954     1
   2948   2963     1
   2948   4393     1
   2951   2957     1
   2951   4382     1
   2951   2962     1
   2954   4373     1
   2957   4384     1
   2960   4376     1
   2961   4387     1
   2962   4373     1
   2963   4384     1
   2966   2982     1
   2966   2979     1
   2969   2973     1
   2969   2976     1
   2972   2989     1
   2972   2986     1
   2972   2985     1
   2973   2979     1
   2973   2988     1
   2973   4415     1
   2976   2982     1
   2976   4404     1
   2976   2987     1
   2979   4395     1
   2982   4406     1
   2985   4398     1
   2986   4409     1
   2987   4395     1
   2988   4406     1
   2991   3007     1
   2991   3004     1
   2994   2998     1
   2994   3001     1
   2997   3014     1
   2997   3011     1
   2997   3010     1
   2998   3004     1
   2998   3013     1
   2998   4437     1
   3001   3007     1
   3001   4426     1
   3001   3012     1
   3004   4417     1
   3007   4428     1
   3010   4420     1
   3011   4431     1
   3012   4417     1
   3013   4428     1
   3016   3032     1
   3016   3029     1
   3019   3023     1
   3019   3026     1
   3022   3039     1
   3022   3036     1
   3022   3035     1
   3023   3029     1
   3023   3038     1
   3023   4459     1
   3026   3032     1
   3026   4448     1
   3026   3037     1
   3029   4439     1
   3032   4450     1
   3035   4442     1
   3036   4453     1
   3037   4439     1
   3038   4450     1
   3041   3057     1
   3041   3054     1
   3044   3048     1
   3044   3051     1
   3047   3064     1
   3047   3061     1
   3047   3060     1
   3048   3054     1
   3048   3063     1
   3048   4481     1
   3051   3057     1
   3051   4470     1
   3051   3062     1
   3054   4461     1
   3057   4472     1
   3060   4464     1
   3061   4475     1
   3062   4461     1
   3063   4472     1
   3066   3082     1
   3066   3079     1
   3069   3073     1
   3069   3076     1
   3072   3089     1
   3072   3086     1
   3072   3085     1
   3073   3079     1
   3073   3088     1
   3073   4503     1
   3076   3082     1
   3076   4492     1
   3076   3087     1
   3079   4483     1
   3082   4494     1
   3085   4486     1
   3086   4497     1
   3087   4483     1
   3088   4494     1
   3091   3107     1
   3091   3104     1
   3094   3098     1
   3094   3101     1
   3097   3114     1
   3097   3111     1
   3097   3110     1
   3098   3104     1
   3098   3113     1
   3098   4525     1
   3101   3107     1
   3101   4514     1
   3101   3112     1
   3104   4505     1
   3107   4516     1
   3110   4508     1
   3111   4519     1
   3112   4505     1
   3113   4516     1
   3116   3132     1
   3116   3129     1
   3119   3123     1
   3119   3126     1
   3122   3139     1
   3122   3136     1
   3122   3135     1
   3123   3129     1
   3123   4547     1
   3123   3138     1
   3126   3132     1
   3126   4536     1
   3126   3137     1
   3129   4527     1
   3132   4538     1
   3135   4530     1
   3136   4541     1
   3137   4527     1
   3138   4538     1
   3147   3150     1
   3158   3161     1
   3169   3172     1
   3180   3183     1
   3191   3194     1
   3202   3205     1
   3213   3216     1
   3224   3227     1
   3235   3238     1
   3246   3249     1
   3257   3260     1
   3268   3271     1
   3279   3282     1
   3290   3293     1
   3301   3304     1
   3312   3315     1
   3323   3326     1
   3334   3337     1
   3345   3348     1
   3356   3359     1
   3367   3370     1
   3378   3381     1
   3389   3392     1
   3400   3403     1
   3411   3414     1
   3422   3425     1
   3433   3436     1
   3444   3447     1
   3455   3458     1
   3466   3469     1
   3477   3480     1
   3488   3491     1
   3499   3502     1
   3510   3513     1
   3521   3524     1
   3532   3535     1
   3543   3546     1
   3554   3557     1
   3565   3568     1
   3576   3579     1
   3587   3590     1
   3598   3601     1
   3609   3612     1
   3620   3623     1
   3631   3634     1
   3642   3645     1
   3653   3656     1
   3664   3667     1
   3675   3678     1
   3686   3689     1
   3697   3700     1
   3708   3711     1
   3719   3722     1
   3730   3733     1
   3741   3744     1
   3752   3755     1
   3763   3766     1
   3774   3777     1
   3785   3788     1
   3796   3799     1
   3807   3810     1
   3818   3821     1
   3829   3832     1
   3840   3843     1
   3851   3854     1
   3862   3865     1
   3873   3876     1
   3884   3887     1
   3895   3898     1
   3906   3909     1
   3917   3920     1
   3928   3931     1
   3939   3942     1
   3950   3953     1
   3961   3964     1
   3972   3975     1
   3983   3986     1
   3994   3997     1
   4005   4008     1
   4016   4019     1
   4027   4030     1
   4038   4041     1
   4049   4052     1
   4060   4063     1
   4071   4074     1
   4082   4085     1
   4093   4096     1
   4104   4107     1
   4115   4118     1
   4126   4129     1
   4137   4140     1
   4148   4151     1
   4159   4162     1
   4170   4173     1
   4181   4184     1
   4192   4195     1
   4203   4206     1
   4214   4217     1
   4225   4228     1
   4236   4239     1
   4247   4250     1
   4258   4261     1
   4269   4272     1
   4280   4283     1
   4291   4294     1
   4302   4305     1
   4313   4316     1
   4324   4327     1
   4335   4338     1
   4346   4349     1
   4357   4360     1
   4368   4371     1
   4379   4382     1
   4390   4393     1
   4401   4404     1
   4412   4415     1
   4423   4426     1
   4434   4437     1
   4445   4448     1
   4456   4459     1
   4467   4470     1
   4478   4481     1
   4489   4492     1
   4500   4503     1
   4511   4514     1
   4522   4525     1
   4533   4536     1
   4544   4547     1
      1     10     1
      1     11     1
      1     13     1
      1     14     1
      2      7     1
      2      5     1
      2      6     1
      2      9     1
      2     12     1
      3      7     1
      3      5     1
      3      6     1
      3      9     1
      3     12     1
      4     16     1
      4     17     1
      4     19     1
      4     20     1
      8      5     1
      5     15     1
      5     18     1
      8      6     1
      6     15     1
      6     18     1
      7     22     1
      7     23     1
      7     25     1
      7     26     1
      8     31     1
      8     32     1
      8     28     1
      8     29     1
      9     13     1
      9     14     1
     10     12     1
     10     34     1
     10     31     1
     10     32     1
     11     12     1
     11     34     1
     11     31     1
     11     32     1
     13     33     1
     13     28     1
     13     29     1
     14     33     1
     14     28     1
     14     29     1
     15     19     1
     15     20     1
     16     18     1
     16     35     1
     16     22     1
     16     23     1
     17     18     1
     17     35     1
     17     22     1
     17     23     1
     19     36     1
     19     25     1
     19     26     1
     20     36     1
     20     25     1
     20     26     1
     21    115     1
     22     38     1
     22    114     1
     23     38     1
     23    114     1
     24    140     1
     25     39     1
     25    139     1
     26     39     1
     26    139     1
     27     65     1
     28     37     1
     28     64     1
     29     37     1
     29     64     1
     30     90     1
     31     40     1
     31     89     1
     32     40     1
     32     89     1
     33     45     1
     33     46     1
     34     70     1
     34     71     1
     35     95     1
     35     96     1
     36    120     1
     36    121     1
     37     65     1
     38    115     1
     39    140     1
     40     90     1
     41     65     1
     41     49     1
     41     50     1
     41     52     1
     41     53     1
     42     64     1
     42     45     1
     42     46     1
     42     48     1
     42     51     1
     43     64     1
     43     45     1
     43     46     1
     43     48     1
     43     51     1
     45     47     1
     45     65     1
     46     47     1
     46     65     1
     47     58     1
     47     59     1
     47     55     1
     47     56     1
     48     52     1
     48     53     1
     49     51     1
     49     61     1
     49     58     1
     49     59     1
     50     51     1
     50     61     1
     50     58     1
     50     59     1
     52     60     1
     52     55     1
     52     56     1
     53     60     1
     53     55     1
     53     56     1
     54    165     1
     55     62     1
     55    164     1
     56     62     1
     56    164     1
     57    190     1
     58     63     1
     58    189     1
     59     63     1
     59    189     1
     60    145     1
     60    146     1
     61    170     1
     61    171     1
     62    165     1
     63    190     1
     66     90     1
     66     74     1
     66     75     1
     66     77     1
     66     78     1
     67     89     1
     67     70     1
     67     71     1
     67     73     1
     67     76     1
     68     89     1
     68     70     1
     68     71     1
     68     73     1
     68     76     1
     70     72     1
     70     90     1
     71     72     1
     71     90     1
     72     83     1
     72     84     1
     72     80     1
     72     81     1
     73     77     1
     73     78     1
     74     76     1
     74     86     1
     74     83     1
     74     84     1
     75     76     1
     75     86     1
     75     83     1
     75     84     1
     77     85     1
     77     80     1
     77     81     1
     78     85     1
     78     80     1
     78     81     1
     79    215     1
     80     87     1
     80    214     1
     81     87     1
     81    214     1
     82    240     1
     83     88     1
     83    239     1
     84     88     1
     84    239     1
     85    195     1
     85    196     1
     86    220     1
     86    221     1
     87    215     1
     88    240     1
     91    115     1
     91     99     1
     91    100     1
     91    102     1
     91    103     1
     92    114     1
     92     95     1
     92     96     1
     92     98     1
     92    101     1
     93    114     1
     93     95     1
     93     96     1
     93     98     1
     93    101     1
     95     97     1
     95    115     1
     96     97     1
     96    115     1
     97    108     1
     97    109     1
     97    105     1
     97    106     1
     98    102     1
     98    103     1
     99    101     1
     99    111     1
     99    108     1
     99    109     1
    100    101     1
    100    111     1
    100    108     1
    100    109     1
    102    110     1
    102    105     1
    102    106     1
    103    110     1
    103    105     1
    103    106     1
    104    265     1
    105    112     1
    105    264     1
    106    112     1
    106    264     1
    107    290     1
    108    113     1
    108    289     1
    109    113     1
    109    289     1
    110    245     1
    110    246     1
    111    270     1
    111    271     1
    112    265     1
    113    290     1
    116    140     1
    116    124     1
    116    125     1
    116    127     1
    116    128     1
    117    139     1
    117    120     1
    117    121     1
    117    123     1
    117    126     1
    118    139     1
    118    120     1
    118    121     1
    118    123     1
    118    126     1
    120    122     1
    120    140     1
    121    122     1
    121    140     1
    122    133     1
    122    134     1
    122    130     1
    122    131     1
    123    127     1
    123    128     1
    124    126     1
    124    136     1
    124    133     1
    124    134     1
    125    126     1
    125    136     1
    125    133     1
    125    134     1
    127    135     1
    127    130     1
    127    131     1
    128    135     1
    128    130     1
    128    131     1
    129    315     1
    130    137     1
    130    314     1
    131    137     1
    131    314     1
    132    340     1
    133    138     1
    133    339     1
    134    138     1
    134    339     1
    135    295     1
    135    296     1
    136    320     1
    136    321     1
    137    315     1
    138    340     1
    141    165     1
    141    149     1
    141    150     1
    141    152     1
    141    153     1
    142    164     1
    142    145     1
    142    146     1
    142    148     1
    142    151     1
    143    164     1
    143    145     1
    143    146     1
    143    148     1
    143    151     1
    145    147     1
    145    165     1
    146    147     1
    146    165     1
    147    158     1
    147    159     1
    147    155     1
    147    156     1
    148    152     1
    148    153     1
    149    151     1
    149    161     1
    149    158     1
    149    159     1
    150    151     1
    150    161     1
    150    158     1
    150    159     1
    152    160     1
    152    155     1
    152    156     1
    153    160     1
    153    155     1
    153    156     1
    154    365     1
    155    162     1
    155    364     1
    156    162     1
    156    364     1
    157    390     1
    158    163     1
    158    389     1
    159    163     1
    159    389     1
    160    345     1
    160    346     1
    161    370     1
    161    371     1
    162    365     1
    163    390     1
    166    190     1
    166    174     1
    166    175     1
    166    177     1
    166    178     1
    167    189     1
    167    170     1
    167    171     1
    167    173     1
    167    176     1
    168    189     1
    168    170     1
    168    171     1
    168    173     1
    168    176     1
    170    172     1
    170    190     1
    171    172     1
    171    190     1
    172    183     1
    172    184     1
    172    180     1
    172    181     1
    173    177     1
    173    178     1
    174    176     1
    174    186     1
    174    183     1
    174    184     1
    175    176     1
    175    186     1
    175    183     1
    175    184     1
    177    185     1
    177    180     1
    177    181     1
    178    185     1
    178    180     1
    178    181     1
    179    415     1
    180    187     1
    180    414     1
    181    187     1
    181    414     1
    182    440     1
    183    188     1
    183    439     1
    184    188     1
    184    439     1
    185    395     1
    185    396     1
    186    420     1
    186    421     1
    187    415     1
    188    440     1
    191    215     1
    191    199     1
    191    200     1
    191    202     1
    191    203     1
    192    214     1
    192    195     1
    192    196     1
    192    198     1
    192    201     1
    193    214     1
    193    195     1
    193    196     1
    193    198     1
    193    201     1
    195    197     1
    195    215     1
    196    197     1
    196    215     1
    197    208     1
    197    209     1
    197    205     1
    197    206     1
    198    202     1
    198    203     1
    199    201     1
    199    211     1
    199    208     1
    199    209     1
    200    201     1
    200    211     1
    200    208     1
    200    209     1
    202    210     1
    202    205     1
    202    206     1
    203    210     1
    203    205     1
    203    206     1
    204    465     1
    205    212     1
    205    464     1
    206    212     1
    206    464     1
    207    490     1
    208    213     1
    208    489     1
    209    213     1
    209    489     1
    210    445     1
    210    446     1
    211    470     1
    211    471     1
    212    465     1
    213    490     1
    216    240     1
    216    224     1
    216    225     1
    216    227     1
    216    228     1
    217    239     1
    217    220     1
    217    221     1
    217    223     1
    217    226     1
    218    239     1
    218    220     1
    218    221     1
    218    223     1
    218    226     1
    220    222     1
    220    240     1
    221    222     1
    221    240     1
    222    233     1
    222    234     1
    222    230     1
    222    231     1
    223    227     1
    223    228     1
    224    226     1
    224    236     1
    224    233     1
    224    234     1
    225    226     1
    225    236     1
    225    233     1
    225    234     1
    227    235     1
    227    230     1
    227    231     1
    228    235     1
    228    230     1
    228    231     1
    229    515     1
    230    237     1
    230    514     1
    231    237     1
    231    514     1
    232    540     1
    233    238     1
    233    539     1
    234    238     1
    234    539     1
    235    495     1
    235    496     1
    236    520     1
    236    521     1
    237    515     1
    238    540     1
    241    265     1
    241    249     1
    241    250     1
    241    252     1
    241    253     1
    242    264     1
    242    245     1
    242    246     1
    242    248     1
    242    251     1
    243    264     1
    243    245     1
    243    246     1
    243    248     1
    243    251     1
    245    247     1
    245    265     1
    246    247     1
    246    265     1
    247    258     1
    247    259     1
    247    255     1
    247    256     1
    248    252     1
    248    253     1
    249    251     1
    249    261     1
    249    258     1
    249    259     1
    250    251     1
    250    261     1
    250    258     1
    250    259     1
    252    260     1
    252    255     1
    252    256     1
    253    260     1
    253    255     1
    253    256     1
    254    565     1
    255    262     1
    255    564     1
    256    262     1
    256    564     1
    257    590     1
    258    263     1
    258    589     1
    259    263     1
    259    589     1
    260    545     1
    260    546     1
    261    570     1
    261    571     1
    262    565     1
    263    590     1
    266    290     1
    266    274     1
    266    275     1
    266    277     1
    266    278     1
    267    289     1
    267    270     1
    267    271     1
    267    273     1
    267    276     1
    268    289     1
    268    270     1
    268    271     1
    268    273     1
    268    276     1
    270    272     1
    270    290     1
    271    272     1
    271    290     1
    272    283     1
    272    284     1
    272    280     1
    272    281     1
    273    277     1
    273    278     1
    274    276     1
    274    286     1
    274    283     1
    274    284     1
    275    276     1
    275    286     1
    275    283     1
    275    284     1
    277    285     1
    277    280     1
    277    281     1
    278    285     1
    278    280     1
    278    281     1
    279    615     1
    280    287     1
    280    614     1
    281    287     1
    281    614     1
    282    640     1
    283    288     1
    283    639     1
    284    288     1
    284    639     1
    285    595     1
    285    596     1
    286    620     1
    286    621     1
    287    615     1
    288    640     1
    291    315     1
    291    299     1
    291    300     1
    291    302     1
    291    303     1
    292    314     1
    292    295     1
    292    296     1
    292    298     1
    292    301     1
    293    314     1
    293    295     1
    293    296     1
    293    298     1
    293    301     1
    295    297     1
    295    315     1
    296    297     1
    296    315     1
    297    308     1
    297    309     1
    297    305     1
    297    306     1
    298    302     1
    298    303     1
    299    301     1
    299    311     1
    299    308     1
    299    309     1
    300    301     1
    300    311     1
    300    308     1
    300    309     1
    302    310     1
    302    305     1
    302    306     1
    303    310     1
    303    305     1
    303    306     1
    304    665     1
    305    312     1
    305    664     1
    306    312     1
    306    664     1
    307    690     1
    308    313     1
    308    689     1
    309    313     1
    309    689     1
    310    645     1
    310    646     1
    311    670     1
    311    671     1
    312    665     1
    313    690     1
    316    340     1
    316    324     1
    316    325     1
    316    327     1
    316    328     1
    317    339     1
    317    320     1
    317    321     1
    317    323     1
    317    326     1
    318    339     1
    318    320     1
    318    321     1
    318    323     1
    318    326     1
    320    322     1
    320    340     1
    321    322     1
    321    340     1
    322    333     1
    322    334     1
    322    330     1
    322    331     1
    323    327     1
    323    328     1
    324    326     1
    324    336     1
    324    333     1
    324    334     1
    325    326     1
    325    336     1
    325    333     1
    325    334     1
    327    335     1
    327    330     1
    327    331     1
    328    335     1
    328    330     1
    328    331     1
    329    715     1
    330    337     1
    330    714     1
    331    337     1
    331    714     1
    332    740     1
    333    338     1
    333    739     1
    334    338     1
    334    739     1
    335    695     1
    335    696     1
    336    720     1
    336    721     1
    337    715     1
    338    740     1
    341    365     1
    341    349     1
    341    350     1
    341    352     1
    341    353     1
    342    364     1
    342    345     1
    342    346     1
    342    348     1
    342    351     1
    343    364     1
    343    345     1
    343    346     1
    343    348     1
    343    351     1
    345    347     1
    345    365     1
    346    347     1
    346    365     1
    347    358     1
    347    359     1
    347    355     1
    347    356     1
    348    352     1
    348    353     1
    349    351     1
    349    361     1
    349    358     1
    349    359     1
    350    351     1
    350    361     1
    350    358     1
    350    359     1
    352    360     1
    352    355     1
    352    356     1
    353    360     1
    353    355     1
    353    356     1
    354    765     1
    355    362     1
    355    764     1
    356    362     1
    356    764     1
    357    790     1
    358    363     1
    358    789     1
    359    363     1
    359    789     1
    360    745     1
    360    746     1
    361    770     1
    361    771     1
    362    765     1
    363    790     1
    366    390     1
    366    374     1
    366    375     1
    366    377     1
    366    378     1
    367    389     1
    367    370     1
    367    371     1
    367    373     1
    367    376     1
    368    389     1
    368    370     1
    368    371     1
    368    373     1
    368    376     1
    370    372     1
    370    390     1
    371    372     1
    371    390     1
    372    383     1
    372    384     1
    372    380     1
    372    381     1
    373    377     1
    373    378     1
    374    376     1
    374    386     1
    374    383     1
    374    384     1
    375    376     1
    375    386     1
    375    383     1
    375    384     1
    377    385     1
    377    380     1
    377    381     1
    378    385     1
    378    380     1
    378    381     1
    379    815     1
    380    387     1
    380    814     1
    381    387     1
    381    814     1
    382    840     1
    383    388     1
    383    839     1
    384    388     1
    384    839     1
    385    795     1
    385    796     1
    386    820     1
    386    821     1
    387    815     1
    388    840     1
    391    415     1
    391    399     1
    391    400     1
    391    402     1
    391    403     1
    392    414     1
    392    395     1
    392    396     1
    392    398     1
    392    401     1
    393    414     1
    393    395     1
    393    396     1
    393    398     1
    393    401     1
    395    397     1
    395    415     1
    396    397     1
    396    415     1
    397    408     1
    397    409     1
    397    405     1
    397    406     1
    398    402     1
    398    403     1
    399    401     1
    399    411     1
    399    408     1
    399    409     1
    400    401     1
    400    411     1
    400    408     1
    400    409     1
    402    410     1
    402    405     1
    402    406     1
    403    410     1
    403    405     1
    403    406     1
    404    865     1
    405    412     1
    405    864     1
    406    412     1
    406    864     1
    407    890     1
    408    413     1
    408    889     1
    409    413     1
    409    889     1
    410    845     1
    410    846     1
    411    870     1
    411    871     1
    412    865     1
    413    890     1
    416    440     1
    416    424     1
    416    425     1
    416    427     1
    416    428     1
    417    439     1
    417    420     1
    417    421     1
    417    423     1
    417    426     1
    418    439     1
    418    420     1
    418    421     1
    418    423     1
    418    426     1
    420    422     1
    420    440     1
    421    422     1
    421    440     1
    422    433     1
    422    434     1
    422    430     1
    422    431     1
    423    427     1
    423    428     1
    424    426     1
    424    436     1
    424    433     1
    424    434     1
    425    426     1
    425    436     1
    425    433     1
    425    434     1
    427    435     1
    427    430     1
    427    431     1
    428    435     1
    428    430     1
    428    431     1
    429    915     1
    430    437     1
    430    914     1
    431    437     1
    431    914     1
    432    940     1
    433    438     1
    433    939     1
    434    438     1
    434    939     1
    435    895     1
    435    896     1
    436    920     1
    436    921     1
    437    915     1
    438    940     1
    441    465     1
    441    449     1
    441    450     1
    441    452     1
    441    453     1
    442    464     1
    442    445     1
    442    446     1
    442    448     1
    442    451     1
    443    464     1
    443    445     1
    443    446     1
    443    448     1
    443    451     1
    445    447     1
    445    465     1
    446    447     1
    446    465     1
    447    458     1
    447    459     1
    447    455     1
    447    456     1
    448    452     1
    448    453     1
    449    451     1
    449    461     1
    449    458     1
    449    459     1
    450    451     1
    450    461     1
    450    458     1
    450    459     1
    452    460     1
    452    455     1
    452    456     1
    453    460     1
    453    455     1
    453    456     1
    454    965     1
    455    462     1
    455    964     1
    456    462     1
    456    964     1
    457    990     1
    458    463     1
    458    989     1
    459    463     1
    459    989     1
    460    945     1
    460    946     1
    461    970     1
    461    971     1
    462    965     1
    463    990     1
    466    490     1
    466    474     1
    466    475     1
    466    477     1
    466    478     1
    467    489     1
    467    470     1
    467    471     1
    467    473     1
    467    476     1
    468    489     1
    468    470     1
    468    471     1
    468    473     1
    468    476     1
    470    472     1
    470    490     1
    471    472     1
    471    490     1
    472    483     1
    472    484     1
    472    480     1
    472    481     1
    473    477     1
    473    478     1
    474    476     1
    474    486     1
    474    483     1
    474    484     1
    475    476     1
    475    486     1
    475    483     1
    475    484     1
    477    485     1
    477    480     1
    477    481     1
    478    485     1
    478    480     1
    478    481     1
    479   1015     1
    480    487     1
    480   1014     1
    481    487     1
    481   1014     1
    482   1040     1
    483    488     1
    483   1039     1
    484    488     1
    484   1039     1
    485    995     1
    485    996     1
    486   1020     1
    486   1021     1
    487   1015     1
    488   1040     1
    491    515     1
    491    499     1
    491    500     1
    491    502     1
    491    503     1
    492    514     1
    492    495     1
    492    496     1
    492    498     1
    492    501     1
    493    514     1
    493    495     1
    493    496     1
    493    498     1
    493    501     1
    495    497     1
    495    515     1
    496    497     1
    496    515     1
    497    508     1
    497    509     1
    497    505     1
    497    506     1
    498    502     1
    498    503     1
    499    501     1
    499    511     1
    499    508     1
    499    509     1
    500    501     1
    500    511     1
    500    508     1
    500    509     1
    502    510     1
    502    505     1
    502    506     1
    503    510     1
    503    505     1
    503    506     1
    504   1065     1
    505    512     1
    505   1064     1
    506    512     1
    506   1064     1
    507   1090     1
    508    513     1
    508   1089     1
    509    513     1
    509   1089     1
    510   1045     1
    510   1046     1
    511   1070     1
    511   1071     1
    512   1065     1
    513   1090     1
    516    540     1
    516    524     1
    516    525     1
    516    527     1
    516    528     1
    517    539     1
    517    520     1
    517    521     1
    517    523     1
    517    526     1
    518    539     1
    518    520     1
    518    521     1
    518    523     1
    518    526     1
    520    522     1
    520    540     1
    521    522     1
    521    540     1
    522    533     1
    522    534     1
    522    530     1
    522    531     1
    523    527     1
    523    528     1
    524    526     1
    524    536     1
    524    533     1
    524    534     1
    525    526     1
    525    536     1
    525    533     1
    525    534     1
    527    535     1
    527    530     1
    527    531     1
    528    535     1
    528    530     1
    528    531     1
    529   1115     1
    530    537     1
    530   1114     1
    531    537     1
    531   1114     1
    532   1140     1
    533    538     1
    533   1139     1
    534    538     1
    534   1139     1
    535   1095     1
    535   1096     1
    536   1120     1
    536   1121     1
    537   1115     1
    538   1140     1
    541    565     1
    541    549     1
    541    550     1
    541    552     1
    541    553     1
    542    564     1
    542    545     1
    542    546     1
    542    548     1
    542    551     1
    543    564     1
    543    545     1
    543    546     1
    543    548     1
    543    551     1
    545    547     1
    545    565     1
    546    547     1
    546    565     1
    547    558     1
    547    559     1
    547    555     1
    547    556     1
    548    552     1
    548    553     1
    549    551     1
    549    561     1
    549    558     1
    549    559     1
    550    551     1
    550    561     1
    550    558     1
    550    559     1
    552    560     1
    552    555     1
    552    556     1
    553    560     1
    553    555     1
    553    556     1
    554   1165     1
    555    562     1
    555   1164     1
    556    562     1
    556   1164     1
    557   1190     1
    558    563     1
    558   1189     1
    559    563     1
    559   1189     1
    560   1145     1
    560   1146     1
    561   1170     1
    561   1171     1
    562   1165     1
    563   1190     1
    566    590     1
    566    574     1
    566    575     1
    566    577     1
    566    578     1
    567    589     1
    567    570     1
    567    571     1
    567    573     1
    567    576     1
    568    589     1
    568    570     1
    568    571     1
    568    573     1
    568    576     1
    570    572     1
    570    590     1
    571    572     1
    571    590     1
    572    583     1
    572    584     1
    572    580     1
    572    581     1
    573    577     1
    573    578     1
    574    576     1
    574    586     1
    574    583     1
    574    584     1
    575    576     1
    575    586     1
    575    583     1
    575    584     1
    577    585     1
    577    580     1
    577    581     1
    578    585     1
    578    580     1
    578    581     1
    579   1215     1
    580    587     1
    580   1214     1
    581    587     1
    581   1214     1
    582   1240     1
    583    588     1
    583   1239     1
    584    588     1
    584   1239     1
    585   1195     1
    585   1196     1
    586   1220     1
    586   1221     1
    587   1215     1
    588   1240     1
    591    615     1
    591    599     1
    591    600     1
    591    602     1
    591    603     1
    592    614     1
    592    595     1
    592    596     1
    592    598     1
    592    601     1
    593    614     1
    593    595     1
    593    596     1
    593    598     1
    593    601     1
    595    597     1
    595    615     1
    596    597     1
    596    615     1
    597    608     1
    597    609     1
    597    605     1
    597    606     1
    598    602     1
    598    603     1
    599    601     1
    599    611     1
    599    608     1
    599    609     1
    600    601     1
    600    611     1
    600    608     1
    600    609     1
    602    610     1
    602    605     1
    602    606     1
    603    610     1
    603    605     1
    603    606     1
    604   1265     1
    605    612     1
    605   1264     1
    606    612     1
    606   1264     1
    607   1290     1
    608    613     1
    608   1289     1
    609    613     1
    609   1289     1
    610   1245     1
    610   1246     1
    611   1270     1
    611   1271     1
    612   1265     1
    613   1290     1
    616    640     1
    616    624     1
    616    625     1
    616    627     1
    616    628     1
    617    639     1
    617    620     1
    617    621     1
    617    623     1
    617    626     1
    618    639     1
    618    620     1
    618    621     1
    618    623     1
    618    626     1
    620    622     1
    620    640     1
    621    622     1
    621    640     1
    622    633     1
    622    634     1
    622    630     1
    622    631     1
    623    627     1
    623    628     1
    624    626     1
    624    636     1
    624    633     1
    624    634     1
    625    626     1
    625    636     1
    625    633     1
    625    634     1
    627    635     1
    627    630     1
    627    631     1
    628    635     1
    628    630     1
    628    631     1
    629   1315     1
    630    637     1
    630   1314     1
    631    637     1
    631   1314     1
    632   1340     1
    633    638     1
    633   1339     1
    634    638     1
    634   1339     1
    635   1295     1
    635   1296     1
    636   1320     1
    636   1321     1
    637   1315     1
    638   1340     1
    641    665     1
    641    649     1
    641    650     1
    641    652     1
    641    653     1
    642    664     1
    642    645     1
    642    646     1
    642    648     1
    642    651     1
    643    664     1
    643    645     1
    643    646     1
    643    648     1
    643    651     1
    645    647     1
    645    665     1
    646    647     1
    646    665     1
    647    658     1
    647    659     1
    647    655     1
    647    656     1
    648    652     1
    648    653     1
    649    651     1
    649    661     1
    649    658     1
    649    659     1
    650    651     1
    650    661     1
    650    658     1
    650    659     1
    652    660     1
    652    655     1
    652    656     1
    653    660     1
    653    655     1
    653    656     1
    654   1365     1
    655    662     1
    655   1364     1
    656    662     1
    656   1364     1
    657   1390     1
    658    663     1
    658   1389     1
    659    663     1
    659   1389     1
    660   1345     1
    660   1346     1
    661   1370     1
    661   1371     1
    662   1365     1
    663   1390     1
    666    690     1
    666    674     1
    666    675     1
    666    677     1
    666    678     1
    667    689     1
    667    670     1
    667    671     1
    667    673     1
    667    676     1
    668    689     1
    668    670     1
    668    671     1
    668    673     1
    668    676     1
    670    672     1
    670    690     1
    671    672     1
    671    690     1
    672    683     1
    672    684     1
    672    680     1
    672    681     1
    673    677     1
    673    678     1
    674    676     1
    674    686     1
    674    683     1
    674    684     1
    675    676     1
    675    686     1
    675    683     1
    675    684     1
    677    685     1
    677    680     1
    677    681     1
    678    685     1
    678    680     1
    678    681     1
    679   1415     1
    680    687     1
    680   1414     1
    681    687     1
    681   1414     1
    682   1440     1
    683    688     1
    683   1439     1
    684    688     1
    684   1439     1
    685   1395     1
    685   1396     1
    686   1420     1
    686   1421     1
    687   1415     1
    688   1440     1
    691    715     1
    691    699     1
    691    700     1
    691    702     1
    691    703     1
    692    714     1
    692    695     1
    692    696     1
    692    698     1
    692    701     1
    693    714     1
    693    695     1
    693    696     1
    693    698     1
    693    701     1
    695    697     1
    695    715     1
    696    697     1
    696    715     1
    697    708     1
    697    709     1
    697    705     1
    697    706     1
    698    702     1
    698    703     1
    699    701     1
    699    711     1
    699    708     1
    699    709     1
    700    701     1
    700    711     1
    700    708     1
    700    709     1
    702    710     1
    702    705     1
    702    706     1
    703    710     1
    703    705     1
    703    706     1
    704   1465     1
    705    712     1
    705   1464     1
    706    712     1
    706   1464     1
    707   1490     1
    708    713     1
    708   1489     1
    709    713     1
    709   1489     1
    710   1445     1
    710   1446     1
    711   1470     1
    711   1471     1
    712   1465     1
    713   1490     1
    716    740     1
    716    724     1
    716    725     1
    716    727     1
    716    728     1
    717    739     1
    717    720     1
    717    721     1
    717    723     1
    717    726     1
    718    739     1
    718    720     1
    718    721     1
    718    723     1
    718    726     1
    720    722     1
    720    740     1
    721    722     1
    721    740     1
    722    733     1
    722    734     1
    722    730     1
    722    731     1
    723    727     1
    723    728     1
    724    726     1
    724    736     1
    724    733     1
    724    734     1
    725    726     1
    725    736     1
    725    733     1
    725    734     1
    727    735     1
    727    730     1
    727    731     1
    728    735     1
    728    730     1
    728    731     1
    729   1515     1
    730    737     1
    730   1514     1
    731    737     1
    731   1514     1
    732   1540     1
    733    738     1
    733   1539     1
    734    738     1
    734   1539     1
    735   1495     1
    735   1496     1
    736   1520     1
    736   1521     1
    737   1515     1
    738   1540     1
    741    765     1
    741    749     1
    741    750     1
    741    752     1
    741    753     1
    742    764     1
    742    745     1
    742    746     1
    742    748     1
    742    751     1
    743    764     1
    743    745     1
    743    746     1
    743    748     1
    743    751     1
    745    747     1
    745    765     1
    746    747     1
    746    765     1
    747    758     1
    747    759     1
    747    755     1
    747    756     1
    748    752     1
    748    753     1
    749    751     1
    749    761     1
    749    758     1
    749    759     1
    750    751     1
    750    761     1
    750    758     1
    750    759     1
    752    760     1
    752    755     1
    752    756     1
    753    760     1
    753    755     1
    753    756     1
    754   1565     1
    755    762     1
    755   1564     1
    756    762     1
    756   1564     1
    757   1590     1
    758    763     1
    758   1589     1
    759    763     1
    759   1589     1
    760   1545     1
    760   1546     1
    761   1570     1
    761   1571     1
    762   1565     1
    763   1590     1
    766    790     1
    766    774     1
    766    775     1
    766    777     1
    766    778     1
    767    789     1
    767    770     1
    767    771     1
    767    773     1
    767    776     1
    768    789     1
    768    770     1
    768    771     1
    768    773     1
    768    776     1
    770    772     1
    770    790     1
    771    772     1
    771    790     1
    772    783     1
    772    784     1
    772    780     1
    772    781     1
    773    777     1
    773    778     1
    774    776     1
    774    786     1
    774    783     1
    774    784     1
    775    776     1
    775    786     1
    775    783     1
    775    784     1
    777    785     1
    777    780     1
    777    781     1
    778    785     1
    778    780     1
    778    781     1
    779   1615     1
    780    787     1
    780   1614     1
    781    787     1
    781   1614     1
    782   1640     1
    783    788     1
    783   1639     1
    784    788     1
    784   1639     1
    785   1595     1
    785   1596     1
    786   1620     1
    786   1621     1
    787   1615     1
    788   1640     1
    791    815     1
    791    799     1
    791    800     1
    791    802     1
    791    803     1
    792    814     1
    792    795     1
    792    796     1
    792    798     1
    792    801     1
    793    814     1
    793    795     1
    793    796     1
    793    798     1
    793    801     1
    795    797     1
    795    815     1
    796    797     1
    796    815     1
    797    808     1
    797    809     1
    797    805     1
    797    806     1
    798    802     1
    798    803     1
    799    801     1
    799    811     1
    799    808     1
    799    809     1
    800    801     1
    800    811     1
    800    808     1
    800    809     1
    802    810     1
    802    805     1
    802    806     1
    803    810     1
    803    805     1
    803    806     1
    804   1665     1
    805    812     1
    805   1664     1
    806    812     1
    806   1664     1
    807   1690     1
    808    813     1
    808   1689     1
    809    813     1
    809   1689     1
    810   1645     1
    810   1646     1
    811   1670     1
    811   1671     1
    812   1665     1
    813   1690     1
    816    840     1
    816    824     1
    816    825     1
    816    827     1
    816    828     1
    817    839     1
    817    820     1
    817    821     1
    817    823     1
    817    826     1
    818    839     1
    818    820     1
    818    821     1
    818    823     1
    818    826     1
    820    822     1
    820    840     1
    821    822     1
    821    840     1
    822    833     1
    822    834     1
    822    830     1
    822    831     1
    823    827     1
    823    828     1
    824    826     1
    824    836     1
    824    833     1
    824    834     1
    825    826     1
    825    836     1
    825    833     1
    825    834     1
    827    835     1
    827    830     1
    827    831     1
    828    835     1
    828    830     1
    828    831     1
    829   1715     1
    830    837     1
    830   1714     1
    831    837     1
    831   1714     1
    832   1740     1
    833    838     1
    833   1739     1
    834    838     1
    834   1739     1
    835   1695     1
    835   1696     1
    836   1720     1
    836   1721     1
    837   1715     1
    838   1740     1
    841    865     1
    841    849     1
    841    850     1
    841    852     1
    841    853     1
    842    864     1
    842    845     1
    842    846     1
    842    848     1
    842    851     1
    843    864     1
    843    845     1
    843    846     1
    843    848     1
    843    851     1
    845    847     1
    845    865     1
    846    847     1
    846    865     1
    847    858     1
    847    859     1
    847    855     1
    847    856     1
    848    852     1
    848    853     1
    849    851     1
    849    861     1
    849    858     1
    849    859     1
    850    851     1
    850    861     1
    850    858     1
    850    859     1
    852    860     1
    852    855     1
    852    856     1
    853    860     1
    853    855     1
    853    856     1
    854   1765     1
    855    862     1
    855   1764     1
    856    862     1
    856   1764     1
    857   1790     1
    858    863     1
    858   1789     1
    859    863     1
    859   1789     1
    860   1745     1
    860   1746     1
    861   1770     1
    861   1771     1
    862   1765     1
    863   1790     1
    866    890     1
    866    874     1
    866    875     1
    866    877     1
    866    878     1
    867    889     1
    867    870     1
    867    871     1
    867    873     1
    867    876     1
    868    889     1
    868    870     1
    868    871     1
    868    873     1
    868    876     1
    870    872     1
    870    890     1
    871    872     1
    871    890     1
    872    883     1
    872    884     1
    872    880     1
    872    881     1
    873    877     1
    873    878     1
    874    876     1
    874    886     1
    874    883     1
    874    884     1
    875    876     1
    875    886     1
    875    883     1
    875    884     1
    877    885     1
    877    880     1
    877    881     1
    878    885     1
    878    880     1
    878    881     1
    879   1815     1
    880    887     1
    880   1814     1
    881    887     1
    881   1814     1
    882   1840     1
    883    888     1
    883   1839     1
    884    888     1
    884   1839     1
    885   1795     1
    885   1796     1
    886   1820     1
    886   1821     1
    887   1815     1
    888   1840     1
    891    915     1
    891    899     1
    891    900     1
    891    902     1
    891    903     1
    892    914     1
    892    895     1
    892    896     1
    892    898     1
    892    901     1
    893    914     1
    893    895     1
    893    896     1
    893    898     1
    893    901     1
    895    897     1
    895    915     1
    896    897     1
    896    915     1
    897    908     1
    897    909     1
    897    905     1
    897    906     1
    898    902     1
    898    903     1
    899    901     1
    899    911     1
    899    908     1
    899    909     1
    900    901     1
    900    911     1
    900    908     1
    900    909     1
    902    910     1
    902    905     1
    902    906     1
    903    910     1
    903    905     1
    903    906     1
    904   1865     1
    905    912     1
    905   1864     1
    906    912     1
    906   1864     1
    907   1890     1
    908    913     1
    908   1889     1
    909    913     1
    909   1889     1
    910   1845     1
    910   1846     1
    911   1870     1
    911   1871     1
    912   1865     1
    913   1890     1
    916    940     1
    916    924     1
    916    925     1
    916    927     1
    916    928     1
    917    939     1
    917    920     1
    917    921     1
    917    923     1
    917    926     1
    918    939     1
    918    920     1
    918    921     1
    918    923     1
    918    926     1
    920    922     1
    920    940     1
    921    922     1
    921    940     1
    922    933     1
    922    934     1
    922    930     1
    922    931     1
    923    927     1
    923    928     1
    924    926     1
    924    936     1
    924    933     1
    924    934     1
    925    926     1
    925    936     1
    925    933     1
    925    934     1
    927    935     1
    927    930     1
    927    931     1
    928    935     1
    928    930     1
    928    931     1
    929   1915     1
    930    937     1
    930   1914     1
    931    937     1
    931   1914     1
    932   1940     1
    933    938     1
    933   1939     1
    934    938     1
    934   1939     1
    935   1895     1
    935   1896     1
    936   1920     1
    936   1921     1
    937   1915     1
    938   1940     1
    941    965     1
    941    949     1
    941    950     1
    941    952     1
    941    953     1
    942    964     1
    942    945     1
    942    946     1
    942    948     1
    942    951     1
    943    964     1
    943    945     1
    943    946     1
    943    948     1
    943    951     1
    945    947     1
    945    965     1
    946    947     1
    946    965     1
    947    958     1
    947    959     1
    947    955     1
    947    956     1
    948    952     1
    948    953     1
    949    951     1
    949    961     1
    949    958     1
    949    959     1
    950    951     1
    950    961     1
    950    958     1
    950    959     1
    952    960     1
    952    955     1
    952    956     1
    953    960     1
    953    955     1
    953    956     1
    954   1965     1
    955    962     1
    955   1964     1
    956    962     1
    956   1964     1
    957   1990     1
    958    963     1
    958   1989     1
    959    963     1
    959   1989     1
    960   1945     1
    960   1946     1
    961   1970     1
    961   1971     1
    962   1965     1
    963   1990     1
    966    990     1
    966    974     1
    966    975     1
    966    977     1
    966    978     1
    967    989     1
    967    970     1
    967    971     1
    967    973     1
    967    976     1
    968    989     1
    968    970     1
    968    971     1
    968    973     1
    968    976     1
    970    972     1
    970    990     1
    971    972     1
    971    990     1
    972    983     1
    972    984     1
    972    980     1
    972    981     1
    973    977     1
    973    978     1
    974    976     1
    974    986     1
    974    983     1
    974    984     1
    975    976     1
    975    986     1
    975    983     1
    975    984     1
    977    985     1
    977    980     1
    977    981     1
    978    985     1
    978    980     1
    978    981     1
    979   2015     1
    980    987     1
    980   2014     1
    981    987     1
    981   2014     1
    982   2040     1
    983    988     1
    983   2039     1
    984    988     1
    984   2039     1
    985   1995     1
    985   1996     1
    986   2020     1
    986   2021     1
    987   2015     1
    988   2040     1
    991   1015     1
    991    999     1
    991   1000     1
    991   1002     1
    991   1003     1
    992   1014     1
    992    995     1
    992    996     1
    992    998     1
    992   1001     1
    993   1014     1
    993    995     1
    993    996     1
    993    998     1
    993   1001     1
    995    997     1
    995   1015     1
    996    997     1
    996   1015     1
    997   1008     1
    997   1009     1
    997   1005     1
    997   1006     1
    998   1002     1
    998   1003     1
    999   1001     1
    999   1011     1
    999   1008     1
    999   1009     1
   1000   1001     1
   1000   1011     1
   1000   1008     1
   1000   1009     1
   1002   1010     1
   1002   1005     1
   1002   1006     1
   1003   1010     1
   1003   1005     1
   1003   1006     1
   1004   2065     1
   1005   1012     1
   1005   2064     1
   1006   1012     1
   1006   2064     1
   1007   2090     1
   1008   1013     1
   1008   2089     1
   1009   1013     1
   1009   2089     1
   1010   2045     1
   1010   2046     1
   1011   2070     1
   1011   2071     1
   1012   2065     1
   1013   2090     1
   1016   1040     1
   1016   1024     1
   1016   1025     1
   1016   1027     1
   1016   1028     1
   1017   1039     1
   1017   1020     1
   1017   1021     1
   1017   1023     1
   1017   1026     1
   1018   1039     1
   1018   1020     1
   1018   1021     1
   1018   1023     1
   1018   1026     1
   1020   1022     1
   1020   1040     1
   1021   1022     1
   1021   1040     1
   1022   1033     1
   1022   1034     1
   1022   1030     1
   1022   1031     1
   1023   1027     1
   1023   1028     1
   1024   1026     1
   1024   1036     1
   1024   1033     1
   1024   1034     1
   1025   1026     1
   1025   1036     1
   1025   1033     1
   1025   1034     1
   1027   1035     1
   1027   1030     1
   1027   1031     1
   1028   1035     1
   1028   1030     1
   1028   1031     1
   1029   2115     1
   1030   1037     1
   1030   2114     1
   1031   1037     1
   1031   2114     1
   1032   2140     1
   1033   1038     1
   1033   2139     1
   1034   1038     1
   1034   2139     1
   1035   2095     1
   1035   2096     1
   1036   2120     1
   1036   2121     1
   1037   2115     1
   1038   2140     1
   1041   1065     1
   1041   1049     1
   1041   1050     1
   1041   1052     1
   1041   1053     1
   1042   1064     1
   1042   1045     1
   1042   1046     1
   1042   1048     1
   1042   1051     1
   1043   1064     1
   1043   1045     1
   1043   1046     1
   1043   1048     1
   1043   1051     1
   1045   1047     1
   1045   1065     1
   1046   1047     1
   1046   1065     1
   1047   1058     1
   1047   1059     1
   1047   1055     1
   1047   1056     1
   1048   1052     1
   1048   1053     1
   1049   1051     1
   1049   1061     1
   1049   1058     1
   1049   1059     1
   1050   1051     1
   1050   1061     1
   1050   1058     1
   1050   1059     1
   1052   1060     1
   1052   1055     1
   1052   1056     1
   1053   1060     1
   1053   1055     1
   1053   1056     1
   1054   2165     1
   1055   1062     1
   1055   2164     1
   1056   1062     1
   1056   2164     1
   1057   2190     1
   1058   1063     1
   1058   2189     1
   1059   1063     1
   1059   2189     1
   1060   2145     1
   1060   2146     1
   1061   2170     1
   1061   2171     1
   1062   2165     1
   1063   2190     1
   1066   1090     1
   1066   1074     1
   1066   1075     1
   1066   1077     1
   1066   1078     1
   1067   1089     1
   1067   1070     1
   1067   1071     1
   1067   1073     1
   1067   1076     1
   1068   1089     1
   1068   1070     1
   1068   1071     1
   1068   1073     1
   1068   1076     1
   1070   1072     1
   1070   1090     1
   1071   1072     1
   1071   1090     1
   1072   1083     1
   1072   1084     1
   1072   1080     1
   1072   1081     1
   1073   1077     1
   1073   1078     1
   1074   1076     1
   1074   1086     1
   1074   1083     1
   1074   1084     1
   1075   1076     1
   1075   1086     1
   1075   1083     1
   1075   1084     1
   1077   1085     1
   1077   1080     1
   1077   1081     1
   1078   1085     1
   1078   1080     1
   1078   1081     1
   1079   2215     1
   1080   1087     1
   1080   2214     1
   1081   1087     1
   1081   2214     1
   1082   2240     1
   1083   1088     1
   1083   2239     1
   1084   1088     1
   1084   2239     1
   1085   2195     1
   1085   2196     1
   1086   2220     1
   1086   2221     1
   1087   2215     1
   1088   2240     1
   1091   1115     1
   1091   1099     1
   1091   1100     1
   1091   1102     1
   1091   1103     1
   1092   1114     1
   1092   1095     1
   1092   1096     1
   1092   1098     1
   1092   1101     1
   1093   1114     1
   1093   1095     1
   1093   1096     1
   1093   1098     1
   1093   1101     1
   1095   1097     1
   1095   1115     1
   1096   1097     1
   1096   1115     1
   1097   1108     1
   1097   1109     1
   1097   1105     1
   1097   1106     1
   1098   1102     1
   1098   1103     1
   1099   1101     1
   1099   1111     1
   1099   1108     1
   1099   1109     1
   1100   1101     1
   1100   1111     1
   1100   1108     1
   1100   1109     1
   1102   1110     1
   1102   1105     1
   1102   1106     1
   1103   1110     1
   1103   1105     1
   1103   1106     1
   1104   2265     1
   1105   1112     1
   1105   2264     1
   1106   1112     1
   1106   2264     1
   1107   2290     1
   1108   1113     1
   1108   2289     1
   1109   1113     1
   1109   2289     1
   1110   2245     1
   1110   2246     1
   1111   2270     1
   1111   2271     1
   1112   2265     1
   1113   2290     1
   1116   1140     1
   1116   1124     1
   1116   1125     1
   1116   1127     1
   1116   1128     1
   1117   1139     1
   1117   1120     1
   1117   1121     1
   1117   1123     1
   1117   1126     1
   1118   1139     1
   1118   1120     1
   1118   1121     1
   1118   1123     1
   1118   1126     1
   1120   1122     1
   1120   1140     1
   1121   1122     1
   1121   1140     1
   1122   1133     1
   1122   1134     1
   1122   1130     1
   1122   1131     1
   1123   1127     1
   1123   1128     1
   1124   1126     1
   1124   1136     1
   1124   1133     1
   1124   1134     1
   1125   1126     1
   1125   1136     1
   1125   1133     1
   1125   1134     1
   1127   1135     1
   1127   1130     1
   1127   1131     1
   1128   1135     1
   1128   1130     1
   1128   1131     1
   1129   2315     1
   1130   1137     1
   1130   2314     1
   1131   1137     1
   1131   2314     1
   1132   2340     1
   1133   1138     1
   1133   2339     1
   1134   1138     1
   1134   2339     1
   1135   2295     1
   1135   2296     1
   1136   2320     1
   1136   2321     1
   1137   2315     1
   1138   2340     1
   1141   1165     1
   1141   1149     1
   1141   1150     1
   1141   1152     1
   1141   1153     1
   1142   1164     1
   1142   1145     1
   1142   1146     1
   1142   1148     1
   1142   1151     1
   1143   1164     1
   1143   1145     1
   1143   1146     1
   1143   1148     1
   1143   1151     1
   1145   1147     1
   1145   1165     1
   1146   1147     1
   1146   1165     1
   1147   1158     1
   1147   1159     1
   1147   1155     1
   1147   1156     1
   1148   1152     1
   1148   1153     1
   1149   1151     1
   1149   1161     1
   1149   1158     1
   1149   1159     1
   1150   1151     1
   1150   1161     1
   1150   1158     1
   1150   1159     1
   1152   1160     1
   1152   1155     1
   1152   1156     1
   1153   1160     1
   1153   1155     1
   1153   1156     1
   1154   2365     1
   1155   1162     1
   1155   2364     1
   1156   1162     1
   1156   2364     1
   1157   2390     1
   1158   1163     1
   1158   2389     1
   1159   1163     1
   1159   2389     1
   1160   2345     1
   1160   2346     1
   1161   2370     1
   1161   2371     1
   1162   2365     1
   1163   2390     1
   1166   1190     1
   1166   1174     1
   1166   1175     1
   1166   1177     1
   1166   1178     1
   1167   1189     1
   1167   1170     1
   1167   1171     1
   1167   1173     1
   1167   1176     1
   1168   1189     1
   1168   1170     1
   1168   1171     1
   1168   1173     1
   1168   1176     1
   1170   1172     1
   1170   1190     1
   1171   1172     1
   1171   1190     1
   1172   1183     1
   1172   1184     1
   1172   1180     1
   1172   1181     1
   1173   1177     1
   1173   1178     1
   1174   1176     1
   1174   1186     1
   1174   1183     1
   1174   1184     1
   1175   1176     1
   1175   1186     1
   1175   1183     1
   1175   1184     1
   1177   1185     1
   1177   1180     1
   1177   1181     1
   1178   1185     1
   1178   1180     1
   1178   1181     1
   1179   2415     1
   1180   1187     1
   1180   2414     1
   1181   1187     1
   1181   2414     1
   1182   2440     1
   1183   1188     1
   1183   2439     1
   1184   1188     1
   1184   2439     1
   1185   2395     1
   1185   2396     1
   1186   2420     1
   1186   2421     1
   1187   2415     1
   1188   2440     1
   1191   1215     1
   1191   1199     1
   1191   1200     1
   1191   1202     1
   1191   1203     1
   1192   1214     1
   1192   1195     1
   1192   1196     1
   1192   1198     1
   1192   1201     1
   1193   1214     1
   1193   1195     1
   1193   1196     1
   1193   1198     1
   1193   1201     1
   1195   1197     1
   1195   1215     1
   1196   1197     1
   1196   1215     1
   1197   1208     1
   1197   1209     1
   1197   1205     1
   1197   1206     1
   1198   1202     1
   1198   1203     1
   1199   1201     1
   1199   1211     1
   1199   1208     1
   1199   1209     1
   1200   1201     1
   1200   1211     1
   1200   1208     1
   1200   1209     1
   1202   1210     1
   1202   1205     1
   1202   1206     1
   1203   1210     1
   1203   1205     1
   1203   1206     1
   1204   2465     1
   1205   1212     1
   1205   2464     1
   1206   1212     1
   1206   2464     1
   1207   2490     1
   1208   1213     1
   1208   2489     1
   1209   1213     1
   1209   2489     1
   1210   2445     1
   1210   2446     1
   1211   2470     1
   1211   2471     1
   1212   2465     1
   1213   2490     1
   1216   1240     1
   1216   1224     1
   1216   1225     1
   1216   1227     1
   1216   1228     1
   1217   1239     1
   1217   1220     1
   1217   1221     1
   1217   1223     1
   1217   1226     1
   1218   1239     1
   1218   1220     1
   1218   1221     1
   1218   1223     1
   1218   1226     1
   1220   1222     1
   1220   1240     1
   1221   1222     1
   1221   1240     1
   1222   1233     1
   1222   1234     1
   1222   1230     1
   1222   1231     1
   1223   1227     1
   1223   1228     1
   1224   1226     1
   1224   1236     1
   1224   1233     1
   1224   1234     1
   1225   1226     1
   1225   1236     1
   1225   1233     1
   1225   1234     1
   1227   1235     1
   1227   1230     1
   1227   1231     1
   1228   1235     1
   1228   1230     1
   1228   1231     1
   1229   2515     1
   1230   1237     1
   1230   2514     1
   1231   1237     1
   1231   2514     1
   1232   2540     1
   1233   1238     1
   1233   2539     1
   1234   1238     1
   1234   2539     1
   1235   2495     1
   1235   2496     1
   1236   2520     1
   1236   2521     1
   1237   2515     1
   1238   2540     1
   1241   1265     1
   1241   1249     1
   1241   1250     1
   1241   1252     1
   1241   1253     1
   1242   1264     1
   1242   1245     1
   1242   1246     1
   1242   1248     1
   1242   1251     1
   1243   1264     1
   1243   1245     1
   1243   1246     1
   1243   1248     1
   1243   1251     1
   1245   1247     1
   1245   1265     1
   1246   1247     1
   1246   1265     1
   1247   1258     1
   1247   1259     1
   1247   1255     1
   1247   1256     1
   1248   1252     1
   1248   1253     1
   1249   1251     1
   1249   1261     1
   1249   1258     1
   1249   1259     1
   1250   1251     1
   1250   1261     1
   1250   1258     1
   1250   1259     1
   1252   1260     1
   1252   1255     1
   1252   1256     1
   1253   1260     1
   1253   1255     1
   1253   1256     1
   1254   2565     1
   1255   1262     1
   1255   2564     1
   1256   1262     1
   1256   2564     1
   1257   2590     1
   1258   1263     1
   1258   2589     1
   1259   1263     1
   1259   2589     1
   1260   2545     1
   1260   2546     1
   1261   2570     1
   1261   2571     1
   1262   2565     1
   1263   2590     1
   1266   1290     1
   1266   1274     1
   1266   1275     1
   1266   1277     1
   1266   1278     1
   1267   1289     1
   1267   1270     1
   1267   1271     1
   1267   1273     1
   1267   1276     1
   1268   1289     1
   1268   1270     1
   1268   1271     1
   1268   1273     1
   1268   1276     1
   1270   1272     1
   1270   1290     1
   1271   1272     1
   1271   1290     1
   1272   1283     1
   1272   1284     1
   1272   1280     1
   1272   1281     1
   1273   1277     1
   1273   1278     1
   1274   1276     1
   1274   1286     1
   1274   1283     1
   1274   1284     1
   1275   1276     1
   1275   1286     1
   1275   1283     1
   1275   1284     1
   1277   1285     1
   1277   1280     1
   1277   1281     1
   1278   1285     1
   1278   1280     1
   1278   1281     1
   1279   2615     1
   1280   1287     1
   1280   2614     1
   1281   1287     1
   1281   2614     1
   1282   2640     1
   1283   1288     1
   1283   2639     1
   1284   1288     1
   1284   2639     1
   1285   2595     1
   1285   2596     1
   1286   2620     1
   1286   2621     1
   1287   2615     1
   1288   2640     1
   1291   1315     1
   1291   1299     1
   1291   1300     1
   1291   1302     1
   1291   1303     1
   1292   1314     1
   1292   1295     1
   1292   1296     1
   1292   1298     1
   1292   1301     1
   1293   1314     1
   1293   1295     1
   1293   1296     1
   1293   1298     1
   1293   1301     1
   1295   1297     1
   1295   1315     1
   1296   1297     1
   1296   1315     1
   1297   1308     1
   1297   1309     1
   1297   1305     1
   1297   1306     1
   1298   1302     1
   1298   1303     1
   1299   1301     1
   1299   1311     1
   1299   1308     1
   1299   1309     1
   1300   1301     1
   1300   1311     1
   1300   1308     1
   1300   1309     1
   1302   1310     1
   1302   1305     1
   1302   1306     1
   1303   1310     1
   1303   1305     1
   1303   1306     1
   1304   2665     1
   1305   1312     1
   1305   2664     1
   1306   1312     1
   1306   2664     1
   1307   2690     1
   1308   1313     1
   1308   2689     1
   1309   1313     1
   1309   2689     1
   1310   2645     1
   1310   2646     1
   1311   2670     1
   1311   2671     1
   1312   2665     1
   1313   2690     1
   1316   1340     1
   1316   1324     1
   1316   1325     1
   1316   1327     1
   1316   1328     1
   1317   1339     1
   1317   1320     1
   1317   1321     1
   1317   1323     1
   1317   1326     1
   1318   1339     1
   1318   1320     1
   1318   1321     1
   1318   1323     1
   1318   1326     1
   1320   1322     1
   1320   1340     1
   1321   1322     1
   1321   1340     1
   1322   1333     1
   1322   1334     1
   1322   1330     1
   1322   1331     1
   1323   1327     1
   1323   1328     1
   1324   1326     1
   1324   1336     1
   1324   1333     1
   1324   1334     1
   1325   1326     1
   1325   1336     1
   1325   1333     1
   1325   1334     1
   1327   1335     1
   1327   1330     1
   1327   1331     1
   1328   1335     1
   1328   1330     1
   1328   1331     1
   1329   2715     1
   1330   1337     1
   1330   2714     1
   1331   1337     1
   1331   2714     1
   1332   2740     1
   1333   1338     1
   1333   2739     1
   1334   1338     1
   1334   2739     1
   1335   2695     1
   1335   2696     1
   1336   2720     1
   1336   2721     1
   1337   2715     1
   1338   2740     1
   1341   1365     1
   1341   1349     1
   1341   1350     1
   1341   1352     1
   1341   1353     1
   1342   1364     1
   1342   1345     1
   1342   1346     1
   1342   1348     1
   1342   1351     1
   1343   1364     1
   1343   1345     1
   1343   1346     1
   1343   1348     1
   1343   1351     1
   1345   1347     1
   1345   1365     1
   1346   1347     1
   1346   1365     1
   1347   1358     1
   1347   1359     1
   1347   1355     1
   1347   1356     1
   1348   1352     1
   1348   1353     1
   1349   1351     1
   1349   1361     1
   1349   1358     1
   1349   1359     1
   1350   1351     1
   1350   1361     1
   1350   1358     1
   1350   1359     1
   1352   1360     1
   1352   1355     1
   1352   1356     1
   1353   1360     1
   1353   1355     1
   1353   1356     1
   1354   2765     1
   1355   1362     1
   1355   2764     1
   1356   1362     1
   1356   2764     1
   1357   2790     1
   1358   1363     1
   1358   2789     1
   1359   1363     1
   1359   2789     1
   1360   2745     1
   1360   2746     1
   1361   2770     1
   1361   2771     1
   1362   2765     1
   1363   2790     1
   1366   1390     1
   1366   1374     1
   1366   1375     1
   1366   1377     1
   1366   1378     1
   1367   1389     1
   1367   1370     1
   1367   1371     1
   1367   1373     1
   1367   1376     1
   1368   1389     1
   1368   1370     1
   1368   1371     1
   1368   1373     1
   1368   1376     1
   1370   1372     1
   1370   1390     1
   1371   1372     1
   1371   1390     1
   1372   1383     1
   1372   1384     1
   1372   1380     1
   1372   1381     1
   1373   1377     1
   1373   1378     1
   1374   1376     1
   1374   1386     1
   1374   1383     1
   1374   1384     1
   1375   1376     1
   1375   1386     1
   1375   1383     1
   1375   1384     1
   1377   1385     1
   1377   1380     1
   1377   1381     1
   1378   1385     1
   1378   1380     1
   1378   1381     1
   1379   2815     1
   1380   1387     1
   1380   2814     1
   1381   1387     1
   1381   2814     1
   1382   2840     1
   1383   1388     1
   1383   2839     1
   1384   1388     1
   1384   2839     1
   1385   2795     1
   1385   2796     1
   1386   2820     1
   1386   2821     1
   1387   2815     1
   1388   2840     1
   1391   1415     1
   1391   1399     1
   1391   1400     1
   1391   1402     1
   1391   1403     1
   1392   1414     1
   1392   1395     1
   1392   1396     1
   1392   1398     1
   1392   1401     1
   1393   1414     1
   1393   1395     1
   1393   1396     1
   1393   1398     1
   1393   1401     1
   1395   1397     1
   1395   1415     1
   1396   1397     1
   1396   1415     1
   1397   1408     1
   1397   1409     1
   1397   1405     1
   1397   1406     1
   1398   1402     1
   1398   1403     1
   1399   1401     1
   1399   1411     1
   1399   1408     1
   1399   1409     1
   1400   1401     1
   1400   1411     1
   1400   1408     1
   1400   1409     1
   1402   1410     1
   1402   1405     1
   1402   1406     1
   1403   1410     1
   1403   1405     1
   1403   1406     1
   1404   2865     1
   1405   1412     1
   1405   2864     1
   1406   1412     1
   1406   2864     1
   1407   2890     1
   1408   1413     1
   1408   2889     1
   1409   1413     1
   1409   2889     1
   1410   2845     1
   1410   2846     1
   1411   2870     1
   1411   2871     1
   1412   2865     1
   1413   2890     1
   1416   1440     1
   1416   1424     1
   1416   1425     1
   1416   1427     1
   1416   1428     1
   1417   1439     1
   1417   1420     1
   1417   1421     1
   1417   1423     1
   1417   1426     1
   1418   1439     1
   1418   1420     1
   1418   1421     1
   1418   1423     1
   1418   1426     1
   1420   1422     1
   1420   1440     1
   1421   1422     1
   1421   1440     1
   1422   1433     1
   1422   1434     1
   1422   1430     1
   1422   1431     1
   1423   1427     1
   1423   1428     1
   1424   1426     1
   1424   1436     1
   1424   1433     1
   1424   1434     1
   1425   1426     1
   1425   1436     1
   1425   1433     1
   1425   1434     1
   1427   1435     1
   1427   1430     1
   1427   1431     1
   1428   1435     1
   1428   1430     1
   1428   1431     1
   1429   2915     1
   1430   1437     1
   1430   2914     1
   1431   1437     1
   1431   2914     1
   1432   2940     1
   1433   1438     1
   1433   2939     1
   1434   1438     1
   1434   2939     1
   1435   2895     1
   1435   2896     1
   1436   2920     1
   1436   2921     1
   1437   2915     1
   1438   2940     1
   1441   1465     1
   1441   1449     1
   1441   1450     1
   1441   1452     1
   1441   1453     1
   1442   1464     1
   1442   1445     1
   1442   1446     1
   1442   1448     1
   1442   1451     1
   1443   1464     1
   1443   1445     1
   1443   1446     1
   1443   1448     1
   1443   1451     1
   1445   1447     1
   1445   1465     1
   1446   1447     1
   1446   1465     1
   1447   1458     1
   1447   1459     1
   1447   1455     1
   1447   1456     1
   1448   1452     1
   1448   1453     1
   1449   1451     1
   1449   1461     1
   1449   1458     1
   1449   1459     1
   1450   1451     1
   1450   1461     1
   1450   1458     1
   1450   1459     1
   1452   1460     1
   1452   1455     1
   1452   1456     1
   1453   1460     1
   1453   1455     1
   1453   1456     1
   1454   2965     1
   1455   1462     1
   1455   2964     1
   1456   1462     1
   1456   2964     1
   1457   2990     1
   1458   1463     1
   1458   2989     1
   1459   1463     1
   1459   2989     1
   1460   2945     1
   1460   2946     1
   1461   2970     1
   1461   2971     1
   1462   2965     1
   1463   2990     1
   1466   1490     1
   1466   1474     1
   1466   1475     1
   1466   1477     1
   1466   1478     1
   1467   1489     1
   1467   1470     1
   1467   1471     1
   1467   1473     1
   1467   1476     1
   1468   1489     1
   1468   1470     1
   1468   1471     1
   1468   1473     1
   1468   1476     1
   1470   1472     1
   1470   1490     1
   1471   1472     1
   1471   1490     1
   1472   1483     1
   1472   1484     1
   1472   1480     1
   1472   1481     1
   1473   1477     1
   1473   1478     1
   1474   1476     1
   1474   1486     1
   1474   1483     1
   1474   1484     1
   1475   1476     1
   1475   1486     1
   1475   1483     1
   1475   1484     1
   1477   1485     1
   1477   1480     1
   1477   1481     1
   1478   1485     1
   1478   1480     1
   1478   1481     1
   1479   3015     1
   1480   1487     1
   1480   3014     1
   1481   1487     1
   1481   3014     1
   1482   3040     1
   1483   1488     1
   1483   3039     1
   1484   1488     1
   1484   3039     1
   1485   2995     1
   1485   2996     1
   1486   3020     1
   1486   3021     1
   1487   3015     1
   1488   3040     1
   1491   1515     1
   1491   1499     1
   1491   1500     1
   1491   1502     1
   1491   1503     1
   1492   1514     1
   1492   1495     1
   1492   1496     1
   1492   1498     1
   1492   1501     1
   1493   1514     1
   1493   1495     1
   1493   1496     1
   1493   1498     1
   1493   1501     1
   1495   1497     1
   1495   1515     1
   1496   1497     1
   1496   1515     1
   1497   1508     1
   1497   1509     1
   1497   1505     1
   1497   1506     1
   1498   1502     1
   1498   1503     1
   1499   1501     1
   1499   1511     1
   1499   1508     1
   1499   1509     1
   1500   1501     1
   1500   1511     1
   1500   1508     1
   1500   1509     1
   1502   1510     1
   1502   1505     1
   1502   1506     1
   1503   1510     1
   1503   1505     1
   1503   1506     1
   1504   3065     1
   1505   1512     1
   1505   3064     1
   1506   1512     1
   1506   3064     1
   1507   3090     1
   1508   1513     1
   1508   3089     1
   1509   1513     1
   1509   3089     1
   1510   3045     1
   1510   3046     1
   1511   3070     1
   1511   3071     1
   1512   3065     1
   1513   3090     1
   1516   1540     1
   1516   1524     1
   1516   1525     1
   1516   1527     1
   1516   1528     1
   1517   1539     1
   1517   1520     1
   1517   1521     1
   1517   1523     1
   1517   1526     1
   1518   1539     1
   1518   1520     1
   1518   1521     1
   1518   1523     1
   1518   1526     1
   1520   1522     1
   1520   1540     1
   1521   1522     1
   1521   1540     1
   1522   1533     1
   1522   1534     1
   1522   1530     1
   1522   1531     1
   1523   1527     1
   1523   1528     1
   1524   1526     1
   1524   1536     1
   1524   1533     1
   1524   1534     1
   1525   1526     1
   1525   1536     1
   1525   1533     1
   1525   1534     1
   1527   1535     1
   1527   1530     1
   1527   1531     1
   1528   1535     1
   1528   1530     1
   1528   1531     1
   1529   3115     1
   1530   1537     1
   1530   3114     1
   1531   1537     1
   1531   3114     1
   1532   3140     1
   1533   1538     1
   1533   3139     1
   1534   1538     1
   1534   3139     1
   1535   3095     1
   1535   3096     1
   1536   3120     1
   1536   3121     1
   1537   3115     1
   1538   3140     1
   1541   1565     1
   1541   1549     1
   1541   1550     1
   1541   1552     1
   1541   1553     1
   1542   1564     1
   1542   1545     1
   1542   1546     1
   1542   1548     1
   1542   1551     1
   1543   1564     1
   1543   1545     1
   1543   1546     1
   1543   1548     1
   1543   1551     1
   1545   1547     1
   1545   1565     1
   1546   1547     1
   1546   1565     1
   1547   1558     1
   1547   1559     1
   1547   1555     1
   1547   1556     1
   1548   1552     1
   1548   1553     1
   1549   1551     1
   1549   1561     1
   1549   1558     1
   1549   1559     1
   1550   1551     1
   1550   1561     1
   1550   1558     1
   1550   1559     1
   1552   1560     1
   1552   1555     1
   1552   1556     1
   1553   1560     1
   1553   1555     1
   1553   1556     1
   1554   3151     1
   1555   3150     1
   1555   1562     1
   1556   3150     1
   1556   1562     1
   1557   3162     1
   1558   1563     1
   1558   3161     1
   1559   1563     1
   1559   3161     1
   1560   3142     1
   1560   3143     1
   1561   3153     1
   1561   3154     1
   1562   3151     1
   1563   3162     1
   1566   1590     1
   1566   1574     1
   1566   1575     1
   1566   1577     1
   1566   1578     1
   1567   1589     1
   1567   1570     1
   1567   1571     1
   1567   1573     1
   1567   1576     1
   1568   1589     1
   1568   1570     1
   1568   1571     1
   1568   1573     1
   1568   1576     1
   1570   1572     1
   1570   1590     1
   1571   1572     1
   1571   1590     1
   1572   1583     1
   1572   1584     1
   1572   1580     1
   1572   1581     1
   1573   1577     1
   1573   1578     1
   1574   1576     1
   1574   1586     1
   1574   1583     1
   1574   1584     1
   1575   1576     1
   1575   1586     1
   1575   1583     1
   1575   1584     1
   1577   1585     1
   1577   1580     1
   1577   1581     1
   1578   1585     1
   1578   1580     1
   1578   1581     1
   1579   3173     1
   1580   3172     1
   1580   1587     1
   1581   3172     1
   1581   1587     1
   1582   3184     1
   1583   1588     1
   1583   3183     1
   1584   1588     1
   1584   3183     1
   1585   3164     1
   1585   3165     1
   1586   3175     1
   1586   3176     1
   1587   3173     1
   1588   3184     1
   1591   1615     1
   1591   1599     1
   1591   1600     1
   1591   1602     1
   1591   1603     1
   1592   1614     1
   1592   1595     1
   1592   1596     1
   1592   1598     1
   1592   1601     1
   1593   1614     1
   1593   1595     1
   1593   1596     1
   1593   1598     1
   1593   1601     1
   1595   1597     1
   1595   1615     1
   1596   1597     1
   1596   1615     1
   1597   1608     1
   1597   1609     1
   1597   1605     1
   1597   1606     1
   1598   1602     1
   1598   1603     1
   1599   1601     1
   1599   1611     1
   1599   1608     1
   1599   1609     1
   1600   1601     1
   1600   1611     1
   1600   1608     1
   1600   1609     1
   1602   1610     1
   1602   1605     1
   1602   1606     1
   1603   1610     1
   1603   1605     1
   1603   1606     1
   1604   3195     1
   1605   3194     1
   1605   1612     1
   1606   3194     1
   1606   1612     1
   1607   3206     1
   1608   1613     1
   1608   3205     1
   1609   1613     1
   1609   3205     1
   1610   3186     1
   1610   3187     1
   1611   3197     1
   1611   3198     1
   1612   3195     1
   1613   3206     1
   1616   1640     1
   1616   1624     1
   1616   1625     1
   1616   1627     1
   1616   1628     1
   1617   1639     1
   1617   1620     1
   1617   1621     1
   1617   1623     1
   1617   1626     1
   1618   1639     1
   1618   1620     1
   1618   1621     1
   1618   1623     1
   1618   1626     1
   1620   1622     1
   1620   1640     1
   1621   1622     1
   1621   1640     1
   1622   1633     1
   1622   1634     1
   1622   1630     1
   1622   1631     1
   1623   1627     1
   1623   1628     1
   1624   1626     1
   1624   1636     1
   1624   1633     1
   1624   1634     1
   1625   1626     1
   1625   1636     1
   1625   1633     1
   1625   1634     1
   1627   1635     1
   1627   1630     1
   1627   1631     1
   1628   1635     1
   1628   1630     1
   1628   1631     1
   1629   3217     1
   1630   3216     1
   1630   1637     1
   1631   3216     1
   1631   1637     1
   1632   3228     1
   1633   1638     1
   1633   3227     1
   1634   1638     1
   1634   3227     1
   1635   3208     1
   1635   3209     1
   1636   3219     1
   1636   3220     1
   1637   3217     1
   1638   3228     1
   1641   1665     1
   1641   1649     1
   1641   1650     1
   1641   1652     1
   1641   1653     1
   1642   1664     1
   1642   1645     1
   1642   1646     1
   1642   1648     1
   1642   1651     1
   1643   1664     1
   1643   1645     1
   1643   1646     1
   1643   1648     1
   1643   1651     1
   1645   1647     1
   1645   1665     1
   1646   1647     1
   1646   1665     1
   1647   1658     1
   1647   1659     1
   1647   1655     1
   1647   1656     1
   1648   1652     1
   1648   1653     1
   1649   1651     1
   1649   1661     1
   1649   1658     1
   1649   1659     1
   1650   1651     1
   1650   1661     1
   1650   1658     1
   1650   1659     1
   1652   1660     1
   1652   1655     1
   1652   1656     1
   1653   1660     1
   1653   1655     1
   1653   1656     1
   1654   3239     1
   1655   3238     1
   1655   1662     1
   1656   3238     1
   1656   1662     1
   1657   3250     1
   1658   1663     1
   1658   3249     1
   1659   1663     1
   1659   3249     1
   1660   3230     1
   1660   3231     1
   1661   3241     1
   1661   3242     1
   1662   3239     1
   1663   3250     1
   1666   1690     1
   1666   1674     1
   1666   1675     1
   1666   1677     1
   1666   1678     1
   1667   1689     1
   1667   1670     1
   1667   1671     1
   1667   1673     1
   1667   1676     1
   1668   1689     1
   1668   1670     1
   1668   1671     1
   1668   1673     1
   1668   1676     1
   1670   1672     1
   1670   1690     1
   1671   1672     1
   1671   1690     1
   1672   1683     1
   1672   1684     1
   1672   1680     1
   1672   1681     1
   1673   1677     1
   1673   1678     1
   1674   1676     1
   1674   1686     1
   1674   1683     1
   1674   1684     1
   1675   1676     1
   1675   1686     1
   1675   1683     1
   1675   1684     1
   1677   1685     1
   1677   1680     1
   1677   1681     1
   1678   1685     1
   1678   1680     1
   1678   1681     1
   1679   3261     1
   1680   3260     1
   1680   1687     1
   1681   3260     1
   1681   1687     1
   1682   3272     1
   1683   1688     1
   1683   3271     1
   1684   1688     1
   1684   3271     1
   1685   3252     1
   1685   3253     1
   1686   3263     1
   1686   3264     1
   1687   3261     1
   1688   3272     1
   1691   1715     1
   1691   1699     1
   1691   1700     1
   1691   1702     1
   1691   1703     1
   1692   1714     1
   1692   1695     1
   1692   1696     1
   1692   1698     1
   1692   1701     1
   1693   1714     1
   1693   1695     1
   1693   1696     1
   1693   1698     1
   1693   1701     1
   1695   1697     1
   1695   1715     1
   1696   1697     1
   1696   1715     1
   1697   1708     1
   1697   1709     1
   1697   1705     1
   1697   1706     1
   1698   1702     1
   1698   1703     1
   1699   1701     1
   1699   1711     1
   1699   1708     1
   1699   1709     1
   1700   1701     1
   1700   1711     1
   1700   1708     1
   1700   1709     1
   1702   1710     1
   1702   1705     1
   1702   1706     1
   1703   1710     1
   1703   1705     1
   1703   1706     1
   1704   3283     1
   1705   3282     1
   1705   1712     1
   1706   3282     1
   1706   1712     1
   1707   3294     1
   1708   1713     1
   1708   3293     1
   1709   1713     1
   1709   3293     1
   1710   3274     1
   1710   3275     1
   1711   3285     1
   1711   3286     1
   1712   3283     1
   1713   3294     1
   1716   1740     1
   1716   1724     1
   1716   1725     1
   1716   1727     1
   1716   1728     1
   1717   1739     1
   1717   1720     1
   1717   1721     1
   1717   1723     1
   1717   1726     1
   1718   1739     1
   1718   1720     1
   1718   1721     1
   1718   1723     1
   1718   1726     1
   1720   1722     1
   1720   1740     1
   1721   1722     1
   1721   1740     1
   1722   1733     1
   1722   1734     1
   1722   1730     1
   1722   1731     1
   1723   1727     1
   1723   1728     1
   1724   1726     1
   1724   1736     1
   1724   1733     1
   1724   1734     1
   1725   1726     1
   1725   1736     1
   1725   1733     1
   1725   1734     1
   1727   1735     1
   1727   1730     1
   1727   1731     1
   1728   1735     1
   1728   1730     1
   1728   1731     1
   1729   3305     1
   1730   3304     1
   1730   1737     1
   1731   3304     1
   1731   1737     1
   1732   3316     1
   1733   1738     1
   1733   3315     1
   1734   1738     1
   1734   3315     1
   1735   3296     1
   1735   3297     1
   1736   3307     1
   1736   3308     1
   1737   3305     1
   1738   3316     1
   1741   1765     1
   1741   1749     1
   1741   1750     1
   1741   1752     1
   1741   1753     1
   1742   1764     1
   1742   1745     1
   1742   1746     1
   1742   1748     1
   1742   1751     1
   1743   1764     1
   1743   1745     1
   1743   1746     1
   1743   1748     1
   1743   1751     1
   1745   1747     1
   1745   1765     1
   1746   1747     1
   1746   1765     1
   1747   1758     1
   1747   1759     1
   1747   1755     1
   1747   1756     1
   1748   1752     1
   1748   1753     1
   1749   1751     1
   1749   1761     1
   1749   1758     1
   1749   1759     1
   1750   1751     1
   1750   1761     1
   1750   1758     1
   1750   1759     1
   1752   1760     1
   1752   1755     1
   1752   1756     1
   1753   1760     1
   1753   1755     1
   1753   1756     1
   1754   3327     1
   1755   3326     1
   1755   1762     1
   1756   3326     1
   1756   1762     1
   1757   3338     1
   1758   1763     1
   1758   3337     1
   1759   1763     1
   1759   3337     1
   1760   3318     1
   1760   3319     1
   1761   3329     1
   1761   3330     1
   1762   3327     1
   1763   3338     1
   1766   1790     1
   1766   1774     1
   1766   1775     1
   1766   1777     1
   1766   1778     1
   1767   1789     1
   1767   1770     1
   1767   1771     1
   1767   1773     1
   1767   1776     1
   1768   1789     1
   1768   1770     1
   1768   1771     1
   1768   1773     1
   1768   1776     1
   1770   1772     1
   1770   1790     1
   1771   1772     1
   1771   1790     1
   1772   1783     1
   1772   1784     1
   1772   1780     1
   1772   1781     1
   1773   1777     1
   1773   1778     1
   1774   1776     1
   1774   1786     1
   1774   1783     1
   1774   1784     1
   1775   1776     1
   1775   1786     1
   1775   1783     1
   1775   1784     1
   1777   1785     1
   1777   1780     1
   1777   1781     1
   1778   1785     1
   1778   1780     1
   1778   1781     1
   1779   3349     1
   1780   3348     1
   1780   1787     1
   1781   3348     1
   1781   1787     1
   1782   3360     1
   1783   1788     1
   1783   3359     1
   1784   1788     1
   1784   3359     1
   1785   3340     1
   1785   3341     1
   1786   3351     1
   1786   3352     1
   1787   3349     1
   1788   3360     1
   1791   1815     1
   1791   1799     1
   1791   1800     1
   1791   1802     1
   1791   1803     1
   1792   1814     1
   1792   1795     1
   1792   1796     1
   1792   1798     1
   1792   1801     1
   1793   1814     1
   1793   1795     1
   1793   1796     1
   1793   1798     1
   1793   1801     1
   1795   1797     1
   1795   1815     1
   1796   1797     1
   1796   1815     1
   1797   1808     1
   1797   1809     1
   1797   1805     1
   1797   1806     1
   1798   1802     1
   1798   1803     1
   1799   1801     1
   1799   1811     1
   1799   1808     1
   1799   1809     1
   1800   1801     1
   1800   1811     1
   1800   1808     1
   1800   1809     1
   1802   1810     1
   1802   1805     1
   1802   1806     1
   1803   1810     1
   1803   1805     1
   1803   1806     1
   1804   3371     1
   1805   3370     1
   1805   1812     1
   1806   3370     1
   1806   1812     1
   1807   3382     1
   1808   1813     1
   1808   3381     1
   1809   1813     1
   1809   3381     1
   1810   3362     1
   1810   3363     1
   1811   3373     1
   1811   3374     1
   1812   3371     1
   1813   3382     1
   1816   1840     1
   1816   1824     1
   1816   1825     1
   1816   1827     1
   1816   1828     1
   1817   1839     1
   1817   1820     1
   1817   1821     1
   1817   1823     1
   1817   1826     1
   1818   1839     1
   1818   1820     1
   1818   1821     1
   1818   1823     1
   1818   1826     1
   1820   1822     1
   1820   1840     1
   1821   1822     1
   1821   1840     1
   1822   1833     1
   1822   1834     1
   1822   1830     1
   1822   1831     1
   1823   1827     1
   1823   1828     1
   1824   1826     1
   1824   1836     1
   1824   1833     1
   1824   1834     1
   1825   1826     1
   1825   1836     1
   1825   1833     1
   1825   1834     1
   1827   1835     1
   1827   1830     1
   1827   1831     1
   1828   1835     1
   1828   1830     1
   1828   1831     1
   1829   3393     1
   1830   3392     1
   1830   1837     1
   1831   3392     1
   1831   1837     1
   1832   3404     1
   1833   1838     1
   1833   3403     1
   1834   1838     1
   1834   3403     1
   1835   3384     1
   1835   3385     1
   1836   3395     1
   1836   3396     1
   1837   3393     1
   1838   3404     1
   1841   1865     1
   1841   1849     1
   1841   1850     1
   1841   1852     1
   1841   1853     1
   1842   1864     1
   1842   1845     1
   1842   1846     1
   1842   1848     1
   1842   1851     1
   1843   1864     1
   1843   1845     1
   1843   1846     1
   1843   1848     1
   1843   1851     1
   1845   1847     1
   1845   1865     1
   1846   1847     1
   1846   1865     1
   1847   1858     1
   1847   1859     1
   1847   1855     1
   1847   1856     1
   1848   1852     1
   1848   1853     1
   1849   1851     1
   1849   1861     1
   1849   1858     1
   1849   1859     1
   1850   1851     1
   1850   1861     1
   1850   1858     1
   1850   1859     1
   1852   1860     1
   1852   1855     1
   1852   1856     1
   1853   1860     1
   1853   1855     1
   1853   1856     1
   1854   3415     1
   1855   3414     1
   1855   1862     1
   1856   3414     1
   1856   1862     1
   1857   3426     1
   1858   1863     1
   1858   3425     1
   1859   1863     1
   1859   3425     1
   1860   3406     1
   1860   3407     1
   1861   3417     1
   1861   3418     1
   1862   3415     1
   1863   3426     1
   1866   1890     1
   1866   1874     1
   1866   1875     1
   1866   1877     1
   1866   1878     1
   1867   1889     1
   1867   1870     1
   1867   1871     1
   1867   1873     1
   1867   1876     1
   1868   1889     1
   1868   1870     1
   1868   1871     1
   1868   1873     1
   1868   1876     1
   1870   1872     1
   1870   1890     1
   1871   1872     1
   1871   1890     1
   1872   1883     1
   1872   1884     1
   1872   1880     1
   1872   1881     1
   1873   1877     1
   1873   1878     1
   1874   1876     1
   1874   1886     1
   1874   1883     1
   1874   1884     1
   1875   1876     1
   1875   1886     1
   1875   1883     1
   1875   1884     1
   1877   1885     1
   1877   1880     1
   1877   1881     1
   1878   1885     1
   1878   1880     1
   1878   1881     1
   1879   3437     1
   1880   3436     1
   1880   1887     1
   1881   3436     1
   1881   1887     1
   1882   3448     1
   1883   1888     1
   1883   3447     1
   1884   1888     1
   1884   3447     1
   1885   3428     1
   1885   3429     1
   1886   3439     1
   1886   3440     1
   1887   3437     1
   1888   3448     1
   1891   1915     1
   1891   1899     1
   1891   1900     1
   1891   1902     1
   1891   1903     1
   1892   1914     1
   1892   1895     1
   1892   1896     1
   1892   1898     1
   1892   1901     1
   1893   1914     1
   1893   1895     1
   1893   1896     1
   1893   1898     1
   1893   1901     1
   1895   1897     1
   1895   1915     1
   1896   1897     1
   1896   1915     1
   1897   1908     1
   1897   1909     1
   1897   1905     1
   1897   1906     1
   1898   1902     1
   1898   1903     1
   1899   1901     1
   1899   1911     1
   1899   1908     1
   1899   1909     1
   1900   1901     1
   1900   1911     1
   1900   1908     1
   1900   1909     1
   1902   1910     1
   1902   1905     1
   1902   1906     1
   1903   1910     1
   1903   1905     1
   1903   1906     1
   1904   3459     1
   1905   3458     1
   1905   1912     1
   1906   3458     1
   1906   1912     1
   1907   3470     1
   1908   1913     1
   1908   3469     1
   1909   1913     1
   1909   3469     1
   1910   3450     1
   1910   3451     1
   1911   3461     1
   1911   3462     1
   1912   3459     1
   1913   3470     1
   1916   1940     1
   1916   1924     1
   1916   1925     1
   1916   1927     1
   1916   1928     1
   1917   1939     1
   1917   1920     1
   1917   1921     1
   1917   1923     1
   1917   1926     1
   1918   1939     1
   1918   1920     1
   1918   1921     1
   1918   1923     1
   1918   1926     1
   1920   1922     1
   1920   1940     1
   1921   1922     1
   1921   1940     1
   1922   1933     1
   1922   1934     1
   1922   1930     1
   1922   1931     1
   1923   1927     1
   1923   1928     1
   1924   1926     1
   1924   1936     1
   1924   1933     1
   1924   1934     1
   1925   1926     1
   1925   1936     1
   1925   1933     1
   1925   1934     1
   1927   1935     1
   1927   1930     1
   1927   1931     1
   1928   1935     1
   1928   1930     1
   1928   1931     1
   1929   3481     1
   1930   3480     1
   1930   1937     1
   1931   3480     1
   1931   1937     1
   1932   3492     1
   1933   1938     1
   1933   3491     1
   1934   1938     1
   1934   3491     1
   1935   3472     1
   1935   3473     1
   1936   3483     1
   1936   3484     1
   1937   3481     1
   1938   3492     1
   1941   1965     1
   1941   1949     1
   1941   1950     1
   1941   1952     1
   1941   1953     1
   1942   1964     1
   1942   1945     1
   1942   1946     1
   1942   1948     1
   1942   1951     1
   1943   1964     1
   1943   1945     1
   1943   1946     1
   1943   1948     1
   1943   1951     1
   1945   1947     1
   1945   1965     1
   1946   1947     1
   1946   1965     1
   1947   1958     1
   1947   1959     1
   1947   1955     1
   1947   1956     1
   1948   1952     1
   1948   1953     1
   1949   1951     1
   1949   1961     1
   1949   1958     1
   1949   1959     1
   1950   1951     1
   1950   1961     1
   1950   1958     1
   1950   1959     1
   1952   1960     1
   1952   1955     1
   1952   1956     1
   1953   1960     1
   1953   1955     1
   1953   1956     1
   1954   3503     1
   1955   3502     1
   1955   1962     1
   1956   3502     1
   1956   1962     1
   1957   3514     1
   1958   1963     1
   1958   3513     1
   1959   1963     1
   1959   3513     1
   1960   3494     1
   1960   3495     1
   1961   3505     1
   1961   3506     1
   1962   3503     1
   1963   3514     1
   1966   1990     1
   1966   1974     1
   1966   1975     1
   1966   1977     1
   1966   1978     1
   1967   1989     1
   1967   1970     1
   1967   1971     1
   1967   1973     1
   1967   1976     1
   1968   1989     1
   1968   1970     1
   1968   1971     1
   1968   1973     1
   1968   1976     1
   1970   1972     1
   1970   1990     1
   1971   1972     1
   1971   1990     1
   1972   1983     1
   1972   1984     1
   1972   1980     1
   1972   1981     1
   1973   1977     1
   1973   1978     1
   1974   1976     1
   1974   1986     1
   1974   1983     1
   1974   1984     1
   1975   1976     1
   1975   1986     1
   1975   1983     1
   1975   1984     1
   1977   1985     1
   1977   1980     1
   1977   1981     1
   1978   1985     1
   1978   1980     1
   1978   1981     1
   1979   3525     1
   1980   3524     1
   1980   1987     1
   1981   3524     1
   1981   1987     1
   1982   3536     1
   1983   1988     1
   1983   3535     1
   1984   1988     1
   1984   3535     1
   1985   3516     1
   1985   3517     1
   1986   3527     1
   1986   3528     1
   1987   3525     1
   1988   3536     1
   1991   2015     1
   1991   1999     1
   1991   2000     1
   1991   2002     1
   1991   2003     1
   1992   2014     1
   1992   1995     1
   1992   1996     1
   1992   1998     1
   1992   2001     1
   1993   2014     1
   1993   1995     1
   1993   1996     1
   1993   1998     1
   1993   2001     1
   1995   1997     1
   1995   2015     1
   1996   1997     1
   1996   2015     1
   1997   2008     1
   1997   2009     1
   1997   2005     1
   1997   2006     1
   1998   2002     1
   1998   2003     1
   1999   2001     1
   1999   2011     1
   1999   2008     1
   1999   2009     1
   2000   2001     1
   2000   2011     1
   2000   2008     1
   2000   2009     1
   2002   2010     1
   2002   2005     1
   2002   2006     1
   2003   2010     1
   2003   2005     1
   2003   2006     1
   2004   3547     1
   2005   3546     1
   2005   2012     1
   2006   3546     1
   2006   2012     1
   2007   3558     1
   2008   2013     1
   2008   3557     1
   2009   2013     1
   2009   3557     1
   2010   3538     1
   2010   3539     1
   2011   3549     1
   2011   3550     1
   2012   3547     1
   2013   3558     1
   2016   2040     1
   2016   2024     1
   2016   2025     1
   2016   2027     1
   2016   2028     1
   2017   2039     1
   2017   2020     1
   2017   2021     1
   2017   2023     1
   2017   2026     1
   2018   2039     1
   2018   2020     1
   2018   2021     1
   2018   2023     1
   2018   2026     1
   2020   2022     1
   2020   2040     1
   2021   2022     1
   2021   2040     1
   2022   2033     1
   2022   2034     1
   2022   2030     1
   2022   2031     1
   2023   2027     1
   2023   2028     1
   2024   2026     1
   2024   2036     1
   2024   2033     1
   2024   2034     1
   2025   2026     1
   2025   2036     1
   2025   2033     1
   2025   2034     1
   2027   2035     1
   2027   2030     1
   2027   2031     1
   2028   2035     1
   2028   2030     1
   2028   2031     1
   2029   3569     1
   2030   3568     1
   2030   2037     1
   2031   3568     1
   2031   2037     1
   2032   3580     1
   2033   2038     1
   2033   3579     1
   2034   2038     1
   2034   3579     1
   2035   3560     1
   2035   3561     1
   2036   3571     1
   2036   3572     1
   2037   3569     1
   2038   3580     1
   2041   2065     1
   2041   2049     1
   2041   2050     1
   2041   2052     1
   2041   2053     1
   2042   2064     1
   2042   2045     1
   2042   2046     1
   2042   2048     1
   2042   2051     1
   2043   2064     1
   2043   2045     1
   2043   2046     1
   2043   2048     1
   2043   2051     1
   2045   2047     1
   2045   2065     1
   2046   2047     1
   2046   2065     1
   2047   2058     1
   2047   2059     1
   2047   2055     1
   2047   2056     1
   2048   2052     1
   2048   2053     1
   2049   2051     1
   2049   2061     1
   2049   2058     1
   2049   2059     1
   2050   2051     1
   2050   2061     1
   2050   2058     1
   2050   2059     1
   2052   2060     1
   2052   2055     1
   2052   2056     1
   2053   2060     1
   2053   2055     1
   2053   2056     1
   2054   3591     1
   2055   3590     1
   2055   2062     1
   2056   3590     1
   2056   2062     1
   2057   3602     1
   2058   2063     1
   2058   3601     1
   2059   2063     1
   2059   3601     1
   2060   3582     1
   2060   3583     1
   2061   3593     1
   2061   3594     1
   2062   3591     1
   2063   3602     1
   2066   2090     1
   2066   2074     1
   2066   2075     1
   2066   2077     1
   2066   2078     1
   2067   2089     1
   2067   2070     1
   2067   2071     1
   2067   2073     1
   2067   2076     1
   2068   2089     1
   2068   2070     1
   2068   2071     1
   2068   2073     1
   2068   2076     1
   2070   2072     1
   2070   2090     1
   2071   2072     1
   2071   2090     1
   2072   2083     1
   2072   2084     1
   2072   2080     1
   2072   2081     1
   2073   2077     1
   2073   2078     1
   2074   2076     1
   2074   2086     1
   2074   2083     1
   2074   2084     1
   2075   2076     1
   2075   2086     1
   2075   2083     1
   2075   2084     1
   2077   2085     1
   2077   2080     1
   2077   2081     1
   2078   2085     1
   2078   2080     1
   2078   2081     1
   2079   3613     1
   2080   3612     1
   2080   2087     1
   2081   3612     1
   2081   2087     1
   2082   3624     1
   2083   2088     1
   2083   3623     1
   2084   2088     1
   2084   3623     1
   2085   3604     1
   2085   3605     1
   2086   3615     1
   2086   3616     1
   2087   3613     1
   2088   3624     1
   2091   2115     1
   2091   2099     1
   2091   2100     1
   2091   2102     1
   2091   2103     1
   2092   2114     1
   2092   2095     1
   2092   2096     1
   2092   2098     1
   2092   2101     1
   2093   2114     1
   2093   2095     1
   2093   2096     1
   2093   2098     1
   2093   2101     1
   2095   2097     1
   2095   2115     1
   2096   2097     1
   2096   2115     1
   2097   2108     1
   2097   2109     1
   2097   2105     1
   2097   2106     1
   2098   2102     1
   2098   2103     1
   2099   2101     1
   2099   2111     1
   2099   2108     1
   2099   2109     1
   2100   2101     1
   2100   2111     1
   2100   2108     1
   2100   2109     1
   2102   2110     1
   2102   2105     1
   2102   2106     1
   2103   2110     1
   2103   2105     1
   2103   2106     1
   2104   3635     1
   2105   3634     1
   2105   2112     1
   2106   3634     1
   2106   2112     1
   2107   3646     1
   2108   2113     1
   2108   3645     1
   2109   2113     1
   2109   3645     1
   2110   3626     1
   2110   3627     1
   2111   3637     1
   2111   3638     1
   2112   3635     1
   2113   3646     1
   2116   2140     1
   2116   2124     1
   2116   2125     1
   2116   2127     1
   2116   2128     1
   2117   2139     1
   2117   2120     1
   2117   2121     1
   2117   2123     1
   2117   2126     1
   2118   2139     1
   2118   2120     1
   2118   2121     1
   2118   2123     1
   2118   2126     1
   2120   2122     1
   2120   2140     1
   2121   2122     1
   2121   2140     1
   2122   2133     1
   2122   2134     1
   2122   2130     1
   2122   2131     1
   2123   2127     1
   2123   2128     1
   2124   2126     1
   2124   2136     1
   2124   2133     1
   2124   2134     1
   2125   2126     1
   2125   2136     1
   2125   2133     1
   2125   2134     1
   2127   2135     1
   2127   2130     1
   2127   2131     1
   2128   2135     1
   2128   2130     1
   2128   2131     1
   2129   3657     1
   2130   3656     1
   2130   2137     1
   2131   3656     1
   2131   2137     1
   2132   3668     1
   2133   2138     1
   2133   3667     1
   2134   2138     1
   2134   3667     1
   2135   3648     1
   2135   3649     1
   2136   3659     1
   2136   3660     1
   2137   3657     1
   2138   3668     1
   2141   2165     1
   2141   2149     1
   2141   2150     1
   2141   2152     1
   2141   2153     1
   2142   2164     1
   2142   2145     1
   2142   2146     1
   2142   2148     1
   2142   2151     1
   2143   2164     1
   2143   2145     1
   2143   2146     1
   2143   2148     1
   2143   2151     1
   2145   2147     1
   2145   2165     1
   2146   2147     1
   2146   2165     1
   2147   2158     1
   2147   2159     1
   2147   2155     1
   2147   2156     1
   2148   2152     1
   2148   2153     1
   2149   2151     1
   2149   2161     1
   2149   2158     1
   2149   2159     1
   2150   2151     1
   2150   2161     1
   2150   2158     1
   2150   2159     1
   2152   2160     1
   2152   2155     1
   2152   2156     1
   2153   2160     1
   2153   2155     1
   2153   2156     1
   2154   3679     1
   2155   3678     1
   2155   2162     1
   2156   3678     1
   2156   2162     1
   2157   3690     1
   2158   2163     1
   2158   3689     1
   2159   2163     1
   2159   3689     1
   2160   3670     1
   2160   3671     1
   2161   3681     1
   2161   3682     1
   2162   3679     1
   2163   3690     1
   2166   2190     1
   2166   2174     1
   2166   2175     1
   2166   2177     1
   2166   2178     1
   2167   2189     1
   2167   2170     1
   2167   2171     1
   2167   2173     1
   2167   2176     1
   2168   2189     1
   2168   2170     1
   2168   2171     1
   2168   2173     1
   2168   2176     1
   2170   2172     1
   2170   2190     1
   2171   2172     1
   2171   2190     1
   2172   2183     1
   2172   2184     1
   2172   2180     1
   2172   2181     1
   2173   2177     1
   2173   2178     1
   2174   2176     1
   2174   2186     1
   2174   2183     1
   2174   2184     1
   2175   2176     1
   2175   2186     1
   2175   2183     1
   2175   2184     1
   2177   2185     1
   2177   2180     1
   2177   2181     1
   2178   2185     1
   2178   2180     1
   2178   2181     1
   2179   3701     1
   2180   3700     1
   2180   2187     1
   2181   3700     1
   2181   2187     1
   2182   3712     1
   2183   2188     1
   2183   3711     1
   2184   2188     1
   2184   3711     1
   2185   3692     1
   2185   3693     1
   2186   3703     1
   2186   3704     1
   2187   3701     1
   2188   3712     1
   2191   2215     1
   2191   2199     1
   2191   2200     1
   2191   2202     1
   2191   2203     1
   2192   2214     1
   2192   2195     1
   2192   2196     1
   2192   2198     1
   2192   2201     1
   2193   2214     1
   2193   2195     1
   2193   2196     1
   2193   2198     1
   2193   2201     1
   2195   2197     1
   2195   2215     1
   2196   2197     1
   2196   2215     1
   2197   2208     1
   2197   2209     1
   2197   2205     1
   2197   2206     1
   2198   2202     1
   2198   2203     1
   2199   2201     1
   2199   2211     1
   2199   2208     1
   2199   2209     1
   2200   2201     1
   2200   2211     1
   2200   2208     1
   2200   2209     1
   2202   2210     1
   2202   2205     1
   2202   2206     1
   2203   2210     1
   2203   2205     1
   2203   2206     1
   2204   3723     1
   2205   3722     1
   2205   2212     1
   2206   3722     1
   2206   2212     1
   2207   3734     1
   2208   2213     1
   2208   3733     1
   2209   2213     1
   2209   3733     1
   2210   3714     1
   2210   3715     1
   2211   3725     1
   2211   3726     1
   2212   3723     1
   2213   3734     1
   2216   2240     1
   2216   2224     1
   2216   2225     1
   2216   2227     1
   2216   2228     1
   2217   2239     1
   2217   2220     1
   2217   2221     1
   2217   2223     1
   2217   2226     1
   2218   2239     1
   2218   2220     1
   2218   2221     1
   2218   2223     1
   2218   2226     1
   2220   2222     1
   2220   2240     1
   2221   2222     1
   2221   2240     1
   2222   2233     1
   2222   2234     1
   2222   2230     1
   2222   2231     1
   2223   2227     1
   2223   2228     1
   2224   2226     1
   2224   2236     1
   2224   2233     1
   2224   2234     1
   2225   2226     1
   2225   2236     1
   2225   2233     1
   2225   2234     1
   2227   2235     1
   2227   2230     1
   2227   2231     1
   2228   2235     1
   2228   2230     1
   2228   2231     1
   2229   3745     1
   2230   3744     1
   2230   2237     1
   2231   3744     1
   2231   2237     1
   2232   3756     1
   2233   2238     1
   2233   3755     1
   2234   2238     1
   2234   3755     1
   2235   3736     1
   2235   3737     1
   2236   3747     1
   2236   3748     1
   2237   3745     1
   2238   3756     1
   2241   2265     1
   2241   2249     1
   2241   2250     1
   2241   2252     1
   2241   2253     1
   2242   2264     1
   2242   2245     1
   2242   2246     1
   2242   2248     1
   2242   2251     1
   2243   2264     1
   2243   2245     1
   2243   2246     1
   2243   2248     1
   2243   2251     1
   2245   2247     1
   2245   2265     1
   2246   2247     1
   2246   2265     1
   2247   2258     1
   2247   2259     1
   2247   2255     1
   2247   2256     1
   2248   2252     1
   2248   2253     1
   2249   2251     1
   2249   2261     1
   2249   2258     1
   2249   2259     1
   2250   2251     1
   2250   2261     1
   2250   2258     1
   2250   2259     1
   2252   2260     1
   2252   2255     1
   2252   2256     1
   2253   2260     1
   2253   2255     1
   2253   2256     1
   2254   3767     1
   2255   3766     1
   2255   2262     1
   2256   3766     1
   2256   2262     1
   2257   3778     1
   2258   2263     1
   2258   3777     1
   2259   2263     1
   2259   3777     1
   2260   3758     1
   2260   3759     1
   2261   3769     1
   2261   3770     1
   2262   3767     1
   2263   3778     1
   2266   2290     1
   2266   2274     1
   2266   2275     1
   2266   2277     1
   2266   2278     1
   2267   2289     1
   2267   2270     1
   2267   2271     1
   2267   2273     1
   2267   2276     1
   2268   2289     1
   2268   2270     1
   2268   2271     1
   2268   2273     1
   2268   2276     1
   2270   2272     1
   2270   2290     1
   2271   2272     1
   2271   2290     1
   2272   2283     1
   2272   2284     1
   2272   2280     1
   2272   2281     1
   2273   2277     1
   2273   2278     1
   2274   2276     1
   2274   2286     1
   2274   2283     1
   2274   2284     1
   2275   2276     1
   2275   2286     1
   2275   2283     1
   2275   2284     1
   2277   2285     1
   2277   2280     1
   2277   2281     1
   2278   2285     1
   2278   2280     1
   2278   2281     1
   2279   3789     1
   2280   3788     1
   2280   2287     1
   2281   3788     1
   2281   2287     1
   2282   3800     1
   2283   2288     1
   2283   3799     1
   2284   2288     1
   2284   3799     1
   2285   3780     1
   2285   3781     1
   2286   3791     1
   2286   3792     1
   2287   3789     1
   2288   3800     1
   2291   2315     1
   2291   2299     1
   2291   2300     1
   2291   2302     1
   2291   2303     1
   2292   2314     1
   2292   2295     1
   2292   2296     1
   2292   2298     1
   2292   2301     1
   2293   2314     1
   2293   2295     1
   2293   2296     1
   2293   2298     1
   2293   2301     1
   2295   2297     1
   2295   2315     1
   2296   2297     1
   2296   2315     1
   2297   2308     1
   2297   2309     1
   2297   2305     1
   2297   2306     1
   2298   2302     1
   2298   2303     1
   2299   2301     1
   2299   2311     1
   2299   2308     1
   2299   2309     1
   2300   2301     1
   2300   2311     1
   2300   2308     1
   2300   2309     1
   2302   2310     1
   2302   2305     1
   2302   2306     1
   2303   2310     1
   2303   2305     1
   2303   2306     1
   2304   3811     1
   2305   3810     1
   2305   2312     1
   2306   3810     1
   2306   2312     1
   2307   3822     1
   2308   2313     1
   2308   3821     1
   2309   2313     1
   2309   3821     1
   2310   3802     1
   2310   3803     1
   2311   3813     1
   2311   3814     1
   2312   3811     1
   2313   3822     1
   2316   2340     1
   2316   2324     1
   2316   2325     1
   2316   2327     1
   2316   2328     1
   2317   2339     1
   2317   2320     1
   2317   2321     1
   2317   2323     1
   2317   2326     1
   2318   2339     1
   2318   2320     1
   2318   2321     1
   2318   2323     1
   2318   2326     1
   2320   2322     1
   2320   2340     1
   2321   2322     1
   2321   2340     1
   2322   2333     1
   2322   2334     1
   2322   2330     1
   2322   2331     1
   2323   2327     1
   2323   2328     1
   2324   2326     1
   2324   2336     1
   2324   2333     1
   2324   2334     1
   2325   2326     1
   2325   2336     1
   2325   2333     1
   2325   2334     1
   2327   2335     1
   2327   2330     1
   2327   2331     1
   2328   2335     1
   2328   2330     1
   2328   2331     1
   2329   3833     1
   2330   3832     1
   2330   2337     1
   2331   3832     1
   2331   2337     1
   2332   3844     1
   2333   2338     1
   2333   3843     1
   2334   2338     1
   2334   3843     1
   2335   3824     1
   2335   3825     1
   2336   3835     1
   2336   3836     1
   2337   3833     1
   2338   3844     1
   2341   2365     1
   2341   2349     1
   2341   2350     1
   2341   2352     1
   2341   2353     1
   2342   2364     1
   2342   2345     1
   2342   2346     1
   2342   2348     1
   2342   2351     1
   2343   2364     1
   2343   2345     1
   2343   2346     1
   2343   2348     1
   2343   2351     1
   2345   2347     1
   2345   2365     1
   2346   2347     1
   2346   2365     1
   2347   2358     1
   2347   2359     1
   2347   2355     1
   2347   2356     1
   2348   2352     1
   2348   2353     1
   2349   2351     1
   2349   2361     1
   2349   2358     1
   2349   2359     1
   2350   2351     1
   2350   2361     1
   2350   2358     1
   2350   2359     1
   2352   2360     1
   2352   2355     1
   2352   2356     1
   2353   2360     1
   2353   2355     1
   2353   2356     1
   2354   3855     1
   2355   3854     1
   2355   2362     1
   2356   3854     1
   2356   2362     1
   2357   3866     1
   2358   2363     1
   2358   3865     1
   2359   2363     1
   2359   3865     1
   2360   3846     1
   2360   3847     1
   2361   3857     1
   2361   3858     1
   2362   3855     1
   2363   3866     1
   2366   2390     1
   2366   2374     1
   2366   2375     1
   2366   2377     1
   2366   2378     1
   2367   2389     1
   2367   2370     1
   2367   2371     1
   2367   2373     1
   2367   2376     1
   2368   2389     1
   2368   2370     1
   2368   2371     1
   2368   2373     1
   2368   2376     1
   2370   2372     1
   2370   2390     1
   2371   2372     1
   2371   2390     1
   2372   2383     1
   2372   2384     1
   2372   2380     1
   2372   2381     1
   2373   2377     1
   2373   2378     1
   2374   2376     1
   2374   2386     1
   2374   2383     1
   2374   2384     1
   2375   2376     1
   2375   2386     1
   2375   2383     1
   2375   2384     1
   2377   2385     1
   2377   2380     1
   2377   2381     1
   2378   2385     1
   2378   2380     1
   2378   2381     1
   2379   3877     1
   2380   3876     1
   2380   2387     1
   2381   3876     1
   2381   2387     1
   2382   3888     1
   2383   2388     1
   2383   3887     1
   2384   2388     1
   2384   3887     1
   2385   3868     1
   2385   3869     1
   2386   3879     1
   2386   3880     1
   2387   3877     1
   2388   3888     1
   2391   2415     1
   2391   2399     1
   2391   2400     1
   2391   2402     1
   2391   2403     1
   2392   2414     1
   2392   2395     1
   2392   2396     1
   2392   2398     1
   2392   2401     1
   2393   2414     1
   2393   2395     1
   2393   2396     1
   2393   2398     1
   2393   2401     1
   2395   2397     1
   2395   2415     1
   2396   2397     1
   2396   2415     1
   2397   2408     1
   2397   2409     1
   2397   2405     1
   2397   2406     1
   2398   2402     1
   2398   2403     1
   2399   2401     1
   2399   2411     1
   2399   2408     1
   2399   2409     1
   2400   2401     1
   2400   2411     1
   2400   2408     1
   2400   2409     1
   2402   2410     1
   2402   2405     1
   2402   2406     1
   2403   2410     1
   2403   2405     1
   2403   2406     1
   2404   3899     1
   2405   3898     1
   2405   2412     1
   2406   3898     1
   2406   2412     1
   2407   3910     1
   2408   2413     1
   2408   3909     1
   2409   2413     1
   2409   3909     1
   2410   3890     1
   2410   3891     1
   2411   3901     1
   2411   3902     1
   2412   3899     1
   2413   3910     1
   2416   2440     1
   2416   2424     1
   2416   2425     1
   2416   2427     1
   2416   2428     1
   2417   2439     1
   2417   2420     1
   2417   2421     1
   2417   2423     1
   2417   2426     1
   2418   2439     1
   2418   2420     1
   2418   2421     1
   2418   2423     1
   2418   2426     1
   2420   2422     1
   2420   2440     1
   2421   2422     1
   2421   2440     1
   2422   2433     1
   2422   2434     1
   2422   2430     1
   2422   2431     1
   2423   2427     1
   2423   2428     1
   2424   2426     1
   2424   2436     1
   2424   2433     1
   2424   2434     1
   2425   2426     1
   2425   2436     1
   2425   2433     1
   2425   2434     1
   2427   2435     1
   2427   2430     1
   2427   2431     1
   2428   2435     1
   2428   2430     1
   2428   2431     1
   2429   3921     1
   2430   3920     1
   2430   2437     1
   2431   3920     1
   2431   2437     1
   2432   3932     1
   2433   2438     1
   2433   3931     1
   2434   2438     1
   2434   3931     1
   2435   3912     1
   2435   3913     1
   2436   3923     1
   2436   3924     1
   2437   3921     1
   2438   3932     1
   2441   2465     1
   2441   2449     1
   2441   2450     1
   2441   2452     1
   2441   2453     1
   2442   2464     1
   2442   2445     1
   2442   2446     1
   2442   2448     1
   2442   2451     1
   2443   2464     1
   2443   2445     1
   2443   2446     1
   2443   2448     1
   2443   2451     1
   2445   2447     1
   2445   2465     1
   2446   2447     1
   2446   2465     1
   2447   2458     1
   2447   2459     1
   2447   2455     1
   2447   2456     1
   2448   2452     1
   2448   2453     1
   2449   2451     1
   2449   2461     1
   2449   2458     1
   2449   2459     1
   2450   2451     1
   2450   2461     1
   2450   2458     1
   2450   2459     1
   2452   2460     1
   2452   2455     1
   2452   2456     1
   2453   2460     1
   2453   2455     1
   2453   2456     1
   2454   3943     1
   2455   3942     1
   2455   2462     1
   2456   3942     1
   2456   2462     1
   2457   3954     1
   2458   2463     1
   2458   3953     1
   2459   2463     1
   2459   3953     1
   2460   3934     1
   2460   3935     1
   2461   3945     1
   2461   3946     1
   2462   3943     1
   2463   3954     1
   2466   2490     1
   2466   2474     1
   2466   2475     1
   2466   2477     1
   2466   2478     1
   2467   2489     1
   2467   2470     1
   2467   2471     1
   2467   2473     1
   2467   2476     1
   2468   2489     1
   2468   2470     1
   2468   2471     1
   2468   2473     1
   2468   2476     1
   2470   2472     1
   2470   2490     1
   2471   2472     1
   2471   2490     1
   2472   2483     1
   2472   2484     1
   2472   2480     1
   2472   2481     1
   2473   2477     1
   2473   2478     1
   2474   2476     1
   2474   2486     1
   2474   2483     1
   2474   2484     1
   2475   2476     1
   2475   2486     1
   2475   2483     1
   2475   2484     1
   2477   2485     1
   2477   2480     1
   2477   2481     1
   2478   2485     1
   2478   2480     1
   2478   2481     1
   2479   3965     1
   2480   3964     1
   2480   2487     1
   2481   3964     1
   2481   2487     1
   2482   3976     1
   2483   2488     1
   2483   3975     1
   2484   2488     1
   2484   3975     1
   2485   3956     1
   2485   3957     1
   2486   3967     1
   2486   3968     1
   2487   3965     1
   2488   3976     1
   2491   2515     1
   2491   2499     1
   2491   2500     1
   2491   2502     1
   2491   2503     1
   2492   2514     1
   2492   2495     1
   2492   2496     1
   2492   2498     1
   2492   2501     1
   2493   2514     1
   2493   2495     1
   2493   2496     1
   2493   2498     1
   2493   2501     1
   2495   2497     1
   2495   2515     1
   2496   2497     1
   2496   2515     1
   2497   2508     1
   2497   2509     1
   2497   2505     1
   2497   2506     1
   2498   2502     1
   2498   2503     1
   2499   2501     1
   2499   2511     1
   2499   2508     1
   2499   2509     1
   2500   2501     1
   2500   2511     1
   2500   2508     1
   2500   2509     1
   2502   2510     1
   2502   2505     1
   2502   2506     1
   2503   2510     1
   2503   2505     1
   2503   2506     1
   2504   3987     1
   2505   3986     1
   2505   2512     1
   2506   3986     1
   2506   2512     1
   2507   3998     1
   2508   2513     1
   2508   3997     1
   2509   2513     1
   2509   3997     1
   2510   3978     1
   2510   3979     1
   2511   3989     1
   2511   3990     1
   2512   3987     1
   2513   3998     1
   2516   2540     1
   2516   2524     1
   2516   2525     1
   2516   2527     1
   2516   2528     1
   2517   2539     1
   2517   2520     1
   2517   2521     1
   2517   2523     1
   2517   2526     1
   2518   2539     1
   2518   2520     1
   2518   2521     1
   2518   2523     1
   2518   2526     1
   2520   2522     1
   2520   2540     1
   2521   2522     1
   2521   2540     1
   2522   2533     1
   2522   2534     1
   2522   2530     1
   2522   2531     1
   2523   2527     1
   2523   2528     1
   2524   2526     1
   2524   2536     1
   2524   2533     1
   2524   2534     1
   2525   2526     1
   2525   2536     1
   2525   2533     1
   2525   2534     1
   2527   2535     1
   2527   2530     1
   2527   2531     1
   2528   2535     1
   2528   2530     1
   2528   2531     1
   2529   4009     1
   2530   4008     1
   2530   2537     1
   2531   4008     1
   2531   2537     1
   2532   4020     1
   2533   2538     1
   2533   4019     1
   2534   2538     1
   2534   4019     1
   2535   4000     1
   2535   4001     1
   2536   4011     1
   2536   4012     1
   2537   4009     1
   2538   4020     1
   2541   2565     1
   2541   2549     1
   2541   2550     1
   2541   2552     1
   2541   2553     1
   2542   2564     1
   2542   2545     1
   2542   2546     1
   2542   2548     1
   2542   2551     1
   2543   2564     1
   2543   2545     1
   2543   2546     1
   2543   2548     1
   2543   2551     1
   2545   2547     1
   2545   2565     1
   2546   2547     1
   2546   2565     1
   2547   2558     1
   2547   2559     1
   2547   2555     1
   2547   2556     1
   2548   2552     1
   2548   2553     1
   2549   2551     1
   2549   2561     1
   2549   2558     1
   2549   2559     1
   2550   2551     1
   2550   2561     1
   2550   2558     1
   2550   2559     1
   2552   2560     1
   2552   2555     1
   2552   2556     1
   2553   2560     1
   2553   2555     1
   2553   2556     1
   2554   4031     1
   2555   4030     1
   2555   2562     1
   2556   4030     1
   2556   2562     1
   2557   4042     1
   2558   2563     1
   2558   4041     1
   2559   2563     1
   2559   4041     1
   2560   4022     1
   2560   4023     1
   2561   4033     1
   2561   4034     1
   2562   4031     1
   2563   4042     1
   2566   2590     1
   2566   2574     1
   2566   2575     1
   2566   2577     1
   2566   2578     1
   2567   2589     1
   2567   2570     1
   2567   2571     1
   2567   2573     1
   2567   2576     1
   2568   2589     1
   2568   2570     1
   2568   2571     1
   2568   2573     1
   2568   2576     1
   2570   2572     1
   2570   2590     1
   2571   2572     1
   2571   2590     1
   2572   2583     1
   2572   2584     1
   2572   2580     1
   2572   2581     1
   2573   2577     1
   2573   2578     1
   2574   2576     1
   2574   2586     1
   2574   2583     1
   2574   2584     1
   2575   2576     1
   2575   2586     1
   2575   2583     1
   2575   2584     1
   2577   2585     1
   2577   2580     1
   2577   2581     1
   2578   2585     1
   2578   2580     1
   2578   2581     1
   2579   4053     1
   2580   4052     1
   2580   2587     1
   2581   4052     1
   2581   2587     1
   2582   4064     1
   2583   2588     1
   2583   4063     1
   2584   2588     1
   2584   4063     1
   2585   4044     1
   2585   4045     1
   2586   4055     1
   2586   4056     1
   2587   4053     1
   2588   4064     1
   2591   2615     1
   2591   2599     1
   2591   2600     1
   2591   2602     1
   2591   2603     1
   2592   2614     1
   2592   2595     1
   2592   2596     1
   2592   2598     1
   2592   2601     1
   2593   2614     1
   2593   2595     1
   2593   2596     1
   2593   2598     1
   2593   2601     1
   2595   2597     1
   2595   2615     1
   2596   2597     1
   2596   2615     1
   2597   2608     1
   2597   2609     1
   2597   2605     1
   2597   2606     1
   2598   2602     1
   2598   2603     1
   2599   2601     1
   2599   2611     1
   2599   2608     1
   2599   2609     1
   2600   2601     1
   2600   2611     1
   2600   2608     1
   2600   2609     1
   2602   2610     1
   2602   2605     1
   2602   2606     1
   2603   2610     1
   2603   2605     1
   2603   2606     1
   2604   4075     1
   2605   4074     1
   2605   2612     1
   2606   4074     1
   2606   2612     1
   2607   4086     1
   2608   2613     1
   2608   4085     1
   2609   2613     1
   2609   4085     1
   2610   4066     1
   2610   4067     1
   2611   4077     1
   2611   4078     1
   2612   4075     1
   2613   4086     1
   2616   2640     1
   2616   2624     1
   2616   2625     1
   2616   2627     1
   2616   2628     1
   2617   2639     1
   2617   2620     1
   2617   2621     1
   2617   2623     1
   2617   2626     1
   2618   2639     1
   2618   2620     1
   2618   2621     1
   2618   2623     1
   2618   2626     1
   2620   2622     1
   2620   2640     1
   2621   2622     1
   2621   2640     1
   2622   2633     1
   2622   2634     1
   2622   2630     1
   2622   2631     1
   2623   2627     1
   2623   2628     1
   2624   2626     1
   2624   2636     1
   2624   2633     1
   2624   2634     1
   2625   2626     1
   2625   2636     1
   2625   2633     1
   2625   2634     1
   2627   2635     1
   2627   2630     1
   2627   2631     1
   2628   2635     1
   2628   2630     1
   2628   2631     1
   2629   4097     1
   2630   4096     1
   2630   2637     1
   2631   4096     1
   2631   2637     1
   2632   4108     1
   2633   2638     1
   2633   4107     1
   2634   2638     1
   2634   4107     1
   2635   4088     1
   2635   4089     1
   2636   4099     1
   2636   4100     1
   2637   4097     1
   2638   4108     1
   2641   2665     1
   2641   2649     1
   2641   2650     1
   2641   2652     1
   2641   2653     1
   2642   2664     1
   2642   2645     1
   2642   2646     1
   2642   2648     1
   2642   2651     1
   2643   2664     1
   2643   2645     1
   2643   2646     1
   2643   2648     1
   2643   2651     1
   2645   2647     1
   2645   2665     1
   2646   2647     1
   2646   2665     1
   2647   2658     1
   2647   2659     1
   2647   2655     1
   2647   2656     1
   2648   2652     1
   2648   2653     1
   2649   2651     1
   2649   2661     1
   2649   2658     1
   2649   2659     1
   2650   2651     1
   2650   2661     1
   2650   2658     1
   2650   2659     1
   2652   2660     1
   2652   2655     1
   2652   2656     1
   2653   2660     1
   2653   2655     1
   2653   2656     1
   2654   4119     1
   2655   4118     1
   2655   2662     1
   2656   4118     1
   2656   2662     1
   2657   4130     1
   2658   2663     1
   2658   4129     1
   2659   2663     1
   2659   4129     1
   2660   4110     1
   2660   4111     1
   2661   4121     1
   2661   4122     1
   2662   4119     1
   2663   4130     1
   2666   2690     1
   2666   2674     1
   2666   2675     1
   2666   2677     1
   2666   2678     1
   2667   2689     1
   2667   2670     1
   2667   2671     1
   2667   2673     1
   2667   2676     1
   2668   2689     1
   2668   2670     1
   2668   2671     1
   2668   2673     1
   2668   2676     1
   2670   2672     1
   2670   2690     1
   2671   2672     1
   2671   2690     1
   2672   2683     1
   2672   2684     1
   2672   2680     1
   2672   2681     1
   2673   2677     1
   2673   2678     1
   2674   2676     1
   2674   2686     1
   2674   2683     1
   2674   2684     1
   2675   2676     1
   2675   2686     1
   2675   2683     1
   2675   2684     1
   2677   2685     1
   2677   2680     1
   2677   2681     1
   2678   2685     1
   2678   2680     1
   2678   2681     1
   2679   4141     1
   2680   4140     1
   2680   2687     1
   2681   4140     1
   2681   2687     1
   2682   4152     1
   2683   2688     1
   2683   4151     1
   2684   2688     1
   2684   4151     1
   2685   4132     1
   2685   4133     1
   2686   4143     1
   2686   4144     1
   2687   4141     1
   2688   4152     1
   2691   2715     1
   2691   2699     1
   2691   2700     1
   2691   2702     1
   2691   2703     1
   2692   2714     1
   2692   2695     1
   2692   2696     1
   2692   2698     1
   2692   2701     1
   2693   2714     1
   2693   2695     1
   2693   2696     1
   2693   2698     1
   2693   2701     1
   2695   2697     1
   2695   2715     1
   2696   2697     1
   2696   2715     1
   2697   2708     1
   2697   2709     1
   2697   2705     1
   2697   2706     1
   2698   2702     1
   2698   2703     1
   2699   2701     1
   2699   2711     1
   2699   2708     1
   2699   2709     1
   2700   2701     1
   2700   2711     1
   2700   2708     1
   2700   2709     1
   2702   2710     1
   2702   2705     1
   2702   2706     1
   2703   2710     1
   2703   2705     1
   2703   2706     1
   2704   4163     1
   2705   4162     1
   2705   2712     1
   2706   4162     1
   2706   2712     1
   2707   4174     1
   2708   2713     1
   2708   4173     1
   2709   2713     1
   2709   4173     1
   2710   4154     1
   2710   4155     1
   2711   4165     1
   2711   4166     1
   2712   4163     1
   2713   4174     1
   2716   2740     1
   2716   2724     1
   2716   2725     1
   2716   2727     1
   2716   2728     1
   2717   2739     1
   2717   2720     1
   2717   2721     1
   2717   2723     1
   2717   2726     1
   2718   2739     1
   2718   2720     1
   2718   2721     1
   2718   2723     1
   2718   2726     1
   2720   2722     1
   2720   2740     1
   2721   2722     1
   2721   2740     1
   2722   2733     1
   2722   2734     1
   2722   2730     1
   2722   2731     1
   2723   2727     1
   2723   2728     1
   2724   2726     1
   2724   2736     1
   2724   2733     1
   2724   2734     1
   2725   2726     1
   2725   2736     1
   2725   2733     1
   2725   2734     1
   2727   2735     1
   2727   2730     1
   2727   2731     1
   2728   2735     1
   2728   2730     1
   2728   2731     1
   2729   4185     1
   2730   4184     1
   2730   2737     1
   2731   4184     1
   2731   2737     1
   2732   4196     1
   2733   2738     1
   2733   4195     1
   2734   2738     1
   2734   4195     1
   2735   4176     1
   2735   4177     1
   2736   4187     1
   2736   4188     1
   2737   4185     1
   2738   4196     1
   2741   2765     1
   2741   2749     1
   2741   2750     1
   2741   2752     1
   2741   2753     1
   2742   2764     1
   2742   2745     1
   2742   2746     1
   2742   2748     1
   2742   2751     1
   2743   2764     1
   2743   2745     1
   2743   2746     1
   2743   2748     1
   2743   2751     1
   2745   2747     1
   2745   2765     1
   2746   2747     1
   2746   2765     1
   2747   2758     1
   2747   2759     1
   2747   2755     1
   2747   2756     1
   2748   2752     1
   2748   2753     1
   2749   2751     1
   2749   2761     1
   2749   2758     1
   2749   2759     1
   2750   2751     1
   2750   2761     1
   2750   2758     1
   2750   2759     1
   2752   2760     1
   2752   2755     1
   2752   2756     1
   2753   2760     1
   2753   2755     1
   2753   2756     1
   2754   4207     1
   2755   4206     1
   2755   2762     1
   2756   4206     1
   2756   2762     1
   2757   4218     1
   2758   2763     1
   2758   4217     1
   2759   2763     1
   2759   4217     1
   2760   4198     1
   2760   4199     1
   2761   4209     1
   2761   4210     1
   2762   4207     1
   2763   4218     1
   2766   2790     1
   2766   2774     1
   2766   2775     1
   2766   2777     1
   2766   2778     1
   2767   2789     1
   2767   2770     1
   2767   2771     1
   2767   2773     1
   2767   2776     1
   2768   2789     1
   2768   2770     1
   2768   2771     1
   2768   2773     1
   2768   2776     1
   2770   2772     1
   2770   2790     1
   2771   2772     1
   2771   2790     1
   2772   2783     1
   2772   2784     1
   2772   2780     1
   2772   2781     1
   2773   2777     1
   2773   2778     1
   2774   2776     1
   2774   2786     1
   2774   2783     1
   2774   2784     1
   2775   2776     1
   2775   2786     1
   2775   2783     1
   2775   2784     1
   2777   2785     1
   2777   2780     1
   2777   2781     1
   2778   2785     1
   2778   2780     1
   2778   2781     1
   2779   4229     1
   2780   4228     1
   2780   2787     1
   2781   4228     1
   2781   2787     1
   2782   4240     1
   2783   2788     1
   2783   4239     1
   2784   2788     1
   2784   4239     1
   2785   4220     1
   2785   4221     1
   2786   4231     1
   2786   4232     1
   2787   4229     1
   2788   4240     1
   2791   2815     1
   2791   2799     1
   2791   2800     1
   2791   2802     1
   2791   2803     1
   2792   2814     1
   2792   2795     1
   2792   2796     1
   2792   2798     1
   2792   2801     1
   2793   2814     1
   2793   2795     1
   2793   2796     1
   2793   2798     1
   2793   2801     1
   2795   2797     1
   2795   2815     1
   2796   2797     1
   2796   2815     1
   2797   2808     1
   2797   2809     1
   2797   2805     1
   2797   2806     1
   2798   2802     1
   2798   2803     1
   2799   2801     1
   2799   2811     1
   2799   2808     1
   2799   2809     1
   2800   2801     1
   2800   2811     1
   2800   2808     1
   2800   2809     1
   2802   2810     1
   2802   2805     1
   2802   2806     1
   2803   2810     1
   2803   2805     1
   2803   2806     1
   2804   4251     1
   2805   4250     1
   2805   2812     1
   2806   4250     1
   2806   2812     1
   2807   4262     1
   2808   2813     1
   2808   4261     1
   2809   2813     1
   2809   4261     1
   2810   4242     1
   2810   4243     1
   2811   4253     1
   2811   4254     1
   2812   4251     1
   2813   4262     1
   2816   2840     1
   2816   2824     1
   2816   2825     1
   2816   2827     1
   2816   2828     1
   2817   2839     1
   2817   2820     1
   2817   2821     1
   2817   2823     1
   2817   2826     1
   2818   2839     1
   2818   2820     1
   2818   2821     1
   2818   2823     1
   2818   2826     1
   2820   2822     1
   2820   2840     1
   2821   2822     1
   2821   2840     1
   2822   2833     1
   2822   2834     1
   2822   2830     1
   2822   2831     1
   2823   2827     1
   2823   2828     1
   2824   2826     1
   2824   2836     1
   2824   2833     1
   2824   2834     1
   2825   2826     1
   2825   2836     1
   2825   2833     1
   2825   2834     1
   2827   2835     1
   2827   2830     1
   2827   2831     1
   2828   2835     1
   2828   2830     1
   2828   2831     1
   2829   4273     1
   2830   4272     1
   2830   2837     1
   2831   4272     1
   2831   2837     1
   2832   4284     1
   2833   2838     1
   2833   4283     1
   2834   2838     1
   2834   4283     1
   2835   4264     1
   2835   4265     1
   2836   4275     1
   2836   4276     1
   2837   4273     1
   2838   4284     1
   2841   2865     1
   2841   2849     1
   2841   2850     1
   2841   2852     1
   2841   2853     1
   2842   2864     1
   2842   2845     1
   2842   2846     1
   2842   2848     1
   2842   2851     1
   2843   2864     1
   2843   2845     1
   2843   2846     1
   2843   2848     1
   2843   2851     1
   2845   2847     1
   2845   2865     1
   2846   2847     1
   2846   2865     1
   2847   2858     1
   2847   2859     1
   2847   2855     1
   2847   2856     1
   2848   2852     1
   2848   2853     1
   2849   2851     1
   2849   2861     1
   2849   2858     1
   2849   2859     1
   2850   2851     1
   2850   2861     1
   2850   2858     1
   2850   2859     1
   2852   2860     1
   2852   2855     1
   2852   2856     1
   2853   2860     1
   2853   2855     1
   2853   2856     1
   2854   4295     1
   2855   4294     1
   2855   2862     1
   2856   4294     1
   2856   2862     1
   2857   4306     1
   2858   2863     1
   2858   4305     1
   2859   2863     1
   2859   4305     1
   2860   4286     1
   2860   4287     1
   2861   4297     1
   2861   4298     1
   2862   4295     1
   2863   4306     1
   2866   2890     1
   2866   2874     1
   2866   2875     1
   2866   2877     1
   2866   2878     1
   2867   2889     1
   2867   2870     1
   2867   2871     1
   2867   2873     1
   2867   2876     1
   2868   2889     1
   2868   2870     1
   2868   2871     1
   2868   2873     1
   2868   2876     1
   2870   2872     1
   2870   2890     1
   2871   2872     1
   2871   2890     1
   2872   2883     1
   2872   2884     1
   2872   2880     1
   2872   2881     1
   2873   2877     1
   2873   2878     1
   2874   2876     1
   2874   2886     1
   2874   2883     1
   2874   2884     1
   2875   2876     1
   2875   2886     1
   2875   2883     1
   2875   2884     1
   2877   2885     1
   2877   2880     1
   2877   2881     1
   2878   2885     1
   2878   2880     1
   2878   2881     1
   2879   4317     1
   2880   4316     1
   2880   2887     1
   2881   4316     1
   2881   2887     1
   2882   4328     1
   2883   2888     1
   2883   4327     1
   2884   2888     1
   2884   4327     1
   2885   4308     1
   2885   4309     1
   2886   4319     1
   2886   4320     1
   2887   4317     1
   2888   4328     1
   2891   2915     1
   2891   2899     1
   2891   2900     1
   2891   2902     1
   2891   2903     1
   2892   2914     1
   2892   2895     1
   2892   2896     1
   2892   2898     1
   2892   2901     1
   2893   2914     1
   2893   2895     1
   2893   2896     1
   2893   2898     1
   2893   2901     1
   2895   2897     1
   2895   2915     1
   2896   2897     1
   2896   2915     1
   2897   2908     1
   2897   2909     1
   2897   2905     1
   2897   2906     1
   2898   2902     1
   2898   2903     1
   2899   2901     1
   2899   2911     1
   2899   2908     1
   2899   2909     1
   2900   2901     1
   2900   2911     1
   2900   2908     1
   2900   2909     1
   2902   2910     1
   2902   2905     1
   2902   2906     1
   2903   2910     1
   2903   2905     1
   2903   2906     1
   2904   4339     1
   2905   4338     1
   2905   2912     1
   2906   4338     1
   2906   2912     1
   2907   4350     1
   2908   2913     1
   2908   4349     1
   2909   2913     1
   2909   4349     1
   2910   4330     1
   2910   4331     1
   2911   4341     1
   2911   4342     1
   2912   4339     1
   2913   4350     1
   2916   2940     1
   2916   2924     1
   2916   2925     1
   2916   2927     1
   2916   2928     1
   2917   2939     1
   2917   2920     1
   2917   2921     1
   2917   2923     1
   2917   2926     1
   2918   2939     1
   2918   2920     1
   2918   2921     1
   2918   2923     1
   2918   2926     1
   2920   2922     1
   2920   2940     1
   2921   2922     1
   2921   2940     1
   2922   2933     1
   2922   2934     1
   2922   2930     1
   2922   2931     1
   2923   2927     1
   2923   2928     1
   2924   2926     1
   2924   2936     1
   2924   2933     1
   2924   2934     1
   2925   2926     1
   2925   2936     1
   2925   2933     1
   2925   2934     1
   2927   2935     1
   2927   2930     1
   2927   2931     1
   2928   2935     1
   2928   2930     1
   2928   2931     1
   2929   4361     1
   2930   4360     1
   2930   2937     1
   2931   4360     1
   2931   2937     1
   2932   4372     1
   2933   2938     1
   2933   4371     1
   2934   2938     1
   2934   4371     1
   2935   4352     1
   2935   4353     1
   2936   4363     1
   2936   4364     1
   2937   4361     1
   2938   4372     1
   2941   2965     1
   2941   2949     1
   2941   2950     1
   2941   2952     1
   2941   2953     1
   2942   2964     1
   2942   2945     1
   2942   2946     1
   2942   2948     1
   2942   2951     1
   2943   2964     1
   2943   2945     1
   2943   2946     1
   2943   2948     1
   2943   2951     1
   2945   2947     1
   2945   2965     1
   2946   2947     1
   2946   2965     1
   2947   2958     1
   2947   2959     1
   2947   2955     1
   2947   2956     1
   2948   2952     1
   2948   2953     1
   2949   2951     1
   2949   2961     1
   2949   2958     1
   2949   2959     1
   2950   2951     1
   2950   2961     1
   2950   2958     1
   2950   2959     1
   2952   2960     1
   2952   2955     1
   2952   2956     1
   2953   2960     1
   2953   2955     1
   2953   2956     1
   2954   4383     1
   2955   4382     1
   2955   2962     1
   2956   4382     1
   2956   2962     1
   2957   4394     1
   2958   2963     1
   2958   4393     1
   2959   2963     1
   2959   4393     1
   2960   4374     1
   2960   4375     1
   2961   4385     1
   2961   4386     1
   2962   4383     1
   2963   4394     1
   2966   2990     1
   2966   2974     1
   2966   2975     1
   2966   2977     1
   2966   2978     1
   2967   2989     1
   2967   2970     1
   2967   2971     1
   2967   2973     1
   2967   2976     1
   2968   2989     1
   2968   2970     1
   2968   2971     1
   2968   2973     1
   2968   2976     1
   2970   2972     1
   2970   2990     1
   2971   2972     1
   2971   2990     1
   2972   2983     1
   2972   2984     1
   2972   2980     1
   2972   2981     1
   2973   2977     1
   2973   2978     1
   2974   2976     1
   2974   2986     1
   2974   2983     1
   2974   2984     1
   2975   2976     1
   2975   2986     1
   2975   2983     1
   2975   2984     1
   2977   2985     1
   2977   2980     1
   2977   2981     1
   2978   2985     1
   2978   2980     1
   2978   2981     1
   2979   4405     1
   2980   4404     1
   2980   2987     1
   2981   4404     1
   2981   2987     1
   2982   4416     1
   2983   2988     1
   2983   4415     1
   2984   2988     1
   2984   4415     1
   2985   4396     1
   2985   4397     1
   2986   4407     1
   2986   4408     1
   2987   4405     1
   2988   4416     1
   2991   3015     1
   2991   2999     1
   2991   3000     1
   2991   3002     1
   2991   3003     1
   2992   3014     1
   2992   2995     1
   2992   2996     1
   2992   2998     1
   2992   3001     1
   2993   3014     1
   2993   2995     1
   2993   2996     1
   2993   2998     1
   2993   3001     1
   2995   2997     1
   2995   3015     1
   2996   2997     1
   2996   3015     1
   2997   3008     1
   2997   3009     1
   2997   3005     1
   2997   3006     1
   2998   3002     1
   2998   3003     1
   2999   3001     1
   2999   3011     1
   2999   3008     1
   2999   3009     1
   3000   3001     1
   3000   3011     1
   3000   3008     1
   3000   3009     1
   3002   3010     1
   3002   3005     1
   3002   3006     1
   3003   3010     1
   3003   3005     1
   3003   3006     1
   3004   4427     1
   3005   4426     1
   3005   3012     1
   3006   4426     1
   3006   3012     1
   3007   4438     1
   3008   3013     1
   3008   4437     1
   3009   3013     1
   3009   4437     1
   3010   4418     1
   3010   4419     1
   3011   4429     1
   3011   4430     1
   3012   4427     1
   3013   4438     1
   3016   3040     1
   3016   3024     1
   3016   3025     1
   3016   3027     1
   3016   3028     1
   3017   3039     1
   3017   3020     1
   3017   3021     1
   3017   3023     1
   3017   3026     1
   3018   3039     1
   3018   3020     1
   3018   3021     1
   3018   3023     1
   3018   3026     1
   3020   3022     1
   3020   3040     1
   3021   3022     1
   3021   3040     1
   3022   3033     1
   3022   3034     1
   3022   3030     1
   3022   3031     1
   3023   3027     1
   3023   3028     1
   3024   3026     1
   3024   3036     1
   3024   3033     1
   3024   3034     1
   3025   3026     1
   3025   3036     1
   3025   3033     1
   3025   3034     1
   3027   3035     1
   3027   3030     1
   3027   3031     1
   3028   3035     1
   3028   3030     1
   3028   3031     1
   3029   4449     1
   3030   4448     1
   3030   3037     1
   3031   4448     1
   3031   3037     1
   3032   4460     1
   3033   3038     1
   3033   4459     1
   3034   3038     1
   3034   4459     1
   3035   4440     1
   3035   4441     1
   3036   4451     1
   3036   4452     1
   3037   4449     1
   3038   4460     1
   3041   3065     1
   3041   3049     1
   3041   3050     1
   3041   3052     1
   3041   3053     1
   3042   3064     1
   3042   3045     1
   3042   3046     1
   3042   3048     1
   3042   3051     1
   3043   3064     1
   3043   3045     1
   3043   3046     1
   3043   3048     1
   3043   3051     1
   3045   3047     1
   3045   3065     1
   3046   3047     1
   3046   3065     1
   3047   3058     1
   3047   3059     1
   3047   3055     1
   3047   3056     1
   3048   3052     1
   3048   3053     1
   3049   3051     1
   3049   3061     1
   3049   3058     1
   3049   3059     1
   3050   3051     1
   3050   3061     1
   3050   3058     1
   3050   3059     1
   3052   3060     1
   3052   3055     1
   3052   3056     1
   3053   3060     1
   3053   3055     1
   3053   3056     1
   3054   4471     1
   3055   4470     1
   3055   3062     1
   3056   4470     1
   3056   3062     1
   3057   4482     1
   3058   3063     1
   3058   4481     1
   3059   3063     1
   3059   4481     1
   3060   4462     1
   3060   4463     1
   3061   4473     1
   3061   4474     1
   3062   4471     1
   3063   4482     1
   3066   3090     1
   3066   3074     1
   3066   3075     1
   3066   3077     1
   3066   3078     1
   3067   3089     1
   3067   3070     1
   3067   3071     1
   3067   3073     1
   3067   3076     1
   3068   3089     1
   3068   3070     1
   3068   3071     1
   3068   3073     1
   3068   3076     1
   3070   3072     1
   3070   3090     1
   3071   3072     1
   3071   3090     1
   3072   3083     1
   3072   3084     1
   3072   3080     1
   3072   3081     1
   3073   3077     1
   3073   3078     1
   3074   3076     1
   3074   3086     1
   3074   3083     1
   3074   3084     1
   3075   3076     1
   3075   3086     1
   3075   3083     1
   3075   3084     1
   3077   3085     1
   3077   3080     1
   3077   3081     1
   3078   3085     1
   3078   3080     1
   3078   3081     1
   3079   4493     1
   3080   4492     1
   3080   3087     1
   3081   4492     1
   3081   3087     1
   3082   4504     1
   3083   3088     1
   3083   4503     1
   3084   3088     1
   3084   4503     1
   3085   4484     1
   3085   4485     1
   3086   4495     1
   3086   4496     1
   3087   4493     1
   3088   4504     1
   3091   3115     1
   3091   3099     1
   3091   3100     1
   3091   3102     1
   3091   3103     1
   3092   3114     1
   3092   3095     1
   3092   3096     1
   3092   3098     1
   3092   3101     1
   3093   3114     1
   3093   3095     1
   3093   3096     1
   3093   3098     1
   3093   3101     1
   3095   3097     1
   3095   3115     1
   3096   3097     1
   3096   3115     1
   3097   3108     1
   3097   3109     1
   3097   3105     1
   3097   3106     1
   3098   3102     1
   3098   3103     1
   3099   3101     1
   3099   3111     1
   3099   3108     1
   3099   3109     1
   3100   3101     1
   3100   3111     1
   3100   3108     1
   3100   3109     1
   3102   3110     1
   3102   3105     1
   3102   3106     1
   3103   3110     1
   3103   3105     1
   3103   3106     1
   3104   4515     1
   3105   4514     1
   3105   3112     1
   3106   4514     1
   3106   3112     1
   3107   4526     1
   3108   3113     1
   3108   4525     1
   3109   3113     1
   3109   4525     1
   3110   4506     1
   3110   4507     1
   3111   4517     1
   3111   4518     1
   3112   4515     1
   3113   4526     1
   3116   3140     1
   3116   3124     1
   3116   3125     1
   3116   3127     1
   3116   3128     1
   3117   3139     1
   3117   3120     1
   3117   3121     1
   3117   3123     1
   3117   3126     1
   3118   3139     1
   3118   3120     1
   3118   3121     1
   3118   3123     1
   3118   3126     1
   3120   3122     1
   3120   3140     1
   3121   3122     1
   3121   3140     1
   3122   3133     1
   3122   3134     1
   3122   3130     1
   3122   3131     1
   3123   3127     1
   3123   3128     1
   3124   3126     1
   3124   3136     1
   3124   3133     1
   3124   3134     1
   3125   3126     1
   3125   3136     1
   3125   3133     1
   3125   3134     1
   3127   3135     1
   3127   3130     1
   3127   3131     1
   3128   3135     1
   3128   3130     1
   3128   3131     1
   3129   4537     1
   3130   4536     1
   3130   3137     1
   3131   4536     1
   3131   3137     1
   3132   4548     1
   3133   4547     1
   3133   3138     1
   3134   4547     1
   3134   3138     1
   3135   4528     1
   3135   4529     1
   3136   4539     1
   3136   4540     1
   3137   4537     1
   3138   4548     1
   3141   3148     1
   3141   3149     1
   3142   3147     1
   3142   3145     1
   3142   3146     1
   3142   3151     1
   3143   3147     1
   3143   3145     1
   3143   3146     1
   3143   3151     1
   3144   3151     1
   3145   3150     1
   3145   3148     1
   3145   3149     1
   3146   3150     1
   3146   3148     1
   3146   3149     1
   3152   3159     1
   3152   3160     1
   3153   3158     1
   3153   3156     1
   3153   3157     1
   3153   3162     1
   3154   3158     1
   3154   3156     1
   3154   3157     1
   3154   3162     1
   3155   3162     1
   3156   3159     1
   3156   3160     1
   3156   3161     1
   3157   3159     1
   3157   3160     1
   3157   3161     1
   3163   3170     1
   3163   3171     1
   3164   3169     1
   3164   3167     1
   3164   3168     1
   3164   3173     1
   3165   3169     1
   3165   3167     1
   3165   3168     1
   3165   3173     1
   3166   3173     1
   3167   3172     1
   3167   3170     1
   3167   3171     1
   3168   3172     1
   3168   3170     1
   3168   3171     1
   3174   3181     1
   3174   3182     1
   3175   3180     1
   3175   3178     1
   3175   3179     1
   3175   3184     1
   3176   3180     1
   3176   3178     1
   3176   3179     1
   3176   3184     1
   3177   3184     1
   3178   3181     1
   3178   3182     1
   3178   3183     1
   3179   3181     1
   3179   3182     1
   3179   3183     1
   3185   3192     1
   3185   3193     1
   3186   3191     1
   3186   3189     1
   3186   3190     1
   3186   3195     1
   3187   3191     1
   3187   3189     1
   3187   3190     1
   3187   3195     1
   3188   3195     1
   3189   3194     1
   3189   3192     1
   3189   3193     1
   3190   3194     1
   3190   3192     1
   3190   3193     1
   3196   3203     1
   3196   3204     1
   3197   3202     1
   3197   3200     1
   3197   3201     1
   3197   3206     1
   3198   3202     1
   3198   3200     1
   3198   3201     1
   3198   3206     1
   3199   3206     1
   3200   3203     1
   3200   3204     1
   3200   3205     1
   3201   3203     1
   3201   3204     1
   3201   3205     1
   3207   3214     1
   3207   3215     1
   3208   3213     1
   3208   3211     1
   3208   3212     1
   3208   3217     1
   3209   3213     1
   3209   3211     1
   3209   3212     1
   3209   3217     1
   3210   3217     1
   3211   3216     1
   3211   3214     1
   3211   3215     1
   3212   3216     1
   3212   3214     1
   3212   3215     1
   3218   3225     1
   3218   3226     1
   3219   3224     1
   3219   3222     1
   3219   3223     1
   3219   3228     1
   3220   3224     1
   3220   3222     1
   3220   3223     1
   3220   3228     1
   3221   3228     1
   3222   3225     1
   3222   3226     1
   3222   3227     1
   3223   3225     1
   3223   3226     1
   3223   3227     1
   3229   3236     1
   3229   3237     1
   3230   3235     1
   3230   3233     1
   3230   3234     1
   3230   3239     1
   3231   3235     1
   3231   3233     1
   3231   3234     1
   3231   3239     1
   3232   3239     1
   3233   3238     1
   3233   3236     1
   3233   3237     1
   3234   3238     1
   3234   3236     1
   3234   3237     1
   3240   3247     1
   3240   3248     1
   3241   3246     1
   3241   3244     1
   3241   3245     1
   3241   3250     1
   3242   3246     1
   3242   3244     1
   3242   3245     1
   3242   3250     1
   3243   3250     1
   3244   3247     1
   3244   3248     1
   3244   3249     1
   3245   3247     1
   3245   3248     1
   3245   3249     1
   3251   3258     1
   3251   3259     1
   3252   3257     1
   3252   3255     1
   3252   3256     1
   3252   3261     1
   3253   3257     1
   3253   3255     1
   3253   3256     1
   3253   3261     1
   3254   3261     1
   3255   3260     1
   3255   3258     1
   3255   3259     1
   3256   3260     1
   3256   3258     1
   3256   3259     1
   3262   3269     1
   3262   3270     1
   3263   3268     1
   3263   3266     1
   3263   3267     1
   3263   3272     1
   3264   3268     1
   3264   3266     1
   3264   3267     1
   3264   3272     1
   3265   3272     1
   3266   3269     1
   3266   3270     1
   3266   3271     1
   3267   3269     1
   3267   3270     1
   3267   3271     1
   3273   3280     1
   3273   3281     1
   3274   3279     1
   3274   3277     1
   3274   3278     1
   3274   3283     1
   3275   3279     1
   3275   3277     1
   3275   3278     1
   3275   3283     1
   3276   3283     1
   3277   3282     1
   3277   3280     1
   3277   3281     1
   3278   3282     1
   3278   3280     1
   3278   3281     1
   3284   3291     1
   3284   3292     1
   3285   3290     1
   3285   3288     1
   3285   3289     1
   3285   3294     1
   3286   3290     1
   3286   3288     1
   3286   3289     1
   3286   3294     1
   3287   3294     1
   3288   3291     1
   3288   3292     1
   3288   3293     1
   3289   3291     1
   3289   3292     1
   3289   3293     1
   3295   3302     1
   3295   3303     1
   3296   3301     1
   3296   3299     1
   3296   3300     1
   3296   3305     1
   3297   3301     1
   3297   3299     1
   3297   3300     1
   3297   3305     1
   3298   3305     1
   3299   3304     1
   3299   3302     1
   3299   3303     1
   3300   3304     1
   3300   3302     1
   3300   3303     1
   3306   3313     1
   3306   3314     1
   3307   3312     1
   3307   3310     1
   3307   3311     1
   3307   3316     1
   3308   3312     1
   3308   3310     1
   3308   3311     1
   3308   3316     1
   3309   3316     1
   3310   3313     1
   3310   3314     1
   3310   3315     1
   3311   3313     1
   3311   3314     1
   3311   3315     1
   3317   3324     1
   3317   3325     1
   3318   3323     1
   3318   3321     1
   3318   3322     1
   3318   3327     1
   3319   3323     1
   3319   3321     1
   3319   3322     1
   3319   3327     1
   3320   3327     1
   3321   3326     1
   3321   3324     1
   3321   3325     1
   3322   3326     1
   3322   3324     1
   3322   3325     1
   3328   3335     1
   3328   3336     1
   3329   3334     1
   3329   3332     1
   3329   3333     1
   3329   3338     1
   3330   3334     1
   3330   3332     1
   3330   3333     1
   3330   3338     1
   3331   3338     1
   3332   3335     1
   3332   3336     1
   3332   3337     1
   3333   3335     1
   3333   3336     1
   3333   3337     1
   3339   3346     1
   3339   3347     1
   3340   3345     1
   3340   3343     1
   3340   3344     1
   3340   3349     1
   3341   3345     1
   3341   3343     1
   3341   3344     1
   3341   3349     1
   3342   3349     1
   3343   3348     1
   3343   3346     1
   3343   3347     1
   3344   3348     1
   3344   3346     1
   3344   3347     1
   3350   3357     1
   3350   3358     1
   3351   3356     1
   3351   3354     1
   3351   3355     1
   3351   3360     1
   3352   3356     1
   3352   3354     1
   3352   3355     1
   3352   3360     1
   3353   3360     1
   3354   3357     1
   3354   3358     1
   3354   3359     1
   3355   3357     1
   3355   3358     1
   3355   3359     1
   3361   3368     1
   3361   3369     1
   3362   3367     1
   3362   3365     1
   3362   3366     1
   3362   3371     1
   3363   3367     1
   3363   3365     1
   3363   3366     1
   3363   3371     1
   3364   3371     1
   3365   3370     1
   3365   3368     1
   3365   3369     1
   3366   3370     1
   3366   3368     1
   3366   3369     1
   3372   3379     1
   3372   3380     1
   3373   3378     1
   3373   3376     1
   3373   3377     1
   3373   3382     1
   3374   3378     1
   3374   3376     1
   3374   3377     1
   3374   3382     1
   3375   3382     1
   3376   3379     1
   3376   3380     1
   3376   3381     1
   3377   3379     1
   3377   3380     1
   3377   3381     1
   3383   3390     1
   3383   3391     1
   3384   3389     1
   3384   3387     1
   3384   3388     1
   3384   3393     1
   3385   3389     1
   3385   3387     1
   3385   3388     1
   3385   3393     1
   3386   3393     1
   3387   3392     1
   3387   3390     1
   3387   3391     1
   3388   3392     1
   3388   3390     1
   3388   3391     1
   3394   3401     1
   3394   3402     1
   3395   3400     1
   3395   3398     1
   3395   3399     1
   3395   3404     1
   3396   3400     1
   3396   3398     1
   3396   3399     1
   3396   3404     1
   3397   3404     1
   3398   3401     1
   3398   3402     1
   3398   3403     1
   3399   3401     1
   3399   3402     1
   3399   3403     1
   3405   3412     1
   3405   3413     1
   3406   3411     1
   3406   3409     1
   3406   3410     1
   3406   3415     1
   3407   3411     1
   3407   3409     1
   3407   3410     1
   3407   3415     1
   3408   3415     1
   3409   3414     1
   3409   3412     1
   3409   3413     1
   3410   3414     1
   3410   3412     1
   3410   3413     1
   3416   3423     1
   3416   3424     1
   3417   3422     1
   3417   3420     1
   3417   3421     1
   3417   3426     1
   3418   3422     1
   3418   3420     1
   3418   3421     1
   3418   3426     1
   3419   3426     1
   3420   3423     1
   3420   3424     1
   3420   3425     1
   3421   3423     1
   3421   3424     1
   3421   3425     1
   3427   3434     1
   3427   3435     1
   3428   3433     1
   3428   3431     1
   3428   3432     1
   3428   3437     1
   3429   3433     1
   3429   3431     1
   3429   3432     1
   3429   3437     1
   3430   3437     1
   3431   3436     1
   3431   3434     1
   3431   3435     1
   3432   3436     1
   3432   3434     1
   3432   3435     1
   3438   3445     1
   3438   3446     1
   3439   3444     1
   3439   3442     1
   3439   3443     1
   3439   3448     1
   3440   3444     1
   3440   3442     1
   3440   3443     1
   3440   3448     1
   3441   3448     1
   3442   3445     1
   3442   3446     1
   3442   3447     1
   3443   3445     1
   3443   3446     1
   3443   3447     1
   3449   3456     1
   3449   3457     1
   3450   3455     1
   3450   3453     1
   3450   3454     1
   3450   3459     1
   3451   3455     1
   3451   3453     1
   3451   3454     1
   3451   3459     1
   3452   3459     1
   3453   3458     1
   3453   3456     1
   3453   3457     1
   3454   3458     1
   3454   3456     1
   3454   3457     1
   3460   3467     1
   3460   3468     1
   3461   3466     1
   3461   3464     1
   3461   3465     1
   3461   3470     1
   3462   3466     1
   3462   3464     1
   3462   3465     1
   3462   3470     1
   3463   3470     1
   3464   3467     1
   3464   3468     1
   3464   3469     1
   3465   3467     1
   3465   3468     1
   3465   3469     1
   3471   3478     1
   3471   3479     1
   3472   3477     1
   3472   3475     1
   3472   3476     1
   3472   3481     1
   3473   3477     1
   3473   3475     1
   3473   3476     1
   3473   3481     1
   3474   3481     1
   3475   3480     1
   3475   3478     1
   3475   3479     1
   3476   3480     1
   3476   3478     1
   3476   3479     1
   3482   3489     1
   3482   3490     1
   3483   3488     1
   3483   3486     1
   3483   3487     1
   3483   3492     1
   3484   3488     1
   3484   3486     1
   3484   3487     1
   3484   3492     1
   3485   3492     1
   3486   3489     1
   3486   3490     1
   3486   3491     1
   3487   3489     1
   3487   3490     1
   3487   3491     1
   3493   3500     1
   3493   3501     1
   3494   3499     1
   3494   3497     1
   3494   3498     1
   3494   3503     1
   3495   3499     1
   3495   3497     1
   3495   3498     1
   3495   3503     1
   3496   3503     1
   3497   3502     1
   3497   3500     1
   3497   3501     1
   3498   3502     1
   3498   3500     1
   3498   3501     1
   3504   3511     1
   3504   3512     1
   3505   3510     1
   3505   3508     1
   3505   3509     1
   3505   3514     1
   3506   3510     1
   3506   3508     1
   3506   3509     1
   3506   3514     1
   3507   3514     1
   3508   3511     1
   3508   3512     1
   3508   3513     1
   3509   3511     1
   3509   3512     1
   3509   3513     1
   3515   3522     1
   3515   3523     1
   3516   3521     1
   3516   3519     1
   3516   3520     1
   3516   3525     1
   3517   3521     1
   3517   3519     1
   3517   3520     1
   3517   3525     1
   3518   3525     1
   3519   3524     1
   3519   3522     1
   3519   3523     1
   3520   3524     1
   3520   3522     1
   3520   3523     1
   3526   3533     1
   3526   3534     1
   3527   3532     1
   3527   3530     1
   3527   3531     1
   3527   3536     1
   3528   3532     1
   3528   3530     1
   3528   3531     1
   3528   3536     1
   3529   3536     1
   3530   3533     1
   3530   3534     1
   3530   3535     1
   3531   3533     1
   3531   3534     1
   3531   3535     1
   3537   3544     1
   3537   3545     1
   3538   3543     1
   3538   3541     1
   3538   3542     1
   3538   3547     1
   3539   3543     1
   3539   3541     1
   3539   3542     1
   3539   3547     1
   3540   3547     1
   3541   3546     1
   3541   3544     1
   3541   3545     1
   3542   3546     1
   3542   3544     1
   3542   3545     1
   3548   3555     1
   3548   3556     1
   3549   3554     1
   3549   3552     1
   3549   3553     1
   3549   3558     1
   3550   3554     1
   3550   3552     1
   3550   3553     1
   3550   3558     1
   3551   3558     1
   3552   3555     1
   3552   3556     1
   3552   3557     1
   3553   3555     1
   3553   3556     1
   3553   3557     1
   3559   3566     1
   3559   3567     1
   3560   3565     1
   3560   3563     1
   3560   3564     1
   3560   3569     1
   3561   3565     1
   3561   3563     1
   3561   3564     1
   3561   3569     1
   3562   3569     1
   3563   3568     1
   3563   3566     1
   3563   3567     1
   3564   3568     1
   3564   3566     1
   3564   3567     1
   3570   3577     1
   3570   3578     1
   3571   3576     1
   3571   3574     1
   3571   3575     1
   3571   3580     1
   3572   3576     1
   3572   3574     1
   3572   3575     1
   3572   3580     1
   3573   3580     1
   3574   3577     1
   3574   3578     1
   3574   3579     1
   3575   3577     1
   3575   3578     1
   3575   3579     1
   3581   3588     1
   3581   3589     1
   3582   3587     1
   3582   3585     1
   3582   3586     1
   3582   3591     1
   3583   3587     1
   3583   3585     1
   3583   3586     1
   3583   3591     1
   3584   3591     1
   3585   3590     1
   3585   3588     1
   3585   3589     1
   3586   3590     1
   3586   3588     1
   3586   3589     1
   3592   3599     1
   3592   3600     1
   3593   3598     1
   3593   3596     1
   3593   3597     1
   3593   3602     1
   3594   3598     1
   3594   3596     1
   3594   3597     1
   3594   3602     1
   3595   3602     1
   3596   3599     1
   3596   3600     1
   3596   3601     1
   3597   3599     1
   3597   3600     1
   3597   3601     1
   3603   3610     1
   3603   3611     1
   3604   3609     1
   3604   3607     1
   3604   3608     1
   3604   3613     1
   3605   3609     1
   3605   3607     1
   3605   3608     1
   3605   3613     1
   3606   3613     1
   3607   3612     1
   3607   3610     1
   3607   3611     1
   3608   3612     1
   3608   3610     1
   3608   3611     1
   3614   3621     1
   3614   3622     1
   3615   3620     1
   3615   3618     1
   3615   3619     1
   3615   3624     1
   3616   3620     1
   3616   3618     1
   3616   3619     1
   3616   3624     1
   3617   3624     1
   3618   3621     1
   3618   3622     1
   3618   3623     1
   3619   3621     1
   3619   3622     1
   3619   3623     1
   3625   3632     1
   3625   3633     1
   3626   3631     1
   3626   3629     1
   3626   3630     1
   3626   3635     1
   3627   3631     1
   3627   3629     1
   3627   3630     1
   3627   3635     1
   3628   3635     1
   3629   3634     1
   3629   3632     1
   3629   3633     1
   3630   3634     1
   3630   3632     1
   3630   3633     1
   3636   3643     1
   3636   3644     1
   3637   3642     1
   3637   3640     1
   3637   3641     1
   3637   3646     1
   3638   3642     1
   3638   3640     1
   3638   3641     1
   3638   3646     1
   3639   3646     1
   3640   3643     1
   3640   3644     1
   3640   3645     1
   3641   3643     1
   3641   3644     1
   3641   3645     1
   3647   3654     1
   3647   3655     1
   3648   3653     1
   3648   3651     1
   3648   3652     1
   3648   3657     1
   3649   3653     1
   3649   3651     1
   3649   3652     1
   3649   3657     1
   3650   3657     1
   3651   3656     1
   3651   3654     1
   3651   3655     1
   3652   3656     1
   3652   3654     1
   3652   3655     1
   3658   3665     1
   3658   3666     1
   3659   3664     1
   3659   3662     1
   3659   3663     1
   3659   3668     1
   3660   3664     1
   3660   3662     1
   3660   3663     1
   3660   3668     1
   3661   3668     1
   3662   3665     1
   3662   3666     1
   3662   3667     1
   3663   3665     1
   3663   3666     1
   3663   3667     1
   3669   3676     1
   3669   3677     1
   3670   3675     1
   3670   3673     1
   3670   3674     1
   3670   3679     1
   3671   3675     1
   3671   3673     1
   3671   3674     1
   3671   3679     1
   3672   3679     1
   3673   3678     1
   3673   3676     1
   3673   3677     1
   3674   3678     1
   3674   3676     1
   3674   3677     1
   3680   3687     1
   3680   3688     1
   3681   3686     1
   3681   3684     1
   3681   3685     1
   3681   3690     1
   3682   3686     1
   3682   3684     1
   3682   3685     1
   3682   3690     1
   3683   3690     1
   3684   3687     1
   3684   3688     1
   3684   3689     1
   3685   3687     1
   3685   3688     1
   3685   3689     1
   3691   3698     1
   3691   3699     1
   3692   3697     1
   3692   3695     1
   3692   3696     1
   3692   3701     1
   3693   3697     1
   3693   3695     1
   3693   3696     1
   3693   3701     1
   3694   3701     1
   3695   3700     1
   3695   3698     1
   3695   3699     1
   3696   3700     1
   3696   3698     1
   3696   3699     1
   3702   3709     1
   3702   3710     1
   3703   3708     1
   3703   3706     1
   3703   3707     1
   3703   3712     1
   3704   3708     1
   3704   3706     1
   3704   3707     1
   3704   3712     1
   3705   3712     1
   3706   3709     1
   3706   3710     1
   3706   3711     1
   3707   3709     1
   3707   3710     1
   3707   3711     1
   3713   3720     1
   3713   3721     1
   3714   3719     1
   3714   3717     1
   3714   3718     1
   3714   3723     1
   3715   3719     1
   3715   3717     1
   3715   3718     1
   3715   3723     1
   3716   3723     1
   3717   3722     1
   3717   3720     1
   3717   3721     1
   3718   3722     1
   3718   3720     1
   3718   3721     1
   3724   3731     1
   3724   3732     1
   3725   3730     1
   3725   3728     1
   3725   3729     1
   3725   3734     1
   3726   3730     1
   3726   3728     1
   3726   3729     1
   3726   3734     1
   3727   3734     1
   3728   3731     1
   3728   3732     1
   3728   3733     1
   3729   3731     1
   3729   3732     1
   3729   3733     1
   3735   3742     1
   3735   3743     1
   3736   3741     1
   3736   3739     1
   3736   3740     1
   3736   3745     1
   3737   3741     1
   3737   3739     1
   3737   3740     1
   3737   3745     1
   3738   3745     1
   3739   3744     1
   3739   3742     1
   3739   3743     1
   3740   3744     1
   3740   3742     1
   3740   3743     1
   3746   3753     1
   3746   3754     1
   3747   3752     1
   3747   3750     1
   3747   3751     1
   3747   3756     1
   3748   3752     1
   3748   3750     1
   3748   3751     1
   3748   3756     1
   3749   3756     1
   3750   3753     1
   3750   3754     1
   3750   3755     1
   3751   3753     1
   3751   3754     1
   3751   3755     1
   3757   3764     1
   3757   3765     1
   3758   3763     1
   3758   3761     1
   3758   3762     1
   3758   3767     1
   3759   3763     1
   3759   3761     1
   3759   3762     1
   3759   3767     1
   3760   3767     1
   3761   3766     1
   3761   3764     1
   3761   3765     1
   3762   3766     1
   3762   3764     1
   3762   3765     1
   3768   3775     1
   3768   3776     1
   3769   3774     1
   3769   3772     1
   3769   3773     1
   3769   3778     1
   3770   3774     1
   3770   3772     1
   3770   3773     1
   3770   3778     1
   3771   3778     1
   3772   3775     1
   3772   3776     1
   3772   3777     1
   3773   3775     1
   3773   3776     1
   3773   3777     1
   3779   3786     1
   3779   3787     1
   3780   3785     1
   3780   3783     1
   3780   3784     1
   3780   3789     1
   3781   3785     1
   3781   3783     1
   3781   3784     1
   3781   3789     1
   3782   3789     1
   3783   3788     1
   3783   3786     1
   3783   3787     1
   3784   3788     1
   3784   3786     1
   3784   3787     1
   3790   3797     1
   3790   3798     1
   3791   3796     1
   3791   3794     1
   3791   3795     1
   3791   3800     1
   3792   3796     1
   3792   3794     1
   3792   3795     1
   3792   3800     1
   3793   3800     1
   3794   3797     1
   3794   3798     1
   3794   3799     1
   3795   3797     1
   3795   3798     1
   3795   3799     1
   3801   3808     1
   3801   3809     1
   3802   3807     1
   3802   3805     1
   3802   3806     1
   3802   3811     1
   3803   3807     1
   3803   3805     1
   3803   3806     1
   3803   3811     1
   3804   3811     1
   3805   3810     1
   3805   3808     1
   3805   3809     1
   3806   3810     1
   3806   3808     1
   3806   3809     1
   3812   3819     1
   3812   3820     1
   3813   3818     1
   3813   3816     1
   3813   3817     1
   3813   3822     1
   3814   3818     1
   3814   3816     1
   3814   3817     1
   3814   3822     1
   3815   3822     1
   3816   3819     1
   3816   3820     1
   3816   3821     1
   3817   3819     1
   3817   3820     1
   3817   3821     1
   3823   3830     1
   3823   3831     1
   3824   3829     1
   3824   3827     1
   3824   3828     1
   3824   3833     1
   3825   3829     1
   3825   3827     1
   3825   3828     1
   3825   3833     1
   3826   3833     1
   3827   3832     1
   3827   3830     1
   3827   3831     1
   3828   3832     1
   3828   3830     1
   3828   3831     1
   3834   3841     1
   3834   3842     1
   3835   3840     1
   3835   3838     1
   3835   3839     1
   3835   3844     1
   3836   3840     1
   3836   3838     1
   3836   3839     1
   3836   3844     1
   3837   3844     1
   3838   3841     1
   3838   3842     1
   3838   3843     1
   3839   3841     1
   3839   3842     1
   3839   3843     1
   3845   3852     1
   3845   3853     1
   3846   3851     1
   3846   3849     1
   3846   3850     1
   3846   3855     1
   3847   3851     1
   3847   3849     1
   3847   3850     1
   3847   3855     1
   3848   3855     1
   3849   3854     1
   3849   3852     1
   3849   3853     1
   3850   3854     1
   3850   3852     1
   3850   3853     1
   3856   3863     1
   3856   3864     1
   3857   3862     1
   3857   3860     1
   3857   3861     1
   3857   3866     1
   3858   3862     1
   3858   3860     1
   3858   3861     1
   3858   3866     1
   3859   3866     1
   3860   3863     1
   3860   3864     1
   3860   3865     1
   3861   3863     1
   3861   3864     1
   3861   3865     1
   3867   3874     1
   3867   3875     1
   3868   3873     1
   3868   3871     1
   3868   3872     1
   3868   3877     1
   3869   3873     1
   3869   3871     1
   3869   3872     1
   3869   3877     1
   3870   3877     1
   3871   3876     1
   3871   3874     1
   3871   3875     1
   3872   3876     1
   3872   3874     1
   3872   3875     1
   3878   3885     1
   3878   3886     1
   3879   3884     1
   3879   3882     1
   3879   3883     1
   3879   3888     1
   3880   3884     1
   3880   3882     1
   3880   3883     1
   3880   3888     1
   3881   3888     1
   3882   3885     1
   3882   3886     1
   3882   3887     1
   3883   3885     1
   3883   3886     1
   3883   3887     1
   3889   3896     1
   3889   3897     1
   3890   3895     1
   3890   3893     1
   3890   3894     1
   3890   3899     1
   3891   3895     1
   3891   3893     1
   3891   3894     1
   3891   3899     1
   3892   3899     1
   3893   3898     1
   3893   3896     1
   3893   3897     1
   3894   3898     1
   3894   3896     1
   3894   3897     1
   3900   3907     1
   3900   3908     1
   3901   3906     1
   3901   3904     1
   3901   3905     1
   3901   3910     1
   3902   3906     1
   3902   3904     1
   3902   3905     1
   3902   3910     1
   3903   3910     1
   3904   3907     1
   3904   3908     1
   3904   3909     1
   3905   3907     1
   3905   3908     1
   3905   3909     1
   3911   3918     1
   3911   3919     1
   3912   3917     1
   3912   3915     1
   3912   3916     1
   3912   3921     1
   3913   3917     1
   3913   3915     1
   3913   3916     1
   3913   3921     1
   3914   3921     1
   3915   3920     1
   3915   3918     1
   3915   3919     1
   3916   3920     1
   3916   3918     1
   3916   3919     1
   3922   3929     1
   3922   3930     1
   3923   3928     1
   3923   3926     1
   3923   3927     1
   3923   3932     1
   3924   3928     1
   3924   3926     1
   3924   3927     1
   3924   3932     1
   3925   3932     1
   3926   3929     1
   3926   3930     1
   3926   3931     1
   3927   3929     1
   3927   3930     1
   3927   3931     1
   3933   3940     1
   3933   3941     1
   3934   3939     1
   3934   3937     1
   3934   3938     1
   3934   3943     1
   3935   3939     1
   3935   3937     1
   3935   3938     1
   3935   3943     1
   3936   3943     1
   3937   3942     1
   3937   3940     1
   3937   3941     1
   3938   3942     1
   3938   3940     1
   3938   3941     1
   3944   3951     1
   3944   3952     1
   3945   3950     1
   3945   3948     1
   3945   3949     1
   3945   3954     1
   3946   3950     1
   3946   3948     1
   3946   3949     1
   3946   3954     1
   3947   3954     1
   3948   3951     1
   3948   3952     1
   3948   3953     1
   3949   3951     1
   3949   3952     1
   3949   3953     1
   3955   3962     1
   3955   3963     1
   3956   3961     1
   3956   3959     1
   3956   3960     1
   3956   3965     1
   3957   3961     1
   3957   3959     1
   3957   3960     1
   3957   3965     1
   3958   3965     1
   3959   3964     1
   3959   3962     1
   3959   3963     1
   3960   3964     1
   3960   3962     1
   3960   3963     1
   3966   3973     1
   3966   3974     1
   3967   3972     1
   3967   3970     1
   3967   3971     1
   3967   3976     1
   3968   3972     1
   3968   3970     1
   3968   3971     1
   3968   3976     1
   3969   3976     1
   3970   3973     1
   3970   3974     1
   3970   3975     1
   3971   3973     1
   3971   3974     1
   3971   3975     1
   3977   3984     1
   3977   3985     1
   3978   3983     1
   3978   3981     1
   3978   3982     1
   3978   3987     1
   3979   3983     1
   3979   3981     1
   3979   3982     1
   3979   3987     1
   3980   3987     1
   3981   3986     1
   3981   3984     1
   3981   3985     1
   3982   3986     1
   3982   3984     1
   3982   3985     1
   3988   3995     1
   3988   3996     1
   3989   3994     1
   3989   3992     1
   3989   3993     1
   3989   3998     1
   3990   3994     1
   3990   3992     1
   3990   3993     1
   3990   3998     1
   3991   3998     1
   3992   3995     1
   3992   3996     1
   3992   3997     1
   3993   3995     1
   3993   3996     1
   3993   3997     1
   3999   4006     1
   3999   4007     1
   4000   4005     1
   4000   4003     1
   4000   4004     1
   4000   4009     1
   4001   4005     1
   4001   4003     1
   4001   4004     1
   4001   4009     1
   4002   4009     1
   4003   4008     1
   4003   4006     1
   4003   4007     1
   4004   4008     1
   4004   4006     1
   4004   4007     1
   4010   4017     1
   4010   4018     1
   4011   4016     1
   4011   4014     1
   4011   4015     1
   4011   4020     1
   4012   4016     1
   4012   4014     1
   4012   4015     1
   4012   4020     1
   4013   4020     1
   4014   4017     1
   4014   4018     1
   4014   4019     1
   4015   4017     1
   4015   4018     1
   4015   4019     1
   4021   4028     1
   4021   4029     1
   4022   4027     1
   4022   4025     1
   4022   4026     1
   4022   4031     1
   4023   4027     1
   4023   4025     1
   4023   4026     1
   4023   4031     1
   4024   4031     1
   4025   4030     1
   4025   4028     1
   4025   4029     1
   4026   4030     1
   4026   4028     1
   4026   4029     1
   4032   4039     1
   4032   4040     1
   4033   4038     1
   4033   4036     1
   4033   4037     1
   4033   4042     1
   4034   4038     1
   4034   4036     1
   4034   4037     1
   4034   4042     1
   4035   4042     1
   4036   4039     1
   4036   4040     1
   4036   4041     1
   4037   4039     1
   4037   4040     1
   4037   4041     1
   4043   4050     1
   4043   4051     1
   4044   4049     1
   4044   4047     1
   4044   4048     1
   4044   4053     1
   4045   4049     1
   4045   4047     1
   4045   4048     1
   4045   4053     1
   4046   4053     1
   4047   4052     1
   4047   4050     1
   4047   4051     1
   4048   4052     1
   4048   4050     1
   4048   4051     1
   4054   4061     1
   4054   4062     1
   4055   4060     1
   4055   4058     1
   4055   4059     1
   4055   4064     1
   4056   4060     1
   4056   4058     1
   4056   4059     1
   4056   4064     1
   4057   4064     1
   4058   4061     1
   4058   4062     1
   4058   4063     1
   4059   4061     1
   4059   4062     1
   4059   4063     1
   4065   4072     1
   4065   4073     1
   4066   4071     1
   4066   4069     1
   4066   4070     1
   4066   4075     1
   4067   4071     1
   4067   4069     1
   4067   4070     1
   4067   4075     1
   4068   4075     1
   4069   4074     1
   4069   4072     1
   4069   4073     1
   4070   4074     1
   4070   4072     1
   4070   4073     1
   4076   4083     1
   4076   4084     1
   4077   4082     1
   4077   4080     1
   4077   4081     1
   4077   4086     1
   4078   4082     1
   4078   4080     1
   4078   4081     1
   4078   4086     1
   4079   4086     1
   4080   4083     1
   4080   4084     1
   4080   4085     1
   4081   4083     1
   4081   4084     1
   4081   4085     1
   4087   4094     1
   4087   4095     1
   4088   4093     1
   4088   4091     1
   4088   4092     1
   4088   4097     1
   4089   4093     1
   4089   4091     1
   4089   4092     1
   4089   4097     1
   4090   4097     1
   4091   4096     1
   4091   4094     1
   4091   4095     1
   4092   4096     1
   4092   4094     1
   4092   4095     1
   4098   4105     1
   4098   4106     1
   4099   4104     1
   4099   4102     1
   4099   4103     1
   4099   4108     1
   4100   4104     1
   4100   4102     1
   4100   4103     1
   4100   4108     1
   4101   4108     1
   4102   4105     1
   4102   4106     1
   4102   4107     1
   4103   4105     1
   4103   4106     1
   4103   4107     1
   4109   4116     1
   4109   4117     1
   4110   4115     1
   4110   4113     1
   4110   4114     1
   4110   4119     1
   4111   4115     1
   4111   4113     1
   4111   4114     1
   4111   4119     1
   4112   4119     1
   4113   4118     1
   4113   4116     1
   4113   4117     1
   4114   4118     1
   4114   4116     1
   4114   4117     1
   4120   4127     1
   4120   4128     1
   4121   4126     1
   4121   4124     1
   4121   4125     1
   4121   4130     1
   4122   4126     1
   4122   4124     1
   4122   4125     1
   4122   4130     1
   4123   4130     1
   4124   4127     1
   4124   4128     1
   4124   4129     1
   4125   4127     1
   4125   4128     1
   4125   4129     1
   4131   4138     1
   4131   4139     1
   4132   4137     1
   4132   4135     1
   4132   4136     1
   4132   4141     1
   4133   4137     1
   4133   4135     1
   4133   4136     1
   4133   4141     1
   4134   4141     1
   4135   4140     1
   4135   4138     1
   4135   4139     1
   4136   4140     1
   4136   4138     1
   4136   4139     1
   4142   4149     1
   4142   4150     1
   4143   4148     1
   4143   4146     1
   4143   4147     1
   4143   4152     1
   4144   4148     1
   4144   4146     1
   4144   4147     1
   4144   4152     1
   4145   4152     1
   4146   4149     1
   4146   4150     1
   4146   4151     1
   4147   4149     1
   4147   4150     1
   4147   4151     1
   4153   4160     1
   4153   4161     1
   4154   4159     1
   4154   4157     1
   4154   4158     1
   4154   4163     1
   4155   4159     1
   4155   4157     1
   4155   4158     1
   4155   4163     1
   4156   4163     1
   4157   4162     1
   4157   4160     1
   4157   4161     1
   4158   4162     1
   4158   4160     1
   4158   4161     1
   4164   4171     1
   4164   4172     1
   4165   4170     1
   4165   4168     1
   4165   4169     1
   4165   4174     1
   4166   4170     1
   4166   4168     1
   4166   4169     1
   4166   4174     1
   4167   4174     1
   4168   4171     1
   4168   4172     1
   4168   4173     1
   4169   4171     1
   4169   4172     1
   4169   4173     1
   4175   4182     1
   4175   4183     1
   4176   4181     1
   4176   4179     1
   4176   4180     1
   4176   4185     1
   4177   4181     1
   4177   4179     1
   4177   4180     1
   4177   4185     1
   4178   4185     1
   4179   4184     1
   4179   4182     1
   4179   4183     1
   4180   4184     1
   4180   4182     1
   4180   4183     1
   4186   4193     1
   4186   4194     1
   4187   4192     1
   4187   4190     1
   4187   4191     1
   4187   4196     1
   4188   4192     1
   4188   4190     1
   4188   4191     1
   4188   4196     1
   4189   4196     1
   4190   4193     1
   4190   4194     1
   4190   4195     1
   4191   4193     1
   4191   4194     1
   4191   4195     1
   4197   4204     1
   4197   4205     1
   4198   4203     1
   4198   4201     1
   4198   4202     1
   4198   4207     1
   4199   4203     1
   4199   4201     1
   4199   4202     1
   4199   4207     1
   4200   4207     1
   4201   4206     1
   4201   4204     1
   4201   4205     1
   4202   4206     1
   4202   4204     1
   4202   4205     1
   4208   4215     1
   4208   4216     1
   4209   4214     1
   4209   4212     1
   4209   4213     1
   4209   4218     1
   4210   4214     1
   4210   4212     1
   4210   4213     1
   4210   4218     1
   4211   4218     1
   4212   4215     1
   4212   4216     1
   4212   4217     1
   4213   4215     1
   4213   4216     1
   4213   4217     1
   4219   4226     1
   4219   4227     1
   4220   4225     1
   4220   4223     1
   4220   4224     1
   4220   4229     1
   4221   4225     1
   4221   4223     1
   4221   4224     1
   4221   4229     1
   4222   4229     1
   4223   4228     1
   4223   4226     1
   4223   4227     1
   4224   4228     1
   4224   4226     1
   4224   4227     1
   4230   4237     1
   4230   4238     1
   4231   4236     1
   4231   4234     1
   4231   4235     1
   4231   4240     1
   4232   4236     1
   4232   4234     1
   4232   4235     1
   4232   4240     1
   4233   4240     1
   4234   4237     1
   4234   4238     1
   4234   4239     1
   4235   4237     1
   4235   4238     1
   4235   4239     1
   4241   4248     1
   4241   4249     1
   4242   4247     1
   4242   4245     1
   4242   4246     1
   4242   4251     1
   4243   4247     1
   4243   4245     1
   4243   4246     1
   4243   4251     1
   4244   4251     1
   4245   4250     1
   4245   4248     1
   4245   4249     1
   4246   4250     1
   4246   4248     1
   4246   4249     1
   4252   4259     1
   4252   4260     1
   4253   4258     1
   4253   4256     1
   4253   4257     1
   4253   4262     1
   4254   4258     1
   4254   4256     1
   4254   4257     1
   4254   4262     1
   4255   4262     1
   4256   4259     1
   4256   4260     1
   4256   4261     1
   4257   4259     1
   4257   4260     1
   4257   4261     1
   4263   4270     1
   4263   4271     1
   4264   4269     1
   4264   4267     1
   4264   4268     1
   4264   4273     1
   4265   4269     1
   4265   4267     1
   4265   4268     1
   4265   4273     1
   4266   4273     1
   4267   4272     1
   4267   4270     1
   4267   4271     1
   4268   4272     1
   4268   4270     1
   4268   4271     1
   4274   4281     1
   4274   4282     1
   4275   4280     1
   4275   4278     1
   4275   4279     1
   4275   4284     1
   4276   4280     1
   4276   4278     1
   4276   4279     1
   4276   4284     1
   4277   4284     1
   4278   4281     1
   4278   4282     1
   4278   4283     1
   4279   4281     1
   4279   4282     1
   4279   4283     1
   4285   4292     1
   4285   4293     1
   4286   4291     1
   4286   4289     1
   4286   4290     1
   4286   4295     1
   4287   4291     1
   4287   4289     1
   4287   4290     1
   4287   4295     1
   4288   4295     1
   4289   4294     1
   4289   4292     1
   4289   4293     1
   4290   4294     1
   4290   4292     1
   4290   4293     1
   4296   4303     1
   4296   4304     1
   4297   4302     1
   4297   4300     1
   4297   4301     1
   4297   4306     1
   4298   4302     1
   4298   4300     1
   4298   4301     1
   4298   4306     1
   4299   4306     1
   4300   4303     1
   4300   4304     1
   4300   4305     1
   4301   4303     1
   4301   4304     1
   4301   4305     1
   4307   4314     1
   4307   4315     1
   4308   4313     1
   4308   4311     1
   4308   4312     1
   4308   4317     1
   4309   4313     1
   4309   4311     1
   4309   4312     1
   4309   4317     1
   4310   4317     1
   4311   4316     1
   4311   4314     1
   4311   4315     1
   4312   4316     1
   4312   4314     1
   4312   4315     1
   4318   4325     1
   4318   4326     1
   4319   4324     1
   4319   4322     1
   4319   4323     1
   4319   4328     1
   4320   4324     1
   4320   4322     1
   4320   4323     1
   4320   4328     1
   4321   4328     1
   4322   4325     1
   4322   4326     1
   4322   4327     1
   4323   4325     1
   4323   4326     1
   4323   4327     1
   4329   4336     1
   4329   4337     1
   4330   4335     1
   4330   4333     1
   4330   4334     1
   4330   4339     1
   4331   4335     1
   4331   4333     1
   4331   4334     1
   4331   4339     1
   4332   4339     1
   4333   4338     1
   4333   4336     1
   4333   4337     1
   4334   4338     1
   4334   4336     1
   4334   4337     1
   4340   4347     1
   4340   4348     1
   4341   4346     1
   4341   4344     1
   4341   4345     1
   4341   4350     1
   4342   4346     1
   4342   4344     1
   4342   4345     1
   4342   4350     1
   4343   4350     1
   4344   4347     1
   4344   4348     1
   4344   4349     1
   4345   4347     1
   4345   4348     1
   4345   4349     1
   4351   4358     1
   4351   4359     1
   4352   4357     1
   4352   4355     1
   4352   4356     1
   4352   4361     1
   4353   4357     1
   4353   4355     1
   4353   4356     1
   4353   4361     1
   4354   4361     1
   4355   4360     1
   4355   4358     1
   4355   4359     1
   4356   4360     1
   4356   4358     1
   4356   4359     1
   4362   4369     1
   4362   4370     1
   4363   4368     1
   4363   4366     1
   4363   4367     1
   4363   4372     1
   4364   4368     1
   4364   4366     1
   4364   4367     1
   4364   4372     1
   4365   4372     1
   4366   4369     1
   4366   4370     1
   4366   4371     1
   4367   4369     1
   4367   4370     1
   4367   4371     1
   4373   4380     1
   4373   4381     1
   4374   4379     1
   4374   4377     1
   4374   4378     1
   4374   4383     1
   4375   4379     1
   4375   4377     1
   4375   4378     1
   4375   4383     1
   4376   4383     1
   4377   4382     1
   4377   4380     1
   4377   4381     1
   4378   4382     1
   4378   4380     1
   4378   4381     1
   4384   4391     1
   4384   4392     1
   4385   4390     1
   4385   4388     1
   4385   4389     1
   4385   4394     1
   4386   4390     1
   4386   4388     1
   4386   4389     1
   4386   4394     1
   4387   4394     1
   4388   4391     1
   4388   4392     1
   4388   4393     1
   4389   4391     1
   4389   4392     1
   4389   4393     1
   4395   4402     1
   4395   4403     1
   4396   4401     1
   4396   4399     1
   4396   4400     1
   4396   4405     1
   4397   4401     1
   4397   4399     1
   4397   4400     1
   4397   4405     1
   4398   4405     1
   4399   4404     1
   4399   4402     1
   4399   4403     1
   4400   4404     1
   4400   4402     1
   4400   4403     1
   4406   4413     1
   4406   4414     1
   4407   4412     1
   4407   4410     1
   4407   4411     1
   4407   4416     1
   4408   4412     1
   4408   4410     1
   4408   4411     1
   4408   4416     1
   4409   4416     1
   4410   4413     1
   4410   4414     1
   4410   4415     1
   4411   4413     1
   4411   4414     1
   4411   4415     1
   4417   4424     1
   4417   4425     1
   4418   4423     1
   4418   4421     1
   4418   4422     1
   4418   4427     1
   4419   4423     1
   4419   4421     1
   4419   4422     1
   4419   4427     1
   4420   4427     1
   4421   4426     1
   4421   4424     1
   4421   4425     1
   4422   4426     1
   4422   4424     1
   4422   4425     1
   4428   4435     1
   4428   4436     1
   4429   4434     1
   4429   4432     1
   4429   4433     1
   4429   4438     1
   4430   4434     1
   4430   4432     1
   4430   4433     1
   4430   4438     1
   4431   4438     1
   4432   4435     1
   4432   4436     1
   4432   4437     1
   4433   4435     1
   4433   4436     1
   4433   4437     1
   4439   4446     1
   4439   4447     1
   4440   4445     1
   4440   4443     1
   4440   4444     1
   4440   4449     1
   4441   4445     1
   4441   4443     1
   4441   4444     1
   4441   4449     1
   4442   4449     1
   4443   4448     1
   4443   4446     1
   4443   4447     1
   4444   4448     1
   4444   4446     1
   4444   4447     1
   4450   4457     1
   4450   4458     1
   4451   4456     1
   4451   4454     1
   4451   4455     1
   4451   4460     1
   4452   4456     1
   4452   4454     1
   4452   4455     1
   4452   4460     1
   4453   4460     1
   4454   4457     1
   4454   4458     1
   4454   4459     1
   4455   4457     1
   4455   4458     1
   4455   4459     1
   4461   4468     1
   4461   4469     1
   4462   4467     1
   4462   4465     1
   4462   4466     1
   4462   4471     1
   4463   4467     1
   4463   4465     1
   4463   4466     1
   4463   4471     1
   4464   4471     1
   4465   4470     1
   4465   4468     1
   4465   4469     1
   4466   4470     1
   4466   4468     1
   4466   4469     1
   4472   4479     1
   4472   4480     1
   4473   4478     1
   4473   4476     1
   4473   4477     1
   4473   4482     1
   4474   4478     1
   4474   4476     1
   4474   4477     1
   4474   4482     1
   4475   4482     1
   4476   4479     1
   4476   4480     1
   4476   4481     1
   4477   4479     1
   4477   4480     1
   4477   4481     1
   4483   4490     1
   4483   4491     1
   4484   4489     1
   4484   4487     1
   4484   4488     1
   4484   4493     1
   4485   4489     1
   4485   4487     1
   4485   4488     1
   4485   4493     1
   4486   4493     1
   4487   4492     1
   4487   4490     1
   4487   4491     1
   4488   4492     1
   4488   4490     1
   4488   4491     1
   4494   4501     1
   4494   4502     1
   4495   4500     1
   4495   4498     1
   4495   4499     1
   4495   4504     1
   4496   4500     1
   4496   4498     1
   4496   4499     1
   4496   4504     1
   4497   4504     1
   4498   4501     1
   4498   4502     1
   4498   4503     1
   4499   4501     1
   4499   4502     1
   4499   4503     1
   4505   4512     1
   4505   4513     1
   4506   4511     1
   4506   4509     1
   4506   4510     1
   4506   4515     1
   4507   4511     1
   4507   4509     1
   4507   4510     1
   4507   4515     1
   4508   4515     1
   4509   4514     1
   4509   4512     1
   4509   4513     1
   4510   4514     1
   4510   4512     1
   4510   4513     1
   4516   4523     1
   4516   4524     1
   4517   4522     1
   4517   4520     1
   4517   4521     1
   4517   4526     1
   4518   4522     1
   4518   4520     1
   4518   4521     1
   4518   4526     1
   4519   4526     1
   4520   4523     1
   4520   4524     1
   4520   4525     1
   4521   4523     1
   4521   4524     1
   4521   4525     1
   4527   4534     1
   4527   4535     1
   4528   4533     1
   4528   4531     1
   4528   4532     1
   4528   4537     1
   4529   4533     1
   4529   4531     1
   4529   4532     1
   4529   4537     1
   4530   4537     1
   4531   4536     1
   4531   4534     1
   4531   4535     1
   4532   4536     1
   4532   4534     1
   4532   4535     1
   4538   4545     1
   4538   4546     1
   4539   4544     1
   4539   4542     1
   4539   4543     1
   4539   4548     1
   4540   4544     1
   4540   4542     1
   4540   4543     1
   4540   4548     1
   4541   4548     1
   4542   4545     1
   4542   4546     1
   4542   4547     1
   4543   4545     1
   4543   4546     1
   4543   4547     1

[ angles ]
;    ai     aj     ak funct         c0         c1         c2         c3
      1      4      7     1   111.0400475 552.288000
      1      8      9     1   112.3500484 533.878400
      1      8     12     1   112.3500484 533.878400
      4      1      8     1   111.0400475 552.288000
      4      7     15     1   112.3500484 533.878400
      4      7     18     1   112.3500484 533.878400
      7     15     21     1   111.0400475 552.288000
      7     18     24     1   111.0400475 552.288000
      8      9     30     1   111.0400475 552.288000
      8     12     27     1   111.0400475 552.288000
      9      8     12     1   112.3500484 533.878400
      9     30     34     1   111.0400475 529.694400
     12     27     33     1   111.0400475 529.694400
     15      7     18     1   112.3500484 533.878400
     15     21     35     1   111.0400475 529.694400
     18     24     36     1   111.0400475 529.694400
     21     35     38     1   123.2000528 564.003200
     21     35    114     1   115.1800491 558.982400
     24     36     39     1   123.2000528 564.003200
     24     36    139     1   115.1800491 558.982400
     27     33     37     1   123.2000528 564.003200
     27     33     64     1   115.1800491 558.982400
     30     34     40     1   123.2000528 564.003200
     30     34     89     1   115.1800491 558.982400
     33     64     44     1   120.6900519 530.531200
     34     89     69     1   120.6900519 530.531200
     35    114     94     1   120.6900519 530.531200
     36    139    119     1   120.6900519 530.531200
     37     33     64     1   123.0500530 620.905600
     38     35    114     1   123.0500530 620.905600
     39     36    139     1   123.0500530 620.905600
     40     34     89     1   123.0500530 620.905600
     41     44     64     1   111.6100477 551.451200
     41     47     48     1   112.3500484 533.878400
     41     47     51     1   112.3500484 533.878400
     44     41     47     1   111.0400475 552.288000
     47     48     57     1   111.0400475 552.288000
     47     51     54     1   111.0400475 552.288000
     48     47     51     1   112.3500484 533.878400
     48     57     61     1   111.0400475 529.694400
     51     54     60     1   111.0400475 529.694400
     54     60     62     1   123.2000528 564.003200
     54     60    164     1   115.1800491 558.982400
     57     61     63     1   123.2000528 564.003200
     57     61    189     1   115.1800491 558.982400
     60    164    144     1   120.6900519 530.531200
     61    189    169     1   120.6900519 530.531200
     62     60    164     1   123.0500530 620.905600
     63     61    189     1   123.0500530 620.905600
     66     69     89     1   111.6100477 551.451200
     66     72     73     1   112.3500484 533.878400
     66     72     76     1   112.3500484 533.878400
     69     66     72     1   111.0400475 552.288000
     72     73     82     1   111.0400475 552.288000
     72     76     79     1   111.0400475 552.288000
     73     72     76     1   112.3500484 533.878400
     73     82     86     1   111.0400475 529.694400
     76     79     85     1   111.0400475 529.694400
     79     85     87     1   123.2000528 564.003200
     79     85    214     1   115.1800491 558.982400
     82     86     88     1   123.2000528 564.003200
     82     86    239     1   115.1800491 558.982400
     85    214    194     1   120.6900519 530.531200
     86    239    219     1   120.6900519 530.531200
     87     85    214     1   123.0500530 620.905600
     88     86    239     1   123.0500530 620.905600
     91     94    114     1   111.6100477 551.451200
     91     97     98     1   112.3500484 533.878400
     91     97    101     1   112.3500484 533.878400
     94     91     97     1   111.0400475 552.288000
     97     98    107     1   111.0400475 552.288000
     97    101    104     1   111.0400475 552.288000
     98     97    101     1   112.3500484 533.878400
     98    107    111     1   111.0400475 529.694400
    101    104    110     1   111.0400475 529.694400
    104    110    112     1   123.2000528 564.003200
    104    110    264     1   115.1800491 558.982400
    107    111    113     1   123.2000528 564.003200
    107    111    289     1   115.1800491 558.982400
    110    264    244     1   120.6900519 530.531200
    111    289    269     1   120.6900519 530.531200
    112    110    264     1   123.0500530 620.905600
    113    111    289     1   123.0500530 620.905600
    116    119    139     1   111.6100477 551.451200
    116    122    123     1   112.3500484 533.878400
    116    122    126     1   112.3500484 533.878400
    119    116    122     1   111.0400475 552.288000
    122    123    132     1   111.0400475 552.288000
    122    126    129     1   111.0400475 552.288000
    123    122    126     1   112.3500484 533.878400
    123    132    136     1   111.0400475 529.694400
    126    129    135     1   111.0400475 529.694400
    129    135    137     1   123.2000528 564.003200
    129    135    314     1   115.1800491 558.982400
    132    136    138     1   123.2000528 564.003200
    132    136    339     1   115.1800491 558.982400
    135    314    294     1   120.6900519 530.531200
    136    339    319     1   120.6900519 530.531200
    137    135    314     1   123.0500530 620.905600
    138    136    339     1   123.0500530 620.905600
    141    144    164     1   111.6100477 551.451200
    141    147    148     1   112.3500484 533.878400
    141    147    151     1   112.3500484 533.878400
    144    141    147     1   111.0400475 552.288000
    147    148    157     1   111.0400475 552.288000
    147    151    154     1   111.0400475 552.288000
    148    147    151     1   112.3500484 533.878400
    148    157    161     1   111.0400475 529.694400
    151    154    160     1   111.0400475 529.694400
    154    160    162     1   123.2000528 564.003200
    154    160    364     1   115.1800491 558.982400
    157    161    163     1   123.2000528 564.003200
    157    161    389     1   115.1800491 558.982400
    160    364    344     1   120.6900519 530.531200
    161    389    369     1   120.6900519 530.531200
    162    160    364     1   123.0500530 620.905600
    163    161    389     1   123.0500530 620.905600
    166    169    189     1   111.6100477 551.451200
    166    172    173     1   112.3500484 533.878400
    166    172    176     1   112.3500484 533.878400
    169    166    172     1   111.0400475 552.288000
    172    173    182     1   111.0400475 552.288000
    172    176    179     1   111.0400475 552.288000
    173    172    176     1   112.3500484 533.878400
    173    182    186     1   111.0400475 529.694400
    176    179    185     1   111.0400475 529.694400
    179    185    187     1   123.2000528 564.003200
    179    185    414     1   115.1800491 558.982400
    182    186    188     1   123.2000528 564.003200
    182    186    439     1   115.1800491 558.982400
    185    414    394     1   120.6900519 530.531200
    186    439    419     1   120.6900519 530.531200
    187    185    414     1   123.0500530 620.905600
    188    186    439     1   123.0500530 620.905600
    191    194    214     1   111.6100477 551.451200
    191    197    198     1   112.3500484 533.878400
    191    197    201     1   112.3500484 533.878400
    194    191    197     1   111.0400475 552.288000
    197    198    207     1   111.0400475 552.288000
    197    201    204     1   111.0400475 552.288000
    198    197    201     1   112.3500484 533.878400
    198    207    211     1   111.0400475 529.694400
    201    204    210     1   111.0400475 529.694400
    204    210    212     1   123.2000528 564.003200
    204    210    464     1   115.1800491 558.982400
    207    211    213     1   123.2000528 564.003200
    207    211    489     1   115.1800491 558.982400
    210    464    444     1   120.6900519 530.531200
    211    489    469     1   120.6900519 530.531200
    212    210    464     1   123.0500530 620.905600
    213    211    489     1   123.0500530 620.905600
    216    219    239     1   111.6100477 551.451200
    216    222    223     1   112.3500484 533.878400
    216    222    226     1   112.3500484 533.878400
    219    216    222     1   111.0400475 552.288000
    222    223    232     1   111.0400475 552.288000
    222    226    229     1   111.0400475 552.288000
    223    222    226     1   112.3500484 533.878400
    223    232    236     1   111.0400475 529.694400
    226    229    235     1   111.0400475 529.694400
    229    235    237     1   123.2000528 564.003200
    229    235    514     1   115.1800491 558.982400
    232    236    238     1   123.2000528 564.003200
    232    236    539     1   115.1800491 558.982400
    235    514    494     1   120.6900519 530.531200
    236    539    519     1   120.6900519 530.531200
    237    235    514     1   123.0500530 620.905600
    238    236    539     1   123.0500530 620.905600
    241    244    264     1   111.6100477 551.451200
    241    247    248     1   112.3500484 533.878400
    241    247    251     1   112.3500484 533.878400
    244    241    247     1   111.0400475 552.288000
    247    248    257     1   111.0400475 552.288000
    247    251    254     1   111.0400475 552.288000
    248    247    251     1   112.3500484 533.878400
    248    257    261     1   111.0400475 529.694400
    251    254    260     1   111.0400475 529.694400
    254    260    262     1   123.2000528 564.003200
    254    260    564     1   115.1800491 558.982400
    257    261    263     1   123.2000528 564.003200
    257    261    589     1   115.1800491 558.982400
    260    564    544     1   120.6900519 530.531200
    261    589    569     1   120.6900519 530.531200
    262    260    564     1   123.0500530 620.905600
    263    261    589     1   123.0500530 620.905600
    266    269    289     1   111.6100477 551.451200
    266    272    273     1   112.3500484 533.878400
    266    272    276     1   112.3500484 533.878400
    269    266    272     1   111.0400475 552.288000
    272    273    282     1   111.0400475 552.288000
    272    276    279     1   111.0400475 552.288000
    273    272    276     1   112.3500484 533.878400
    273    282    286     1   111.0400475 529.694400
    276    279    285     1   111.0400475 529.694400
    279    285    287     1   123.2000528 564.003200
    279    285    614     1   115.1800491 558.982400
    282    286    288     1   123.2000528 564.003200
    282    286    639     1   115.1800491 558.982400
    285    614    594     1   120.6900519 530.531200
    286    639    619     1   120.6900519 530.531200
    287    285    614     1   123.0500530 620.905600
    288    286    639     1   123.0500530 620.905600
    291    294    314     1   111.6100477 551.451200
    291    297    298     1   112.3500484 533.878400
    291    297    301     1   112.3500484 533.878400
    294    291    297     1   111.0400475 552.288000
    297    298    307     1   111.0400475 552.288000
    297    301    304     1   111.0400475 552.288000
    298    297    301     1   112.3500484 533.878400
    298    307    311     1   111.0400475 529.694400
    301    304    310     1   111.0400475 529.694400
    304    310    312     1   123.2000528 564.003200
    304    310    664     1   115.1800491 558.982400
    307    311    313     1   123.2000528 564.003200
    307    311    689     1   115.1800491 558.982400
    310    664    644     1   120.6900519 530.531200
    311    689    669     1   120.6900519 530.531200
    312    310    664     1   123.0500530 620.905600
    313    311    689     1   123.0500530 620.905600
    316    319    339     1   111.6100477 551.451200
    316    322    323     1   112.3500484 533.878400
    316    322    326     1   112.3500484 533.878400
    319    316    322     1   111.0400475 552.288000
    322    323    332     1   111.0400475 552.288000
    322    326    329     1   111.0400475 552.288000
    323    322    326     1   112.3500484 533.878400
    323    332    336     1   111.0400475 529.694400
    326    329    335     1   111.0400475 529.694400
    329    335    337     1   123.2000528 564.003200
    329    335    714     1   115.1800491 558.982400
    332    336    338     1   123.2000528 564.003200
    332    336    739     1   115.1800491 558.982400
    335    714    694     1   120.6900519 530.531200
    336    739    719     1   120.6900519 530.531200
    337    335    714     1   123.0500530 620.905600
    338    336    739     1   123.0500530 620.905600
    341    344    364     1   111.6100477 551.451200
    341    347    348     1   112.3500484 533.878400
    341    347    351     1   112.3500484 533.878400
    344    341    347     1   111.0400475 552.288000
    347    348    357     1   111.0400475 552.288000
    347    351    354     1   111.0400475 552.288000
    348    347    351     1   112.3500484 533.878400
    348    357    361     1   111.0400475 529.694400
    351    354    360     1   111.0400475 529.694400
    354    360    362     1   123.2000528 564.003200
    354    360    764     1   115.1800491 558.982400
    357    361    363     1   123.2000528 564.003200
    357    361    789     1   115.1800491 558.982400
    360    764    744     1   120.6900519 530.531200
    361    789    769     1   120.6900519 530.531200
    362    360    764     1   123.0500530 620.905600
    363    361    789     1   123.0500530 620.905600
    366    369    389     1   111.6100477 551.451200
    366    372    373     1   112.3500484 533.878400
    366    372    376     1   112.3500484 533.878400
    369    366    372     1   111.0400475 552.288000
    372    373    382     1   111.0400475 552.288000
    372    376    379     1   111.0400475 552.288000
    373    372    376     1   112.3500484 533.878400
    373    382    386     1   111.0400475 529.694400
    376    379    385     1   111.0400475 529.694400
    379    385    387     1   123.2000528 564.003200
    379    385    814     1   115.1800491 558.982400
    382    386    388     1   123.2000528 564.003200
    382    386    839     1   115.1800491 558.982400
    385    814    794     1   120.6900519 530.531200
    386    839    819     1   120.6900519 530.531200
    387    385    814     1   123.0500530 620.905600
    388    386    839     1   123.0500530 620.905600
    391    394    414     1   111.6100477 551.451200
    391    397    398     1   112.3500484 533.878400
    391    397    401     1   112.3500484 533.878400
    394    391    397     1   111.0400475 552.288000
    397    398    407     1   111.0400475 552.288000
    397    401    404     1   111.0400475 552.288000
    398    397    401     1   112.3500484 533.878400
    398    407    411     1   111.0400475 529.694400
    401    404    410     1   111.0400475 529.694400
    404    410    412     1   123.2000528 564.003200
    404    410    864     1   115.1800491 558.982400
    407    411    413     1   123.2000528 564.003200
    407    411    889     1   115.1800491 558.982400
    410    864    844     1   120.6900519 530.531200
    411    889    869     1   120.6900519 530.531200
    412    410    864     1   123.0500530 620.905600
    413    411    889     1   123.0500530 620.905600
    416    419    439     1   111.6100477 551.451200
    416    422    423     1   112.3500484 533.878400
    416    422    426     1   112.3500484 533.878400
    419    416    422     1   111.0400475 552.288000
    422    423    432     1   111.0400475 552.288000
    422    426    429     1   111.0400475 552.288000
    423    422    426     1   112.3500484 533.878400
    423    432    436     1   111.0400475 529.694400
    426    429    435     1   111.0400475 529.694400
    429    435    437     1   123.2000528 564.003200
    429    435    914     1   115.1800491 558.982400
    432    436    438     1   123.2000528 564.003200
    432    436    939     1   115.1800491 558.982400
    435    914    894     1   120.6900519 530.531200
    436    939    919     1   120.6900519 530.531200
    437    435    914     1   123.0500530 620.905600
    438    436    939     1   123.0500530 620.905600
    441    444    464     1   111.6100477 551.451200
    441    447    448     1   112.3500484 533.878400
    441    447    451     1   112.3500484 533.878400
    444    441    447     1   111.0400475 552.288000
    447    448    457     1   111.0400475 552.288000
    447    451    454     1   111.0400475 552.288000
    448    447    451     1   112.3500484 533.878400
    448    457    461     1   111.0400475 529.694400
    451    454    460     1   111.0400475 529.694400
    454    460    462     1   123.2000528 564.003200
    454    460    964     1   115.1800491 558.982400
    457    461    463     1   123.2000528 564.003200
    457    461    989     1   115.1800491 558.982400
    460    964    944     1   120.6900519 530.531200
    461    989    969     1   120.6900519 530.531200
    462    460    964     1   123.0500530 620.905600
    463    461    989     1   123.0500530 620.905600
    466    469    489     1   111.6100477 551.451200
    466    472    473     1   112.3500484 533.878400
    466    472    476     1   112.3500484 533.878400
    469    466    472     1   111.0400475 552.288000
    472    473    482     1   111.0400475 552.288000
    472    476    479     1   111.0400475 552.288000
    473    472    476     1   112.3500484 533.878400
    473    482    486     1   111.0400475 529.694400
    476    479    485     1   111.0400475 529.694400
    479    485    487     1   123.2000528 564.003200
    479    485   1014     1   115.1800491 558.982400
    482    486    488     1   123.2000528 564.003200
    482    486   1039     1   115.1800491 558.982400
    485   1014    994     1   120.6900519 530.531200
    486   1039   1019     1   120.6900519 530.531200
    487    485   1014     1   123.0500530 620.905600
    488    486   1039     1   123.0500530 620.905600
    491    494    514     1   111.6100477 551.451200
    491    497    498     1   112.3500484 533.878400
    491    497    501     1   112.3500484 533.878400
    494    491    497     1   111.0400475 552.288000
    497    498    507     1   111.0400475 552.288000
    497    501    504     1   111.0400475 552.288000
    498    497    501     1   112.3500484 533.878400
    498    507    511     1   111.0400475 529.694400
    501    504    510     1   111.0400475 529.694400
    504    510    512     1   123.2000528 564.003200
    504    510   1064     1   115.1800491 558.982400
    507    511    513     1   123.2000528 564.003200
    507    511   1089     1   115.1800491 558.982400
    510   1064   1044     1   120.6900519 530.531200
    511   1089   1069     1   120.6900519 530.531200
    512    510   1064     1   123.0500530 620.905600
    513    511   1089     1   123.0500530 620.905600
    516    519    539     1   111.6100477 551.451200
    516    522    523     1   112.3500484 533.878400
    516    522    526     1   112.3500484 533.878400
    519    516    522     1   111.0400475 552.288000
    522    523    532     1   111.0400475 552.288000
    522    526    529     1   111.0400475 552.288000
    523    522    526     1   112.3500484 533.878400
    523    532    536     1   111.0400475 529.694400
    526    529    535     1   111.0400475 529.694400
    529    535    537     1   123.2000528 564.003200
    529    535   1114     1   115.1800491 558.982400
    532    536    538     1   123.2000528 564.003200
    532    536   1139     1   115.1800491 558.982400
    535   1114   1094     1   120.6900519 530.531200
    536   1139   1119     1   120.6900519 530.531200
    537    535   1114     1   123.0500530 620.905600
    538    536   1139     1   123.0500530 620.905600
    541    544    564     1   111.6100477 551.451200
    541    547    548     1   112.3500484 533.878400
    541    547    551     1   112.3500484 533.878400
    544    541    547     1   111.0400475 552.288000
    547    548    557     1   111.0400475 552.288000
    547    551    554     1   111.0400475 552.288000
    548    547    551     1   112.3500484 533.878400
    548    557    561     1   111.0400475 529.694400
    551    554    560     1   111.0400475 529.694400
    554    560    562     1   123.2000528 564.003200
    554    560   1164     1   115.1800491 558.982400
    557    561    563     1   123.2000528 564.003200
    557    561   1189     1   115.1800491 558.982400
    560   1164   1144     1   120.6900519 530.531200
    561   1189   1169     1   120.6900519 530.531200
    562    560   1164     1   123.0500530 620.905600
    563    561   1189     1   123.0500530 620.905600
    566    569    589     1   111.6100477 551.451200
    566    572    573     1   112.3500484 533.878400
    566    572    576     1   112.3500484 533.878400
    569    566    572     1   111.0400475 552.288000
    572    573    582     1   111.0400475 552.288000
    572    576    579     1   111.0400475 552.288000
    573    572    576     1   112.3500484 533.878400
    573    582    586     1   111.0400475 529.694400
    576    579    585     1   111.0400475 529.694400
    579    585    587     1   123.2000528 564.003200
    579    585   1214     1   115.1800491 558.982400
    582    586    588     1   123.2000528 564.003200
    582    586   1239     1   115.1800491 558.982400
    585   1214   1194     1   120.6900519 530.531200
    586   1239   1219     1   120.6900519 530.531200
    587    585   1214     1   123.0500530 620.905600
    588    586   1239     1   123.0500530 620.905600
    591    594    614     1   111.6100477 551.451200
    591    597    598     1   112.3500484 533.878400
    591    597    601     1   112.3500484 533.878400
    594    591    597     1   111.0400475 552.288000
    597    598    607     1   111.0400475 552.288000
    597    601    604     1   111.0400475 552.288000
    598    597    601     1   112.3500484 533.878400
    598    607    611     1   111.0400475 529.694400
    601    604    610     1   111.0400475 529.694400
    604    610    612     1   123.2000528 564.003200
    604    610   1264     1   115.1800491 558.982400
    607    611    613     1   123.2000528 564.003200
    607    611   1289     1   115.1800491 558.982400
    610   1264   1244     1   120.6900519 530.531200
    611   1289   1269     1   120.6900519 530.531200
    612    610   1264     1   123.0500530 620.905600
    613    611   1289     1   123.0500530 620.905600
    616    619    639     1   111.6100477 551.451200
    616    622    623     1   112.3500484 533.878400
    616    622    626     1   112.3500484 533.878400
    619    616    622     1   111.0400475 552.288000
    622    623    632     1   111.0400475 552.288000
    622    626    629     1   111.0400475 552.288000
    623    622    626     1   112.3500484 533.878400
    623    632    636     1   111.0400475 529.694400
    626    629    635     1   111.0400475 529.694400
    629    635    637     1   123.2000528 564.003200
    629    635   1314     1   115.1800491 558.982400
    632    636    638     1   123.2000528 564.003200
    632    636   1339     1   115.1800491 558.982400
    635   1314   1294     1   120.6900519 530.531200
    636   1339   1319     1   120.6900519 530.531200
    637    635   1314     1   123.0500530 620.905600
    638    636   1339     1   123.0500530 620.905600
    641    644    664     1   111.6100477 551.451200
    641    647    648     1   112.3500484 533.878400
    641    647    651     1   112.3500484 533.878400
    644    641    647     1   111.0400475 552.288000
    647    648    657     1   111.0400475 552.288000
    647    651    654     1   111.0400475 552.288000
    648    647    651     1   112.3500484 533.878400
    648    657    661     1   111.0400475 529.694400
    651    654    660     1   111.0400475 529.694400
    654    660    662     1   123.2000528 564.003200
    654    660   1364     1   115.1800491 558.982400
    657    661    663     1   123.2000528 564.003200
    657    661   1389     1   115.1800491 558.982400
    660   1364   1344     1   120.6900519 530.531200
    661   1389   1369     1   120.6900519 530.531200
    662    660   1364     1   123.0500530 620.905600
    663    661   1389     1   123.0500530 620.905600
    666    669    689     1   111.6100477 551.451200
    666    672    673     1   112.3500484 533.878400
    666    672    676     1   112.3500484 533.878400
    669    666    672     1   111.0400475 552.288000
    672    673    682     1   111.0400475 552.288000
    672    676    679     1   111.0400475 552.288000
    673    672    676     1   112.3500484 533.878400
    673    682    686     1   111.0400475 529.694400
    676    679    685     1   111.0400475 529.694400
    679    685    687     1   123.2000528 564.003200
    679    685   1414     1   115.1800491 558.982400
    682    686    688     1   123.2000528 564.003200
    682    686   1439     1   115.1800491 558.982400
    685   1414   1394     1   120.6900519 530.531200
    686   1439   1419     1   120.6900519 530.531200
    687    685   1414     1   123.0500530 620.905600
    688    686   1439     1   123.0500530 620.905600
    691    694    714     1   111.6100477 551.451200
    691    697    698     1   112.3500484 533.878400
    691    697    701     1   112.3500484 533.878400
    694    691    697     1   111.0400475 552.288000
    697    698    707     1   111.0400475 552.288000
    697    701    704     1   111.0400475 552.288000
    698    697    701     1   112.3500484 533.878400
    698    707    711     1   111.0400475 529.694400
    701    704    710     1   111.0400475 529.694400
    704    710    712     1   123.2000528 564.003200
    704    710   1464     1   115.1800491 558.982400
    707    711    713     1   123.2000528 564.003200
    707    711   1489     1   115.1800491 558.982400
    710   1464   1444     1   120.6900519 530.531200
    711   1489   1469     1   120.6900519 530.531200
    712    710   1464     1   123.0500530 620.905600
    713    711   1489     1   123.0500530 620.905600
    716    719    739     1   111.6100477 551.451200
    716    722    723     1   112.3500484 533.878400
    716    722    726     1   112.3500484 533.878400
    719    716    722     1   111.0400475 552.288000
    722    723    732     1   111.0400475 552.288000
    722    726    729     1   111.0400475 552.288000
    723    722    726     1   112.3500484 533.878400
    723    732    736     1   111.0400475 529.694400
    726    729    735     1   111.0400475 529.694400
    729    735    737     1   123.2000528 564.003200
    729    735   1514     1   115.1800491 558.982400
    732    736    738     1   123.2000528 564.003200
    732    736   1539     1   115.1800491 558.982400
    735   1514   1494     1   120.6900519 530.531200
    736   1539   1519     1   120.6900519 530.531200
    737    735   1514     1   123.0500530 620.905600
    738    736   1539     1   123.0500530 620.905600
    741    744    764     1   111.6100477 551.451200
    741    747    748     1   112.3500484 533.878400
    741    747    751     1   112.3500484 533.878400
    744    741    747     1   111.0400475 552.288000
    747    748    757     1   111.0400475 552.288000
    747    751    754     1   111.0400475 552.288000
    748    747    751     1   112.3500484 533.878400
    748    757    761     1   111.0400475 529.694400
    751    754    760     1   111.0400475 529.694400
    754    760    762     1   123.2000528 564.003200
    754    760   1564     1   115.1800491 558.982400
    757    761    763     1   123.2000528 564.003200
    757    761   1589     1   115.1800491 558.982400
    760   1564   1544     1   120.6900519 530.531200
    761   1589   1569     1   120.6900519 530.531200
    762    760   1564     1   123.0500530 620.905600
    763    761   1589     1   123.0500530 620.905600
    766    769    789     1   111.6100477 551.451200
    766    772    773     1   112.3500484 533.878400
    766    772    776     1   112.3500484 533.878400
    769    766    772     1   111.0400475 552.288000
    772    773    782     1   111.0400475 552.288000
    772    776    779     1   111.0400475 552.288000
    773    772    776     1   112.3500484 533.878400
    773    782    786     1   111.0400475 529.694400
    776    779    785     1   111.0400475 529.694400
    779    785    787     1   123.2000528 564.003200
    779    785   1614     1   115.1800491 558.982400
    782    786    788     1   123.2000528 564.003200
    782    786   1639     1   115.1800491 558.982400
    785   1614   1594     1   120.6900519 530.531200
    786   1639   1619     1   120.6900519 530.531200
    787    785   1614     1   123.0500530 620.905600
    788    786   1639     1   123.0500530 620.905600
    791    794    814     1   111.6100477 551.451200
    791    797    798     1   112.3500484 533.878400
    791    797    801     1   112.3500484 533.878400
    794    791    797     1   111.0400475 552.288000
    797    798    807     1   111.0400475 552.288000
    797    801    804     1   111.0400475 552.288000
    798    797    801     1   112.3500484 533.878400
    798    807    811     1   111.0400475 529.694400
    801    804    810     1   111.0400475 529.694400
    804    810    812     1   123.2000528 564.003200
    804    810   1664     1   115.1800491 558.982400
    807    811    813     1   123.2000528 564.003200
    807    811   1689     1   115.1800491 558.982400
    810   1664   1644     1   120.6900519 530.531200
    811   1689   1669     1   120.6900519 530.531200
    812    810   1664     1   123.0500530 620.905600
    813    811   1689     1   123.0500530 620.905600
    816    819    839     1   111.6100477 551.451200
    816    822    823     1   112.3500484 533.878400
    816    822    826     1   112.3500484 533.878400
    819    816    822     1   111.0400475 552.288000
    822    823    832     1   111.0400475 552.288000
    822    826    829     1   111.0400475 552.288000
    823    822    826     1   112.3500484 533.878400
    823    832    836     1   111.0400475 529.694400
    826    829    835     1   111.0400475 529.694400
    829    835    837     1   123.2000528 564.003200
    829    835   1714     1   115.1800491 558.982400
    832    836    838     1   123.2000528 564.003200
    832    836   1739     1   115.1800491 558.982400
    835   1714   1694     1   120.6900519 530.531200
    836   1739   1719     1   120.6900519 530.531200
    837    835   1714     1   123.0500530 620.905600
    838    836   1739     1   123.0500530 620.905600
    841    844    864     1   111.6100477 551.451200
    841    847    848     1   112.3500484 533.878400
    841    847    851     1   112.3500484 533.878400
    844    841    847     1   111.0400475 552.288000
    847    848    857     1   111.0400475 552.288000
    847    851    854     1   111.0400475 552.288000
    848    847    851     1   112.3500484 533.878400
    848    857    861     1   111.0400475 529.694400
    851    854    860     1   111.0400475 529.694400
    854    860    862     1   123.2000528 564.003200
    854    860   1764     1   115.1800491 558.982400
    857    861    863     1   123.2000528 564.003200
    857    861   1789     1   115.1800491 558.982400
    860   1764   1744     1   120.6900519 530.531200
    861   1789   1769     1   120.6900519 530.531200
    862    860   1764     1   123.0500530 620.905600
    863    861   1789     1   123.0500530 620.905600
    866    869    889     1   111.6100477 551.451200
    866    872    873     1   112.3500484 533.878400
    866    872    876     1   112.3500484 533.878400
    869    866    872     1   111.0400475 552.288000
    872    873    882     1   111.0400475 552.288000
    872    876    879     1   111.0400475 552.288000
    873    872    876     1   112.3500484 533.878400
    873    882    886     1   111.0400475 529.694400
    876    879    885     1   111.0400475 529.694400
    879    885    887     1   123.2000528 564.003200
    879    885   1814     1   115.1800491 558.982400
    882    886    888     1   123.2000528 564.003200
    882    886   1839     1   115.1800491 558.982400
    885   1814   1794     1   120.6900519 530.531200
    886   1839   1819     1   120.6900519 530.531200
    887    885   1814     1   123.0500530 620.905600
    888    886   1839     1   123.0500530 620.905600
    891    894    914     1   111.6100477 551.451200
    891    897    898     1   112.3500484 533.878400
    891    897    901     1   112.3500484 533.878400
    894    891    897     1   111.0400475 552.288000
    897    898    907     1   111.0400475 552.288000
    897    901    904     1   111.0400475 552.288000
    898    897    901     1   112.3500484 533.878400
    898    907    911     1   111.0400475 529.694400
    901    904    910     1   111.0400475 529.694400
    904    910    912     1   123.2000528 564.003200
    904    910   1864     1   115.1800491 558.982400
    907    911    913     1   123.2000528 564.003200
    907    911   1889     1   115.1800491 558.982400
    910   1864   1844     1   120.6900519 530.531200
    911   1889   1869     1   120.6900519 530.531200
    912    910   1864     1   123.0500530 620.905600
    913    911   1889     1   123.0500530 620.905600
    916    919    939     1   111.6100477 551.451200
    916    922    923     1   112.3500484 533.878400
    916    922    926     1   112.3500484 533.878400
    919    916    922     1   111.0400475 552.288000
    922    923    932     1   111.0400475 552.288000
    922    926    929     1   111.0400475 552.288000
    923    922    926     1   112.3500484 533.878400
    923    932    936     1   111.0400475 529.694400
    926    929    935     1   111.0400475 529.694400
    929    935    937     1   123.2000528 564.003200
    929    935   1914     1   115.1800491 558.982400
    932    936    938     1   123.2000528 564.003200
    932    936   1939     1   115.1800491 558.982400
    935   1914   1894     1   120.6900519 530.531200
    936   1939   1919     1   120.6900519 530.531200
    937    935   1914     1   123.0500530 620.905600
    938    936   1939     1   123.0500530 620.905600
    941    944    964     1   111.6100477 551.451200
    941    947    948     1   112.3500484 533.878400
    941    947    951     1   112.3500484 533.878400
    944    941    947     1   111.0400475 552.288000
    947    948    957     1   111.0400475 552.288000
    947    951    954     1   111.0400475 552.288000
    948    947    951     1   112.3500484 533.878400
    948    957    961     1   111.0400475 529.694400
    951    954    960     1   111.0400475 529.694400
    954    960    962     1   123.2000528 564.003200
    954    960   1964     1   115.1800491 558.982400
    957    961    963     1   123.2000528 564.003200
    957    961   1989     1   115.1800491 558.982400
    960   1964   1944     1   120.6900519 530.531200
    961   1989   1969     1   120.6900519 530.531200
    962    960   1964     1   123.0500530 620.905600
    963    961   1989     1   123.0500530 620.905600
    966    969    989     1   111.6100477 551.451200
    966    972    973     1   112.3500484 533.878400
    966    972    976     1   112.3500484 533.878400
    969    966    972     1   111.0400475 552.288000
    972    973    982     1   111.0400475 552.288000
    972    976    979     1   111.0400475 552.288000
    973    972    976     1   112.3500484 533.878400
    973    982    986     1   111.0400475 529.694400
    976    979    985     1   111.0400475 529.694400
    979    985    987     1   123.2000528 564.003200
    979    985   2014     1   115.1800491 558.982400
    982    986    988     1   123.2000528 564.003200
    982    986   2039     1   115.1800491 558.982400
    985   2014   1994     1   120.6900519 530.531200
    986   2039   2019     1   120.6900519 530.531200
    987    985   2014     1   123.0500530 620.905600
    988    986   2039     1   123.0500530 620.905600
    991    994   1014     1   111.6100477 551.451200
    991    997    998     1   112.3500484 533.878400
    991    997   1001     1   112.3500484 533.878400
    994    991    997     1   111.0400475 552.288000
    997    998   1007     1   111.0400475 552.288000
    997   1001   1004     1   111.0400475 552.288000
    998    997   1001     1   112.3500484 533.878400
    998   1007   1011     1   111.0400475 529.694400
   1001   1004   1010     1   111.0400475 529.694400
   1004   1010   1012     1   123.2000528 564.003200
   1004   1010   2064     1   115.1800491 558.982400
   1007   1011   1013     1   123.2000528 564.003200
   1007   1011   2089     1   115.1800491 558.982400
   1010   2064   2044     1   120.6900519 530.531200
   1011   2089   2069     1   120.6900519 530.531200
   1012   1010   2064     1   123.0500530 620.905600
   1013   1011   2089     1   123.0500530 620.905600
   1016   1019   1039     1   111.6100477 551.451200
   1016   1022   1023     1   112.3500484 533.878400
   1016   1022   1026     1   112.3500484 533.878400
   1019   1016   1022     1   111.0400475 552.288000
   1022   1023   1032     1   111.0400475 552.288000
   1022   1026   1029     1   111.0400475 552.288000
   1023   1022   1026     1   112.3500484 533.878400
   1023   1032   1036     1   111.0400475 529.694400
   1026   1029   1035     1   111.0400475 529.694400
   1029   1035   1037     1   123.2000528 564.003200
   1029   1035   2114     1   115.1800491 558.982400
   1032   1036   1038     1   123.2000528 564.003200
   1032   1036   2139     1   115.1800491 558.982400
   1035   2114   2094     1   120.6900519 530.531200
   1036   2139   2119     1   120.6900519 530.531200
   1037   1035   2114     1   123.0500530 620.905600
   1038   1036   2139     1   123.0500530 620.905600
   1041   1044   1064     1   111.6100477 551.451200
   1041   1047   1048     1   112.3500484 533.878400
   1041   1047   1051     1   112.3500484 533.878400
   1044   1041   1047     1   111.0400475 552.288000
   1047   1048   1057     1   111.0400475 552.288000
   1047   1051   1054     1   111.0400475 552.288000
   1048   1047   1051     1   112.3500484 533.878400
   1048   1057   1061     1   111.0400475 529.694400
   1051   1054   1060     1   111.0400475 529.694400
   1054   1060   1062     1   123.2000528 564.003200
   1054   1060   2164     1   115.1800491 558.982400
   1057   1061   1063     1   123.2000528 564.003200
   1057   1061   2189     1   115.1800491 558.982400
   1060   2164   2144     1   120.6900519 530.531200
   1061   2189   2169     1   120.6900519 530.531200
   1062   1060   2164     1   123.0500530 620.905600
   1063   1061   2189     1   123.0500530 620.905600
   1066   1069   1089     1   111.6100477 551.451200
   1066   1072   1073     1   112.3500484 533.878400
   1066   1072   1076     1   112.3500484 533.878400
   1069   1066   1072     1   111.0400475 552.288000
   1072   1073   1082     1   111.0400475 552.288000
   1072   1076   1079     1   111.0400475 552.288000
   1073   1072   1076     1   112.3500484 533.878400
   1073   1082   1086     1   111.0400475 529.694400
   1076   1079   1085     1   111.0400475 529.694400
   1079   1085   1087     1   123.2000528 564.003200
   1079   1085   2214     1   115.1800491 558.982400
   1082   1086   1088     1   123.2000528 564.003200
   1082   1086   2239     1   115.1800491 558.982400
   1085   2214   2194     1   120.6900519 530.531200
   1086   2239   2219     1   120.6900519 530.531200
   1087   1085   2214     1   123.0500530 620.905600
   1088   1086   2239     1   123.0500530 620.905600
   1091   1094   1114     1   111.6100477 551.451200
   1091   1097   1098     1   112.3500484 533.878400
   1091   1097   1101     1   112.3500484 533.878400
   1094   1091   1097     1   111.0400475 552.288000
   1097   1098   1107     1   111.0400475 552.288000
   1097   1101   1104     1   111.0400475 552.288000
   1098   1097   1101     1   112.3500484 533.878400
   1098   1107   1111     1   111.0400475 529.694400
   1101   1104   1110     1   111.0400475 529.694400
   1104   1110   1112     1   123.2000528 564.003200
   1104   1110   2264     1   115.1800491 558.982400
   1107   1111   1113     1   123.2000528 564.003200
   1107   1111   2289     1   115.1800491 558.982400
   1110   2264   2244     1   120.6900519 530.531200
   1111   2289   2269     1   120.6900519 530.531200
   1112   1110   2264     1   123.0500530 620.905600
   1113   1111   2289     1   123.0500530 620.905600
   1116   1119   1139     1   111.6100477 551.451200
   1116   1122   1123     1   112.3500484 533.878400
   1116   1122   1126     1   112.3500484 533.878400
   1119   1116   1122     1   111.0400475 552.288000
   1122   1123   1132     1   111.0400475 552.288000
   1122   1126   1129     1   111.0400475 552.288000
   1123   1122   1126     1   112.3500484 533.878400
   1123   1132   1136     1   111.0400475 529.694400
   1126   1129   1135     1   111.0400475 529.694400
   1129   1135   1137     1   123.2000528 564.003200
   1129   1135   2314     1   115.1800491 558.982400
   1132   1136   1138     1   123.2000528 564.003200
   1132   1136   2339     1   115.1800491 558.982400
   1135   2314   2294     1   120.6900519 530.531200
   1136   2339   2319     1   120.6900519 530.531200
   1137   1135   2314     1   123.0500530 620.905600
   1138   1136   2339     1   123.0500530 620.905600
   1141   1144   1164     1   111.6100477 551.451200
   1141   1147   1148     1   112.3500484 533.878400
   1141   1147   1151     1   112.3500484 533.878400
   1144   1141   1147     1   111.0400475 552.288000
   1147   1148   1157     1   111.0400475 552.288000
   1147   1151   1154     1   111.0400475 552.288000
   1148   1147   1151     1   112.3500484 533.878400
   1148   1157   1161     1   111.0400475 529.694400
   1151   1154   1160     1   111.0400475 529.694400
   1154   1160   1162     1   123.2000528 564.003200
   1154   1160   2364     1   115.1800491 558.982400
   1157   1161   1163     1   123.2000528 564.003200
   1157   1161   2389     1   115.1800491 558.982400
   1160   2364   2344     1   120.6900519 530.531200
   1161   2389   2369     1   120.6900519 530.531200
   1162   1160   2364     1   123.0500530 620.905600
   1163   1161   2389     1   123.0500530 620.905600
   1166   1169   1189     1   111.6100477 551.451200
   1166   1172   1173     1   112.3500484 533.878400
   1166   1172   1176     1   112.3500484 533.878400
   1169   1166   1172     1   111.0400475 552.288000
   1172   1173   1182     1   111.0400475 552.288000
   1172   1176   1179     1   111.0400475 552.288000
   1173   1172   1176     1   112.3500484 533.878400
   1173   1182   1186     1   111.0400475 529.694400
   1176   1179   1185     1   111.0400475 529.694400
   1179   1185   1187     1   123.2000528 564.003200
   1179   1185   2414     1   115.1800491 558.982400
   1182   1186   1188     1   123.2000528 564.003200
   1182   1186   2439     1   115.1800491 558.982400
   1185   2414   2394     1   120.6900519 530.531200
   1186   2439   2419     1   120.6900519 530.531200
   1187   1185   2414     1   123.0500530 620.905600
   1188   1186   2439     1   123.0500530 620.905600
   1191   1194   1214     1   111.6100477 551.451200
   1191   1197   1198     1   112.3500484 533.878400
   1191   1197   1201     1   112.3500484 533.878400
   1194   1191   1197     1   111.0400475 552.288000
   1197   1198   1207     1   111.0400475 552.288000
   1197   1201   1204     1   111.0400475 552.288000
   1198   1197   1201     1   112.3500484 533.878400
   1198   1207   1211     1   111.0400475 529.694400
   1201   1204   1210     1   111.0400475 529.694400
   1204   1210   1212     1   123.2000528 564.003200
   1204   1210   2464     1   115.1800491 558.982400
   1207   1211   1213     1   123.2000528 564.003200
   1207   1211   2489     1   115.1800491 558.982400
   1210   2464   2444     1   120.6900519 530.531200
   1211   2489   2469     1   120.6900519 530.531200
   1212   1210   2464     1   123.0500530 620.905600
   1213   1211   2489     1   123.0500530 620.905600
   1216   1219   1239     1   111.6100477 551.451200
   1216   1222   1223     1   112.3500484 533.878400
   1216   1222   1226     1   112.3500484 533.878400
   1219   1216   1222     1   111.0400475 552.288000
   1222   1223   1232     1   111.0400475 552.288000
   1222   1226   1229     1   111.0400475 552.288000
   1223   1222   1226     1   112.3500484 533.878400
   1223   1232   1236     1   111.0400475 529.694400
   1226   1229   1235     1   111.0400475 529.694400
   1229   1235   1237     1   123.2000528 564.003200
   1229   1235   2514     1   115.1800491 558.982400
   1232   1236   1238     1   123.2000528 564.003200
   1232   1236   2539     1   115.1800491 558.982400
   1235   2514   2494     1   120.6900519 530.531200
   1236   2539   2519     1   120.6900519 530.531200
   1237   1235   2514     1   123.0500530 620.905600
   1238   1236   2539     1   123.0500530 620.905600
   1241   1244   1264     1   111.6100477 551.451200
   1241   1247   1248     1   112.3500484 533.878400
   1241   1247   1251     1   112.3500484 533.878400
   1244   1241   1247     1   111.0400475 552.288000
   1247   1248   1257     1   111.0400475 552.288000
   1247   1251   1254     1   111.0400475 552.288000
   1248   1247   1251     1   112.3500484 533.878400
   1248   1257   1261     1   111.0400475 529.694400
   1251   1254   1260     1   111.0400475 529.694400
   1254   1260   1262     1   123.2000528 564.003200
   1254   1260   2564     1   115.1800491 558.982400
   1257   1261   1263     1   123.2000528 564.003200
   1257   1261   2589     1   115.1800491 558.982400
   1260   2564   2544     1   120.6900519 530.531200
   1261   2589   2569     1   120.6900519 530.531200
   1262   1260   2564     1   123.0500530 620.905600
   1263   1261   2589     1   123.0500530 620.905600
   1266   1269   1289     1   111.6100477 551.451200
   1266   1272   1273     1   112.3500484 533.878400
   1266   1272   1276     1   112.3500484 533.878400
   1269   1266   1272     1   111.0400475 552.288000
   1272   1273   1282     1   111.0400475 552.288000
   1272   1276   1279     1   111.0400475 552.288000
   1273   1272   1276     1   112.3500484 533.878400
   1273   1282   1286     1   111.0400475 529.694400
   1276   1279   1285     1   111.0400475 529.694400
   1279   1285   1287     1   123.2000528 564.003200
   1279   1285   2614     1   115.1800491 558.982400
   1282   1286   1288     1   123.2000528 564.003200
   1282   1286   2639     1   115.1800491 558.982400
   1285   2614   2594     1   120.6900519 530.531200
   1286   2639   2619     1   120.6900519 530.531200
   1287   1285   2614     1   123.0500530 620.905600
   1288   1286   2639     1   123.0500530 620.905600
   1291   1294   1314     1   111.6100477 551.451200
   1291   1297   1298     1   112.3500484 533.878400
   1291   1297   1301     1   112.3500484 533.878400
   1294   1291   1297     1   111.0400475 552.288000
   1297   1298   1307     1   111.0400475 552.288000
   1297   1301   1304     1   111.0400475 552.288000
   1298   1297   1301     1   112.3500484 533.878400
   1298   1307   1311     1   111.0400475 529.694400
   1301   1304   1310     1   111.0400475 529.694400
   1304   1310   1312     1   123.2000528 564.003200
   1304   1310   2664     1   115.1800491 558.982400
   1307   1311   1313     1   123.2000528 564.003200
   1307   1311   2689     1   115.1800491 558.982400
   1310   2664   2644     1   120.6900519 530.531200
   1311   2689   2669     1   120.6900519 530.531200
   1312   1310   2664     1   123.0500530 620.905600
   1313   1311   2689     1   123.0500530 620.905600
   1316   1319   1339     1   111.6100477 551.451200
   1316   1322   1323     1   112.3500484 533.878400
   1316   1322   1326     1   112.3500484 533.878400
   1319   1316   1322     1   111.0400475 552.288000
   1322   1323   1332     1   111.0400475 552.288000
   1322   1326   1329     1   111.0400475 552.288000
   1323   1322   1326     1   112.3500484 533.878400
   1323   1332   1336     1   111.0400475 529.694400
   1326   1329   1335     1   111.0400475 529.694400
   1329   1335   1337     1   123.2000528 564.003200
   1329   1335   2714     1   115.1800491 558.982400
   1332   1336   1338     1   123.2000528 564.003200
   1332   1336   2739     1   115.1800491 558.982400
   1335   2714   2694     1   120.6900519 530.531200
   1336   2739   2719     1   120.6900519 530.531200
   1337   1335   2714     1   123.0500530 620.905600
   1338   1336   2739     1   123.0500530 620.905600
   1341   1344   1364     1   111.6100477 551.451200
   1341   1347   1348     1   112.3500484 533.878400
   1341   1347   1351     1   112.3500484 533.878400
   1344   1341   1347     1   111.0400475 552.288000
   1347   1348   1357     1   111.0400475 552.288000
   1347   1351   1354     1   111.0400475 552.288000
   1348   1347   1351     1   112.3500484 533.878400
   1348   1357   1361     1   111.0400475 529.694400
   1351   1354   1360     1   111.0400475 529.694400
   1354   1360   1362     1   123.2000528 564.003200
   1354   1360   2764     1   115.1800491 558.982400
   1357   1361   1363     1   123.2000528 564.003200
   1357   1361   2789     1   115.1800491 558.982400
   1360   2764   2744     1   120.6900519 530.531200
   1361   2789   2769     1   120.6900519 530.531200
   1362   1360   2764     1   123.0500530 620.905600
   1363   1361   2789     1   123.0500530 620.905600
   1366   1369   1389     1   111.6100477 551.451200
   1366   1372   1373     1   112.3500484 533.878400
   1366   1372   1376     1   112.3500484 533.878400
   1369   1366   1372     1   111.0400475 552.288000
   1372   1373   1382     1   111.0400475 552.288000
   1372   1376   1379     1   111.0400475 552.288000
   1373   1372   1376     1   112.3500484 533.878400
   1373   1382   1386     1   111.0400475 529.694400
   1376   1379   1385     1   111.0400475 529.694400
   1379   1385   1387     1   123.2000528 564.003200
   1379   1385   2814     1   115.1800491 558.982400
   1382   1386   1388     1   123.2000528 564.003200
   1382   1386   2839     1   115.1800491 558.982400
   1385   2814   2794     1   120.6900519 530.531200
   1386   2839   2819     1   120.6900519 530.531200
   1387   1385   2814     1   123.0500530 620.905600
   1388   1386   2839     1   123.0500530 620.905600
   1391   1394   1414     1   111.6100477 551.451200
   1391   1397   1398     1   112.3500484 533.878400
   1391   1397   1401     1   112.3500484 533.878400
   1394   1391   1397     1   111.0400475 552.288000
   1397   1398   1407     1   111.0400475 552.288000
   1397   1401   1404     1   111.0400475 552.288000
   1398   1397   1401     1   112.3500484 533.878400
   1398   1407   1411     1   111.0400475 529.694400
   1401   1404   1410     1   111.0400475 529.694400
   1404   1410   1412     1   123.2000528 564.003200
   1404   1410   2864     1   115.1800491 558.982400
   1407   1411   1413     1   123.2000528 564.003200
   1407   1411   2889     1   115.1800491 558.982400
   1410   2864   2844     1   120.6900519 530.531200
   1411   2889   2869     1   120.6900519 530.531200
   1412   1410   2864     1   123.0500530 620.905600
   1413   1411   2889     1   123.0500530 620.905600
   1416   1419   1439     1   111.6100477 551.451200
   1416   1422   1423     1   112.3500484 533.878400
   1416   1422   1426     1   112.3500484 533.878400
   1419   1416   1422     1   111.0400475 552.288000
   1422   1423   1432     1   111.0400475 552.288000
   1422   1426   1429     1   111.0400475 552.288000
   1423   1422   1426     1   112.3500484 533.878400
   1423   1432   1436     1   111.0400475 529.694400
   1426   1429   1435     1   111.0400475 529.694400
   1429   1435   1437     1   123.2000528 564.003200
   1429   1435   2914     1   115.1800491 558.982400
   1432   1436   1438     1   123.2000528 564.003200
   1432   1436   2939     1   115.1800491 558.982400
   1435   2914   2894     1   120.6900519 530.531200
   1436   2939   2919     1   120.6900519 530.531200
   1437   1435   2914     1   123.0500530 620.905600
   1438   1436   2939     1   123.0500530 620.905600
   1441   1444   1464     1   111.6100477 551.451200
   1441   1447   1448     1   112.3500484 533.878400
   1441   1447   1451     1   112.3500484 533.878400
   1444   1441   1447     1   111.0400475 552.288000
   1447   1448   1457     1   111.0400475 552.288000
   1447   1451   1454     1   111.0400475 552.288000
   1448   1447   1451     1   112.3500484 533.878400
   1448   1457   1461     1   111.0400475 529.694400
   1451   1454   1460     1   111.0400475 529.694400
   1454   1460   1462     1   123.2000528 564.003200
   1454   1460   2964     1   115.1800491 558.982400
   1457   1461   1463     1   123.2000528 564.003200
   1457   1461   2989     1   115.1800491 558.982400
   1460   2964   2944     1   120.6900519 530.531200
   1461   2989   2969     1   120.6900519 530.531200
   1462   1460   2964     1   123.0500530 620.905600
   1463   1461   2989     1   123.0500530 620.905600
   1466   1469   1489     1   111.6100477 551.451200
   1466   1472   1473     1   112.3500484 533.878400
   1466   1472   1476     1   112.3500484 533.878400
   1469   1466   1472     1   111.0400475 552.288000
   1472   1473   1482     1   111.0400475 552.288000
   1472   1476   1479     1   111.0400475 552.288000
   1473   1472   1476     1   112.3500484 533.878400
   1473   1482   1486     1   111.0400475 529.694400
   1476   1479   1485     1   111.0400475 529.694400
   1479   1485   1487     1   123.2000528 564.003200
   1479   1485   3014     1   115.1800491 558.982400
   1482   1486   1488     1   123.2000528 564.003200
   1482   1486   3039     1   115.1800491 558.982400
   1485   3014   2994     1   120.6900519 530.531200
   1486   3039   3019     1   120.6900519 530.531200
   1487   1485   3014     1   123.0500530 620.905600
   1488   1486   3039     1   123.0500530 620.905600
   1491   1494   1514     1   111.6100477 551.451200
   1491   1497   1498     1   112.3500484 533.878400
   1491   1497   1501     1   112.3500484 533.878400
   1494   1491   1497     1   111.0400475 552.288000
   1497   1498   1507     1   111.0400475 552.288000
   1497   1501   1504     1   111.0400475 552.288000
   1498   1497   1501     1   112.3500484 533.878400
   1498   1507   1511     1   111.0400475 529.694400
   1501   1504   1510     1   111.0400475 529.694400
   1504   1510   1512     1   123.2000528 564.003200
   1504   1510   3064     1   115.1800491 558.982400
   1507   1511   1513     1   123.2000528 564.003200
   1507   1511   3089     1   115.1800491 558.982400
   1510   3064   3044     1   120.6900519 530.531200
   1511   3089   3069     1   120.6900519 530.531200
   1512   1510   3064     1   123.0500530 620.905600
   1513   1511   3089     1   123.0500530 620.905600
   1516   1519   1539     1   111.6100477 551.451200
   1516   1522   1523     1   112.3500484 533.878400
   1516   1522   1526     1   112.3500484 533.878400
   1519   1516   1522     1   111.0400475 552.288000
   1522   1523   1532     1   111.0400475 552.288000
   1522   1526   1529     1   111.0400475 552.288000
   1523   1522   1526     1   112.3500484 533.878400
   1523   1532   1536     1   111.0400475 529.694400
   1526   1529   1535     1   111.0400475 529.694400
   1529   1535   1537     1   123.2000528 564.003200
   1529   1535   3114     1   115.1800491 558.982400
   1532   1536   1538     1   123.2000528 564.003200
   1532   1536   3139     1   115.1800491 558.982400
   1535   3114   3094     1   120.6900519 530.531200
   1536   3139   3119     1   120.6900519 530.531200
   1537   1535   3114     1   123.0500530 620.905600
   1538   1536   3139     1   123.0500530 620.905600
   1541   1544   1564     1   111.6100477 551.451200
   1541   1547   1548     1   112.3500484 533.878400
   1541   1547   1551     1   112.3500484 533.878400
   1544   1541   1547     1   111.0400475 552.288000
   1547   1548   1557     1   111.0400475 552.288000
   1547   1551   1554     1   111.0400475 552.288000
   1548   1547   1551     1   112.3500484 533.878400
   1548   1557   1561     1   111.0400475 529.694400
   1551   1554   1560     1   111.0400475 529.694400
   1554   1560   3150     1   115.1800491 558.982400
   1554   1560   1562     1   123.2000528 564.003200
   1557   1561   1563     1   123.2000528 564.003200
   1557   1561   3161     1   115.1800491 558.982400
   1560   3150   3141     1   120.6900519 530.531200
   1561   3161   3152     1   120.6900519 530.531200
   1562   1560   3150     1   123.0500530 620.905600
   1563   1561   3161     1   123.0500530 620.905600
   1566   1569   1589     1   111.6100477 551.451200
   1566   1572   1573     1   112.3500484 533.878400
   1566   1572   1576     1   112.3500484 533.878400
   1569   1566   1572     1   111.0400475 552.288000
   1572   1573   1582     1   111.0400475 552.288000
   1572   1576   1579     1   111.0400475 552.288000
   1573   1572   1576     1   112.3500484 533.878400
   1573   1582   1586     1   111.0400475 529.694400
   1576   1579   1585     1   111.0400475 529.694400
   1579   1585   3172     1   115.1800491 558.982400
   1579   1585   1587     1   123.2000528 564.003200
   1582   1586   1588     1   123.2000528 564.003200
   1582   1586   3183     1   115.1800491 558.982400
   1585   3172   3163     1   120.6900519 530.531200
   1586   3183   3174     1   120.6900519 530.531200
   1587   1585   3172     1   123.0500530 620.905600
   1588   1586   3183     1   123.0500530 620.905600
   1591   1594   1614     1   111.6100477 551.451200
   1591   1597   1598     1   112.3500484 533.878400
   1591   1597   1601     1   112.3500484 533.878400
   1594   1591   1597     1   111.0400475 552.288000
   1597   1598   1607     1   111.0400475 552.288000
   1597   1601   1604     1   111.0400475 552.288000
   1598   1597   1601     1   112.3500484 533.878400
   1598   1607   1611     1   111.0400475 529.694400
   1601   1604   1610     1   111.0400475 529.694400
   1604   1610   3194     1   115.1800491 558.982400
   1604   1610   1612     1   123.2000528 564.003200
   1607   1611   1613     1   123.2000528 564.003200
   1607   1611   3205     1   115.1800491 558.982400
   1610   3194   3185     1   120.6900519 530.531200
   1611   3205   3196     1   120.6900519 530.531200
   1612   1610   3194     1   123.0500530 620.905600
   1613   1611   3205     1   123.0500530 620.905600
   1616   1619   1639     1   111.6100477 551.451200
   1616   1622   1623     1   112.3500484 533.878400
   1616   1622   1626     1   112.3500484 533.878400
   1619   1616   1622     1   111.0400475 552.288000
   1622   1623   1632     1   111.0400475 552.288000
   1622   1626   1629     1   111.0400475 552.288000
   1623   1622   1626     1   112.3500484 533.878400
   1623   1632   1636     1   111.0400475 529.694400
   1626   1629   1635     1   111.0400475 529.694400
   1629   1635   3216     1   115.1800491 558.982400
   1629   1635   1637     1   123.2000528 564.003200
   1632   1636   1638     1   123.2000528 564.003200
   1632   1636   3227     1   115.1800491 558.982400
   1635   3216   3207     1   120.6900519 530.531200
   1636   3227   3218     1   120.6900519 530.531200
   1637   1635   3216     1   123.0500530 620.905600
   1638   1636   3227     1   123.0500530 620.905600
   1641   1644   1664     1   111.6100477 551.451200
   1641   1647   1648     1   112.3500484 533.878400
   1641   1647   1651     1   112.3500484 533.878400
   1644   1641   1647     1   111.0400475 552.288000
   1647   1648   1657     1   111.0400475 552.288000
   1647   1651   1654     1   111.0400475 552.288000
   1648   1647   1651     1   112.3500484 533.878400
   1648   1657   1661     1   111.0400475 529.694400
   1651   1654   1660     1   111.0400475 529.694400
   1654   1660   3238     1   115.1800491 558.982400
   1654   1660   1662     1   123.2000528 564.003200
   1657   1661   1663     1   123.2000528 564.003200
   1657   1661   3249     1   115.1800491 558.982400
   1660   3238   3229     1   120.6900519 530.531200
   1661   3249   3240     1   120.6900519 530.531200
   1662   1660   3238     1   123.0500530 620.905600
   1663   1661   3249     1   123.0500530 620.905600
   1666   1669   1689     1   111.6100477 551.451200
   1666   1672   1673     1   112.3500484 533.878400
   1666   1672   1676     1   112.3500484 533.878400
   1669   1666   1672     1   111.0400475 552.288000
   1672   1673   1682     1   111.0400475 552.288000
   1672   1676   1679     1   111.0400475 552.288000
   1673   1672   1676     1   112.3500484 533.878400
   1673   1682   1686     1   111.0400475 529.694400
   1676   1679   1685     1   111.0400475 529.694400
   1679   1685   3260     1   115.1800491 558.982400
   1679   1685   1687     1   123.2000528 564.003200
   1682   1686   1688     1   123.2000528 564.003200
   1682   1686   3271     1   115.1800491 558.982400
   1685   3260   3251     1   120.6900519 530.531200
   1686   3271   3262     1   120.6900519 530.531200
   1687   1685   3260     1   123.0500530 620.905600
   1688   1686   3271     1   123.0500530 620.905600
   1691   1694   1714     1   111.6100477 551.451200
   1691   1697   1698     1   112.3500484 533.878400
   1691   1697   1701     1   112.3500484 533.878400
   1694   1691   1697     1   111.0400475 552.288000
   1697   1698   1707     1   111.0400475 552.288000
   1697   1701   1704     1   111.0400475 552.288000
   1698   1697   1701     1   112.3500484 533.878400
   1698   1707   1711     1   111.0400475 529.694400
   1701   1704   1710     1   111.0400475 529.694400
   1704   1710   3282     1   115.1800491 558.982400
   1704   1710   1712     1   123.2000528 564.003200
   1707   1711   1713     1   123.2000528 564.003200
   1707   1711   3293     1   115.1800491 558.982400
   1710   3282   3273     1   120.6900519 530.531200
   1711   3293   3284     1   120.6900519 530.531200
   1712   1710   3282     1   123.0500530 620.905600
   1713   1711   3293     1   123.0500530 620.905600
   1716   1719   1739     1   111.6100477 551.451200
   1716   1722   1723     1   112.3500484 533.878400
   1716   1722   1726     1   112.3500484 533.878400
   1719   1716   1722     1   111.0400475 552.288000
   1722   1723   1732     1   111.0400475 552.288000
   1722   1726   1729     1   111.0400475 552.288000
   1723   1722   1726     1   112.3500484 533.878400
   1723   1732   1736     1   111.0400475 529.694400
   1726   1729   1735     1   111.0400475 529.694400
   1729   1735   3304     1   115.1800491 558.982400
   1729   1735   1737     1   123.2000528 564.003200
   1732   1736   1738     1   123.2000528 564.003200
   1732   1736   3315     1   115.1800491 558.982400
   1735   3304   3295     1   120.6900519 530.531200
   1736   3315   3306     1   120.6900519 530.531200
   1737   1735   3304     1   123.0500530 620.905600
   1738   1736   3315     1   123.0500530 620.905600
   1741   1744   1764     1   111.6100477 551.451200
   1741   1747   1748     1   112.3500484 533.878400
   1741   1747   1751     1   112.3500484 533.878400
   1744   1741   1747     1   111.0400475 552.288000
   1747   1748   1757     1   111.0400475 552.288000
   1747   1751   1754     1   111.0400475 552.288000
   1748   1747   1751     1   112.3500484 533.878400
   1748   1757   1761     1   111.0400475 529.694400
   1751   1754   1760     1   111.0400475 529.694400
   1754   1760   3326     1   115.1800491 558.982400
   1754   1760   1762     1   123.2000528 564.003200
   1757   1761   1763     1   123.2000528 564.003200
   1757   1761   3337     1   115.1800491 558.982400
   1760   3326   3317     1   120.6900519 530.531200
   1761   3337   3328     1   120.6900519 530.531200
   1762   1760   3326     1   123.0500530 620.905600
   1763   1761   3337     1   123.0500530 620.905600
   1766   1769   1789     1   111.6100477 551.451200
   1766   1772   1773     1   112.3500484 533.878400
   1766   1772   1776     1   112.3500484 533.878400
   1769   1766   1772     1   111.0400475 552.288000
   1772   1773   1782     1   111.0400475 552.288000
   1772   1776   1779     1   111.0400475 552.288000
   1773   1772   1776     1   112.3500484 533.878400
   1773   1782   1786     1   111.0400475 529.694400
   1776   1779   1785     1   111.0400475 529.694400
   1779   1785   3348     1   115.1800491 558.982400
   1779   1785   1787     1   123.2000528 564.003200
   1782   1786   1788     1   123.2000528 564.003200
   1782   1786   3359     1   115.1800491 558.982400
   1785   3348   3339     1   120.6900519 530.531200
   1786   3359   3350     1   120.6900519 530.531200
   1787   1785   3348     1   123.0500530 620.905600
   1788   1786   3359     1   123.0500530 620.905600
   1791   1794   1814     1   111.6100477 551.451200
   1791   1797   1798     1   112.3500484 533.878400
   1791   1797   1801     1   112.3500484 533.878400
   1794   1791   1797     1   111.0400475 552.288000
   1797   1798   1807     1   111.0400475 552.288000
   1797   1801   1804     1   111.0400475 552.288000
   1798   1797   1801     1   112.3500484 533.878400
   1798   1807   1811     1   111.0400475 529.694400
   1801   1804   1810     1   111.0400475 529.694400
   1804   1810   3370     1   115.1800491 558.982400
   1804   1810   1812     1   123.2000528 564.003200
   1807   1811   1813     1   123.2000528 564.003200
   1807   1811   3381     1   115.1800491 558.982400
   1810   3370   3361     1   120.6900519 530.531200
   1811   3381   3372     1   120.6900519 530.531200
   1812   1810   3370     1   123.0500530 620.905600
   1813   1811   3381     1   123.0500530 620.905600
   1816   1819   1839     1   111.6100477 551.451200
   1816   1822   1823     1   112.3500484 533.878400
   1816   1822   1826     1   112.3500484 533.878400
   1819   1816   1822     1   111.0400475 552.288000
   1822   1823   1832     1   111.0400475 552.288000
   1822   1826   1829     1   111.0400475 552.288000
   1823   1822   1826     1   112.3500484 533.878400
   1823   1832   1836     1   111.0400475 529.694400
   1826   1829   1835     1   111.0400475 529.694400
   1829   1835   3392     1   115.1800491 558.982400
   1829   1835   1837     1   123.2000528 564.003200
   1832   1836   1838     1   123.2000528 564.003200
   1832   1836   3403     1   115.1800491 558.982400
   1835   3392   3383     1   120.6900519 530.531200
   1836   3403   3394     1   120.6900519 530.531200
   1837   1835   3392     1   123.0500530 620.905600
   1838   1836   3403     1   123.0500530 620.905600
   1841   1844   1864     1   111.6100477 551.451200
   1841   1847   1848     1   112.3500484 533.878400
   1841   1847   1851     1   112.3500484 533.878400
   1844   1841   1847     1   111.0400475 552.288000
   1847   1848   1857     1   111.0400475 552.288000
   1847   1851   1854     1   111.0400475 552.288000
   1848   1847   1851     1   112.3500484 533.878400
   1848   1857   1861     1   111.0400475 529.694400
   1851   1854   1860     1   111.0400475 529.694400
   1854   1860   3414     1   115.1800491 558.982400
   1854   1860   1862     1   123.2000528 564.003200
   1857   1861   1863     1   123.2000528 564.003200
   1857   1861   3425     1   115.1800491 558.982400
   1860   3414   3405     1   120.6900519 530.531200
   1861   3425   3416     1   120.6900519 530.531200
   1862   1860   3414     1   123.0500530 620.905600
   1863   1861   3425     1   123.0500530 620.905600
   1866   1869   1889     1   111.6100477 551.451200
   1866   1872   1873     1   112.3500484 533.878400
   1866   1872   1876     1   112.3500484 533.878400
   1869   1866   1872     1   111.0400475 552.288000
   1872   1873   1882     1   111.0400475 552.288000
   1872   1876   1879     1   111.0400475 552.288000
   1873   1872   1876     1   112.3500484 533.878400
   1873   1882   1886     1   111.0400475 529.694400
   1876   1879   1885     1   111.0400475 529.694400
   1879   1885   3436     1   115.1800491 558.982400
   1879   1885   1887     1   123.2000528 564.003200
   1882   1886   1888     1   123.2000528 564.003200
   1882   1886   3447     1   115.1800491 558.982400
   1885   3436   3427     1   120.6900519 530.531200
   1886   3447   3438     1   120.6900519 530.531200
   1887   1885   3436     1   123.0500530 620.905600
   1888   1886   3447     1   123.0500530 620.905600
   1891   1894   1914     1   111.6100477 551.451200
   1891   1897   1898     1   112.3500484 533.878400
   1891   1897   1901     1   112.3500484 533.878400
   1894   1891   1897     1   111.0400475 552.288000
   1897   1898   1907     1   111.0400475 552.288000
   1897   1901   1904     1   111.0400475 552.288000
   1898   1897   1901     1   112.3500484 533.878400
   1898   1907   1911     1   111.0400475 529.694400
   1901   1904   1910     1   111.0400475 529.694400
   1904   1910   3458     1   115.1800491 558.982400
   1904   1910   1912     1   123.2000528 564.003200
   1907   1911   1913     1   123.2000528 564.003200
   1907   1911   3469     1   115.1800491 558.982400
   1910   3458   3449     1   120.6900519 530.531200
   1911   3469   3460     1   120.6900519 530.531200
   1912   1910   3458     1   123.0500530 620.905600
   1913   1911   3469     1   123.0500530 620.905600
   1916   1919   1939     1   111.6100477 551.451200
   1916   1922   1923     1   112.3500484 533.878400
   1916   1922   1926     1   112.3500484 533.878400
   1919   1916   1922     1   111.0400475 552.288000
   1922   1923   1932     1   111.0400475 552.288000
   1922   1926   1929     1   111.0400475 552.288000
   1923   1922   1926     1   112.3500484 533.878400
   1923   1932   1936     1   111.0400475 529.694400
   1926   1929   1935     1   111.0400475 529.694400
   1929   1935   3480     1   115.1800491 558.982400
   1929   1935   1937     1   123.2000528 564.003200
   1932   1936   1938     1   123.2000528 564.003200
   1932   1936   3491     1   115.1800491 558.982400
   1935   3480   3471     1   120.6900519 530.531200
   1936   3491   3482     1   120.6900519 530.531200
   1937   1935   3480     1   123.0500530 620.905600
   1938   1936   3491     1   123.0500530 620.905600
   1941   1944   1964     1   111.6100477 551.451200
   1941   1947   1948     1   112.3500484 533.878400
   1941   1947   1951     1   112.3500484 533.878400
   1944   1941   1947     1   111.0400475 552.288000
   1947   1948   1957     1   111.0400475 552.288000
   1947   1951   1954     1   111.0400475 552.288000
   1948   1947   1951     1   112.3500484 533.878400
   1948   1957   1961     1   111.0400475 529.694400
   1951   1954   1960     1   111.0400475 529.694400
   1954   1960   3502     1   115.1800491 558.982400
   1954   1960   1962     1   123.2000528 564.003200
   1957   1961   1963     1   123.2000528 564.003200
   1957   1961   3513     1   115.1800491 558.982400
   1960   3502   3493     1   120.6900519 530.531200
   1961   3513   3504     1   120.6900519 530.531200
   1962   1960   3502     1   123.0500530 620.905600
   1963   1961   3513     1   123.0500530 620.905600
   1966   1969   1989     1   111.6100477 551.451200
   1966   1972   1973     1   112.3500484 533.878400
   1966   1972   1976     1   112.3500484 533.878400
   1969   1966   1972     1   111.0400475 552.288000
   1972   1973   1982     1   111.0400475 552.288000
   1972   1976   1979     1   111.0400475 552.288000
   1973   1972   1976     1   112.3500484 533.878400
   1973   1982   1986     1   111.0400475 529.694400
   1976   1979   1985     1   111.0400475 529.694400
   1979   1985   3524     1   115.1800491 558.982400
   1979   1985   1987     1   123.2000528 564.003200
   1982   1986   1988     1   123.2000528 564.003200
   1982   1986   3535     1   115.1800491 558.982400
   1985   3524   3515     1   120.6900519 530.531200
   1986   3535   3526     1   120.6900519 530.531200
   1987   1985   3524     1   123.0500530 620.905600
   1988   1986   3535     1   123.0500530 620.905600
   1991   1994   2014     1   111.6100477 551.451200
   1991   1997   1998     1   112.3500484 533.878400
   1991   1997   2001     1   112.3500484 533.878400
   1994   1991   1997     1   111.0400475 552.288000
   1997   1998   2007     1   111.0400475 552.288000
   1997   2001   2004     1   111.0400475 552.288000
   1998   1997   2001     1   112.3500484 533.878400
   1998   2007   2011     1   111.0400475 529.694400
   2001   2004   2010     1   111.0400475 529.694400
   2004   2010   3546     1   115.1800491 558.982400
   2004   2010   2012     1   123.2000528 564.003200
   2007   2011   2013     1   123.2000528 564.003200
   2007   2011   3557     1   115.1800491 558.982400
   2010   3546   3537     1   120.6900519 530.531200
   2011   3557   3548     1   120.6900519 530.531200
   2012   2010   3546     1   123.0500530 620.905600
   2013   2011   3557     1   123.0500530 620.905600
   2016   2019   2039     1   111.6100477 551.451200
   2016   2022   2023     1   112.3500484 533.878400
   2016   2022   2026     1   112.3500484 533.878400
   2019   2016   2022     1   111.0400475 552.288000
   2022   2023   2032     1   111.0400475 552.288000
   2022   2026   2029     1   111.0400475 552.288000
   2023   2022   2026     1   112.3500484 533.878400
   2023   2032   2036     1   111.0400475 529.694400
   2026   2029   2035     1   111.0400475 529.694400
   2029   2035   3568     1   115.1800491 558.982400
   2029   2035   2037     1   123.2000528 564.003200
   2032   2036   2038     1   123.2000528 564.003200
   2032   2036   3579     1   115.1800491 558.982400
   2035   3568   3559     1   120.6900519 530.531200
   2036   3579   3570     1   120.6900519 530.531200
   2037   2035   3568     1   123.0500530 620.905600
   2038   2036   3579     1   123.0500530 620.905600
   2041   2044   2064     1   111.6100477 551.451200
   2041   2047   2048     1   112.3500484 533.878400
   2041   2047   2051     1   112.3500484 533.878400
   2044   2041   2047     1   111.0400475 552.288000
   2047   2048   2057     1   111.0400475 552.288000
   2047   2051   2054     1   111.0400475 552.288000
   2048   2047   2051     1   112.3500484 533.878400
   2048   2057   2061     1   111.0400475 529.694400
   2051   2054   2060     1   111.0400475 529.694400
   2054   2060   3590     1   115.1800491 558.982400
   2054   2060   2062     1   123.2000528 564.003200
   2057   2061   2063     1   123.2000528 564.003200
   2057   2061   3601     1   115.1800491 558.982400
   2060   3590   3581     1   120.6900519 530.531200
   2061   3601   3592     1   120.6900519 530.531200
   2062   2060   3590     1   123.0500530 620.905600
   2063   2061   3601     1   123.0500530 620.905600
   2066   2069   2089     1   111.6100477 551.451200
   2066   2072   2073     1   112.3500484 533.878400
   2066   2072   2076     1   112.3500484 533.878400
   2069   2066   2072     1   111.0400475 552.288000
   2072   2073   2082     1   111.0400475 552.288000
   2072   2076   2079     1   111.0400475 552.288000
   2073   2072   2076     1   112.3500484 533.878400
   2073   2082   2086     1   111.0400475 529.694400
   2076   2079   2085     1   111.0400475 529.694400
   2079   2085   3612     1   115.1800491 558.982400
   2079   2085   2087     1   123.2000528 564.003200
   2082   2086   2088     1   123.2000528 564.003200
   2082   2086   3623     1   115.1800491 558.982400
   2085   3612   3603     1   120.6900519 530.531200
   2086   3623   3614     1   120.6900519 530.531200
   2087   2085   3612     1   123.0500530 620.905600
   2088   2086   3623     1   123.0500530 620.905600
   2091   2094   2114     1   111.6100477 551.451200
   2091   2097   2098     1   112.3500484 533.878400
   2091   2097   2101     1   112.3500484 533.878400
   2094   2091   2097     1   111.0400475 552.288000
   2097   2098   2107     1   111.0400475 552.288000
   2097   2101   2104     1   111.0400475 552.288000
   2098   2097   2101     1   112.3500484 533.878400
   2098   2107   2111     1   111.0400475 529.694400
   2101   2104   2110     1   111.0400475 529.694400
   2104   2110   3634     1   115.1800491 558.982400
   2104   2110   2112     1   123.2000528 564.003200
   2107   2111   2113     1   123.2000528 564.003200
   2107   2111   3645     1   115.1800491 558.982400
   2110   3634   3625     1   120.6900519 530.531200
   2111   3645   3636     1   120.6900519 530.531200
   2112   2110   3634     1   123.0500530 620.905600
   2113   2111   3645     1   123.0500530 620.905600
   2116   2119   2139     1   111.6100477 551.451200
   2116   2122   2123     1   112.3500484 533.878400
   2116   2122   2126     1   112.3500484 533.878400
   2119   2116   2122     1   111.0400475 552.288000
   2122   2123   2132     1   111.0400475 552.288000
   2122   2126   2129     1   111.0400475 552.288000
   2123   2122   2126     1   112.3500484 533.878400
   2123   2132   2136     1   111.0400475 529.694400
   2126   2129   2135     1   111.0400475 529.694400
   2129   2135   3656     1   115.1800491 558.982400
   2129   2135   2137     1   123.2000528 564.003200
   2132   2136   2138     1   123.2000528 564.003200
   2132   2136   3667     1   115.1800491 558.982400
   2135   3656   3647     1   120.6900519 530.531200
   2136   3667   3658     1   120.6900519 530.531200
   2137   2135   3656     1   123.0500530 620.905600
   2138   2136   3667     1   123.0500530 620.905600
   2141   2144   2164     1   111.6100477 551.451200
   2141   2147   2148     1   112.3500484 533.878400
   2141   2147   2151     1   112.3500484 533.878400
   2144   2141   2147     1   111.0400475 552.288000
   2147   2148   2157     1   111.0400475 552.288000
   2147   2151   2154     1   111.0400475 552.288000
   2148   2147   2151     1   112.3500484 533.878400
   2148   2157   2161     1   111.0400475 529.694400
   2151   2154   2160     1   111.0400475 529.694400
   2154   2160   3678     1   115.1800491 558.982400
   2154   2160   2162     1   123.2000528 564.003200
   2157   2161   2163     1   123.2000528 564.003200
   2157   2161   3689     1   115.1800491 558.982400
   2160   3678   3669     1   120.6900519 530.531200
   2161   3689   3680     1   120.6900519 530.531200
   2162   2160   3678     1   123.0500530 620.905600
   2163   2161   3689     1   123.0500530 620.905600
   2166   2169   2189     1   111.6100477 551.451200
   2166   2172   2173     1   112.3500484 533.878400
   2166   2172   2176     1   112.3500484 533.878400
   2169   2166   2172     1   111.0400475 552.288000
   2172   2173   2182     1   111.0400475 552.288000
   2172   2176   2179     1   111.0400475 552.288000
   2173   2172   2176     1   112.3500484 533.878400
   2173   2182   2186     1   111.0400475 529.694400
   2176   2179   2185     1   111.0400475 529.694400
   2179   2185   3700     1   115.1800491 558.982400
   2179   2185   2187     1   123.2000528 564.003200
   2182   2186   2188     1   123.2000528 564.003200
   2182   2186   3711     1   115.1800491 558.982400
   2185   3700   3691     1   120.6900519 530.531200
   2186   3711   3702     1   120.6900519 530.531200
   2187   2185   3700     1   123.0500530 620.905600
   2188   2186   3711     1   123.0500530 620.905600
   2191   2194   2214     1   111.6100477 551.451200
   2191   2197   2198     1   112.3500484 533.878400
   2191   2197   2201     1   112.3500484 533.878400
   2194   2191   2197     1   111.0400475 552.288000
   2197   2198   2207     1   111.0400475 552.288000
   2197   2201   2204     1   111.0400475 552.288000
   2198   2197   2201     1   112.3500484 533.878400
   2198   2207   2211     1   111.0400475 529.694400
   2201   2204   2210     1   111.0400475 529.694400
   2204   2210   3722     1   115.1800491 558.982400
   2204   2210   2212     1   123.2000528 564.003200
   2207   2211   2213     1   123.2000528 564.003200
   2207   2211   3733     1   115.1800491 558.982400
   2210   3722   3713     1   120.6900519 530.531200
   2211   3733   3724     1   120.6900519 530.531200
   2212   2210   3722     1   123.0500530 620.905600
   2213   2211   3733     1   123.0500530 620.905600
   2216   2219   2239     1   111.6100477 551.451200
   2216   2222   2223     1   112.3500484 533.878400
   2216   2222   2226     1   112.3500484 533.878400
   2219   2216   2222     1   111.0400475 552.288000
   2222   2223   2232     1   111.0400475 552.288000
   2222   2226   2229     1   111.0400475 552.288000
   2223   2222   2226     1   112.3500484 533.878400
   2223   2232   2236     1   111.0400475 529.694400
   2226   2229   2235     1   111.0400475 529.694400
   2229   2235   3744     1   115.1800491 558.982400
   2229   2235   2237     1   123.2000528 564.003200
   2232   2236   2238     1   123.2000528 564.003200
   2232   2236   3755     1   115.1800491 558.982400
   2235   3744   3735     1   120.6900519 530.531200
   2236   3755   3746     1   120.6900519 530.531200
   2237   2235   3744     1   123.0500530 620.905600
   2238   2236   3755     1   123.0500530 620.905600
   2241   2244   2264     1   111.6100477 551.451200
   2241   2247   2248     1   112.3500484 533.878400
   2241   2247   2251     1   112.3500484 533.878400
   2244   2241   2247     1   111.0400475 552.288000
   2247   2248   2257     1   111.0400475 552.288000
   2247   2251   2254     1   111.0400475 552.288000
   2248   2247   2251     1   112.3500484 533.878400
   2248   2257   2261     1   111.0400475 529.694400
   2251   2254   2260     1   111.0400475 529.694400
   2254   2260   3766     1   115.1800491 558.982400
   2254   2260   2262     1   123.2000528 564.003200
   2257   2261   2263     1   123.2000528 564.003200
   2257   2261   3777     1   115.1800491 558.982400
   2260   3766   3757     1   120.6900519 530.531200
   2261   3777   3768     1   120.6900519 530.531200
   2262   2260   3766     1   123.0500530 620.905600
   2263   2261   3777     1   123.0500530 620.905600
   2266   2269   2289     1   111.6100477 551.451200
   2266   2272   2273     1   112.3500484 533.878400
   2266   2272   2276     1   112.3500484 533.878400
   2269   2266   2272     1   111.0400475 552.288000
   2272   2273   2282     1   111.0400475 552.288000
   2272   2276   2279     1   111.0400475 552.288000
   2273   2272   2276     1   112.3500484 533.878400
   2273   2282   2286     1   111.0400475 529.694400
   2276   2279   2285     1   111.0400475 529.694400
   2279   2285   3788     1   115.1800491 558.982400
   2279   2285   2287     1   123.2000528 564.003200
   2282   2286   2288     1   123.2000528 564.003200
   2282   2286   3799     1   115.1800491 558.982400
   2285   3788   3779     1   120.6900519 530.531200
   2286   3799   3790     1   120.6900519 530.531200
   2287   2285   3788     1   123.0500530 620.905600
   2288   2286   3799     1   123.0500530 620.905600
   2291   2294   2314     1   111.6100477 551.451200
   2291   2297   2298     1   112.3500484 533.878400
   2291   2297   2301     1   112.3500484 533.878400
   2294   2291   2297     1   111.0400475 552.288000
   2297   2298   2307     1   111.0400475 552.288000
   2297   2301   2304     1   111.0400475 552.288000
   2298   2297   2301     1   112.3500484 533.878400
   2298   2307   2311     1   111.0400475 529.694400
   2301   2304   2310     1   111.0400475 529.694400
   2304   2310   3810     1   115.1800491 558.982400
   2304   2310   2312     1   123.2000528 564.003200
   2307   2311   2313     1   123.2000528 564.003200
   2307   2311   3821     1   115.1800491 558.982400
   2310   3810   3801     1   120.6900519 530.531200
   2311   3821   3812     1   120.6900519 530.531200
   2312   2310   3810     1   123.0500530 620.905600
   2313   2311   3821     1   123.0500530 620.905600
   2316   2319   2339     1   111.6100477 551.451200
   2316   2322   2323     1   112.3500484 533.878400
   2316   2322   2326     1   112.3500484 533.878400
   2319   2316   2322     1   111.0400475 552.288000
   2322   2323   2332     1   111.0400475 552.288000
   2322   2326   2329     1   111.0400475 552.288000
   2323   2322   2326     1   112.3500484 533.878400
   2323   2332   2336     1   111.0400475 529.694400
   2326   2329   2335     1   111.0400475 529.694400
   2329   2335   3832     1   115.1800491 558.982400
   2329   2335   2337     1   123.2000528 564.003200
   2332   2336   2338     1   123.2000528 564.003200
   2332   2336   3843     1   115.1800491 558.982400
   2335   3832   3823     1   120.6900519 530.531200
   2336   3843   3834     1   120.6900519 530.531200
   2337   2335   3832     1   123.0500530 620.905600
   2338   2336   3843     1   123.0500530 620.905600
   2341   2344   2364     1   111.6100477 551.451200
   2341   2347   2348     1   112.3500484 533.878400
   2341   2347   2351     1   112.3500484 533.878400
   2344   2341   2347     1   111.0400475 552.288000
   2347   2348   2357     1   111.0400475 552.288000
   2347   2351   2354     1   111.0400475 552.288000
   2348   2347   2351     1   112.3500484 533.878400
   2348   2357   2361     1   111.0400475 529.694400
   2351   2354   2360     1   111.0400475 529.694400
   2354   2360   3854     1   115.1800491 558.982400
   2354   2360   2362     1   123.2000528 564.003200
   2357   2361   2363     1   123.2000528 564.003200
   2357   2361   3865     1   115.1800491 558.982400
   2360   3854   3845     1   120.6900519 530.531200
   2361   3865   3856     1   120.6900519 530.531200
   2362   2360   3854     1   123.0500530 620.905600
   2363   2361   3865     1   123.0500530 620.905600
   2366   2369   2389     1   111.6100477 551.451200
   2366   2372   2373     1   112.3500484 533.878400
   2366   2372   2376     1   112.3500484 533.878400
   2369   2366   2372     1   111.0400475 552.288000
   2372   2373   2382     1   111.0400475 552.288000
   2372   2376   2379     1   111.0400475 552.288000
   2373   2372   2376     1   112.3500484 533.878400
   2373   2382   2386     1   111.0400475 529.694400
   2376   2379   2385     1   111.0400475 529.694400
   2379   2385   3876     1   115.1800491 558.982400
   2379   2385   2387     1   123.2000528 564.003200
   2382   2386   2388     1   123.2000528 564.003200
   2382   2386   3887     1   115.1800491 558.982400
   2385   3876   3867     1   120.6900519 530.531200
   2386   3887   3878     1   120.6900519 530.531200
   2387   2385   3876     1   123.0500530 620.905600
   2388   2386   3887     1   123.0500530 620.905600
   2391   2394   2414     1   111.6100477 551.451200
   2391   2397   2398     1   112.3500484 533.878400
   2391   2397   2401     1   112.3500484 533.878400
   2394   2391   2397     1   111.0400475 552.288000
   2397   2398   2407     1   111.0400475 552.288000
   2397   2401   2404     1   111.0400475 552.288000
   2398   2397   2401     1   112.3500484 533.878400
   2398   2407   2411     1   111.0400475 529.694400
   2401   2404   2410     1   111.0400475 529.694400
   2404   2410   3898     1   115.1800491 558.982400
   2404   2410   2412     1   123.2000528 564.003200
   2407   2411   2413     1   123.2000528 564.003200
   2407   2411   3909     1   115.1800491 558.982400
   2410   3898   3889     1   120.6900519 530.531200
   2411   3909   3900     1   120.6900519 530.531200
   2412   2410   3898     1   123.0500530 620.905600
   2413   2411   3909     1   123.0500530 620.905600
   2416   2419   2439     1   111.6100477 551.451200
   2416   2422   2423     1   112.3500484 533.878400
   2416   2422   2426     1   112.3500484 533.878400
   2419   2416   2422     1   111.0400475 552.288000
   2422   2423   2432     1   111.0400475 552.288000
   2422   2426   2429     1   111.0400475 552.288000
   2423   2422   2426     1   112.3500484 533.878400
   2423   2432   2436     1   111.0400475 529.694400
   2426   2429   2435     1   111.0400475 529.694400
   2429   2435   3920     1   115.1800491 558.982400
   2429   2435   2437     1   123.2000528 564.003200
   2432   2436   2438     1   123.2000528 564.003200
   2432   2436   3931     1   115.1800491 558.982400
   2435   3920   3911     1   120.6900519 530.531200
   2436   3931   3922     1   120.6900519 530.531200
   2437   2435   3920     1   123.0500530 620.905600
   2438   2436   3931     1   123.0500530 620.905600
   2441   2444   2464     1   111.6100477 551.451200
   2441   2447   2448     1   112.3500484 533.878400
   2441   2447   2451     1   112.3500484 533.878400
   2444   2441   2447     1   111.0400475 552.288000
   2447   2448   2457     1   111.0400475 552.288000
   2447   2451   2454     1   111.0400475 552.288000
   2448   2447   2451     1   112.3500484 533.878400
   2448   2457   2461     1   111.0400475 529.694400
   2451   2454   2460     1   111.0400475 529.694400
   2454   2460   3942     1   115.1800491 558.982400
   2454   2460   2462     1   123.2000528 564.003200
   2457   2461   2463     1   123.2000528 564.003200
   2457   2461   3953     1   115.1800491 558.982400
   2460   3942   3933     1   120.6900519 530.531200
   2461   3953   3944     1   120.6900519 530.531200
   2462   2460   3942     1   123.0500530 620.905600
   2463   2461   3953     1   123.0500530 620.905600
   2466   2469   2489     1   111.6100477 551.451200
   2466   2472   2473     1   112.3500484 533.878400
   2466   2472   2476     1   112.3500484 533.878400
   2469   2466   2472     1   111.0400475 552.288000
   2472   2473   2482     1   111.0400475 552.288000
   2472   2476   2479     1   111.0400475 552.288000
   2473   2472   2476     1   112.3500484 533.878400
   2473   2482   2486     1   111.0400475 529.694400
   2476   2479   2485     1   111.0400475 529.694400
   2479   2485   3964     1   115.1800491 558.982400
   2479   2485   2487     1   123.2000528 564.003200
   2482   2486   2488     1   123.2000528 564.003200
   2482   2486   3975     1   115.1800491 558.982400
   2485   3964   3955     1   120.6900519 530.531200
   2486   3975   3966     1   120.6900519 530.531200
   2487   2485   3964     1   123.0500530 620.905600
   2488   2486   3975     1   123.0500530 620.905600
   2491   2494   2514     1   111.6100477 551.451200
   2491   2497   2498     1   112.3500484 533.878400
   2491   2497   2501     1   112.3500484 533.878400
   2494   2491   2497     1   111.0400475 552.288000
   2497   2498   2507     1   111.0400475 552.288000
   2497   2501   2504     1   111.0400475 552.288000
   2498   2497   2501     1   112.3500484 533.878400
   2498   2507   2511     1   111.0400475 529.694400
   2501   2504   2510     1   111.0400475 529.694400
   2504   2510   3986     1   115.1800491 558.982400
   2504   2510   2512     1   123.2000528 564.003200
   2507   2511   2513     1   123.2000528 564.003200
   2507   2511   3997     1   115.1800491 558.982400
   2510   3986   3977     1   120.6900519 530.531200
   2511   3997   3988     1   120.6900519 530.531200
   2512   2510   3986     1   123.0500530 620.905600
   2513   2511   3997     1   123.0500530 620.905600
   2516   2519   2539     1   111.6100477 551.451200
   2516   2522   2523     1   112.3500484 533.878400
   2516   2522   2526     1   112.3500484 533.878400
   2519   2516   2522     1   111.0400475 552.288000
   2522   2523   2532     1   111.0400475 552.288000
   2522   2526   2529     1   111.0400475 552.288000
   2523   2522   2526     1   112.3500484 533.878400
   2523   2532   2536     1   111.0400475 529.694400
   2526   2529   2535     1   111.0400475 529.694400
   2529   2535   4008     1   115.1800491 558.982400
   2529   2535   2537     1   123.2000528 564.003200
   2532   2536   2538     1   123.2000528 564.003200
   2532   2536   4019     1   115.1800491 558.982400
   2535   4008   3999     1   120.6900519 530.531200
   2536   4019   4010     1   120.6900519 530.531200
   2537   2535   4008     1   123.0500530 620.905600
   2538   2536   4019     1   123.0500530 620.905600
   2541   2544   2564     1   111.6100477 551.451200
   2541   2547   2548     1   112.3500484 533.878400
   2541   2547   2551     1   112.3500484 533.878400
   2544   2541   2547     1   111.0400475 552.288000
   2547   2548   2557     1   111.0400475 552.288000
   2547   2551   2554     1   111.0400475 552.288000
   2548   2547   2551     1   112.3500484 533.878400
   2548   2557   2561     1   111.0400475 529.694400
   2551   2554   2560     1   111.0400475 529.694400
   2554   2560   4030     1   115.1800491 558.982400
   2554   2560   2562     1   123.2000528 564.003200
   2557   2561   2563     1   123.2000528 564.003200
   2557   2561   4041     1   115.1800491 558.982400
   2560   4030   4021     1   120.6900519 530.531200
   2561   4041   4032     1   120.6900519 530.531200
   2562   2560   4030     1   123.0500530 620.905600
   2563   2561   4041     1   123.0500530 620.905600
   2566   2569   2589     1   111.6100477 551.451200
   2566   2572   2573     1   112.3500484 533.878400
   2566   2572   2576     1   112.3500484 533.878400
   2569   2566   2572     1   111.0400475 552.288000
   2572   2573   2582     1   111.0400475 552.288000
   2572   2576   2579     1   111.0400475 552.288000
   2573   2572   2576     1   112.3500484 533.878400
   2573   2582   2586     1   111.0400475 529.694400
   2576   2579   2585     1   111.0400475 529.694400
   2579   2585   4052     1   115.1800491 558.982400
   2579   2585   2587     1   123.2000528 564.003200
   2582   2586   2588     1   123.2000528 564.003200
   2582   2586   4063     1   115.1800491 558.982400
   2585   4052   4043     1   120.6900519 530.531200
   2586   4063   4054     1   120.6900519 530.531200
   2587   2585   4052     1   123.0500530 620.905600
   2588   2586   4063     1   123.0500530 620.905600
   2591   2594   2614     1   111.6100477 551.451200
   2591   2597   2598     1   112.3500484 533.878400
   2591   2597   2601     1   112.3500484 533.878400
   2594   2591   2597     1   111.0400475 552.288000
   2597   2598   2607     1   111.0400475 552.288000
   2597   2601   2604     1   111.0400475 552.288000
   2598   2597   2601     1   112.3500484 533.878400
   2598   2607   2611     1   111.0400475 529.694400
   2601   2604   2610     1   111.0400475 529.694400
   2604   2610   4074     1   115.1800491 558.982400
   2604   2610   2612     1   123.2000528 564.003200
   2607   2611   2613     1   123.2000528 564.003200
   2607   2611   4085     1   115.1800491 558.982400
   2610   4074   4065     1   120.6900519 530.531200
   2611   4085   4076     1   120.6900519 530.531200
   2612   2610   4074     1   123.0500530 620.905600
   2613   2611   4085     1   123.0500530 620.905600
   2616   2619   2639     1   111.6100477 551.451200
   2616   2622   2623     1   112.3500484 533.878400
   2616   2622   2626     1   112.3500484 533.878400
   2619   2616   2622     1   111.0400475 552.288000
   2622   2623   2632     1   111.0400475 552.288000
   2622   2626   2629     1   111.0400475 552.288000
   2623   2622   2626     1   112.3500484 533.878400
   2623   2632   2636     1   111.0400475 529.694400
   2626   2629   2635     1   111.0400475 529.694400
   2629   2635   4096     1   115.1800491 558.982400
   2629   2635   2637     1   123.2000528 564.003200
   2632   2636   2638     1   123.2000528 564.003200
   2632   2636   4107     1   115.1800491 558.982400
   2635   4096   4087     1   120.6900519 530.531200
   2636   4107   4098     1   120.6900519 530.531200
   2637   2635   4096     1   123.0500530 620.905600
   2638   2636   4107     1   123.0500530 620.905600
   2641   2644   2664     1   111.6100477 551.451200
   2641   2647   2648     1   112.3500484 533.878400
   2641   2647   2651     1   112.3500484 533.878400
   2644   2641   2647     1   111.0400475 552.288000
   2647   2648   2657     1   111.0400475 552.288000
   2647   2651   2654     1   111.0400475 552.288000
   2648   2647   2651     1   112.3500484 533.878400
   2648   2657   2661     1   111.0400475 529.694400
   2651   2654   2660     1   111.0400475 529.694400
   2654   2660   4118     1   115.1800491 558.982400
   2654   2660   2662     1   123.2000528 564.003200
   2657   2661   2663     1   123.2000528 564.003200
   2657   2661   4129     1   115.1800491 558.982400
   2660   4118   4109     1   120.6900519 530.531200
   2661   4129   4120     1   120.6900519 530.531200
   2662   2660   4118     1   123.0500530 620.905600
   2663   2661   4129     1   123.0500530 620.905600
   2666   2669   2689     1   111.6100477 551.451200
   2666   2672   2673     1   112.3500484 533.878400
   2666   2672   2676     1   112.3500484 533.878400
   2669   2666   2672     1   111.0400475 552.288000
   2672   2673   2682     1   111.0400475 552.288000
   2672   2676   2679     1   111.0400475 552.288000
   2673   2672   2676     1   112.3500484 533.878400
   2673   2682   2686     1   111.0400475 529.694400
   2676   2679   2685     1   111.0400475 529.694400
   2679   2685   4140     1   115.1800491 558.982400
   2679   2685   2687     1   123.2000528 564.003200
   2682   2686   2688     1   123.2000528 564.003200
   2682   2686   4151     1   115.1800491 558.982400
   2685   4140   4131     1   120.6900519 530.531200
   2686   4151   4142     1   120.6900519 530.531200
   2687   2685   4140     1   123.0500530 620.905600
   2688   2686   4151     1   123.0500530 620.905600
   2691   2694   2714     1   111.6100477 551.451200
   2691   2697   2698     1   112.3500484 533.878400
   2691   2697   2701     1   112.3500484 533.878400
   2694   2691   2697     1   111.0400475 552.288000
   2697   2698   2707     1   111.0400475 552.288000
   2697   2701   2704     1   111.0400475 552.288000
   2698   2697   2701     1   112.3500484 533.878400
   2698   2707   2711     1   111.0400475 529.694400
   2701   2704   2710     1   111.0400475 529.694400
   2704   2710   4162     1   115.1800491 558.982400
   2704   2710   2712     1   123.2000528 564.003200
   2707   2711   2713     1   123.2000528 564.003200
   2707   2711   4173     1   115.1800491 558.982400
   2710   4162   4153     1   120.6900519 530.531200
   2711   4173   4164     1   120.6900519 530.531200
   2712   2710   4162     1   123.0500530 620.905600
   2713   2711   4173     1   123.0500530 620.905600
   2716   2719   2739     1   111.6100477 551.451200
   2716   2722   2723     1   112.3500484 533.878400
   2716   2722   2726     1   112.3500484 533.878400
   2719   2716   2722     1   111.0400475 552.288000
   2722   2723   2732     1   111.0400475 552.288000
   2722   2726   2729     1   111.0400475 552.288000
   2723   2722   2726     1   112.3500484 533.878400
   2723   2732   2736     1   111.0400475 529.694400
   2726   2729   2735     1   111.0400475 529.694400
   2729   2735   4184     1   115.1800491 558.982400
   2729   2735   2737     1   123.2000528 564.003200
   2732   2736   2738     1   123.2000528 564.003200
   2732   2736   4195     1   115.1800491 558.982400
   2735   4184   4175     1   120.6900519 530.531200
   2736   4195   4186     1   120.6900519 530.531200
   2737   2735   4184     1   123.0500530 620.905600
   2738   2736   4195     1   123.0500530 620.905600
   2741   2744   2764     1   111.6100477 551.451200
   2741   2747   2748     1   112.3500484 533.878400
   2741   2747   2751     1   112.3500484 533.878400
   2744   2741   2747     1   111.0400475 552.288000
   2747   2748   2757     1   111.0400475 552.288000
   2747   2751   2754     1   111.0400475 552.288000
   2748   2747   2751     1   112.3500484 533.878400
   2748   2757   2761     1   111.0400475 529.694400
   2751   2754   2760     1   111.0400475 529.694400
   2754   2760   4206     1   115.1800491 558.982400
   2754   2760   2762     1   123.2000528 564.003200
   2757   2761   2763     1   123.2000528 564.003200
   2757   2761   4217     1   115.1800491 558.982400
   2760   4206   4197     1   120.6900519 530.531200
   2761   4217   4208     1   120.6900519 530.531200
   2762   2760   4206     1   123.0500530 620.905600
   2763   2761   4217     1   123.0500530 620.905600
   2766   2769   2789     1   111.6100477 551.451200
   2766   2772   2773     1   112.3500484 533.878400
   2766   2772   2776     1   112.3500484 533.878400
   2769   2766   2772     1   111.0400475 552.288000
   2772   2773   2782     1   111.0400475 552.288000
   2772   2776   2779     1   111.0400475 552.288000
   2773   2772   2776     1   112.3500484 533.878400
   2773   2782   2786     1   111.0400475 529.694400
   2776   2779   2785     1   111.0400475 529.694400
   2779   2785   4228     1   115.1800491 558.982400
   2779   2785   2787     1   123.2000528 564.003200
   2782   2786   2788     1   123.2000528 564.003200
   2782   2786   4239     1   115.1800491 558.982400
   2785   4228   4219     1   120.6900519 530.531200
   2786   4239   4230     1   120.6900519 530.531200
   2787   2785   4228     1   123.0500530 620.905600
   2788   2786   4239     1   123.0500530 620.905600
   2791   2794   2814     1   111.6100477 551.451200
   2791   2797   2798     1   112.3500484 533.878400
   2791   2797   2801     1   112.3500484 533.878400
   2794   2791   2797     1   111.0400475 552.288000
   2797   2798   2807     1   111.0400475 552.288000
   2797   2801   2804     1   111.0400475 552.288000
   2798   2797   2801     1   112.3500484 533.878400
   2798   2807   2811     1   111.0400475 529.694400
   2801   2804   2810     1   111.0400475 529.694400
   2804   2810   4250     1   115.1800491 558.982400
   2804   2810   2812     1   123.2000528 564.003200
   2807   2811   2813     1   123.2000528 564.003200
   2807   2811   4261     1   115.1800491 558.982400
   2810   4250   4241     1   120.6900519 530.531200
   2811   4261   4252     1   120.6900519 530.531200
   2812   2810   4250     1   123.0500530 620.905600
   2813   2811   4261     1   123.0500530 620.905600
   2816   2819   2839     1   111.6100477 551.451200
   2816   2822   2823     1   112.3500484 533.878400
   2816   2822   2826     1   112.3500484 533.878400
   2819   2816   2822     1   111.0400475 552.288000
   2822   2823   2832     1   111.0400475 552.288000
   2822   2826   2829     1   111.0400475 552.288000
   2823   2822   2826     1   112.3500484 533.878400
   2823   2832   2836     1   111.0400475 529.694400
   2826   2829   2835     1   111.0400475 529.694400
   2829   2835   4272     1   115.1800491 558.982400
   2829   2835   2837     1   123.2000528 564.003200
   2832   2836   2838     1   123.2000528 564.003200
   2832   2836   4283     1   115.1800491 558.982400
   2835   4272   4263     1   120.6900519 530.531200
   2836   4283   4274     1   120.6900519 530.531200
   2837   2835   4272     1   123.0500530 620.905600
   2838   2836   4283     1   123.0500530 620.905600
   2841   2844   2864     1   111.6100477 551.451200
   2841   2847   2848     1   112.3500484 533.878400
   2841   2847   2851     1   112.3500484 533.878400
   2844   2841   2847     1   111.0400475 552.288000
   2847   2848   2857     1   111.0400475 552.288000
   2847   2851   2854     1   111.0400475 552.288000
   2848   2847   2851     1   112.3500484 533.878400
   2848   2857   2861     1   111.0400475 529.694400
   2851   2854   2860     1   111.0400475 529.694400
   2854   2860   4294     1   115.1800491 558.982400
   2854   2860   2862     1   123.2000528 564.003200
   2857   2861   2863     1   123.2000528 564.003200
   2857   2861   4305     1   115.1800491 558.982400
   2860   4294   4285     1   120.6900519 530.531200
   2861   4305   4296     1   120.6900519 530.531200
   2862   2860   4294     1   123.0500530 620.905600
   2863   2861   4305     1   123.0500530 620.905600
   2866   2869   2889     1   111.6100477 551.451200
   2866   2872   2873     1   112.3500484 533.878400
   2866   2872   2876     1   112.3500484 533.878400
   2869   2866   2872     1   111.0400475 552.288000
   2872   2873   2882     1   111.0400475 552.288000
   2872   2876   2879     1   111.0400475 552.288000
   2873   2872   2876     1   112.3500484 533.878400
   2873   2882   2886     1   111.0400475 529.694400
   2876   2879   2885     1   111.0400475 529.694400
   2879   2885   4316     1   115.1800491 558.982400
   2879   2885   2887     1   123.2000528 564.003200
   2882   2886   2888     1   123.2000528 564.003200
   2882   2886   4327     1   115.1800491 558.982400
   2885   4316   4307     1   120.6900519 530.531200
   2886   4327   4318     1   120.6900519 530.531200
   2887   2885   4316     1   123.0500530 620.905600
   2888   2886   4327     1   123.0500530 620.905600
   2891   2894   2914     1   111.6100477 551.451200
   2891   2897   2898     1   112.3500484 533.878400
   2891   2897   2901     1   112.3500484 533.878400
   2894   2891   2897     1   111.0400475 552.288000
   2897   2898   2907     1   111.0400475 552.288000
   2897   2901   2904     1   111.0400475 552.288000
   2898   2897   2901     1   112.3500484 533.878400
   2898   2907   2911     1   111.0400475 529.694400
   2901   2904   2910     1   111.0400475 529.694400
   2904   2910   4338     1   115.1800491 558.982400
   2904   2910   2912     1   123.2000528 564.003200
   2907   2911   2913     1   123.2000528 564.003200
   2907   2911   4349     1   115.1800491 558.982400
   2910   4338   4329     1   120.6900519 530.531200
   2911   4349   4340     1   120.6900519 530.531200
   2912   2910   4338     1   123.0500530 620.905600
   2913   2911   4349     1   123.0500530 620.905600
   2916   2919   2939     1   111.6100477 551.451200
   2916   2922   2923     1   112.3500484 533.878400
   2916   2922   2926     1   112.3500484 533.878400
   2919   2916   2922     1   111.0400475 552.288000
   2922   2923   2932     1   111.0400475 552.288000
   2922   2926   2929     1   111.0400475 552.288000
   2923   2922   2926     1   112.3500484 533.878400
   2923   2932   2936     1   111.0400475 529.694400
   2926   2929   2935     1   111.0400475 529.694400
   2929   2935   4360     1   115.1800491 558.982400
   2929   2935   2937     1   123.2000528 564.003200
   2932   2936   2938     1   123.2000528 564.003200
   2932   2936   4371     1   115.1800491 558.982400
   2935   4360   4351     1   120.6900519 530.531200
   2936   4371   4362     1   120.6900519 530.531200
   2937   2935   4360     1   123.0500530 620.905600
   2938   2936   4371     1   123.0500530 620.905600
   2941   2944   2964     1   111.6100477 551.451200
   2941   2947   2948     1   112.3500484 533.878400
   2941   2947   2951     1   112.3500484 533.878400
   2944   2941   2947     1   111.0400475 552.288000
   2947   2948   2957     1   111.0400475 552.288000
   2947   2951   2954     1   111.0400475 552.288000
   2948   2947   2951     1   112.3500484 533.878400
   2948   2957   2961     1   111.0400475 529.694400
   2951   2954   2960     1   111.0400475 529.694400
   2954   2960   4382     1   115.1800491 558.982400
   2954   2960   2962     1   123.2000528 564.003200
   2957   2961   2963     1   123.2000528 564.003200
   2957   2961   4393     1   115.1800491 558.982400
   2960   4382   4373     1   120.6900519 530.531200
   2961   4393   4384     1   120.6900519 530.531200
   2962   2960   4382     1   123.0500530 620.905600
   2963   2961   4393     1   123.0500530 620.905600
   2966   2969   2989     1   111.6100477 551.451200
   2966   2972   2973     1   112.3500484 533.878400
   2966   2972   2976     1   112.3500484 533.878400
   2969   2966   2972     1   111.0400475 552.288000
   2972   2973   2982     1   111.0400475 552.288000
   2972   2976   2979     1   111.0400475 552.288000
   2973   2972   2976     1   112.3500484 533.878400
   2973   2982   2986     1   111.0400475 529.694400
   2976   2979   2985     1   111.0400475 529.694400
   2979   2985   4404     1   115.1800491 558.982400
   2979   2985   2987     1   123.2000528 564.003200
   2982   2986   2988     1   123.2000528 564.003200
   2982   2986   4415     1   115.1800491 558.982400
   2985   4404   4395     1   120.6900519 530.531200
   2986   4415   4406     1   120.6900519 530.531200
   2987   2985   4404     1   123.0500530 620.905600
   2988   2986   4415     1   123.0500530 620.905600
   2991   2994   3014     1   111.6100477 551.451200
   2991   2997   2998     1   112.3500484 533.878400
   2991   2997   3001     1   112.3500484 533.878400
   2994   2991   2997     1   111.0400475 552.288000
   2997   2998   3007     1   111.0400475 552.288000
   2997   3001   3004     1   111.0400475 552.288000
   2998   2997   3001     1   112.3500484 533.878400
   2998   3007   3011     1   111.0400475 529.694400
   3001   3004   3010     1   111.0400475 529.694400
   3004   3010   4426     1   115.1800491 558.982400
   3004   3010   3012     1   123.2000528 564.003200
   3007   3011   3013     1   123.2000528 564.003200
   3007   3011   4437     1   115.1800491 558.982400
   3010   4426   4417     1   120.6900519 530.531200
   3011   4437   4428     1   120.6900519 530.531200
   3012   3010   4426     1   123.0500530 620.905600
   3013   3011   4437     1   123.0500530 620.905600
   3016   3019   3039     1   111.6100477 551.451200
   3016   3022   3023     1   112.3500484 533.878400
   3016   3022   3026     1   112.3500484 533.878400
   3019   3016   3022     1   111.0400475 552.288000
   3022   3023   3032     1   111.0400475 552.288000
   3022   3026   3029     1   111.0400475 552.288000
   3023   3022   3026     1   112.3500484 533.878400
   3023   3032   3036     1   111.0400475 529.694400
   3026   3029   3035     1   111.0400475 529.694400
   3029   3035   4448     1   115.1800491 558.982400
   3029   3035   3037     1   123.2000528 564.003200
   3032   3036   3038     1   123.2000528 564.003200
   3032   3036   4459     1   115.1800491 558.982400
   3035   4448   4439     1   120.6900519 530.531200
   3036   4459   4450     1   120.6900519 530.531200
   3037   3035   4448     1   123.0500530 620.905600
   3038   3036   4459     1   123.0500530 620.905600
   3041   3044   3064     1   111.6100477 551.451200
   3041   3047   3048     1   112.3500484 533.878400
   3041   3047   3051     1   112.3500484 533.878400
   3044   3041   3047     1   111.0400475 552.288000
   3047   3048   3057     1   111.0400475 552.288000
   3047   3051   3054     1   111.0400475 552.288000
   3048   3047   3051     1   112.3500484 533.878400
   3048   3057   3061     1   111.0400475 529.694400
   3051   3054   3060     1   111.0400475 529.694400
   3054   3060   4470     1   115.1800491 558.982400
   3054   3060   3062     1   123.2000528 564.003200
   3057   3061   3063     1   123.2000528 564.003200
   3057   3061   4481     1   115.1800491 558.982400
   3060   4470   4461     1   120.6900519 530.531200
   3061   4481   4472     1   120.6900519 530.531200
   3062   3060   4470     1   123.0500530 620.905600
   3063   3061   4481     1   123.0500530 620.905600
   3066   3069   3089     1   111.6100477 551.451200
   3066   3072   3073     1   112.3500484 533.878400
   3066   3072   3076     1   112.3500484 533.878400
   3069   3066   3072     1   111.0400475 552.288000
   3072   3073   3082     1   111.0400475 552.288000
   3072   3076   3079     1   111.0400475 552.288000
   3073   3072   3076     1   112.3500484 533.878400
   3073   3082   3086     1   111.0400475 529.694400
   3076   3079   3085     1   111.0400475 529.694400
   3079   3085   4492     1   115.1800491 558.982400
   3079   3085   3087     1   123.2000528 564.003200
   3082   3086   3088     1   123.2000528 564.003200
   3082   3086   4503     1   115.1800491 558.982400
   3085   4492   4483     1   120.6900519 530.531200
   3086   4503   4494     1   120.6900519 530.531200
   3087   3085   4492     1   123.0500530 620.905600
   3088   3086   4503     1   123.0500530 620.905600
   3091   3094   3114     1   111.6100477 551.451200
   3091   3097   3098     1   112.3500484 533.878400
   3091   3097   3101     1   112.3500484 533.878400
   3094   3091   3097     1   111.0400475 552.288000
   3097   3098   3107     1   111.0400475 552.288000
   3097   3101   3104     1   111.0400475 552.288000
   3098   3097   3101     1   112.3500484 533.878400
   3098   3107   3111     1   111.0400475 529.694400
   3101   3104   3110     1   111.0400475 529.694400
   3104   3110   4514     1   115.1800491 558.982400
   3104   3110   3112     1   123.2000528 564.003200
   3107   3111   3113     1   123.2000528 564.003200
   3107   3111   4525     1   115.1800491 558.982400
   3110   4514   4505     1   120.6900519 530.531200
   3111   4525   4516     1   120.6900519 530.531200
   3112   3110   4514     1   123.0500530 620.905600
   3113   3111   4525     1   123.0500530 620.905600
   3116   3119   3139     1   111.6100477 551.451200
   3116   3122   3123     1   112.3500484 533.878400
   3116   3122   3126     1   112.3500484 533.878400
   3119   3116   3122     1   111.0400475 552.288000
   3122   3123   3132     1   111.0400475 552.288000
   3122   3126   3129     1   111.0400475 552.288000
   3123   3122   3126     1   112.3500484 533.878400
   3123   3132   3136     1   111.0400475 529.694400
   3126   3129   3135     1   111.0400475 529.694400
   3129   3135   4536     1   115.1800491 558.982400
   3129   3135   3137     1   123.2000528 564.003200
   3132   3136   4547     1   115.1800491 558.982400
   3132   3136   3138     1   123.2000528 564.003200
   3135   4536   4527     1   120.6900519 530.531200
   3136   4547   4538     1   120.6900519 530.531200
   3137   3135   4536     1   123.0500530 620.905600
   3138   3136   4547     1   123.0500530 620.905600
   3141   3144   3147     1   111.0400475 552.288000
   3144   3141   3150     1   111.6100477 551.451200
   3152   3155   3158     1   111.0400475 552.288000
   3155   3152   3161     1   111.6100477 551.451200
   3163   3166   3169     1   111.0400475 552.288000
   3166   3163   3172     1   111.6100477 551.451200
   3174   3177   3180     1   111.0400475 552.288000
   3177   3174   3183     1   111.6100477 551.451200
   3185   3188   3191     1   111.0400475 552.288000
   3188   3185   3194     1   111.6100477 551.451200
   3196   3199   3202     1   111.0400475 552.288000
   3199   3196   3205     1   111.6100477 551.451200
   3207   3210   3213     1   111.0400475 552.288000
   3210   3207   3216     1   111.6100477 551.451200
   3218   3221   3224     1   111.0400475 552.288000
   3221   3218   3227     1   111.6100477 551.451200
   3229   3232   3235     1   111.0400475 552.288000
   3232   3229   3238     1   111.6100477 551.451200
   3240   3243   3246     1   111.0400475 552.288000
   3243   3240   3249     1   111.6100477 551.451200
   3251   3254   3257     1   111.0400475 552.288000
   3254   3251   3260     1   111.6100477 551.451200
   3262   3265   3268     1   111.0400475 552.288000
   3265   3262   3271     1   111.6100477 551.451200
   3273   3276   3279     1   111.0400475 552.288000
   3276   3273   3282     1   111.6100477 551.451200
   3284   3287   3290     1   111.0400475 552.288000
   3287   3284   3293     1   111.6100477 551.451200
   3295   3298   3301     1   111.0400475 552.288000
   3298   3295   3304     1   111.6100477 551.451200
   3306   3309   3312     1   111.0400475 552.288000
   3309   3306   3315     1   111.6100477 551.451200
   3317   3320   3323     1   111.0400475 552.288000
   3320   3317   3326     1   111.6100477 551.451200
   3328   3331   3334     1   111.0400475 552.288000
   3331   3328   3337     1   111.6100477 551.451200
   3339   3342   3345     1   111.0400475 552.288000
   3342   3339   3348     1   111.6100477 551.451200
   3350   3353   3356     1   111.0400475 552.288000
   3353   3350   3359     1   111.6100477 551.451200
   3361   3364   3367     1   111.0400475 552.288000
   3364   3361   3370     1   111.6100477 551.451200
   3372   3375   3378     1   111.0400475 552.288000
   3375   3372   3381     1   111.6100477 551.451200
   3383   3386   3389     1   111.0400475 552.288000
   3386   3383   3392     1   111.6100477 551.451200
   3394   3397   3400     1   111.0400475 552.288000
   3397   3394   3403     1   111.6100477 551.451200
   3405   3408   3411     1   111.0400475 552.288000
   3408   3405   3414     1   111.6100477 551.451200
   3416   3419   3422     1   111.0400475 552.288000
   3419   3416   3425     1   111.6100477 551.451200
   3427   3430   3433     1   111.0400475 552.288000
   3430   3427   3436     1   111.6100477 551.451200
   3438   3441   3444     1   111.0400475 552.288000
   3441   3438   3447     1   111.6100477 551.451200
   3449   3452   3455     1   111.0400475 552.288000
   3452   3449   3458     1   111.6100477 551.451200
   3460   3463   3466     1   111.0400475 552.288000
   3463   3460   3469     1   111.6100477 551.451200
   3471   3474   3477     1   111.0400475 552.288000
   3474   3471   3480     1   111.6100477 551.451200
   3482   3485   3488     1   111.0400475 552.288000
   3485   3482   3491     1   111.6100477 551.451200
   3493   3496   3499     1   111.0400475 552.288000
   3496   3493   3502     1   111.6100477 551.451200
   3504   3507   3510     1   111.0400475 552.288000
   3507   3504   3513     1   111.6100477 551.451200
   3515   3518   3521     1   111.0400475 552.288000
   3518   3515   3524     1   111.6100477 551.451200
   3526   3529   3532     1   111.0400475 552.288000
   3529   3526   3535     1   111.6100477 551.451200
   3537   3540   3543     1   111.0400475 552.288000
   3540   3537   3546     1   111.6100477 551.451200
   3548   3551   3554     1   111.0400475 552.288000
   3551   3548   3557     1   111.6100477 551.451200
   3559   3562   3565     1   111.0400475 552.288000
   3562   3559   3568     1   111.6100477 551.451200
   3570   3573   3576     1   111.0400475 552.288000
   3573   3570   3579     1   111.6100477 551.451200
   3581   3584   3587     1   111.0400475 552.288000
   3584   3581   3590     1   111.6100477 551.451200
   3592   3595   3598     1   111.0400475 552.288000
   3595   3592   3601     1   111.6100477 551.451200
   3603   3606   3609     1   111.0400475 552.288000
   3606   3603   3612     1   111.6100477 551.451200
   3614   3617   3620     1   111.0400475 552.288000
   3617   3614   3623     1   111.6100477 551.451200
   3625   3628   3631     1   111.0400475 552.288000
   3628   3625   3634     1   111.6100477 551.451200
   3636   3639   3642     1   111.0400475 552.288000
   3639   3636   3645     1   111.6100477 551.451200
   3647   3650   3653     1   111.0400475 552.288000
   3650   3647   3656     1   111.6100477 551.451200
   3658   3661   3664     1   111.0400475 552.288000
   3661   3658   3667     1   111.6100477 551.451200
   3669   3672   3675     1   111.0400475 552.288000
   3672   3669   3678     1   111.6100477 551.451200
   3680   3683   3686     1   111.0400475 552.288000
   3683   3680   3689     1   111.6100477 551.451200
   3691   3694   3697     1   111.0400475 552.288000
   3694   3691   3700     1   111.6100477 551.451200
   3702   3705   3708     1   111.0400475 552.288000
   3705   3702   3711     1   111.6100477 551.451200
   3713   3716   3719     1   111.0400475 552.288000
   3716   3713   3722     1   111.6100477 551.451200
   3724   3727   3730     1   111.0400475 552.288000
   3727   3724   3733     1   111.6100477 551.451200
   3735   3738   3741     1   111.0400475 552.288000
   3738   3735   3744     1   111.6100477 551.451200
   3746   3749   3752     1   111.0400475 552.288000
   3749   3746   3755     1   111.6100477 551.451200
   3757   3760   3763     1   111.0400475 552.288000
   3760   3757   3766     1   111.6100477 551.451200
   3768   3771   3774     1   111.0400475 552.288000
   3771   3768   3777     1   111.6100477 551.451200
   3779   3782   3785     1   111.0400475 552.288000
   3782   3779   3788     1   111.6100477 551.451200
   3790   3793   3796     1   111.0400475 552.288000
   3793   3790   3799     1   111.6100477 551.451200
   3801   3804   3807     1   111.0400475 552.288000
   3804   3801   3810     1   111.6100477 551.451200
   3812   3815   3818     1   111.0400475 552.288000
   3815   3812   3821     1   111.6100477 551.451200
   3823   3826   3829     1   111.0400475 552.288000
   3826   3823   3832     1   111.6100477 551.451200
   3834   3837   3840     1   111.0400475 552.288000
   3837   3834   3843     1   111.6100477 551.451200
   3845   3848   3851     1   111.0400475 552.288000
   3848   3845   3854     1   111.6100477 551.451200
   3856   3859   3862     1   111.0400475 552.288000
   3859   3856   3865     1   111.6100477 551.451200
   3867   3870   3873     1   111.0400475 552.288000
   3870   3867   3876     1   111.6100477 551.451200
   3878   3881   3884     1   111.0400475 552.288000
   3881   3878   3887     1   111.6100477 551.451200
   3889   3892   3895     1   111.0400475 552.288000
   3892   3889   3898     1   111.6100477 551.451200
   3900   3903   3906     1   111.0400475 552.288000
   3903   3900   3909     1   111.6100477 551.451200
   3911   3914   3917     1   111.0400475 552.288000
   3914   3911   3920     1   111.6100477 551.451200
   3922   3925   3928     1   111.0400475 552.288000
   3925   3922   3931     1   111.6100477 551.451200
   3933   3936   3939     1   111.0400475 552.288000
   3936   3933   3942     1   111.6100477 551.451200
   3944   3947   3950     1   111.0400475 552.288000
   3947   3944   3953     1   111.6100477 551.451200
   3955   3958   3961     1   111.0400475 552.288000
   3958   3955   3964     1   111.6100477 551.451200
   3966   3969   3972     1   111.0400475 552.288000
   3969   3966   3975     1   111.6100477 551.451200
   3977   3980   3983     1   111.0400475 552.288000
   3980   3977   3986     1   111.6100477 551.451200
   3988   3991   3994     1   111.0400475 552.288000
   3991   3988   3997     1   111.6100477 551.451200
   3999   4002   4005     1   111.0400475 552.288000
   4002   3999   4008     1   111.6100477 551.451200
   4010   4013   4016     1   111.0400475 552.288000
   4013   4010   4019     1   111.6100477 551.451200
   4021   4024   4027     1   111.0400475 552.288000
   4024   4021   4030     1   111.6100477 551.451200
   4032   4035   4038     1   111.0400475 552.288000
   4035   4032   4041     1   111.6100477 551.451200
   4043   4046   4049     1   111.0400475 552.288000
   4046   4043   4052     1   111.6100477 551.451200
   4054   4057   4060     1   111.0400475 552.288000
   4057   4054   4063     1   111.6100477 551.451200
   4065   4068   4071     1   111.0400475 552.288000
   4068   4065   4074     1   111.6100477 551.451200
   4076   4079   4082     1   111.0400475 552.288000
   4079   4076   4085     1   111.6100477 551.451200
   4087   4090   4093     1   111.0400475 552.288000
   4090   4087   4096     1   111.6100477 551.451200
   4098   4101   4104     1   111.0400475 552.288000
   4101   4098   4107     1   111.6100477 551.451200
   4109   4112   4115     1   111.0400475 552.288000
   4112   4109   4118     1   111.6100477 551.451200
   4120   4123   4126     1   111.0400475 552.288000
   4123   4120   4129     1   111.6100477 551.451200
   4131   4134   4137     1   111.0400475 552.288000
   4134   4131   4140     1   111.6100477 551.451200
   4142   4145   4148     1   111.0400475 552.288000
   4145   4142   4151     1   111.6100477 551.451200
   4153   4156   4159     1   111.0400475 552.288000
   4156   4153   4162     1   111.6100477 551.451200
   4164   4167   4170     1   111.0400475 552.288000
   4167   4164   4173     1   111.6100477 551.451200
   4175   4178   4181     1   111.0400475 552.288000
   4178   4175   4184     1   111.6100477 551.451200
   4186   4189   4192     1   111.0400475 552.288000
   4189   4186   4195     1   111.6100477 551.451200
   4197   4200   4203     1   111.0400475 552.288000
   4200   4197   4206     1   111.6100477 551.451200
   4208   4211   4214     1   111.0400475 552.288000
   4211   4208   4217     1   111.6100477 551.451200
   4219   4222   4225     1   111.0400475 552.288000
   4222   4219   4228     1   111.6100477 551.451200
   4230   4233   4236     1   111.0400475 552.288000
   4233   4230   4239     1   111.6100477 551.451200
   4241   4244   4247     1   111.0400475 552.288000
   4244   4241   4250     1   111.6100477 551.451200
   4252   4255   4258     1   111.0400475 552.288000
   4255   4252   4261     1   111.6100477 551.451200
   4263   4266   4269     1   111.0400475 552.288000
   4266   4263   4272     1   111.6100477 551.451200
   4274   4277   4280     1   111.0400475 552.288000
   4277   4274   4283     1   111.6100477 551.451200
   4285   4288   4291     1   111.0400475 552.288000
   4288   4285   4294     1   111.6100477 551.451200
   4296   4299   4302     1   111.0400475 552.288000
   4299   4296   4305     1   111.6100477 551.451200
   4307   4310   4313     1   111.0400475 552.288000
   4310   4307   4316     1   111.6100477 551.451200
   4318   4321   4324     1   111.0400475 552.288000
   4321   4318   4327     1   111.6100477 551.451200
   4329   4332   4335     1   111.0400475 552.288000
   4332   4329   4338     1   111.6100477 551.451200
   4340   4343   4346     1   111.0400475 552.288000
   4343   4340   4349     1   111.6100477 551.451200
   4351   4354   4357     1   111.0400475 552.288000
   4354   4351   4360     1   111.6100477 551.451200
   4362   4365   4368     1   111.0400475 552.288000
   4365   4362   4371     1   111.6100477 551.451200
   4373   4376   4379     1   111.0400475 552.288000
   4376   4373   4382     1   111.6100477 551.451200
   4384   4387   4390     1   111.0400475 552.288000
   4387   4384   4393     1   111.6100477 551.451200
   4395   4398   4401     1   111.0400475 552.288000
   4398   4395   4404     1   111.6100477 551.451200
   4406   4409   4412     1   111.0400475 552.288000
   4409   4406   4415     1   111.6100477 551.451200
   4417   4420   4423     1   111.0400475 552.288000
   4420   4417   4426     1   111.6100477 551.451200
   4428   4431   4434     1   111.0400475 552.288000
   4431   4428   4437     1   111.6100477 551.451200
   4439   4442   4445     1   111.0400475 552.288000
   4442   4439   4448     1   111.6100477 551.451200
   4450   4453   4456     1   111.0400475 552.288000
   4453   4450   4459     1   111.6100477 551.451200
   4461   4464   4467     1   111.0400475 552.288000
   4464   4461   4470     1   111.6100477 551.451200
   4472   4475   4478     1   111.0400475 552.288000
   4475   4472   4481     1   111.6100477 551.451200
   4483   4486   4489     1   111.0400475 552.288000
   4486   4483   4492     1   111.6100477 551.451200
   4494   4497   4500     1   111.0400475 552.288000
   4497   4494   4503     1   111.6100477 551.451200
   4505   4508   4511     1   111.0400475 552.288000
   4508   4505   4514     1   111.6100477 551.451200
   4516   4519   4522     1   111.0400475 552.288000
   4519   4516   4525     1   111.6100477 551.451200
   4527   4530   4533     1   111.0400475 552.288000
   4530   4527   4536     1   111.6100477 551.451200
   4538   4541   4544     1   111.0400475 552.288000
   4541   4538   4547     1   111.6100477 551.451200
      1      4      5     1   109.5600471 388.275200
      1      4      6     1   109.5600471 388.275200
      2      1      4     1   109.5600471 388.275200
      2      1      8     1   109.8800469 414.216000
      2      1      3     1   108.4600466 328.025600
      3      1      4     1   109.5600471 388.275200
      3      1      8     1   109.8800469 414.216000
      5      4      7     1   109.8800469 414.216000
      5      4      6     1   108.4600466 328.025600
      6      4      7     1   109.8800469 414.216000
      7     15     16     1   109.8800469 414.216000
      7     15     17     1   109.8800469 414.216000
      7     18     19     1   109.8800469 414.216000
      7     18     20     1   109.8800469 414.216000
      8      9     10     1   109.8800469 414.216000
      8      9     11     1   109.8800469 414.216000
      8     12     13     1   109.8800469 414.216000
      8     12     14     1   109.8800469 414.216000
      9     30     31     1   109.8000471 387.438400
      9     30     32     1   109.8000471 387.438400
     10      9     30     1   109.5600471 388.275200
     10      9     11     1   108.4600466 328.025600
     11      9     30     1   109.5600471 388.275200
     12     27     28     1   109.8000471 387.438400
     12     27     29     1   109.8000471 387.438400
     13     12     27     1   109.5600471 388.275200
     13     12     14     1   108.4600466 328.025600
     14     12     27     1   109.5600471 388.275200
     15     21     22     1   109.8000471 387.438400
     15     21     23     1   109.8000471 387.438400
     16     15     21     1   109.5600471 388.275200
     16     15     17     1   108.4600466 328.025600
     17     15     21     1   109.5600471 388.275200
     18     24     25     1   109.8000471 387.438400
     18     24     26     1   109.8000471 387.438400
     19     18     24     1   109.5600471 388.275200
     19     18     20     1   108.4600466 328.025600
     20     18     24     1   109.5600471 388.275200
     22     21     35     1   108.7700466 392.459200
     22     21     23     1   107.5800459 329.699200
     23     21     35     1   108.7700466 392.459200
     25     24     36     1   108.7700466 392.459200
     25     24     26     1   107.5800459 329.699200
     26     24     36     1   108.7700466 392.459200
     28     27     33     1   108.7700466 392.459200
     28     27     29     1   107.5800459 329.699200
     29     27     33     1   108.7700466 392.459200
     31     30     34     1   108.7700466 392.459200
     31     30     32     1   107.5800459 329.699200
     32     30     34     1   108.7700466 392.459200
     33     64     65     1   117.5500507 404.174400
     34     89     90     1   117.5500507 404.174400
     35    114    115     1   117.5500507 404.174400
     36    139    140     1   117.5500507 404.174400
     41     44     45     1   109.5600471 388.275200
     41     44     46     1   109.5600471 388.275200
     42     41     44     1   109.5600471 388.275200
     42     41     47     1   109.8800469 414.216000
     42     41     43     1   108.4600466 328.025600
     43     41     44     1   109.5600471 388.275200
     43     41     47     1   109.8800469 414.216000
     44     64     65     1   117.6800502 383.254400
     45     44     64     1   108.8800464 416.726400
     45     44     46     1   108.4600466 328.025600
     46     44     64     1   108.8800464 416.726400
     47     48     49     1   109.8800469 414.216000
     47     48     50     1   109.8800469 414.216000
     47     51     52     1   109.8800469 414.216000
     47     51     53     1   109.8800469 414.216000
     48     57     58     1   109.8000471 387.438400
     48     57     59     1   109.8000471 387.438400
     49     48     57     1   109.5600471 388.275200
     49     48     50     1   108.4600466 328.025600
     50     48     57     1   109.5600471 388.275200
     51     54     55     1   109.8000471 387.438400
     51     54     56     1   109.8000471 387.438400
     52     51     54     1   109.5600471 388.275200
     52     51     53     1   108.4600466 328.025600
     53     51     54     1   109.5600471 388.275200
     55     54     60     1   108.7700466 392.459200
     55     54     56     1   107.5800459 329.699200
     56     54     60     1   108.7700466 392.459200
     58     57     61     1   108.7700466 392.459200
     58     57     59     1   107.5800459 329.699200
     59     57     61     1   108.7700466 392.459200
     60    164    165     1   117.5500507 404.174400
     61    189    190     1   117.5500507 404.174400
     66     69     70     1   109.5600471 388.275200
     66     69     71     1   109.5600471 388.275200
     67     66     69     1   109.5600471 388.275200
     67     66     72     1   109.8800469 414.216000
     67     66     68     1   108.4600466 328.025600
     68     66     69     1   109.5600471 388.275200
     68     66     72     1   109.8800469 414.216000
     69     89     90     1   117.6800502 383.254400
     70     69     89     1   108.8800464 416.726400
     70     69     71     1   108.4600466 328.025600
     71     69     89     1   108.8800464 416.726400
     72     73     74     1   109.8800469 414.216000
     72     73     75     1   109.8800469 414.216000
     72     76     77     1   109.8800469 414.216000
     72     76     78     1   109.8800469 414.216000
     73     82     83     1   109.8000471 387.438400
     73     82     84     1   109.8000471 387.438400
     74     73     82     1   109.5600471 388.275200
     74     73     75     1   108.4600466 328.025600
     75     73     82     1   109.5600471 388.275200
     76     79     80     1   109.8000471 387.438400
     76     79     81     1   109.8000471 387.438400
     77     76     79     1   109.5600471 388.275200
     77     76     78     1   108.4600466 328.025600
     78     76     79     1   109.5600471 388.275200
     80     79     85     1   108.7700466 392.459200
     80     79     81     1   107.5800459 329.699200
     81     79     85     1   108.7700466 392.459200
     83     82     86     1   108.7700466 392.459200
     83     82     84     1   107.5800459 329.699200
     84     82     86     1   108.7700466 392.459200
     85    214    215     1   117.5500507 404.174400
     86    239    240     1   117.5500507 404.174400
     91     94     95     1   109.5600471 388.275200
     91     94     96     1   109.5600471 388.275200
     92     91     94     1   109.5600471 388.275200
     92     91     97     1   109.8800469 414.216000
     92     91     93     1   108.4600466 328.025600
     93     91     94     1   109.5600471 388.275200
     93     91     97     1   109.8800469 414.216000
     94    114    115     1   117.6800502 383.254400
     95     94    114     1   108.8800464 416.726400
     95     94     96     1   108.4600466 328.025600
     96     94    114     1   108.8800464 416.726400
     97     98     99     1   109.8800469 414.216000
     97     98    100     1   109.8800469 414.216000
     97    101    102     1   109.8800469 414.216000
     97    101    103     1   109.8800469 414.216000
     98    107    108     1   109.8000471 387.438400
     98    107    109     1   109.8000471 387.438400
     99     98    107     1   109.5600471 388.275200
     99     98    100     1   108.4600466 328.025600
    100     98    107     1   109.5600471 388.275200
    101    104    105     1   109.8000471 387.438400
    101    104    106     1   109.8000471 387.438400
    102    101    104     1   109.5600471 388.275200
    102    101    103     1   108.4600466 328.025600
    103    101    104     1   109.5600471 388.275200
    105    104    110     1   108.7700466 392.459200
    105    104    106     1   107.5800459 329.699200
    106    104    110     1   108.7700466 392.459200
    108    107    111     1   108.7700466 392.459200
    108    107    109     1   107.5800459 329.699200
    109    107    111     1   108.7700466 392.459200
    110    264    265     1   117.5500507 404.174400
    111    289    290     1   117.5500507 404.174400
    116    119    120     1   109.5600471 388.275200
    116    119    121     1   109.5600471 388.275200
    117    116    119     1   109.5600471 388.275200
    117    116    122     1   109.8800469 414.216000
    117    116    118     1   108.4600466 328.025600
    118    116    119     1   109.5600471 388.275200
    118    116    122     1   109.8800469 414.216000
    119    139    140     1   117.6800502 383.254400
    120    119    139     1   108.8800464 416.726400
    120    119    121     1   108.4600466 328.025600
    121    119    139     1   108.8800464 416.726400
    122    123    124     1   109.8800469 414.216000
    122    123    125     1   109.8800469 414.216000
    122    126    127     1   109.8800469 414.216000
    122    126    128     1   109.8800469 414.216000
    123    132    133     1   109.8000471 387.438400
    123    132    134     1   109.8000471 387.438400
    124    123    132     1   109.5600471 388.275200
    124    123    125     1   108.4600466 328.025600
    125    123    132     1   109.5600471 388.275200
    126    129    130     1   109.8000471 387.438400
    126    129    131     1   109.8000471 387.438400
    127    126    129     1   109.5600471 388.275200
    127    126    128     1   108.4600466 328.025600
    128    126    129     1   109.5600471 388.275200
    130    129    135     1   108.7700466 392.459200
    130    129    131     1   107.5800459 329.699200
    131    129    135     1   108.7700466 392.459200
    133    132    136     1   108.7700466 392.459200
    133    132    134     1   107.5800459 329.699200
    134    132    136     1   108.7700466 392.459200
    135    314    315     1   117.5500507 404.174400
    136    339    340     1   117.5500507 404.174400
    141    144    145     1   109.5600471 388.275200
    141    144    146     1   109.5600471 388.275200
    142    141    144     1   109.5600471 388.275200
    142    141    147     1   109.8800469 414.216000
    142    141    143     1   108.4600466 328.025600
    143    141    144     1   109.5600471 388.275200
    143    141    147     1   109.8800469 414.216000
    144    164    165     1   117.6800502 383.254400
    145    144    164     1   108.8800464 416.726400
    145    144    146     1   108.4600466 328.025600
    146    144    164     1   108.8800464 416.726400
    147    148    149     1   109.8800469 414.216000
    147    148    150     1   109.8800469 414.216000
    147    151    152     1   109.8800469 414.216000
    147    151    153     1   109.8800469 414.216000
    148    157    158     1   109.8000471 387.438400
    148    157    159     1   109.8000471 387.438400
    149    148    157     1   109.5600471 388.275200
    149    148    150     1   108.4600466 328.025600
    150    148    157     1   109.5600471 388.275200
    151    154    155     1   109.8000471 387.438400
    151    154    156     1   109.8000471 387.438400
    152    151    154     1   109.5600471 388.275200
    152    151    153     1   108.4600466 328.025600
    153    151    154     1   109.5600471 388.275200
    155    154    160     1   108.7700466 392.459200
    155    154    156     1   107.5800459 329.699200
    156    154    160     1   108.7700466 392.459200
    158    157    161     1   108.7700466 392.459200
    158    157    159     1   107.5800459 329.699200
    159    157    161     1   108.7700466 392.459200
    160    364    365     1   117.5500507 404.174400
    161    389    390     1   117.5500507 404.174400
    166    169    170     1   109.5600471 388.275200
    166    169    171     1   109.5600471 388.275200
    167    166    169     1   109.5600471 388.275200
    167    166    172     1   109.8800469 414.216000
    167    166    168     1   108.4600466 328.025600
    168    166    169     1   109.5600471 388.275200
    168    166    172     1   109.8800469 414.216000
    169    189    190     1   117.6800502 383.254400
    170    169    189     1   108.8800464 416.726400
    170    169    171     1   108.4600466 328.025600
    171    169    189     1   108.8800464 416.726400
    172    173    174     1   109.8800469 414.216000
    172    173    175     1   109.8800469 414.216000
    172    176    177     1   109.8800469 414.216000
    172    176    178     1   109.8800469 414.216000
    173    182    183     1   109.8000471 387.438400
    173    182    184     1   109.8000471 387.438400
    174    173    182     1   109.5600471 388.275200
    174    173    175     1   108.4600466 328.025600
    175    173    182     1   109.5600471 388.275200
    176    179    180     1   109.8000471 387.438400
    176    179    181     1   109.8000471 387.438400
    177    176    179     1   109.5600471 388.275200
    177    176    178     1   108.4600466 328.025600
    178    176    179     1   109.5600471 388.275200
    180    179    185     1   108.7700466 392.459200
    180    179    181     1   107.5800459 329.699200
    181    179    185     1   108.7700466 392.459200
    183    182    186     1   108.7700466 392.459200
    183    182    184     1   107.5800459 329.699200
    184    182    186     1   108.7700466 392.459200
    185    414    415     1   117.5500507 404.174400
    186    439    440     1   117.5500507 404.174400
    191    194    195     1   109.5600471 388.275200
    191    194    196     1   109.5600471 388.275200
    192    191    194     1   109.5600471 388.275200
    192    191    197     1   109.8800469 414.216000
    192    191    193     1   108.4600466 328.025600
    193    191    194     1   109.5600471 388.275200
    193    191    197     1   109.8800469 414.216000
    194    214    215     1   117.6800502 383.254400
    195    194    214     1   108.8800464 416.726400
    195    194    196     1   108.4600466 328.025600
    196    194    214     1   108.8800464 416.726400
    197    198    199     1   109.8800469 414.216000
    197    198    200     1   109.8800469 414.216000
    197    201    202     1   109.8800469 414.216000
    197    201    203     1   109.8800469 414.216000
    198    207    208     1   109.8000471 387.438400
    198    207    209     1   109.8000471 387.438400
    199    198    207     1   109.5600471 388.275200
    199    198    200     1   108.4600466 328.025600
    200    198    207     1   109.5600471 388.275200
    201    204    205     1   109.8000471 387.438400
    201    204    206     1   109.8000471 387.438400
    202    201    204     1   109.5600471 388.275200
    202    201    203     1   108.4600466 328.025600
    203    201    204     1   109.5600471 388.275200
    205    204    210     1   108.7700466 392.459200
    205    204    206     1   107.5800459 329.699200
    206    204    210     1   108.7700466 392.459200
    208    207    211     1   108.7700466 392.459200
    208    207    209     1   107.5800459 329.699200
    209    207    211     1   108.7700466 392.459200
    210    464    465     1   117.5500507 404.174400
    211    489    490     1   117.5500507 404.174400
    216    219    220     1   109.5600471 388.275200
    216    219    221     1   109.5600471 388.275200
    217    216    219     1   109.5600471 388.275200
    217    216    222     1   109.8800469 414.216000
    217    216    218     1   108.4600466 328.025600
    218    216    219     1   109.5600471 388.275200
    218    216    222     1   109.8800469 414.216000
    219    239    240     1   117.6800502 383.254400
    220    219    239     1   108.8800464 416.726400
    220    219    221     1   108.4600466 328.025600
    221    219    239     1   108.8800464 416.726400
    222    223    224     1   109.8800469 414.216000
    222    223    225     1   109.8800469 414.216000
    222    226    227     1   109.8800469 414.216000
    222    226    228     1   109.8800469 414.216000
    223    232    233     1   109.8000471 387.438400
    223    232    234     1   109.8000471 387.438400
    224    223    232     1   109.5600471 388.275200
    224    223    225     1   108.4600466 328.025600
    225    223    232     1   109.5600471 388.275200
    226    229    230     1   109.8000471 387.438400
    226    229    231     1   109.8000471 387.438400
    227    226    229     1   109.5600471 388.275200
    227    226    228     1   108.4600466 328.025600
    228    226    229     1   109.5600471 388.275200
    230    229    235     1   108.7700466 392.459200
    230    229    231     1   107.5800459 329.699200
    231    229    235     1   108.7700466 392.459200
    233    232    236     1   108.7700466 392.459200
    233    232    234     1   107.5800459 329.699200
    234    232    236     1   108.7700466 392.459200
    235    514    515     1   117.5500507 404.174400
    236    539    540     1   117.5500507 404.174400
    241    244    245     1   109.5600471 388.275200
    241    244    246     1   109.5600471 388.275200
    242    241    244     1   109.5600471 388.275200
    242    241    247     1   109.8800469 414.216000
    242    241    243     1   108.4600466 328.025600
    243    241    244     1   109.5600471 388.275200
    243    241    247     1   109.8800469 414.216000
    244    264    265     1   117.6800502 383.254400
    245    244    264     1   108.8800464 416.726400
    245    244    246     1   108.4600466 328.025600
    246    244    264     1   108.8800464 416.726400
    247    248    249     1   109.8800469 414.216000
    247    248    250     1   109.8800469 414.216000
    247    251    252     1   109.8800469 414.216000
    247    251    253     1   109.8800469 414.216000
    248    257    258     1   109.8000471 387.438400
    248    257    259     1   109.8000471 387.438400
    249    248    257     1   109.5600471 388.275200
    249    248    250     1   108.4600466 328.025600
    250    248    257     1   109.5600471 388.275200
    251    254    255     1   109.8000471 387.438400
    251    254    256     1   109.8000471 387.438400
    252    251    254     1   109.5600471 388.275200
    252    251    253     1   108.4600466 328.025600
    253    251    254     1   109.5600471 388.275200
    255    254    260     1   108.7700466 392.459200
    255    254    256     1   107.5800459 329.699200
    256    254    260     1   108.7700466 392.459200
    258    257    261     1   108.7700466 392.459200
    258    257    259     1   107.5800459 329.699200
    259    257    261     1   108.7700466 392.459200
    260    564    565     1   117.5500507 404.174400
    261    589    590     1   117.5500507 404.174400
    266    269    270     1   109.5600471 388.275200
    266    269    271     1   109.5600471 388.275200
    267    266    269     1   109.5600471 388.275200
    267    266    272     1   109.8800469 414.216000
    267    266    268     1   108.4600466 328.025600
    268    266    269     1   109.5600471 388.275200
    268    266    272     1   109.8800469 414.216000
    269    289    290     1   117.6800502 383.254400
    270    269    289     1   108.8800464 416.726400
    270    269    271     1   108.4600466 328.025600
    271    269    289     1   108.8800464 416.726400
    272    273    274     1   109.8800469 414.216000
    272    273    275     1   109.8800469 414.216000
    272    276    277     1   109.8800469 414.216000
    272    276    278     1   109.8800469 414.216000
    273    282    283     1   109.8000471 387.438400
    273    282    284     1   109.8000471 387.438400
    274    273    282     1   109.5600471 388.275200
    274    273    275     1   108.4600466 328.025600
    275    273    282     1   109.5600471 388.275200
    276    279    280     1   109.8000471 387.438400
    276    279    281     1   109.8000471 387.438400
    277    276    279     1   109.5600471 388.275200
    277    276    278     1   108.4600466 328.025600
    278    276    279     1   109.5600471 388.275200
    280    279    285     1   108.7700466 392.459200
    280    279    281     1   107.5800459 329.699200
    281    279    285     1   108.7700466 392.459200
    283    282    286     1   108.7700466 392.459200
    283    282    284     1   107.5800459 329.699200
    284    282    286     1   108.7700466 392.459200
    285    614    615     1   117.5500507 404.174400
    286    639    640     1   117.5500507 404.174400
    291    294    295     1   109.5600471 388.275200
    291    294    296     1   109.5600471 388.275200
    292    291    294     1   109.5600471 388.275200
    292    291    297     1   109.8800469 414.216000
    292    291    293     1   108.4600466 328.025600
    293    291    294     1   109.5600471 388.275200
    293    291    297     1   109.8800469 414.216000
    294    314    315     1   117.6800502 383.254400
    295    294    314     1   108.8800464 416.726400
    295    294    296     1   108.4600466 328.025600
    296    294    314     1   108.8800464 416.726400
    297    298    299     1   109.8800469 414.216000
    297    298    300     1   109.8800469 414.216000
    297    301    302     1   109.8800469 414.216000
    297    301    303     1   109.8800469 414.216000
    298    307    308     1   109.8000471 387.438400
    298    307    309     1   109.8000471 387.438400
    299    298    307     1   109.5600471 388.275200
    299    298    300     1   108.4600466 328.025600
    300    298    307     1   109.5600471 388.275200
    301    304    305     1   109.8000471 387.438400
    301    304    306     1   109.8000471 387.438400
    302    301    304     1   109.5600471 388.275200
    302    301    303     1   108.4600466 328.025600
    303    301    304     1   109.5600471 388.275200
    305    304    310     1   108.7700466 392.459200
    305    304    306     1   107.5800459 329.699200
    306    304    310     1   108.7700466 392.459200
    308    307    311     1   108.7700466 392.459200
    308    307    309     1   107.5800459 329.699200
    309    307    311     1   108.7700466 392.459200
    310    664    665     1   117.5500507 404.174400
    311    689    690     1   117.5500507 404.174400
    316    319    320     1   109.5600471 388.275200
    316    319    321     1   109.5600471 388.275200
    317    316    319     1   109.5600471 388.275200
    317    316    322     1   109.8800469 414.216000
    317    316    318     1   108.4600466 328.025600
    318    316    319     1   109.5600471 388.275200
    318    316    322     1   109.8800469 414.216000
    319    339    340     1   117.6800502 383.254400
    320    319    339     1   108.8800464 416.726400
    320    319    321     1   108.4600466 328.025600
    321    319    339     1   108.8800464 416.726400
    322    323    324     1   109.8800469 414.216000
    322    323    325     1   109.8800469 414.216000
    322    326    327     1   109.8800469 414.216000
    322    326    328     1   109.8800469 414.216000
    323    332    333     1   109.8000471 387.438400
    323    332    334     1   109.8000471 387.438400
    324    323    332     1   109.5600471 388.275200
    324    323    325     1   108.4600466 328.025600
    325    323    332     1   109.5600471 388.275200
    326    329    330     1   109.8000471 387.438400
    326    329    331     1   109.8000471 387.438400
    327    326    329     1   109.5600471 388.275200
    327    326    328     1   108.4600466 328.025600
    328    326    329     1   109.5600471 388.275200
    330    329    335     1   108.7700466 392.459200
    330    329    331     1   107.5800459 329.699200
    331    329    335     1   108.7700466 392.459200
    333    332    336     1   108.7700466 392.459200
    333    332    334     1   107.5800459 329.699200
    334    332    336     1   108.7700466 392.459200
    335    714    715     1   117.5500507 404.174400
    336    739    740     1   117.5500507 404.174400
    341    344    345     1   109.5600471 388.275200
    341    344    346     1   109.5600471 388.275200
    342    341    344     1   109.5600471 388.275200
    342    341    347     1   109.8800469 414.216000
    342    341    343     1   108.4600466 328.025600
    343    341    344     1   109.5600471 388.275200
    343    341    347     1   109.8800469 414.216000
    344    364    365     1   117.6800502 383.254400
    345    344    364     1   108.8800464 416.726400
    345    344    346     1   108.4600466 328.025600
    346    344    364     1   108.8800464 416.726400
    347    348    349     1   109.8800469 414.216000
    347    348    350     1   109.8800469 414.216000
    347    351    352     1   109.8800469 414.216000
    347    351    353     1   109.8800469 414.216000
    348    357    358     1   109.8000471 387.438400
    348    357    359     1   109.8000471 387.438400
    349    348    357     1   109.5600471 388.275200
    349    348    350     1   108.4600466 328.025600
    350    348    357     1   109.5600471 388.275200
    351    354    355     1   109.8000471 387.438400
    351    354    356     1   109.8000471 387.438400
    352    351    354     1   109.5600471 388.275200
    352    351    353     1   108.4600466 328.025600
    353    351    354     1   109.5600471 388.275200
    355    354    360     1   108.7700466 392.459200
    355    354    356     1   107.5800459 329.699200
    356    354    360     1   108.7700466 392.459200
    358    357    361     1   108.7700466 392.459200
    358    357    359     1   107.5800459 329.699200
    359    357    361     1   108.7700466 392.459200
    360    764    765     1   117.5500507 404.174400
    361    789    790     1   117.5500507 404.174400
    366    369    370     1   109.5600471 388.275200
    366    369    371     1   109.5600471 388.275200
    367    366    369     1   109.5600471 388.275200
    367    366    372     1   109.8800469 414.216000
    367    366    368     1   108.4600466 328.025600
    368    366    369     1   109.5600471 388.275200
    368    366    372     1   109.8800469 414.216000
    369    389    390     1   117.6800502 383.254400
    370    369    389     1   108.8800464 416.726400
    370    369    371     1   108.4600466 328.025600
    371    369    389     1   108.8800464 416.726400
    372    373    374     1   109.8800469 414.216000
    372    373    375     1   109.8800469 414.216000
    372    376    377     1   109.8800469 414.216000
    372    376    378     1   109.8800469 414.216000
    373    382    383     1   109.8000471 387.438400
    373    382    384     1   109.8000471 387.438400
    374    373    382     1   109.5600471 388.275200
    374    373    375     1   108.4600466 328.025600
    375    373    382     1   109.5600471 388.275200
    376    379    380     1   109.8000471 387.438400
    376    379    381     1   109.8000471 387.438400
    377    376    379     1   109.5600471 388.275200
    377    376    378     1   108.4600466 328.025600
    378    376    379     1   109.5600471 388.275200
    380    379    385     1   108.7700466 392.459200
    380    379    381     1   107.5800459 329.699200
    381    379    385     1   108.7700466 392.459200
    383    382    386     1   108.7700466 392.459200
    383    382    384     1   107.5800459 329.699200
    384    382    386     1   108.7700466 392.459200
    385    814    815     1   117.5500507 404.174400
    386    839    840     1   117.5500507 404.174400
    391    394    395     1   109.5600471 388.275200
    391    394    396     1   109.5600471 388.275200
    392    391    394     1   109.5600471 388.275200
    392    391    397     1   109.8800469 414.216000
    392    391    393     1   108.4600466 328.025600
    393    391    394     1   109.5600471 388.275200
    393    391    397     1   109.8800469 414.216000
    394    414    415     1   117.6800502 383.254400
    395    394    414     1   108.8800464 416.726400
    395    394    396     1   108.4600466 328.025600
    396    394    414     1   108.8800464 416.726400
    397    398    399     1   109.8800469 414.216000
    397    398    400     1   109.8800469 414.216000
    397    401    402     1   109.8800469 414.216000
    397    401    403     1   109.8800469 414.216000
    398    407    408     1   109.8000471 387.438400
    398    407    409     1   109.8000471 387.438400
    399    398    407     1   109.5600471 388.275200
    399    398    400     1   108.4600466 328.025600
    400    398    407     1   109.5600471 388.275200
    401    404    405     1   109.8000471 387.438400
    401    404    406     1   109.8000471 387.438400
    402    401    404     1   109.5600471 388.275200
    402    401    403     1   108.4600466 328.025600
    403    401    404     1   109.5600471 388.275200
    405    404    410     1   108.7700466 392.459200
    405    404    406     1   107.5800459 329.699200
    406    404    410     1   108.7700466 392.459200
    408    407    411     1   108.7700466 392.459200
    408    407    409     1   107.5800459 329.699200
    409    407    411     1   108.7700466 392.459200
    410    864    865     1   117.5500507 404.174400
    411    889    890     1   117.5500507 404.174400
    416    419    420     1   109.5600471 388.275200
    416    419    421     1   109.5600471 388.275200
    417    416    419     1   109.5600471 388.275200
    417    416    422     1   109.8800469 414.216000
    417    416    418     1   108.4600466 328.025600
    418    416    419     1   109.5600471 388.275200
    418    416    422     1   109.8800469 414.216000
    419    439    440     1   117.6800502 383.254400
    420    419    439     1   108.8800464 416.726400
    420    419    421     1   108.4600466 328.025600
    421    419    439     1   108.8800464 416.726400
    422    423    424     1   109.8800469 414.216000
    422    423    425     1   109.8800469 414.216000
    422    426    427     1   109.8800469 414.216000
    422    426    428     1   109.8800469 414.216000
    423    432    433     1   109.8000471 387.438400
    423    432    434     1   109.8000471 387.438400
    424    423    432     1   109.5600471 388.275200
    424    423    425     1   108.4600466 328.025600
    425    423    432     1   109.5600471 388.275200
    426    429    430     1   109.8000471 387.438400
    426    429    431     1   109.8000471 387.438400
    427    426    429     1   109.5600471 388.275200
    427    426    428     1   108.4600466 328.025600
    428    426    429     1   109.5600471 388.275200
    430    429    435     1   108.7700466 392.459200
    430    429    431     1   107.5800459 329.699200
    431    429    435     1   108.7700466 392.459200
    433    432    436     1   108.7700466 392.459200
    433    432    434     1   107.5800459 329.699200
    434    432    436     1   108.7700466 392.459200
    435    914    915     1   117.5500507 404.174400
    436    939    940     1   117.5500507 404.174400
    441    444    445     1   109.5600471 388.275200
    441    444    446     1   109.5600471 388.275200
    442    441    444     1   109.5600471 388.275200
    442    441    447     1   109.8800469 414.216000
    442    441    443     1   108.4600466 328.025600
    443    441    444     1   109.5600471 388.275200
    443    441    447     1   109.8800469 414.216000
    444    464    465     1   117.6800502 383.254400
    445    444    464     1   108.8800464 416.726400
    445    444    446     1   108.4600466 328.025600
    446    444    464     1   108.8800464 416.726400
    447    448    449     1   109.8800469 414.216000
    447    448    450     1   109.8800469 414.216000
    447    451    452     1   109.8800469 414.216000
    447    451    453     1   109.8800469 414.216000
    448    457    458     1   109.8000471 387.438400
    448    457    459     1   109.8000471 387.438400
    449    448    457     1   109.5600471 388.275200
    449    448    450     1   108.4600466 328.025600
    450    448    457     1   109.5600471 388.275200
    451    454    455     1   109.8000471 387.438400
    451    454    456     1   109.8000471 387.438400
    452    451    454     1   109.5600471 388.275200
    452    451    453     1   108.4600466 328.025600
    453    451    454     1   109.5600471 388.275200
    455    454    460     1   108.7700466 392.459200
    455    454    456     1   107.5800459 329.699200
    456    454    460     1   108.7700466 392.459200
    458    457    461     1   108.7700466 392.459200
    458    457    459     1   107.5800459 329.699200
    459    457    461     1   108.7700466 392.459200
    460    964    965     1   117.5500507 404.174400
    461    989    990     1   117.5500507 404.174400
    466    469    470     1   109.5600471 388.275200
    466    469    471     1   109.5600471 388.275200
    467    466    469     1   109.5600471 388.275200
    467    466    472     1   109.8800469 414.216000
    467    466    468     1   108.4600466 328.025600
    468    466    469     1   109.5600471 388.275200
    468    466    472     1   109.8800469 414.216000
    469    489    490     1   117.6800502 383.254400
    470    469    489     1   108.8800464 416.726400
    470    469    471     1   108.4600466 328.025600
    471    469    489     1   108.8800464 416.726400
    472    473    474     1   109.8800469 414.216000
    472    473    475     1   109.8800469 414.216000
    472    476    477     1   109.8800469 414.216000
    472    476    478     1   109.8800469 414.216000
    473    482    483     1   109.8000471 387.438400
    473    482    484     1   109.8000471 387.438400
    474    473    482     1   109.5600471 388.275200
    474    473    475     1   108.4600466 328.025600
    475    473    482     1   109.5600471 388.275200
    476    479    480     1   109.8000471 387.438400
    476    479    481     1   109.8000471 387.438400
    477    476    479     1   109.5600471 388.275200
    477    476    478     1   108.4600466 328.025600
    478    476    479     1   109.5600471 388.275200
    480    479    485     1   108.7700466 392.459200
    480    479    481     1   107.5800459 329.699200
    481    479    485     1   108.7700466 392.459200
    483    482    486     1   108.7700466 392.459200
    483    482    484     1   107.5800459 329.699200
    484    482    486     1   108.7700466 392.459200
    485   1014   1015     1   117.5500507 404.174400
    486   1039   1040     1   117.5500507 404.174400
    491    494    495     1   109.5600471 388.275200
    491    494    496     1   109.5600471 388.275200
    492    491    494     1   109.5600471 388.275200
    492    491    497     1   109.8800469 414.216000
    492    491    493     1   108.4600466 328.025600
    493    491    494     1   109.5600471 388.275200
    493    491    497     1   109.8800469 414.216000
    494    514    515     1   117.6800502 383.254400
    495    494    514     1   108.8800464 416.726400
    495    494    496     1   108.4600466 328.025600
    496    494    514     1   108.8800464 416.726400
    497    498    499     1   109.8800469 414.216000
    497    498    500     1   109.8800469 414.216000
    497    501    502     1   109.8800469 414.216000
    497    501    503     1   109.8800469 414.216000
    498    507    508     1   109.8000471 387.438400
    498    507    509     1   109.8000471 387.438400
    499    498    507     1   109.5600471 388.275200
    499    498    500     1   108.4600466 328.025600
    500    498    507     1   109.5600471 388.275200
    501    504    505     1   109.8000471 387.438400
    501    504    506     1   109.8000471 387.438400
    502    501    504     1   109.5600471 388.275200
    502    501    503     1   108.4600466 328.025600
    503    501    504     1   109.5600471 388.275200
    505    504    510     1   108.7700466 392.459200
    505    504    506     1   107.5800459 329.699200
    506    504    510     1   108.7700466 392.459200
    508    507    511     1   108.7700466 392.459200
    508    507    509     1   107.5800459 329.699200
    509    507    511     1   108.7700466 392.459200
    510   1064   1065     1   117.5500507 404.174400
    511   1089   1090     1   117.5500507 404.174400
    516    519    520     1   109.5600471 388.275200
    516    519    521     1   109.5600471 388.275200
    517    516    519     1   109.5600471 388.275200
    517    516    522     1   109.8800469 414.216000
    517    516    518     1   108.4600466 328.025600
    518    516    519     1   109.5600471 388.275200
    518    516    522     1   109.8800469 414.216000
    519    539    540     1   117.6800502 383.254400
    520    519    539     1   108.8800464 416.726400
    520    519    521     1   108.4600466 328.025600
    521    519    539     1   108.8800464 416.726400
    522    523    524     1   109.8800469 414.216000
    522    523    525     1   109.8800469 414.216000
    522    526    527     1   109.8800469 414.216000
    522    526    528     1   109.8800469 414.216000
    523    532    533     1   109.8000471 387.438400
    523    532    534     1   109.8000471 387.438400
    524    523    532     1   109.5600471 388.275200
    524    523    525     1   108.4600466 328.025600
    525    523    532     1   109.5600471 388.275200
    526    529    530     1   109.8000471 387.438400
    526    529    531     1   109.8000471 387.438400
    527    526    529     1   109.5600471 388.275200
    527    526    528     1   108.4600466 328.025600
    528    526    529     1   109.5600471 388.275200
    530    529    535     1   108.7700466 392.459200
    530    529    531     1   107.5800459 329.699200
    531    529    535     1   108.7700466 392.459200
    533    532    536     1   108.7700466 392.459200
    533    532    534     1   107.5800459 329.699200
    534    532    536     1   108.7700466 392.459200
    535   1114   1115     1   117.5500507 404.174400
    536   1139   1140     1   117.5500507 404.174400
    541    544    545     1   109.5600471 388.275200
    541    544    546     1   109.5600471 388.275200
    542    541    544     1   109.5600471 388.275200
    542    541    547     1   109.8800469 414.216000
    542    541    543     1   108.4600466 328.025600
    543    541    544     1   109.5600471 388.275200
    543    541    547     1   109.8800469 414.216000
    544    564    565     1   117.6800502 383.254400
    545    544    564     1   108.8800464 416.726400
    545    544    546     1   108.4600466 328.025600
    546    544    564     1   108.8800464 416.726400
    547    548    549     1   109.8800469 414.216000
    547    548    550     1   109.8800469 414.216000
    547    551    552     1   109.8800469 414.216000
    547    551    553     1   109.8800469 414.216000
    548    557    558     1   109.8000471 387.438400
    548    557    559     1   109.8000471 387.438400
    549    548    557     1   109.5600471 388.275200
    549    548    550     1   108.4600466 328.025600
    550    548    557     1   109.5600471 388.275200
    551    554    555     1   109.8000471 387.438400
    551    554    556     1   109.8000471 387.438400
    552    551    554     1   109.5600471 388.275200
    552    551    553     1   108.4600466 328.025600
    553    551    554     1   109.5600471 388.275200
    555    554    560     1   108.7700466 392.459200
    555    554    556     1   107.5800459 329.699200
    556    554    560     1   108.7700466 392.459200
    558    557    561     1   108.7700466 392.459200
    558    557    559     1   107.5800459 329.699200
    559    557    561     1   108.7700466 392.459200
    560   1164   1165     1   117.5500507 404.174400
    561   1189   1190     1   117.5500507 404.174400
    566    569    570     1   109.5600471 388.275200
    566    569    571     1   109.5600471 388.275200
    567    566    569     1   109.5600471 388.275200
    567    566    572     1   109.8800469 414.216000
    567    566    568     1   108.4600466 328.025600
    568    566    569     1   109.5600471 388.275200
    568    566    572     1   109.8800469 414.216000
    569    589    590     1   117.6800502 383.254400
    570    569    589     1   108.8800464 416.726400
    570    569    571     1   108.4600466 328.025600
    571    569    589     1   108.8800464 416.726400
    572    573    574     1   109.8800469 414.216000
    572    573    575     1   109.8800469 414.216000
    572    576    577     1   109.8800469 414.216000
    572    576    578     1   109.8800469 414.216000
    573    582    583     1   109.8000471 387.438400
    573    582    584     1   109.8000471 387.438400
    574    573    582     1   109.5600471 388.275200
    574    573    575     1   108.4600466 328.025600
    575    573    582     1   109.5600471 388.275200
    576    579    580     1   109.8000471 387.438400
    576    579    581     1   109.8000471 387.438400
    577    576    579     1   109.5600471 388.275200
    577    576    578     1   108.4600466 328.025600
    578    576    579     1   109.5600471 388.275200
    580    579    585     1   108.7700466 392.459200
    580    579    581     1   107.5800459 329.699200
    581    579    585     1   108.7700466 392.459200
    583    582    586     1   108.7700466 392.459200
    583    582    584     1   107.5800459 329.699200
    584    582    586     1   108.7700466 392.459200
    585   1214   1215     1   117.5500507 404.174400
    586   1239   1240     1   117.5500507 404.174400
    591    594    595     1   109.5600471 388.275200
    591    594    596     1   109.5600471 388.275200
    592    591    594     1   109.5600471 388.275200
    592    591    597     1   109.8800469 414.216000
    592    591    593     1   108.4600466 328.025600
    593    591    594     1   109.5600471 388.275200
    593    591    597     1   109.8800469 414.216000
    594    614    615     1   117.6800502 383.254400
    595    594    614     1   108.8800464 416.726400
    595    594    596     1   108.4600466 328.025600
    596    594    614     1   108.8800464 416.726400
    597    598    599     1   109.8800469 414.216000
    597    598    600     1   109.8800469 414.216000
    597    601    602     1   109.8800469 414.216000
    597    601    603     1   109.8800469 414.216000
    598    607    608     1   109.8000471 387.438400
    598    607    609     1   109.8000471 387.438400
    599    598    607     1   109.5600471 388.275200
    599    598    600     1   108.4600466 328.025600
    600    598    607     1   109.5600471 388.275200
    601    604    605     1   109.8000471 387.438400
    601    604    606     1   109.8000471 387.438400
    602    601    604     1   109.5600471 388.275200
    602    601    603     1   108.4600466 328.025600
    603    601    604     1   109.5600471 388.275200
    605    604    610     1   108.7700466 392.459200
    605    604    606     1   107.5800459 329.699200
    606    604    610     1   108.7700466 392.459200
    608    607    611     1   108.7700466 392.459200
    608    607    609     1   107.5800459 329.699200
    609    607    611     1   108.7700466 392.459200
    610   1264   1265     1   117.5500507 404.174400
    611   1289   1290     1   117.5500507 404.174400
    616    619    620     1   109.5600471 388.275200
    616    619    621     1   109.5600471 388.275200
    617    616    619     1   109.5600471 388.275200
    617    616    622     1   109.8800469 414.216000
    617    616    618     1   108.4600466 328.025600
    618    616    619     1   109.5600471 388.275200
    618    616    622     1   109.8800469 414.216000
    619    639    640     1   117.6800502 383.254400
    620    619    639     1   108.8800464 416.726400
    620    619    621     1   108.4600466 328.025600
    621    619    639     1   108.8800464 416.726400
    622    623    624     1   109.8800469 414.216000
    622    623    625     1   109.8800469 414.216000
    622    626    627     1   109.8800469 414.216000
    622    626    628     1   109.8800469 414.216000
    623    632    633     1   109.8000471 387.438400
    623    632    634     1   109.8000471 387.438400
    624    623    632     1   109.5600471 388.275200
    624    623    625     1   108.4600466 328.025600
    625    623    632     1   109.5600471 388.275200
    626    629    630     1   109.8000471 387.438400
    626    629    631     1   109.8000471 387.438400
    627    626    629     1   109.5600471 388.275200
    627    626    628     1   108.4600466 328.025600
    628    626    629     1   109.5600471 388.275200
    630    629    635     1   108.7700466 392.459200
    630    629    631     1   107.5800459 329.699200
    631    629    635     1   108.7700466 392.459200
    633    632    636     1   108.7700466 392.459200
    633    632    634     1   107.5800459 329.699200
    634    632    636     1   108.7700466 392.459200
    635   1314   1315     1   117.5500507 404.174400
    636   1339   1340     1   117.5500507 404.174400
    641    644    645     1   109.5600471 388.275200
    641    644    646     1   109.5600471 388.275200
    642    641    644     1   109.5600471 388.275200
    642    641    647     1   109.8800469 414.216000
    642    641    643     1   108.4600466 328.025600
    643    641    644     1   109.5600471 388.275200
    643    641    647     1   109.8800469 414.216000
    644    664    665     1   117.6800502 383.254400
    645    644    664     1   108.8800464 416.726400
    645    644    646     1   108.4600466 328.025600
    646    644    664     1   108.8800464 416.726400
    647    648    649     1   109.8800469 414.216000
    647    648    650     1   109.8800469 414.216000
    647    651    652     1   109.8800469 414.216000
    647    651    653     1   109.8800469 414.216000
    648    657    658     1   109.8000471 387.438400
    648    657    659     1   109.8000471 387.438400
    649    648    657     1   109.5600471 388.275200
    649    648    650     1   108.4600466 328.025600
    650    648    657     1   109.5600471 388.275200
    651    654    655     1   109.8000471 387.438400
    651    654    656     1   109.8000471 387.438400
    652    651    654     1   109.5600471 388.275200
    652    651    653     1   108.4600466 328.025600
    653    651    654     1   109.5600471 388.275200
    655    654    660     1   108.7700466 392.459200
    655    654    656     1   107.5800459 329.699200
    656    654    660     1   108.7700466 392.459200
    658    657    661     1   108.7700466 392.459200
    658    657    659     1   107.5800459 329.699200
    659    657    661     1   108.7700466 392.459200
    660   1364   1365     1   117.5500507 404.174400
    661   1389   1390     1   117.5500507 404.174400
    666    669    670     1   109.5600471 388.275200
    666    669    671     1   109.5600471 388.275200
    667    666    669     1   109.5600471 388.275200
    667    666    672     1   109.8800469 414.216000
    667    666    668     1   108.4600466 328.025600
    668    666    669     1   109.5600471 388.275200
    668    666    672     1   109.8800469 414.216000
    669    689    690     1   117.6800502 383.254400
    670    669    689     1   108.8800464 416.726400
    670    669    671     1   108.4600466 328.025600
    671    669    689     1   108.8800464 416.726400
    672    673    674     1   109.8800469 414.216000
    672    673    675     1   109.8800469 414.216000
    672    676    677     1   109.8800469 414.216000
    672    676    678     1   109.8800469 414.216000
    673    682    683     1   109.8000471 387.438400
    673    682    684     1   109.8000471 387.438400
    674    673    682     1   109.5600471 388.275200
    674    673    675     1   108.4600466 328.025600
    675    673    682     1   109.5600471 388.275200
    676    679    680     1   109.8000471 387.438400
    676    679    681     1   109.8000471 387.438400
    677    676    679     1   109.5600471 388.275200
    677    676    678     1   108.4600466 328.025600
    678    676    679     1   109.5600471 388.275200
    680    679    685     1   108.7700466 392.459200
    680    679    681     1   107.5800459 329.699200
    681    679    685     1   108.7700466 392.459200
    683    682    686     1   108.7700466 392.459200
    683    682    684     1   107.5800459 329.699200
    684    682    686     1   108.7700466 392.459200
    685   1414   1415     1   117.5500507 404.174400
    686   1439   1440     1   117.5500507 404.174400
    691    694    695     1   109.5600471 388.275200
    691    694    696     1   109.5600471 388.275200
    692    691    694     1   109.5600471 388.275200
    692    691    697     1   109.8800469 414.216000
    692    691    693     1   108.4600466 328.025600
    693    691    694     1   109.5600471 388.275200
    693    691    697     1   109.8800469 414.216000
    694    714    715     1   117.6800502 383.254400
    695    694    714     1   108.8800464 416.726400
    695    694    696     1   108.4600466 328.025600
    696    694    714     1   108.8800464 416.726400
    697    698    699     1   109.8800469 414.216000
    697    698    700     1   109.8800469 414.216000
    697    701    702     1   109.8800469 414.216000
    697    701    703     1   109.8800469 414.216000
    698    707    708     1   109.8000471 387.438400
    698    707    709     1   109.8000471 387.438400
    699    698    707     1   109.5600471 388.275200
    699    698    700     1   108.4600466 328.025600
    700    698    707     1   109.5600471 388.275200
    701    704    705     1   109.8000471 387.438400
    701    704    706     1   109.8000471 387.438400
    702    701    704     1   109.5600471 388.275200
    702    701    703     1   108.4600466 328.025600
    703    701    704     1   109.5600471 388.275200
    705    704    710     1   108.7700466 392.459200
    705    704    706     1   107.5800459 329.699200
    706    704    710     1   108.7700466 392.459200
    708    707    711     1   108.7700466 392.459200
    708    707    709     1   107.5800459 329.699200
    709    707    711     1   108.7700466 392.459200
    710   1464   1465     1   117.5500507 404.174400
    711   1489   1490     1   117.5500507 404.174400
    716    719    720     1   109.5600471 388.275200
    716    719    721     1   109.5600471 388.275200
    717    716    719     1   109.5600471 388.275200
    717    716    722     1   109.8800469 414.216000
    717    716    718     1   108.4600466 328.025600
    718    716    719     1   109.5600471 388.275200
    718    716    722     1   109.8800469 414.216000
    719    739    740     1   117.6800502 383.254400
    720    719    739     1   108.8800464 416.726400
    720    719    721     1   108.4600466 328.025600
    721    719    739     1   108.8800464 416.726400
    722    723    724     1   109.8800469 414.216000
    722    723    725     1   109.8800469 414.216000
    722    726    727     1   109.8800469 414.216000
    722    726    728     1   109.8800469 414.216000
    723    732    733     1   109.8000471 387.438400
    723    732    734     1   109.8000471 387.438400
    724    723    732     1   109.5600471 388.275200
    724    723    725     1   108.4600466 328.025600
    725    723    732     1   109.5600471 388.275200
    726    729    730     1   109.8000471 387.438400
    726    729    731     1   109.8000471 387.438400
    727    726    729     1   109.5600471 388.275200
    727    726    728     1   108.4600466 328.025600
    728    726    729     1   109.5600471 388.275200
    730    729    735     1   108.7700466 392.459200
    730    729    731     1   107.5800459 329.699200
    731    729    735     1   108.7700466 392.459200
    733    732    736     1   108.7700466 392.459200
    733    732    734     1   107.5800459 329.699200
    734    732    736     1   108.7700466 392.459200
    735   1514   1515     1   117.5500507 404.174400
    736   1539   1540     1   117.5500507 404.174400
    741    744    745     1   109.5600471 388.275200
    741    744    746     1   109.5600471 388.275200
    742    741    744     1   109.5600471 388.275200
    742    741    747     1   109.8800469 414.216000
    742    741    743     1   108.4600466 328.025600
    743    741    744     1   109.5600471 388.275200
    743    741    747     1   109.8800469 414.216000
    744    764    765     1   117.6800502 383.254400
    745    744    764     1   108.8800464 416.726400
    745    744    746     1   108.4600466 328.025600
    746    744    764     1   108.8800464 416.726400
    747    748    749     1   109.8800469 414.216000
    747    748    750     1   109.8800469 414.216000
    747    751    752     1   109.8800469 414.216000
    747    751    753     1   109.8800469 414.216000
    748    757    758     1   109.8000471 387.438400
    748    757    759     1   109.8000471 387.438400
    749    748    757     1   109.5600471 388.275200
    749    748    750     1   108.4600466 328.025600
    750    748    757     1   109.5600471 388.275200
    751    754    755     1   109.8000471 387.438400
    751    754    756     1   109.8000471 387.438400
    752    751    754     1   109.5600471 388.275200
    752    751    753     1   108.4600466 328.025600
    753    751    754     1   109.5600471 388.275200
    755    754    760     1   108.7700466 392.459200
    755    754    756     1   107.5800459 329.699200
    756    754    760     1   108.7700466 392.459200
    758    757    761     1   108.7700466 392.459200
    758    757    759     1   107.5800459 329.699200
    759    757    761     1   108.7700466 392.459200
    760   1564   1565     1   117.5500507 404.174400
    761   1589   1590     1   117.5500507 404.174400
    766    769    770     1   109.5600471 388.275200
    766    769    771     1   109.5600471 388.275200
    767    766    769     1   109.5600471 388.275200
    767    766    772     1   109.8800469 414.216000
    767    766    768     1   108.4600466 328.025600
    768    766    769     1   109.5600471 388.275200
    768    766    772     1   109.8800469 414.216000
    769    789    790     1   117.6800502 383.254400
    770    769    789     1   108.8800464 416.726400
    770    769    771     1   108.4600466 328.025600
    771    769    789     1   108.8800464 416.726400
    772    773    774     1   109.8800469 414.216000
    772    773    775     1   109.8800469 414.216000
    772    776    777     1   109.8800469 414.216000
    772    776    778     1   109.8800469 414.216000
    773    782    783     1   109.8000471 387.438400
    773    782    784     1   109.8000471 387.438400
    774    773    782     1   109.5600471 388.275200
    774    773    775     1   108.4600466 328.025600
    775    773    782     1   109.5600471 388.275200
    776    779    780     1   109.8000471 387.438400
    776    779    781     1   109.8000471 387.438400
    777    776    779     1   109.5600471 388.275200
    777    776    778     1   108.4600466 328.025600
    778    776    779     1   109.5600471 388.275200
    780    779    785     1   108.7700466 392.459200
    780    779    781     1   107.5800459 329.699200
    781    779    785     1   108.7700466 392.459200
    783    782    786     1   108.7700466 392.459200
    783    782    784     1   107.5800459 329.699200
    784    782    786     1   108.7700466 392.459200
    785   1614   1615     1   117.5500507 404.174400
    786   1639   1640     1   117.5500507 404.174400
    791    794    795     1   109.5600471 388.275200
    791    794    796     1   109.5600471 388.275200
    792    791    794     1   109.5600471 388.275200
    792    791    797     1   109.8800469 414.216000
    792    791    793     1   108.4600466 328.025600
    793    791    794     1   109.5600471 388.275200
    793    791    797     1   109.8800469 414.216000
    794    814    815     1   117.6800502 383.254400
    795    794    814     1   108.8800464 416.726400
    795    794    796     1   108.4600466 328.025600
    796    794    814     1   108.8800464 416.726400
    797    798    799     1   109.8800469 414.216000
    797    798    800     1   109.8800469 414.216000
    797    801    802     1   109.8800469 414.216000
    797    801    803     1   109.8800469 414.216000
    798    807    808     1   109.8000471 387.438400
    798    807    809     1   109.8000471 387.438400
    799    798    807     1   109.5600471 388.275200
    799    798    800     1   108.4600466 328.025600
    800    798    807     1   109.5600471 388.275200
    801    804    805     1   109.8000471 387.438400
    801    804    806     1   109.8000471 387.438400
    802    801    804     1   109.5600471 388.275200
    802    801    803     1   108.4600466 328.025600
    803    801    804     1   109.5600471 388.275200
    805    804    810     1   108.7700466 392.459200
    805    804    806     1   107.5800459 329.699200
    806    804    810     1   108.7700466 392.459200
    808    807    811     1   108.7700466 392.459200
    808    807    809     1   107.5800459 329.699200
    809    807    811     1   108.7700466 392.459200
    810   1664   1665     1   117.5500507 404.174400
    811   1689   1690     1   117.5500507 404.174400
    816    819    820     1   109.5600471 388.275200
    816    819    821     1   109.5600471 388.275200
    817    816    819     1   109.5600471 388.275200
    817    816    822     1   109.8800469 414.216000
    817    816    818     1   108.4600466 328.025600
    818    816    819     1   109.5600471 388.275200
    818    816    822     1   109.8800469 414.216000
    819    839    840     1   117.6800502 383.254400
    820    819    839     1   108.8800464 416.726400
    820    819    821     1   108.4600466 328.025600
    821    819    839     1   108.8800464 416.726400
    822    823    824     1   109.8800469 414.216000
    822    823    825     1   109.8800469 414.216000
    822    826    827     1   109.8800469 414.216000
    822    826    828     1   109.8800469 414.216000
    823    832    833     1   109.8000471 387.438400
    823    832    834     1   109.8000471 387.438400
    824    823    832     1   109.5600471 388.275200
    824    823    825     1   108.4600466 328.025600
    825    823    832     1   109.5600471 388.275200
    826    829    830     1   109.8000471 387.438400
    826    829    831     1   109.8000471 387.438400
    827    826    829     1   109.5600471 388.275200
    827    826    828     1   108.4600466 328.025600
    828    826    829     1   109.5600471 388.275200
    830    829    835     1   108.7700466 392.459200
    830    829    831     1   107.5800459 329.699200
    831    829    835     1   108.7700466 392.459200
    833    832    836     1   108.7700466 392.459200
    833    832    834     1   107.5800459 329.699200
    834    832    836     1   108.7700466 392.459200
    835   1714   1715     1   117.5500507 404.174400
    836   1739   1740     1   117.5500507 404.174400
    841    844    845     1   109.5600471 388.275200
    841    844    846     1   109.5600471 388.275200
    842    841    844     1   109.5600471 388.275200
    842    841    847     1   109.8800469 414.216000
    842    841    843     1   108.4600466 328.025600
    843    841    844     1   109.5600471 388.275200
    843    841    847     1   109.8800469 414.216000
    844    864    865     1   117.6800502 383.254400
    845    844    864     1   108.8800464 416.726400
    845    844    846     1   108.4600466 328.025600
    846    844    864     1   108.8800464 416.726400
    847    848    849     1   109.8800469 414.216000
    847    848    850     1   109.8800469 414.216000
    847    851    852     1   109.8800469 414.216000
    847    851    853     1   109.8800469 414.216000
    848    857    858     1   109.8000471 387.438400
    848    857    859     1   109.8000471 387.438400
    849    848    857     1   109.5600471 388.275200
    849    848    850     1   108.4600466 328.025600
    850    848    857     1   109.5600471 388.275200
    851    854    855     1   109.8000471 387.438400
    851    854    856     1   109.8000471 387.438400
    852    851    854     1   109.5600471 388.275200
    852    851    853     1   108.4600466 328.025600
    853    851    854     1   109.5600471 388.275200
    855    854    860     1   108.7700466 392.459200
    855    854    856     1   107.5800459 329.699200
    856    854    860     1   108.7700466 392.459200
    858    857    861     1   108.7700466 392.459200
    858    857    859     1   107.5800459 329.699200
    859    857    861     1   108.7700466 392.459200
    860   1764   1765     1   117.5500507 404.174400
    861   1789   1790     1   117.5500507 404.174400
    866    869    870     1   109.5600471 388.275200
    866    869    871     1   109.5600471 388.275200
    867    866    869     1   109.5600471 388.275200
    867    866    872     1   109.8800469 414.216000
    867    866    868     1   108.4600466 328.025600
    868    866    869     1   109.5600471 388.275200
    868    866    872     1   109.8800469 414.216000
    869    889    890     1   117.6800502 383.254400
    870    869    889     1   108.8800464 416.726400
    870    869    871     1   108.4600466 328.025600
    871    869    889     1   108.8800464 416.726400
    872    873    874     1   109.8800469 414.216000
    872    873    875     1   109.8800469 414.216000
    872    876    877     1   109.8800469 414.216000
    872    876    878     1   109.8800469 414.216000
    873    882    883     1   109.8000471 387.438400
    873    882    884     1   109.8000471 387.438400
    874    873    882     1   109.5600471 388.275200
    874    873    875     1   108.4600466 328.025600
    875    873    882     1   109.5600471 388.275200
    876    879    880     1   109.8000471 387.438400
    876    879    881     1   109.8000471 387.438400
    877    876    879     1   109.5600471 388.275200
    877    876    878     1   108.4600466 328.025600
    878    876    879     1   109.5600471 388.275200
    880    879    885     1   108.7700466 392.459200
    880    879    881     1   107.5800459 329.699200
    881    879    885     1   108.7700466 392.459200
    883    882    886     1   108.7700466 392.459200
    883    882    884     1   107.5800459 329.699200
    884    882    886     1   108.7700466 392.459200
    885   1814   1815     1   117.5500507 404.174400
    886   1839   1840     1   117.5500507 404.174400
    891    894    895     1   109.5600471 388.275200
    891    894    896     1   109.5600471 388.275200
    892    891    894     1   109.5600471 388.275200
    892    891    897     1   109.8800469 414.216000
    892    891    893     1   108.4600466 328.025600
    893    891    894     1   109.5600471 388.275200
    893    891    897     1   109.8800469 414.216000
    894    914    915     1   117.6800502 383.254400
    895    894    914     1   108.8800464 416.726400
    895    894    896     1   108.4600466 328.025600
    896    894    914     1   108.8800464 416.726400
    897    898    899     1   109.8800469 414.216000
    897    898    900     1   109.8800469 414.216000
    897    901    902     1   109.8800469 414.216000
    897    901    903     1   109.8800469 414.216000
    898    907    908     1   109.8000471 387.438400
    898    907    909     1   109.8000471 387.438400
    899    898    907     1   109.5600471 388.275200
    899    898    900     1   108.4600466 328.025600
    900    898    907     1   109.5600471 388.275200
    901    904    905     1   109.8000471 387.438400
    901    904    906     1   109.8000471 387.438400
    902    901    904     1   109.5600471 388.275200
    902    901    903     1   108.4600466 328.025600
    903    901    904     1   109.5600471 388.275200
    905    904    910     1   108.7700466 392.459200
    905    904    906     1   107.5800459 329.699200
    906    904    910     1   108.7700466 392.459200
    908    907    911     1   108.7700466 392.459200
    908    907    909     1   107.5800459 329.699200
    909    907    911     1   108.7700466 392.459200
    910   1864   1865     1   117.5500507 404.174400
    911   1889   1890     1   117.5500507 404.174400
    916    919    920     1   109.5600471 388.275200
    916    919    921     1   109.5600471 388.275200
    917    916    919     1   109.5600471 388.275200
    917    916    922     1   109.8800469 414.216000
    917    916    918     1   108.4600466 328.025600
    918    916    919     1   109.5600471 388.275200
    918    916    922     1   109.8800469 414.216000
    919    939    940     1   117.6800502 383.254400
    920    919    939     1   108.8800464 416.726400
    920    919    921     1   108.4600466 328.025600
    921    919    939     1   108.8800464 416.726400
    922    923    924     1   109.8800469 414.216000
    922    923    925     1   109.8800469 414.216000
    922    926    927     1   109.8800469 414.216000
    922    926    928     1   109.8800469 414.216000
    923    932    933     1   109.8000471 387.438400
    923    932    934     1   109.8000471 387.438400
    924    923    932     1   109.5600471 388.275200
    924    923    925     1   108.4600466 328.025600
    925    923    932     1   109.5600471 388.275200
    926    929    930     1   109.8000471 387.438400
    926    929    931     1   109.8000471 387.438400
    927    926    929     1   109.5600471 388.275200
    927    926    928     1   108.4600466 328.025600
    928    926    929     1   109.5600471 388.275200
    930    929    935     1   108.7700466 392.459200
    930    929    931     1   107.5800459 329.699200
    931    929    935     1   108.7700466 392.459200
    933    932    936     1   108.7700466 392.459200
    933    932    934     1   107.5800459 329.699200
    934    932    936     1   108.7700466 392.459200
    935   1914   1915     1   117.5500507 404.174400
    936   1939   1940     1   117.5500507 404.174400
    941    944    945     1   109.5600471 388.275200
    941    944    946     1   109.5600471 388.275200
    942    941    944     1   109.5600471 388.275200
    942    941    947     1   109.8800469 414.216000
    942    941    943     1   108.4600466 328.025600
    943    941    944     1   109.5600471 388.275200
    943    941    947     1   109.8800469 414.216000
    944    964    965     1   117.6800502 383.254400
    945    944    964     1   108.8800464 416.726400
    945    944    946     1   108.4600466 328.025600
    946    944    964     1   108.8800464 416.726400
    947    948    949     1   109.8800469 414.216000
    947    948    950     1   109.8800469 414.216000
    947    951    952     1   109.8800469 414.216000
    947    951    953     1   109.8800469 414.216000
    948    957    958     1   109.8000471 387.438400
    948    957    959     1   109.8000471 387.438400
    949    948    957     1   109.5600471 388.275200
    949    948    950     1   108.4600466 328.025600
    950    948    957     1   109.5600471 388.275200
    951    954    955     1   109.8000471 387.438400
    951    954    956     1   109.8000471 387.438400
    952    951    954     1   109.5600471 388.275200
    952    951    953     1   108.4600466 328.025600
    953    951    954     1   109.5600471 388.275200
    955    954    960     1   108.7700466 392.459200
    955    954    956     1   107.5800459 329.699200
    956    954    960     1   108.7700466 392.459200
    958    957    961     1   108.7700466 392.459200
    958    957    959     1   107.5800459 329.699200
    959    957    961     1   108.7700466 392.459200
    960   1964   1965     1   117.5500507 404.174400
    961   1989   1990     1   117.5500507 404.174400
    966    969    970     1   109.5600471 388.275200
    966    969    971     1   109.5600471 388.275200
    967    966    969     1   109.5600471 388.275200
    967    966    972     1   109.8800469 414.216000
    967    966    968     1   108.4600466 328.025600
    968    966    969     1   109.5600471 388.275200
    968    966    972     1   109.8800469 414.216000
    969    989    990     1   117.6800502 383.254400
    970    969    989     1   108.8800464 416.726400
    970    969    971     1   108.4600466 328.025600
    971    969    989     1   108.8800464 416.726400
    972    973    974     1   109.8800469 414.216000
    972    973    975     1   109.8800469 414.216000
    972    976    977     1   109.8800469 414.216000
    972    976    978     1   109.8800469 414.216000
    973    982    983     1   109.8000471 387.438400
    973    982    984     1   109.8000471 387.438400
    974    973    982     1   109.5600471 388.275200
    974    973    975     1   108.4600466 328.025600
    975    973    982     1   109.5600471 388.275200
    976    979    980     1   109.8000471 387.438400
    976    979    981     1   109.8000471 387.438400
    977    976    979     1   109.5600471 388.275200
    977    976    978     1   108.4600466 328.025600
    978    976    979     1   109.5600471 388.275200
    980    979    985     1   108.7700466 392.459200
    980    979    981     1   107.5800459 329.699200
    981    979    985     1   108.7700466 392.459200
    983    982    986     1   108.7700466 392.459200
    983    982    984     1   107.5800459 329.699200
    984    982    986     1   108.7700466 392.459200
    985   2014   2015     1   117.5500507 404.174400
    986   2039   2040     1   117.5500507 404.174400
    991    994    995     1   109.5600471 388.275200
    991    994    996     1   109.5600471 388.275200
    992    991    994     1   109.5600471 388.275200
    992    991    997     1   109.8800469 414.216000
    992    991    993     1   108.4600466 328.025600
    993    991    994     1   109.5600471 388.275200
    993    991    997     1   109.8800469 414.216000
    994   1014   1015     1   117.6800502 383.254400
    995    994   1014     1   108.8800464 416.726400
    995    994    996     1   108.4600466 328.025600
    996    994   1014     1   108.8800464 416.726400
    997    998    999     1   109.8800469 414.216000
    997    998   1000     1   109.8800469 414.216000
    997   1001   1002     1   109.8800469 414.216000
    997   1001   1003     1   109.8800469 414.216000
    998   1007   1008     1   109.8000471 387.438400
    998   1007   1009     1   109.8000471 387.438400
    999    998   1007     1   109.5600471 388.275200
    999    998   1000     1   108.4600466 328.025600
   1000    998   1007     1   109.5600471 388.275200
   1001   1004   1005     1   109.8000471 387.438400
   1001   1004   1006     1   109.8000471 387.438400
   1002   1001   1004     1   109.5600471 388.275200
   1002   1001   1003     1   108.4600466 328.025600
   1003   1001   1004     1   109.5600471 388.275200
   1005   1004   1010     1   108.7700466 392.459200
   1005   1004   1006     1   107.5800459 329.699200
   1006   1004   1010     1   108.7700466 392.459200
   1008   1007   1011     1   108.7700466 392.459200
   1008   1007   1009     1   107.5800459 329.699200
   1009   1007   1011     1   108.7700466 392.459200
   1010   2064   2065     1   117.5500507 404.174400
   1011   2089   2090     1   117.5500507 404.174400
   1016   1019   1020     1   109.5600471 388.275200
   1016   1019   1021     1   109.5600471 388.275200
   1017   1016   1019     1   109.5600471 388.275200
   1017   1016   1022     1   109.8800469 414.216000
   1017   1016   1018     1   108.4600466 328.025600
   1018   1016   1019     1   109.5600471 388.275200
   1018   1016   1022     1   109.8800469 414.216000
   1019   1039   1040     1   117.6800502 383.254400
   1020   1019   1039     1   108.8800464 416.726400
   1020   1019   1021     1   108.4600466 328.025600
   1021   1019   1039     1   108.8800464 416.726400
   1022   1023   1024     1   109.8800469 414.216000
   1022   1023   1025     1   109.8800469 414.216000
   1022   1026   1027     1   109.8800469 414.216000
   1022   1026   1028     1   109.8800469 414.216000
   1023   1032   1033     1   109.8000471 387.438400
   1023   1032   1034     1   109.8000471 387.438400
   1024   1023   1032     1   109.5600471 388.275200
   1024   1023   1025     1   108.4600466 328.025600
   1025   1023   1032     1   109.5600471 388.275200
   1026   1029   1030     1   109.8000471 387.438400
   1026   1029   1031     1   109.8000471 387.438400
   1027   1026   1029     1   109.5600471 388.275200
   1027   1026   1028     1   108.4600466 328.025600
   1028   1026   1029     1   109.5600471 388.275200
   1030   1029   1035     1   108.7700466 392.459200
   1030   1029   1031     1   107.5800459 329.699200
   1031   1029   1035     1   108.7700466 392.459200
   1033   1032   1036     1   108.7700466 392.459200
   1033   1032   1034     1   107.5800459 329.699200
   1034   1032   1036     1   108.7700466 392.459200
   1035   2114   2115     1   117.5500507 404.174400
   1036   2139   2140     1   117.5500507 404.174400
   1041   1044   1045     1   109.5600471 388.275200
   1041   1044   1046     1   109.5600471 388.275200
   1042   1041   1044     1   109.5600471 388.275200
   1042   1041   1047     1   109.8800469 414.216000
   1042   1041   1043     1   108.4600466 328.025600
   1043   1041   1044     1   109.5600471 388.275200
   1043   1041   1047     1   109.8800469 414.216000
   1044   1064   1065     1   117.6800502 383.254400
   1045   1044   1064     1   108.8800464 416.726400
   1045   1044   1046     1   108.4600466 328.025600
   1046   1044   1064     1   108.8800464 416.726400
   1047   1048   1049     1   109.8800469 414.216000
   1047   1048   1050     1   109.8800469 414.216000
   1047   1051   1052     1   109.8800469 414.216000
   1047   1051   1053     1   109.8800469 414.216000
   1048   1057   1058     1   109.8000471 387.438400
   1048   1057   1059     1   109.8000471 387.438400
   1049   1048   1057     1   109.5600471 388.275200
   1049   1048   1050     1   108.4600466 328.025600
   1050   1048   1057     1   109.5600471 388.275200
   1051   1054   1055     1   109.8000471 387.438400
   1051   1054   1056     1   109.8000471 387.438400
   1052   1051   1054     1   109.5600471 388.275200
   1052   1051   1053     1   108.4600466 328.025600
   1053   1051   1054     1   109.5600471 388.275200
   1055   1054   1060     1   108.7700466 392.459200
   1055   1054   1056     1   107.5800459 329.699200
   1056   1054   1060     1   108.7700466 392.459200
   1058   1057   1061     1   108.7700466 392.459200
   1058   1057   1059     1   107.5800459 329.699200
   1059   1057   1061     1   108.7700466 392.459200
   1060   2164   2165     1   117.5500507 404.174400
   1061   2189   2190     1   117.5500507 404.174400
   1066   1069   1070     1   109.5600471 388.275200
   1066   1069   1071     1   109.5600471 388.275200
   1067   1066   1069     1   109.5600471 388.275200
   1067   1066   1072     1   109.8800469 414.216000
   1067   1066   1068     1   108.4600466 328.025600
   1068   1066   1069     1   109.5600471 388.275200
   1068   1066   1072     1   109.8800469 414.216000
   1069   1089   1090     1   117.6800502 383.254400
   1070   1069   1089     1   108.8800464 416.726400
   1070   1069   1071     1   108.4600466 328.025600
   1071   1069   1089     1   108.8800464 416.726400
   1072   1073   1074     1   109.8800469 414.216000
   1072   1073   1075     1   109.8800469 414.216000
   1072   1076   1077     1   109.8800469 414.216000
   1072   1076   1078     1   109.8800469 414.216000
   1073   1082   1083     1   109.8000471 387.438400
   1073   1082   1084     1   109.8000471 387.438400
   1074   1073   1082     1   109.5600471 388.275200
   1074   1073   1075     1   108.4600466 328.025600
   1075   1073   1082     1   109.5600471 388.275200
   1076   1079   1080     1   109.8000471 387.438400
   1076   1079   1081     1   109.8000471 387.438400
   1077   1076   1079     1   109.5600471 388.275200
   1077   1076   1078     1   108.4600466 328.025600
   1078   1076   1079     1   109.5600471 388.275200
   1080   1079   1085     1   108.7700466 392.459200
   1080   1079   1081     1   107.5800459 329.699200
   1081   1079   1085     1   108.7700466 392.459200
   1083   1082   1086     1   108.7700466 392.459200
   1083   1082   1084     1   107.5800459 329.699200
   1084   1082   1086     1   108.7700466 392.459200
   1085   2214   2215     1   117.5500507 404.174400
   1086   2239   2240     1   117.5500507 404.174400
   1091   1094   1095     1   109.5600471 388.275200
   1091   1094   1096     1   109.5600471 388.275200
   1092   1091   1094     1   109.5600471 388.275200
   1092   1091   1097     1   109.8800469 414.216000
   1092   1091   1093     1   108.4600466 328.025600
   1093   1091   1094     1   109.5600471 388.275200
   1093   1091   1097     1   109.8800469 414.216000
   1094   1114   1115     1   117.6800502 383.254400
   1095   1094   1114     1   108.8800464 416.726400
   1095   1094   1096     1   108.4600466 328.025600
   1096   1094   1114     1   108.8800464 416.726400
   1097   1098   1099     1   109.8800469 414.216000
   1097   1098   1100     1   109.8800469 414.216000
   1097   1101   1102     1   109.8800469 414.216000
   1097   1101   1103     1   109.8800469 414.216000
   1098   1107   1108     1   109.8000471 387.438400
   1098   1107   1109     1   109.8000471 387.438400
   1099   1098   1107     1   109.5600471 388.275200
   1099   1098   1100     1   108.4600466 328.025600
   1100   1098   1107     1   109.5600471 388.275200
   1101   1104   1105     1   109.8000471 387.438400
   1101   1104   1106     1   109.8000471 387.438400
   1102   1101   1104     1   109.5600471 388.275200
   1102   1101   1103     1   108.4600466 328.025600
   1103   1101   1104     1   109.5600471 388.275200
   1105   1104   1110     1   108.7700466 392.459200
   1105   1104   1106     1   107.5800459 329.699200
   1106   1104   1110     1   108.7700466 392.459200
   1108   1107   1111     1   108.7700466 392.459200
   1108   1107   1109     1   107.5800459 329.699200
   1109   1107   1111     1   108.7700466 392.459200
   1110   2264   2265     1   117.5500507 404.174400
   1111   2289   2290     1   117.5500507 404.174400
   1116   1119   1120     1   109.5600471 388.275200
   1116   1119   1121     1   109.5600471 388.275200
   1117   1116   1119     1   109.5600471 388.275200
   1117   1116   1122     1   109.8800469 414.216000
   1117   1116   1118     1   108.4600466 328.025600
   1118   1116   1119     1   109.5600471 388.275200
   1118   1116   1122     1   109.8800469 414.216000
   1119   1139   1140     1   117.6800502 383.254400
   1120   1119   1139     1   108.8800464 416.726400
   1120   1119   1121     1   108.4600466 328.025600
   1121   1119   1139     1   108.8800464 416.726400
   1122   1123   1124     1   109.8800469 414.216000
   1122   1123   1125     1   109.8800469 414.216000
   1122   1126   1127     1   109.8800469 414.216000
   1122   1126   1128     1   109.8800469 414.216000
   1123   1132   1133     1   109.8000471 387.438400
   1123   1132   1134     1   109.8000471 387.438400
   1124   1123   1132     1   109.5600471 388.275200
   1124   1123   1125     1   108.4600466 328.025600
   1125   1123   1132     1   109.5600471 388.275200
   1126   1129   1130     1   109.8000471 387.438400
   1126   1129   1131     1   109.8000471 387.438400
   1127   1126   1129     1   109.5600471 388.275200
   1127   1126   1128     1   108.4600466 328.025600
   1128   1126   1129     1   109.5600471 388.275200
   1130   1129   1135     1   108.7700466 392.459200
   1130   1129   1131     1   107.5800459 329.699200
   1131   1129   1135     1   108.7700466 392.459200
   1133   1132   1136     1   108.7700466 392.459200
   1133   1132   1134     1   107.5800459 329.699200
   1134   1132   1136     1   108.7700466 392.459200
   1135   2314   2315     1   117.5500507 404.174400
   1136   2339   2340     1   117.5500507 404.174400
   1141   1144   1145     1   109.5600471 388.275200
   1141   1144   1146     1   109.5600471 388.275200
   1142   1141   1144     1   109.5600471 388.275200
   1142   1141   1147     1   109.8800469 414.216000
   1142   1141   1143     1   108.4600466 328.025600
   1143   1141   1144     1   109.5600471 388.275200
   1143   1141   1147     1   109.8800469 414.216000
   1144   1164   1165     1   117.6800502 383.254400
   1145   1144   1164     1   108.8800464 416.726400
   1145   1144   1146     1   108.4600466 328.025600
   1146   1144   1164     1   108.8800464 416.726400
   1147   1148   1149     1   109.8800469 414.216000
   1147   1148   1150     1   109.8800469 414.216000
   1147   1151   1152     1   109.8800469 414.216000
   1147   1151   1153     1   109.8800469 414.216000
   1148   1157   1158     1   109.8000471 387.438400
   1148   1157   1159     1   109.8000471 387.438400
   1149   1148   1157     1   109.5600471 388.275200
   1149   1148   1150     1   108.4600466 328.025600
   1150   1148   1157     1   109.5600471 388.275200
   1151   1154   1155     1   109.8000471 387.438400
   1151   1154   1156     1   109.8000471 387.438400
   1152   1151   1154     1   109.5600471 388.275200
   1152   1151   1153     1   108.4600466 328.025600
   1153   1151   1154     1   109.5600471 388.275200
   1155   1154   1160     1   108.7700466 392.459200
   1155   1154   1156     1   107.5800459 329.699200
   1156   1154   1160     1   108.7700466 392.459200
   1158   1157   1161     1   108.7700466 392.459200
   1158   1157   1159     1   107.5800459 329.699200
   1159   1157   1161     1   108.7700466 392.459200
   1160   2364   2365     1   117.5500507 404.174400
   1161   2389   2390     1   117.5500507 404.174400
   1166   1169   1170     1   109.5600471 388.275200
   1166   1169   1171     1   109.5600471 388.275200
   1167   1166   1169     1   109.5600471 388.275200
   1167   1166   1172     1   109.8800469 414.216000
   1167   1166   1168     1   108.4600466 328.025600
   1168   1166   1169     1   109.5600471 388.275200
   1168   1166   1172     1   109.8800469 414.216000
   1169   1189   1190     1   117.6800502 383.254400
   1170   1169   1189     1   108.8800464 416.726400
   1170   1169   1171     1   108.4600466 328.025600
   1171   1169   1189     1   108.8800464 416.726400
   1172   1173   1174     1   109.8800469 414.216000
   1172   1173   1175     1   109.8800469 414.216000
   1172   1176   1177     1   109.8800469 414.216000
   1172   1176   1178     1   109.8800469 414.216000
   1173   1182   1183     1   109.8000471 387.438400
   1173   1182   1184     1   109.8000471 387.438400
   1174   1173   1182     1   109.5600471 388.275200
   1174   1173   1175     1   108.4600466 328.025600
   1175   1173   1182     1   109.5600471 388.275200
   1176   1179   1180     1   109.8000471 387.438400
   1176   1179   1181     1   109.8000471 387.438400
   1177   1176   1179     1   109.5600471 388.275200
   1177   1176   1178     1   108.4600466 328.025600
   1178   1176   1179     1   109.5600471 388.275200
   1180   1179   1185     1   108.7700466 392.459200
   1180   1179   1181     1   107.5800459 329.699200
   1181   1179   1185     1   108.7700466 392.459200
   1183   1182   1186     1   108.7700466 392.459200
   1183   1182   1184     1   107.5800459 329.699200
   1184   1182   1186     1   108.7700466 392.459200
   1185   2414   2415     1   117.5500507 404.174400
   1186   2439   2440     1   117.5500507 404.174400
   1191   1194   1195     1   109.5600471 388.275200
   1191   1194   1196     1   109.5600471 388.275200
   1192   1191   1194     1   109.5600471 388.275200
   1192   1191   1197     1   109.8800469 414.216000
   1192   1191   1193     1   108.4600466 328.025600
   1193   1191   1194     1   109.5600471 388.275200
   1193   1191   1197     1   109.8800469 414.216000
   1194   1214   1215     1   117.6800502 383.254400
   1195   1194   1214     1   108.8800464 416.726400
   1195   1194   1196     1   108.4600466 328.025600
   1196   1194   1214     1   108.8800464 416.726400
   1197   1198   1199     1   109.8800469 414.216000
   1197   1198   1200     1   109.8800469 414.216000
   1197   1201   1202     1   109.8800469 414.216000
   1197   1201   1203     1   109.8800469 414.216000
   1198   1207   1208     1   109.8000471 387.438400
   1198   1207   1209     1   109.8000471 387.438400
   1199   1198   1207     1   109.5600471 388.275200
   1199   1198   1200     1   108.4600466 328.025600
   1200   1198   1207     1   109.5600471 388.275200
   1201   1204   1205     1   109.8000471 387.438400
   1201   1204   1206     1   109.8000471 387.438400
   1202   1201   1204     1   109.5600471 388.275200
   1202   1201   1203     1   108.4600466 328.025600
   1203   1201   1204     1   109.5600471 388.275200
   1205   1204   1210     1   108.7700466 392.459200
   1205   1204   1206     1   107.5800459 329.699200
   1206   1204   1210     1   108.7700466 392.459200
   1208   1207   1211     1   108.7700466 392.459200
   1208   1207   1209     1   107.5800459 329.699200
   1209   1207   1211     1   108.7700466 392.459200
   1210   2464   2465     1   117.5500507 404.174400
   1211   2489   2490     1   117.5500507 404.174400
   1216   1219   1220     1   109.5600471 388.275200
   1216   1219   1221     1   109.5600471 388.275200
   1217   1216   1219     1   109.5600471 388.275200
   1217   1216   1222     1   109.8800469 414.216000
   1217   1216   1218     1   108.4600466 328.025600
   1218   1216   1219     1   109.5600471 388.275200
   1218   1216   1222     1   109.8800469 414.216000
   1219   1239   1240     1   117.6800502 383.254400
   1220   1219   1239     1   108.8800464 416.726400
   1220   1219   1221     1   108.4600466 328.025600
   1221   1219   1239     1   108.8800464 416.726400
   1222   1223   1224     1   109.8800469 414.216000
   1222   1223   1225     1   109.8800469 414.216000
   1222   1226   1227     1   109.8800469 414.216000
   1222   1226   1228     1   109.8800469 414.216000
   1223   1232   1233     1   109.8000471 387.438400
   1223   1232   1234     1   109.8000471 387.438400
   1224   1223   1232     1   109.5600471 388.275200
   1224   1223   1225     1   108.4600466 328.025600
   1225   1223   1232     1   109.5600471 388.275200
   1226   1229   1230     1   109.8000471 387.438400
   1226   1229   1231     1   109.8000471 387.438400
   1227   1226   1229     1   109.5600471 388.275200
   1227   1226   1228     1   108.4600466 328.025600
   1228   1226   1229     1   109.5600471 388.275200
   1230   1229   1235     1   108.7700466 392.459200
   1230   1229   1231     1   107.5800459 329.699200
   1231   1229   1235     1   108.7700466 392.459200
   1233   1232   1236     1   108.7700466 392.459200
   1233   1232   1234     1   107.5800459 329.699200
   1234   1232   1236     1   108.7700466 392.459200
   1235   2514   2515     1   117.5500507 404.174400
   1236   2539   2540     1   117.5500507 404.174400
   1241   1244   1245     1   109.5600471 388.275200
   1241   1244   1246     1   109.5600471 388.275200
   1242   1241   1244     1   109.5600471 388.275200
   1242   1241   1247     1   109.8800469 414.216000
   1242   1241   1243     1   108.4600466 328.025600
   1243   1241   1244     1   109.5600471 388.275200
   1243   1241   1247     1   109.8800469 414.216000
   1244   1264   1265     1   117.6800502 383.254400
   1245   1244   1264     1   108.8800464 416.726400
   1245   1244   1246     1   108.4600466 328.025600
   1246   1244   1264     1   108.8800464 416.726400
   1247   1248   1249     1   109.8800469 414.216000
   1247   1248   1250     1   109.8800469 414.216000
   1247   1251   1252     1   109.8800469 414.216000
   1247   1251   1253     1   109.8800469 414.216000
   1248   1257   1258     1   109.8000471 387.438400
   1248   1257   1259     1   109.8000471 387.438400
   1249   1248   1257     1   109.5600471 388.275200
   1249   1248   1250     1   108.4600466 328.025600
   1250   1248   1257     1   109.5600471 388.275200
   1251   1254   1255     1   109.8000471 387.438400
   1251   1254   1256     1   109.8000471 387.438400
   1252   1251   1254     1   109.5600471 388.275200
   1252   1251   1253     1   108.4600466 328.025600
   1253   1251   1254     1   109.5600471 388.275200
   1255   1254   1260     1   108.7700466 392.459200
   1255   1254   1256     1   107.5800459 329.699200
   1256   1254   1260     1   108.7700466 392.459200
   1258   1257   1261     1   108.7700466 392.459200
   1258   1257   1259     1   107.5800459 329.699200
   1259   1257   1261     1   108.7700466 392.459200
   1260   2564   2565     1   117.5500507 404.174400
   1261   2589   2590     1   117.5500507 404.174400
   1266   1269   1270     1   109.5600471 388.275200
   1266   1269   1271     1   109.5600471 388.275200
   1267   1266   1269     1   109.5600471 388.275200
   1267   1266   1272     1   109.8800469 414.216000
   1267   1266   1268     1   108.4600466 328.025600
   1268   1266   1269     1   109.5600471 388.275200
   1268   1266   1272     1   109.8800469 414.216000
   1269   1289   1290     1   117.6800502 383.254400
   1270   1269   1289     1   108.8800464 416.726400
   1270   1269   1271     1   108.4600466 328.025600
   1271   1269   1289     1   108.8800464 416.726400
   1272   1273   1274     1   109.8800469 414.216000
   1272   1273   1275     1   109.8800469 414.216000
   1272   1276   1277     1   109.8800469 414.216000
   1272   1276   1278     1   109.8800469 414.216000
   1273   1282   1283     1   109.8000471 387.438400
   1273   1282   1284     1   109.8000471 387.438400
   1274   1273   1282     1   109.5600471 388.275200
   1274   1273   1275     1   108.4600466 328.025600
   1275   1273   1282     1   109.5600471 388.275200
   1276   1279   1280     1   109.8000471 387.438400
   1276   1279   1281     1   109.8000471 387.438400
   1277   1276   1279     1   109.5600471 388.275200
   1277   1276   1278     1   108.4600466 328.025600
   1278   1276   1279     1   109.5600471 388.275200
   1280   1279   1285     1   108.7700466 392.459200
   1280   1279   1281     1   107.5800459 329.699200
   1281   1279   1285     1   108.7700466 392.459200
   1283   1282   1286     1   108.7700466 392.459200
   1283   1282   1284     1   107.5800459 329.699200
   1284   1282   1286     1   108.7700466 392.459200
   1285   2614   2615     1   117.5500507 404.174400
   1286   2639   2640     1   117.5500507 404.174400
   1291   1294   1295     1   109.5600471 388.275200
   1291   1294   1296     1   109.5600471 388.275200
   1292   1291   1294     1   109.5600471 388.275200
   1292   1291   1297     1   109.8800469 414.216000
   1292   1291   1293     1   108.4600466 328.025600
   1293   1291   1294     1   109.5600471 388.275200
   1293   1291   1297     1   109.8800469 414.216000
   1294   1314   1315     1   117.6800502 383.254400
   1295   1294   1314     1   108.8800464 416.726400
   1295   1294   1296     1   108.4600466 328.025600
   1296   1294   1314     1   108.8800464 416.726400
   1297   1298   1299     1   109.8800469 414.216000
   1297   1298   1300     1   109.8800469 414.216000
   1297   1301   1302     1   109.8800469 414.216000
   1297   1301   1303     1   109.8800469 414.216000
   1298   1307   1308     1   109.8000471 387.438400
   1298   1307   1309     1   109.8000471 387.438400
   1299   1298   1307     1   109.5600471 388.275200
   1299   1298   1300     1   108.4600466 328.025600
   1300   1298   1307     1   109.5600471 388.275200
   1301   1304   1305     1   109.8000471 387.438400
   1301   1304   1306     1   109.8000471 387.438400
   1302   1301   1304     1   109.5600471 388.275200
   1302   1301   1303     1   108.4600466 328.025600
   1303   1301   1304     1   109.5600471 388.275200
   1305   1304   1310     1   108.7700466 392.459200
   1305   1304   1306     1   107.5800459 329.699200
   1306   1304   1310     1   108.7700466 392.459200
   1308   1307   1311     1   108.7700466 392.459200
   1308   1307   1309     1   107.5800459 329.699200
   1309   1307   1311     1   108.7700466 392.459200
   1310   2664   2665     1   117.5500507 404.174400
   1311   2689   2690     1   117.5500507 404.174400
   1316   1319   1320     1   109.5600471 388.275200
   1316   1319   1321     1   109.5600471 388.275200
   1317   1316   1319     1   109.5600471 388.275200
   1317   1316   1322     1   109.8800469 414.216000
   1317   1316   1318     1   108.4600466 328.025600
   1318   1316   1319     1   109.5600471 388.275200
   1318   1316   1322     1   109.8800469 414.216000
   1319   1339   1340     1   117.6800502 383.254400
   1320   1319   1339     1   108.8800464 416.726400
   1320   1319   1321     1   108.4600466 328.025600
   1321   1319   1339     1   108.8800464 416.726400
   1322   1323   1324     1   109.8800469 414.216000
   1322   1323   1325     1   109.8800469 414.216000
   1322   1326   1327     1   109.8800469 414.216000
   1322   1326   1328     1   109.8800469 414.216000
   1323   1332   1333     1   109.8000471 387.438400
   1323   1332   1334     1   109.8000471 387.438400
   1324   1323   1332     1   109.5600471 388.275200
   1324   1323   1325     1   108.4600466 328.025600
   1325   1323   1332     1   109.5600471 388.275200
   1326   1329   1330     1   109.8000471 387.438400
   1326   1329   1331     1   109.8000471 387.438400
   1327   1326   1329     1   109.5600471 388.275200
   1327   1326   1328     1   108.4600466 328.025600
   1328   1326   1329     1   109.5600471 388.275200
   1330   1329   1335     1   108.7700466 392.459200
   1330   1329   1331     1   107.5800459 329.699200
   1331   1329   1335     1   108.7700466 392.459200
   1333   1332   1336     1   108.7700466 392.459200
   1333   1332   1334     1   107.5800459 329.699200
   1334   1332   1336     1   108.7700466 392.459200
   1335   2714   2715     1   117.5500507 404.174400
   1336   2739   2740     1   117.5500507 404.174400
   1341   1344   1345     1   109.5600471 388.275200
   1341   1344   1346     1   109.5600471 388.275200
   1342   1341   1344     1   109.5600471 388.275200
   1342   1341   1347     1   109.8800469 414.216000
   1342   1341   1343     1   108.4600466 328.025600
   1343   1341   1344     1   109.5600471 388.275200
   1343   1341   1347     1   109.8800469 414.216000
   1344   1364   1365     1   117.6800502 383.254400
   1345   1344   1364     1   108.8800464 416.726400
   1345   1344   1346     1   108.4600466 328.025600
   1346   1344   1364     1   108.8800464 416.726400
   1347   1348   1349     1   109.8800469 414.216000
   1347   1348   1350     1   109.8800469 414.216000
   1347   1351   1352     1   109.8800469 414.216000
   1347   1351   1353     1   109.8800469 414.216000
   1348   1357   1358     1   109.8000471 387.438400
   1348   1357   1359     1   109.8000471 387.438400
   1349   1348   1357     1   109.5600471 388.275200
   1349   1348   1350     1   108.4600466 328.025600
   1350   1348   1357     1   109.5600471 388.275200
   1351   1354   1355     1   109.8000471 387.438400
   1351   1354   1356     1   109.8000471 387.438400
   1352   1351   1354     1   109.5600471 388.275200
   1352   1351   1353     1   108.4600466 328.025600
   1353   1351   1354     1   109.5600471 388.275200
   1355   1354   1360     1   108.7700466 392.459200
   1355   1354   1356     1   107.5800459 329.699200
   1356   1354   1360     1   108.7700466 392.459200
   1358   1357   1361     1   108.7700466 392.459200
   1358   1357   1359     1   107.5800459 329.699200
   1359   1357   1361     1   108.7700466 392.459200
   1360   2764   2765     1   117.5500507 404.174400
   1361   2789   2790     1   117.5500507 404.174400
   1366   1369   1370     1   109.5600471 388.275200
   1366   1369   1371     1   109.5600471 388.275200
   1367   1366   1369     1   109.5600471 388.275200
   1367   1366   1372     1   109.8800469 414.216000
   1367   1366   1368     1   108.4600466 328.025600
   1368   1366   1369     1   109.5600471 388.275200
   1368   1366   1372     1   109.8800469 414.216000
   1369   1389   1390     1   117.6800502 383.254400
   1370   1369   1389     1   108.8800464 416.726400
   1370   1369   1371     1   108.4600466 328.025600
   1371   1369   1389     1   108.8800464 416.726400
   1372   1373   1374     1   109.8800469 414.216000
   1372   1373   1375     1   109.8800469 414.216000
   1372   1376   1377     1   109.8800469 414.216000
   1372   1376   1378     1   109.8800469 414.216000
   1373   1382   1383     1   109.8000471 387.438400
   1373   1382   1384     1   109.8000471 387.438400
   1374   1373   1382     1   109.5600471 388.275200
   1374   1373   1375     1   108.4600466 328.025600
   1375   1373   1382     1   109.5600471 388.275200
   1376   1379   1380     1   109.8000471 387.438400
   1376   1379   1381     1   109.8000471 387.438400
   1377   1376   1379     1   109.5600471 388.275200
   1377   1376   1378     1   108.4600466 328.025600
   1378   1376   1379     1   109.5600471 388.275200
   1380   1379   1385     1   108.7700466 392.459200
   1380   1379   1381     1   107.5800459 329.699200
   1381   1379   1385     1   108.7700466 392.459200
   1383   1382   1386     1   108.7700466 392.459200
   1383   1382   1384     1   107.5800459 329.699200
   1384   1382   1386     1   108.7700466 392.459200
   1385   2814   2815     1   117.5500507 404.174400
   1386   2839   2840     1   117.5500507 404.174400
   1391   1394   1395     1   109.5600471 388.275200
   1391   1394   1396     1   109.5600471 388.275200
   1392   1391   1394     1   109.5600471 388.275200
   1392   1391   1397     1   109.8800469 414.216000
   1392   1391   1393     1   108.4600466 328.025600
   1393   1391   1394     1   109.5600471 388.275200
   1393   1391   1397     1   109.8800469 414.216000
   1394   1414   1415     1   117.6800502 383.254400
   1395   1394   1414     1   108.8800464 416.726400
   1395   1394   1396     1   108.4600466 328.025600
   1396   1394   1414     1   108.8800464 416.726400
   1397   1398   1399     1   109.8800469 414.216000
   1397   1398   1400     1   109.8800469 414.216000
   1397   1401   1402     1   109.8800469 414.216000
   1397   1401   1403     1   109.8800469 414.216000
   1398   1407   1408     1   109.8000471 387.438400
   1398   1407   1409     1   109.8000471 387.438400
   1399   1398   1407     1   109.5600471 388.275200
   1399   1398   1400     1   108.4600466 328.025600
   1400   1398   1407     1   109.5600471 388.275200
   1401   1404   1405     1   109.8000471 387.438400
   1401   1404   1406     1   109.8000471 387.438400
   1402   1401   1404     1   109.5600471 388.275200
   1402   1401   1403     1   108.4600466 328.025600
   1403   1401   1404     1   109.5600471 388.275200
   1405   1404   1410     1   108.7700466 392.459200
   1405   1404   1406     1   107.5800459 329.699200
   1406   1404   1410     1   108.7700466 392.459200
   1408   1407   1411     1   108.7700466 392.459200
   1408   1407   1409     1   107.5800459 329.699200
   1409   1407   1411     1   108.7700466 392.459200
   1410   2864   2865     1   117.5500507 404.174400
   1411   2889   2890     1   117.5500507 404.174400
   1416   1419   1420     1   109.5600471 388.275200
   1416   1419   1421     1   109.5600471 388.275200
   1417   1416   1419     1   109.5600471 388.275200
   1417   1416   1422     1   109.8800469 414.216000
   1417   1416   1418     1   108.4600466 328.025600
   1418   1416   1419     1   109.5600471 388.275200
   1418   1416   1422     1   109.8800469 414.216000
   1419   1439   1440     1   117.6800502 383.254400
   1420   1419   1439     1   108.8800464 416.726400
   1420   1419   1421     1   108.4600466 328.025600
   1421   1419   1439     1   108.8800464 416.726400
   1422   1423   1424     1   109.8800469 414.216000
   1422   1423   1425     1   109.8800469 414.216000
   1422   1426   1427     1   109.8800469 414.216000
   1422   1426   1428     1   109.8800469 414.216000
   1423   1432   1433     1   109.8000471 387.438400
   1423   1432   1434     1   109.8000471 387.438400
   1424   1423   1432     1   109.5600471 388.275200
   1424   1423   1425     1   108.4600466 328.025600
   1425   1423   1432     1   109.5600471 388.275200
   1426   1429   1430     1   109.8000471 387.438400
   1426   1429   1431     1   109.8000471 387.438400
   1427   1426   1429     1   109.5600471 388.275200
   1427   1426   1428     1   108.4600466 328.025600
   1428   1426   1429     1   109.5600471 388.275200
   1430   1429   1435     1   108.7700466 392.459200
   1430   1429   1431     1   107.5800459 329.699200
   1431   1429   1435     1   108.7700466 392.459200
   1433   1432   1436     1   108.7700466 392.459200
   1433   1432   1434     1   107.5800459 329.699200
   1434   1432   1436     1   108.7700466 392.459200
   1435   2914   2915     1   117.5500507 404.174400
   1436   2939   2940     1   117.5500507 404.174400
   1441   1444   1445     1   109.5600471 388.275200
   1441   1444   1446     1   109.5600471 388.275200
   1442   1441   1444     1   109.5600471 388.275200
   1442   1441   1447     1   109.8800469 414.216000
   1442   1441   1443     1   108.4600466 328.025600
   1443   1441   1444     1   109.5600471 388.275200
   1443   1441   1447     1   109.8800469 414.216000
   1444   1464   1465     1   117.6800502 383.254400
   1445   1444   1464     1   108.8800464 416.726400
   1445   1444   1446     1   108.4600466 328.025600
   1446   1444   1464     1   108.8800464 416.726400
   1447   1448   1449     1   109.8800469 414.216000
   1447   1448   1450     1   109.8800469 414.216000
   1447   1451   1452     1   109.8800469 414.216000
   1447   1451   1453     1   109.8800469 414.216000
   1448   1457   1458     1   109.8000471 387.438400
   1448   1457   1459     1   109.8000471 387.438400
   1449   1448   1457     1   109.5600471 388.275200
   1449   1448   1450     1   108.4600466 328.025600
   1450   1448   1457     1   109.5600471 388.275200
   1451   1454   1455     1   109.8000471 387.438400
   1451   1454   1456     1   109.8000471 387.438400
   1452   1451   1454     1   109.5600471 388.275200
   1452   1451   1453     1   108.4600466 328.025600
   1453   1451   1454     1   109.5600471 388.275200
   1455   1454   1460     1   108.7700466 392.459200
   1455   1454   1456     1   107.5800459 329.699200
   1456   1454   1460     1   108.7700466 392.459200
   1458   1457   1461     1   108.7700466 392.459200
   1458   1457   1459     1   107.5800459 329.699200
   1459   1457   1461     1   108.7700466 392.459200
   1460   2964   2965     1   117.5500507 404.174400
   1461   2989   2990     1   117.5500507 404.174400
   1466   1469   1470     1   109.5600471 388.275200
   1466   1469   1471     1   109.5600471 388.275200
   1467   1466   1469     1   109.5600471 388.275200
   1467   1466   1472     1   109.8800469 414.216000
   1467   1466   1468     1   108.4600466 328.025600
   1468   1466   1469     1   109.5600471 388.275200
   1468   1466   1472     1   109.8800469 414.216000
   1469   1489   1490     1   117.6800502 383.254400
   1470   1469   1489     1   108.8800464 416.726400
   1470   1469   1471     1   108.4600466 328.025600
   1471   1469   1489     1   108.8800464 416.726400
   1472   1473   1474     1   109.8800469 414.216000
   1472   1473   1475     1   109.8800469 414.216000
   1472   1476   1477     1   109.8800469 414.216000
   1472   1476   1478     1   109.8800469 414.216000
   1473   1482   1483     1   109.8000471 387.438400
   1473   1482   1484     1   109.8000471 387.438400
   1474   1473   1482     1   109.5600471 388.275200
   1474   1473   1475     1   108.4600466 328.025600
   1475   1473   1482     1   109.5600471 388.275200
   1476   1479   1480     1   109.8000471 387.438400
   1476   1479   1481     1   109.8000471 387.438400
   1477   1476   1479     1   109.5600471 388.275200
   1477   1476   1478     1   108.4600466 328.025600
   1478   1476   1479     1   109.5600471 388.275200
   1480   1479   1485     1   108.7700466 392.459200
   1480   1479   1481     1   107.5800459 329.699200
   1481   1479   1485     1   108.7700466 392.459200
   1483   1482   1486     1   108.7700466 392.459200
   1483   1482   1484     1   107.5800459 329.699200
   1484   1482   1486     1   108.7700466 392.459200
   1485   3014   3015     1   117.5500507 404.174400
   1486   3039   3040     1   117.5500507 404.174400
   1491   1494   1495     1   109.5600471 388.275200
   1491   1494   1496     1   109.5600471 388.275200
   1492   1491   1494     1   109.5600471 388.275200
   1492   1491   1497     1   109.8800469 414.216000
   1492   1491   1493     1   108.4600466 328.025600
   1493   1491   1494     1   109.5600471 388.275200
   1493   1491   1497     1   109.8800469 414.216000
   1494   1514   1515     1   117.6800502 383.254400
   1495   1494   1514     1   108.8800464 416.726400
   1495   1494   1496     1   108.4600466 328.025600
   1496   1494   1514     1   108.8800464 416.726400
   1497   1498   1499     1   109.8800469 414.216000
   1497   1498   1500     1   109.8800469 414.216000
   1497   1501   1502     1   109.8800469 414.216000
   1497   1501   1503     1   109.8800469 414.216000
   1498   1507   1508     1   109.8000471 387.438400
   1498   1507   1509     1   109.8000471 387.438400
   1499   1498   1507     1   109.5600471 388.275200
   1499   1498   1500     1   108.4600466 328.025600
   1500   1498   1507     1   109.5600471 388.275200
   1501   1504   1505     1   109.8000471 387.438400
   1501   1504   1506     1   109.8000471 387.438400
   1502   1501   1504     1   109.5600471 388.275200
   1502   1501   1503     1   108.4600466 328.025600
   1503   1501   1504     1   109.5600471 388.275200
   1505   1504   1510     1   108.7700466 392.459200
   1505   1504   1506     1   107.5800459 329.699200
   1506   1504   1510     1   108.7700466 392.459200
   1508   1507   1511     1   108.7700466 392.459200
   1508   1507   1509     1   107.5800459 329.699200
   1509   1507   1511     1   108.7700466 392.459200
   1510   3064   3065     1   117.5500507 404.174400
   1511   3089   3090     1   117.5500507 404.174400
   1516   1519   1520     1   109.5600471 388.275200
   1516   1519   1521     1   109.5600471 388.275200
   1517   1516   1519     1   109.5600471 388.275200
   1517   1516   1522     1   109.8800469 414.216000
   1517   1516   1518     1   108.4600466 328.025600
   1518   1516   1519     1   109.5600471 388.275200
   1518   1516   1522     1   109.8800469 414.216000
   1519   1539   1540     1   117.6800502 383.254400
   1520   1519   1539     1   108.8800464 416.726400
   1520   1519   1521     1   108.4600466 328.025600
   1521   1519   1539     1   108.8800464 416.726400
   1522   1523   1524     1   109.8800469 414.216000
   1522   1523   1525     1   109.8800469 414.216000
   1522   1526   1527     1   109.8800469 414.216000
   1522   1526   1528     1   109.8800469 414.216000
   1523   1532   1533     1   109.8000471 387.438400
   1523   1532   1534     1   109.8000471 387.438400
   1524   1523   1532     1   109.5600471 388.275200
   1524   1523   1525     1   108.4600466 328.025600
   1525   1523   1532     1   109.5600471 388.275200
   1526   1529   1530     1   109.8000471 387.438400
   1526   1529   1531     1   109.8000471 387.438400
   1527   1526   1529     1   109.5600471 388.275200
   1527   1526   1528     1   108.4600466 328.025600
   1528   1526   1529     1   109.5600471 388.275200
   1530   1529   1535     1   108.7700466 392.459200
   1530   1529   1531     1   107.5800459 329.699200
   1531   1529   1535     1   108.7700466 392.459200
   1533   1532   1536     1   108.7700466 392.459200
   1533   1532   1534     1   107.5800459 329.699200
   1534   1532   1536     1   108.7700466 392.459200
   1535   3114   3115     1   117.5500507 404.174400
   1536   3139   3140     1   117.5500507 404.174400
   1541   1544   1545     1   109.5600471 388.275200
   1541   1544   1546     1   109.5600471 388.275200
   1542   1541   1544     1   109.5600471 388.275200
   1542   1541   1547     1   109.8800469 414.216000
   1542   1541   1543     1   108.4600466 328.025600
   1543   1541   1544     1   109.5600471 388.275200
   1543   1541   1547     1   109.8800469 414.216000
   1544   1564   1565     1   117.6800502 383.254400
   1545   1544   1564     1   108.8800464 416.726400
   1545   1544   1546     1   108.4600466 328.025600
   1546   1544   1564     1   108.8800464 416.726400
   1547   1548   1549     1   109.8800469 414.216000
   1547   1548   1550     1   109.8800469 414.216000
   1547   1551   1552     1   109.8800469 414.216000
   1547   1551   1553     1   109.8800469 414.216000
   1548   1557   1558     1   109.8000471 387.438400
   1548   1557   1559     1   109.8000471 387.438400
   1549   1548   1557     1   109.5600471 388.275200
   1549   1548   1550     1   108.4600466 328.025600
   1550   1548   1557     1   109.5600471 388.275200
   1551   1554   1555     1   109.8000471 387.438400
   1551   1554   1556     1   109.8000471 387.438400
   1552   1551   1554     1   109.5600471 388.275200
   1552   1551   1553     1   108.4600466 328.025600
   1553   1551   1554     1   109.5600471 388.275200
   1555   1554   1560     1   108.7700466 392.459200
   1555   1554   1556     1   107.5800459 329.699200
   1556   1554   1560     1   108.7700466 392.459200
   1558   1557   1561     1   108.7700466 392.459200
   1558   1557   1559     1   107.5800459 329.699200
   1559   1557   1561     1   108.7700466 392.459200
   1560   3150   3151     1   117.5500507 404.174400
   1561   3161   3162     1   117.5500507 404.174400
   1566   1569   1570     1   109.5600471 388.275200
   1566   1569   1571     1   109.5600471 388.275200
   1567   1566   1569     1   109.5600471 388.275200
   1567   1566   1572     1   109.8800469 414.216000
   1567   1566   1568     1   108.4600466 328.025600
   1568   1566   1569     1   109.5600471 388.275200
   1568   1566   1572     1   109.8800469 414.216000
   1569   1589   1590     1   117.6800502 383.254400
   1570   1569   1589     1   108.8800464 416.726400
   1570   1569   1571     1   108.4600466 328.025600
   1571   1569   1589     1   108.8800464 416.726400
   1572   1573   1574     1   109.8800469 414.216000
   1572   1573   1575     1   109.8800469 414.216000
   1572   1576   1577     1   109.8800469 414.216000
   1572   1576   1578     1   109.8800469 414.216000
   1573   1582   1583     1   109.8000471 387.438400
   1573   1582   1584     1   109.8000471 387.438400
   1574   1573   1582     1   109.5600471 388.275200
   1574   1573   1575     1   108.4600466 328.025600
   1575   1573   1582     1   109.5600471 388.275200
   1576   1579   1580     1   109.8000471 387.438400
   1576   1579   1581     1   109.8000471 387.438400
   1577   1576   1579     1   109.5600471 388.275200
   1577   1576   1578     1   108.4600466 328.025600
   1578   1576   1579     1   109.5600471 388.275200
   1580   1579   1585     1   108.7700466 392.459200
   1580   1579   1581     1   107.5800459 329.699200
   1581   1579   1585     1   108.7700466 392.459200
   1583   1582   1586     1   108.7700466 392.459200
   1583   1582   1584     1   107.5800459 329.699200
   1584   1582   1586     1   108.7700466 392.459200
   1585   3172   3173     1   117.5500507 404.174400
   1586   3183   3184     1   117.5500507 404.174400
   1591   1594   1595     1   109.5600471 388.275200
   1591   1594   1596     1   109.5600471 388.275200
   1592   1591   1594     1   109.5600471 388.275200
   1592   1591   1597     1   109.8800469 414.216000
   1592   1591   1593     1   108.4600466 328.025600
   1593   1591   1594     1   109.5600471 388.275200
   1593   1591   1597     1   109.8800469 414.216000
   1594   1614   1615     1   117.6800502 383.254400
   1595   1594   1614     1   108.8800464 416.726400
   1595   1594   1596     1   108.4600466 328.025600
   1596   1594   1614     1   108.8800464 416.726400
   1597   1598   1599     1   109.8800469 414.216000
   1597   1598   1600     1   109.8800469 414.216000
   1597   1601   1602     1   109.8800469 414.216000
   1597   1601   1603     1   109.8800469 414.216000
   1598   1607   1608     1   109.8000471 387.438400
   1598   1607   1609     1   109.8000471 387.438400
   1599   1598   1607     1   109.5600471 388.275200
   1599   1598   1600     1   108.4600466 328.025600
   1600   1598   1607     1   109.5600471 388.275200
   1601   1604   1605     1   109.8000471 387.438400
   1601   1604   1606     1   109.8000471 387.438400
   1602   1601   1604     1   109.5600471 388.275200
   1602   1601   1603     1   108.4600466 328.025600
   1603   1601   1604     1   109.5600471 388.275200
   1605   1604   1610     1   108.7700466 392.459200
   1605   1604   1606     1   107.5800459 329.699200
   1606   1604   1610     1   108.7700466 392.459200
   1608   1607   1611     1   108.7700466 392.459200
   1608   1607   1609     1   107.5800459 329.699200
   1609   1607   1611     1   108.7700466 392.459200
   1610   3194   3195     1   117.5500507 404.174400
   1611   3205   3206     1   117.5500507 404.174400
   1616   1619   1620     1   109.5600471 388.275200
   1616   1619   1621     1   109.5600471 388.275200
   1617   1616   1619     1   109.5600471 388.275200
   1617   1616   1622     1   109.8800469 414.216000
   1617   1616   1618     1   108.4600466 328.025600
   1618   1616   1619     1   109.5600471 388.275200
   1618   1616   1622     1   109.8800469 414.216000
   1619   1639   1640     1   117.6800502 383.254400
   1620   1619   1639     1   108.8800464 416.726400
   1620   1619   1621     1   108.4600466 328.025600
   1621   1619   1639     1   108.8800464 416.726400
   1622   1623   1624     1   109.8800469 414.216000
   1622   1623   1625     1   109.8800469 414.216000
   1622   1626   1627     1   109.8800469 414.216000
   1622   1626   1628     1   109.8800469 414.216000
   1623   1632   1633     1   109.8000471 387.438400
   1623   1632   1634     1   109.8000471 387.438400
   1624   1623   1632     1   109.5600471 388.275200
   1624   1623   1625     1   108.4600466 328.025600
   1625   1623   1632     1   109.5600471 388.275200
   1626   1629   1630     1   109.8000471 387.438400
   1626   1629   1631     1   109.8000471 387.438400
   1627   1626   1629     1   109.5600471 388.275200
   1627   1626   1628     1   108.4600466 328.025600
   1628   1626   1629     1   109.5600471 388.275200
   1630   1629   1635     1   108.7700466 392.459200
   1630   1629   1631     1   107.5800459 329.699200
   1631   1629   1635     1   108.7700466 392.459200
   1633   1632   1636     1   108.7700466 392.459200
   1633   1632   1634     1   107.5800459 329.699200
   1634   1632   1636     1   108.7700466 392.459200
   1635   3216   3217     1   117.5500507 404.174400
   1636   3227   3228     1   117.5500507 404.174400
   1641   1644   1645     1   109.5600471 388.275200
   1641   1644   1646     1   109.5600471 388.275200
   1642   1641   1644     1   109.5600471 388.275200
   1642   1641   1647     1   109.8800469 414.216000
   1642   1641   1643     1   108.4600466 328.025600
   1643   1641   1644     1   109.5600471 388.275200
   1643   1641   1647     1   109.8800469 414.216000
   1644   1664   1665     1   117.6800502 383.254400
   1645   1644   1664     1   108.8800464 416.726400
   1645   1644   1646     1   108.4600466 328.025600
   1646   1644   1664     1   108.8800464 416.726400
   1647   1648   1649     1   109.8800469 414.216000
   1647   1648   1650     1   109.8800469 414.216000
   1647   1651   1652     1   109.8800469 414.216000
   1647   1651   1653     1   109.8800469 414.216000
   1648   1657   1658     1   109.8000471 387.438400
   1648   1657   1659     1   109.8000471 387.438400
   1649   1648   1657     1   109.5600471 388.275200
   1649   1648   1650     1   108.4600466 328.025600
   1650   1648   1657     1   109.5600471 388.275200
   1651   1654   1655     1   109.8000471 387.438400
   1651   1654   1656     1   109.8000471 387.438400
   1652   1651   1654     1   109.5600471 388.275200
   1652   1651   1653     1   108.4600466 328.025600
   1653   1651   1654     1   109.5600471 388.275200
   1655   1654   1660     1   108.7700466 392.459200
   1655   1654   1656     1   107.5800459 329.699200
   1656   1654   1660     1   108.7700466 392.459200
   1658   1657   1661     1   108.7700466 392.459200
   1658   1657   1659     1   107.5800459 329.699200
   1659   1657   1661     1   108.7700466 392.459200
   1660   3238   3239     1   117.5500507 404.174400
   1661   3249   3250     1   117.5500507 404.174400
   1666   1669   1670     1   109.5600471 388.275200
   1666   1669   1671     1   109.5600471 388.275200
   1667   1666   1669     1   109.5600471 388.275200
   1667   1666   1672     1   109.8800469 414.216000
   1667   1666   1668     1   108.4600466 328.025600
   1668   1666   1669     1   109.5600471 388.275200
   1668   1666   1672     1   109.8800469 414.216000
   1669   1689   1690     1   117.6800502 383.254400
   1670   1669   1689     1   108.8800464 416.726400
   1670   1669   1671     1   108.4600466 328.025600
   1671   1669   1689     1   108.8800464 416.726400
   1672   1673   1674     1   109.8800469 414.216000
   1672   1673   1675     1   109.8800469 414.216000
   1672   1676   1677     1   109.8800469 414.216000
   1672   1676   1678     1   109.8800469 414.216000
   1673   1682   1683     1   109.8000471 387.438400
   1673   1682   1684     1   109.8000471 387.438400
   1674   1673   1682     1   109.5600471 388.275200
   1674   1673   1675     1   108.4600466 328.025600
   1675   1673   1682     1   109.5600471 388.275200
   1676   1679   1680     1   109.8000471 387.438400
   1676   1679   1681     1   109.8000471 387.438400
   1677   1676   1679     1   109.5600471 388.275200
   1677   1676   1678     1   108.4600466 328.025600
   1678   1676   1679     1   109.5600471 388.275200
   1680   1679   1685     1   108.7700466 392.459200
   1680   1679   1681     1   107.5800459 329.699200
   1681   1679   1685     1   108.7700466 392.459200
   1683   1682   1686     1   108.7700466 392.459200
   1683   1682   1684     1   107.5800459 329.699200
   1684   1682   1686     1   108.7700466 392.459200
   1685   3260   3261     1   117.5500507 404.174400
   1686   3271   3272     1   117.5500507 404.174400
   1691   1694   1695     1   109.5600471 388.275200
   1691   1694   1696     1   109.5600471 388.275200
   1692   1691   1694     1   109.5600471 388.275200
   1692   1691   1697     1   109.8800469 414.216000
   1692   1691   1693     1   108.4600466 328.025600
   1693   1691   1694     1   109.5600471 388.275200
   1693   1691   1697     1   109.8800469 414.216000
   1694   1714   1715     1   117.6800502 383.254400
   1695   1694   1714     1   108.8800464 416.726400
   1695   1694   1696     1   108.4600466 328.025600
   1696   1694   1714     1   108.8800464 416.726400
   1697   1698   1699     1   109.8800469 414.216000
   1697   1698   1700     1   109.8800469 414.216000
   1697   1701   1702     1   109.8800469 414.216000
   1697   1701   1703     1   109.8800469 414.216000
   1698   1707   1708     1   109.8000471 387.438400
   1698   1707   1709     1   109.8000471 387.438400
   1699   1698   1707     1   109.5600471 388.275200
   1699   1698   1700     1   108.4600466 328.025600
   1700   1698   1707     1   109.5600471 388.275200
   1701   1704   1705     1   109.8000471 387.438400
   1701   1704   1706     1   109.8000471 387.438400
   1702   1701   1704     1   109.5600471 388.275200
   1702   1701   1703     1   108.4600466 328.025600
   1703   1701   1704     1   109.5600471 388.275200
   1705   1704   1710     1   108.7700466 392.459200
   1705   1704   1706     1   107.5800459 329.699200
   1706   1704   1710     1   108.7700466 392.459200
   1708   1707   1711     1   108.7700466 392.459200
   1708   1707   1709     1   107.5800459 329.699200
   1709   1707   1711     1   108.7700466 392.459200
   1710   3282   3283     1   117.5500507 404.174400
   1711   3293   3294     1   117.5500507 404.174400
   1716   1719   1720     1   109.5600471 388.275200
   1716   1719   1721     1   109.5600471 388.275200
   1717   1716   1719     1   109.5600471 388.275200
   1717   1716   1722     1   109.8800469 414.216000
   1717   1716   1718     1   108.4600466 328.025600
   1718   1716   1719     1   109.5600471 388.275200
   1718   1716   1722     1   109.8800469 414.216000
   1719   1739   1740     1   117.6800502 383.254400
   1720   1719   1739     1   108.8800464 416.726400
   1720   1719   1721     1   108.4600466 328.025600
   1721   1719   1739     1   108.8800464 416.726400
   1722   1723   1724     1   109.8800469 414.216000
   1722   1723   1725     1   109.8800469 414.216000
   1722   1726   1727     1   109.8800469 414.216000
   1722   1726   1728     1   109.8800469 414.216000
   1723   1732   1733     1   109.8000471 387.438400
   1723   1732   1734     1   109.8000471 387.438400
   1724   1723   1732     1   109.5600471 388.275200
   1724   1723   1725     1   108.4600466 328.025600
   1725   1723   1732     1   109.5600471 388.275200
   1726   1729   1730     1   109.8000471 387.438400
   1726   1729   1731     1   109.8000471 387.438400
   1727   1726   1729     1   109.5600471 388.275200
   1727   1726   1728     1   108.4600466 328.025600
   1728   1726   1729     1   109.5600471 388.275200
   1730   1729   1735     1   108.7700466 392.459200
   1730   1729   1731     1   107.5800459 329.699200
   1731   1729   1735     1   108.7700466 392.459200
   1733   1732   1736     1   108.7700466 392.459200
   1733   1732   1734     1   107.5800459 329.699200
   1734   1732   1736     1   108.7700466 392.459200
   1735   3304   3305     1   117.5500507 404.174400
   1736   3315   3316     1   117.5500507 404.174400
   1741   1744   1745     1   109.5600471 388.275200
   1741   1744   1746     1   109.5600471 388.275200
   1742   1741   1744     1   109.5600471 388.275200
   1742   1741   1747     1   109.8800469 414.216000
   1742   1741   1743     1   108.4600466 328.025600
   1743   1741   1744     1   109.5600471 388.275200
   1743   1741   1747     1   109.8800469 414.216000
   1744   1764   1765     1   117.6800502 383.254400
   1745   1744   1764     1   108.8800464 416.726400
   1745   1744   1746     1   108.4600466 328.025600
   1746   1744   1764     1   108.8800464 416.726400
   1747   1748   1749     1   109.8800469 414.216000
   1747   1748   1750     1   109.8800469 414.216000
   1747   1751   1752     1   109.8800469 414.216000
   1747   1751   1753     1   109.8800469 414.216000
   1748   1757   1758     1   109.8000471 387.438400
   1748   1757   1759     1   109.8000471 387.438400
   1749   1748   1757     1   109.5600471 388.275200
   1749   1748   1750     1   108.4600466 328.025600
   1750   1748   1757     1   109.5600471 388.275200
   1751   1754   1755     1   109.8000471 387.438400
   1751   1754   1756     1   109.8000471 387.438400
   1752   1751   1754     1   109.5600471 388.275200
   1752   1751   1753     1   108.4600466 328.025600
   1753   1751   1754     1   109.5600471 388.275200
   1755   1754   1760     1   108.7700466 392.459200
   1755   1754   1756     1   107.5800459 329.699200
   1756   1754   1760     1   108.7700466 392.459200
   1758   1757   1761     1   108.7700466 392.459200
   1758   1757   1759     1   107.5800459 329.699200
   1759   1757   1761     1   108.7700466 392.459200
   1760   3326   3327     1   117.5500507 404.174400
   1761   3337   3338     1   117.5500507 404.174400
   1766   1769   1770     1   109.5600471 388.275200
   1766   1769   1771     1   109.5600471 388.275200
   1767   1766   1769     1   109.5600471 388.275200
   1767   1766   1772     1   109.8800469 414.216000
   1767   1766   1768     1   108.4600466 328.025600
   1768   1766   1769     1   109.5600471 388.275200
   1768   1766   1772     1   109.8800469 414.216000
   1769   1789   1790     1   117.6800502 383.254400
   1770   1769   1789     1   108.8800464 416.726400
   1770   1769   1771     1   108.4600466 328.025600
   1771   1769   1789     1   108.8800464 416.726400
   1772   1773   1774     1   109.8800469 414.216000
   1772   1773   1775     1   109.8800469 414.216000
   1772   1776   1777     1   109.8800469 414.216000
   1772   1776   1778     1   109.8800469 414.216000
   1773   1782   1783     1   109.8000471 387.438400
   1773   1782   1784     1   109.8000471 387.438400
   1774   1773   1782     1   109.5600471 388.275200
   1774   1773   1775     1   108.4600466 328.025600
   1775   1773   1782     1   109.5600471 388.275200
   1776   1779   1780     1   109.8000471 387.438400
   1776   1779   1781     1   109.8000471 387.438400
   1777   1776   1779     1   109.5600471 388.275200
   1777   1776   1778     1   108.4600466 328.025600
   1778   1776   1779     1   109.5600471 388.275200
   1780   1779   1785     1   108.7700466 392.459200
   1780   1779   1781     1   107.5800459 329.699200
   1781   1779   1785     1   108.7700466 392.459200
   1783   1782   1786     1   108.7700466 392.459200
   1783   1782   1784     1   107.5800459 329.699200
   1784   1782   1786     1   108.7700466 392.459200
   1785   3348   3349     1   117.5500507 404.174400
   1786   3359   3360     1   117.5500507 404.174400
   1791   1794   1795     1   109.5600471 388.275200
   1791   1794   1796     1   109.5600471 388.275200
   1792   1791   1794     1   109.5600471 388.275200
   1792   1791   1797     1   109.8800469 414.216000
   1792   1791   1793     1   108.4600466 328.025600
   1793   1791   1794     1   109.5600471 388.275200
   1793   1791   1797     1   109.8800469 414.216000
   1794   1814   1815     1   117.6800502 383.254400
   1795   1794   1814     1   108.8800464 416.726400
   1795   1794   1796     1   108.4600466 328.025600
   1796   1794   1814     1   108.8800464 416.726400
   1797   1798   1799     1   109.8800469 414.216000
   1797   1798   1800     1   109.8800469 414.216000
   1797   1801   1802     1   109.8800469 414.216000
   1797   1801   1803     1   109.8800469 414.216000
   1798   1807   1808     1   109.8000471 387.438400
   1798   1807   1809     1   109.8000471 387.438400
   1799   1798   1807     1   109.5600471 388.275200
   1799   1798   1800     1   108.4600466 328.025600
   1800   1798   1807     1   109.5600471 388.275200
   1801   1804   1805     1   109.8000471 387.438400
   1801   1804   1806     1   109.8000471 387.438400
   1802   1801   1804     1   109.5600471 388.275200
   1802   1801   1803     1   108.4600466 328.025600
   1803   1801   1804     1   109.5600471 388.275200
   1805   1804   1810     1   108.7700466 392.459200
   1805   1804   1806     1   107.5800459 329.699200
   1806   1804   1810     1   108.7700466 392.459200
   1808   1807   1811     1   108.7700466 392.459200
   1808   1807   1809     1   107.5800459 329.699200
   1809   1807   1811     1   108.7700466 392.459200
   1810   3370   3371     1   117.5500507 404.174400
   1811   3381   3382     1   117.5500507 404.174400
   1816   1819   1820     1   109.5600471 388.275200
   1816   1819   1821     1   109.5600471 388.275200
   1817   1816   1819     1   109.5600471 388.275200
   1817   1816   1822     1   109.8800469 414.216000
   1817   1816   1818     1   108.4600466 328.025600
   1818   1816   1819     1   109.5600471 388.275200
   1818   1816   1822     1   109.8800469 414.216000
   1819   1839   1840     1   117.6800502 383.254400
   1820   1819   1839     1   108.8800464 416.726400
   1820   1819   1821     1   108.4600466 328.025600
   1821   1819   1839     1   108.8800464 416.726400
   1822   1823   1824     1   109.8800469 414.216000
   1822   1823   1825     1   109.8800469 414.216000
   1822   1826   1827     1   109.8800469 414.216000
   1822   1826   1828     1   109.8800469 414.216000
   1823   1832   1833     1   109.8000471 387.438400
   1823   1832   1834     1   109.8000471 387.438400
   1824   1823   1832     1   109.5600471 388.275200
   1824   1823   1825     1   108.4600466 328.025600
   1825   1823   1832     1   109.5600471 388.275200
   1826   1829   1830     1   109.8000471 387.438400
   1826   1829   1831     1   109.8000471 387.438400
   1827   1826   1829     1   109.5600471 388.275200
   1827   1826   1828     1   108.4600466 328.025600
   1828   1826   1829     1   109.5600471 388.275200
   1830   1829   1835     1   108.7700466 392.459200
   1830   1829   1831     1   107.5800459 329.699200
   1831   1829   1835     1   108.7700466 392.459200
   1833   1832   1836     1   108.7700466 392.459200
   1833   1832   1834     1   107.5800459 329.699200
   1834   1832   1836     1   108.7700466 392.459200
   1835   3392   3393     1   117.5500507 404.174400
   1836   3403   3404     1   117.5500507 404.174400
   1841   1844   1845     1   109.5600471 388.275200
   1841   1844   1846     1   109.5600471 388.275200
   1842   1841   1844     1   109.5600471 388.275200
   1842   1841   1847     1   109.8800469 414.216000
   1842   1841   1843     1   108.4600466 328.025600
   1843   1841   1844     1   109.5600471 388.275200
   1843   1841   1847     1   109.8800469 414.216000
   1844   1864   1865     1   117.6800502 383.254400
   1845   1844   1864     1   108.8800464 416.726400
   1845   1844   1846     1   108.4600466 328.025600
   1846   1844   1864     1   108.8800464 416.726400
   1847   1848   1849     1   109.8800469 414.216000
   1847   1848   1850     1   109.8800469 414.216000
   1847   1851   1852     1   109.8800469 414.216000
   1847   1851   1853     1   109.8800469 414.216000
   1848   1857   1858     1   109.8000471 387.438400
   1848   1857   1859     1   109.8000471 387.438400
   1849   1848   1857     1   109.5600471 388.275200
   1849   1848   1850     1   108.4600466 328.025600
   1850   1848   1857     1   109.5600471 388.275200
   1851   1854   1855     1   109.8000471 387.438400
   1851   1854   1856     1   109.8000471 387.438400
   1852   1851   1854     1   109.5600471 388.275200
   1852   1851   1853     1   108.4600466 328.025600
   1853   1851   1854     1   109.5600471 388.275200
   1855   1854   1860     1   108.7700466 392.459200
   1855   1854   1856     1   107.5800459 329.699200
   1856   1854   1860     1   108.7700466 392.459200
   1858   1857   1861     1   108.7700466 392.459200
   1858   1857   1859     1   107.5800459 329.699200
   1859   1857   1861     1   108.7700466 392.459200
   1860   3414   3415     1   117.5500507 404.174400
   1861   3425   3426     1   117.5500507 404.174400
   1866   1869   1870     1   109.5600471 388.275200
   1866   1869   1871     1   109.5600471 388.275200
   1867   1866   1869     1   109.5600471 388.275200
   1867   1866   1872     1   109.8800469 414.216000
   1867   1866   1868     1   108.4600466 328.025600
   1868   1866   1869     1   109.5600471 388.275200
   1868   1866   1872     1   109.8800469 414.216000
   1869   1889   1890     1   117.6800502 383.254400
   1870   1869   1889     1   108.8800464 416.726400
   1870   1869   1871     1   108.4600466 328.025600
   1871   1869   1889     1   108.8800464 416.726400
   1872   1873   1874     1   109.8800469 414.216000
   1872   1873   1875     1   109.8800469 414.216000
   1872   1876   1877     1   109.8800469 414.216000
   1872   1876   1878     1   109.8800469 414.216000
   1873   1882   1883     1   109.8000471 387.438400
   1873   1882   1884     1   109.8000471 387.438400
   1874   1873   1882     1   109.5600471 388.275200
   1874   1873   1875     1   108.4600466 328.025600
   1875   1873   1882     1   109.5600471 388.275200
   1876   1879   1880     1   109.8000471 387.438400
   1876   1879   1881     1   109.8000471 387.438400
   1877   1876   1879     1   109.5600471 388.275200
   1877   1876   1878     1   108.4600466 328.025600
   1878   1876   1879     1   109.5600471 388.275200
   1880   1879   1885     1   108.7700466 392.459200
   1880   1879   1881     1   107.5800459 329.699200
   1881   1879   1885     1   108.7700466 392.459200
   1883   1882   1886     1   108.7700466 392.459200
   1883   1882   1884     1   107.5800459 329.699200
   1884   1882   1886     1   108.7700466 392.459200
   1885   3436   3437     1   117.5500507 404.174400
   1886   3447   3448     1   117.5500507 404.174400
   1891   1894   1895     1   109.5600471 388.275200
   1891   1894   1896     1   109.5600471 388.275200
   1892   1891   1894     1   109.5600471 388.275200
   1892   1891   1897     1   109.8800469 414.216000
   1892   1891   1893     1   108.4600466 328.025600
   1893   1891   1894     1   109.5600471 388.275200
   1893   1891   1897     1   109.8800469 414.216000
   1894   1914   1915     1   117.6800502 383.254400
   1895   1894   1914     1   108.8800464 416.726400
   1895   1894   1896     1   108.4600466 328.025600
   1896   1894   1914     1   108.8800464 416.726400
   1897   1898   1899     1   109.8800469 414.216000
   1897   1898   1900     1   109.8800469 414.216000
   1897   1901   1902     1   109.8800469 414.216000
   1897   1901   1903     1   109.8800469 414.216000
   1898   1907   1908     1   109.8000471 387.438400
   1898   1907   1909     1   109.8000471 387.438400
   1899   1898   1907     1   109.5600471 388.275200
   1899   1898   1900     1   108.4600466 328.025600
   1900   1898   1907     1   109.5600471 388.275200
   1901   1904   1905     1   109.8000471 387.438400
   1901   1904   1906     1   109.8000471 387.438400
   1902   1901   1904     1   109.5600471 388.275200
   1902   1901   1903     1   108.4600466 328.025600
   1903   1901   1904     1   109.5600471 388.275200
   1905   1904   1910     1   108.7700466 392.459200
   1905   1904   1906     1   107.5800459 329.699200
   1906   1904   1910     1   108.7700466 392.459200
   1908   1907   1911     1   108.7700466 392.459200
   1908   1907   1909     1   107.5800459 329.699200
   1909   1907   1911     1   108.7700466 392.459200
   1910   3458   3459     1   117.5500507 404.174400
   1911   3469   3470     1   117.5500507 404.174400
   1916   1919   1920     1   109.5600471 388.275200
   1916   1919   1921     1   109.5600471 388.275200
   1917   1916   1919     1   109.5600471 388.275200
   1917   1916   1922     1   109.8800469 414.216000
   1917   1916   1918     1   108.4600466 328.025600
   1918   1916   1919     1   109.5600471 388.275200
   1918   1916   1922     1   109.8800469 414.216000
   1919   1939   1940     1   117.6800502 383.254400
   1920   1919   1939     1   108.8800464 416.726400
   1920   1919   1921     1   108.4600466 328.025600
   1921   1919   1939     1   108.8800464 416.726400
   1922   1923   1924     1   109.8800469 414.216000
   1922   1923   1925     1   109.8800469 414.216000
   1922   1926   1927     1   109.8800469 414.216000
   1922   1926   1928     1   109.8800469 414.216000
   1923   1932   1933     1   109.8000471 387.438400
   1923   1932   1934     1   109.8000471 387.438400
   1924   1923   1932     1   109.5600471 388.275200
   1924   1923   1925     1   108.4600466 328.025600
   1925   1923   1932     1   109.5600471 388.275200
   1926   1929   1930     1   109.8000471 387.438400
   1926   1929   1931     1   109.8000471 387.438400
   1927   1926   1929     1   109.5600471 388.275200
   1927   1926   1928     1   108.4600466 328.025600
   1928   1926   1929     1   109.5600471 388.275200
   1930   1929   1935     1   108.7700466 392.459200
   1930   1929   1931     1   107.5800459 329.699200
   1931   1929   1935     1   108.7700466 392.459200
   1933   1932   1936     1   108.7700466 392.459200
   1933   1932   1934     1   107.5800459 329.699200
   1934   1932   1936     1   108.7700466 392.459200
   1935   3480   3481     1   117.5500507 404.174400
   1936   3491   3492     1   117.5500507 404.174400
   1941   1944   1945     1   109.5600471 388.275200
   1941   1944   1946     1   109.5600471 388.275200
   1942   1941   1944     1   109.5600471 388.275200
   1942   1941   1947     1   109.8800469 414.216000
   1942   1941   1943     1   108.4600466 328.025600
   1943   1941   1944     1   109.5600471 388.275200
   1943   1941   1947     1   109.8800469 414.216000
   1944   1964   1965     1   117.6800502 383.254400
   1945   1944   1964     1   108.8800464 416.726400
   1945   1944   1946     1   108.4600466 328.025600
   1946   1944   1964     1   108.8800464 416.726400
   1947   1948   1949     1   109.8800469 414.216000
   1947   1948   1950     1   109.8800469 414.216000
   1947   1951   1952     1   109.8800469 414.216000
   1947   1951   1953     1   109.8800469 414.216000
   1948   1957   1958     1   109.8000471 387.438400
   1948   1957   1959     1   109.8000471 387.438400
   1949   1948   1957     1   109.5600471 388.275200
   1949   1948   1950     1   108.4600466 328.025600
   1950   1948   1957     1   109.5600471 388.275200
   1951   1954   1955     1   109.8000471 387.438400
   1951   1954   1956     1   109.8000471 387.438400
   1952   1951   1954     1   109.5600471 388.275200
   1952   1951   1953     1   108.4600466 328.025600
   1953   1951   1954     1   109.5600471 388.275200
   1955   1954   1960     1   108.7700466 392.459200
   1955   1954   1956     1   107.5800459 329.699200
   1956   1954   1960     1   108.7700466 392.459200
   1958   1957   1961     1   108.7700466 392.459200
   1958   1957   1959     1   107.5800459 329.699200
   1959   1957   1961     1   108.7700466 392.459200
   1960   3502   3503     1   117.5500507 404.174400
   1961   3513   3514     1   117.5500507 404.174400
   1966   1969   1970     1   109.5600471 388.275200
   1966   1969   1971     1   109.5600471 388.275200
   1967   1966   1969     1   109.5600471 388.275200
   1967   1966   1972     1   109.8800469 414.216000
   1967   1966   1968     1   108.4600466 328.025600
   1968   1966   1969     1   109.5600471 388.275200
   1968   1966   1972     1   109.8800469 414.216000
   1969   1989   1990     1   117.6800502 383.254400
   1970   1969   1989     1   108.8800464 416.726400
   1970   1969   1971     1   108.4600466 328.025600
   1971   1969   1989     1   108.8800464 416.726400
   1972   1973   1974     1   109.8800469 414.216000
   1972   1973   1975     1   109.8800469 414.216000
   1972   1976   1977     1   109.8800469 414.216000
   1972   1976   1978     1   109.8800469 414.216000
   1973   1982   1983     1   109.8000471 387.438400
   1973   1982   1984     1   109.8000471 387.438400
   1974   1973   1982     1   109.5600471 388.275200
   1974   1973   1975     1   108.4600466 328.025600
   1975   1973   1982     1   109.5600471 388.275200
   1976   1979   1980     1   109.8000471 387.438400
   1976   1979   1981     1   109.8000471 387.438400
   1977   1976   1979     1   109.5600471 388.275200
   1977   1976   1978     1   108.4600466 328.025600
   1978   1976   1979     1   109.5600471 388.275200
   1980   1979   1985     1   108.7700466 392.459200
   1980   1979   1981     1   107.5800459 329.699200
   1981   1979   1985     1   108.7700466 392.459200
   1983   1982   1986     1   108.7700466 392.459200
   1983   1982   1984     1   107.5800459 329.699200
   1984   1982   1986     1   108.7700466 392.459200
   1985   3524   3525     1   117.5500507 404.174400
   1986   3535   3536     1   117.5500507 404.174400
   1991   1994   1995     1   109.5600471 388.275200
   1991   1994   1996     1   109.5600471 388.275200
   1992   1991   1994     1   109.5600471 388.275200
   1992   1991   1997     1   109.8800469 414.216000
   1992   1991   1993     1   108.4600466 328.025600
   1993   1991   1994     1   109.5600471 388.275200
   1993   1991   1997     1   109.8800469 414.216000
   1994   2014   2015     1   117.6800502 383.254400
   1995   1994   2014     1   108.8800464 416.726400
   1995   1994   1996     1   108.4600466 328.025600
   1996   1994   2014     1   108.8800464 416.726400
   1997   1998   1999     1   109.8800469 414.216000
   1997   1998   2000     1   109.8800469 414.216000
   1997   2001   2002     1   109.8800469 414.216000
   1997   2001   2003     1   109.8800469 414.216000
   1998   2007   2008     1   109.8000471 387.438400
   1998   2007   2009     1   109.8000471 387.438400
   1999   1998   2007     1   109.5600471 388.275200
   1999   1998   2000     1   108.4600466 328.025600
   2000   1998   2007     1   109.5600471 388.275200
   2001   2004   2005     1   109.8000471 387.438400
   2001   2004   2006     1   109.8000471 387.438400
   2002   2001   2004     1   109.5600471 388.275200
   2002   2001   2003     1   108.4600466 328.025600
   2003   2001   2004     1   109.5600471 388.275200
   2005   2004   2010     1   108.7700466 392.459200
   2005   2004   2006     1   107.5800459 329.699200
   2006   2004   2010     1   108.7700466 392.459200
   2008   2007   2011     1   108.7700466 392.459200
   2008   2007   2009     1   107.5800459 329.699200
   2009   2007   2011     1   108.7700466 392.459200
   2010   3546   3547     1   117.5500507 404.174400
   2011   3557   3558     1   117.5500507 404.174400
   2016   2019   2020     1   109.5600471 388.275200
   2016   2019   2021     1   109.5600471 388.275200
   2017   2016   2019     1   109.5600471 388.275200
   2017   2016   2022     1   109.8800469 414.216000
   2017   2016   2018     1   108.4600466 328.025600
   2018   2016   2019     1   109.5600471 388.275200
   2018   2016   2022     1   109.8800469 414.216000
   2019   2039   2040     1   117.6800502 383.254400
   2020   2019   2039     1   108.8800464 416.726400
   2020   2019   2021     1   108.4600466 328.025600
   2021   2019   2039     1   108.8800464 416.726400
   2022   2023   2024     1   109.8800469 414.216000
   2022   2023   2025     1   109.8800469 414.216000
   2022   2026   2027     1   109.8800469 414.216000
   2022   2026   2028     1   109.8800469 414.216000
   2023   2032   2033     1   109.8000471 387.438400
   2023   2032   2034     1   109.8000471 387.438400
   2024   2023   2032     1   109.5600471 388.275200
   2024   2023   2025     1   108.4600466 328.025600
   2025   2023   2032     1   109.5600471 388.275200
   2026   2029   2030     1   109.8000471 387.438400
   2026   2029   2031     1   109.8000471 387.438400
   2027   2026   2029     1   109.5600471 388.275200
   2027   2026   2028     1   108.4600466 328.025600
   2028   2026   2029     1   109.5600471 388.275200
   2030   2029   2035     1   108.7700466 392.459200
   2030   2029   2031     1   107.5800459 329.699200
   2031   2029   2035     1   108.7700466 392.459200
   2033   2032   2036     1   108.7700466 392.459200
   2033   2032   2034     1   107.5800459 329.699200
   2034   2032   2036     1   108.7700466 392.459200
   2035   3568   3569     1   117.5500507 404.174400
   2036   3579   3580     1   117.5500507 404.174400
   2041   2044   2045     1   109.5600471 388.275200
   2041   2044   2046     1   109.5600471 388.275200
   2042   2041   2044     1   109.5600471 388.275200
   2042   2041   2047     1   109.8800469 414.216000
   2042   2041   2043     1   108.4600466 328.025600
   2043   2041   2044     1   109.5600471 388.275200
   2043   2041   2047     1   109.8800469 414.216000
   2044   2064   2065     1   117.6800502 383.254400
   2045   2044   2064     1   108.8800464 416.726400
   2045   2044   2046     1   108.4600466 328.025600
   2046   2044   2064     1   108.8800464 416.726400
   2047   2048   2049     1   109.8800469 414.216000
   2047   2048   2050     1   109.8800469 414.216000
   2047   2051   2052     1   109.8800469 414.216000
   2047   2051   2053     1   109.8800469 414.216000
   2048   2057   2058     1   109.8000471 387.438400
   2048   2057   2059     1   109.8000471 387.438400
   2049   2048   2057     1   109.5600471 388.275200
   2049   2048   2050     1   108.4600466 328.025600
   2050   2048   2057     1   109.5600471 388.275200
   2051   2054   2055     1   109.8000471 387.438400
   2051   2054   2056     1   109.8000471 387.438400
   2052   2051   2054     1   109.5600471 388.275200
   2052   2051   2053     1   108.4600466 328.025600
   2053   2051   2054     1   109.5600471 388.275200
   2055   2054   2060     1   108.7700466 392.459200
   2055   2054   2056     1   107.5800459 329.699200
   2056   2054   2060     1   108.7700466 392.459200
   2058   2057   2061     1   108.7700466 392.459200
   2058   2057   2059     1   107.5800459 329.699200
   2059   2057   2061     1   108.7700466 392.459200
   2060   3590   3591     1   117.5500507 404.174400
   2061   3601   3602     1   117.5500507 404.174400
   2066   2069   2070     1   109.5600471 388.275200
   2066   2069   2071     1   109.5600471 388.275200
   2067   2066   2069     1   109.5600471 388.275200
   2067   2066   2072     1   109.8800469 414.216000
   2067   2066   2068     1   108.4600466 328.025600
   2068   2066   2069     1   109.5600471 388.275200
   2068   2066   2072     1   109.8800469 414.216000
   2069   2089   2090     1   117.6800502 383.254400
   2070   2069   2089     1   108.8800464 416.726400
   2070   2069   2071     1   108.4600466 328.025600
   2071   2069   2089     1   108.8800464 416.726400
   2072   2073   2074     1   109.8800469 414.216000
   2072   2073   2075     1   109.8800469 414.216000
   2072   2076   2077     1   109.8800469 414.216000
   2072   2076   2078     1   109.8800469 414.216000
   2073   2082   2083     1   109.8000471 387.438400
   2073   2082   2084     1   109.8000471 387.438400
   2074   2073   2082     1   109.5600471 388.275200
   2074   2073   2075     1   108.4600466 328.025600
   2075   2073   2082     1   109.5600471 388.275200
   2076   2079   2080     1   109.8000471 387.438400
   2076   2079   2081     1   109.8000471 387.438400
   2077   2076   2079     1   109.5600471 388.275200
   2077   2076   2078     1   108.4600466 328.025600
   2078   2076   2079     1   109.5600471 388.275200
   2080   2079   2085     1   108.7700466 392.459200
   2080   2079   2081     1   107.5800459 329.699200
   2081   2079   2085     1   108.7700466 392.459200
   2083   2082   2086     1   108.7700466 392.459200
   2083   2082   2084     1   107.5800459 329.699200
   2084   2082   2086     1   108.7700466 392.459200
   2085   3612   3613     1   117.5500507 404.174400
   2086   3623   3624     1   117.5500507 404.174400
   2091   2094   2095     1   109.5600471 388.275200
   2091   2094   2096     1   109.5600471 388.275200
   2092   2091   2094     1   109.5600471 388.275200
   2092   2091   2097     1   109.8800469 414.216000
   2092   2091   2093     1   108.4600466 328.025600
   2093   2091   2094     1   109.5600471 388.275200
   2093   2091   2097     1   109.8800469 414.216000
   2094   2114   2115     1   117.6800502 383.254400
   2095   2094   2114     1   108.8800464 416.726400
   2095   2094   2096     1   108.4600466 328.025600
   2096   2094   2114     1   108.8800464 416.726400
   2097   2098   2099     1   109.8800469 414.216000
   2097   2098   2100     1   109.8800469 414.216000
   2097   2101   2102     1   109.8800469 414.216000
   2097   2101   2103     1   109.8800469 414.216000
   2098   2107   2108     1   109.8000471 387.438400
   2098   2107   2109     1   109.8000471 387.438400
   2099   2098   2107     1   109.5600471 388.275200
   2099   2098   2100     1   108.4600466 328.025600
   2100   2098   2107     1   109.5600471 388.275200
   2101   2104   2105     1   109.8000471 387.438400
   2101   2104   2106     1   109.8000471 387.438400
   2102   2101   2104     1   109.5600471 388.275200
   2102   2101   2103     1   108.4600466 328.025600
   2103   2101   2104     1   109.5600471 388.275200
   2105   2104   2110     1   108.7700466 392.459200
   2105   2104   2106     1   107.5800459 329.699200
   2106   2104   2110     1   108.7700466 392.459200
   2108   2107   2111     1   108.7700466 392.459200
   2108   2107   2109     1   107.5800459 329.699200
   2109   2107   2111     1   108.7700466 392.459200
   2110   3634   3635     1   117.5500507 404.174400
   2111   3645   3646     1   117.5500507 404.174400
   2116   2119   2120     1   109.5600471 388.275200
   2116   2119   2121     1   109.5600471 388.275200
   2117   2116   2119     1   109.5600471 388.275200
   2117   2116   2122     1   109.8800469 414.216000
   2117   2116   2118     1   108.4600466 328.025600
   2118   2116   2119     1   109.5600471 388.275200
   2118   2116   2122     1   109.8800469 414.216000
   2119   2139   2140     1   117.6800502 383.254400
   2120   2119   2139     1   108.8800464 416.726400
   2120   2119   2121     1   108.4600466 328.025600
   2121   2119   2139     1   108.8800464 416.726400
   2122   2123   2124     1   109.8800469 414.216000
   2122   2123   2125     1   109.8800469 414.216000
   2122   2126   2127     1   109.8800469 414.216000
   2122   2126   2128     1   109.8800469 414.216000
   2123   2132   2133     1   109.8000471 387.438400
   2123   2132   2134     1   109.8000471 387.438400
   2124   2123   2132     1   109.5600471 388.275200
   2124   2123   2125     1   108.4600466 328.025600
   2125   2123   2132     1   109.5600471 388.275200
   2126   2129   2130     1   109.8000471 387.438400
   2126   2129   2131     1   109.8000471 387.438400
   2127   2126   2129     1   109.5600471 388.275200
   2127   2126   2128     1   108.4600466 328.025600
   2128   2126   2129     1   109.5600471 388.275200
   2130   2129   2135     1   108.7700466 392.459200
   2130   2129   2131     1   107.5800459 329.699200
   2131   2129   2135     1   108.7700466 392.459200
   2133   2132   2136     1   108.7700466 392.459200
   2133   2132   2134     1   107.5800459 329.699200
   2134   2132   2136     1   108.7700466 392.459200
   2135   3656   3657     1   117.5500507 404.174400
   2136   3667   3668     1   117.5500507 404.174400
   2141   2144   2145     1   109.5600471 388.275200
   2141   2144   2146     1   109.5600471 388.275200
   2142   2141   2144     1   109.5600471 388.275200
   2142   2141   2147     1   109.8800469 414.216000
   2142   2141   2143     1   108.4600466 328.025600
   2143   2141   2144     1   109.5600471 388.275200
   2143   2141   2147     1   109.8800469 414.216000
   2144   2164   2165     1   117.6800502 383.254400
   2145   2144   2164     1   108.8800464 416.726400
   2145   2144   2146     1   108.4600466 328.025600
   2146   2144   2164     1   108.8800464 416.726400
   2147   2148   2149     1   109.8800469 414.216000
   2147   2148   2150     1   109.8800469 414.216000
   2147   2151   2152     1   109.8800469 414.216000
   2147   2151   2153     1   109.8800469 414.216000
   2148   2157   2158     1   109.8000471 387.438400
   2148   2157   2159     1   109.8000471 387.438400
   2149   2148   2157     1   109.5600471 388.275200
   2149   2148   2150     1   108.4600466 328.025600
   2150   2148   2157     1   109.5600471 388.275200
   2151   2154   2155     1   109.8000471 387.438400
   2151   2154   2156     1   109.8000471 387.438400
   2152   2151   2154     1   109.5600471 388.275200
   2152   2151   2153     1   108.4600466 328.025600
   2153   2151   2154     1   109.5600471 388.275200
   2155   2154   2160     1   108.7700466 392.459200
   2155   2154   2156     1   107.5800459 329.699200
   2156   2154   2160     1   108.7700466 392.459200
   2158   2157   2161     1   108.7700466 392.459200
   2158   2157   2159     1   107.5800459 329.699200
   2159   2157   2161     1   108.7700466 392.459200
   2160   3678   3679     1   117.5500507 404.174400
   2161   3689   3690     1   117.5500507 404.174400
   2166   2169   2170     1   109.5600471 388.275200
   2166   2169   2171     1   109.5600471 388.275200
   2167   2166   2169     1   109.5600471 388.275200
   2167   2166   2172     1   109.8800469 414.216000
   2167   2166   2168     1   108.4600466 328.025600
   2168   2166   2169     1   109.5600471 388.275200
   2168   2166   2172     1   109.8800469 414.216000
   2169   2189   2190     1   117.6800502 383.254400
   2170   2169   2189     1   108.8800464 416.726400
   2170   2169   2171     1   108.4600466 328.025600
   2171   2169   2189     1   108.8800464 416.726400
   2172   2173   2174     1   109.8800469 414.216000
   2172   2173   2175     1   109.8800469 414.216000
   2172   2176   2177     1   109.8800469 414.216000
   2172   2176   2178     1   109.8800469 414.216000
   2173   2182   2183     1   109.8000471 387.438400
   2173   2182   2184     1   109.8000471 387.438400
   2174   2173   2182     1   109.5600471 388.275200
   2174   2173   2175     1   108.4600466 328.025600
   2175   2173   2182     1   109.5600471 388.275200
   2176   2179   2180     1   109.8000471 387.438400
   2176   2179   2181     1   109.8000471 387.438400
   2177   2176   2179     1   109.5600471 388.275200
   2177   2176   2178     1   108.4600466 328.025600
   2178   2176   2179     1   109.5600471 388.275200
   2180   2179   2185     1   108.7700466 392.459200
   2180   2179   2181     1   107.5800459 329.699200
   2181   2179   2185     1   108.7700466 392.459200
   2183   2182   2186     1   108.7700466 392.459200
   2183   2182   2184     1   107.5800459 329.699200
   2184   2182   2186     1   108.7700466 392.459200
   2185   3700   3701     1   117.5500507 404.174400
   2186   3711   3712     1   117.5500507 404.174400
   2191   2194   2195     1   109.5600471 388.275200
   2191   2194   2196     1   109.5600471 388.275200
   2192   2191   2194     1   109.5600471 388.275200
   2192   2191   2197     1   109.8800469 414.216000
   2192   2191   2193     1   108.4600466 328.025600
   2193   2191   2194     1   109.5600471 388.275200
   2193   2191   2197     1   109.8800469 414.216000
   2194   2214   2215     1   117.6800502 383.254400
   2195   2194   2214     1   108.8800464 416.726400
   2195   2194   2196     1   108.4600466 328.025600
   2196   2194   2214     1   108.8800464 416.726400
   2197   2198   2199     1   109.8800469 414.216000
   2197   2198   2200     1   109.8800469 414.216000
   2197   2201   2202     1   109.8800469 414.216000
   2197   2201   2203     1   109.8800469 414.216000
   2198   2207   2208     1   109.8000471 387.438400
   2198   2207   2209     1   109.8000471 387.438400
   2199   2198   2207     1   109.5600471 388.275200
   2199   2198   2200     1   108.4600466 328.025600
   2200   2198   2207     1   109.5600471 388.275200
   2201   2204   2205     1   109.8000471 387.438400
   2201   2204   2206     1   109.8000471 387.438400
   2202   2201   2204     1   109.5600471 388.275200
   2202   2201   2203     1   108.4600466 328.025600
   2203   2201   2204     1   109.5600471 388.275200
   2205   2204   2210     1   108.7700466 392.459200
   2205   2204   2206     1   107.5800459 329.699200
   2206   2204   2210     1   108.7700466 392.459200
   2208   2207   2211     1   108.7700466 392.459200
   2208   2207   2209     1   107.5800459 329.699200
   2209   2207   2211     1   108.7700466 392.459200
   2210   3722   3723     1   117.5500507 404.174400
   2211   3733   3734     1   117.5500507 404.174400
   2216   2219   2220     1   109.5600471 388.275200
   2216   2219   2221     1   109.5600471 388.275200
   2217   2216   2219     1   109.5600471 388.275200
   2217   2216   2222     1   109.8800469 414.216000
   2217   2216   2218     1   108.4600466 328.025600
   2218   2216   2219     1   109.5600471 388.275200
   2218   2216   2222     1   109.8800469 414.216000
   2219   2239   2240     1   117.6800502 383.254400
   2220   2219   2239     1   108.8800464 416.726400
   2220   2219   2221     1   108.4600466 328.025600
   2221   2219   2239     1   108.8800464 416.726400
   2222   2223   2224     1   109.8800469 414.216000
   2222   2223   2225     1   109.8800469 414.216000
   2222   2226   2227     1   109.8800469 414.216000
   2222   2226   2228     1   109.8800469 414.216000
   2223   2232   2233     1   109.8000471 387.438400
   2223   2232   2234     1   109.8000471 387.438400
   2224   2223   2232     1   109.5600471 388.275200
   2224   2223   2225     1   108.4600466 328.025600
   2225   2223   2232     1   109.5600471 388.275200
   2226   2229   2230     1   109.8000471 387.438400
   2226   2229   2231     1   109.8000471 387.438400
   2227   2226   2229     1   109.5600471 388.275200
   2227   2226   2228     1   108.4600466 328.025600
   2228   2226   2229     1   109.5600471 388.275200
   2230   2229   2235     1   108.7700466 392.459200
   2230   2229   2231     1   107.5800459 329.699200
   2231   2229   2235     1   108.7700466 392.459200
   2233   2232   2236     1   108.7700466 392.459200
   2233   2232   2234     1   107.5800459 329.699200
   2234   2232   2236     1   108.7700466 392.459200
   2235   3744   3745     1   117.5500507 404.174400
   2236   3755   3756     1   117.5500507 404.174400
   2241   2244   2245     1   109.5600471 388.275200
   2241   2244   2246     1   109.5600471 388.275200
   2242   2241   2244     1   109.5600471 388.275200
   2242   2241   2247     1   109.8800469 414.216000
   2242   2241   2243     1   108.4600466 328.025600
   2243   2241   2244     1   109.5600471 388.275200
   2243   2241   2247     1   109.8800469 414.216000
   2244   2264   2265     1   117.6800502 383.254400
   2245   2244   2264     1   108.8800464 416.726400
   2245   2244   2246     1   108.4600466 328.025600
   2246   2244   2264     1   108.8800464 416.726400
   2247   2248   2249     1   109.8800469 414.216000
   2247   2248   2250     1   109.8800469 414.216000
   2247   2251   2252     1   109.8800469 414.216000
   2247   2251   2253     1   109.8800469 414.216000
   2248   2257   2258     1   109.8000471 387.438400
   2248   2257   2259     1   109.8000471 387.438400
   2249   2248   2257     1   109.5600471 388.275200
   2249   2248   2250     1   108.4600466 328.025600
   2250   2248   2257     1   109.5600471 388.275200
   2251   2254   2255     1   109.8000471 387.438400
   2251   2254   2256     1   109.8000471 387.438400
   2252   2251   2254     1   109.5600471 388.275200
   2252   2251   2253     1   108.4600466 328.025600
   2253   2251   2254     1   109.5600471 388.275200
   2255   2254   2260     1   108.7700466 392.459200
   2255   2254   2256     1   107.5800459 329.699200
   2256   2254   2260     1   108.7700466 392.459200
   2258   2257   2261     1   108.7700466 392.459200
   2258   2257   2259     1   107.5800459 329.699200
   2259   2257   2261     1   108.7700466 392.459200
   2260   3766   3767     1   117.5500507 404.174400
   2261   3777   3778     1   117.5500507 404.174400
   2266   2269   2270     1   109.5600471 388.275200
   2266   2269   2271     1   109.5600471 388.275200
   2267   2266   2269     1   109.5600471 388.275200
   2267   2266   2272     1   109.8800469 414.216000
   2267   2266   2268     1   108.4600466 328.025600
   2268   2266   2269     1   109.5600471 388.275200
   2268   2266   2272     1   109.8800469 414.216000
   2269   2289   2290     1   117.6800502 383.254400
   2270   2269   2289     1   108.8800464 416.726400
   2270   2269   2271     1   108.4600466 328.025600
   2271   2269   2289     1   108.8800464 416.726400
   2272   2273   2274     1   109.8800469 414.216000
   2272   2273   2275     1   109.8800469 414.216000
   2272   2276   2277     1   109.8800469 414.216000
   2272   2276   2278     1   109.8800469 414.216000
   2273   2282   2283     1   109.8000471 387.438400
   2273   2282   2284     1   109.8000471 387.438400
   2274   2273   2282     1   109.5600471 388.275200
   2274   2273   2275     1   108.4600466 328.025600
   2275   2273   2282     1   109.5600471 388.275200
   2276   2279   2280     1   109.8000471 387.438400
   2276   2279   2281     1   109.8000471 387.438400
   2277   2276   2279     1   109.5600471 388.275200
   2277   2276   2278     1   108.4600466 328.025600
   2278   2276   2279     1   109.5600471 388.275200
   2280   2279   2285     1   108.7700466 392.459200
   2280   2279   2281     1   107.5800459 329.699200
   2281   2279   2285     1   108.7700466 392.459200
   2283   2282   2286     1   108.7700466 392.459200
   2283   2282   2284     1   107.5800459 329.699200
   2284   2282   2286     1   108.7700466 392.459200
   2285   3788   3789     1   117.5500507 404.174400
   2286   3799   3800     1   117.5500507 404.174400
   2291   2294   2295     1   109.5600471 388.275200
   2291   2294   2296     1   109.5600471 388.275200
   2292   2291   2294     1   109.5600471 388.275200
   2292   2291   2297     1   109.8800469 414.216000
   2292   2291   2293     1   108.4600466 328.025600
   2293   2291   2294     1   109.5600471 388.275200
   2293   2291   2297     1   109.8800469 414.216000
   2294   2314   2315     1   117.6800502 383.254400
   2295   2294   2314     1   108.8800464 416.726400
   2295   2294   2296     1   108.4600466 328.025600
   2296   2294   2314     1   108.8800464 416.726400
   2297   2298   2299     1   109.8800469 414.216000
   2297   2298   2300     1   109.8800469 414.216000
   2297   2301   2302     1   109.8800469 414.216000
   2297   2301   2303     1   109.8800469 414.216000
   2298   2307   2308     1   109.8000471 387.438400
   2298   2307   2309     1   109.8000471 387.438400
   2299   2298   2307     1   109.5600471 388.275200
   2299   2298   2300     1   108.4600466 328.025600
   2300   2298   2307     1   109.5600471 388.275200
   2301   2304   2305     1   109.8000471 387.438400
   2301   2304   2306     1   109.8000471 387.438400
   2302   2301   2304     1   109.5600471 388.275200
   2302   2301   2303     1   108.4600466 328.025600
   2303   2301   2304     1   109.5600471 388.275200
   2305   2304   2310     1   108.7700466 392.459200
   2305   2304   2306     1   107.5800459 329.699200
   2306   2304   2310     1   108.7700466 392.459200
   2308   2307   2311     1   108.7700466 392.459200
   2308   2307   2309     1   107.5800459 329.699200
   2309   2307   2311     1   108.7700466 392.459200
   2310   3810   3811     1   117.5500507 404.174400
   2311   3821   3822     1   117.5500507 404.174400
   2316   2319   2320     1   109.5600471 388.275200
   2316   2319   2321     1   109.5600471 388.275200
   2317   2316   2319     1   109.5600471 388.275200
   2317   2316   2322     1   109.8800469 414.216000
   2317   2316   2318     1   108.4600466 328.025600
   2318   2316   2319     1   109.5600471 388.275200
   2318   2316   2322     1   109.8800469 414.216000
   2319   2339   2340     1   117.6800502 383.254400
   2320   2319   2339     1   108.8800464 416.726400
   2320   2319   2321     1   108.4600466 328.025600
   2321   2319   2339     1   108.8800464 416.726400
   2322   2323   2324     1   109.8800469 414.216000
   2322   2323   2325     1   109.8800469 414.216000
   2322   2326   2327     1   109.8800469 414.216000
   2322   2326   2328     1   109.8800469 414.216000
   2323   2332   2333     1   109.8000471 387.438400
   2323   2332   2334     1   109.8000471 387.438400
   2324   2323   2332     1   109.5600471 388.275200
   2324   2323   2325     1   108.4600466 328.025600
   2325   2323   2332     1   109.5600471 388.275200
   2326   2329   2330     1   109.8000471 387.438400
   2326   2329   2331     1   109.8000471 387.438400
   2327   2326   2329     1   109.5600471 388.275200
   2327   2326   2328     1   108.4600466 328.025600
   2328   2326   2329     1   109.5600471 388.275200
   2330   2329   2335     1   108.7700466 392.459200
   2330   2329   2331     1   107.5800459 329.699200
   2331   2329   2335     1   108.7700466 392.459200
   2333   2332   2336     1   108.7700466 392.459200
   2333   2332   2334     1   107.5800459 329.699200
   2334   2332   2336     1   108.7700466 392.459200
   2335   3832   3833     1   117.5500507 404.174400
   2336   3843   3844     1   117.5500507 404.174400
   2341   2344   2345     1   109.5600471 388.275200
   2341   2344   2346     1   109.5600471 388.275200
   2342   2341   2344     1   109.5600471 388.275200
   2342   2341   2347     1   109.8800469 414.216000
   2342   2341   2343     1   108.4600466 328.025600
   2343   2341   2344     1   109.5600471 388.275200
   2343   2341   2347     1   109.8800469 414.216000
   2344   2364   2365     1   117.6800502 383.254400
   2345   2344   2364     1   108.8800464 416.726400
   2345   2344   2346     1   108.4600466 328.025600
   2346   2344   2364     1   108.8800464 416.726400
   2347   2348   2349     1   109.8800469 414.216000
   2347   2348   2350     1   109.8800469 414.216000
   2347   2351   2352     1   109.8800469 414.216000
   2347   2351   2353     1   109.8800469 414.216000
   2348   2357   2358     1   109.8000471 387.438400
   2348   2357   2359     1   109.8000471 387.438400
   2349   2348   2357     1   109.5600471 388.275200
   2349   2348   2350     1   108.4600466 328.025600
   2350   2348   2357     1   109.5600471 388.275200
   2351   2354   2355     1   109.8000471 387.438400
   2351   2354   2356     1   109.8000471 387.438400
   2352   2351   2354     1   109.5600471 388.275200
   2352   2351   2353     1   108.4600466 328.025600
   2353   2351   2354     1   109.5600471 388.275200
   2355   2354   2360     1   108.7700466 392.459200
   2355   2354   2356     1   107.5800459 329.699200
   2356   2354   2360     1   108.7700466 392.459200
   2358   2357   2361     1   108.7700466 392.459200
   2358   2357   2359     1   107.5800459 329.699200
   2359   2357   2361     1   108.7700466 392.459200
   2360   3854   3855     1   117.5500507 404.174400
   2361   3865   3866     1   117.5500507 404.174400
   2366   2369   2370     1   109.5600471 388.275200
   2366   2369   2371     1   109.5600471 388.275200
   2367   2366   2369     1   109.5600471 388.275200
   2367   2366   2372     1   109.8800469 414.216000
   2367   2366   2368     1   108.4600466 328.025600
   2368   2366   2369     1   109.5600471 388.275200
   2368   2366   2372     1   109.8800469 414.216000
   2369   2389   2390     1   117.6800502 383.254400
   2370   2369   2389     1   108.8800464 416.726400
   2370   2369   2371     1   108.4600466 328.025600
   2371   2369   2389     1   108.8800464 416.726400
   2372   2373   2374     1   109.8800469 414.216000
   2372   2373   2375     1   109.8800469 414.216000
   2372   2376   2377     1   109.8800469 414.216000
   2372   2376   2378     1   109.8800469 414.216000
   2373   2382   2383     1   109.8000471 387.438400
   2373   2382   2384     1   109.8000471 387.438400
   2374   2373   2382     1   109.5600471 388.275200
   2374   2373   2375     1   108.4600466 328.025600
   2375   2373   2382     1   109.5600471 388.275200
   2376   2379   2380     1   109.8000471 387.438400
   2376   2379   2381     1   109.8000471 387.438400
   2377   2376   2379     1   109.5600471 388.275200
   2377   2376   2378     1   108.4600466 328.025600
   2378   2376   2379     1   109.5600471 388.275200
   2380   2379   2385     1   108.7700466 392.459200
   2380   2379   2381     1   107.5800459 329.699200
   2381   2379   2385     1   108.7700466 392.459200
   2383   2382   2386     1   108.7700466 392.459200
   2383   2382   2384     1   107.5800459 329.699200
   2384   2382   2386     1   108.7700466 392.459200
   2385   3876   3877     1   117.5500507 404.174400
   2386   3887   3888     1   117.5500507 404.174400
   2391   2394   2395     1   109.5600471 388.275200
   2391   2394   2396     1   109.5600471 388.275200
   2392   2391   2394     1   109.5600471 388.275200
   2392   2391   2397     1   109.8800469 414.216000
   2392   2391   2393     1   108.4600466 328.025600
   2393   2391   2394     1   109.5600471 388.275200
   2393   2391   2397     1   109.8800469 414.216000
   2394   2414   2415     1   117.6800502 383.254400
   2395   2394   2414     1   108.8800464 416.726400
   2395   2394   2396     1   108.4600466 328.025600
   2396   2394   2414     1   108.8800464 416.726400
   2397   2398   2399     1   109.8800469 414.216000
   2397   2398   2400     1   109.8800469 414.216000
   2397   2401   2402     1   109.8800469 414.216000
   2397   2401   2403     1   109.8800469 414.216000
   2398   2407   2408     1   109.8000471 387.438400
   2398   2407   2409     1   109.8000471 387.438400
   2399   2398   2407     1   109.5600471 388.275200
   2399   2398   2400     1   108.4600466 328.025600
   2400   2398   2407     1   109.5600471 388.275200
   2401   2404   2405     1   109.8000471 387.438400
   2401   2404   2406     1   109.8000471 387.438400
   2402   2401   2404     1   109.5600471 388.275200
   2402   2401   2403     1   108.4600466 328.025600
   2403   2401   2404     1   109.5600471 388.275200
   2405   2404   2410     1   108.7700466 392.459200
   2405   2404   2406     1   107.5800459 329.699200
   2406   2404   2410     1   108.7700466 392.459200
   2408   2407   2411     1   108.7700466 392.459200
   2408   2407   2409     1   107.5800459 329.699200
   2409   2407   2411     1   108.7700466 392.459200
   2410   3898   3899     1   117.5500507 404.174400
   2411   3909   3910     1   117.5500507 404.174400
   2416   2419   2420     1   109.5600471 388.275200
   2416   2419   2421     1   109.5600471 388.275200
   2417   2416   2419     1   109.5600471 388.275200
   2417   2416   2422     1   109.8800469 414.216000
   2417   2416   2418     1   108.4600466 328.025600
   2418   2416   2419     1   109.5600471 388.275200
   2418   2416   2422     1   109.8800469 414.216000
   2419   2439   2440     1   117.6800502 383.254400
   2420   2419   2439     1   108.8800464 416.726400
   2420   2419   2421     1   108.4600466 328.025600
   2421   2419   2439     1   108.8800464 416.726400
   2422   2423   2424     1   109.8800469 414.216000
   2422   2423   2425     1   109.8800469 414.216000
   2422   2426   2427     1   109.8800469 414.216000
   2422   2426   2428     1   109.8800469 414.216000
   2423   2432   2433     1   109.8000471 387.438400
   2423   2432   2434     1   109.8000471 387.438400
   2424   2423   2432     1   109.5600471 388.275200
   2424   2423   2425     1   108.4600466 328.025600
   2425   2423   2432     1   109.5600471 388.275200
   2426   2429   2430     1   109.8000471 387.438400
   2426   2429   2431     1   109.8000471 387.438400
   2427   2426   2429     1   109.5600471 388.275200
   2427   2426   2428     1   108.4600466 328.025600
   2428   2426   2429     1   109.5600471 388.275200
   2430   2429   2435     1   108.7700466 392.459200
   2430   2429   2431     1   107.5800459 329.699200
   2431   2429   2435     1   108.7700466 392.459200
   2433   2432   2436     1   108.7700466 392.459200
   2433   2432   2434     1   107.5800459 329.699200
   2434   2432   2436     1   108.7700466 392.459200
   2435   3920   3921     1   117.5500507 404.174400
   2436   3931   3932     1   117.5500507 404.174400
   2441   2444   2445     1   109.5600471 388.275200
   2441   2444   2446     1   109.5600471 388.275200
   2442   2441   2444     1   109.5600471 388.275200
   2442   2441   2447     1   109.8800469 414.216000
   2442   2441   2443     1   108.4600466 328.025600
   2443   2441   2444     1   109.5600471 388.275200
   2443   2441   2447     1   109.8800469 414.216000
   2444   2464   2465     1   117.6800502 383.254400
   2445   2444   2464     1   108.8800464 416.726400
   2445   2444   2446     1   108.4600466 328.025600
   2446   2444   2464     1   108.8800464 416.726400
   2447   2448   2449     1   109.8800469 414.216000
   2447   2448   2450     1   109.8800469 414.216000
   2447   2451   2452     1   109.8800469 414.216000
   2447   2451   2453     1   109.8800469 414.216000
   2448   2457   2458     1   109.8000471 387.438400
   2448   2457   2459     1   109.8000471 387.438400
   2449   2448   2457     1   109.5600471 388.275200
   2449   2448   2450     1   108.4600466 328.025600
   2450   2448   2457     1   109.5600471 388.275200
   2451   2454   2455     1   109.8000471 387.438400
   2451   2454   2456     1   109.8000471 387.438400
   2452   2451   2454     1   109.5600471 388.275200
   2452   2451   2453     1   108.4600466 328.025600
   2453   2451   2454     1   109.5600471 388.275200
   2455   2454   2460     1   108.7700466 392.459200
   2455   2454   2456     1   107.5800459 329.699200
   2456   2454   2460     1   108.7700466 392.459200
   2458   2457   2461     1   108.7700466 392.459200
   2458   2457   2459     1   107.5800459 329.699200
   2459   2457   2461     1   108.7700466 392.459200
   2460   3942   3943     1   117.5500507 404.174400
   2461   3953   3954     1   117.5500507 404.174400
   2466   2469   2470     1   109.5600471 388.275200
   2466   2469   2471     1   109.5600471 388.275200
   2467   2466   2469     1   109.5600471 388.275200
   2467   2466   2472     1   109.8800469 414.216000
   2467   2466   2468     1   108.4600466 328.025600
   2468   2466   2469     1   109.5600471 388.275200
   2468   2466   2472     1   109.8800469 414.216000
   2469   2489   2490     1   117.6800502 383.254400
   2470   2469   2489     1   108.8800464 416.726400
   2470   2469   2471     1   108.4600466 328.025600
   2471   2469   2489     1   108.8800464 416.726400
   2472   2473   2474     1   109.8800469 414.216000
   2472   2473   2475     1   109.8800469 414.216000
   2472   2476   2477     1   109.8800469 414.216000
   2472   2476   2478     1   109.8800469 414.216000
   2473   2482   2483     1   109.8000471 387.438400
   2473   2482   2484     1   109.8000471 387.438400
   2474   2473   2482     1   109.5600471 388.275200
   2474   2473   2475     1   108.4600466 328.025600
   2475   2473   2482     1   109.5600471 388.275200
   2476   2479   2480     1   109.8000471 387.438400
   2476   2479   2481     1   109.8000471 387.438400
   2477   2476   2479     1   109.5600471 388.275200
   2477   2476   2478     1   108.4600466 328.025600
   2478   2476   2479     1   109.5600471 388.275200
   2480   2479   2485     1   108.7700466 392.459200
   2480   2479   2481     1   107.5800459 329.699200
   2481   2479   2485     1   108.7700466 392.459200
   2483   2482   2486     1   108.7700466 392.459200
   2483   2482   2484     1   107.5800459 329.699200
   2484   2482   2486     1   108.7700466 392.459200
   2485   3964   3965     1   117.5500507 404.174400
   2486   3975   3976     1   117.5500507 404.174400
   2491   2494   2495     1   109.5600471 388.275200
   2491   2494   2496     1   109.5600471 388.275200
   2492   2491   2494     1   109.5600471 388.275200
   2492   2491   2497     1   109.8800469 414.216000
   2492   2491   2493     1   108.4600466 328.025600
   2493   2491   2494     1   109.5600471 388.275200
   2493   2491   2497     1   109.8800469 414.216000
   2494   2514   2515     1   117.6800502 383.254400
   2495   2494   2514     1   108.8800464 416.726400
   2495   2494   2496     1   108.4600466 328.025600
   2496   2494   2514     1   108.8800464 416.726400
   2497   2498   2499     1   109.8800469 414.216000
   2497   2498   2500     1   109.8800469 414.216000
   2497   2501   2502     1   109.8800469 414.216000
   2497   2501   2503     1   109.8800469 414.216000
   2498   2507   2508     1   109.8000471 387.438400
   2498   2507   2509     1   109.8000471 387.438400
   2499   2498   2507     1   109.5600471 388.275200
   2499   2498   2500     1   108.4600466 328.025600
   2500   2498   2507     1   109.5600471 388.275200
   2501   2504   2505     1   109.8000471 387.438400
   2501   2504   2506     1   109.8000471 387.438400
   2502   2501   2504     1   109.5600471 388.275200
   2502   2501   2503     1   108.4600466 328.025600
   2503   2501   2504     1   109.5600471 388.275200
   2505   2504   2510     1   108.7700466 392.459200
   2505   2504   2506     1   107.5800459 329.699200
   2506   2504   2510     1   108.7700466 392.459200
   2508   2507   2511     1   108.7700466 392.459200
   2508   2507   2509     1   107.5800459 329.699200
   2509   2507   2511     1   108.7700466 392.459200
   2510   3986   3987     1   117.5500507 404.174400
   2511   3997   3998     1   117.5500507 404.174400
   2516   2519   2520     1   109.5600471 388.275200
   2516   2519   2521     1   109.5600471 388.275200
   2517   2516   2519     1   109.5600471 388.275200
   2517   2516   2522     1   109.8800469 414.216000
   2517   2516   2518     1   108.4600466 328.025600
   2518   2516   2519     1   109.5600471 388.275200
   2518   2516   2522     1   109.8800469 414.216000
   2519   2539   2540     1   117.6800502 383.254400
   2520   2519   2539     1   108.8800464 416.726400
   2520   2519   2521     1   108.4600466 328.025600
   2521   2519   2539     1   108.8800464 416.726400
   2522   2523   2524     1   109.8800469 414.216000
   2522   2523   2525     1   109.8800469 414.216000
   2522   2526   2527     1   109.8800469 414.216000
   2522   2526   2528     1   109.8800469 414.216000
   2523   2532   2533     1   109.8000471 387.438400
   2523   2532   2534     1   109.8000471 387.438400
   2524   2523   2532     1   109.5600471 388.275200
   2524   2523   2525     1   108.4600466 328.025600
   2525   2523   2532     1   109.5600471 388.275200
   2526   2529   2530     1   109.8000471 387.438400
   2526   2529   2531     1   109.8000471 387.438400
   2527   2526   2529     1   109.5600471 388.275200
   2527   2526   2528     1   108.4600466 328.025600
   2528   2526   2529     1   109.5600471 388.275200
   2530   2529   2535     1   108.7700466 392.459200
   2530   2529   2531     1   107.5800459 329.699200
   2531   2529   2535     1   108.7700466 392.459200
   2533   2532   2536     1   108.7700466 392.459200
   2533   2532   2534     1   107.5800459 329.699200
   2534   2532   2536     1   108.7700466 392.459200
   2535   4008   4009     1   117.5500507 404.174400
   2536   4019   4020     1   117.5500507 404.174400
   2541   2544   2545     1   109.5600471 388.275200
   2541   2544   2546     1   109.5600471 388.275200
   2542   2541   2544     1   109.5600471 388.275200
   2542   2541   2547     1   109.8800469 414.216000
   2542   2541   2543     1   108.4600466 328.025600
   2543   2541   2544     1   109.5600471 388.275200
   2543   2541   2547     1   109.8800469 414.216000
   2544   2564   2565     1   117.6800502 383.254400
   2545   2544   2564     1   108.8800464 416.726400
   2545   2544   2546     1   108.4600466 328.025600
   2546   2544   2564     1   108.8800464 416.726400
   2547   2548   2549     1   109.8800469 414.216000
   2547   2548   2550     1   109.8800469 414.216000
   2547   2551   2552     1   109.8800469 414.216000
   2547   2551   2553     1   109.8800469 414.216000
   2548   2557   2558     1   109.8000471 387.438400
   2548   2557   2559     1   109.8000471 387.438400
   2549   2548   2557     1   109.5600471 388.275200
   2549   2548   2550     1   108.4600466 328.025600
   2550   2548   2557     1   109.5600471 388.275200
   2551   2554   2555     1   109.8000471 387.438400
   2551   2554   2556     1   109.8000471 387.438400
   2552   2551   2554     1   109.5600471 388.275200
   2552   2551   2553     1   108.4600466 328.025600
   2553   2551   2554     1   109.5600471 388.275200
   2555   2554   2560     1   108.7700466 392.459200
   2555   2554   2556     1   107.5800459 329.699200
   2556   2554   2560     1   108.7700466 392.459200
   2558   2557   2561     1   108.7700466 392.459200
   2558   2557   2559     1   107.5800459 329.699200
   2559   2557   2561     1   108.7700466 392.459200
   2560   4030   4031     1   117.5500507 404.174400
   2561   4041   4042     1   117.5500507 404.174400
   2566   2569   2570     1   109.5600471 388.275200
   2566   2569   2571     1   109.5600471 388.275200
   2567   2566   2569     1   109.5600471 388.275200
   2567   2566   2572     1   109.8800469 414.216000
   2567   2566   2568     1   108.4600466 328.025600
   2568   2566   2569     1   109.5600471 388.275200
   2568   2566   2572     1   109.8800469 414.216000
   2569   2589   2590     1   117.6800502 383.254400
   2570   2569   2589     1   108.8800464 416.726400
   2570   2569   2571     1   108.4600466 328.025600
   2571   2569   2589     1   108.8800464 416.726400
   2572   2573   2574     1   109.8800469 414.216000
   2572   2573   2575     1   109.8800469 414.216000
   2572   2576   2577     1   109.8800469 414.216000
   2572   2576   2578     1   109.8800469 414.216000
   2573   2582   2583     1   109.8000471 387.438400
   2573   2582   2584     1   109.8000471 387.438400
   2574   2573   2582     1   109.5600471 388.275200
   2574   2573   2575     1   108.4600466 328.025600
   2575   2573   2582     1   109.5600471 388.275200
   2576   2579   2580     1   109.8000471 387.438400
   2576   2579   2581     1   109.8000471 387.438400
   2577   2576   2579     1   109.5600471 388.275200
   2577   2576   2578     1   108.4600466 328.025600
   2578   2576   2579     1   109.5600471 388.275200
   2580   2579   2585     1   108.7700466 392.459200
   2580   2579   2581     1   107.5800459 329.699200
   2581   2579   2585     1   108.7700466 392.459200
   2583   2582   2586     1   108.7700466 392.459200
   2583   2582   2584     1   107.5800459 329.699200
   2584   2582   2586     1   108.7700466 392.459200
   2585   4052   4053     1   117.5500507 404.174400
   2586   4063   4064     1   117.5500507 404.174400
   2591   2594   2595     1   109.5600471 388.275200
   2591   2594   2596     1   109.5600471 388.275200
   2592   2591   2594     1   109.5600471 388.275200
   2592   2591   2597     1   109.8800469 414.216000
   2592   2591   2593     1   108.4600466 328.025600
   2593   2591   2594     1   109.5600471 388.275200
   2593   2591   2597     1   109.8800469 414.216000
   2594   2614   2615     1   117.6800502 383.254400
   2595   2594   2614     1   108.8800464 416.726400
   2595   2594   2596     1   108.4600466 328.025600
   2596   2594   2614     1   108.8800464 416.726400
   2597   2598   2599     1   109.8800469 414.216000
   2597   2598   2600     1   109.8800469 414.216000
   2597   2601   2602     1   109.8800469 414.216000
   2597   2601   2603     1   109.8800469 414.216000
   2598   2607   2608     1   109.8000471 387.438400
   2598   2607   2609     1   109.8000471 387.438400
   2599   2598   2607     1   109.5600471 388.275200
   2599   2598   2600     1   108.4600466 328.025600
   2600   2598   2607     1   109.5600471 388.275200
   2601   2604   2605     1   109.8000471 387.438400
   2601   2604   2606     1   109.8000471 387.438400
   2602   2601   2604     1   109.5600471 388.275200
   2602   2601   2603     1   108.4600466 328.025600
   2603   2601   2604     1   109.5600471 388.275200
   2605   2604   2610     1   108.7700466 392.459200
   2605   2604   2606     1   107.5800459 329.699200
   2606   2604   2610     1   108.7700466 392.459200
   2608   2607   2611     1   108.7700466 392.459200
   2608   2607   2609     1   107.5800459 329.699200
   2609   2607   2611     1   108.7700466 392.459200
   2610   4074   4075     1   117.5500507 404.174400
   2611   4085   4086     1   117.5500507 404.174400
   2616   2619   2620     1   109.5600471 388.275200
   2616   2619   2621     1   109.5600471 388.275200
   2617   2616   2619     1   109.5600471 388.275200
   2617   2616   2622     1   109.8800469 414.216000
   2617   2616   2618     1   108.4600466 328.025600
   2618   2616   2619     1   109.5600471 388.275200
   2618   2616   2622     1   109.8800469 414.216000
   2619   2639   2640     1   117.6800502 383.254400
   2620   2619   2639     1   108.8800464 416.726400
   2620   2619   2621     1   108.4600466 328.025600
   2621   2619   2639     1   108.8800464 416.726400
   2622   2623   2624     1   109.8800469 414.216000
   2622   2623   2625     1   109.8800469 414.216000
   2622   2626   2627     1   109.8800469 414.216000
   2622   2626   2628     1   109.8800469 414.216000
   2623   2632   2633     1   109.8000471 387.438400
   2623   2632   2634     1   109.8000471 387.438400
   2624   2623   2632     1   109.5600471 388.275200
   2624   2623   2625     1   108.4600466 328.025600
   2625   2623   2632     1   109.5600471 388.275200
   2626   2629   2630     1   109.8000471 387.438400
   2626   2629   2631     1   109.8000471 387.438400
   2627   2626   2629     1   109.5600471 388.275200
   2627   2626   2628     1   108.4600466 328.025600
   2628   2626   2629     1   109.5600471 388.275200
   2630   2629   2635     1   108.7700466 392.459200
   2630   2629   2631     1   107.5800459 329.699200
   2631   2629   2635     1   108.7700466 392.459200
   2633   2632   2636     1   108.7700466 392.459200
   2633   2632   2634     1   107.5800459 329.699200
   2634   2632   2636     1   108.7700466 392.459200
   2635   4096   4097     1   117.5500507 404.174400
   2636   4107   4108     1   117.5500507 404.174400
   2641   2644   2645     1   109.5600471 388.275200
   2641   2644   2646     1   109.5600471 388.275200
   2642   2641   2644     1   109.5600471 388.275200
   2642   2641   2647     1   109.8800469 414.216000
   2642   2641   2643     1   108.4600466 328.025600
   2643   2641   2644     1   109.5600471 388.275200
   2643   2641   2647     1   109.8800469 414.216000
   2644   2664   2665     1   117.6800502 383.254400
   2645   2644   2664     1   108.8800464 416.726400
   2645   2644   2646     1   108.4600466 328.025600
   2646   2644   2664     1   108.8800464 416.726400
   2647   2648   2649     1   109.8800469 414.216000
   2647   2648   2650     1   109.8800469 414.216000
   2647   2651   2652     1   109.8800469 414.216000
   2647   2651   2653     1   109.8800469 414.216000
   2648   2657   2658     1   109.8000471 387.438400
   2648   2657   2659     1   109.8000471 387.438400
   2649   2648   2657     1   109.5600471 388.275200
   2649   2648   2650     1   108.4600466 328.025600
   2650   2648   2657     1   109.5600471 388.275200
   2651   2654   2655     1   109.8000471 387.438400
   2651   2654   2656     1   109.8000471 387.438400
   2652   2651   2654     1   109.5600471 388.275200
   2652   2651   2653     1   108.4600466 328.025600
   2653   2651   2654     1   109.5600471 388.275200
   2655   2654   2660     1   108.7700466 392.459200
   2655   2654   2656     1   107.5800459 329.699200
   2656   2654   2660     1   108.7700466 392.459200
   2658   2657   2661     1   108.7700466 392.459200
   2658   2657   2659     1   107.5800459 329.699200
   2659   2657   2661     1   108.7700466 392.459200
   2660   4118   4119     1   117.5500507 404.174400
   2661   4129   4130     1   117.5500507 404.174400
   2666   2669   2670     1   109.5600471 388.275200
   2666   2669   2671     1   109.5600471 388.275200
   2667   2666   2669     1   109.5600471 388.275200
   2667   2666   2672     1   109.8800469 414.216000
   2667   2666   2668     1   108.4600466 328.025600
   2668   2666   2669     1   109.5600471 388.275200
   2668   2666   2672     1   109.8800469 414.216000
   2669   2689   2690     1   117.6800502 383.254400
   2670   2669   2689     1   108.8800464 416.726400
   2670   2669   2671     1   108.4600466 328.025600
   2671   2669   2689     1   108.8800464 416.726400
   2672   2673   2674     1   109.8800469 414.216000
   2672   2673   2675     1   109.8800469 414.216000
   2672   2676   2677     1   109.8800469 414.216000
   2672   2676   2678     1   109.8800469 414.216000
   2673   2682   2683     1   109.8000471 387.438400
   2673   2682   2684     1   109.8000471 387.438400
   2674   2673   2682     1   109.5600471 388.275200
   2674   2673   2675     1   108.4600466 328.025600
   2675   2673   2682     1   109.5600471 388.275200
   2676   2679   2680     1   109.8000471 387.438400
   2676   2679   2681     1   109.8000471 387.438400
   2677   2676   2679     1   109.5600471 388.275200
   2677   2676   2678     1   108.4600466 328.025600
   2678   2676   2679     1   109.5600471 388.275200
   2680   2679   2685     1   108.7700466 392.459200
   2680   2679   2681     1   107.5800459 329.699200
   2681   2679   2685     1   108.7700466 392.459200
   2683   2682   2686     1   108.7700466 392.459200
   2683   2682   2684     1   107.5800459 329.699200
   2684   2682   2686     1   108.7700466 392.459200
   2685   4140   4141     1   117.5500507 404.174400
   2686   4151   4152     1   117.5500507 404.174400
   2691   2694   2695     1   109.5600471 388.275200
   2691   2694   2696     1   109.5600471 388.275200
   2692   2691   2694     1   109.5600471 388.275200
   2692   2691   2697     1   109.8800469 414.216000
   2692   2691   2693     1   108.4600466 328.025600
   2693   2691   2694     1   109.5600471 388.275200
   2693   2691   2697     1   109.8800469 414.216000
   2694   2714   2715     1   117.6800502 383.254400
   2695   2694   2714     1   108.8800464 416.726400
   2695   2694   2696     1   108.4600466 328.025600
   2696   2694   2714     1   108.8800464 416.726400
   2697   2698   2699     1   109.8800469 414.216000
   2697   2698   2700     1   109.8800469 414.216000
   2697   2701   2702     1   109.8800469 414.216000
   2697   2701   2703     1   109.8800469 414.216000
   2698   2707   2708     1   109.8000471 387.438400
   2698   2707   2709     1   109.8000471 387.438400
   2699   2698   2707     1   109.5600471 388.275200
   2699   2698   2700     1   108.4600466 328.025600
   2700   2698   2707     1   109.5600471 388.275200
   2701   2704   2705     1   109.8000471 387.438400
   2701   2704   2706     1   109.8000471 387.438400
   2702   2701   2704     1   109.5600471 388.275200
   2702   2701   2703     1   108.4600466 328.025600
   2703   2701   2704     1   109.5600471 388.275200
   2705   2704   2710     1   108.7700466 392.459200
   2705   2704   2706     1   107.5800459 329.699200
   2706   2704   2710     1   108.7700466 392.459200
   2708   2707   2711     1   108.7700466 392.459200
   2708   2707   2709     1   107.5800459 329.699200
   2709   2707   2711     1   108.7700466 392.459200
   2710   4162   4163     1   117.5500507 404.174400
   2711   4173   4174     1   117.5500507 404.174400
   2716   2719   2720     1   109.5600471 388.275200
   2716   2719   2721     1   109.5600471 388.275200
   2717   2716   2719     1   109.5600471 388.275200
   2717   2716   2722     1   109.8800469 414.216000
   2717   2716   2718     1   108.4600466 328.025600
   2718   2716   2719     1   109.5600471 388.275200
   2718   2716   2722     1   109.8800469 414.216000
   2719   2739   2740     1   117.6800502 383.254400
   2720   2719   2739     1   108.8800464 416.726400
   2720   2719   2721     1   108.4600466 328.025600
   2721   2719   2739     1   108.8800464 416.726400
   2722   2723   2724     1   109.8800469 414.216000
   2722   2723   2725     1   109.8800469 414.216000
   2722   2726   2727     1   109.8800469 414.216000
   2722   2726   2728     1   109.8800469 414.216000
   2723   2732   2733     1   109.8000471 387.438400
   2723   2732   2734     1   109.8000471 387.438400
   2724   2723   2732     1   109.5600471 388.275200
   2724   2723   2725     1   108.4600466 328.025600
   2725   2723   2732     1   109.5600471 388.275200
   2726   2729   2730     1   109.8000471 387.438400
   2726   2729   2731     1   109.8000471 387.438400
   2727   2726   2729     1   109.5600471 388.275200
   2727   2726   2728     1   108.4600466 328.025600
   2728   2726   2729     1   109.5600471 388.275200
   2730   2729   2735     1   108.7700466 392.459200
   2730   2729   2731     1   107.5800459 329.699200
   2731   2729   2735     1   108.7700466 392.459200
   2733   2732   2736     1   108.7700466 392.459200
   2733   2732   2734     1   107.5800459 329.699200
   2734   2732   2736     1   108.7700466 392.459200
   2735   4184   4185     1   117.5500507 404.174400
   2736   4195   4196     1   117.5500507 404.174400
   2741   2744   2745     1   109.5600471 388.275200
   2741   2744   2746     1   109.5600471 388.275200
   2742   2741   2744     1   109.5600471 388.275200
   2742   2741   2747     1   109.8800469 414.216000
   2742   2741   2743     1   108.4600466 328.025600
   2743   2741   2744     1   109.5600471 388.275200
   2743   2741   2747     1   109.8800469 414.216000
   2744   2764   2765     1   117.6800502 383.254400
   2745   2744   2764     1   108.8800464 416.726400
   2745   2744   2746     1   108.4600466 328.025600
   2746   2744   2764     1   108.8800464 416.726400
   2747   2748   2749     1   109.8800469 414.216000
   2747   2748   2750     1   109.8800469 414.216000
   2747   2751   2752     1   109.8800469 414.216000
   2747   2751   2753     1   109.8800469 414.216000
   2748   2757   2758     1   109.8000471 387.438400
   2748   2757   2759     1   109.8000471 387.438400
   2749   2748   2757     1   109.5600471 388.275200
   2749   2748   2750     1   108.4600466 328.025600
   2750   2748   2757     1   109.5600471 388.275200
   2751   2754   2755     1   109.8000471 387.438400
   2751   2754   2756     1   109.8000471 387.438400
   2752   2751   2754     1   109.5600471 388.275200
   2752   2751   2753     1   108.4600466 328.025600
   2753   2751   2754     1   109.5600471 388.275200
   2755   2754   2760     1   108.7700466 392.459200
   2755   2754   2756     1   107.5800459 329.699200
   2756   2754   2760     1   108.7700466 392.459200
   2758   2757   2761     1   108.7700466 392.459200
   2758   2757   2759     1   107.5800459 329.699200
   2759   2757   2761     1   108.7700466 392.459200
   2760   4206   4207     1   117.5500507 404.174400
   2761   4217   4218     1   117.5500507 404.174400
   2766   2769   2770     1   109.5600471 388.275200
   2766   2769   2771     1   109.5600471 388.275200
   2767   2766   2769     1   109.5600471 388.275200
   2767   2766   2772     1   109.8800469 414.216000
   2767   2766   2768     1   108.4600466 328.025600
   2768   2766   2769     1   109.5600471 388.275200
   2768   2766   2772     1   109.8800469 414.216000
   2769   2789   2790     1   117.6800502 383.254400
   2770   2769   2789     1   108.8800464 416.726400
   2770   2769   2771     1   108.4600466 328.025600
   2771   2769   2789     1   108.8800464 416.726400
   2772   2773   2774     1   109.8800469 414.216000
   2772   2773   2775     1   109.8800469 414.216000
   2772   2776   2777     1   109.8800469 414.216000
   2772   2776   2778     1   109.8800469 414.216000
   2773   2782   2783     1   109.8000471 387.438400
   2773   2782   2784     1   109.8000471 387.438400
   2774   2773   2782     1   109.5600471 388.275200
   2774   2773   2775     1   108.4600466 328.025600
   2775   2773   2782     1   109.5600471 388.275200
   2776   2779   2780     1   109.8000471 387.438400
   2776   2779   2781     1   109.8000471 387.438400
   2777   2776   2779     1   109.5600471 388.275200
   2777   2776   2778     1   108.4600466 328.025600
   2778   2776   2779     1   109.5600471 388.275200
   2780   2779   2785     1   108.7700466 392.459200
   2780   2779   2781     1   107.5800459 329.699200
   2781   2779   2785     1   108.7700466 392.459200
   2783   2782   2786     1   108.7700466 392.459200
   2783   2782   2784     1   107.5800459 329.699200
   2784   2782   2786     1   108.7700466 392.459200
   2785   4228   4229     1   117.5500507 404.174400
   2786   4239   4240     1   117.5500507 404.174400
   2791   2794   2795     1   109.5600471 388.275200
   2791   2794   2796     1   109.5600471 388.275200
   2792   2791   2794     1   109.5600471 388.275200
   2792   2791   2797     1   109.8800469 414.216000
   2792   2791   2793     1   108.4600466 328.025600
   2793   2791   2794     1   109.5600471 388.275200
   2793   2791   2797     1   109.8800469 414.216000
   2794   2814   2815     1   117.6800502 383.254400
   2795   2794   2814     1   108.8800464 416.726400
   2795   2794   2796     1   108.4600466 328.025600
   2796   2794   2814     1   108.8800464 416.726400
   2797   2798   2799     1   109.8800469 414.216000
   2797   2798   2800     1   109.8800469 414.216000
   2797   2801   2802     1   109.8800469 414.216000
   2797   2801   2803     1   109.8800469 414.216000
   2798   2807   2808     1   109.8000471 387.438400
   2798   2807   2809     1   109.8000471 387.438400
   2799   2798   2807     1   109.5600471 388.275200
   2799   2798   2800     1   108.4600466 328.025600
   2800   2798   2807     1   109.5600471 388.275200
   2801   2804   2805     1   109.8000471 387.438400
   2801   2804   2806     1   109.8000471 387.438400
   2802   2801   2804     1   109.5600471 388.275200
   2802   2801   2803     1   108.4600466 328.025600
   2803   2801   2804     1   109.5600471 388.275200
   2805   2804   2810     1   108.7700466 392.459200
   2805   2804   2806     1   107.5800459 329.699200
   2806   2804   2810     1   108.7700466 392.459200
   2808   2807   2811     1   108.7700466 392.459200
   2808   2807   2809     1   107.5800459 329.699200
   2809   2807   2811     1   108.7700466 392.459200
   2810   4250   4251     1   117.5500507 404.174400
   2811   4261   4262     1   117.5500507 404.174400
   2816   2819   2820     1   109.5600471 388.275200
   2816   2819   2821     1   109.5600471 388.275200
   2817   2816   2819     1   109.5600471 388.275200
   2817   2816   2822     1   109.8800469 414.216000
   2817   2816   2818     1   108.4600466 328.025600
   2818   2816   2819     1   109.5600471 388.275200
   2818   2816   2822     1   109.8800469 414.216000
   2819   2839   2840     1   117.6800502 383.254400
   2820   2819   2839     1   108.8800464 416.726400
   2820   2819   2821     1   108.4600466 328.025600
   2821   2819   2839     1   108.8800464 416.726400
   2822   2823   2824     1   109.8800469 414.216000
   2822   2823   2825     1   109.8800469 414.216000
   2822   2826   2827     1   109.8800469 414.216000
   2822   2826   2828     1   109.8800469 414.216000
   2823   2832   2833     1   109.8000471 387.438400
   2823   2832   2834     1   109.8000471 387.438400
   2824   2823   2832     1   109.5600471 388.275200
   2824   2823   2825     1   108.4600466 328.025600
   2825   2823   2832     1   109.5600471 388.275200
   2826   2829   2830     1   109.8000471 387.438400
   2826   2829   2831     1   109.8000471 387.438400
   2827   2826   2829     1   109.5600471 388.275200
   2827   2826   2828     1   108.4600466 328.025600
   2828   2826   2829     1   109.5600471 388.275200
   2830   2829   2835     1   108.7700466 392.459200
   2830   2829   2831     1   107.5800459 329.699200
   2831   2829   2835     1   108.7700466 392.459200
   2833   2832   2836     1   108.7700466 392.459200
   2833   2832   2834     1   107.5800459 329.699200
   2834   2832   2836     1   108.7700466 392.459200
   2835   4272   4273     1   117.5500507 404.174400
   2836   4283   4284     1   117.5500507 404.174400
   2841   2844   2845     1   109.5600471 388.275200
   2841   2844   2846     1   109.5600471 388.275200
   2842   2841   2844     1   109.5600471 388.275200
   2842   2841   2847     1   109.8800469 414.216000
   2842   2841   2843     1   108.4600466 328.025600
   2843   2841   2844     1   109.5600471 388.275200
   2843   2841   2847     1   109.8800469 414.216000
   2844   2864   2865     1   117.6800502 383.254400
   2845   2844   2864     1   108.8800464 416.726400
   2845   2844   2846     1   108.4600466 328.025600
   2846   2844   2864     1   108.8800464 416.726400
   2847   2848   2849     1   109.8800469 414.216000
   2847   2848   2850     1   109.8800469 414.216000
   2847   2851   2852     1   109.8800469 414.216000
   2847   2851   2853     1   109.8800469 414.216000
   2848   2857   2858     1   109.8000471 387.438400
   2848   2857   2859     1   109.8000471 387.438400
   2849   2848   2857     1   109.5600471 388.275200
   2849   2848   2850     1   108.4600466 328.025600
   2850   2848   2857     1   109.5600471 388.275200
   2851   2854   2855     1   109.8000471 387.438400
   2851   2854   2856     1   109.8000471 387.438400
   2852   2851   2854     1   109.5600471 388.275200
   2852   2851   2853     1   108.4600466 328.025600
   2853   2851   2854     1   109.5600471 388.275200
   2855   2854   2860     1   108.7700466 392.459200
   2855   2854   2856     1   107.5800459 329.699200
   2856   2854   2860     1   108.7700466 392.459200
   2858   2857   2861     1   108.7700466 392.459200
   2858   2857   2859     1   107.5800459 329.699200
   2859   2857   2861     1   108.7700466 392.459200
   2860   4294   4295     1   117.5500507 404.174400
   2861   4305   4306     1   117.5500507 404.174400
   2866   2869   2870     1   109.5600471 388.275200
   2866   2869   2871     1   109.5600471 388.275200
   2867   2866   2869     1   109.5600471 388.275200
   2867   2866   2872     1   109.8800469 414.216000
   2867   2866   2868     1   108.4600466 328.025600
   2868   2866   2869     1   109.5600471 388.275200
   2868   2866   2872     1   109.8800469 414.216000
   2869   2889   2890     1   117.6800502 383.254400
   2870   2869   2889     1   108.8800464 416.726400
   2870   2869   2871     1   108.4600466 328.025600
   2871   2869   2889     1   108.8800464 416.726400
   2872   2873   2874     1   109.8800469 414.216000
   2872   2873   2875     1   109.8800469 414.216000
   2872   2876   2877     1   109.8800469 414.216000
   2872   2876   2878     1   109.8800469 414.216000
   2873   2882   2883     1   109.8000471 387.438400
   2873   2882   2884     1   109.8000471 387.438400
   2874   2873   2882     1   109.5600471 388.275200
   2874   2873   2875     1   108.4600466 328.025600
   2875   2873   2882     1   109.5600471 388.275200
   2876   2879   2880     1   109.8000471 387.438400
   2876   2879   2881     1   109.8000471 387.438400
   2877   2876   2879     1   109.5600471 388.275200
   2877   2876   2878     1   108.4600466 328.025600
   2878   2876   2879     1   109.5600471 388.275200
   2880   2879   2885     1   108.7700466 392.459200
   2880   2879   2881     1   107.5800459 329.699200
   2881   2879   2885     1   108.7700466 392.459200
   2883   2882   2886     1   108.7700466 392.459200
   2883   2882   2884     1   107.5800459 329.699200
   2884   2882   2886     1   108.7700466 392.459200
   2885   4316   4317     1   117.5500507 404.174400
   2886   4327   4328     1   117.5500507 404.174400
   2891   2894   2895     1   109.5600471 388.275200
   2891   2894   2896     1   109.5600471 388.275200
   2892   2891   2894     1   109.5600471 388.275200
   2892   2891   2897     1   109.8800469 414.216000
   2892   2891   2893     1   108.4600466 328.025600
   2893   2891   2894     1   109.5600471 388.275200
   2893   2891   2897     1   109.8800469 414.216000
   2894   2914   2915     1   117.6800502 383.254400
   2895   2894   2914     1   108.8800464 416.726400
   2895   2894   2896     1   108.4600466 328.025600
   2896   2894   2914     1   108.8800464 416.726400
   2897   2898   2899     1   109.8800469 414.216000
   2897   2898   2900     1   109.8800469 414.216000
   2897   2901   2902     1   109.8800469 414.216000
   2897   2901   2903     1   109.8800469 414.216000
   2898   2907   2908     1   109.8000471 387.438400
   2898   2907   2909     1   109.8000471 387.438400
   2899   2898   2907     1   109.5600471 388.275200
   2899   2898   2900     1   108.4600466 328.025600
   2900   2898   2907     1   109.5600471 388.275200
   2901   2904   2905     1   109.8000471 387.438400
   2901   2904   2906     1   109.8000471 387.438400
   2902   2901   2904     1   109.5600471 388.275200
   2902   2901   2903     1   108.4600466 328.025600
   2903   2901   2904     1   109.5600471 388.275200
   2905   2904   2910     1   108.7700466 392.459200
   2905   2904   2906     1   107.5800459 329.699200
   2906   2904   2910     1   108.7700466 392.459200
   2908   2907   2911     1   108.7700466 392.459200
   2908   2907   2909     1   107.5800459 329.699200
   2909   2907   2911     1   108.7700466 392.459200
   2910   4338   4339     1   117.5500507 404.174400
   2911   4349   4350     1   117.5500507 404.174400
   2916   2919   2920     1   109.5600471 388.275200
   2916   2919   2921     1   109.5600471 388.275200
   2917   2916   2919     1   109.5600471 388.275200
   2917   2916   2922     1   109.8800469 414.216000
   2917   2916   2918     1   108.4600466 328.025600
   2918   2916   2919     1   109.5600471 388.275200
   2918   2916   2922     1   109.8800469 414.216000
   2919   2939   2940     1   117.6800502 383.254400
   2920   2919   2939     1   108.8800464 416.726400
   2920   2919   2921     1   108.4600466 328.025600
   2921   2919   2939     1   108.8800464 416.726400
   2922   2923   2924     1   109.8800469 414.216000
   2922   2923   2925     1   109.8800469 414.216000
   2922   2926   2927     1   109.8800469 414.216000
   2922   2926   2928     1   109.8800469 414.216000
   2923   2932   2933     1   109.8000471 387.438400
   2923   2932   2934     1   109.8000471 387.438400
   2924   2923   2932     1   109.5600471 388.275200
   2924   2923   2925     1   108.4600466 328.025600
   2925   2923   2932     1   109.5600471 388.275200
   2926   2929   2930     1   109.8000471 387.438400
   2926   2929   2931     1   109.8000471 387.438400
   2927   2926   2929     1   109.5600471 388.275200
   2927   2926   2928     1   108.4600466 328.025600
   2928   2926   2929     1   109.5600471 388.275200
   2930   2929   2935     1   108.7700466 392.459200
   2930   2929   2931     1   107.5800459 329.699200
   2931   2929   2935     1   108.7700466 392.459200
   2933   2932   2936     1   108.7700466 392.459200
   2933   2932   2934     1   107.5800459 329.699200
   2934   2932   2936     1   108.7700466 392.459200
   2935   4360   4361     1   117.5500507 404.174400
   2936   4371   4372     1   117.5500507 404.174400
   2941   2944   2945     1   109.5600471 388.275200
   2941   2944   2946     1   109.5600471 388.275200
   2942   2941   2944     1   109.5600471 388.275200
   2942   2941   2947     1   109.8800469 414.216000
   2942   2941   2943     1   108.4600466 328.025600
   2943   2941   2944     1   109.5600471 388.275200
   2943   2941   2947     1   109.8800469 414.216000
   2944   2964   2965     1   117.6800502 383.254400
   2945   2944   2964     1   108.8800464 416.726400
   2945   2944   2946     1   108.4600466 328.025600
   2946   2944   2964     1   108.8800464 416.726400
   2947   2948   2949     1   109.8800469 414.216000
   2947   2948   2950     1   109.8800469 414.216000
   2947   2951   2952     1   109.8800469 414.216000
   2947   2951   2953     1   109.8800469 414.216000
   2948   2957   2958     1   109.8000471 387.438400
   2948   2957   2959     1   109.8000471 387.438400
   2949   2948   2957     1   109.5600471 388.275200
   2949   2948   2950     1   108.4600466 328.025600
   2950   2948   2957     1   109.5600471 388.275200
   2951   2954   2955     1   109.8000471 387.438400
   2951   2954   2956     1   109.8000471 387.438400
   2952   2951   2954     1   109.5600471 388.275200
   2952   2951   2953     1   108.4600466 328.025600
   2953   2951   2954     1   109.5600471 388.275200
   2955   2954   2960     1   108.7700466 392.459200
   2955   2954   2956     1   107.5800459 329.699200
   2956   2954   2960     1   108.7700466 392.459200
   2958   2957   2961     1   108.7700466 392.459200
   2958   2957   2959     1   107.5800459 329.699200
   2959   2957   2961     1   108.7700466 392.459200
   2960   4382   4383     1   117.5500507 404.174400
   2961   4393   4394     1   117.5500507 404.174400
   2966   2969   2970     1   109.5600471 388.275200
   2966   2969   2971     1   109.5600471 388.275200
   2967   2966   2969     1   109.5600471 388.275200
   2967   2966   2972     1   109.8800469 414.216000
   2967   2966   2968     1   108.4600466 328.025600
   2968   2966   2969     1   109.5600471 388.275200
   2968   2966   2972     1   109.8800469 414.216000
   2969   2989   2990     1   117.6800502 383.254400
   2970   2969   2989     1   108.8800464 416.726400
   2970   2969   2971     1   108.4600466 328.025600
   2971   2969   2989     1   108.8800464 416.726400
   2972   2973   2974     1   109.8800469 414.216000
   2972   2973   2975     1   109.8800469 414.216000
   2972   2976   2977     1   109.8800469 414.216000
   2972   2976   2978     1   109.8800469 414.216000
   2973   2982   2983     1   109.8000471 387.438400
   2973   2982   2984     1   109.8000471 387.438400
   2974   2973   2982     1   109.5600471 388.275200
   2974   2973   2975     1   108.4600466 328.025600
   2975   2973   2982     1   109.5600471 388.275200
   2976   2979   2980     1   109.8000471 387.438400
   2976   2979   2981     1   109.8000471 387.438400
   2977   2976   2979     1   109.5600471 388.275200
   2977   2976   2978     1   108.4600466 328.025600
   2978   2976   2979     1   109.5600471 388.275200
   2980   2979   2985     1   108.7700466 392.459200
   2980   2979   2981     1   107.5800459 329.699200
   2981   2979   2985     1   108.7700466 392.459200
   2983   2982   2986     1   108.7700466 392.459200
   2983   2982   2984     1   107.5800459 329.699200
   2984   2982   2986     1   108.7700466 392.459200
   2985   4404   4405     1   117.5500507 404.174400
   2986   4415   4416     1   117.5500507 404.174400
   2991   2994   2995     1   109.5600471 388.275200
   2991   2994   2996     1   109.5600471 388.275200
   2992   2991   2994     1   109.5600471 388.275200
   2992   2991   2997     1   109.8800469 414.216000
   2992   2991   2993     1   108.4600466 328.025600
   2993   2991   2994     1   109.5600471 388.275200
   2993   2991   2997     1   109.8800469 414.216000
   2994   3014   3015     1   117.6800502 383.254400
   2995   2994   3014     1   108.8800464 416.726400
   2995   2994   2996     1   108.4600466 328.025600
   2996   2994   3014     1   108.8800464 416.726400
   2997   2998   2999     1   109.8800469 414.216000
   2997   2998   3000     1   109.8800469 414.216000
   2997   3001   3002     1   109.8800469 414.216000
   2997   3001   3003     1   109.8800469 414.216000
   2998   3007   3008     1   109.8000471 387.438400
   2998   3007   3009     1   109.8000471 387.438400
   2999   2998   3007     1   109.5600471 388.275200
   2999   2998   3000     1   108.4600466 328.025600
   3000   2998   3007     1   109.5600471 388.275200
   3001   3004   3005     1   109.8000471 387.438400
   3001   3004   3006     1   109.8000471 387.438400
   3002   3001   3004     1   109.5600471 388.275200
   3002   3001   3003     1   108.4600466 328.025600
   3003   3001   3004     1   109.5600471 388.275200
   3005   3004   3010     1   108.7700466 392.459200
   3005   3004   3006     1   107.5800459 329.699200
   3006   3004   3010     1   108.7700466 392.459200
   3008   3007   3011     1   108.7700466 392.459200
   3008   3007   3009     1   107.5800459 329.699200
   3009   3007   3011     1   108.7700466 392.459200
   3010   4426   4427     1   117.5500507 404.174400
   3011   4437   4438     1   117.5500507 404.174400
   3016   3019   3020     1   109.5600471 388.275200
   3016   3019   3021     1   109.5600471 388.275200
   3017   3016   3019     1   109.5600471 388.275200
   3017   3016   3022     1   109.8800469 414.216000
   3017   3016   3018     1   108.4600466 328.025600
   3018   3016   3019     1   109.5600471 388.275200
   3018   3016   3022     1   109.8800469 414.216000
   3019   3039   3040     1   117.6800502 383.254400
   3020   3019   3039     1   108.8800464 416.726400
   3020   3019   3021     1   108.4600466 328.025600
   3021   3019   3039     1   108.8800464 416.726400
   3022   3023   3024     1   109.8800469 414.216000
   3022   3023   3025     1   109.8800469 414.216000
   3022   3026   3027     1   109.8800469 414.216000
   3022   3026   3028     1   109.8800469 414.216000
   3023   3032   3033     1   109.8000471 387.438400
   3023   3032   3034     1   109.8000471 387.438400
   3024   3023   3032     1   109.5600471 388.275200
   3024   3023   3025     1   108.4600466 328.025600
   3025   3023   3032     1   109.5600471 388.275200
   3026   3029   3030     1   109.8000471 387.438400
   3026   3029   3031     1   109.8000471 387.438400
   3027   3026   3029     1   109.5600471 388.275200
   3027   3026   3028     1   108.4600466 328.025600
   3028   3026   3029     1   109.5600471 388.275200
   3030   3029   3035     1   108.7700466 392.459200
   3030   3029   3031     1   107.5800459 329.699200
   3031   3029   3035     1   108.7700466 392.459200
   3033   3032   3036     1   108.7700466 392.459200
   3033   3032   3034     1   107.5800459 329.699200
   3034   3032   3036     1   108.7700466 392.459200
   3035   4448   4449     1   117.5500507 404.174400
   3036   4459   4460     1   117.5500507 404.174400
   3041   3044   3045     1   109.5600471 388.275200
   3041   3044   3046     1   109.5600471 388.275200
   3042   3041   3044     1   109.5600471 388.275200
   3042   3041   3047     1   109.8800469 414.216000
   3042   3041   3043     1   108.4600466 328.025600
   3043   3041   3044     1   109.5600471 388.275200
   3043   3041   3047     1   109.8800469 414.216000
   3044   3064   3065     1   117.6800502 383.254400
   3045   3044   3064     1   108.8800464 416.726400
   3045   3044   3046     1   108.4600466 328.025600
   3046   3044   3064     1   108.8800464 416.726400
   3047   3048   3049     1   109.8800469 414.216000
   3047   3048   3050     1   109.8800469 414.216000
   3047   3051   3052     1   109.8800469 414.216000
   3047   3051   3053     1   109.8800469 414.216000
   3048   3057   3058     1   109.8000471 387.438400
   3048   3057   3059     1   109.8000471 387.438400
   3049   3048   3057     1   109.5600471 388.275200
   3049   3048   3050     1   108.4600466 328.025600
   3050   3048   3057     1   109.5600471 388.275200
   3051   3054   3055     1   109.8000471 387.438400
   3051   3054   3056     1   109.8000471 387.438400
   3052   3051   3054     1   109.5600471 388.275200
   3052   3051   3053     1   108.4600466 328.025600
   3053   3051   3054     1   109.5600471 388.275200
   3055   3054   3060     1   108.7700466 392.459200
   3055   3054   3056     1   107.5800459 329.699200
   3056   3054   3060     1   108.7700466 392.459200
   3058   3057   3061     1   108.7700466 392.459200
   3058   3057   3059     1   107.5800459 329.699200
   3059   3057   3061     1   108.7700466 392.459200
   3060   4470   4471     1   117.5500507 404.174400
   3061   4481   4482     1   117.5500507 404.174400
   3066   3069   3070     1   109.5600471 388.275200
   3066   3069   3071     1   109.5600471 388.275200
   3067   3066   3069     1   109.5600471 388.275200
   3067   3066   3072     1   109.8800469 414.216000
   3067   3066   3068     1   108.4600466 328.025600
   3068   3066   3069     1   109.5600471 388.275200
   3068   3066   3072     1   109.8800469 414.216000
   3069   3089   3090     1   117.6800502 383.254400
   3070   3069   3089     1   108.8800464 416.726400
   3070   3069   3071     1   108.4600466 328.025600
   3071   3069   3089     1   108.8800464 416.726400
   3072   3073   3074     1   109.8800469 414.216000
   3072   3073   3075     1   109.8800469 414.216000
   3072   3076   3077     1   109.8800469 414.216000
   3072   3076   3078     1   109.8800469 414.216000
   3073   3082   3083     1   109.8000471 387.438400
   3073   3082   3084     1   109.8000471 387.438400
   3074   3073   3082     1   109.5600471 388.275200
   3074   3073   3075     1   108.4600466 328.025600
   3075   3073   3082     1   109.5600471 388.275200
   3076   3079   3080     1   109.8000471 387.438400
   3076   3079   3081     1   109.8000471 387.438400
   3077   3076   3079     1   109.5600471 388.275200
   3077   3076   3078     1   108.4600466 328.025600
   3078   3076   3079     1   109.5600471 388.275200
   3080   3079   3085     1   108.7700466 392.459200
   3080   3079   3081     1   107.5800459 329.699200
   3081   3079   3085     1   108.7700466 392.459200
   3083   3082   3086     1   108.7700466 392.459200
   3083   3082   3084     1   107.5800459 329.699200
   3084   3082   3086     1   108.7700466 392.459200
   3085   4492   4493     1   117.5500507 404.174400
   3086   4503   4504     1   117.5500507 404.174400
   3091   3094   3095     1   109.5600471 388.275200
   3091   3094   3096     1   109.5600471 388.275200
   3092   3091   3094     1   109.5600471 388.275200
   3092   3091   3097     1   109.8800469 414.216000
   3092   3091   3093     1   108.4600466 328.025600
   3093   3091   3094     1   109.5600471 388.275200
   3093   3091   3097     1   109.8800469 414.216000
   3094   3114   3115     1   117.6800502 383.254400
   3095   3094   3114     1   108.8800464 416.726400
   3095   3094   3096     1   108.4600466 328.025600
   3096   3094   3114     1   108.8800464 416.726400
   3097   3098   3099     1   109.8800469 414.216000
   3097   3098   3100     1   109.8800469 414.216000
   3097   3101   3102     1   109.8800469 414.216000
   3097   3101   3103     1   109.8800469 414.216000
   3098   3107   3108     1   109.8000471 387.438400
   3098   3107   3109     1   109.8000471 387.438400
   3099   3098   3107     1   109.5600471 388.275200
   3099   3098   3100     1   108.4600466 328.025600
   3100   3098   3107     1   109.5600471 388.275200
   3101   3104   3105     1   109.8000471 387.438400
   3101   3104   3106     1   109.8000471 387.438400
   3102   3101   3104     1   109.5600471 388.275200
   3102   3101   3103     1   108.4600466 328.025600
   3103   3101   3104     1   109.5600471 388.275200
   3105   3104   3110     1   108.7700466 392.459200
   3105   3104   3106     1   107.5800459 329.699200
   3106   3104   3110     1   108.7700466 392.459200
   3108   3107   3111     1   108.7700466 392.459200
   3108   3107   3109     1   107.5800459 329.699200
   3109   3107   3111     1   108.7700466 392.459200
   3110   4514   4515     1   117.5500507 404.174400
   3111   4525   4526     1   117.5500507 404.174400
   3116   3119   3120     1   109.5600471 388.275200
   3116   3119   3121     1   109.5600471 388.275200
   3117   3116   3119     1   109.5600471 388.275200
   3117   3116   3122     1   109.8800469 414.216000
   3117   3116   3118     1   108.4600466 328.025600
   3118   3116   3119     1   109.5600471 388.275200
   3118   3116   3122     1   109.8800469 414.216000
   3119   3139   3140     1   117.6800502 383.254400
   3120   3119   3139     1   108.8800464 416.726400
   3120   3119   3121     1   108.4600466 328.025600
   3121   3119   3139     1   108.8800464 416.726400
   3122   3123   3124     1   109.8800469 414.216000
   3122   3123   3125     1   109.8800469 414.216000
   3122   3126   3127     1   109.8800469 414.216000
   3122   3126   3128     1   109.8800469 414.216000
   3123   3132   3133     1   109.8000471 387.438400
   3123   3132   3134     1   109.8000471 387.438400
   3124   3123   3132     1   109.5600471 388.275200
   3124   3123   3125     1   108.4600466 328.025600
   3125   3123   3132     1   109.5600471 388.275200
   3126   3129   3130     1   109.8000471 387.438400
   3126   3129   3131     1   109.8000471 387.438400
   3127   3126   3129     1   109.5600471 388.275200
   3127   3126   3128     1   108.4600466 328.025600
   3128   3126   3129     1   109.5600471 388.275200
   3130   3129   3135     1   108.7700466 392.459200
   3130   3129   3131     1   107.5800459 329.699200
   3131   3129   3135     1   108.7700466 392.459200
   3133   3132   3136     1   108.7700466 392.459200
   3133   3132   3134     1   107.5800459 329.699200
   3134   3132   3136     1   108.7700466 392.459200
   3135   4536   4537     1   117.5500507 404.174400
   3136   4547   4548     1   117.5500507 404.174400
   3141   3144   3145     1   109.5600471 388.275200
   3141   3144   3146     1   109.5600471 388.275200
   3141   3150   3151     1   117.6800502 383.254400
   3142   3141   3144     1   109.5600471 388.275200
   3142   3141   3150     1   108.8800464 416.726400
   3142   3141   3143     1   108.4600466 328.025600
   3143   3141   3144     1   109.5600471 388.275200
   3143   3141   3150     1   108.8800464 416.726400
   3144   3147   3148     1   109.2900470 396.643200
   3144   3147   3149     1   109.2900470 396.643200
   3145   3144   3147     1   109.8800469 414.216000
   3145   3144   3146     1   108.4600466 328.025600
   3146   3144   3147     1   109.8800469 414.216000
   3148   3147   3149     1   106.4000456 346.435200
   3152   3155   3156     1   109.5600471 388.275200
   3152   3155   3157     1   109.5600471 388.275200
   3152   3161   3162     1   117.6800502 383.254400
   3153   3152   3155     1   109.5600471 388.275200
   3153   3152   3161     1   108.8800464 416.726400
   3153   3152   3154     1   108.4600466 328.025600
   3154   3152   3155     1   109.5600471 388.275200
   3154   3152   3161     1   108.8800464 416.726400
   3155   3158   3159     1   109.2900470 396.643200
   3155   3158   3160     1   109.2900470 396.643200
   3156   3155   3158     1   109.8800469 414.216000
   3156   3155   3157     1   108.4600466 328.025600
   3157   3155   3158     1   109.8800469 414.216000
   3159   3158   3160     1   106.4000456 346.435200
   3163   3166   3167     1   109.5600471 388.275200
   3163   3166   3168     1   109.5600471 388.275200
   3163   3172   3173     1   117.6800502 383.254400
   3164   3163   3166     1   109.5600471 388.275200
   3164   3163   3172     1   108.8800464 416.726400
   3164   3163   3165     1   108.4600466 328.025600
   3165   3163   3166     1   109.5600471 388.275200
   3165   3163   3172     1   108.8800464 416.726400
   3166   3169   3170     1   109.2900470 396.643200
   3166   3169   3171     1   109.2900470 396.643200
   3167   3166   3169     1   109.8800469 414.216000
   3167   3166   3168     1   108.4600466 328.025600
   3168   3166   3169     1   109.8800469 414.216000
   3170   3169   3171     1   106.4000456 346.435200
   3174   3177   3178     1   109.5600471 388.275200
   3174   3177   3179     1   109.5600471 388.275200
   3174   3183   3184     1   117.6800502 383.254400
   3175   3174   3177     1   109.5600471 388.275200
   3175   3174   3183     1   108.8800464 416.726400
   3175   3174   3176     1   108.4600466 328.025600
   3176   3174   3177     1   109.5600471 388.275200
   3176   3174   3183     1   108.8800464 416.726400
   3177   3180   3181     1   109.2900470 396.643200
   3177   3180   3182     1   109.2900470 396.643200
   3178   3177   3180     1   109.8800469 414.216000
   3178   3177   3179     1   108.4600466 328.025600
   3179   3177   3180     1   109.8800469 414.216000
   3181   3180   3182     1   106.4000456 346.435200
   3185   3188   3189     1   109.5600471 388.275200
   3185   3188   3190     1   109.5600471 388.275200
   3185   3194   3195     1   117.6800502 383.254400
   3186   3185   3188     1   109.5600471 388.275200
   3186   3185   3194     1   108.8800464 416.726400
   3186   3185   3187     1   108.4600466 328.025600
   3187   3185   3188     1   109.5600471 388.275200
   3187   3185   3194     1   108.8800464 416.726400
   3188   3191   3192     1   109.2900470 396.643200
   3188   3191   3193     1   109.2900470 396.643200
   3189   3188   3191     1   109.8800469 414.216000
   3189   3188   3190     1   108.4600466 328.025600
   3190   3188   3191     1   109.8800469 414.216000
   3192   3191   3193     1   106.4000456 346.435200
   3196   3199   3200     1   109.5600471 388.275200
   3196   3199   3201     1   109.5600471 388.275200
   3196   3205   3206     1   117.6800502 383.254400
   3197   3196   3199     1   109.5600471 388.275200
   3197   3196   3205     1   108.8800464 416.726400
   3197   3196   3198     1   108.4600466 328.025600
   3198   3196   3199     1   109.5600471 388.275200
   3198   3196   3205     1   108.8800464 416.726400
   3199   3202   3203     1   109.2900470 396.643200
   3199   3202   3204     1   109.2900470 396.643200
   3200   3199   3202     1   109.8800469 414.216000
   3200   3199   3201     1   108.4600466 328.025600
   3201   3199   3202     1   109.8800469 414.216000
   3203   3202   3204     1   106.4000456 346.435200
   3207   3210   3211     1   109.5600471 388.275200
   3207   3210   3212     1   109.5600471 388.275200
   3207   3216   3217     1   117.6800502 383.254400
   3208   3207   3210     1   109.5600471 388.275200
   3208   3207   3216     1   108.8800464 416.726400
   3208   3207   3209     1   108.4600466 328.025600
   3209   3207   3210     1   109.5600471 388.275200
   3209   3207   3216     1   108.8800464 416.726400
   3210   3213   3214     1   109.2900470 396.643200
   3210   3213   3215     1   109.2900470 396.643200
   3211   3210   3213     1   109.8800469 414.216000
   3211   3210   3212     1   108.4600466 328.025600
   3212   3210   3213     1   109.8800469 414.216000
   3214   3213   3215     1   106.4000456 346.435200
   3218   3221   3222     1   109.5600471 388.275200
   3218   3221   3223     1   109.5600471 388.275200
   3218   3227   3228     1   117.6800502 383.254400
   3219   3218   3221     1   109.5600471 388.275200
   3219   3218   3227     1   108.8800464 416.726400
   3219   3218   3220     1   108.4600466 328.025600
   3220   3218   3221     1   109.5600471 388.275200
   3220   3218   3227     1   108.8800464 416.726400
   3221   3224   3225     1   109.2900470 396.643200
   3221   3224   3226     1   109.2900470 396.643200
   3222   3221   3224     1   109.8800469 414.216000
   3222   3221   3223     1   108.4600466 328.025600
   3223   3221   3224     1   109.8800469 414.216000
   3225   3224   3226     1   106.4000456 346.435200
   3229   3232   3233     1   109.5600471 388.275200
   3229   3232   3234     1   109.5600471 388.275200
   3229   3238   3239     1   117.6800502 383.254400
   3230   3229   3232     1   109.5600471 388.275200
   3230   3229   3238     1   108.8800464 416.726400
   3230   3229   3231     1   108.4600466 328.025600
   3231   3229   3232     1   109.5600471 388.275200
   3231   3229   3238     1   108.8800464 416.726400
   3232   3235   3236     1   109.2900470 396.643200
   3232   3235   3237     1   109.2900470 396.643200
   3233   3232   3235     1   109.8800469 414.216000
   3233   3232   3234     1   108.4600466 328.025600
   3234   3232   3235     1   109.8800469 414.216000
   3236   3235   3237     1   106.4000456 346.435200
   3240   3243   3244     1   109.5600471 388.275200
   3240   3243   3245     1   109.5600471 388.275200
   3240   3249   3250     1   117.6800502 383.254400
   3241   3240   3243     1   109.5600471 388.275200
   3241   3240   3249     1   108.8800464 416.726400
   3241   3240   3242     1   108.4600466 328.025600
   3242   3240   3243     1   109.5600471 388.275200
   3242   3240   3249     1   108.8800464 416.726400
   3243   3246   3247     1   109.2900470 396.643200
   3243   3246   3248     1   109.2900470 396.643200
   3244   3243   3246     1   109.8800469 414.216000
   3244   3243   3245     1   108.4600466 328.025600
   3245   3243   3246     1   109.8800469 414.216000
   3247   3246   3248     1   106.4000456 346.435200
   3251   3254   3255     1   109.5600471 388.275200
   3251   3254   3256     1   109.5600471 388.275200
   3251   3260   3261     1   117.6800502 383.254400
   3252   3251   3254     1   109.5600471 388.275200
   3252   3251   3260     1   108.8800464 416.726400
   3252   3251   3253     1   108.4600466 328.025600
   3253   3251   3254     1   109.5600471 388.275200
   3253   3251   3260     1   108.8800464 416.726400
   3254   3257   3258     1   109.2900470 396.643200
   3254   3257   3259     1   109.2900470 396.643200
   3255   3254   3257     1   109.8800469 414.216000
   3255   3254   3256     1   108.4600466 328.025600
   3256   3254   3257     1   109.8800469 414.216000
   3258   3257   3259     1   106.4000456 346.435200
   3262   3265   3266     1   109.5600471 388.275200
   3262   3265   3267     1   109.5600471 388.275200
   3262   3271   3272     1   117.6800502 383.254400
   3263   3262   3265     1   109.5600471 388.275200
   3263   3262   3271     1   108.8800464 416.726400
   3263   3262   3264     1   108.4600466 328.025600
   3264   3262   3265     1   109.5600471 388.275200
   3264   3262   3271     1   108.8800464 416.726400
   3265   3268   3269     1   109.2900470 396.643200
   3265   3268   3270     1   109.2900470 396.643200
   3266   3265   3268     1   109.8800469 414.216000
   3266   3265   3267     1   108.4600466 328.025600
   3267   3265   3268     1   109.8800469 414.216000
   3269   3268   3270     1   106.4000456 346.435200
   3273   3276   3277     1   109.5600471 388.275200
   3273   3276   3278     1   109.5600471 388.275200
   3273   3282   3283     1   117.6800502 383.254400
   3274   3273   3276     1   109.5600471 388.275200
   3274   3273   3282     1   108.8800464 416.726400
   3274   3273   3275     1   108.4600466 328.025600
   3275   3273   3276     1   109.5600471 388.275200
   3275   3273   3282     1   108.8800464 416.726400
   3276   3279   3280     1   109.2900470 396.643200
   3276   3279   3281     1   109.2900470 396.643200
   3277   3276   3279     1   109.8800469 414.216000
   3277   3276   3278     1   108.4600466 328.025600
   3278   3276   3279     1   109.8800469 414.216000
   3280   3279   3281     1   106.4000456 346.435200
   3284   3287   3288     1   109.5600471 388.275200
   3284   3287   3289     1   109.5600471 388.275200
   3284   3293   3294     1   117.6800502 383.254400
   3285   3284   3287     1   109.5600471 388.275200
   3285   3284   3293     1   108.8800464 416.726400
   3285   3284   3286     1   108.4600466 328.025600
   3286   3284   3287     1   109.5600471 388.275200
   3286   3284   3293     1   108.8800464 416.726400
   3287   3290   3291     1   109.2900470 396.643200
   3287   3290   3292     1   109.2900470 396.643200
   3288   3287   3290     1   109.8800469 414.216000
   3288   3287   3289     1   108.4600466 328.025600
   3289   3287   3290     1   109.8800469 414.216000
   3291   3290   3292     1   106.4000456 346.435200
   3295   3298   3299     1   109.5600471 388.275200
   3295   3298   3300     1   109.5600471 388.275200
   3295   3304   3305     1   117.6800502 383.254400
   3296   3295   3298     1   109.5600471 388.275200
   3296   3295   3304     1   108.8800464 416.726400
   3296   3295   3297     1   108.4600466 328.025600
   3297   3295   3298     1   109.5600471 388.275200
   3297   3295   3304     1   108.8800464 416.726400
   3298   3301   3302     1   109.2900470 396.643200
   3298   3301   3303     1   109.2900470 396.643200
   3299   3298   3301     1   109.8800469 414.216000
   3299   3298   3300     1   108.4600466 328.025600
   3300   3298   3301     1   109.8800469 414.216000
   3302   3301   3303     1   106.4000456 346.435200
   3306   3309   3310     1   109.5600471 388.275200
   3306   3309   3311     1   109.5600471 388.275200
   3306   3315   3316     1   117.6800502 383.254400
   3307   3306   3309     1   109.5600471 388.275200
   3307   3306   3315     1   108.8800464 416.726400
   3307   3306   3308     1   108.4600466 328.025600
   3308   3306   3309     1   109.5600471 388.275200
   3308   3306   3315     1   108.8800464 416.726400
   3309   3312   3313     1   109.2900470 396.643200
   3309   3312   3314     1   109.2900470 396.643200
   3310   3309   3312     1   109.8800469 414.216000
   3310   3309   3311     1   108.4600466 328.025600
   3311   3309   3312     1   109.8800469 414.216000
   3313   3312   3314     1   106.4000456 346.435200
   3317   3320   3321     1   109.5600471 388.275200
   3317   3320   3322     1   109.5600471 388.275200
   3317   3326   3327     1   117.6800502 383.254400
   3318   3317   3320     1   109.5600471 388.275200
   3318   3317   3326     1   108.8800464 416.726400
   3318   3317   3319     1   108.4600466 328.025600
   3319   3317   3320     1   109.5600471 388.275200
   3319   3317   3326     1   108.8800464 416.726400
   3320   3323   3324     1   109.2900470 396.643200
   3320   3323   3325     1   109.2900470 396.643200
   3321   3320   3323     1   109.8800469 414.216000
   3321   3320   3322     1   108.4600466 328.025600
   3322   3320   3323     1   109.8800469 414.216000
   3324   3323   3325     1   106.4000456 346.435200
   3328   3331   3332     1   109.5600471 388.275200
   3328   3331   3333     1   109.5600471 388.275200
   3328   3337   3338     1   117.6800502 383.254400
   3329   3328   3331     1   109.5600471 388.275200
   3329   3328   3337     1   108.8800464 416.726400
   3329   3328   3330     1   108.4600466 328.025600
   3330   3328   3331     1   109.5600471 388.275200
   3330   3328   3337     1   108.8800464 416.726400
   3331   3334   3335     1   109.2900470 396.643200
   3331   3334   3336     1   109.2900470 396.643200
   3332   3331   3334     1   109.8800469 414.216000
   3332   3331   3333     1   108.4600466 328.025600
   3333   3331   3334     1   109.8800469 414.216000
   3335   3334   3336     1   106.4000456 346.435200
   3339   3342   3343     1   109.5600471 388.275200
   3339   3342   3344     1   109.5600471 388.275200
   3339   3348   3349     1   117.6800502 383.254400
   3340   3339   3342     1   109.5600471 388.275200
   3340   3339   3348     1   108.8800464 416.726400
   3340   3339   3341     1   108.4600466 328.025600
   3341   3339   3342     1   109.5600471 388.275200
   3341   3339   3348     1   108.8800464 416.726400
   3342   3345   3346     1   109.2900470 396.643200
   3342   3345   3347     1   109.2900470 396.643200
   3343   3342   3345     1   109.8800469 414.216000
   3343   3342   3344     1   108.4600466 328.025600
   3344   3342   3345     1   109.8800469 414.216000
   3346   3345   3347     1   106.4000456 346.435200
   3350   3353   3354     1   109.5600471 388.275200
   3350   3353   3355     1   109.5600471 388.275200
   3350   3359   3360     1   117.6800502 383.254400
   3351   3350   3353     1   109.5600471 388.275200
   3351   3350   3359     1   108.8800464 416.726400
   3351   3350   3352     1   108.4600466 328.025600
   3352   3350   3353     1   109.5600471 388.275200
   3352   3350   3359     1   108.8800464 416.726400
   3353   3356   3357     1   109.2900470 396.643200
   3353   3356   3358     1   109.2900470 396.643200
   3354   3353   3356     1   109.8800469 414.216000
   3354   3353   3355     1   108.4600466 328.025600
   3355   3353   3356     1   109.8800469 414.216000
   3357   3356   3358     1   106.4000456 346.435200
   3361   3364   3365     1   109.5600471 388.275200
   3361   3364   3366     1   109.5600471 388.275200
   3361   3370   3371     1   117.6800502 383.254400
   3362   3361   3364     1   109.5600471 388.275200
   3362   3361   3370     1   108.8800464 416.726400
   3362   3361   3363     1   108.4600466 328.025600
   3363   3361   3364     1   109.5600471 388.275200
   3363   3361   3370     1   108.8800464 416.726400
   3364   3367   3368     1   109.2900470 396.643200
   3364   3367   3369     1   109.2900470 396.643200
   3365   3364   3367     1   109.8800469 414.216000
   3365   3364   3366     1   108.4600466 328.025600
   3366   3364   3367     1   109.8800469 414.216000
   3368   3367   3369     1   106.4000456 346.435200
   3372   3375   3376     1   109.5600471 388.275200
   3372   3375   3377     1   109.5600471 388.275200
   3372   3381   3382     1   117.6800502 383.254400
   3373   3372   3375     1   109.5600471 388.275200
   3373   3372   3381     1   108.8800464 416.726400
   3373   3372   3374     1   108.4600466 328.025600
   3374   3372   3375     1   109.5600471 388.275200
   3374   3372   3381     1   108.8800464 416.726400
   3375   3378   3379     1   109.2900470 396.643200
   3375   3378   3380     1   109.2900470 396.643200
   3376   3375   3378     1   109.8800469 414.216000
   3376   3375   3377     1   108.4600466 328.025600
   3377   3375   3378     1   109.8800469 414.216000
   3379   3378   3380     1   106.4000456 346.435200
   3383   3386   3387     1   109.5600471 388.275200
   3383   3386   3388     1   109.5600471 388.275200
   3383   3392   3393     1   117.6800502 383.254400
   3384   3383   3386     1   109.5600471 388.275200
   3384   3383   3392     1   108.8800464 416.726400
   3384   3383   3385     1   108.4600466 328.025600
   3385   3383   3386     1   109.5600471 388.275200
   3385   3383   3392     1   108.8800464 416.726400
   3386   3389   3390     1   109.2900470 396.643200
   3386   3389   3391     1   109.2900470 396.643200
   3387   3386   3389     1   109.8800469 414.216000
   3387   3386   3388     1   108.4600466 328.025600
   3388   3386   3389     1   109.8800469 414.216000
   3390   3389   3391     1   106.4000456 346.435200
   3394   3397   3398     1   109.5600471 388.275200
   3394   3397   3399     1   109.5600471 388.275200
   3394   3403   3404     1   117.6800502 383.254400
   3395   3394   3397     1   109.5600471 388.275200
   3395   3394   3403     1   108.8800464 416.726400
   3395   3394   3396     1   108.4600466 328.025600
   3396   3394   3397     1   109.5600471 388.275200
   3396   3394   3403     1   108.8800464 416.726400
   3397   3400   3401     1   109.2900470 396.643200
   3397   3400   3402     1   109.2900470 396.643200
   3398   3397   3400     1   109.8800469 414.216000
   3398   3397   3399     1   108.4600466 328.025600
   3399   3397   3400     1   109.8800469 414.216000
   3401   3400   3402     1   106.4000456 346.435200
   3405   3408   3409     1   109.5600471 388.275200
   3405   3408   3410     1   109.5600471 388.275200
   3405   3414   3415     1   117.6800502 383.254400
   3406   3405   3408     1   109.5600471 388.275200
   3406   3405   3414     1   108.8800464 416.726400
   3406   3405   3407     1   108.4600466 328.025600
   3407   3405   3408     1   109.5600471 388.275200
   3407   3405   3414     1   108.8800464 416.726400
   3408   3411   3412     1   109.2900470 396.643200
   3408   3411   3413     1   109.2900470 396.643200
   3409   3408   3411     1   109.8800469 414.216000
   3409   3408   3410     1   108.4600466 328.025600
   3410   3408   3411     1   109.8800469 414.216000
   3412   3411   3413     1   106.4000456 346.435200
   3416   3419   3420     1   109.5600471 388.275200
   3416   3419   3421     1   109.5600471 388.275200
   3416   3425   3426     1   117.6800502 383.254400
   3417   3416   3419     1   109.5600471 388.275200
   3417   3416   3425     1   108.8800464 416.726400
   3417   3416   3418     1   108.4600466 328.025600
   3418   3416   3419     1   109.5600471 388.275200
   3418   3416   3425     1   108.8800464 416.726400
   3419   3422   3423     1   109.2900470 396.643200
   3419   3422   3424     1   109.2900470 396.643200
   3420   3419   3422     1   109.8800469 414.216000
   3420   3419   3421     1   108.4600466 328.025600
   3421   3419   3422     1   109.8800469 414.216000
   3423   3422   3424     1   106.4000456 346.435200
   3427   3430   3431     1   109.5600471 388.275200
   3427   3430   3432     1   109.5600471 388.275200
   3427   3436   3437     1   117.6800502 383.254400
   3428   3427   3430     1   109.5600471 388.275200
   3428   3427   3436     1   108.8800464 416.726400
   3428   3427   3429     1   108.4600466 328.025600
   3429   3427   3430     1   109.5600471 388.275200
   3429   3427   3436     1   108.8800464 416.726400
   3430   3433   3434     1   109.2900470 396.643200
   3430   3433   3435     1   109.2900470 396.643200
   3431   3430   3433     1   109.8800469 414.216000
   3431   3430   3432     1   108.4600466 328.025600
   3432   3430   3433     1   109.8800469 414.216000
   3434   3433   3435     1   106.4000456 346.435200
   3438   3441   3442     1   109.5600471 388.275200
   3438   3441   3443     1   109.5600471 388.275200
   3438   3447   3448     1   117.6800502 383.254400
   3439   3438   3441     1   109.5600471 388.275200
   3439   3438   3447     1   108.8800464 416.726400
   3439   3438   3440     1   108.4600466 328.025600
   3440   3438   3441     1   109.5600471 388.275200
   3440   3438   3447     1   108.8800464 416.726400
   3441   3444   3445     1   109.2900470 396.643200
   3441   3444   3446     1   109.2900470 396.643200
   3442   3441   3444     1   109.8800469 414.216000
   3442   3441   3443     1   108.4600466 328.025600
   3443   3441   3444     1   109.8800469 414.216000
   3445   3444   3446     1   106.4000456 346.435200
   3449   3452   3453     1   109.5600471 388.275200
   3449   3452   3454     1   109.5600471 388.275200
   3449   3458   3459     1   117.6800502 383.254400
   3450   3449   3452     1   109.5600471 388.275200
   3450   3449   3458     1   108.8800464 416.726400
   3450   3449   3451     1   108.4600466 328.025600
   3451   3449   3452     1   109.5600471 388.275200
   3451   3449   3458     1   108.8800464 416.726400
   3452   3455   3456     1   109.2900470 396.643200
   3452   3455   3457     1   109.2900470 396.643200
   3453   3452   3455     1   109.8800469 414.216000
   3453   3452   3454     1   108.4600466 328.025600
   3454   3452   3455     1   109.8800469 414.216000
   3456   3455   3457     1   106.4000456 346.435200
   3460   3463   3464     1   109.5600471 388.275200
   3460   3463   3465     1   109.5600471 388.275200
   3460   3469   3470     1   117.6800502 383.254400
   3461   3460   3463     1   109.5600471 388.275200
   3461   3460   3469     1   108.8800464 416.726400
   3461   3460   3462     1   108.4600466 328.025600
   3462   3460   3463     1   109.5600471 388.275200
   3462   3460   3469     1   108.8800464 416.726400
   3463   3466   3467     1   109.2900470 396.643200
   3463   3466   3468     1   109.2900470 396.643200
   3464   3463   3466     1   109.8800469 414.216000
   3464   3463   3465     1   108.4600466 328.025600
   3465   3463   3466     1   109.8800469 414.216000
   3467   3466   3468     1   106.4000456 346.435200
   3471   3474   3475     1   109.5600471 388.275200
   3471   3474   3476     1   109.5600471 388.275200
   3471   3480   3481     1   117.6800502 383.254400
   3472   3471   3474     1   109.5600471 388.275200
   3472   3471   3480     1   108.8800464 416.726400
   3472   3471   3473     1   108.4600466 328.025600
   3473   3471   3474     1   109.5600471 388.275200
   3473   3471   3480     1   108.8800464 416.726400
   3474   3477   3478     1   109.2900470 396.643200
   3474   3477   3479     1   109.2900470 396.643200
   3475   3474   3477     1   109.8800469 414.216000
   3475   3474   3476     1   108.4600466 328.025600
   3476   3474   3477     1   109.8800469 414.216000
   3478   3477   3479     1   106.4000456 346.435200
   3482   3485   3486     1   109.5600471 388.275200
   3482   3485   3487     1   109.5600471 388.275200
   3482   3491   3492     1   117.6800502 383.254400
   3483   3482   3485     1   109.5600471 388.275200
   3483   3482   3491     1   108.8800464 416.726400
   3483   3482   3484     1   108.4600466 328.025600
   3484   3482   3485     1   109.5600471 388.275200
   3484   3482   3491     1   108.8800464 416.726400
   3485   3488   3489     1   109.2900470 396.643200
   3485   3488   3490     1   109.2900470 396.643200
   3486   3485   3488     1   109.8800469 414.216000
   3486   3485   3487     1   108.4600466 328.025600
   3487   3485   3488     1   109.8800469 414.216000
   3489   3488   3490     1   106.4000456 346.435200
   3493   3496   3497     1   109.5600471 388.275200
   3493   3496   3498     1   109.5600471 388.275200
   3493   3502   3503     1   117.6800502 383.254400
   3494   3493   3496     1   109.5600471 388.275200
   3494   3493   3502     1   108.8800464 416.726400
   3494   3493   3495     1   108.4600466 328.025600
   3495   3493   3496     1   109.5600471 388.275200
   3495   3493   3502     1   108.8800464 416.726400
   3496   3499   3500     1   109.2900470 396.643200
   3496   3499   3501     1   109.2900470 396.643200
   3497   3496   3499     1   109.8800469 414.216000
   3497   3496   3498     1   108.4600466 328.025600
   3498   3496   3499     1   109.8800469 414.216000
   3500   3499   3501     1   106.4000456 346.435200
   3504   3507   3508     1   109.5600471 388.275200
   3504   3507   3509     1   109.5600471 388.275200
   3504   3513   3514     1   117.6800502 383.254400
   3505   3504   3507     1   109.5600471 388.275200
   3505   3504   3513     1   108.8800464 416.726400
   3505   3504   3506     1   108.4600466 328.025600
   3506   3504   3507     1   109.5600471 388.275200
   3506   3504   3513     1   108.8800464 416.726400
   3507   3510   3511     1   109.2900470 396.643200
   3507   3510   3512     1   109.2900470 396.643200
   3508   3507   3510     1   109.8800469 414.216000
   3508   3507   3509     1   108.4600466 328.025600
   3509   3507   3510     1   109.8800469 414.216000
   3511   3510   3512     1   106.4000456 346.435200
   3515   3518   3519     1   109.5600471 388.275200
   3515   3518   3520     1   109.5600471 388.275200
   3515   3524   3525     1   117.6800502 383.254400
   3516   3515   3518     1   109.5600471 388.275200
   3516   3515   3524     1   108.8800464 416.726400
   3516   3515   3517     1   108.4600466 328.025600
   3517   3515   3518     1   109.5600471 388.275200
   3517   3515   3524     1   108.8800464 416.726400
   3518   3521   3522     1   109.2900470 396.643200
   3518   3521   3523     1   109.2900470 396.643200
   3519   3518   3521     1   109.8800469 414.216000
   3519   3518   3520     1   108.4600466 328.025600
   3520   3518   3521     1   109.8800469 414.216000
   3522   3521   3523     1   106.4000456 346.435200
   3526   3529   3530     1   109.5600471 388.275200
   3526   3529   3531     1   109.5600471 388.275200
   3526   3535   3536     1   117.6800502 383.254400
   3527   3526   3529     1   109.5600471 388.275200
   3527   3526   3535     1   108.8800464 416.726400
   3527   3526   3528     1   108.4600466 328.025600
   3528   3526   3529     1   109.5600471 388.275200
   3528   3526   3535     1   108.8800464 416.726400
   3529   3532   3533     1   109.2900470 396.643200
   3529   3532   3534     1   109.2900470 396.643200
   3530   3529   3532     1   109.8800469 414.216000
   3530   3529   3531     1   108.4600466 328.025600
   3531   3529   3532     1   109.8800469 414.216000
   3533   3532   3534     1   106.4000456 346.435200
   3537   3540   3541     1   109.5600471 388.275200
   3537   3540   3542     1   109.5600471 388.275200
   3537   3546   3547     1   117.6800502 383.254400
   3538   3537   3540     1   109.5600471 388.275200
   3538   3537   3546     1   108.8800464 416.726400
   3538   3537   3539     1   108.4600466 328.025600
   3539   3537   3540     1   109.5600471 388.275200
   3539   3537   3546     1   108.8800464 416.726400
   3540   3543   3544     1   109.2900470 396.643200
   3540   3543   3545     1   109.2900470 396.643200
   3541   3540   3543     1   109.8800469 414.216000
   3541   3540   3542     1   108.4600466 328.025600
   3542   3540   3543     1   109.8800469 414.216000
   3544   3543   3545     1   106.4000456 346.435200
   3548   3551   3552     1   109.5600471 388.275200
   3548   3551   3553     1   109.5600471 388.275200
   3548   3557   3558     1   117.6800502 383.254400
   3549   3548   3551     1   109.5600471 388.275200
   3549   3548   3557     1   108.8800464 416.726400
   3549   3548   3550     1   108.4600466 328.025600
   3550   3548   3551     1   109.5600471 388.275200
   3550   3548   3557     1   108.8800464 416.726400
   3551   3554   3555     1   109.2900470 396.643200
   3551   3554   3556     1   109.2900470 396.643200
   3552   3551   3554     1   109.8800469 414.216000
   3552   3551   3553     1   108.4600466 328.025600
   3553   3551   3554     1   109.8800469 414.216000
   3555   3554   3556     1   106.4000456 346.435200
   3559   3562   3563     1   109.5600471 388.275200
   3559   3562   3564     1   109.5600471 388.275200
   3559   3568   3569     1   117.6800502 383.254400
   3560   3559   3562     1   109.5600471 388.275200
   3560   3559   3568     1   108.8800464 416.726400
   3560   3559   3561     1   108.4600466 328.025600
   3561   3559   3562     1   109.5600471 388.275200
   3561   3559   3568     1   108.8800464 416.726400
   3562   3565   3566     1   109.2900470 396.643200
   3562   3565   3567     1   109.2900470 396.643200
   3563   3562   3565     1   109.8800469 414.216000
   3563   3562   3564     1   108.4600466 328.025600
   3564   3562   3565     1   109.8800469 414.216000
   3566   3565   3567     1   106.4000456 346.435200
   3570   3573   3574     1   109.5600471 388.275200
   3570   3573   3575     1   109.5600471 388.275200
   3570   3579   3580     1   117.6800502 383.254400
   3571   3570   3573     1   109.5600471 388.275200
   3571   3570   3579     1   108.8800464 416.726400
   3571   3570   3572     1   108.4600466 328.025600
   3572   3570   3573     1   109.5600471 388.275200
   3572   3570   3579     1   108.8800464 416.726400
   3573   3576   3577     1   109.2900470 396.643200
   3573   3576   3578     1   109.2900470 396.643200
   3574   3573   3576     1   109.8800469 414.216000
   3574   3573   3575     1   108.4600466 328.025600
   3575   3573   3576     1   109.8800469 414.216000
   3577   3576   3578     1   106.4000456 346.435200
   3581   3584   3585     1   109.5600471 388.275200
   3581   3584   3586     1   109.5600471 388.275200
   3581   3590   3591     1   117.6800502 383.254400
   3582   3581   3584     1   109.5600471 388.275200
   3582   3581   3590     1   108.8800464 416.726400
   3582   3581   3583     1   108.4600466 328.025600
   3583   3581   3584     1   109.5600471 388.275200
   3583   3581   3590     1   108.8800464 416.726400
   3584   3587   3588     1   109.2900470 396.643200
   3584   3587   3589     1   109.2900470 396.643200
   3585   3584   3587     1   109.8800469 414.216000
   3585   3584   3586     1   108.4600466 328.025600
   3586   3584   3587     1   109.8800469 414.216000
   3588   3587   3589     1   106.4000456 346.435200
   3592   3595   3596     1   109.5600471 388.275200
   3592   3595   3597     1   109.5600471 388.275200
   3592   3601   3602     1   117.6800502 383.254400
   3593   3592   3595     1   109.5600471 388.275200
   3593   3592   3601     1   108.8800464 416.726400
   3593   3592   3594     1   108.4600466 328.025600
   3594   3592   3595     1   109.5600471 388.275200
   3594   3592   3601     1   108.8800464 416.726400
   3595   3598   3599     1   109.2900470 396.643200
   3595   3598   3600     1   109.2900470 396.643200
   3596   3595   3598     1   109.8800469 414.216000
   3596   3595   3597     1   108.4600466 328.025600
   3597   3595   3598     1   109.8800469 414.216000
   3599   3598   3600     1   106.4000456 346.435200
   3603   3606   3607     1   109.5600471 388.275200
   3603   3606   3608     1   109.5600471 388.275200
   3603   3612   3613     1   117.6800502 383.254400
   3604   3603   3606     1   109.5600471 388.275200
   3604   3603   3612     1   108.8800464 416.726400
   3604   3603   3605     1   108.4600466 328.025600
   3605   3603   3606     1   109.5600471 388.275200
   3605   3603   3612     1   108.8800464 416.726400
   3606   3609   3610     1   109.2900470 396.643200
   3606   3609   3611     1   109.2900470 396.643200
   3607   3606   3609     1   109.8800469 414.216000
   3607   3606   3608     1   108.4600466 328.025600
   3608   3606   3609     1   109.8800469 414.216000
   3610   3609   3611     1   106.4000456 346.435200
   3614   3617   3618     1   109.5600471 388.275200
   3614   3617   3619     1   109.5600471 388.275200
   3614   3623   3624     1   117.6800502 383.254400
   3615   3614   3617     1   109.5600471 388.275200
   3615   3614   3623     1   108.8800464 416.726400
   3615   3614   3616     1   108.4600466 328.025600
   3616   3614   3617     1   109.5600471 388.275200
   3616   3614   3623     1   108.8800464 416.726400
   3617   3620   3621     1   109.2900470 396.643200
   3617   3620   3622     1   109.2900470 396.643200
   3618   3617   3620     1   109.8800469 414.216000
   3618   3617   3619     1   108.4600466 328.025600
   3619   3617   3620     1   109.8800469 414.216000
   3621   3620   3622     1   106.4000456 346.435200
   3625   3628   3629     1   109.5600471 388.275200
   3625   3628   3630     1   109.5600471 388.275200
   3625   3634   3635     1   117.6800502 383.254400
   3626   3625   3628     1   109.5600471 388.275200
   3626   3625   3634     1   108.8800464 416.726400
   3626   3625   3627     1   108.4600466 328.025600
   3627   3625   3628     1   109.5600471 388.275200
   3627   3625   3634     1   108.8800464 416.726400
   3628   3631   3632     1   109.2900470 396.643200
   3628   3631   3633     1   109.2900470 396.643200
   3629   3628   3631     1   109.8800469 414.216000
   3629   3628   3630     1   108.4600466 328.025600
   3630   3628   3631     1   109.8800469 414.216000
   3632   3631   3633     1   106.4000456 346.435200
   3636   3639   3640     1   109.5600471 388.275200
   3636   3639   3641     1   109.5600471 388.275200
   3636   3645   3646     1   117.6800502 383.254400
   3637   3636   3639     1   109.5600471 388.275200
   3637   3636   3645     1   108.8800464 416.726400
   3637   3636   3638     1   108.4600466 328.025600
   3638   3636   3639     1   109.5600471 388.275200
   3638   3636   3645     1   108.8800464 416.726400
   3639   3642   3643     1   109.2900470 396.643200
   3639   3642   3644     1   109.2900470 396.643200
   3640   3639   3642     1   109.8800469 414.216000
   3640   3639   3641     1   108.4600466 328.025600
   3641   3639   3642     1   109.8800469 414.216000
   3643   3642   3644     1   106.4000456 346.435200
   3647   3650   3651     1   109.5600471 388.275200
   3647   3650   3652     1   109.5600471 388.275200
   3647   3656   3657     1   117.6800502 383.254400
   3648   3647   3650     1   109.5600471 388.275200
   3648   3647   3656     1   108.8800464 416.726400
   3648   3647   3649     1   108.4600466 328.025600
   3649   3647   3650     1   109.5600471 388.275200
   3649   3647   3656     1   108.8800464 416.726400
   3650   3653   3654     1   109.2900470 396.643200
   3650   3653   3655     1   109.2900470 396.643200
   3651   3650   3653     1   109.8800469 414.216000
   3651   3650   3652     1   108.4600466 328.025600
   3652   3650   3653     1   109.8800469 414.216000
   3654   3653   3655     1   106.4000456 346.435200
   3658   3661   3662     1   109.5600471 388.275200
   3658   3661   3663     1   109.5600471 388.275200
   3658   3667   3668     1   117.6800502 383.254400
   3659   3658   3661     1   109.5600471 388.275200
   3659   3658   3667     1   108.8800464 416.726400
   3659   3658   3660     1   108.4600466 328.025600
   3660   3658   3661     1   109.5600471 388.275200
   3660   3658   3667     1   108.8800464 416.726400
   3661   3664   3665     1   109.2900470 396.643200
   3661   3664   3666     1   109.2900470 396.643200
   3662   3661   3664     1   109.8800469 414.216000
   3662   3661   3663     1   108.4600466 328.025600
   3663   3661   3664     1   109.8800469 414.216000
   3665   3664   3666     1   106.4000456 346.435200
   3669   3672   3673     1   109.5600471 388.275200
   3669   3672   3674     1   109.5600471 388.275200
   3669   3678   3679     1   117.6800502 383.254400
   3670   3669   3672     1   109.5600471 388.275200
   3670   3669   3678     1   108.8800464 416.726400
   3670   3669   3671     1   108.4600466 328.025600
   3671   3669   3672     1   109.5600471 388.275200
   3671   3669   3678     1   108.8800464 416.726400
   3672   3675   3676     1   109.2900470 396.643200
   3672   3675   3677     1   109.2900470 396.643200
   3673   3672   3675     1   109.8800469 414.216000
   3673   3672   3674     1   108.4600466 328.025600
   3674   3672   3675     1   109.8800469 414.216000
   3676   3675   3677     1   106.4000456 346.435200
   3680   3683   3684     1   109.5600471 388.275200
   3680   3683   3685     1   109.5600471 388.275200
   3680   3689   3690     1   117.6800502 383.254400
   3681   3680   3683     1   109.5600471 388.275200
   3681   3680   3689     1   108.8800464 416.726400
   3681   3680   3682     1   108.4600466 328.025600
   3682   3680   3683     1   109.5600471 388.275200
   3682   3680   3689     1   108.8800464 416.726400
   3683   3686   3687     1   109.2900470 396.643200
   3683   3686   3688     1   109.2900470 396.643200
   3684   3683   3686     1   109.8800469 414.216000
   3684   3683   3685     1   108.4600466 328.025600
   3685   3683   3686     1   109.8800469 414.216000
   3687   3686   3688     1   106.4000456 346.435200
   3691   3694   3695     1   109.5600471 388.275200
   3691   3694   3696     1   109.5600471 388.275200
   3691   3700   3701     1   117.6800502 383.254400
   3692   3691   3694     1   109.5600471 388.275200
   3692   3691   3700     1   108.8800464 416.726400
   3692   3691   3693     1   108.4600466 328.025600
   3693   3691   3694     1   109.5600471 388.275200
   3693   3691   3700     1   108.8800464 416.726400
   3694   3697   3698     1   109.2900470 396.643200
   3694   3697   3699     1   109.2900470 396.643200
   3695   3694   3697     1   109.8800469 414.216000
   3695   3694   3696     1   108.4600466 328.025600
   3696   3694   3697     1   109.8800469 414.216000
   3698   3697   3699     1   106.4000456 346.435200
   3702   3705   3706     1   109.5600471 388.275200
   3702   3705   3707     1   109.5600471 388.275200
   3702   3711   3712     1   117.6800502 383.254400
   3703   3702   3705     1   109.5600471 388.275200
   3703   3702   3711     1   108.8800464 416.726400
   3703   3702   3704     1   108.4600466 328.025600
   3704   3702   3705     1   109.5600471 388.275200
   3704   3702   3711     1   108.8800464 416.726400
   3705   3708   3709     1   109.2900470 396.643200
   3705   3708   3710     1   109.2900470 396.643200
   3706   3705   3708     1   109.8800469 414.216000
   3706   3705   3707     1   108.4600466 328.025600
   3707   3705   3708     1   109.8800469 414.216000
   3709   3708   3710     1   106.4000456 346.435200
   3713   3716   3717     1   109.5600471 388.275200
   3713   3716   3718     1   109.5600471 388.275200
   3713   3722   3723     1   117.6800502 383.254400
   3714   3713   3716     1   109.5600471 388.275200
   3714   3713   3722     1   108.8800464 416.726400
   3714   3713   3715     1   108.4600466 328.025600
   3715   3713   3716     1   109.5600471 388.275200
   3715   3713   3722     1   108.8800464 416.726400
   3716   3719   3720     1   109.2900470 396.643200
   3716   3719   3721     1   109.2900470 396.643200
   3717   3716   3719     1   109.8800469 414.216000
   3717   3716   3718     1   108.4600466 328.025600
   3718   3716   3719     1   109.8800469 414.216000
   3720   3719   3721     1   106.4000456 346.435200
   3724   3727   3728     1   109.5600471 388.275200
   3724   3727   3729     1   109.5600471 388.275200
   3724   3733   3734     1   117.6800502 383.254400
   3725   3724   3727     1   109.5600471 388.275200
   3725   3724   3733     1   108.8800464 416.726400
   3725   3724   3726     1   108.4600466 328.025600
   3726   3724   3727     1   109.5600471 388.275200
   3726   3724   3733     1   108.8800464 416.726400
   3727   3730   3731     1   109.2900470 396.643200
   3727   3730   3732     1   109.2900470 396.643200
   3728   3727   3730     1   109.8800469 414.216000
   3728   3727   3729     1   108.4600466 328.025600
   3729   3727   3730     1   109.8800469 414.216000
   3731   3730   3732     1   106.4000456 346.435200
   3735   3738   3739     1   109.5600471 388.275200
   3735   3738   3740     1   109.5600471 388.275200
   3735   3744   3745     1   117.6800502 383.254400
   3736   3735   3738     1   109.5600471 388.275200
   3736   3735   3744     1   108.8800464 416.726400
   3736   3735   3737     1   108.4600466 328.025600
   3737   3735   3738     1   109.5600471 388.275200
   3737   3735   3744     1   108.8800464 416.726400
   3738   3741   3742     1   109.2900470 396.643200
   3738   3741   3743     1   109.2900470 396.643200
   3739   3738   3741     1   109.8800469 414.216000
   3739   3738   3740     1   108.4600466 328.025600
   3740   3738   3741     1   109.8800469 414.216000
   3742   3741   3743     1   106.4000456 346.435200
   3746   3749   3750     1   109.5600471 388.275200
   3746   3749   3751     1   109.5600471 388.275200
   3746   3755   3756     1   117.6800502 383.254400
   3747   3746   3749     1   109.5600471 388.275200
   3747   3746   3755     1   108.8800464 416.726400
   3747   3746   3748     1   108.4600466 328.025600
   3748   3746   3749     1   109.5600471 388.275200
   3748   3746   3755     1   108.8800464 416.726400
   3749   3752   3753     1   109.2900470 396.643200
   3749   3752   3754     1   109.2900470 396.643200
   3750   3749   3752     1   109.8800469 414.216000
   3750   3749   3751     1   108.4600466 328.025600
   3751   3749   3752     1   109.8800469 414.216000
   3753   3752   3754     1   106.4000456 346.435200
   3757   3760   3761     1   109.5600471 388.275200
   3757   3760   3762     1   109.5600471 388.275200
   3757   3766   3767     1   117.6800502 383.254400
   3758   3757   3760     1   109.5600471 388.275200
   3758   3757   3766     1   108.8800464 416.726400
   3758   3757   3759     1   108.4600466 328.025600
   3759   3757   3760     1   109.5600471 388.275200
   3759   3757   3766     1   108.8800464 416.726400
   3760   3763   3764     1   109.2900470 396.643200
   3760   3763   3765     1   109.2900470 396.643200
   3761   3760   3763     1   109.8800469 414.216000
   3761   3760   3762     1   108.4600466 328.025600
   3762   3760   3763     1   109.8800469 414.216000
   3764   3763   3765     1   106.4000456 346.435200
   3768   3771   3772     1   109.5600471 388.275200
   3768   3771   3773     1   109.5600471 388.275200
   3768   3777   3778     1   117.6800502 383.254400
   3769   3768   3771     1   109.5600471 388.275200
   3769   3768   3777     1   108.8800464 416.726400
   3769   3768   3770     1   108.4600466 328.025600
   3770   3768   3771     1   109.5600471 388.275200
   3770   3768   3777     1   108.8800464 416.726400
   3771   3774   3775     1   109.2900470 396.643200
   3771   3774   3776     1   109.2900470 396.643200
   3772   3771   3774     1   109.8800469 414.216000
   3772   3771   3773     1   108.4600466 328.025600
   3773   3771   3774     1   109.8800469 414.216000
   3775   3774   3776     1   106.4000456 346.435200
   3779   3782   3783     1   109.5600471 388.275200
   3779   3782   3784     1   109.5600471 388.275200
   3779   3788   3789     1   117.6800502 383.254400
   3780   3779   3782     1   109.5600471 388.275200
   3780   3779   3788     1   108.8800464 416.726400
   3780   3779   3781     1   108.4600466 328.025600
   3781   3779   3782     1   109.5600471 388.275200
   3781   3779   3788     1   108.8800464 416.726400
   3782   3785   3786     1   109.2900470 396.643200
   3782   3785   3787     1   109.2900470 396.643200
   3783   3782   3785     1   109.8800469 414.216000
   3783   3782   3784     1   108.4600466 328.025600
   3784   3782   3785     1   109.8800469 414.216000
   3786   3785   3787     1   106.4000456 346.435200
   3790   3793   3794     1   109.5600471 388.275200
   3790   3793   3795     1   109.5600471 388.275200
   3790   3799   3800     1   117.6800502 383.254400
   3791   3790   3793     1   109.5600471 388.275200
   3791   3790   3799     1   108.8800464 416.726400
   3791   3790   3792     1   108.4600466 328.025600
   3792   3790   3793     1   109.5600471 388.275200
   3792   3790   3799     1   108.8800464 416.726400
   3793   3796   3797     1   109.2900470 396.643200
   3793   3796   3798     1   109.2900470 396.643200
   3794   3793   3796     1   109.8800469 414.216000
   3794   3793   3795     1   108.4600466 328.025600
   3795   3793   3796     1   109.8800469 414.216000
   3797   3796   3798     1   106.4000456 346.435200
   3801   3804   3805     1   109.5600471 388.275200
   3801   3804   3806     1   109.5600471 388.275200
   3801   3810   3811     1   117.6800502 383.254400
   3802   3801   3804     1   109.5600471 388.275200
   3802   3801   3810     1   108.8800464 416.726400
   3802   3801   3803     1   108.4600466 328.025600
   3803   3801   3804     1   109.5600471 388.275200
   3803   3801   3810     1   108.8800464 416.726400
   3804   3807   3808     1   109.2900470 396.643200
   3804   3807   3809     1   109.2900470 396.643200
   3805   3804   3807     1   109.8800469 414.216000
   3805   3804   3806     1   108.4600466 328.025600
   3806   3804   3807     1   109.8800469 414.216000
   3808   3807   3809     1   106.4000456 346.435200
   3812   3815   3816     1   109.5600471 388.275200
   3812   3815   3817     1   109.5600471 388.275200
   3812   3821   3822     1   117.6800502 383.254400
   3813   3812   3815     1   109.5600471 388.275200
   3813   3812   3821     1   108.8800464 416.726400
   3813   3812   3814     1   108.4600466 328.025600
   3814   3812   3815     1   109.5600471 388.275200
   3814   3812   3821     1   108.8800464 416.726400
   3815   3818   3819     1   109.2900470 396.643200
   3815   3818   3820     1   109.2900470 396.643200
   3816   3815   3818     1   109.8800469 414.216000
   3816   3815   3817     1   108.4600466 328.025600
   3817   3815   3818     1   109.8800469 414.216000
   3819   3818   3820     1   106.4000456 346.435200
   3823   3826   3827     1   109.5600471 388.275200
   3823   3826   3828     1   109.5600471 388.275200
   3823   3832   3833     1   117.6800502 383.254400
   3824   3823   3826     1   109.5600471 388.275200
   3824   3823   3832     1   108.8800464 416.726400
   3824   3823   3825     1   108.4600466 328.025600
   3825   3823   3826     1   109.5600471 388.275200
   3825   3823   3832     1   108.8800464 416.726400
   3826   3829   3830     1   109.2900470 396.643200
   3826   3829   3831     1   109.2900470 396.643200
   3827   3826   3829     1   109.8800469 414.216000
   3827   3826   3828     1   108.4600466 328.025600
   3828   3826   3829     1   109.8800469 414.216000
   3830   3829   3831     1   106.4000456 346.435200
   3834   3837   3838     1   109.5600471 388.275200
   3834   3837   3839     1   109.5600471 388.275200
   3834   3843   3844     1   117.6800502 383.254400
   3835   3834   3837     1   109.5600471 388.275200
   3835   3834   3843     1   108.8800464 416.726400
   3835   3834   3836     1   108.4600466 328.025600
   3836   3834   3837     1   109.5600471 388.275200
   3836   3834   3843     1   108.8800464 416.726400
   3837   3840   3841     1   109.2900470 396.643200
   3837   3840   3842     1   109.2900470 396.643200
   3838   3837   3840     1   109.8800469 414.216000
   3838   3837   3839     1   108.4600466 328.025600
   3839   3837   3840     1   109.8800469 414.216000
   3841   3840   3842     1   106.4000456 346.435200
   3845   3848   3849     1   109.5600471 388.275200
   3845   3848   3850     1   109.5600471 388.275200
   3845   3854   3855     1   117.6800502 383.254400
   3846   3845   3848     1   109.5600471 388.275200
   3846   3845   3854     1   108.8800464 416.726400
   3846   3845   3847     1   108.4600466 328.025600
   3847   3845   3848     1   109.5600471 388.275200
   3847   3845   3854     1   108.8800464 416.726400
   3848   3851   3852     1   109.2900470 396.643200
   3848   3851   3853     1   109.2900470 396.643200
   3849   3848   3851     1   109.8800469 414.216000
   3849   3848   3850     1   108.4600466 328.025600
   3850   3848   3851     1   109.8800469 414.216000
   3852   3851   3853     1   106.4000456 346.435200
   3856   3859   3860     1   109.5600471 388.275200
   3856   3859   3861     1   109.5600471 388.275200
   3856   3865   3866     1   117.6800502 383.254400
   3857   3856   3859     1   109.5600471 388.275200
   3857   3856   3865     1   108.8800464 416.726400
   3857   3856   3858     1   108.4600466 328.025600
   3858   3856   3859     1   109.5600471 388.275200
   3858   3856   3865     1   108.8800464 416.726400
   3859   3862   3863     1   109.2900470 396.643200
   3859   3862   3864     1   109.2900470 396.643200
   3860   3859   3862     1   109.8800469 414.216000
   3860   3859   3861     1   108.4600466 328.025600
   3861   3859   3862     1   109.8800469 414.216000
   3863   3862   3864     1   106.4000456 346.435200
   3867   3870   3871     1   109.5600471 388.275200
   3867   3870   3872     1   109.5600471 388.275200
   3867   3876   3877     1   117.6800502 383.254400
   3868   3867   3870     1   109.5600471 388.275200
   3868   3867   3876     1   108.8800464 416.726400
   3868   3867   3869     1   108.4600466 328.025600
   3869   3867   3870     1   109.5600471 388.275200
   3869   3867   3876     1   108.8800464 416.726400
   3870   3873   3874     1   109.2900470 396.643200
   3870   3873   3875     1   109.2900470 396.643200
   3871   3870   3873     1   109.8800469 414.216000
   3871   3870   3872     1   108.4600466 328.025600
   3872   3870   3873     1   109.8800469 414.216000
   3874   3873   3875     1   106.4000456 346.435200
   3878   3881   3882     1   109.5600471 388.275200
   3878   3881   3883     1   109.5600471 388.275200
   3878   3887   3888     1   117.6800502 383.254400
   3879   3878   3881     1   109.5600471 388.275200
   3879   3878   3887     1   108.8800464 416.726400
   3879   3878   3880     1   108.4600466 328.025600
   3880   3878   3881     1   109.5600471 388.275200
   3880   3878   3887     1   108.8800464 416.726400
   3881   3884   3885     1   109.2900470 396.643200
   3881   3884   3886     1   109.2900470 396.643200
   3882   3881   3884     1   109.8800469 414.216000
   3882   3881   3883     1   108.4600466 328.025600
   3883   3881   3884     1   109.8800469 414.216000
   3885   3884   3886     1   106.4000456 346.435200
   3889   3892   3893     1   109.5600471 388.275200
   3889   3892   3894     1   109.5600471 388.275200
   3889   3898   3899     1   117.6800502 383.254400
   3890   3889   3892     1   109.5600471 388.275200
   3890   3889   3898     1   108.8800464 416.726400
   3890   3889   3891     1   108.4600466 328.025600
   3891   3889   3892     1   109.5600471 388.275200
   3891   3889   3898     1   108.8800464 416.726400
   3892   3895   3896     1   109.2900470 396.643200
   3892   3895   3897     1   109.2900470 396.643200
   3893   3892   3895     1   109.8800469 414.216000
   3893   3892   3894     1   108.4600466 328.025600
   3894   3892   3895     1   109.8800469 414.216000
   3896   3895   3897     1   106.4000456 346.435200
   3900   3903   3904     1   109.5600471 388.275200
   3900   3903   3905     1   109.5600471 388.275200
   3900   3909   3910     1   117.6800502 383.254400
   3901   3900   3903     1   109.5600471 388.275200
   3901   3900   3909     1   108.8800464 416.726400
   3901   3900   3902     1   108.4600466 328.025600
   3902   3900   3903     1   109.5600471 388.275200
   3902   3900   3909     1   108.8800464 416.726400
   3903   3906   3907     1   109.2900470 396.643200
   3903   3906   3908     1   109.2900470 396.643200
   3904   3903   3906     1   109.8800469 414.216000
   3904   3903   3905     1   108.4600466 328.025600
   3905   3903   3906     1   109.8800469 414.216000
   3907   3906   3908     1   106.4000456 346.435200
   3911   3914   3915     1   109.5600471 388.275200
   3911   3914   3916     1   109.5600471 388.275200
   3911   3920   3921     1   117.6800502 383.254400
   3912   3911   3914     1   109.5600471 388.275200
   3912   3911   3920     1   108.8800464 416.726400
   3912   3911   3913     1   108.4600466 328.025600
   3913   3911   3914     1   109.5600471 388.275200
   3913   3911   3920     1   108.8800464 416.726400
   3914   3917   3918     1   109.2900470 396.643200
   3914   3917   3919     1   109.2900470 396.643200
   3915   3914   3917     1   109.8800469 414.216000
   3915   3914   3916     1   108.4600466 328.025600
   3916   3914   3917     1   109.8800469 414.216000
   3918   3917   3919     1   106.4000456 346.435200
   3922   3925   3926     1   109.5600471 388.275200
   3922   3925   3927     1   109.5600471 388.275200
   3922   3931   3932     1   117.6800502 383.254400
   3923   3922   3925     1   109.5600471 388.275200
   3923   3922   3931     1   108.8800464 416.726400
   3923   3922   3924     1   108.4600466 328.025600
   3924   3922   3925     1   109.5600471 388.275200
   3924   3922   3931     1   108.8800464 416.726400
   3925   3928   3929     1   109.2900470 396.643200
   3925   3928   3930     1   109.2900470 396.643200
   3926   3925   3928     1   109.8800469 414.216000
   3926   3925   3927     1   108.4600466 328.025600
   3927   3925   3928     1   109.8800469 414.216000
   3929   3928   3930     1   106.4000456 346.435200
   3933   3936   3937     1   109.5600471 388.275200
   3933   3936   3938     1   109.5600471 388.275200
   3933   3942   3943     1   117.6800502 383.254400
   3934   3933   3936     1   109.5600471 388.275200
   3934   3933   3942     1   108.8800464 416.726400
   3934   3933   3935     1   108.4600466 328.025600
   3935   3933   3936     1   109.5600471 388.275200
   3935   3933   3942     1   108.8800464 416.726400
   3936   3939   3940     1   109.2900470 396.643200
   3936   3939   3941     1   109.2900470 396.643200
   3937   3936   3939     1   109.8800469 414.216000
   3937   3936   3938     1   108.4600466 328.025600
   3938   3936   3939     1   109.8800469 414.216000
   3940   3939   3941     1   106.4000456 346.435200
   3944   3947   3948     1   109.5600471 388.275200
   3944   3947   3949     1   109.5600471 388.275200
   3944   3953   3954     1   117.6800502 383.254400
   3945   3944   3947     1   109.5600471 388.275200
   3945   3944   3953     1   108.8800464 416.726400
   3945   3944   3946     1   108.4600466 328.025600
   3946   3944   3947     1   109.5600471 388.275200
   3946   3944   3953     1   108.8800464 416.726400
   3947   3950   3951     1   109.2900470 396.643200
   3947   3950   3952     1   109.2900470 396.643200
   3948   3947   3950     1   109.8800469 414.216000
   3948   3947   3949     1   108.4600466 328.025600
   3949   3947   3950     1   109.8800469 414.216000
   3951   3950   3952     1   106.4000456 346.435200
   3955   3958   3959     1   109.5600471 388.275200
   3955   3958   3960     1   109.5600471 388.275200
   3955   3964   3965     1   117.6800502 383.254400
   3956   3955   3958     1   109.5600471 388.275200
   3956   3955   3964     1   108.8800464 416.726400
   3956   3955   3957     1   108.4600466 328.025600
   3957   3955   3958     1   109.5600471 388.275200
   3957   3955   3964     1   108.8800464 416.726400
   3958   3961   3962     1   109.2900470 396.643200
   3958   3961   3963     1   109.2900470 396.643200
   3959   3958   3961     1   109.8800469 414.216000
   3959   3958   3960     1   108.4600466 328.025600
   3960   3958   3961     1   109.8800469 414.216000
   3962   3961   3963     1   106.4000456 346.435200
   3966   3969   3970     1   109.5600471 388.275200
   3966   3969   3971     1   109.5600471 388.275200
   3966   3975   3976     1   117.6800502 383.254400
   3967   3966   3969     1   109.5600471 388.275200
   3967   3966   3975     1   108.8800464 416.726400
   3967   3966   3968     1   108.4600466 328.025600
   3968   3966   3969     1   109.5600471 388.275200
   3968   3966   3975     1   108.8800464 416.726400
   3969   3972   3973     1   109.2900470 396.643200
   3969   3972   3974     1   109.2900470 396.643200
   3970   3969   3972     1   109.8800469 414.216000
   3970   3969   3971     1   108.4600466 328.025600
   3971   3969   3972     1   109.8800469 414.216000
   3973   3972   3974     1   106.4000456 346.435200
   3977   3980   3981     1   109.5600471 388.275200
   3977   3980   3982     1   109.5600471 388.275200
   3977   3986   3987     1   117.6800502 383.254400
   3978   3977   3980     1   109.5600471 388.275200
   3978   3977   3986     1   108.8800464 416.726400
   3978   3977   3979     1   108.4600466 328.025600
   3979   3977   3980     1   109.5600471 388.275200
   3979   3977   3986     1   108.8800464 416.726400
   3980   3983   3984     1   109.2900470 396.643200
   3980   3983   3985     1   109.2900470 396.643200
   3981   3980   3983     1   109.8800469 414.216000
   3981   3980   3982     1   108.4600466 328.025600
   3982   3980   3983     1   109.8800469 414.216000
   3984   3983   3985     1   106.4000456 346.435200
   3988   3991   3992     1   109.5600471 388.275200
   3988   3991   3993     1   109.5600471 388.275200
   3988   3997   3998     1   117.6800502 383.254400
   3989   3988   3991     1   109.5600471 388.275200
   3989   3988   3997     1   108.8800464 416.726400
   3989   3988   3990     1   108.4600466 328.025600
   3990   3988   3991     1   109.5600471 388.275200
   3990   3988   3997     1   108.8800464 416.726400
   3991   3994   3995     1   109.2900470 396.643200
   3991   3994   3996     1   109.2900470 396.643200
   3992   3991   3994     1   109.8800469 414.216000
   3992   3991   3993     1   108.4600466 328.025600
   3993   3991   3994     1   109.8800469 414.216000
   3995   3994   3996     1   106.4000456 346.435200
   3999   4002   4003     1   109.5600471 388.275200
   3999   4002   4004     1   109.5600471 388.275200
   3999   4008   4009     1   117.6800502 383.254400
   4000   3999   4002     1   109.5600471 388.275200
   4000   3999   4008     1   108.8800464 416.726400
   4000   3999   4001     1   108.4600466 328.025600
   4001   3999   4002     1   109.5600471 388.275200
   4001   3999   4008     1   108.8800464 416.726400
   4002   4005   4006     1   109.2900470 396.643200
   4002   4005   4007     1   109.2900470 396.643200
   4003   4002   4005     1   109.8800469 414.216000
   4003   4002   4004     1   108.4600466 328.025600
   4004   4002   4005     1   109.8800469 414.216000
   4006   4005   4007     1   106.4000456 346.435200
   4010   4013   4014     1   109.5600471 388.275200
   4010   4013   4015     1   109.5600471 388.275200
   4010   4019   4020     1   117.6800502 383.254400
   4011   4010   4013     1   109.5600471 388.275200
   4011   4010   4019     1   108.8800464 416.726400
   4011   4010   4012     1   108.4600466 328.025600
   4012   4010   4013     1   109.5600471 388.275200
   4012   4010   4019     1   108.8800464 416.726400
   4013   4016   4017     1   109.2900470 396.643200
   4013   4016   4018     1   109.2900470 396.643200
   4014   4013   4016     1   109.8800469 414.216000
   4014   4013   4015     1   108.4600466 328.025600
   4015   4013   4016     1   109.8800469 414.216000
   4017   4016   4018     1   106.4000456 346.435200
   4021   4024   4025     1   109.5600471 388.275200
   4021   4024   4026     1   109.5600471 388.275200
   4021   4030   4031     1   117.6800502 383.254400
   4022   4021   4024     1   109.5600471 388.275200
   4022   4021   4030     1   108.8800464 416.726400
   4022   4021   4023     1   108.4600466 328.025600
   4023   4021   4024     1   109.5600471 388.275200
   4023   4021   4030     1   108.8800464 416.726400
   4024   4027   4028     1   109.2900470 396.643200
   4024   4027   4029     1   109.2900470 396.643200
   4025   4024   4027     1   109.8800469 414.216000
   4025   4024   4026     1   108.4600466 328.025600
   4026   4024   4027     1   109.8800469 414.216000
   4028   4027   4029     1   106.4000456 346.435200
   4032   4035   4036     1   109.5600471 388.275200
   4032   4035   4037     1   109.5600471 388.275200
   4032   4041   4042     1   117.6800502 383.254400
   4033   4032   4035     1   109.5600471 388.275200
   4033   4032   4041     1   108.8800464 416.726400
   4033   4032   4034     1   108.4600466 328.025600
   4034   4032   4035     1   109.5600471 388.275200
   4034   4032   4041     1   108.8800464 416.726400
   4035   4038   4039     1   109.2900470 396.643200
   4035   4038   4040     1   109.2900470 396.643200
   4036   4035   4038     1   109.8800469 414.216000
   4036   4035   4037     1   108.4600466 328.025600
   4037   4035   4038     1   109.8800469 414.216000
   4039   4038   4040     1   106.4000456 346.435200
   4043   4046   4047     1   109.5600471 388.275200
   4043   4046   4048     1   109.5600471 388.275200
   4043   4052   4053     1   117.6800502 383.254400
   4044   4043   4046     1   109.5600471 388.275200
   4044   4043   4052     1   108.8800464 416.726400
   4044   4043   4045     1   108.4600466 328.025600
   4045   4043   4046     1   109.5600471 388.275200
   4045   4043   4052     1   108.8800464 416.726400
   4046   4049   4050     1   109.2900470 396.643200
   4046   4049   4051     1   109.2900470 396.643200
   4047   4046   4049     1   109.8800469 414.216000
   4047   4046   4048     1   108.4600466 328.025600
   4048   4046   4049     1   109.8800469 414.216000
   4050   4049   4051     1   106.4000456 346.435200
   4054   4057   4058     1   109.5600471 388.275200
   4054   4057   4059     1   109.5600471 388.275200
   4054   4063   4064     1   117.6800502 383.254400
   4055   4054   4057     1   109.5600471 388.275200
   4055   4054   4063     1   108.8800464 416.726400
   4055   4054   4056     1   108.4600466 328.025600
   4056   4054   4057     1   109.5600471 388.275200
   4056   4054   4063     1   108.8800464 416.726400
   4057   4060   4061     1   109.2900470 396.643200
   4057   4060   4062     1   109.2900470 396.643200
   4058   4057   4060     1   109.8800469 414.216000
   4058   4057   4059     1   108.4600466 328.025600
   4059   4057   4060     1   109.8800469 414.216000
   4061   4060   4062     1   106.4000456 346.435200
   4065   4068   4069     1   109.5600471 388.275200
   4065   4068   4070     1   109.5600471 388.275200
   4065   4074   4075     1   117.6800502 383.254400
   4066   4065   4068     1   109.5600471 388.275200
   4066   4065   4074     1   108.8800464 416.726400
   4066   4065   4067     1   108.4600466 328.025600
   4067   4065   4068     1   109.5600471 388.275200
   4067   4065   4074     1   108.8800464 416.726400
   4068   4071   4072     1   109.2900470 396.643200
   4068   4071   4073     1   109.2900470 396.643200
   4069   4068   4071     1   109.8800469 414.216000
   4069   4068   4070     1   108.4600466 328.025600
   4070   4068   4071     1   109.8800469 414.216000
   4072   4071   4073     1   106.4000456 346.435200
   4076   4079   4080     1   109.5600471 388.275200
   4076   4079   4081     1   109.5600471 388.275200
   4076   4085   4086     1   117.6800502 383.254400
   4077   4076   4079     1   109.5600471 388.275200
   4077   4076   4085     1   108.8800464 416.726400
   4077   4076   4078     1   108.4600466 328.025600
   4078   4076   4079     1   109.5600471 388.275200
   4078   4076   4085     1   108.8800464 416.726400
   4079   4082   4083     1   109.2900470 396.643200
   4079   4082   4084     1   109.2900470 396.643200
   4080   4079   4082     1   109.8800469 414.216000
   4080   4079   4081     1   108.4600466 328.025600
   4081   4079   4082     1   109.8800469 414.216000
   4083   4082   4084     1   106.4000456 346.435200
   4087   4090   4091     1   109.5600471 388.275200
   4087   4090   4092     1   109.5600471 388.275200
   4087   4096   4097     1   117.6800502 383.254400
   4088   4087   4090     1   109.5600471 388.275200
   4088   4087   4096     1   108.8800464 416.726400
   4088   4087   4089     1   108.4600466 328.025600
   4089   4087   4090     1   109.5600471 388.275200
   4089   4087   4096     1   108.8800464 416.726400
   4090   4093   4094     1   109.2900470 396.643200
   4090   4093   4095     1   109.2900470 396.643200
   4091   4090   4093     1   109.8800469 414.216000
   4091   4090   4092     1   108.4600466 328.025600
   4092   4090   4093     1   109.8800469 414.216000
   4094   4093   4095     1   106.4000456 346.435200
   4098   4101   4102     1   109.5600471 388.275200
   4098   4101   4103     1   109.5600471 388.275200
   4098   4107   4108     1   117.6800502 383.254400
   4099   4098   4101     1   109.5600471 388.275200
   4099   4098   4107     1   108.8800464 416.726400
   4099   4098   4100     1   108.4600466 328.025600
   4100   4098   4101     1   109.5600471 388.275200
   4100   4098   4107     1   108.8800464 416.726400
   4101   4104   4105     1   109.2900470 396.643200
   4101   4104   4106     1   109.2900470 396.643200
   4102   4101   4104     1   109.8800469 414.216000
   4102   4101   4103     1   108.4600466 328.025600
   4103   4101   4104     1   109.8800469 414.216000
   4105   4104   4106     1   106.4000456 346.435200
   4109   4112   4113     1   109.5600471 388.275200
   4109   4112   4114     1   109.5600471 388.275200
   4109   4118   4119     1   117.6800502 383.254400
   4110   4109   4112     1   109.5600471 388.275200
   4110   4109   4118     1   108.8800464 416.726400
   4110   4109   4111     1   108.4600466 328.025600
   4111   4109   4112     1   109.5600471 388.275200
   4111   4109   4118     1   108.8800464 416.726400
   4112   4115   4116     1   109.2900470 396.643200
   4112   4115   4117     1   109.2900470 396.643200
   4113   4112   4115     1   109.8800469 414.216000
   4113   4112   4114     1   108.4600466 328.025600
   4114   4112   4115     1   109.8800469 414.216000
   4116   4115   4117     1   106.4000456 346.435200
   4120   4123   4124     1   109.5600471 388.275200
   4120   4123   4125     1   109.5600471 388.275200
   4120   4129   4130     1   117.6800502 383.254400
   4121   4120   4123     1   109.5600471 388.275200
   4121   4120   4129     1   108.8800464 416.726400
   4121   4120   4122     1   108.4600466 328.025600
   4122   4120   4123     1   109.5600471 388.275200
   4122   4120   4129     1   108.8800464 416.726400
   4123   4126   4127     1   109.2900470 396.643200
   4123   4126   4128     1   109.2900470 396.643200
   4124   4123   4126     1   109.8800469 414.216000
   4124   4123   4125     1   108.4600466 328.025600
   4125   4123   4126     1   109.8800469 414.216000
   4127   4126   4128     1   106.4000456 346.435200
   4131   4134   4135     1   109.5600471 388.275200
   4131   4134   4136     1   109.5600471 388.275200
   4131   4140   4141     1   117.6800502 383.254400
   4132   4131   4134     1   109.5600471 388.275200
   4132   4131   4140     1   108.8800464 416.726400
   4132   4131   4133     1   108.4600466 328.025600
   4133   4131   4134     1   109.5600471 388.275200
   4133   4131   4140     1   108.8800464 416.726400
   4134   4137   4138     1   109.2900470 396.643200
   4134   4137   4139     1   109.2900470 396.643200
   4135   4134   4137     1   109.8800469 414.216000
   4135   4134   4136     1   108.4600466 328.025600
   4136   4134   4137     1   109.8800469 414.216000
   4138   4137   4139     1   106.4000456 346.435200
   4142   4145   4146     1   109.5600471 388.275200
   4142   4145   4147     1   109.5600471 388.275200
   4142   4151   4152     1   117.6800502 383.254400
   4143   4142   4145     1   109.5600471 388.275200
   4143   4142   4151     1   108.8800464 416.726400
   4143   4142   4144     1   108.4600466 328.025600
   4144   4142   4145     1   109.5600471 388.275200
   4144   4142   4151     1   108.8800464 416.726400
   4145   4148   4149     1   109.2900470 396.643200
   4145   4148   4150     1   109.2900470 396.643200
   4146   4145   4148     1   109.8800469 414.216000
   4146   4145   4147     1   108.4600466 328.025600
   4147   4145   4148     1   109.8800469 414.216000
   4149   4148   4150     1   106.4000456 346.435200
   4153   4156   4157     1   109.5600471 388.275200
   4153   4156   4158     1   109.5600471 388.275200
   4153   4162   4163     1   117.6800502 383.254400
   4154   4153   4156     1   109.5600471 388.275200
   4154   4153   4162     1   108.8800464 416.726400
   4154   4153   4155     1   108.4600466 328.025600
   4155   4153   4156     1   109.5600471 388.275200
   4155   4153   4162     1   108.8800464 416.726400
   4156   4159   4160     1   109.2900470 396.643200
   4156   4159   4161     1   109.2900470 396.643200
   4157   4156   4159     1   109.8800469 414.216000
   4157   4156   4158     1   108.4600466 328.025600
   4158   4156   4159     1   109.8800469 414.216000
   4160   4159   4161     1   106.4000456 346.435200
   4164   4167   4168     1   109.5600471 388.275200
   4164   4167   4169     1   109.5600471 388.275200
   4164   4173   4174     1   117.6800502 383.254400
   4165   4164   4167     1   109.5600471 388.275200
   4165   4164   4173     1   108.8800464 416.726400
   4165   4164   4166     1   108.4600466 328.025600
   4166   4164   4167     1   109.5600471 388.275200
   4166   4164   4173     1   108.8800464 416.726400
   4167   4170   4171     1   109.2900470 396.643200
   4167   4170   4172     1   109.2900470 396.643200
   4168   4167   4170     1   109.8800469 414.216000
   4168   4167   4169     1   108.4600466 328.025600
   4169   4167   4170     1   109.8800469 414.216000
   4171   4170   4172     1   106.4000456 346.435200
   4175   4178   4179     1   109.5600471 388.275200
   4175   4178   4180     1   109.5600471 388.275200
   4175   4184   4185     1   117.6800502 383.254400
   4176   4175   4178     1   109.5600471 388.275200
   4176   4175   4184     1   108.8800464 416.726400
   4176   4175   4177     1   108.4600466 328.025600
   4177   4175   4178     1   109.5600471 388.275200
   4177   4175   4184     1   108.8800464 416.726400
   4178   4181   4182     1   109.2900470 396.643200
   4178   4181   4183     1   109.2900470 396.643200
   4179   4178   4181     1   109.8800469 414.216000
   4179   4178   4180     1   108.4600466 328.025600
   4180   4178   4181     1   109.8800469 414.216000
   4182   4181   4183     1   106.4000456 346.435200
   4186   4189   4190     1   109.5600471 388.275200
   4186   4189   4191     1   109.5600471 388.275200
   4186   4195   4196     1   117.6800502 383.254400
   4187   4186   4189     1   109.5600471 388.275200
   4187   4186   4195     1   108.8800464 416.726400
   4187   4186   4188     1   108.4600466 328.025600
   4188   4186   4189     1   109.5600471 388.275200
   4188   4186   4195     1   108.8800464 416.726400
   4189   4192   4193     1   109.2900470 396.643200
   4189   4192   4194     1   109.2900470 396.643200
   4190   4189   4192     1   109.8800469 414.216000
   4190   4189   4191     1   108.4600466 328.025600
   4191   4189   4192     1   109.8800469 414.216000
   4193   4192   4194     1   106.4000456 346.435200
   4197   4200   4201     1   109.5600471 388.275200
   4197   4200   4202     1   109.5600471 388.275200
   4197   4206   4207     1   117.6800502 383.254400
   4198   4197   4200     1   109.5600471 388.275200
   4198   4197   4206     1   108.8800464 416.726400
   4198   4197   4199     1   108.4600466 328.025600
   4199   4197   4200     1   109.5600471 388.275200
   4199   4197   4206     1   108.8800464 416.726400
   4200   4203   4204     1   109.2900470 396.643200
   4200   4203   4205     1   109.2900470 396.643200
   4201   4200   4203     1   109.8800469 414.216000
   4201   4200   4202     1   108.4600466 328.025600
   4202   4200   4203     1   109.8800469 414.216000
   4204   4203   4205     1   106.4000456 346.435200
   4208   4211   4212     1   109.5600471 388.275200
   4208   4211   4213     1   109.5600471 388.275200
   4208   4217   4218     1   117.6800502 383.254400
   4209   4208   4211     1   109.5600471 388.275200
   4209   4208   4217     1   108.8800464 416.726400
   4209   4208   4210     1   108.4600466 328.025600
   4210   4208   4211     1   109.5600471 388.275200
   4210   4208   4217     1   108.8800464 416.726400
   4211   4214   4215     1   109.2900470 396.643200
   4211   4214   4216     1   109.2900470 396.643200
   4212   4211   4214     1   109.8800469 414.216000
   4212   4211   4213     1   108.4600466 328.025600
   4213   4211   4214     1   109.8800469 414.216000
   4215   4214   4216     1   106.4000456 346.435200
   4219   4222   4223     1   109.5600471 388.275200
   4219   4222   4224     1   109.5600471 388.275200
   4219   4228   4229     1   117.6800502 383.254400
   4220   4219   4222     1   109.5600471 388.275200
   4220   4219   4228     1   108.8800464 416.726400
   4220   4219   4221     1   108.4600466 328.025600
   4221   4219   4222     1   109.5600471 388.275200
   4221   4219   4228     1   108.8800464 416.726400
   4222   4225   4226     1   109.2900470 396.643200
   4222   4225   4227     1   109.2900470 396.643200
   4223   4222   4225     1   109.8800469 414.216000
   4223   4222   4224     1   108.4600466 328.025600
   4224   4222   4225     1   109.8800469 414.216000
   4226   4225   4227     1   106.4000456 346.435200
   4230   4233   4234     1   109.5600471 388.275200
   4230   4233   4235     1   109.5600471 388.275200
   4230   4239   4240     1   117.6800502 383.254400
   4231   4230   4233     1   109.5600471 388.275200
   4231   4230   4239     1   108.8800464 416.726400
   4231   4230   4232     1   108.4600466 328.025600
   4232   4230   4233     1   109.5600471 388.275200
   4232   4230   4239     1   108.8800464 416.726400
   4233   4236   4237     1   109.2900470 396.643200
   4233   4236   4238     1   109.2900470 396.643200
   4234   4233   4236     1   109.8800469 414.216000
   4234   4233   4235     1   108.4600466 328.025600
   4235   4233   4236     1   109.8800469 414.216000
   4237   4236   4238     1   106.4000456 346.435200
   4241   4244   4245     1   109.5600471 388.275200
   4241   4244   4246     1   109.5600471 388.275200
   4241   4250   4251     1   117.6800502 383.254400
   4242   4241   4244     1   109.5600471 388.275200
   4242   4241   4250     1   108.8800464 416.726400
   4242   4241   4243     1   108.4600466 328.025600
   4243   4241   4244     1   109.5600471 388.275200
   4243   4241   4250     1   108.8800464 416.726400
   4244   4247   4248     1   109.2900470 396.643200
   4244   4247   4249     1   109.2900470 396.643200
   4245   4244   4247     1   109.8800469 414.216000
   4245   4244   4246     1   108.4600466 328.025600
   4246   4244   4247     1   109.8800469 414.216000
   4248   4247   4249     1   106.4000456 346.435200
   4252   4255   4256     1   109.5600471 388.275200
   4252   4255   4257     1   109.5600471 388.275200
   4252   4261   4262     1   117.6800502 383.254400
   4253   4252   4255     1   109.5600471 388.275200
   4253   4252   4261     1   108.8800464 416.726400
   4253   4252   4254     1   108.4600466 328.025600
   4254   4252   4255     1   109.5600471 388.275200
   4254   4252   4261     1   108.8800464 416.726400
   4255   4258   4259     1   109.2900470 396.643200
   4255   4258   4260     1   109.2900470 396.643200
   4256   4255   4258     1   109.8800469 414.216000
   4256   4255   4257     1   108.4600466 328.025600
   4257   4255   4258     1   109.8800469 414.216000
   4259   4258   4260     1   106.4000456 346.435200
   4263   4266   4267     1   109.5600471 388.275200
   4263   4266   4268     1   109.5600471 388.275200
   4263   4272   4273     1   117.6800502 383.254400
   4264   4263   4266     1   109.5600471 388.275200
   4264   4263   4272     1   108.8800464 416.726400
   4264   4263   4265     1   108.4600466 328.025600
   4265   4263   4266     1   109.5600471 388.275200
   4265   4263   4272     1   108.8800464 416.726400
   4266   4269   4270     1   109.2900470 396.643200
   4266   4269   4271     1   109.2900470 396.643200
   4267   4266   4269     1   109.8800469 414.216000
   4267   4266   4268     1   108.4600466 328.025600
   4268   4266   4269     1   109.8800469 414.216000
   4270   4269   4271     1   106.4000456 346.435200
   4274   4277   4278     1   109.5600471 388.275200
   4274   4277   4279     1   109.5600471 388.275200
   4274   4283   4284     1   117.6800502 383.254400
   4275   4274   4277     1   109.5600471 388.275200
   4275   4274   4283     1   108.8800464 416.726400
   4275   4274   4276     1   108.4600466 328.025600
   4276   4274   4277     1   109.5600471 388.275200
   4276   4274   4283     1   108.8800464 416.726400
   4277   4280   4281     1   109.2900470 396.643200
   4277   4280   4282     1   109.2900470 396.643200
   4278   4277   4280     1   109.8800469 414.216000
   4278   4277   4279     1   108.4600466 328.025600
   4279   4277   4280     1   109.8800469 414.216000
   4281   4280   4282     1   106.4000456 346.435200
   4285   4288   4289     1   109.5600471 388.275200
   4285   4288   4290     1   109.5600471 388.275200
   4285   4294   4295     1   117.6800502 383.254400
   4286   4285   4288     1   109.5600471 388.275200
   4286   4285   4294     1   108.8800464 416.726400
   4286   4285   4287     1   108.4600466 328.025600
   4287   4285   4288     1   109.5600471 388.275200
   4287   4285   4294     1   108.8800464 416.726400
   4288   4291   4292     1   109.2900470 396.643200
   4288   4291   4293     1   109.2900470 396.643200
   4289   4288   4291     1   109.8800469 414.216000
   4289   4288   4290     1   108.4600466 328.025600
   4290   4288   4291     1   109.8800469 414.216000
   4292   4291   4293     1   106.4000456 346.435200
   4296   4299   4300     1   109.5600471 388.275200
   4296   4299   4301     1   109.5600471 388.275200
   4296   4305   4306     1   117.6800502 383.254400
   4297   4296   4299     1   109.5600471 388.275200
   4297   4296   4305     1   108.8800464 416.726400
   4297   4296   4298     1   108.4600466 328.025600
   4298   4296   4299     1   109.5600471 388.275200
   4298   4296   4305     1   108.8800464 416.726400
   4299   4302   4303     1   109.2900470 396.643200
   4299   4302   4304     1   109.2900470 396.643200
   4300   4299   4302     1   109.8800469 414.216000
   4300   4299   4301     1   108.4600466 328.025600
   4301   4299   4302     1   109.8800469 414.216000
   4303   4302   4304     1   106.4000456 346.435200
   4307   4310   4311     1   109.5600471 388.275200
   4307   4310   4312     1   109.5600471 388.275200
   4307   4316   4317     1   117.6800502 383.254400
   4308   4307   4310     1   109.5600471 388.275200
   4308   4307   4316     1   108.8800464 416.726400
   4308   4307   4309     1   108.4600466 328.025600
   4309   4307   4310     1   109.5600471 388.275200
   4309   4307   4316     1   108.8800464 416.726400
   4310   4313   4314     1   109.2900470 396.643200
   4310   4313   4315     1   109.2900470 396.643200
   4311   4310   4313     1   109.8800469 414.216000
   4311   4310   4312     1   108.4600466 328.025600
   4312   4310   4313     1   109.8800469 414.216000
   4314   4313   4315     1   106.4000456 346.435200
   4318   4321   4322     1   109.5600471 388.275200
   4318   4321   4323     1   109.5600471 388.275200
   4318   4327   4328     1   117.6800502 383.254400
   4319   4318   4321     1   109.5600471 388.275200
   4319   4318   4327     1   108.8800464 416.726400
   4319   4318   4320     1   108.4600466 328.025600
   4320   4318   4321     1   109.5600471 388.275200
   4320   4318   4327     1   108.8800464 416.726400
   4321   4324   4325     1   109.2900470 396.643200
   4321   4324   4326     1   109.2900470 396.643200
   4322   4321   4324     1   109.8800469 414.216000
   4322   4321   4323     1   108.4600466 328.025600
   4323   4321   4324     1   109.8800469 414.216000
   4325   4324   4326     1   106.4000456 346.435200
   4329   4332   4333     1   109.5600471 388.275200
   4329   4332   4334     1   109.5600471 388.275200
   4329   4338   4339     1   117.6800502 383.254400
   4330   4329   4332     1   109.5600471 388.275200
   4330   4329   4338     1   108.8800464 416.726400
   4330   4329   4331     1   108.4600466 328.025600
   4331   4329   4332     1   109.5600471 388.275200
   4331   4329   4338     1   108.8800464 416.726400
   4332   4335   4336     1   109.2900470 396.643200
   4332   4335   4337     1   109.2900470 396.643200
   4333   4332   4335     1   109.8800469 414.216000
   4333   4332   4334     1   108.4600466 328.025600
   4334   4332   4335     1   109.8800469 414.216000
   4336   4335   4337     1   106.4000456 346.435200
   4340   4343   4344     1   109.5600471 388.275200
   4340   4343   4345     1   109.5600471 388.275200
   4340   4349   4350     1   117.6800502 383.254400
   4341   4340   4343     1   109.5600471 388.275200
   4341   4340   4349     1   108.8800464 416.726400
   4341   4340   4342     1   108.4600466 328.025600
   4342   4340   4343     1   109.5600471 388.275200
   4342   4340   4349     1   108.8800464 416.726400
   4343   4346   4347     1   109.2900470 396.643200
   4343   4346   4348     1   109.2900470 396.643200
   4344   4343   4346     1   109.8800469 414.216000
   4344   4343   4345     1   108.4600466 328.025600
   4345   4343   4346     1   109.8800469 414.216000
   4347   4346   4348     1   106.4000456 346.435200
   4351   4354   4355     1   109.5600471 388.275200
   4351   4354   4356     1   109.5600471 388.275200
   4351   4360   4361     1   117.6800502 383.254400
   4352   4351   4354     1   109.5600471 388.275200
   4352   4351   4360     1   108.8800464 416.726400
   4352   4351   4353     1   108.4600466 328.025600
   4353   4351   4354     1   109.5600471 388.275200
   4353   4351   4360     1   108.8800464 416.726400
   4354   4357   4358     1   109.2900470 396.643200
   4354   4357   4359     1   109.2900470 396.643200
   4355   4354   4357     1   109.8800469 414.216000
   4355   4354   4356     1   108.4600466 328.025600
   4356   4354   4357     1   109.8800469 414.216000
   4358   4357   4359     1   106.4000456 346.435200
   4362   4365   4366     1   109.5600471 388.275200
   4362   4365   4367     1   109.5600471 388.275200
   4362   4371   4372     1   117.6800502 383.254400
   4363   4362   4365     1   109.5600471 388.275200
   4363   4362   4371     1   108.8800464 416.726400
   4363   4362   4364     1   108.4600466 328.025600
   4364   4362   4365     1   109.5600471 388.275200
   4364   4362   4371     1   108.8800464 416.726400
   4365   4368   4369     1   109.2900470 396.643200
   4365   4368   4370     1   109.2900470 396.643200
   4366   4365   4368     1   109.8800469 414.216000
   4366   4365   4367     1   108.4600466 328.025600
   4367   4365   4368     1   109.8800469 414.216000
   4369   4368   4370     1   106.4000456 346.435200
   4373   4376   4377     1   109.5600471 388.275200
   4373   4376   4378     1   109.5600471 388.275200
   4373   4382   4383     1   117.6800502 383.254400
   4374   4373   4376     1   109.5600471 388.275200
   4374   4373   4382     1   108.8800464 416.726400
   4374   4373   4375     1   108.4600466 328.025600
   4375   4373   4376     1   109.5600471 388.275200
   4375   4373   4382     1   108.8800464 416.726400
   4376   4379   4380     1   109.2900470 396.643200
   4376   4379   4381     1   109.2900470 396.643200
   4377   4376   4379     1   109.8800469 414.216000
   4377   4376   4378     1   108.4600466 328.025600
   4378   4376   4379     1   109.8800469 414.216000
   4380   4379   4381     1   106.4000456 346.435200
   4384   4387   4388     1   109.5600471 388.275200
   4384   4387   4389     1   109.5600471 388.275200
   4384   4393   4394     1   117.6800502 383.254400
   4385   4384   4387     1   109.5600471 388.275200
   4385   4384   4393     1   108.8800464 416.726400
   4385   4384   4386     1   108.4600466 328.025600
   4386   4384   4387     1   109.5600471 388.275200
   4386   4384   4393     1   108.8800464 416.726400
   4387   4390   4391     1   109.2900470 396.643200
   4387   4390   4392     1   109.2900470 396.643200
   4388   4387   4390     1   109.8800469 414.216000
   4388   4387   4389     1   108.4600466 328.025600
   4389   4387   4390     1   109.8800469 414.216000
   4391   4390   4392     1   106.4000456 346.435200
   4395   4398   4399     1   109.5600471 388.275200
   4395   4398   4400     1   109.5600471 388.275200
   4395   4404   4405     1   117.6800502 383.254400
   4396   4395   4398     1   109.5600471 388.275200
   4396   4395   4404     1   108.8800464 416.726400
   4396   4395   4397     1   108.4600466 328.025600
   4397   4395   4398     1   109.5600471 388.275200
   4397   4395   4404     1   108.8800464 416.726400
   4398   4401   4402     1   109.2900470 396.643200
   4398   4401   4403     1   109.2900470 396.643200
   4399   4398   4401     1   109.8800469 414.216000
   4399   4398   4400     1   108.4600466 328.025600
   4400   4398   4401     1   109.8800469 414.216000
   4402   4401   4403     1   106.4000456 346.435200
   4406   4409   4410     1   109.5600471 388.275200
   4406   4409   4411     1   109.5600471 388.275200
   4406   4415   4416     1   117.6800502 383.254400
   4407   4406   4409     1   109.5600471 388.275200
   4407   4406   4415     1   108.8800464 416.726400
   4407   4406   4408     1   108.4600466 328.025600
   4408   4406   4409     1   109.5600471 388.275200
   4408   4406   4415     1   108.8800464 416.726400
   4409   4412   4413     1   109.2900470 396.643200
   4409   4412   4414     1   109.2900470 396.643200
   4410   4409   4412     1   109.8800469 414.216000
   4410   4409   4411     1   108.4600466 328.025600
   4411   4409   4412     1   109.8800469 414.216000
   4413   4412   4414     1   106.4000456 346.435200
   4417   4420   4421     1   109.5600471 388.275200
   4417   4420   4422     1   109.5600471 388.275200
   4417   4426   4427     1   117.6800502 383.254400
   4418   4417   4420     1   109.5600471 388.275200
   4418   4417   4426     1   108.8800464 416.726400
   4418   4417   4419     1   108.4600466 328.025600
   4419   4417   4420     1   109.5600471 388.275200
   4419   4417   4426     1   108.8800464 416.726400
   4420   4423   4424     1   109.2900470 396.643200
   4420   4423   4425     1   109.2900470 396.643200
   4421   4420   4423     1   109.8800469 414.216000
   4421   4420   4422     1   108.4600466 328.025600
   4422   4420   4423     1   109.8800469 414.216000
   4424   4423   4425     1   106.4000456 346.435200
   4428   4431   4432     1   109.5600471 388.275200
   4428   4431   4433     1   109.5600471 388.275200
   4428   4437   4438     1   117.6800502 383.254400
   4429   4428   4431     1   109.5600471 388.275200
   4429   4428   4437     1   108.8800464 416.726400
   4429   4428   4430     1   108.4600466 328.025600
   4430   4428   4431     1   109.5600471 388.275200
   4430   4428   4437     1   108.8800464 416.726400
   4431   4434   4435     1   109.2900470 396.643200
   4431   4434   4436     1   109.2900470 396.643200
   4432   4431   4434     1   109.8800469 414.216000
   4432   4431   4433     1   108.4600466 328.025600
   4433   4431   4434     1   109.8800469 414.216000
   4435   4434   4436     1   106.4000456 346.435200
   4439   4442   4443     1   109.5600471 388.275200
   4439   4442   4444     1   109.5600471 388.275200
   4439   4448   4449     1   117.6800502 383.254400
   4440   4439   4442     1   109.5600471 388.275200
   4440   4439   4448     1   108.8800464 416.726400
   4440   4439   4441     1   108.4600466 328.025600
   4441   4439   4442     1   109.5600471 388.275200
   4441   4439   4448     1   108.8800464 416.726400
   4442   4445   4446     1   109.2900470 396.643200
   4442   4445   4447     1   109.2900470 396.643200
   4443   4442   4445     1   109.8800469 414.216000
   4443   4442   4444     1   108.4600466 328.025600
   4444   4442   4445     1   109.8800469 414.216000
   4446   4445   4447     1   106.4000456 346.435200
   4450   4453   4454     1   109.5600471 388.275200
   4450   4453   4455     1   109.5600471 388.275200
   4450   4459   4460     1   117.6800502 383.254400
   4451   4450   4453     1   109.5600471 388.275200
   4451   4450   4459     1   108.8800464 416.726400
   4451   4450   4452     1   108.4600466 328.025600
   4452   4450   4453     1   109.5600471 388.275200
   4452   4450   4459     1   108.8800464 416.726400
   4453   4456   4457     1   109.2900470 396.643200
   4453   4456   4458     1   109.2900470 396.643200
   4454   4453   4456     1   109.8800469 414.216000
   4454   4453   4455     1   108.4600466 328.025600
   4455   4453   4456     1   109.8800469 414.216000
   4457   4456   4458     1   106.4000456 346.435200
   4461   4464   4465     1   109.5600471 388.275200
   4461   4464   4466     1   109.5600471 388.275200
   4461   4470   4471     1   117.6800502 383.254400
   4462   4461   4464     1   109.5600471 388.275200
   4462   4461   4470     1   108.8800464 416.726400
   4462   4461   4463     1   108.4600466 328.025600
   4463   4461   4464     1   109.5600471 388.275200
   4463   4461   4470     1   108.8800464 416.726400
   4464   4467   4468     1   109.2900470 396.643200
   4464   4467   4469     1   109.2900470 396.643200
   4465   4464   4467     1   109.8800469 414.216000
   4465   4464   4466     1   108.4600466 328.025600
   4466   4464   4467     1   109.8800469 414.216000
   4468   4467   4469     1   106.4000456 346.435200
   4472   4475   4476     1   109.5600471 388.275200
   4472   4475   4477     1   109.5600471 388.275200
   4472   4481   4482     1   117.6800502 383.254400
   4473   4472   4475     1   109.5600471 388.275200
   4473   4472   4481     1   108.8800464 416.726400
   4473   4472   4474     1   108.4600466 328.025600
   4474   4472   4475     1   109.5600471 388.275200
   4474   4472   4481     1   108.8800464 416.726400
   4475   4478   4479     1   109.2900470 396.643200
   4475   4478   4480     1   109.2900470 396.643200
   4476   4475   4478     1   109.8800469 414.216000
   4476   4475   4477     1   108.4600466 328.025600
   4477   4475   4478     1   109.8800469 414.216000
   4479   4478   4480     1   106.4000456 346.435200
   4483   4486   4487     1   109.5600471 388.275200
   4483   4486   4488     1   109.5600471 388.275200
   4483   4492   4493     1   117.6800502 383.254400
   4484   4483   4486     1   109.5600471 388.275200
   4484   4483   4492     1   108.8800464 416.726400
   4484   4483   4485     1   108.4600466 328.025600
   4485   4483   4486     1   109.5600471 388.275200
   4485   4483   4492     1   108.8800464 416.726400
   4486   4489   4490     1   109.2900470 396.643200
   4486   4489   4491     1   109.2900470 396.643200
   4487   4486   4489     1   109.8800469 414.216000
   4487   4486   4488     1   108.4600466 328.025600
   4488   4486   4489     1   109.8800469 414.216000
   4490   4489   4491     1   106.4000456 346.435200
   4494   4497   4498     1   109.5600471 388.275200
   4494   4497   4499     1   109.5600471 388.275200
   4494   4503   4504     1   117.6800502 383.254400
   4495   4494   4497     1   109.5600471 388.275200
   4495   4494   4503     1   108.8800464 416.726400
   4495   4494   4496     1   108.4600466 328.025600
   4496   4494   4497     1   109.5600471 388.275200
   4496   4494   4503     1   108.8800464 416.726400
   4497   4500   4501     1   109.2900470 396.643200
   4497   4500   4502     1   109.2900470 396.643200
   4498   4497   4500     1   109.8800469 414.216000
   4498   4497   4499     1   108.4600466 328.025600
   4499   4497   4500     1   109.8800469 414.216000
   4501   4500   4502     1   106.4000456 346.435200
   4505   4508   4509     1   109.5600471 388.275200
   4505   4508   4510     1   109.5600471 388.275200
   4505   4514   4515     1   117.6800502 383.254400
   4506   4505   4508     1   109.5600471 388.275200
   4506   4505   4514     1   108.8800464 416.726400
   4506   4505   4507     1   108.4600466 328.025600
   4507   4505   4508     1   109.5600471 388.275200
   4507   4505   4514     1   108.8800464 416.726400
   4508   4511   4512     1   109.2900470 396.643200
   4508   4511   4513     1   109.2900470 396.643200
   4509   4508   4511     1   109.8800469 414.216000
   4509   4508   4510     1   108.4600466 328.025600
   4510   4508   4511     1   109.8800469 414.216000
   4512   4511   4513     1   106.4000456 346.435200
   4516   4519   4520     1   109.5600471 388.275200
   4516   4519   4521     1   109.5600471 388.275200
   4516   4525   4526     1   117.6800502 383.254400
   4517   4516   4519     1   109.5600471 388.275200
   4517   4516   4525     1   108.8800464 416.726400
   4517   4516   4518     1   108.4600466 328.025600
   4518   4516   4519     1   109.5600471 388.275200
   4518   4516   4525     1   108.8800464 416.726400
   4519   4522   4523     1   109.2900470 396.643200
   4519   4522   4524     1   109.2900470 396.643200
   4520   4519   4522     1   109.8800469 414.216000
   4520   4519   4521     1   108.4600466 328.025600
   4521   4519   4522     1   109.8800469 414.216000
   4523   4522   4524     1   106.4000456 346.435200
   4527   4530   4531     1   109.5600471 388.275200
   4527   4530   4532     1   109.5600471 388.275200
   4527   4536   4537     1   117.6800502 383.254400
   4528   4527   4530     1   109.5600471 388.275200
   4528   4527   4536     1   108.8800464 416.726400
   4528   4527   4529     1   108.4600466 328.025600
   4529   4527   4530     1   109.5600471 388.275200
   4529   4527   4536     1   108.8800464 416.726400
   4530   4533   4534     1   109.2900470 396.643200
   4530   4533   4535     1   109.2900470 396.643200
   4531   4530   4533     1   109.8800469 414.216000
   4531   4530   4532     1   108.4600466 328.025600
   4532   4530   4533     1   109.8800469 414.216000
   4534   4533   4535     1   106.4000456 346.435200
   4538   4541   4542     1   109.5600471 388.275200
   4538   4541   4543     1   109.5600471 388.275200
   4538   4547   4548     1   117.6800502 383.254400
   4539   4538   4541     1   109.5600471 388.275200
   4539   4538   4547     1   108.8800464 416.726400
   4539   4538   4540     1   108.4600466 328.025600
   4540   4538   4541     1   109.5600471 388.275200
   4540   4538   4547     1   108.8800464 416.726400
   4541   4544   4545     1   109.2900470 396.643200
   4541   4544   4546     1   109.2900470 396.643200
   4542   4541   4544     1   109.8800469 414.216000
   4542   4541   4543     1   108.4600466 328.025600
   4543   4541   4544     1   109.8800469 414.216000
   4545   4544   4546     1   106.4000456 346.435200

[ dihedrals ]
;    ai     aj     ak     al funct         c0         c1         c2         c3         c4         c5
      1      4      7     15     1  180.0000771  2.0083200  2
      1      4      7     15     1  0.0000000  1.2552000  3
      1      4      7     18     1  180.0000771  2.0083200  2
      1      4      7     18     1  0.0000000  1.2552000  3
      1      8      9     30     1  180.0000771  2.0083200  2
      1      8      9     30     1  0.0000000  1.2552000  3
      1      8     12     27     1  180.0000771  2.0083200  2
      1      8     12     27     1  0.0000000  1.2552000  3
      4      1      8      9     1  180.0000771  2.0083200  2
      4      1      8      9     1  0.0000000  1.2552000  3
      4      1      8     12     1  180.0000771  2.0083200  2
      4      1      8     12     1  0.0000000  1.2552000  3
      4      7     15     21     1  180.0000771  2.0083200  2
      4      7     15     21     1  0.0000000  1.2552000  3
      4      7     18     24     1  180.0000771  2.0083200  2
      4      7     18     24     1  0.0000000  1.2552000  3
      8      1      4      7     1  0.0000000  0.6508444  3
      7     15     21     35     1  0.0000000  0.6508444  3
      7     18     24     36     1  0.0000000  0.6508444  3
      8      9     30     34     1  0.0000000  0.6508444  3
      8     12     27     33     1  0.0000000  0.6508444  3
      9      8     12     27     1  180.0000771  2.0083200  2
      9      8     12     27     1  0.0000000  1.2552000  3
      9     30     34     40     1  180.0000771  0.0000000  2
      9     30     34     89     1  0.0000000  0.2928800  2
      9     30     34     89     1  0.0000000  0.4184000  4
     12      8      9     30     1  180.0000771  2.0083200  2
     12      8      9     30     1  0.0000000  1.2552000  3
     12     27     33     37     1  180.0000771  0.0000000  2
     12     27     33     64     1  0.0000000  0.2928800  2
     12     27     33     64     1  0.0000000  0.4184000  4
     15      7     18     24     1  180.0000771  2.0083200  2
     15      7     18     24     1  0.0000000  1.2552000  3
     15     21     35     38     1  180.0000771  0.0000000  2
     15     21     35    114     1  0.0000000  0.2928800  2
     15     21     35    114     1  0.0000000  0.4184000  4
     18      7     15     21     1  180.0000771  2.0083200  2
     18      7     15     21     1  0.0000000  1.2552000  3
     18     24     36     39     1  180.0000771  0.0000000  2
     18     24     36    139     1  0.0000000  0.2928800  2
     18     24     36    139     1  0.0000000  0.4184000  4
     21     35    114     94     1  180.0000771  6.2760000  1
     21     35    114     94     1  0.0000000  0.0000000  2
     24     36    139    119     1  180.0000771  6.2760000  1
     24     36    139    119     1  0.0000000  0.0000000  2
     27     33     64     44     1  180.0000771  6.2760000  1
     27     33     64     44     1  0.0000000  0.0000000  2
     30     34     89     69     1  180.0000771  6.2760000  1
     30     34     89     69     1  0.0000000  0.0000000  2
     33     64     44     41     1  0.0000000  2.2175200  1
     33     64     44     41     1  0.0000000  0.0000000  2
     33     64     44     41     1  180.0000771  0.6276000  3
     33     64     44     41     1  180.0000771  2.0920000  4
     34     89     69     66     1  0.0000000  2.2175200  1
     34     89     69     66     1  0.0000000  0.0000000  2
     34     89     69     66     1  180.0000771  0.6276000  3
     34     89     69     66     1  180.0000771  2.0920000  4
     35    114     94     91     1  0.0000000  2.2175200  1
     35    114     94     91     1  0.0000000  0.0000000  2
     35    114     94     91     1  180.0000771  0.6276000  3
     35    114     94     91     1  180.0000771  2.0920000  4
     36    139    119    116     1  0.0000000  2.2175200  1
     36    139    119    116     1  0.0000000  0.0000000  2
     36    139    119    116     1  180.0000771  0.6276000  3
     36    139    119    116     1  180.0000771  2.0920000  4
     37     33     64     44     1  180.0000771  10.4600000  2
     38     35    114     94     1  180.0000771  10.4600000  2
     39     36    139    119     1  180.0000771  10.4600000  2
     40     34     89     69     1  180.0000771  10.4600000  2
     41     47     48     57     1  180.0000771  2.0083200  2
     41     47     48     57     1  0.0000000  1.2552000  3
     41     47     51     54     1  180.0000771  2.0083200  2
     41     47     51     54     1  0.0000000  1.2552000  3
     44     41     47     48     1  180.0000771  2.0083200  2
     44     41     47     48     1  0.0000000  1.2552000  3
     44     41     47     51     1  180.0000771  2.0083200  2
     44     41     47     51     1  0.0000000  1.2552000  3
     47     41     44     64     1  0.0000000  0.6508444  3
     47     48     57     61     1  0.0000000  0.6508444  3
     47     51     54     60     1  0.0000000  0.6508444  3
     48     47     51     54     1  180.0000771  2.0083200  2
     48     47     51     54     1  0.0000000  1.2552000  3
     48     57     61     63     1  180.0000771  0.0000000  2
     48     57     61    189     1  0.0000000  0.2928800  2
     48     57     61    189     1  0.0000000  0.4184000  4
     51     47     48     57     1  180.0000771  2.0083200  2
     51     47     48     57     1  0.0000000  1.2552000  3
     51     54     60     62     1  180.0000771  0.0000000  2
     51     54     60    164     1  0.0000000  0.2928800  2
     51     54     60    164     1  0.0000000  0.4184000  4
     54     60    164    144     1  180.0000771  6.2760000  1
     54     60    164    144     1  0.0000000  0.0000000  2
     57     61    189    169     1  180.0000771  6.2760000  1
     57     61    189    169     1  0.0000000  0.0000000  2
     60    164    144    141     1  0.0000000  2.2175200  1
     60    164    144    141     1  0.0000000  0.0000000  2
     60    164    144    141     1  180.0000771  0.6276000  3
     60    164    144    141     1  180.0000771  2.0920000  4
     61    189    169    166     1  0.0000000  2.2175200  1
     61    189    169    166     1  0.0000000  0.0000000  2
     61    189    169    166     1  180.0000771  0.6276000  3
     61    189    169    166     1  180.0000771  2.0920000  4
     62     60    164    144     1  180.0000771  10.4600000  2
     63     61    189    169     1  180.0000771  10.4600000  2
     66     72     73     82     1  180.0000771  2.0083200  2
     66     72     73     82     1  0.0000000  1.2552000  3
     66     72     76     79     1  180.0000771  2.0083200  2
     66     72     76     79     1  0.0000000  1.2552000  3
     69     66     72     73     1  180.0000771  2.0083200  2
     69     66     72     73     1  0.0000000  1.2552000  3
     69     66     72     76     1  180.0000771  2.0083200  2
     69     66     72     76     1  0.0000000  1.2552000  3
     72     66     69     89     1  0.0000000  0.6508444  3
     72     73     82     86     1  0.0000000  0.6508444  3
     72     76     79     85     1  0.0000000  0.6508444  3
     73     72     76     79     1  180.0000771  2.0083200  2
     73     72     76     79     1  0.0000000  1.2552000  3
     73     82     86     88     1  180.0000771  0.0000000  2
     73     82     86    239     1  0.0000000  0.2928800  2
     73     82     86    239     1  0.0000000  0.4184000  4
     76     72     73     82     1  180.0000771  2.0083200  2
     76     72     73     82     1  0.0000000  1.2552000  3
     76     79     85     87     1  180.0000771  0.0000000  2
     76     79     85    214     1  0.0000000  0.2928800  2
     76     79     85    214     1  0.0000000  0.4184000  4
     79     85    214    194     1  180.0000771  6.2760000  1
     79     85    214    194     1  0.0000000  0.0000000  2
     82     86    239    219     1  180.0000771  6.2760000  1
     82     86    239    219     1  0.0000000  0.0000000  2
     85    214    194    191     1  0.0000000  2.2175200  1
     85    214    194    191     1  0.0000000  0.0000000  2
     85    214    194    191     1  180.0000771  0.6276000  3
     85    214    194    191     1  180.0000771  2.0920000  4
     86    239    219    216     1  0.0000000  2.2175200  1
     86    239    219    216     1  0.0000000  0.0000000  2
     86    239    219    216     1  180.0000771  0.6276000  3
     86    239    219    216     1  180.0000771  2.0920000  4
     87     85    214    194     1  180.0000771  10.4600000  2
     88     86    239    219     1  180.0000771  10.4600000  2
     91     97     98    107     1  180.0000771  2.0083200  2
     91     97     98    107     1  0.0000000  1.2552000  3
     91     97    101    104     1  180.0000771  2.0083200  2
     91     97    101    104     1  0.0000000  1.2552000  3
     94     91     97     98     1  180.0000771  2.0083200  2
     94     91     97     98     1  0.0000000  1.2552000  3
     94     91     97    101     1  180.0000771  2.0083200  2
     94     91     97    101     1  0.0000000  1.2552000  3
     97     91     94    114     1  0.0000000  0.6508444  3
     97     98    107    111     1  0.0000000  0.6508444  3
     97    101    104    110     1  0.0000000  0.6508444  3
     98     97    101    104     1  180.0000771  2.0083200  2
     98     97    101    104     1  0.0000000  1.2552000  3
     98    107    111    113     1  180.0000771  0.0000000  2
     98    107    111    289     1  0.0000000  0.2928800  2
     98    107    111    289     1  0.0000000  0.4184000  4
    101     97     98    107     1  180.0000771  2.0083200  2
    101     97     98    107     1  0.0000000  1.2552000  3
    101    104    110    112     1  180.0000771  0.0000000  2
    101    104    110    264     1  0.0000000  0.2928800  2
    101    104    110    264     1  0.0000000  0.4184000  4
    104    110    264    244     1  180.0000771  6.2760000  1
    104    110    264    244     1  0.0000000  0.0000000  2
    107    111    289    269     1  180.0000771  6.2760000  1
    107    111    289    269     1  0.0000000  0.0000000  2
    110    264    244    241     1  0.0000000  2.2175200  1
    110    264    244    241     1  0.0000000  0.0000000  2
    110    264    244    241     1  180.0000771  0.6276000  3
    110    264    244    241     1  180.0000771  2.0920000  4
    111    289    269    266     1  0.0000000  2.2175200  1
    111    289    269    266     1  0.0000000  0.0000000  2
    111    289    269    266     1  180.0000771  0.6276000  3
    111    289    269    266     1  180.0000771  2.0920000  4
    112    110    264    244     1  180.0000771  10.4600000  2
    113    111    289    269     1  180.0000771  10.4600000  2
    116    122    123    132     1  180.0000771  2.0083200  2
    116    122    123    132     1  0.0000000  1.2552000  3
    116    122    126    129     1  180.0000771  2.0083200  2
    116    122    126    129     1  0.0000000  1.2552000  3
    119    116    122    123     1  180.0000771  2.0083200  2
    119    116    122    123     1  0.0000000  1.2552000  3
    119    116    122    126     1  180.0000771  2.0083200  2
    119    116    122    126     1  0.0000000  1.2552000  3
    122    116    119    139     1  0.0000000  0.6508444  3
    122    123    132    136     1  0.0000000  0.6508444  3
    122    126    129    135     1  0.0000000  0.6508444  3
    123    122    126    129     1  180.0000771  2.0083200  2
    123    122    126    129     1  0.0000000  1.2552000  3
    123    132    136    138     1  180.0000771  0.0000000  2
    123    132    136    339     1  0.0000000  0.2928800  2
    123    132    136    339     1  0.0000000  0.4184000  4
    126    122    123    132     1  180.0000771  2.0083200  2
    126    122    123    132     1  0.0000000  1.2552000  3
    126    129    135    137     1  180.0000771  0.0000000  2
    126    129    135    314     1  0.0000000  0.2928800  2
    126    129    135    314     1  0.0000000  0.4184000  4
    129    135    314    294     1  180.0000771  6.2760000  1
    129    135    314    294     1  0.0000000  0.0000000  2
    132    136    339    319     1  180.0000771  6.2760000  1
    132    136    339    319     1  0.0000000  0.0000000  2
    135    314    294    291     1  0.0000000  2.2175200  1
    135    314    294    291     1  0.0000000  0.0000000  2
    135    314    294    291     1  180.0000771  0.6276000  3
    135    314    294    291     1  180.0000771  2.0920000  4
    136    339    319    316     1  0.0000000  2.2175200  1
    136    339    319    316     1  0.0000000  0.0000000  2
    136    339    319    316     1  180.0000771  0.6276000  3
    136    339    319    316     1  180.0000771  2.0920000  4
    137    135    314    294     1  180.0000771  10.4600000  2
    138    136    339    319     1  180.0000771  10.4600000  2
    141    147    148    157     1  180.0000771  2.0083200  2
    141    147    148    157     1  0.0000000  1.2552000  3
    141    147    151    154     1  180.0000771  2.0083200  2
    141    147    151    154     1  0.0000000  1.2552000  3
    144    141    147    148     1  180.0000771  2.0083200  2
    144    141    147    148     1  0.0000000  1.2552000  3
    144    141    147    151     1  180.0000771  2.0083200  2
    144    141    147    151     1  0.0000000  1.2552000  3
    147    141    144    164     1  0.0000000  0.6508444  3
    147    148    157    161     1  0.0000000  0.6508444  3
    147    151    154    160     1  0.0000000  0.6508444  3
    148    147    151    154     1  180.0000771  2.0083200  2
    148    147    151    154     1  0.0000000  1.2552000  3
    148    157    161    163     1  180.0000771  0.0000000  2
    148    157    161    389     1  0.0000000  0.2928800  2
    148    157    161    389     1  0.0000000  0.4184000  4
    151    147    148    157     1  180.0000771  2.0083200  2
    151    147    148    157     1  0.0000000  1.2552000  3
    151    154    160    162     1  180.0000771  0.0000000  2
    151    154    160    364     1  0.0000000  0.2928800  2
    151    154    160    364     1  0.0000000  0.4184000  4
    154    160    364    344     1  180.0000771  6.2760000  1
    154    160    364    344     1  0.0000000  0.0000000  2
    157    161    389    369     1  180.0000771  6.2760000  1
    157    161    389    369     1  0.0000000  0.0000000  2
    160    364    344    341     1  0.0000000  2.2175200  1
    160    364    344    341     1  0.0000000  0.0000000  2
    160    364    344    341     1  180.0000771  0.6276000  3
    160    364    344    341     1  180.0000771  2.0920000  4
    161    389    369    366     1  0.0000000  2.2175200  1
    161    389    369    366     1  0.0000000  0.0000000  2
    161    389    369    366     1  180.0000771  0.6276000  3
    161    389    369    366     1  180.0000771  2.0920000  4
    162    160    364    344     1  180.0000771  10.4600000  2
    163    161    389    369     1  180.0000771  10.4600000  2
    166    172    173    182     1  180.0000771  2.0083200  2
    166    172    173    182     1  0.0000000  1.2552000  3
    166    172    176    179     1  180.0000771  2.0083200  2
    166    172    176    179     1  0.0000000  1.2552000  3
    169    166    172    173     1  180.0000771  2.0083200  2
    169    166    172    173     1  0.0000000  1.2552000  3
    169    166    172    176     1  180.0000771  2.0083200  2
    169    166    172    176     1  0.0000000  1.2552000  3
    172    166    169    189     1  0.0000000  0.6508444  3
    172    173    182    186     1  0.0000000  0.6508444  3
    172    176    179    185     1  0.0000000  0.6508444  3
    173    172    176    179     1  180.0000771  2.0083200  2
    173    172    176    179     1  0.0000000  1.2552000  3
    173    182    186    188     1  180.0000771  0.0000000  2
    173    182    186    439     1  0.0000000  0.2928800  2
    173    182    186    439     1  0.0000000  0.4184000  4
    176    172    173    182     1  180.0000771  2.0083200  2
    176    172    173    182     1  0.0000000  1.2552000  3
    176    179    185    187     1  180.0000771  0.0000000  2
    176    179    185    414     1  0.0000000  0.2928800  2
    176    179    185    414     1  0.0000000  0.4184000  4
    179    185    414    394     1  180.0000771  6.2760000  1
    179    185    414    394     1  0.0000000  0.0000000  2
    182    186    439    419     1  180.0000771  6.2760000  1
    182    186    439    419     1  0.0000000  0.0000000  2
    185    414    394    391     1  0.0000000  2.2175200  1
    185    414    394    391     1  0.0000000  0.0000000  2
    185    414    394    391     1  180.0000771  0.6276000  3
    185    414    394    391     1  180.0000771  2.0920000  4
    186    439    419    416     1  0.0000000  2.2175200  1
    186    439    419    416     1  0.0000000  0.0000000  2
    186    439    419    416     1  180.0000771  0.6276000  3
    186    439    419    416     1  180.0000771  2.0920000  4
    187    185    414    394     1  180.0000771  10.4600000  2
    188    186    439    419     1  180.0000771  10.4600000  2
    191    197    198    207     1  180.0000771  2.0083200  2
    191    197    198    207     1  0.0000000  1.2552000  3
    191    197    201    204     1  180.0000771  2.0083200  2
    191    197    201    204     1  0.0000000  1.2552000  3
    194    191    197    198     1  180.0000771  2.0083200  2
    194    191    197    198     1  0.0000000  1.2552000  3
    194    191    197    201     1  180.0000771  2.0083200  2
    194    191    197    201     1  0.0000000  1.2552000  3
    197    191    194    214     1  0.0000000  0.6508444  3
    197    198    207    211     1  0.0000000  0.6508444  3
    197    201    204    210     1  0.0000000  0.6508444  3
    198    197    201    204     1  180.0000771  2.0083200  2
    198    197    201    204     1  0.0000000  1.2552000  3
    198    207    211    213     1  180.0000771  0.0000000  2
    198    207    211    489     1  0.0000000  0.2928800  2
    198    207    211    489     1  0.0000000  0.4184000  4
    201    197    198    207     1  180.0000771  2.0083200  2
    201    197    198    207     1  0.0000000  1.2552000  3
    201    204    210    212     1  180.0000771  0.0000000  2
    201    204    210    464     1  0.0000000  0.2928800  2
    201    204    210    464     1  0.0000000  0.4184000  4
    204    210    464    444     1  180.0000771  6.2760000  1
    204    210    464    444     1  0.0000000  0.0000000  2
    207    211    489    469     1  180.0000771  6.2760000  1
    207    211    489    469     1  0.0000000  0.0000000  2
    210    464    444    441     1  0.0000000  2.2175200  1
    210    464    444    441     1  0.0000000  0.0000000  2
    210    464    444    441     1  180.0000771  0.6276000  3
    210    464    444    441     1  180.0000771  2.0920000  4
    211    489    469    466     1  0.0000000  2.2175200  1
    211    489    469    466     1  0.0000000  0.0000000  2
    211    489    469    466     1  180.0000771  0.6276000  3
    211    489    469    466     1  180.0000771  2.0920000  4
    212    210    464    444     1  180.0000771  10.4600000  2
    213    211    489    469     1  180.0000771  10.4600000  2
    216    222    223    232     1  180.0000771  2.0083200  2
    216    222    223    232     1  0.0000000  1.2552000  3
    216    222    226    229     1  180.0000771  2.0083200  2
    216    222    226    229     1  0.0000000  1.2552000  3
    219    216    222    223     1  180.0000771  2.0083200  2
    219    216    222    223     1  0.0000000  1.2552000  3
    219    216    222    226     1  180.0000771  2.0083200  2
    219    216    222    226     1  0.0000000  1.2552000  3
    222    216    219    239     1  0.0000000  0.6508444  3
    222    223    232    236     1  0.0000000  0.6508444  3
    222    226    229    235     1  0.0000000  0.6508444  3
    223    222    226    229     1  180.0000771  2.0083200  2
    223    222    226    229     1  0.0000000  1.2552000  3
    223    232    236    238     1  180.0000771  0.0000000  2
    223    232    236    539     1  0.0000000  0.2928800  2
    223    232    236    539     1  0.0000000  0.4184000  4
    226    222    223    232     1  180.0000771  2.0083200  2
    226    222    223    232     1  0.0000000  1.2552000  3
    226    229    235    237     1  180.0000771  0.0000000  2
    226    229    235    514     1  0.0000000  0.2928800  2
    226    229    235    514     1  0.0000000  0.4184000  4
    229    235    514    494     1  180.0000771  6.2760000  1
    229    235    514    494     1  0.0000000  0.0000000  2
    232    236    539    519     1  180.0000771  6.2760000  1
    232    236    539    519     1  0.0000000  0.0000000  2
    235    514    494    491     1  0.0000000  2.2175200  1
    235    514    494    491     1  0.0000000  0.0000000  2
    235    514    494    491     1  180.0000771  0.6276000  3
    235    514    494    491     1  180.0000771  2.0920000  4
    236    539    519    516     1  0.0000000  2.2175200  1
    236    539    519    516     1  0.0000000  0.0000000  2
    236    539    519    516     1  180.0000771  0.6276000  3
    236    539    519    516     1  180.0000771  2.0920000  4
    237    235    514    494     1  180.0000771  10.4600000  2
    238    236    539    519     1  180.0000771  10.4600000  2
    241    247    248    257     1  180.0000771  2.0083200  2
    241    247    248    257     1  0.0000000  1.2552000  3
    241    247    251    254     1  180.0000771  2.0083200  2
    241    247    251    254     1  0.0000000  1.2552000  3
    244    241    247    248     1  180.0000771  2.0083200  2
    244    241    247    248     1  0.0000000  1.2552000  3
    244    241    247    251     1  180.0000771  2.0083200  2
    244    241    247    251     1  0.0000000  1.2552000  3
    247    241    244    264     1  0.0000000  0.6508444  3
    247    248    257    261     1  0.0000000  0.6508444  3
    247    251    254    260     1  0.0000000  0.6508444  3
    248    247    251    254     1  180.0000771  2.0083200  2
    248    247    251    254     1  0.0000000  1.2552000  3
    248    257    261    263     1  180.0000771  0.0000000  2
    248    257    261    589     1  0.0000000  0.2928800  2
    248    257    261    589     1  0.0000000  0.4184000  4
    251    247    248    257     1  180.0000771  2.0083200  2
    251    247    248    257     1  0.0000000  1.2552000  3
    251    254    260    262     1  180.0000771  0.0000000  2
    251    254    260    564     1  0.0000000  0.2928800  2
    251    254    260    564     1  0.0000000  0.4184000  4
    254    260    564    544     1  180.0000771  6.2760000  1
    254    260    564    544     1  0.0000000  0.0000000  2
    257    261    589    569     1  180.0000771  6.2760000  1
    257    261    589    569     1  0.0000000  0.0000000  2
    260    564    544    541     1  0.0000000  2.2175200  1
    260    564    544    541     1  0.0000000  0.0000000  2
    260    564    544    541     1  180.0000771  0.6276000  3
    260    564    544    541     1  180.0000771  2.0920000  4
    261    589    569    566     1  0.0000000  2.2175200  1
    261    589    569    566     1  0.0000000  0.0000000  2
    261    589    569    566     1  180.0000771  0.6276000  3
    261    589    569    566     1  180.0000771  2.0920000  4
    262    260    564    544     1  180.0000771  10.4600000  2
    263    261    589    569     1  180.0000771  10.4600000  2
    266    272    273    282     1  180.0000771  2.0083200  2
    266    272    273    282     1  0.0000000  1.2552000  3
    266    272    276    279     1  180.0000771  2.0083200  2
    266    272    276    279     1  0.0000000  1.2552000  3
    269    266    272    273     1  180.0000771  2.0083200  2
    269    266    272    273     1  0.0000000  1.2552000  3
    269    266    272    276     1  180.0000771  2.0083200  2
    269    266    272    276     1  0.0000000  1.2552000  3
    272    266    269    289     1  0.0000000  0.6508444  3
    272    273    282    286     1  0.0000000  0.6508444  3
    272    276    279    285     1  0.0000000  0.6508444  3
    273    272    276    279     1  180.0000771  2.0083200  2
    273    272    276    279     1  0.0000000  1.2552000  3
    273    282    286    288     1  180.0000771  0.0000000  2
    273    282    286    639     1  0.0000000  0.2928800  2
    273    282    286    639     1  0.0000000  0.4184000  4
    276    272    273    282     1  180.0000771  2.0083200  2
    276    272    273    282     1  0.0000000  1.2552000  3
    276    279    285    287     1  180.0000771  0.0000000  2
    276    279    285    614     1  0.0000000  0.2928800  2
    276    279    285    614     1  0.0000000  0.4184000  4
    279    285    614    594     1  180.0000771  6.2760000  1
    279    285    614    594     1  0.0000000  0.0000000  2
    282    286    639    619     1  180.0000771  6.2760000  1
    282    286    639    619     1  0.0000000  0.0000000  2
    285    614    594    591     1  0.0000000  2.2175200  1
    285    614    594    591     1  0.0000000  0.0000000  2
    285    614    594    591     1  180.0000771  0.6276000  3
    285    614    594    591     1  180.0000771  2.0920000  4
    286    639    619    616     1  0.0000000  2.2175200  1
    286    639    619    616     1  0.0000000  0.0000000  2
    286    639    619    616     1  180.0000771  0.6276000  3
    286    639    619    616     1  180.0000771  2.0920000  4
    287    285    614    594     1  180.0000771  10.4600000  2
    288    286    639    619     1  180.0000771  10.4600000  2
    291    297    298    307     1  180.0000771  2.0083200  2
    291    297    298    307     1  0.0000000  1.2552000  3
    291    297    301    304     1  180.0000771  2.0083200  2
    291    297    301    304     1  0.0000000  1.2552000  3
    294    291    297    298     1  180.0000771  2.0083200  2
    294    291    297    298     1  0.0000000  1.2552000  3
    294    291    297    301     1  180.0000771  2.0083200  2
    294    291    297    301     1  0.0000000  1.2552000  3
    297    291    294    314     1  0.0000000  0.6508444  3
    297    298    307    311     1  0.0000000  0.6508444  3
    297    301    304    310     1  0.0000000  0.6508444  3
    298    297    301    304     1  180.0000771  2.0083200  2
    298    297    301    304     1  0.0000000  1.2552000  3
    298    307    311    313     1  180.0000771  0.0000000  2
    298    307    311    689     1  0.0000000  0.2928800  2
    298    307    311    689     1  0.0000000  0.4184000  4
    301    297    298    307     1  180.0000771  2.0083200  2
    301    297    298    307     1  0.0000000  1.2552000  3
    301    304    310    312     1  180.0000771  0.0000000  2
    301    304    310    664     1  0.0000000  0.2928800  2
    301    304    310    664     1  0.0000000  0.4184000  4
    304    310    664    644     1  180.0000771  6.2760000  1
    304    310    664    644     1  0.0000000  0.0000000  2
    307    311    689    669     1  180.0000771  6.2760000  1
    307    311    689    669     1  0.0000000  0.0000000  2
    310    664    644    641     1  0.0000000  2.2175200  1
    310    664    644    641     1  0.0000000  0.0000000  2
    310    664    644    641     1  180.0000771  0.6276000  3
    310    664    644    641     1  180.0000771  2.0920000  4
    311    689    669    666     1  0.0000000  2.2175200  1
    311    689    669    666     1  0.0000000  0.0000000  2
    311    689    669    666     1  180.0000771  0.6276000  3
    311    689    669    666     1  180.0000771  2.0920000  4
    312    310    664    644     1  180.0000771  10.4600000  2
    313    311    689    669     1  180.0000771  10.4600000  2
    316    322    323    332     1  180.0000771  2.0083200  2
    316    322    323    332     1  0.0000000  1.2552000  3
    316    322    326    329     1  180.0000771  2.0083200  2
    316    322    326    329     1  0.0000000  1.2552000  3
    319    316    322    323     1  180.0000771  2.0083200  2
    319    316    322    323     1  0.0000000  1.2552000  3
    319    316    322    326     1  180.0000771  2.0083200  2
    319    316    322    326     1  0.0000000  1.2552000  3
    322    316    319    339     1  0.0000000  0.6508444  3
    322    323    332    336     1  0.0000000  0.6508444  3
    322    326    329    335     1  0.0000000  0.6508444  3
    323    322    326    329     1  180.0000771  2.0083200  2
    323    322    326    329     1  0.0000000  1.2552000  3
    323    332    336    338     1  180.0000771  0.0000000  2
    323    332    336    739     1  0.0000000  0.2928800  2
    323    332    336    739     1  0.0000000  0.4184000  4
    326    322    323    332     1  180.0000771  2.0083200  2
    326    322    323    332     1  0.0000000  1.2552000  3
    326    329    335    337     1  180.0000771  0.0000000  2
    326    329    335    714     1  0.0000000  0.2928800  2
    326    329    335    714     1  0.0000000  0.4184000  4
    329    335    714    694     1  180.0000771  6.2760000  1
    329    335    714    694     1  0.0000000  0.0000000  2
    332    336    739    719     1  180.0000771  6.2760000  1
    332    336    739    719     1  0.0000000  0.0000000  2
    335    714    694    691     1  0.0000000  2.2175200  1
    335    714    694    691     1  0.0000000  0.0000000  2
    335    714    694    691     1  180.0000771  0.6276000  3
    335    714    694    691     1  180.0000771  2.0920000  4
    336    739    719    716     1  0.0000000  2.2175200  1
    336    739    719    716     1  0.0000000  0.0000000  2
    336    739    719    716     1  180.0000771  0.6276000  3
    336    739    719    716     1  180.0000771  2.0920000  4
    337    335    714    694     1  180.0000771  10.4600000  2
    338    336    739    719     1  180.0000771  10.4600000  2
    341    347    348    357     1  180.0000771  2.0083200  2
    341    347    348    357     1  0.0000000  1.2552000  3
    341    347    351    354     1  180.0000771  2.0083200  2
    341    347    351    354     1  0.0000000  1.2552000  3
    344    341    347    348     1  180.0000771  2.0083200  2
    344    341    347    348     1  0.0000000  1.2552000  3
    344    341    347    351     1  180.0000771  2.0083200  2
    344    341    347    351     1  0.0000000  1.2552000  3
    347    341    344    364     1  0.0000000  0.6508444  3
    347    348    357    361     1  0.0000000  0.6508444  3
    347    351    354    360     1  0.0000000  0.6508444  3
    348    347    351    354     1  180.0000771  2.0083200  2
    348    347    351    354     1  0.0000000  1.2552000  3
    348    357    361    363     1  180.0000771  0.0000000  2
    348    357    361    789     1  0.0000000  0.2928800  2
    348    357    361    789     1  0.0000000  0.4184000  4
    351    347    348    357     1  180.0000771  2.0083200  2
    351    347    348    357     1  0.0000000  1.2552000  3
    351    354    360    362     1  180.0000771  0.0000000  2
    351    354    360    764     1  0.0000000  0.2928800  2
    351    354    360    764     1  0.0000000  0.4184000  4
    354    360    764    744     1  180.0000771  6.2760000  1
    354    360    764    744     1  0.0000000  0.0000000  2
    357    361    789    769     1  180.0000771  6.2760000  1
    357    361    789    769     1  0.0000000  0.0000000  2
    360    764    744    741     1  0.0000000  2.2175200  1
    360    764    744    741     1  0.0000000  0.0000000  2
    360    764    744    741     1  180.0000771  0.6276000  3
    360    764    744    741     1  180.0000771  2.0920000  4
    361    789    769    766     1  0.0000000  2.2175200  1
    361    789    769    766     1  0.0000000  0.0000000  2
    361    789    769    766     1  180.0000771  0.6276000  3
    361    789    769    766     1  180.0000771  2.0920000  4
    362    360    764    744     1  180.0000771  10.4600000  2
    363    361    789    769     1  180.0000771  10.4600000  2
    366    372    373    382     1  180.0000771  2.0083200  2
    366    372    373    382     1  0.0000000  1.2552000  3
    366    372    376    379     1  180.0000771  2.0083200  2
    366    372    376    379     1  0.0000000  1.2552000  3
    369    366    372    373     1  180.0000771  2.0083200  2
    369    366    372    373     1  0.0000000  1.2552000  3
    369    366    372    376     1  180.0000771  2.0083200  2
    369    366    372    376     1  0.0000000  1.2552000  3
    372    366    369    389     1  0.0000000  0.6508444  3
    372    373    382    386     1  0.0000000  0.6508444  3
    372    376    379    385     1  0.0000000  0.6508444  3
    373    372    376    379     1  180.0000771  2.0083200  2
    373    372    376    379     1  0.0000000  1.2552000  3
    373    382    386    388     1  180.0000771  0.0000000  2
    373    382    386    839     1  0.0000000  0.2928800  2
    373    382    386    839     1  0.0000000  0.4184000  4
    376    372    373    382     1  180.0000771  2.0083200  2
    376    372    373    382     1  0.0000000  1.2552000  3
    376    379    385    387     1  180.0000771  0.0000000  2
    376    379    385    814     1  0.0000000  0.2928800  2
    376    379    385    814     1  0.0000000  0.4184000  4
    379    385    814    794     1  180.0000771  6.2760000  1
    379    385    814    794     1  0.0000000  0.0000000  2
    382    386    839    819     1  180.0000771  6.2760000  1
    382    386    839    819     1  0.0000000  0.0000000  2
    385    814    794    791     1  0.0000000  2.2175200  1
    385    814    794    791     1  0.0000000  0.0000000  2
    385    814    794    791     1  180.0000771  0.6276000  3
    385    814    794    791     1  180.0000771  2.0920000  4
    386    839    819    816     1  0.0000000  2.2175200  1
    386    839    819    816     1  0.0000000  0.0000000  2
    386    839    819    816     1  180.0000771  0.6276000  3
    386    839    819    816     1  180.0000771  2.0920000  4
    387    385    814    794     1  180.0000771  10.4600000  2
    388    386    839    819     1  180.0000771  10.4600000  2
    391    397    398    407     1  180.0000771  2.0083200  2
    391    397    398    407     1  0.0000000  1.2552000  3
    391    397    401    404     1  180.0000771  2.0083200  2
    391    397    401    404     1  0.0000000  1.2552000  3
    394    391    397    398     1  180.0000771  2.0083200  2
    394    391    397    398     1  0.0000000  1.2552000  3
    394    391    397    401     1  180.0000771  2.0083200  2
    394    391    397    401     1  0.0000000  1.2552000  3
    397    391    394    414     1  0.0000000  0.6508444  3
    397    398    407    411     1  0.0000000  0.6508444  3
    397    401    404    410     1  0.0000000  0.6508444  3
    398    397    401    404     1  180.0000771  2.0083200  2
    398    397    401    404     1  0.0000000  1.2552000  3
    398    407    411    413     1  180.0000771  0.0000000  2
    398    407    411    889     1  0.0000000  0.2928800  2
    398    407    411    889     1  0.0000000  0.4184000  4
    401    397    398    407     1  180.0000771  2.0083200  2
    401    397    398    407     1  0.0000000  1.2552000  3
    401    404    410    412     1  180.0000771  0.0000000  2
    401    404    410    864     1  0.0000000  0.2928800  2
    401    404    410    864     1  0.0000000  0.4184000  4
    404    410    864    844     1  180.0000771  6.2760000  1
    404    410    864    844     1  0.0000000  0.0000000  2
    407    411    889    869     1  180.0000771  6.2760000  1
    407    411    889    869     1  0.0000000  0.0000000  2
    410    864    844    841     1  0.0000000  2.2175200  1
    410    864    844    841     1  0.0000000  0.0000000  2
    410    864    844    841     1  180.0000771  0.6276000  3
    410    864    844    841     1  180.0000771  2.0920000  4
    411    889    869    866     1  0.0000000  2.2175200  1
    411    889    869    866     1  0.0000000  0.0000000  2
    411    889    869    866     1  180.0000771  0.6276000  3
    411    889    869    866     1  180.0000771  2.0920000  4
    412    410    864    844     1  180.0000771  10.4600000  2
    413    411    889    869     1  180.0000771  10.4600000  2
    416    422    423    432     1  180.0000771  2.0083200  2
    416    422    423    432     1  0.0000000  1.2552000  3
    416    422    426    429     1  180.0000771  2.0083200  2
    416    422    426    429     1  0.0000000  1.2552000  3
    419    416    422    423     1  180.0000771  2.0083200  2
    419    416    422    423     1  0.0000000  1.2552000  3
    419    416    422    426     1  180.0000771  2.0083200  2
    419    416    422    426     1  0.0000000  1.2552000  3
    422    416    419    439     1  0.0000000  0.6508444  3
    422    423    432    436     1  0.0000000  0.6508444  3
    422    426    429    435     1  0.0000000  0.6508444  3
    423    422    426    429     1  180.0000771  2.0083200  2
    423    422    426    429     1  0.0000000  1.2552000  3
    423    432    436    438     1  180.0000771  0.0000000  2
    423    432    436    939     1  0.0000000  0.2928800  2
    423    432    436    939     1  0.0000000  0.4184000  4
    426    422    423    432     1  180.0000771  2.0083200  2
    426    422    423    432     1  0.0000000  1.2552000  3
    426    429    435    437     1  180.0000771  0.0000000  2
    426    429    435    914     1  0.0000000  0.2928800  2
    426    429    435    914     1  0.0000000  0.4184000  4
    429    435    914    894     1  180.0000771  6.2760000  1
    429    435    914    894     1  0.0000000  0.0000000  2
    432    436    939    919     1  180.0000771  6.2760000  1
    432    436    939    919     1  0.0000000  0.0000000  2
    435    914    894    891     1  0.0000000  2.2175200  1
    435    914    894    891     1  0.0000000  0.0000000  2
    435    914    894    891     1  180.0000771  0.6276000  3
    435    914    894    891     1  180.0000771  2.0920000  4
    436    939    919    916     1  0.0000000  2.2175200  1
    436    939    919    916     1  0.0000000  0.0000000  2
    436    939    919    916     1  180.0000771  0.6276000  3
    436    939    919    916     1  180.0000771  2.0920000  4
    437    435    914    894     1  180.0000771  10.4600000  2
    438    436    939    919     1  180.0000771  10.4600000  2
    441    447    448    457     1  180.0000771  2.0083200  2
    441    447    448    457     1  0.0000000  1.2552000  3
    441    447    451    454     1  180.0000771  2.0083200  2
    441    447    451    454     1  0.0000000  1.2552000  3
    444    441    447    448     1  180.0000771  2.0083200  2
    444    441    447    448     1  0.0000000  1.2552000  3
    444    441    447    451     1  180.0000771  2.0083200  2
    444    441    447    451     1  0.0000000  1.2552000  3
    447    441    444    464     1  0.0000000  0.6508444  3
    447    448    457    461     1  0.0000000  0.6508444  3
    447    451    454    460     1  0.0000000  0.6508444  3
    448    447    451    454     1  180.0000771  2.0083200  2
    448    447    451    454     1  0.0000000  1.2552000  3
    448    457    461    463     1  180.0000771  0.0000000  2
    448    457    461    989     1  0.0000000  0.2928800  2
    448    457    461    989     1  0.0000000  0.4184000  4
    451    447    448    457     1  180.0000771  2.0083200  2
    451    447    448    457     1  0.0000000  1.2552000  3
    451    454    460    462     1  180.0000771  0.0000000  2
    451    454    460    964     1  0.0000000  0.2928800  2
    451    454    460    964     1  0.0000000  0.4184000  4
    454    460    964    944     1  180.0000771  6.2760000  1
    454    460    964    944     1  0.0000000  0.0000000  2
    457    461    989    969     1  180.0000771  6.2760000  1
    457    461    989    969     1  0.0000000  0.0000000  2
    460    964    944    941     1  0.0000000  2.2175200  1
    460    964    944    941     1  0.0000000  0.0000000  2
    460    964    944    941     1  180.0000771  0.6276000  3
    460    964    944    941     1  180.0000771  2.0920000  4
    461    989    969    966     1  0.0000000  2.2175200  1
    461    989    969    966     1  0.0000000  0.0000000  2
    461    989    969    966     1  180.0000771  0.6276000  3
    461    989    969    966     1  180.0000771  2.0920000  4
    462    460    964    944     1  180.0000771  10.4600000  2
    463    461    989    969     1  180.0000771  10.4600000  2
    466    472    473    482     1  180.0000771  2.0083200  2
    466    472    473    482     1  0.0000000  1.2552000  3
    466    472    476    479     1  180.0000771  2.0083200  2
    466    472    476    479     1  0.0000000  1.2552000  3
    469    466    472    473     1  180.0000771  2.0083200  2
    469    466    472    473     1  0.0000000  1.2552000  3
    469    466    472    476     1  180.0000771  2.0083200  2
    469    466    472    476     1  0.0000000  1.2552000  3
    472    466    469    489     1  0.0000000  0.6508444  3
    472    473    482    486     1  0.0000000  0.6508444  3
    472    476    479    485     1  0.0000000  0.6508444  3
    473    472    476    479     1  180.0000771  2.0083200  2
    473    472    476    479     1  0.0000000  1.2552000  3
    473    482    486    488     1  180.0000771  0.0000000  2
    473    482    486   1039     1  0.0000000  0.2928800  2
    473    482    486   1039     1  0.0000000  0.4184000  4
    476    472    473    482     1  180.0000771  2.0083200  2
    476    472    473    482     1  0.0000000  1.2552000  3
    476    479    485    487     1  180.0000771  0.0000000  2
    476    479    485   1014     1  0.0000000  0.2928800  2
    476    479    485   1014     1  0.0000000  0.4184000  4
    479    485   1014    994     1  180.0000771  6.2760000  1
    479    485   1014    994     1  0.0000000  0.0000000  2
    482    486   1039   1019     1  180.0000771  6.2760000  1
    482    486   1039   1019     1  0.0000000  0.0000000  2
    485   1014    994    991     1  0.0000000  2.2175200  1
    485   1014    994    991     1  0.0000000  0.0000000  2
    485   1014    994    991     1  180.0000771  0.6276000  3
    485   1014    994    991     1  180.0000771  2.0920000  4
    486   1039   1019   1016     1  0.0000000  2.2175200  1
    486   1039   1019   1016     1  0.0000000  0.0000000  2
    486   1039   1019   1016     1  180.0000771  0.6276000  3
    486   1039   1019   1016     1  180.0000771  2.0920000  4
    487    485   1014    994     1  180.0000771  10.4600000  2
    488    486   1039   1019     1  180.0000771  10.4600000  2
    491    497    498    507     1  180.0000771  2.0083200  2
    491    497    498    507     1  0.0000000  1.2552000  3
    491    497    501    504     1  180.0000771  2.0083200  2
    491    497    501    504     1  0.0000000  1.2552000  3
    494    491    497    498     1  180.0000771  2.0083200  2
    494    491    497    498     1  0.0000000  1.2552000  3
    494    491    497    501     1  180.0000771  2.0083200  2
    494    491    497    501     1  0.0000000  1.2552000  3
    497    491    494    514     1  0.0000000  0.6508444  3
    497    498    507    511     1  0.0000000  0.6508444  3
    497    501    504    510     1  0.0000000  0.6508444  3
    498    497    501    504     1  180.0000771  2.0083200  2
    498    497    501    504     1  0.0000000  1.2552000  3
    498    507    511    513     1  180.0000771  0.0000000  2
    498    507    511   1089     1  0.0000000  0.2928800  2
    498    507    511   1089     1  0.0000000  0.4184000  4
    501    497    498    507     1  180.0000771  2.0083200  2
    501    497    498    507     1  0.0000000  1.2552000  3
    501    504    510    512     1  180.0000771  0.0000000  2
    501    504    510   1064     1  0.0000000  0.2928800  2
    501    504    510   1064     1  0.0000000  0.4184000  4
    504    510   1064   1044     1  180.0000771  6.2760000  1
    504    510   1064   1044     1  0.0000000  0.0000000  2
    507    511   1089   1069     1  180.0000771  6.2760000  1
    507    511   1089   1069     1  0.0000000  0.0000000  2
    510   1064   1044   1041     1  0.0000000  2.2175200  1
    510   1064   1044   1041     1  0.0000000  0.0000000  2
    510   1064   1044   1041     1  180.0000771  0.6276000  3
    510   1064   1044   1041     1  180.0000771  2.0920000  4
    511   1089   1069   1066     1  0.0000000  2.2175200  1
    511   1089   1069   1066     1  0.0000000  0.0000000  2
    511   1089   1069   1066     1  180.0000771  0.6276000  3
    511   1089   1069   1066     1  180.0000771  2.0920000  4
    512    510   1064   1044     1  180.0000771  10.4600000  2
    513    511   1089   1069     1  180.0000771  10.4600000  2
    516    522    523    532     1  180.0000771  2.0083200  2
    516    522    523    532     1  0.0000000  1.2552000  3
    516    522    526    529     1  180.0000771  2.0083200  2
    516    522    526    529     1  0.0000000  1.2552000  3
    519    516    522    523     1  180.0000771  2.0083200  2
    519    516    522    523     1  0.0000000  1.2552000  3
    519    516    522    526     1  180.0000771  2.0083200  2
    519    516    522    526     1  0.0000000  1.2552000  3
    522    516    519    539     1  0.0000000  0.6508444  3
    522    523    532    536     1  0.0000000  0.6508444  3
    522    526    529    535     1  0.0000000  0.6508444  3
    523    522    526    529     1  180.0000771  2.0083200  2
    523    522    526    529     1  0.0000000  1.2552000  3
    523    532    536    538     1  180.0000771  0.0000000  2
    523    532    536   1139     1  0.0000000  0.2928800  2
    523    532    536   1139     1  0.0000000  0.4184000  4
    526    522    523    532     1  180.0000771  2.0083200  2
    526    522    523    532     1  0.0000000  1.2552000  3
    526    529    535    537     1  180.0000771  0.0000000  2
    526    529    535   1114     1  0.0000000  0.2928800  2
    526    529    535   1114     1  0.0000000  0.4184000  4
    529    535   1114   1094     1  180.0000771  6.2760000  1
    529    535   1114   1094     1  0.0000000  0.0000000  2
    532    536   1139   1119     1  180.0000771  6.2760000  1
    532    536   1139   1119     1  0.0000000  0.0000000  2
    535   1114   1094   1091     1  0.0000000  2.2175200  1
    535   1114   1094   1091     1  0.0000000  0.0000000  2
    535   1114   1094   1091     1  180.0000771  0.6276000  3
    535   1114   1094   1091     1  180.0000771  2.0920000  4
    536   1139   1119   1116     1  0.0000000  2.2175200  1
    536   1139   1119   1116     1  0.0000000  0.0000000  2
    536   1139   1119   1116     1  180.0000771  0.6276000  3
    536   1139   1119   1116     1  180.0000771  2.0920000  4
    537    535   1114   1094     1  180.0000771  10.4600000  2
    538    536   1139   1119     1  180.0000771  10.4600000  2
    541    547    548    557     1  180.0000771  2.0083200  2
    541    547    548    557     1  0.0000000  1.2552000  3
    541    547    551    554     1  180.0000771  2.0083200  2
    541    547    551    554     1  0.0000000  1.2552000  3
    544    541    547    548     1  180.0000771  2.0083200  2
    544    541    547    548     1  0.0000000  1.2552000  3
    544    541    547    551     1  180.0000771  2.0083200  2
    544    541    547    551     1  0.0000000  1.2552000  3
    547    541    544    564     1  0.0000000  0.6508444  3
    547    548    557    561     1  0.0000000  0.6508444  3
    547    551    554    560     1  0.0000000  0.6508444  3
    548    547    551    554     1  180.0000771  2.0083200  2
    548    547    551    554     1  0.0000000  1.2552000  3
    548    557    561    563     1  180.0000771  0.0000000  2
    548    557    561   1189     1  0.0000000  0.2928800  2
    548    557    561   1189     1  0.0000000  0.4184000  4
    551    547    548    557     1  180.0000771  2.0083200  2
    551    547    548    557     1  0.0000000  1.2552000  3
    551    554    560    562     1  180.0000771  0.0000000  2
    551    554    560   1164     1  0.0000000  0.2928800  2
    551    554    560   1164     1  0.0000000  0.4184000  4
    554    560   1164   1144     1  180.0000771  6.2760000  1
    554    560   1164   1144     1  0.0000000  0.0000000  2
    557    561   1189   1169     1  180.0000771  6.2760000  1
    557    561   1189   1169     1  0.0000000  0.0000000  2
    560   1164   1144   1141     1  0.0000000  2.2175200  1
    560   1164   1144   1141     1  0.0000000  0.0000000  2
    560   1164   1144   1141     1  180.0000771  0.6276000  3
    560   1164   1144   1141     1  180.0000771  2.0920000  4
    561   1189   1169   1166     1  0.0000000  2.2175200  1
    561   1189   1169   1166     1  0.0000000  0.0000000  2
    561   1189   1169   1166     1  180.0000771  0.6276000  3
    561   1189   1169   1166     1  180.0000771  2.0920000  4
    562    560   1164   1144     1  180.0000771  10.4600000  2
    563    561   1189   1169     1  180.0000771  10.4600000  2
    566    572    573    582     1  180.0000771  2.0083200  2
    566    572    573    582     1  0.0000000  1.2552000  3
    566    572    576    579     1  180.0000771  2.0083200  2
    566    572    576    579     1  0.0000000  1.2552000  3
    569    566    572    573     1  180.0000771  2.0083200  2
    569    566    572    573     1  0.0000000  1.2552000  3
    569    566    572    576     1  180.0000771  2.0083200  2
    569    566    572    576     1  0.0000000  1.2552000  3
    572    566    569    589     1  0.0000000  0.6508444  3
    572    573    582    586     1  0.0000000  0.6508444  3
    572    576    579    585     1  0.0000000  0.6508444  3
    573    572    576    579     1  180.0000771  2.0083200  2
    573    572    576    579     1  0.0000000  1.2552000  3
    573    582    586    588     1  180.0000771  0.0000000  2
    573    582    586   1239     1  0.0000000  0.2928800  2
    573    582    586   1239     1  0.0000000  0.4184000  4
    576    572    573    582     1  180.0000771  2.0083200  2
    576    572    573    582     1  0.0000000  1.2552000  3
    576    579    585    587     1  180.0000771  0.0000000  2
    576    579    585   1214     1  0.0000000  0.2928800  2
    576    579    585   1214     1  0.0000000  0.4184000  4
    579    585   1214   1194     1  180.0000771  6.2760000  1
    579    585   1214   1194     1  0.0000000  0.0000000  2
    582    586   1239   1219     1  180.0000771  6.2760000  1
    582    586   1239   1219     1  0.0000000  0.0000000  2
    585   1214   1194   1191     1  0.0000000  2.2175200  1
    585   1214   1194   1191     1  0.0000000  0.0000000  2
    585   1214   1194   1191     1  180.0000771  0.6276000  3
    585   1214   1194   1191     1  180.0000771  2.0920000  4
    586   1239   1219   1216     1  0.0000000  2.2175200  1
    586   1239   1219   1216     1  0.0000000  0.0000000  2
    586   1239   1219   1216     1  180.0000771  0.6276000  3
    586   1239   1219   1216     1  180.0000771  2.0920000  4
    587    585   1214   1194     1  180.0000771  10.4600000  2
    588    586   1239   1219     1  180.0000771  10.4600000  2
    591    597    598    607     1  180.0000771  2.0083200  2
    591    597    598    607     1  0.0000000  1.2552000  3
    591    597    601    604     1  180.0000771  2.0083200  2
    591    597    601    604     1  0.0000000  1.2552000  3
    594    591    597    598     1  180.0000771  2.0083200  2
    594    591    597    598     1  0.0000000  1.2552000  3
    594    591    597    601     1  180.0000771  2.0083200  2
    594    591    597    601     1  0.0000000  1.2552000  3
    597    591    594    614     1  0.0000000  0.6508444  3
    597    598    607    611     1  0.0000000  0.6508444  3
    597    601    604    610     1  0.0000000  0.6508444  3
    598    597    601    604     1  180.0000771  2.0083200  2
    598    597    601    604     1  0.0000000  1.2552000  3
    598    607    611    613     1  180.0000771  0.0000000  2
    598    607    611   1289     1  0.0000000  0.2928800  2
    598    607    611   1289     1  0.0000000  0.4184000  4
    601    597    598    607     1  180.0000771  2.0083200  2
    601    597    598    607     1  0.0000000  1.2552000  3
    601    604    610    612     1  180.0000771  0.0000000  2
    601    604    610   1264     1  0.0000000  0.2928800  2
    601    604    610   1264     1  0.0000000  0.4184000  4
    604    610   1264   1244     1  180.0000771  6.2760000  1
    604    610   1264   1244     1  0.0000000  0.0000000  2
    607    611   1289   1269     1  180.0000771  6.2760000  1
    607    611   1289   1269     1  0.0000000  0.0000000  2
    610   1264   1244   1241     1  0.0000000  2.2175200  1
    610   1264   1244   1241     1  0.0000000  0.0000000  2
    610   1264   1244   1241     1  180.0000771  0.6276000  3
    610   1264   1244   1241     1  180.0000771  2.0920000  4
    611   1289   1269   1266     1  0.0000000  2.2175200  1
    611   1289   1269   1266     1  0.0000000  0.0000000  2
    611   1289   1269   1266     1  180.0000771  0.6276000  3
    611   1289   1269   1266     1  180.0000771  2.0920000  4
    612    610   1264   1244     1  180.0000771  10.4600000  2
    613    611   1289   1269     1  180.0000771  10.4600000  2
    616    622    623    632     1  180.0000771  2.0083200  2
    616    622    623    632     1  0.0000000  1.2552000  3
    616    622    626    629     1  180.0000771  2.0083200  2
    616    622    626    629     1  0.0000000  1.2552000  3
    619    616    622    623     1  180.0000771  2.0083200  2
    619    616    622    623     1  0.0000000  1.2552000  3
    619    616    622    626     1  180.0000771  2.0083200  2
    619    616    622    626     1  0.0000000  1.2552000  3
    622    616    619    639     1  0.0000000  0.6508444  3
    622    623    632    636     1  0.0000000  0.6508444  3
    622    626    629    635     1  0.0000000  0.6508444  3
    623    622    626    629     1  180.0000771  2.0083200  2
    623    622    626    629     1  0.0000000  1.2552000  3
    623    632    636    638     1  180.0000771  0.0000000  2
    623    632    636   1339     1  0.0000000  0.2928800  2
    623    632    636   1339     1  0.0000000  0.4184000  4
    626    622    623    632     1  180.0000771  2.0083200  2
    626    622    623    632     1  0.0000000  1.2552000  3
    626    629    635    637     1  180.0000771  0.0000000  2
    626    629    635   1314     1  0.0000000  0.2928800  2
    626    629    635   1314     1  0.0000000  0.4184000  4
    629    635   1314   1294     1  180.0000771  6.2760000  1
    629    635   1314   1294     1  0.0000000  0.0000000  2
    632    636   1339   1319     1  180.0000771  6.2760000  1
    632    636   1339   1319     1  0.0000000  0.0000000  2
    635   1314   1294   1291     1  0.0000000  2.2175200  1
    635   1314   1294   1291     1  0.0000000  0.0000000  2
    635   1314   1294   1291     1  180.0000771  0.6276000  3
    635   1314   1294   1291     1  180.0000771  2.0920000  4
    636   1339   1319   1316     1  0.0000000  2.2175200  1
    636   1339   1319   1316     1  0.0000000  0.0000000  2
    636   1339   1319   1316     1  180.0000771  0.6276000  3
    636   1339   1319   1316     1  180.0000771  2.0920000  4
    637    635   1314   1294     1  180.0000771  10.4600000  2
    638    636   1339   1319     1  180.0000771  10.4600000  2
    641    647    648    657     1  180.0000771  2.0083200  2
    641    647    648    657     1  0.0000000  1.2552000  3
    641    647    651    654     1  180.0000771  2.0083200  2
    641    647    651    654     1  0.0000000  1.2552000  3
    644    641    647    648     1  180.0000771  2.0083200  2
    644    641    647    648     1  0.0000000  1.2552000  3
    644    641    647    651     1  180.0000771  2.0083200  2
    644    641    647    651     1  0.0000000  1.2552000  3
    647    641    644    664     1  0.0000000  0.6508444  3
    647    648    657    661     1  0.0000000  0.6508444  3
    647    651    654    660     1  0.0000000  0.6508444  3
    648    647    651    654     1  180.0000771  2.0083200  2
    648    647    651    654     1  0.0000000  1.2552000  3
    648    657    661    663     1  180.0000771  0.0000000  2
    648    657    661   1389     1  0.0000000  0.2928800  2
    648    657    661   1389     1  0.0000000  0.4184000  4
    651    647    648    657     1  180.0000771  2.0083200  2
    651    647    648    657     1  0.0000000  1.2552000  3
    651    654    660    662     1  180.0000771  0.0000000  2
    651    654    660   1364     1  0.0000000  0.2928800  2
    651    654    660   1364     1  0.0000000  0.4184000  4
    654    660   1364   1344     1  180.0000771  6.2760000  1
    654    660   1364   1344     1  0.0000000  0.0000000  2
    657    661   1389   1369     1  180.0000771  6.2760000  1
    657    661   1389   1369     1  0.0000000  0.0000000  2
    660   1364   1344   1341     1  0.0000000  2.2175200  1
    660   1364   1344   1341     1  0.0000000  0.0000000  2
    660   1364   1344   1341     1  180.0000771  0.6276000  3
    660   1364   1344   1341     1  180.0000771  2.0920000  4
    661   1389   1369   1366     1  0.0000000  2.2175200  1
    661   1389   1369   1366     1  0.0000000  0.0000000  2
    661   1389   1369   1366     1  180.0000771  0.6276000  3
    661   1389   1369   1366     1  180.0000771  2.0920000  4
    662    660   1364   1344     1  180.0000771  10.4600000  2
    663    661   1389   1369     1  180.0000771  10.4600000  2
    666    672    673    682     1  180.0000771  2.0083200  2
    666    672    673    682     1  0.0000000  1.2552000  3
    666    672    676    679     1  180.0000771  2.0083200  2
    666    672    676    679     1  0.0000000  1.2552000  3
    669    666    672    673     1  180.0000771  2.0083200  2
    669    666    672    673     1  0.0000000  1.2552000  3
    669    666    672    676     1  180.0000771  2.0083200  2
    669    666    672    676     1  0.0000000  1.2552000  3
    672    666    669    689     1  0.0000000  0.6508444  3
    672    673    682    686     1  0.0000000  0.6508444  3
    672    676    679    685     1  0.0000000  0.6508444  3
    673    672    676    679     1  180.0000771  2.0083200  2
    673    672    676    679     1  0.0000000  1.2552000  3
    673    682    686    688     1  180.0000771  0.0000000  2
    673    682    686   1439     1  0.0000000  0.2928800  2
    673    682    686   1439     1  0.0000000  0.4184000  4
    676    672    673    682     1  180.0000771  2.0083200  2
    676    672    673    682     1  0.0000000  1.2552000  3
    676    679    685    687     1  180.0000771  0.0000000  2
    676    679    685   1414     1  0.0000000  0.2928800  2
    676    679    685   1414     1  0.0000000  0.4184000  4
    679    685   1414   1394     1  180.0000771  6.2760000  1
    679    685   1414   1394     1  0.0000000  0.0000000  2
    682    686   1439   1419     1  180.0000771  6.2760000  1
    682    686   1439   1419     1  0.0000000  0.0000000  2
    685   1414   1394   1391     1  0.0000000  2.2175200  1
    685   1414   1394   1391     1  0.0000000  0.0000000  2
    685   1414   1394   1391     1  180.0000771  0.6276000  3
    685   1414   1394   1391     1  180.0000771  2.0920000  4
    686   1439   1419   1416     1  0.0000000  2.2175200  1
    686   1439   1419   1416     1  0.0000000  0.0000000  2
    686   1439   1419   1416     1  180.0000771  0.6276000  3
    686   1439   1419   1416     1  180.0000771  2.0920000  4
    687    685   1414   1394     1  180.0000771  10.4600000  2
    688    686   1439   1419     1  180.0000771  10.4600000  2
    691    697    698    707     1  180.0000771  2.0083200  2
    691    697    698    707     1  0.0000000  1.2552000  3
    691    697    701    704     1  180.0000771  2.0083200  2
    691    697    701    704     1  0.0000000  1.2552000  3
    694    691    697    698     1  180.0000771  2.0083200  2
    694    691    697    698     1  0.0000000  1.2552000  3
    694    691    697    701     1  180.0000771  2.0083200  2
    694    691    697    701     1  0.0000000  1.2552000  3
    697    691    694    714     1  0.0000000  0.6508444  3
    697    698    707    711     1  0.0000000  0.6508444  3
    697    701    704    710     1  0.0000000  0.6508444  3
    698    697    701    704     1  180.0000771  2.0083200  2
    698    697    701    704     1  0.0000000  1.2552000  3
    698    707    711    713     1  180.0000771  0.0000000  2
    698    707    711   1489     1  0.0000000  0.2928800  2
    698    707    711   1489     1  0.0000000  0.4184000  4
    701    697    698    707     1  180.0000771  2.0083200  2
    701    697    698    707     1  0.0000000  1.2552000  3
    701    704    710    712     1  180.0000771  0.0000000  2
    701    704    710   1464     1  0.0000000  0.2928800  2
    701    704    710   1464     1  0.0000000  0.4184000  4
    704    710   1464   1444     1  180.0000771  6.2760000  1
    704    710   1464   1444     1  0.0000000  0.0000000  2
    707    711   1489   1469     1  180.0000771  6.2760000  1
    707    711   1489   1469     1  0.0000000  0.0000000  2
    710   1464   1444   1441     1  0.0000000  2.2175200  1
    710   1464   1444   1441     1  0.0000000  0.0000000  2
    710   1464   1444   1441     1  180.0000771  0.6276000  3
    710   1464   1444   1441     1  180.0000771  2.0920000  4
    711   1489   1469   1466     1  0.0000000  2.2175200  1
    711   1489   1469   1466     1  0.0000000  0.0000000  2
    711   1489   1469   1466     1  180.0000771  0.6276000  3
    711   1489   1469   1466     1  180.0000771  2.0920000  4
    712    710   1464   1444     1  180.0000771  10.4600000  2
    713    711   1489   1469     1  180.0000771  10.4600000  2
    716    722    723    732     1  180.0000771  2.0083200  2
    716    722    723    732     1  0.0000000  1.2552000  3
    716    722    726    729     1  180.0000771  2.0083200  2
    716    722    726    729     1  0.0000000  1.2552000  3
    719    716    722    723     1  180.0000771  2.0083200  2
    719    716    722    723     1  0.0000000  1.2552000  3
    719    716    722    726     1  180.0000771  2.0083200  2
    719    716    722    726     1  0.0000000  1.2552000  3
    722    716    719    739     1  0.0000000  0.6508444  3
    722    723    732    736     1  0.0000000  0.6508444  3
    722    726    729    735     1  0.0000000  0.6508444  3
    723    722    726    729     1  180.0000771  2.0083200  2
    723    722    726    729     1  0.0000000  1.2552000  3
    723    732    736    738     1  180.0000771  0.0000000  2
    723    732    736   1539     1  0.0000000  0.2928800  2
    723    732    736   1539     1  0.0000000  0.4184000  4
    726    722    723    732     1  180.0000771  2.0083200  2
    726    722    723    732     1  0.0000000  1.2552000  3
    726    729    735    737     1  180.0000771  0.0000000  2
    726    729    735   1514     1  0.0000000  0.2928800  2
    726    729    735   1514     1  0.0000000  0.4184000  4
    729    735   1514   1494     1  180.0000771  6.2760000  1
    729    735   1514   1494     1  0.0000000  0.0000000  2
    732    736   1539   1519     1  180.0000771  6.2760000  1
    732    736   1539   1519     1  0.0000000  0.0000000  2
    735   1514   1494   1491     1  0.0000000  2.2175200  1
    735   1514   1494   1491     1  0.0000000  0.0000000  2
    735   1514   1494   1491     1  180.0000771  0.6276000  3
    735   1514   1494   1491     1  180.0000771  2.0920000  4
    736   1539   1519   1516     1  0.0000000  2.2175200  1
    736   1539   1519   1516     1  0.0000000  0.0000000  2
    736   1539   1519   1516     1  180.0000771  0.6276000  3
    736   1539   1519   1516     1  180.0000771  2.0920000  4
    737    735   1514   1494     1  180.0000771  10.4600000  2
    738    736   1539   1519     1  180.0000771  10.4600000  2
    741    747    748    757     1  180.0000771  2.0083200  2
    741    747    748    757     1  0.0000000  1.2552000  3
    741    747    751    754     1  180.0000771  2.0083200  2
    741    747    751    754     1  0.0000000  1.2552000  3
    744    741    747    748     1  180.0000771  2.0083200  2
    744    741    747    748     1  0.0000000  1.2552000  3
    744    741    747    751     1  180.0000771  2.0083200  2
    744    741    747    751     1  0.0000000  1.2552000  3
    747    741    744    764     1  0.0000000  0.6508444  3
    747    748    757    761     1  0.0000000  0.6508444  3
    747    751    754    760     1  0.0000000  0.6508444  3
    748    747    751    754     1  180.0000771  2.0083200  2
    748    747    751    754     1  0.0000000  1.2552000  3
    748    757    761    763     1  180.0000771  0.0000000  2
    748    757    761   1589     1  0.0000000  0.2928800  2
    748    757    761   1589     1  0.0000000  0.4184000  4
    751    747    748    757     1  180.0000771  2.0083200  2
    751    747    748    757     1  0.0000000  1.2552000  3
    751    754    760    762     1  180.0000771  0.0000000  2
    751    754    760   1564     1  0.0000000  0.2928800  2
    751    754    760   1564     1  0.0000000  0.4184000  4
    754    760   1564   1544     1  180.0000771  6.2760000  1
    754    760   1564   1544     1  0.0000000  0.0000000  2
    757    761   1589   1569     1  180.0000771  6.2760000  1
    757    761   1589   1569     1  0.0000000  0.0000000  2
    760   1564   1544   1541     1  0.0000000  2.2175200  1
    760   1564   1544   1541     1  0.0000000  0.0000000  2
    760   1564   1544   1541     1  180.0000771  0.6276000  3
    760   1564   1544   1541     1  180.0000771  2.0920000  4
    761   1589   1569   1566     1  0.0000000  2.2175200  1
    761   1589   1569   1566     1  0.0000000  0.0000000  2
    761   1589   1569   1566     1  180.0000771  0.6276000  3
    761   1589   1569   1566     1  180.0000771  2.0920000  4
    762    760   1564   1544     1  180.0000771  10.4600000  2
    763    761   1589   1569     1  180.0000771  10.4600000  2
    766    772    773    782     1  180.0000771  2.0083200  2
    766    772    773    782     1  0.0000000  1.2552000  3
    766    772    776    779     1  180.0000771  2.0083200  2
    766    772    776    779     1  0.0000000  1.2552000  3
    769    766    772    773     1  180.0000771  2.0083200  2
    769    766    772    773     1  0.0000000  1.2552000  3
    769    766    772    776     1  180.0000771  2.0083200  2
    769    766    772    776     1  0.0000000  1.2552000  3
    772    766    769    789     1  0.0000000  0.6508444  3
    772    773    782    786     1  0.0000000  0.6508444  3
    772    776    779    785     1  0.0000000  0.6508444  3
    773    772    776    779     1  180.0000771  2.0083200  2
    773    772    776    779     1  0.0000000  1.2552000  3
    773    782    786    788     1  180.0000771  0.0000000  2
    773    782    786   1639     1  0.0000000  0.2928800  2
    773    782    786   1639     1  0.0000000  0.4184000  4
    776    772    773    782     1  180.0000771  2.0083200  2
    776    772    773    782     1  0.0000000  1.2552000  3
    776    779    785    787     1  180.0000771  0.0000000  2
    776    779    785   1614     1  0.0000000  0.2928800  2
    776    779    785   1614     1  0.0000000  0.4184000  4
    779    785   1614   1594     1  180.0000771  6.2760000  1
    779    785   1614   1594     1  0.0000000  0.0000000  2
    782    786   1639   1619     1  180.0000771  6.2760000  1
    782    786   1639   1619     1  0.0000000  0.0000000  2
    785   1614   1594   1591     1  0.0000000  2.2175200  1
    785   1614   1594   1591     1  0.0000000  0.0000000  2
    785   1614   1594   1591     1  180.0000771  0.6276000  3
    785   1614   1594   1591     1  180.0000771  2.0920000  4
    786   1639   1619   1616     1  0.0000000  2.2175200  1
    786   1639   1619   1616     1  0.0000000  0.0000000  2
    786   1639   1619   1616     1  180.0000771  0.6276000  3
    786   1639   1619   1616     1  180.0000771  2.0920000  4
    787    785   1614   1594     1  180.0000771  10.4600000  2
    788    786   1639   1619     1  180.0000771  10.4600000  2
    791    797    798    807     1  180.0000771  2.0083200  2
    791    797    798    807     1  0.0000000  1.2552000  3
    791    797    801    804     1  180.0000771  2.0083200  2
    791    797    801    804     1  0.0000000  1.2552000  3
    794    791    797    798     1  180.0000771  2.0083200  2
    794    791    797    798     1  0.0000000  1.2552000  3
    794    791    797    801     1  180.0000771  2.0083200  2
    794    791    797    801     1  0.0000000  1.2552000  3
    797    791    794    814     1  0.0000000  0.6508444  3
    797    798    807    811     1  0.0000000  0.6508444  3
    797    801    804    810     1  0.0000000  0.6508444  3
    798    797    801    804     1  180.0000771  2.0083200  2
    798    797    801    804     1  0.0000000  1.2552000  3
    798    807    811    813     1  180.0000771  0.0000000  2
    798    807    811   1689     1  0.0000000  0.2928800  2
    798    807    811   1689     1  0.0000000  0.4184000  4
    801    797    798    807     1  180.0000771  2.0083200  2
    801    797    798    807     1  0.0000000  1.2552000  3
    801    804    810    812     1  180.0000771  0.0000000  2
    801    804    810   1664     1  0.0000000  0.2928800  2
    801    804    810   1664     1  0.0000000  0.4184000  4
    804    810   1664   1644     1  180.0000771  6.2760000  1
    804    810   1664   1644     1  0.0000000  0.0000000  2
    807    811   1689   1669     1  180.0000771  6.2760000  1
    807    811   1689   1669     1  0.0000000  0.0000000  2
    810   1664   1644   1641     1  0.0000000  2.2175200  1
    810   1664   1644   1641     1  0.0000000  0.0000000  2
    810   1664   1644   1641     1  180.0000771  0.6276000  3
    810   1664   1644   1641     1  180.0000771  2.0920000  4
    811   1689   1669   1666     1  0.0000000  2.2175200  1
    811   1689   1669   1666     1  0.0000000  0.0000000  2
    811   1689   1669   1666     1  180.0000771  0.6276000  3
    811   1689   1669   1666     1  180.0000771  2.0920000  4
    812    810   1664   1644     1  180.0000771  10.4600000  2
    813    811   1689   1669     1  180.0000771  10.4600000  2
    816    822    823    832     1  180.0000771  2.0083200  2
    816    822    823    832     1  0.0000000  1.2552000  3
    816    822    826    829     1  180.0000771  2.0083200  2
    816    822    826    829     1  0.0000000  1.2552000  3
    819    816    822    823     1  180.0000771  2.0083200  2
    819    816    822    823     1  0.0000000  1.2552000  3
    819    816    822    826     1  180.0000771  2.0083200  2
    819    816    822    826     1  0.0000000  1.2552000  3
    822    816    819    839     1  0.0000000  0.6508444  3
    822    823    832    836     1  0.0000000  0.6508444  3
    822    826    829    835     1  0.0000000  0.6508444  3
    823    822    826    829     1  180.0000771  2.0083200  2
    823    822    826    829     1  0.0000000  1.2552000  3
    823    832    836    838     1  180.0000771  0.0000000  2
    823    832    836   1739     1  0.0000000  0.2928800  2
    823    832    836   1739     1  0.0000000  0.4184000  4
    826    822    823    832     1  180.0000771  2.0083200  2
    826    822    823    832     1  0.0000000  1.2552000  3
    826    829    835    837     1  180.0000771  0.0000000  2
    826    829    835   1714     1  0.0000000  0.2928800  2
    826    829    835   1714     1  0.0000000  0.4184000  4
    829    835   1714   1694     1  180.0000771  6.2760000  1
    829    835   1714   1694     1  0.0000000  0.0000000  2
    832    836   1739   1719     1  180.0000771  6.2760000  1
    832    836   1739   1719     1  0.0000000  0.0000000  2
    835   1714   1694   1691     1  0.0000000  2.2175200  1
    835   1714   1694   1691     1  0.0000000  0.0000000  2
    835   1714   1694   1691     1  180.0000771  0.6276000  3
    835   1714   1694   1691     1  180.0000771  2.0920000  4
    836   1739   1719   1716     1  0.0000000  2.2175200  1
    836   1739   1719   1716     1  0.0000000  0.0000000  2
    836   1739   1719   1716     1  180.0000771  0.6276000  3
    836   1739   1719   1716     1  180.0000771  2.0920000  4
    837    835   1714   1694     1  180.0000771  10.4600000  2
    838    836   1739   1719     1  180.0000771  10.4600000  2
    841    847    848    857     1  180.0000771  2.0083200  2
    841    847    848    857     1  0.0000000  1.2552000  3
    841    847    851    854     1  180.0000771  2.0083200  2
    841    847    851    854     1  0.0000000  1.2552000  3
    844    841    847    848     1  180.0000771  2.0083200  2
    844    841    847    848     1  0.0000000  1.2552000  3
    844    841    847    851     1  180.0000771  2.0083200  2
    844    841    847    851     1  0.0000000  1.2552000  3
    847    841    844    864     1  0.0000000  0.6508444  3
    847    848    857    861     1  0.0000000  0.6508444  3
    847    851    854    860     1  0.0000000  0.6508444  3
    848    847    851    854     1  180.0000771  2.0083200  2
    848    847    851    854     1  0.0000000  1.2552000  3
    848    857    861    863     1  180.0000771  0.0000000  2
    848    857    861   1789     1  0.0000000  0.2928800  2
    848    857    861   1789     1  0.0000000  0.4184000  4
    851    847    848    857     1  180.0000771  2.0083200  2
    851    847    848    857     1  0.0000000  1.2552000  3
    851    854    860    862     1  180.0000771  0.0000000  2
    851    854    860   1764     1  0.0000000  0.2928800  2
    851    854    860   1764     1  0.0000000  0.4184000  4
    854    860   1764   1744     1  180.0000771  6.2760000  1
    854    860   1764   1744     1  0.0000000  0.0000000  2
    857    861   1789   1769     1  180.0000771  6.2760000  1
    857    861   1789   1769     1  0.0000000  0.0000000  2
    860   1764   1744   1741     1  0.0000000  2.2175200  1
    860   1764   1744   1741     1  0.0000000  0.0000000  2
    860   1764   1744   1741     1  180.0000771  0.6276000  3
    860   1764   1744   1741     1  180.0000771  2.0920000  4
    861   1789   1769   1766     1  0.0000000  2.2175200  1
    861   1789   1769   1766     1  0.0000000  0.0000000  2
    861   1789   1769   1766     1  180.0000771  0.6276000  3
    861   1789   1769   1766     1  180.0000771  2.0920000  4
    862    860   1764   1744     1  180.0000771  10.4600000  2
    863    861   1789   1769     1  180.0000771  10.4600000  2
    866    872    873    882     1  180.0000771  2.0083200  2
    866    872    873    882     1  0.0000000  1.2552000  3
    866    872    876    879     1  180.0000771  2.0083200  2
    866    872    876    879     1  0.0000000  1.2552000  3
    869    866    872    873     1  180.0000771  2.0083200  2
    869    866    872    873     1  0.0000000  1.2552000  3
    869    866    872    876     1  180.0000771  2.0083200  2
    869    866    872    876     1  0.0000000  1.2552000  3
    872    866    869    889     1  0.0000000  0.6508444  3
    872    873    882    886     1  0.0000000  0.6508444  3
    872    876    879    885     1  0.0000000  0.6508444  3
    873    872    876    879     1  180.0000771  2.0083200  2
    873    872    876    879     1  0.0000000  1.2552000  3
    873    882    886    888     1  180.0000771  0.0000000  2
    873    882    886   1839     1  0.0000000  0.2928800  2
    873    882    886   1839     1  0.0000000  0.4184000  4
    876    872    873    882     1  180.0000771  2.0083200  2
    876    872    873    882     1  0.0000000  1.2552000  3
    876    879    885    887     1  180.0000771  0.0000000  2
    876    879    885   1814     1  0.0000000  0.2928800  2
    876    879    885   1814     1  0.0000000  0.4184000  4
    879    885   1814   1794     1  180.0000771  6.2760000  1
    879    885   1814   1794     1  0.0000000  0.0000000  2
    882    886   1839   1819     1  180.0000771  6.2760000  1
    882    886   1839   1819     1  0.0000000  0.0000000  2
    885   1814   1794   1791     1  0.0000000  2.2175200  1
    885   1814   1794   1791     1  0.0000000  0.0000000  2
    885   1814   1794   1791     1  180.0000771  0.6276000  3
    885   1814   1794   1791     1  180.0000771  2.0920000  4
    886   1839   1819   1816     1  0.0000000  2.2175200  1
    886   1839   1819   1816     1  0.0000000  0.0000000  2
    886   1839   1819   1816     1  180.0000771  0.6276000  3
    886   1839   1819   1816     1  180.0000771  2.0920000  4
    887    885   1814   1794     1  180.0000771  10.4600000  2
    888    886   1839   1819     1  180.0000771  10.4600000  2
    891    897    898    907     1  180.0000771  2.0083200  2
    891    897    898    907     1  0.0000000  1.2552000  3
    891    897    901    904     1  180.0000771  2.0083200  2
    891    897    901    904     1  0.0000000  1.2552000  3
    894    891    897    898     1  180.0000771  2.0083200  2
    894    891    897    898     1  0.0000000  1.2552000  3
    894    891    897    901     1  180.0000771  2.0083200  2
    894    891    897    901     1  0.0000000  1.2552000  3
    897    891    894    914     1  0.0000000  0.6508444  3
    897    898    907    911     1  0.0000000  0.6508444  3
    897    901    904    910     1  0.0000000  0.6508444  3
    898    897    901    904     1  180.0000771  2.0083200  2
    898    897    901    904     1  0.0000000  1.2552000  3
    898    907    911    913     1  180.0000771  0.0000000  2
    898    907    911   1889     1  0.0000000  0.2928800  2
    898    907    911   1889     1  0.0000000  0.4184000  4
    901    897    898    907     1  180.0000771  2.0083200  2
    901    897    898    907     1  0.0000000  1.2552000  3
    901    904    910    912     1  180.0000771  0.0000000  2
    901    904    910   1864     1  0.0000000  0.2928800  2
    901    904    910   1864     1  0.0000000  0.4184000  4
    904    910   1864   1844     1  180.0000771  6.2760000  1
    904    910   1864   1844     1  0.0000000  0.0000000  2
    907    911   1889   1869     1  180.0000771  6.2760000  1
    907    911   1889   1869     1  0.0000000  0.0000000  2
    910   1864   1844   1841     1  0.0000000  2.2175200  1
    910   1864   1844   1841     1  0.0000000  0.0000000  2
    910   1864   1844   1841     1  180.0000771  0.6276000  3
    910   1864   1844   1841     1  180.0000771  2.0920000  4
    911   1889   1869   1866     1  0.0000000  2.2175200  1
    911   1889   1869   1866     1  0.0000000  0.0000000  2
    911   1889   1869   1866     1  180.0000771  0.6276000  3
    911   1889   1869   1866     1  180.0000771  2.0920000  4
    912    910   1864   1844     1  180.0000771  10.4600000  2
    913    911   1889   1869     1  180.0000771  10.4600000  2
    916    922    923    932     1  180.0000771  2.0083200  2
    916    922    923    932     1  0.0000000  1.2552000  3
    916    922    926    929     1  180.0000771  2.0083200  2
    916    922    926    929     1  0.0000000  1.2552000  3
    919    916    922    923     1  180.0000771  2.0083200  2
    919    916    922    923     1  0.0000000  1.2552000  3
    919    916    922    926     1  180.0000771  2.0083200  2
    919    916    922    926     1  0.0000000  1.2552000  3
    922    916    919    939     1  0.0000000  0.6508444  3
    922    923    932    936     1  0.0000000  0.6508444  3
    922    926    929    935     1  0.0000000  0.6508444  3
    923    922    926    929     1  180.0000771  2.0083200  2
    923    922    926    929     1  0.0000000  1.2552000  3
    923    932    936    938     1  180.0000771  0.0000000  2
    923    932    936   1939     1  0.0000000  0.2928800  2
    923    932    936   1939     1  0.0000000  0.4184000  4
    926    922    923    932     1  180.0000771  2.0083200  2
    926    922    923    932     1  0.0000000  1.2552000  3
    926    929    935    937     1  180.0000771  0.0000000  2
    926    929    935   1914     1  0.0000000  0.2928800  2
    926    929    935   1914     1  0.0000000  0.4184000  4
    929    935   1914   1894     1  180.0000771  6.2760000  1
    929    935   1914   1894     1  0.0000000  0.0000000  2
    932    936   1939   1919     1  180.0000771  6.2760000  1
    932    936   1939   1919     1  0.0000000  0.0000000  2
    935   1914   1894   1891     1  0.0000000  2.2175200  1
    935   1914   1894   1891     1  0.0000000  0.0000000  2
    935   1914   1894   1891     1  180.0000771  0.6276000  3
    935   1914   1894   1891     1  180.0000771  2.0920000  4
    936   1939   1919   1916     1  0.0000000  2.2175200  1
    936   1939   1919   1916     1  0.0000000  0.0000000  2
    936   1939   1919   1916     1  180.0000771  0.6276000  3
    936   1939   1919   1916     1  180.0000771  2.0920000  4
    937    935   1914   1894     1  180.0000771  10.4600000  2
    938    936   1939   1919     1  180.0000771  10.4600000  2
    941    947    948    957     1  180.0000771  2.0083200  2
    941    947    948    957     1  0.0000000  1.2552000  3
    941    947    951    954     1  180.0000771  2.0083200  2
    941    947    951    954     1  0.0000000  1.2552000  3
    944    941    947    948     1  180.0000771  2.0083200  2
    944    941    947    948     1  0.0000000  1.2552000  3
    944    941    947    951     1  180.0000771  2.0083200  2
    944    941    947    951     1  0.0000000  1.2552000  3
    947    941    944    964     1  0.0000000  0.6508444  3
    947    948    957    961     1  0.0000000  0.6508444  3
    947    951    954    960     1  0.0000000  0.6508444  3
    948    947    951    954     1  180.0000771  2.0083200  2
    948    947    951    954     1  0.0000000  1.2552000  3
    948    957    961    963     1  180.0000771  0.0000000  2
    948    957    961   1989     1  0.0000000  0.2928800  2
    948    957    961   1989     1  0.0000000  0.4184000  4
    951    947    948    957     1  180.0000771  2.0083200  2
    951    947    948    957     1  0.0000000  1.2552000  3
    951    954    960    962     1  180.0000771  0.0000000  2
    951    954    960   1964     1  0.0000000  0.2928800  2
    951    954    960   1964     1  0.0000000  0.4184000  4
    954    960   1964   1944     1  180.0000771  6.2760000  1
    954    960   1964   1944     1  0.0000000  0.0000000  2
    957    961   1989   1969     1  180.0000771  6.2760000  1
    957    961   1989   1969     1  0.0000000  0.0000000  2
    960   1964   1944   1941     1  0.0000000  2.2175200  1
    960   1964   1944   1941     1  0.0000000  0.0000000  2
    960   1964   1944   1941     1  180.0000771  0.6276000  3
    960   1964   1944   1941     1  180.0000771  2.0920000  4
    961   1989   1969   1966     1  0.0000000  2.2175200  1
    961   1989   1969   1966     1  0.0000000  0.0000000  2
    961   1989   1969   1966     1  180.0000771  0.6276000  3
    961   1989   1969   1966     1  180.0000771  2.0920000  4
    962    960   1964   1944     1  180.0000771  10.4600000  2
    963    961   1989   1969     1  180.0000771  10.4600000  2
    966    972    973    982     1  180.0000771  2.0083200  2
    966    972    973    982     1  0.0000000  1.2552000  3
    966    972    976    979     1  180.0000771  2.0083200  2
    966    972    976    979     1  0.0000000  1.2552000  3
    969    966    972    973     1  180.0000771  2.0083200  2
    969    966    972    973     1  0.0000000  1.2552000  3
    969    966    972    976     1  180.0000771  2.0083200  2
    969    966    972    976     1  0.0000000  1.2552000  3
    972    966    969    989     1  0.0000000  0.6508444  3
    972    973    982    986     1  0.0000000  0.6508444  3
    972    976    979    985     1  0.0000000  0.6508444  3
    973    972    976    979     1  180.0000771  2.0083200  2
    973    972    976    979     1  0.0000000  1.2552000  3
    973    982    986    988     1  180.0000771  0.0000000  2
    973    982    986   2039     1  0.0000000  0.2928800  2
    973    982    986   2039     1  0.0000000  0.4184000  4
    976    972    973    982     1  180.0000771  2.0083200  2
    976    972    973    982     1  0.0000000  1.2552000  3
    976    979    985    987     1  180.0000771  0.0000000  2
    976    979    985   2014     1  0.0000000  0.2928800  2
    976    979    985   2014     1  0.0000000  0.4184000  4
    979    985   2014   1994     1  180.0000771  6.2760000  1
    979    985   2014   1994     1  0.0000000  0.0000000  2
    982    986   2039   2019     1  180.0000771  6.2760000  1
    982    986   2039   2019     1  0.0000000  0.0000000  2
    985   2014   1994   1991     1  0.0000000  2.2175200  1
    985   2014   1994   1991     1  0.0000000  0.0000000  2
    985   2014   1994   1991     1  180.0000771  0.6276000  3
    985   2014   1994   1991     1  180.0000771  2.0920000  4
    986   2039   2019   2016     1  0.0000000  2.2175200  1
    986   2039   2019   2016     1  0.0000000  0.0000000  2
    986   2039   2019   2016     1  180.0000771  0.6276000  3
    986   2039   2019   2016     1  180.0000771  2.0920000  4
    987    985   2014   1994     1  180.0000771  10.4600000  2
    988    986   2039   2019     1  180.0000771  10.4600000  2
    991    997    998   1007     1  180.0000771  2.0083200  2
    991    997    998   1007     1  0.0000000  1.2552000  3
    991    997   1001   1004     1  180.0000771  2.0083200  2
    991    997   1001   1004     1  0.0000000  1.2552000  3
    994    991    997    998     1  180.0000771  2.0083200  2
    994    991    997    998     1  0.0000000  1.2552000  3
    994    991    997   1001     1  180.0000771  2.0083200  2
    994    991    997   1001     1  0.0000000  1.2552000  3
    997    991    994   1014     1  0.0000000  0.6508444  3
    997    998   1007   1011     1  0.0000000  0.6508444  3
    997   1001   1004   1010     1  0.0000000  0.6508444  3
    998    997   1001   1004     1  180.0000771  2.0083200  2
    998    997   1001   1004     1  0.0000000  1.2552000  3
    998   1007   1011   1013     1  180.0000771  0.0000000  2
    998   1007   1011   2089     1  0.0000000  0.2928800  2
    998   1007   1011   2089     1  0.0000000  0.4184000  4
   1001    997    998   1007     1  180.0000771  2.0083200  2
   1001    997    998   1007     1  0.0000000  1.2552000  3
   1001   1004   1010   1012     1  180.0000771  0.0000000  2
   1001   1004   1010   2064     1  0.0000000  0.2928800  2
   1001   1004   1010   2064     1  0.0000000  0.4184000  4
   1004   1010   2064   2044     1  180.0000771  6.2760000  1
   1004   1010   2064   2044     1  0.0000000  0.0000000  2
   1007   1011   2089   2069     1  180.0000771  6.2760000  1
   1007   1011   2089   2069     1  0.0000000  0.0000000  2
   1010   2064   2044   2041     1  0.0000000  2.2175200  1
   1010   2064   2044   2041     1  0.0000000  0.0000000  2
   1010   2064   2044   2041     1  180.0000771  0.6276000  3
   1010   2064   2044   2041     1  180.0000771  2.0920000  4
   1011   2089   2069   2066     1  0.0000000  2.2175200  1
   1011   2089   2069   2066     1  0.0000000  0.0000000  2
   1011   2089   2069   2066     1  180.0000771  0.6276000  3
   1011   2089   2069   2066     1  180.0000771  2.0920000  4
   1012   1010   2064   2044     1  180.0000771  10.4600000  2
   1013   1011   2089   2069     1  180.0000771  10.4600000  2
   1016   1022   1023   1032     1  180.0000771  2.0083200  2
   1016   1022   1023   1032     1  0.0000000  1.2552000  3
   1016   1022   1026   1029     1  180.0000771  2.0083200  2
   1016   1022   1026   1029     1  0.0000000  1.2552000  3
   1019   1016   1022   1023     1  180.0000771  2.0083200  2
   1019   1016   1022   1023     1  0.0000000  1.2552000  3
   1019   1016   1022   1026     1  180.0000771  2.0083200  2
   1019   1016   1022   1026     1  0.0000000  1.2552000  3
   1022   1016   1019   1039     1  0.0000000  0.6508444  3
   1022   1023   1032   1036     1  0.0000000  0.6508444  3
   1022   1026   1029   1035     1  0.0000000  0.6508444  3
   1023   1022   1026   1029     1  180.0000771  2.0083200  2
   1023   1022   1026   1029     1  0.0000000  1.2552000  3
   1023   1032   1036   1038     1  180.0000771  0.0000000  2
   1023   1032   1036   2139     1  0.0000000  0.2928800  2
   1023   1032   1036   2139     1  0.0000000  0.4184000  4
   1026   1022   1023   1032     1  180.0000771  2.0083200  2
   1026   1022   1023   1032     1  0.0000000  1.2552000  3
   1026   1029   1035   1037     1  180.0000771  0.0000000  2
   1026   1029   1035   2114     1  0.0000000  0.2928800  2
   1026   1029   1035   2114     1  0.0000000  0.4184000  4
   1029   1035   2114   2094     1  180.0000771  6.2760000  1
   1029   1035   2114   2094     1  0.0000000  0.0000000  2
   1032   1036   2139   2119     1  180.0000771  6.2760000  1
   1032   1036   2139   2119     1  0.0000000  0.0000000  2
   1035   2114   2094   2091     1  0.0000000  2.2175200  1
   1035   2114   2094   2091     1  0.0000000  0.0000000  2
   1035   2114   2094   2091     1  180.0000771  0.6276000  3
   1035   2114   2094   2091     1  180.0000771  2.0920000  4
   1036   2139   2119   2116     1  0.0000000  2.2175200  1
   1036   2139   2119   2116     1  0.0000000  0.0000000  2
   1036   2139   2119   2116     1  180.0000771  0.6276000  3
   1036   2139   2119   2116     1  180.0000771  2.0920000  4
   1037   1035   2114   2094     1  180.0000771  10.4600000  2
   1038   1036   2139   2119     1  180.0000771  10.4600000  2
   1041   1047   1048   1057     1  180.0000771  2.0083200  2
   1041   1047   1048   1057     1  0.0000000  1.2552000  3
   1041   1047   1051   1054     1  180.0000771  2.0083200  2
   1041   1047   1051   1054     1  0.0000000  1.2552000  3
   1044   1041   1047   1048     1  180.0000771  2.0083200  2
   1044   1041   1047   1048     1  0.0000000  1.2552000  3
   1044   1041   1047   1051     1  180.0000771  2.0083200  2
   1044   1041   1047   1051     1  0.0000000  1.2552000  3
   1047   1041   1044   1064     1  0.0000000  0.6508444  3
   1047   1048   1057   1061     1  0.0000000  0.6508444  3
   1047   1051   1054   1060     1  0.0000000  0.6508444  3
   1048   1047   1051   1054     1  180.0000771  2.0083200  2
   1048   1047   1051   1054     1  0.0000000  1.2552000  3
   1048   1057   1061   1063     1  180.0000771  0.0000000  2
   1048   1057   1061   2189     1  0.0000000  0.2928800  2
   1048   1057   1061   2189     1  0.0000000  0.4184000  4
   1051   1047   1048   1057     1  180.0000771  2.0083200  2
   1051   1047   1048   1057     1  0.0000000  1.2552000  3
   1051   1054   1060   1062     1  180.0000771  0.0000000  2
   1051   1054   1060   2164     1  0.0000000  0.2928800  2
   1051   1054   1060   2164     1  0.0000000  0.4184000  4
   1054   1060   2164   2144     1  180.0000771  6.2760000  1
   1054   1060   2164   2144     1  0.0000000  0.0000000  2
   1057   1061   2189   2169     1  180.0000771  6.2760000  1
   1057   1061   2189   2169     1  0.0000000  0.0000000  2
   1060   2164   2144   2141     1  0.0000000  2.2175200  1
   1060   2164   2144   2141     1  0.0000000  0.0000000  2
   1060   2164   2144   2141     1  180.0000771  0.6276000  3
   1060   2164   2144   2141     1  180.0000771  2.0920000  4
   1061   2189   2169   2166     1  0.0000000  2.2175200  1
   1061   2189   2169   2166     1  0.0000000  0.0000000  2
   1061   2189   2169   2166     1  180.0000771  0.6276000  3
   1061   2189   2169   2166     1  180.0000771  2.0920000  4
   1062   1060   2164   2144     1  180.0000771  10.4600000  2
   1063   1061   2189   2169     1  180.0000771  10.4600000  2
   1066   1072   1073   1082     1  180.0000771  2.0083200  2
   1066   1072   1073   1082     1  0.0000000  1.2552000  3
   1066   1072   1076   1079     1  180.0000771  2.0083200  2
   1066   1072   1076   1079     1  0.0000000  1.2552000  3
   1069   1066   1072   1073     1  180.0000771  2.0083200  2
   1069   1066   1072   1073     1  0.0000000  1.2552000  3
   1069   1066   1072   1076     1  180.0000771  2.0083200  2
   1069   1066   1072   1076     1  0.0000000  1.2552000  3
   1072   1066   1069   1089     1  0.0000000  0.6508444  3
   1072   1073   1082   1086     1  0.0000000  0.6508444  3
   1072   1076   1079   1085     1  0.0000000  0.6508444  3
   1073   1072   1076   1079     1  180.0000771  2.0083200  2
   1073   1072   1076   1079     1  0.0000000  1.2552000  3
   1073   1082   1086   1088     1  180.0000771  0.0000000  2
   1073   1082   1086   2239     1  0.0000000  0.2928800  2
   1073   1082   1086   2239     1  0.0000000  0.4184000  4
   1076   1072   1073   1082     1  180.0000771  2.0083200  2
   1076   1072   1073   1082     1  0.0000000  1.2552000  3
   1076   1079   1085   1087     1  180.0000771  0.0000000  2
   1076   1079   1085   2214     1  0.0000000  0.2928800  2
   1076   1079   1085   2214     1  0.0000000  0.4184000  4
   1079   1085   2214   2194     1  180.0000771  6.2760000  1
   1079   1085   2214   2194     1  0.0000000  0.0000000  2
   1082   1086   2239   2219     1  180.0000771  6.2760000  1
   1082   1086   2239   2219     1  0.0000000  0.0000000  2
   1085   2214   2194   2191     1  0.0000000  2.2175200  1
   1085   2214   2194   2191     1  0.0000000  0.0000000  2
   1085   2214   2194   2191     1  180.0000771  0.6276000  3
   1085   2214   2194   2191     1  180.0000771  2.0920000  4
   1086   2239   2219   2216     1  0.0000000  2.2175200  1
   1086   2239   2219   2216     1  0.0000000  0.0000000  2
   1086   2239   2219   2216     1  180.0000771  0.6276000  3
   1086   2239   2219   2216     1  180.0000771  2.0920000  4
   1087   1085   2214   2194     1  180.0000771  10.4600000  2
   1088   1086   2239   2219     1  180.0000771  10.4600000  2
   1091   1097   1098   1107     1  180.0000771  2.0083200  2
   1091   1097   1098   1107     1  0.0000000  1.2552000  3
   1091   1097   1101   1104     1  180.0000771  2.0083200  2
   1091   1097   1101   1104     1  0.0000000  1.2552000  3
   1094   1091   1097   1098     1  180.0000771  2.0083200  2
   1094   1091   1097   1098     1  0.0000000  1.2552000  3
   1094   1091   1097   1101     1  180.0000771  2.0083200  2
   1094   1091   1097   1101     1  0.0000000  1.2552000  3
   1097   1091   1094   1114     1  0.0000000  0.6508444  3
   1097   1098   1107   1111     1  0.0000000  0.6508444  3
   1097   1101   1104   1110     1  0.0000000  0.6508444  3
   1098   1097   1101   1104     1  180.0000771  2.0083200  2
   1098   1097   1101   1104     1  0.0000000  1.2552000  3
   1098   1107   1111   1113     1  180.0000771  0.0000000  2
   1098   1107   1111   2289     1  0.0000000  0.2928800  2
   1098   1107   1111   2289     1  0.0000000  0.4184000  4
   1101   1097   1098   1107     1  180.0000771  2.0083200  2
   1101   1097   1098   1107     1  0.0000000  1.2552000  3
   1101   1104   1110   1112     1  180.0000771  0.0000000  2
   1101   1104   1110   2264     1  0.0000000  0.2928800  2
   1101   1104   1110   2264     1  0.0000000  0.4184000  4
   1104   1110   2264   2244     1  180.0000771  6.2760000  1
   1104   1110   2264   2244     1  0.0000000  0.0000000  2
   1107   1111   2289   2269     1  180.0000771  6.2760000  1
   1107   1111   2289   2269     1  0.0000000  0.0000000  2
   1110   2264   2244   2241     1  0.0000000  2.2175200  1
   1110   2264   2244   2241     1  0.0000000  0.0000000  2
   1110   2264   2244   2241     1  180.0000771  0.6276000  3
   1110   2264   2244   2241     1  180.0000771  2.0920000  4
   1111   2289   2269   2266     1  0.0000000  2.2175200  1
   1111   2289   2269   2266     1  0.0000000  0.0000000  2
   1111   2289   2269   2266     1  180.0000771  0.6276000  3
   1111   2289   2269   2266     1  180.0000771  2.0920000  4
   1112   1110   2264   2244     1  180.0000771  10.4600000  2
   1113   1111   2289   2269     1  180.0000771  10.4600000  2
   1116   1122   1123   1132     1  180.0000771  2.0083200  2
   1116   1122   1123   1132     1  0.0000000  1.2552000  3
   1116   1122   1126   1129     1  180.0000771  2.0083200  2
   1116   1122   1126   1129     1  0.0000000  1.2552000  3
   1119   1116   1122   1123     1  180.0000771  2.0083200  2
   1119   1116   1122   1123     1  0.0000000  1.2552000  3
   1119   1116   1122   1126     1  180.0000771  2.0083200  2
   1119   1116   1122   1126     1  0.0000000  1.2552000  3
   1122   1116   1119   1139     1  0.0000000  0.6508444  3
   1122   1123   1132   1136     1  0.0000000  0.6508444  3
   1122   1126   1129   1135     1  0.0000000  0.6508444  3
   1123   1122   1126   1129     1  180.0000771  2.0083200  2
   1123   1122   1126   1129     1  0.0000000  1.2552000  3
   1123   1132   1136   1138     1  180.0000771  0.0000000  2
   1123   1132   1136   2339     1  0.0000000  0.2928800  2
   1123   1132   1136   2339     1  0.0000000  0.4184000  4
   1126   1122   1123   1132     1  180.0000771  2.0083200  2
   1126   1122   1123   1132     1  0.0000000  1.2552000  3
   1126   1129   1135   1137     1  180.0000771  0.0000000  2
   1126   1129   1135   2314     1  0.0000000  0.2928800  2
   1126   1129   1135   2314     1  0.0000000  0.4184000  4
   1129   1135   2314   2294     1  180.0000771  6.2760000  1
   1129   1135   2314   2294     1  0.0000000  0.0000000  2
   1132   1136   2339   2319     1  180.0000771  6.2760000  1
   1132   1136   2339   2319     1  0.0000000  0.0000000  2
   1135   2314   2294   2291     1  0.0000000  2.2175200  1
   1135   2314   2294   2291     1  0.0000000  0.0000000  2
   1135   2314   2294   2291     1  180.0000771  0.6276000  3
   1135   2314   2294   2291     1  180.0000771  2.0920000  4
   1136   2339   2319   2316     1  0.0000000  2.2175200  1
   1136   2339   2319   2316     1  0.0000000  0.0000000  2
   1136   2339   2319   2316     1  180.0000771  0.6276000  3
   1136   2339   2319   2316     1  180.0000771  2.0920000  4
   1137   1135   2314   2294     1  180.0000771  10.4600000  2
   1138   1136   2339   2319     1  180.0000771  10.4600000  2
   1141   1147   1148   1157     1  180.0000771  2.0083200  2
   1141   1147   1148   1157     1  0.0000000  1.2552000  3
   1141   1147   1151   1154     1  180.0000771  2.0083200  2
   1141   1147   1151   1154     1  0.0000000  1.2552000  3
   1144   1141   1147   1148     1  180.0000771  2.0083200  2
   1144   1141   1147   1148     1  0.0000000  1.2552000  3
   1144   1141   1147   1151     1  180.0000771  2.0083200  2
   1144   1141   1147   1151     1  0.0000000  1.2552000  3
   1147   1141   1144   1164     1  0.0000000  0.6508444  3
   1147   1148   1157   1161     1  0.0000000  0.6508444  3
   1147   1151   1154   1160     1  0.0000000  0.6508444  3
   1148   1147   1151   1154     1  180.0000771  2.0083200  2
   1148   1147   1151   1154     1  0.0000000  1.2552000  3
   1148   1157   1161   1163     1  180.0000771  0.0000000  2
   1148   1157   1161   2389     1  0.0000000  0.2928800  2
   1148   1157   1161   2389     1  0.0000000  0.4184000  4
   1151   1147   1148   1157     1  180.0000771  2.0083200  2
   1151   1147   1148   1157     1  0.0000000  1.2552000  3
   1151   1154   1160   1162     1  180.0000771  0.0000000  2
   1151   1154   1160   2364     1  0.0000000  0.2928800  2
   1151   1154   1160   2364     1  0.0000000  0.4184000  4
   1154   1160   2364   2344     1  180.0000771  6.2760000  1
   1154   1160   2364   2344     1  0.0000000  0.0000000  2
   1157   1161   2389   2369     1  180.0000771  6.2760000  1
   1157   1161   2389   2369     1  0.0000000  0.0000000  2
   1160   2364   2344   2341     1  0.0000000  2.2175200  1
   1160   2364   2344   2341     1  0.0000000  0.0000000  2
   1160   2364   2344   2341     1  180.0000771  0.6276000  3
   1160   2364   2344   2341     1  180.0000771  2.0920000  4
   1161   2389   2369   2366     1  0.0000000  2.2175200  1
   1161   2389   2369   2366     1  0.0000000  0.0000000  2
   1161   2389   2369   2366     1  180.0000771  0.6276000  3
   1161   2389   2369   2366     1  180.0000771  2.0920000  4
   1162   1160   2364   2344     1  180.0000771  10.4600000  2
   1163   1161   2389   2369     1  180.0000771  10.4600000  2
   1166   1172   1173   1182     1  180.0000771  2.0083200  2
   1166   1172   1173   1182     1  0.0000000  1.2552000  3
   1166   1172   1176   1179     1  180.0000771  2.0083200  2
   1166   1172   1176   1179     1  0.0000000  1.2552000  3
   1169   1166   1172   1173     1  180.0000771  2.0083200  2
   1169   1166   1172   1173     1  0.0000000  1.2552000  3
   1169   1166   1172   1176     1  180.0000771  2.0083200  2
   1169   1166   1172   1176     1  0.0000000  1.2552000  3
   1172   1166   1169   1189     1  0.0000000  0.6508444  3
   1172   1173   1182   1186     1  0.0000000  0.6508444  3
   1172   1176   1179   1185     1  0.0000000  0.6508444  3
   1173   1172   1176   1179     1  180.0000771  2.0083200  2
   1173   1172   1176   1179     1  0.0000000  1.2552000  3
   1173   1182   1186   1188     1  180.0000771  0.0000000  2
   1173   1182   1186   2439     1  0.0000000  0.2928800  2
   1173   1182   1186   2439     1  0.0000000  0.4184000  4
   1176   1172   1173   1182     1  180.0000771  2.0083200  2
   1176   1172   1173   1182     1  0.0000000  1.2552000  3
   1176   1179   1185   1187     1  180.0000771  0.0000000  2
   1176   1179   1185   2414     1  0.0000000  0.2928800  2
   1176   1179   1185   2414     1  0.0000000  0.4184000  4
   1179   1185   2414   2394     1  180.0000771  6.2760000  1
   1179   1185   2414   2394     1  0.0000000  0.0000000  2
   1182   1186   2439   2419     1  180.0000771  6.2760000  1
   1182   1186   2439   2419     1  0.0000000  0.0000000  2
   1185   2414   2394   2391     1  0.0000000  2.2175200  1
   1185   2414   2394   2391     1  0.0000000  0.0000000  2
   1185   2414   2394   2391     1  180.0000771  0.6276000  3
   1185   2414   2394   2391     1  180.0000771  2.0920000  4
   1186   2439   2419   2416     1  0.0000000  2.2175200  1
   1186   2439   2419   2416     1  0.0000000  0.0000000  2
   1186   2439   2419   2416     1  180.0000771  0.6276000  3
   1186   2439   2419   2416     1  180.0000771  2.0920000  4
   1187   1185   2414   2394     1  180.0000771  10.4600000  2
   1188   1186   2439   2419     1  180.0000771  10.4600000  2
   1191   1197   1198   1207     1  180.0000771  2.0083200  2
   1191   1197   1198   1207     1  0.0000000  1.2552000  3
   1191   1197   1201   1204     1  180.0000771  2.0083200  2
   1191   1197   1201   1204     1  0.0000000  1.2552000  3
   1194   1191   1197   1198     1  180.0000771  2.0083200  2
   1194   1191   1197   1198     1  0.0000000  1.2552000  3
   1194   1191   1197   1201     1  180.0000771  2.0083200  2
   1194   1191   1197   1201     1  0.0000000  1.2552000  3
   1197   1191   1194   1214     1  0.0000000  0.6508444  3
   1197   1198   1207   1211     1  0.0000000  0.6508444  3
   1197   1201   1204   1210     1  0.0000000  0.6508444  3
   1198   1197   1201   1204     1  180.0000771  2.0083200  2
   1198   1197   1201   1204     1  0.0000000  1.2552000  3
   1198   1207   1211   1213     1  180.0000771  0.0000000  2
   1198   1207   1211   2489     1  0.0000000  0.2928800  2
   1198   1207   1211   2489     1  0.0000000  0.4184000  4
   1201   1197   1198   1207     1  180.0000771  2.0083200  2
   1201   1197   1198   1207     1  0.0000000  1.2552000  3
   1201   1204   1210   1212     1  180.0000771  0.0000000  2
   1201   1204   1210   2464     1  0.0000000  0.2928800  2
   1201   1204   1210   2464     1  0.0000000  0.4184000  4
   1204   1210   2464   2444     1  180.0000771  6.2760000  1
   1204   1210   2464   2444     1  0.0000000  0.0000000  2
   1207   1211   2489   2469     1  180.0000771  6.2760000  1
   1207   1211   2489   2469     1  0.0000000  0.0000000  2
   1210   2464   2444   2441     1  0.0000000  2.2175200  1
   1210   2464   2444   2441     1  0.0000000  0.0000000  2
   1210   2464   2444   2441     1  180.0000771  0.6276000  3
   1210   2464   2444   2441     1  180.0000771  2.0920000  4
   1211   2489   2469   2466     1  0.0000000  2.2175200  1
   1211   2489   2469   2466     1  0.0000000  0.0000000  2
   1211   2489   2469   2466     1  180.0000771  0.6276000  3
   1211   2489   2469   2466     1  180.0000771  2.0920000  4
   1212   1210   2464   2444     1  180.0000771  10.4600000  2
   1213   1211   2489   2469     1  180.0000771  10.4600000  2
   1216   1222   1223   1232     1  180.0000771  2.0083200  2
   1216   1222   1223   1232     1  0.0000000  1.2552000  3
   1216   1222   1226   1229     1  180.0000771  2.0083200  2
   1216   1222   1226   1229     1  0.0000000  1.2552000  3
   1219   1216   1222   1223     1  180.0000771  2.0083200  2
   1219   1216   1222   1223     1  0.0000000  1.2552000  3
   1219   1216   1222   1226     1  180.0000771  2.0083200  2
   1219   1216   1222   1226     1  0.0000000  1.2552000  3
   1222   1216   1219   1239     1  0.0000000  0.6508444  3
   1222   1223   1232   1236     1  0.0000000  0.6508444  3
   1222   1226   1229   1235     1  0.0000000  0.6508444  3
   1223   1222   1226   1229     1  180.0000771  2.0083200  2
   1223   1222   1226   1229     1  0.0000000  1.2552000  3
   1223   1232   1236   1238     1  180.0000771  0.0000000  2
   1223   1232   1236   2539     1  0.0000000  0.2928800  2
   1223   1232   1236   2539     1  0.0000000  0.4184000  4
   1226   1222   1223   1232     1  180.0000771  2.0083200  2
   1226   1222   1223   1232     1  0.0000000  1.2552000  3
   1226   1229   1235   1237     1  180.0000771  0.0000000  2
   1226   1229   1235   2514     1  0.0000000  0.2928800  2
   1226   1229   1235   2514     1  0.0000000  0.4184000  4
   1229   1235   2514   2494     1  180.0000771  6.2760000  1
   1229   1235   2514   2494     1  0.0000000  0.0000000  2
   1232   1236   2539   2519     1  180.0000771  6.2760000  1
   1232   1236   2539   2519     1  0.0000000  0.0000000  2
   1235   2514   2494   2491     1  0.0000000  2.2175200  1
   1235   2514   2494   2491     1  0.0000000  0.0000000  2
   1235   2514   2494   2491     1  180.0000771  0.6276000  3
   1235   2514   2494   2491     1  180.0000771  2.0920000  4
   1236   2539   2519   2516     1  0.0000000  2.2175200  1
   1236   2539   2519   2516     1  0.0000000  0.0000000  2
   1236   2539   2519   2516     1  180.0000771  0.6276000  3
   1236   2539   2519   2516     1  180.0000771  2.0920000  4
   1237   1235   2514   2494     1  180.0000771  10.4600000  2
   1238   1236   2539   2519     1  180.0000771  10.4600000  2
   1241   1247   1248   1257     1  180.0000771  2.0083200  2
   1241   1247   1248   1257     1  0.0000000  1.2552000  3
   1241   1247   1251   1254     1  180.0000771  2.0083200  2
   1241   1247   1251   1254     1  0.0000000  1.2552000  3
   1244   1241   1247   1248     1  180.0000771  2.0083200  2
   1244   1241   1247   1248     1  0.0000000  1.2552000  3
   1244   1241   1247   1251     1  180.0000771  2.0083200  2
   1244   1241   1247   1251     1  0.0000000  1.2552000  3
   1247   1241   1244   1264     1  0.0000000  0.6508444  3
   1247   1248   1257   1261     1  0.0000000  0.6508444  3
   1247   1251   1254   1260     1  0.0000000  0.6508444  3
   1248   1247   1251   1254     1  180.0000771  2.0083200  2
   1248   1247   1251   1254     1  0.0000000  1.2552000  3
   1248   1257   1261   1263     1  180.0000771  0.0000000  2
   1248   1257   1261   2589     1  0.0000000  0.2928800  2
   1248   1257   1261   2589     1  0.0000000  0.4184000  4
   1251   1247   1248   1257     1  180.0000771  2.0083200  2
   1251   1247   1248   1257     1  0.0000000  1.2552000  3
   1251   1254   1260   1262     1  180.0000771  0.0000000  2
   1251   1254   1260   2564     1  0.0000000  0.2928800  2
   1251   1254   1260   2564     1  0.0000000  0.4184000  4
   1254   1260   2564   2544     1  180.0000771  6.2760000  1
   1254   1260   2564   2544     1  0.0000000  0.0000000  2
   1257   1261   2589   2569     1  180.0000771  6.2760000  1
   1257   1261   2589   2569     1  0.0000000  0.0000000  2
   1260   2564   2544   2541     1  0.0000000  2.2175200  1
   1260   2564   2544   2541     1  0.0000000  0.0000000  2
   1260   2564   2544   2541     1  180.0000771  0.6276000  3
   1260   2564   2544   2541     1  180.0000771  2.0920000  4
   1261   2589   2569   2566     1  0.0000000  2.2175200  1
   1261   2589   2569   2566     1  0.0000000  0.0000000  2
   1261   2589   2569   2566     1  180.0000771  0.6276000  3
   1261   2589   2569   2566     1  180.0000771  2.0920000  4
   1262   1260   2564   2544     1  180.0000771  10.4600000  2
   1263   1261   2589   2569     1  180.0000771  10.4600000  2
   1266   1272   1273   1282     1  180.0000771  2.0083200  2
   1266   1272   1273   1282     1  0.0000000  1.2552000  3
   1266   1272   1276   1279     1  180.0000771  2.0083200  2
   1266   1272   1276   1279     1  0.0000000  1.2552000  3
   1269   1266   1272   1273     1  180.0000771  2.0083200  2
   1269   1266   1272   1273     1  0.0000000  1.2552000  3
   1269   1266   1272   1276     1  180.0000771  2.0083200  2
   1269   1266   1272   1276     1  0.0000000  1.2552000  3
   1272   1266   1269   1289     1  0.0000000  0.6508444  3
   1272   1273   1282   1286     1  0.0000000  0.6508444  3
   1272   1276   1279   1285     1  0.0000000  0.6508444  3
   1273   1272   1276   1279     1  180.0000771  2.0083200  2
   1273   1272   1276   1279     1  0.0000000  1.2552000  3
   1273   1282   1286   1288     1  180.0000771  0.0000000  2
   1273   1282   1286   2639     1  0.0000000  0.2928800  2
   1273   1282   1286   2639     1  0.0000000  0.4184000  4
   1276   1272   1273   1282     1  180.0000771  2.0083200  2
   1276   1272   1273   1282     1  0.0000000  1.2552000  3
   1276   1279   1285   1287     1  180.0000771  0.0000000  2
   1276   1279   1285   2614     1  0.0000000  0.2928800  2
   1276   1279   1285   2614     1  0.0000000  0.4184000  4
   1279   1285   2614   2594     1  180.0000771  6.2760000  1
   1279   1285   2614   2594     1  0.0000000  0.0000000  2
   1282   1286   2639   2619     1  180.0000771  6.2760000  1
   1282   1286   2639   2619     1  0.0000000  0.0000000  2
   1285   2614   2594   2591     1  0.0000000  2.2175200  1
   1285   2614   2594   2591     1  0.0000000  0.0000000  2
   1285   2614   2594   2591     1  180.0000771  0.6276000  3
   1285   2614   2594   2591     1  180.0000771  2.0920000  4
   1286   2639   2619   2616     1  0.0000000  2.2175200  1
   1286   2639   2619   2616     1  0.0000000  0.0000000  2
   1286   2639   2619   2616     1  180.0000771  0.6276000  3
   1286   2639   2619   2616     1  180.0000771  2.0920000  4
   1287   1285   2614   2594     1  180.0000771  10.4600000  2
   1288   1286   2639   2619     1  180.0000771  10.4600000  2
   1291   1297   1298   1307     1  180.0000771  2.0083200  2
   1291   1297   1298   1307     1  0.0000000  1.2552000  3
   1291   1297   1301   1304     1  180.0000771  2.0083200  2
   1291   1297   1301   1304     1  0.0000000  1.2552000  3
   1294   1291   1297   1298     1  180.0000771  2.0083200  2
   1294   1291   1297   1298     1  0.0000000  1.2552000  3
   1294   1291   1297   1301     1  180.0000771  2.0083200  2
   1294   1291   1297   1301     1  0.0000000  1.2552000  3
   1297   1291   1294   1314     1  0.0000000  0.6508444  3
   1297   1298   1307   1311     1  0.0000000  0.6508444  3
   1297   1301   1304   1310     1  0.0000000  0.6508444  3
   1298   1297   1301   1304     1  180.0000771  2.0083200  2
   1298   1297   1301   1304     1  0.0000000  1.2552000  3
   1298   1307   1311   1313     1  180.0000771  0.0000000  2
   1298   1307   1311   2689     1  0.0000000  0.2928800  2
   1298   1307   1311   2689     1  0.0000000  0.4184000  4
   1301   1297   1298   1307     1  180.0000771  2.0083200  2
   1301   1297   1298   1307     1  0.0000000  1.2552000  3
   1301   1304   1310   1312     1  180.0000771  0.0000000  2
   1301   1304   1310   2664     1  0.0000000  0.2928800  2
   1301   1304   1310   2664     1  0.0000000  0.4184000  4
   1304   1310   2664   2644     1  180.0000771  6.2760000  1
   1304   1310   2664   2644     1  0.0000000  0.0000000  2
   1307   1311   2689   2669     1  180.0000771  6.2760000  1
   1307   1311   2689   2669     1  0.0000000  0.0000000  2
   1310   2664   2644   2641     1  0.0000000  2.2175200  1
   1310   2664   2644   2641     1  0.0000000  0.0000000  2
   1310   2664   2644   2641     1  180.0000771  0.6276000  3
   1310   2664   2644   2641     1  180.0000771  2.0920000  4
   1311   2689   2669   2666     1  0.0000000  2.2175200  1
   1311   2689   2669   2666     1  0.0000000  0.0000000  2
   1311   2689   2669   2666     1  180.0000771  0.6276000  3
   1311   2689   2669   2666     1  180.0000771  2.0920000  4
   1312   1310   2664   2644     1  180.0000771  10.4600000  2
   1313   1311   2689   2669     1  180.0000771  10.4600000  2
   1316   1322   1323   1332     1  180.0000771  2.0083200  2
   1316   1322   1323   1332     1  0.0000000  1.2552000  3
   1316   1322   1326   1329     1  180.0000771  2.0083200  2
   1316   1322   1326   1329     1  0.0000000  1.2552000  3
   1319   1316   1322   1323     1  180.0000771  2.0083200  2
   1319   1316   1322   1323     1  0.0000000  1.2552000  3
   1319   1316   1322   1326     1  180.0000771  2.0083200  2
   1319   1316   1322   1326     1  0.0000000  1.2552000  3
   1322   1316   1319   1339     1  0.0000000  0.6508444  3
   1322   1323   1332   1336     1  0.0000000  0.6508444  3
   1322   1326   1329   1335     1  0.0000000  0.6508444  3
   1323   1322   1326   1329     1  180.0000771  2.0083200  2
   1323   1322   1326   1329     1  0.0000000  1.2552000  3
   1323   1332   1336   1338     1  180.0000771  0.0000000  2
   1323   1332   1336   2739     1  0.0000000  0.2928800  2
   1323   1332   1336   2739     1  0.0000000  0.4184000  4
   1326   1322   1323   1332     1  180.0000771  2.0083200  2
   1326   1322   1323   1332     1  0.0000000  1.2552000  3
   1326   1329   1335   1337     1  180.0000771  0.0000000  2
   1326   1329   1335   2714     1  0.0000000  0.2928800  2
   1326   1329   1335   2714     1  0.0000000  0.4184000  4
   1329   1335   2714   2694     1  180.0000771  6.2760000  1
   1329   1335   2714   2694     1  0.0000000  0.0000000  2
   1332   1336   2739   2719     1  180.0000771  6.2760000  1
   1332   1336   2739   2719     1  0.0000000  0.0000000  2
   1335   2714   2694   2691     1  0.0000000  2.2175200  1
   1335   2714   2694   2691     1  0.0000000  0.0000000  2
   1335   2714   2694   2691     1  180.0000771  0.6276000  3
   1335   2714   2694   2691     1  180.0000771  2.0920000  4
   1336   2739   2719   2716     1  0.0000000  2.2175200  1
   1336   2739   2719   2716     1  0.0000000  0.0000000  2
   1336   2739   2719   2716     1  180.0000771  0.6276000  3
   1336   2739   2719   2716     1  180.0000771  2.0920000  4
   1337   1335   2714   2694     1  180.0000771  10.4600000  2
   1338   1336   2739   2719     1  180.0000771  10.4600000  2
   1341   1347   1348   1357     1  180.0000771  2.0083200  2
   1341   1347   1348   1357     1  0.0000000  1.2552000  3
   1341   1347   1351   1354     1  180.0000771  2.0083200  2
   1341   1347   1351   1354     1  0.0000000  1.2552000  3
   1344   1341   1347   1348     1  180.0000771  2.0083200  2
   1344   1341   1347   1348     1  0.0000000  1.2552000  3
   1344   1341   1347   1351     1  180.0000771  2.0083200  2
   1344   1341   1347   1351     1  0.0000000  1.2552000  3
   1347   1341   1344   1364     1  0.0000000  0.6508444  3
   1347   1348   1357   1361     1  0.0000000  0.6508444  3
   1347   1351   1354   1360     1  0.0000000  0.6508444  3
   1348   1347   1351   1354     1  180.0000771  2.0083200  2
   1348   1347   1351   1354     1  0.0000000  1.2552000  3
   1348   1357   1361   1363     1  180.0000771  0.0000000  2
   1348   1357   1361   2789     1  0.0000000  0.2928800  2
   1348   1357   1361   2789     1  0.0000000  0.4184000  4
   1351   1347   1348   1357     1  180.0000771  2.0083200  2
   1351   1347   1348   1357     1  0.0000000  1.2552000  3
   1351   1354   1360   1362     1  180.0000771  0.0000000  2
   1351   1354   1360   2764     1  0.0000000  0.2928800  2
   1351   1354   1360   2764     1  0.0000000  0.4184000  4
   1354   1360   2764   2744     1  180.0000771  6.2760000  1
   1354   1360   2764   2744     1  0.0000000  0.0000000  2
   1357   1361   2789   2769     1  180.0000771  6.2760000  1
   1357   1361   2789   2769     1  0.0000000  0.0000000  2
   1360   2764   2744   2741     1  0.0000000  2.2175200  1
   1360   2764   2744   2741     1  0.0000000  0.0000000  2
   1360   2764   2744   2741     1  180.0000771  0.6276000  3
   1360   2764   2744   2741     1  180.0000771  2.0920000  4
   1361   2789   2769   2766     1  0.0000000  2.2175200  1
   1361   2789   2769   2766     1  0.0000000  0.0000000  2
   1361   2789   2769   2766     1  180.0000771  0.6276000  3
   1361   2789   2769   2766     1  180.0000771  2.0920000  4
   1362   1360   2764   2744     1  180.0000771  10.4600000  2
   1363   1361   2789   2769     1  180.0000771  10.4600000  2
   1366   1372   1373   1382     1  180.0000771  2.0083200  2
   1366   1372   1373   1382     1  0.0000000  1.2552000  3
   1366   1372   1376   1379     1  180.0000771  2.0083200  2
   1366   1372   1376   1379     1  0.0000000  1.2552000  3
   1369   1366   1372   1373     1  180.0000771  2.0083200  2
   1369   1366   1372   1373     1  0.0000000  1.2552000  3
   1369   1366   1372   1376     1  180.0000771  2.0083200  2
   1369   1366   1372   1376     1  0.0000000  1.2552000  3
   1372   1366   1369   1389     1  0.0000000  0.6508444  3
   1372   1373   1382   1386     1  0.0000000  0.6508444  3
   1372   1376   1379   1385     1  0.0000000  0.6508444  3
   1373   1372   1376   1379     1  180.0000771  2.0083200  2
   1373   1372   1376   1379     1  0.0000000  1.2552000  3
   1373   1382   1386   1388     1  180.0000771  0.0000000  2
   1373   1382   1386   2839     1  0.0000000  0.2928800  2
   1373   1382   1386   2839     1  0.0000000  0.4184000  4
   1376   1372   1373   1382     1  180.0000771  2.0083200  2
   1376   1372   1373   1382     1  0.0000000  1.2552000  3
   1376   1379   1385   1387     1  180.0000771  0.0000000  2
   1376   1379   1385   2814     1  0.0000000  0.2928800  2
   1376   1379   1385   2814     1  0.0000000  0.4184000  4
   1379   1385   2814   2794     1  180.0000771  6.2760000  1
   1379   1385   2814   2794     1  0.0000000  0.0000000  2
   1382   1386   2839   2819     1  180.0000771  6.2760000  1
   1382   1386   2839   2819     1  0.0000000  0.0000000  2
   1385   2814   2794   2791     1  0.0000000  2.2175200  1
   1385   2814   2794   2791     1  0.0000000  0.0000000  2
   1385   2814   2794   2791     1  180.0000771  0.6276000  3
   1385   2814   2794   2791     1  180.0000771  2.0920000  4
   1386   2839   2819   2816     1  0.0000000  2.2175200  1
   1386   2839   2819   2816     1  0.0000000  0.0000000  2
   1386   2839   2819   2816     1  180.0000771  0.6276000  3
   1386   2839   2819   2816     1  180.0000771  2.0920000  4
   1387   1385   2814   2794     1  180.0000771  10.4600000  2
   1388   1386   2839   2819     1  180.0000771  10.4600000  2
   1391   1397   1398   1407     1  180.0000771  2.0083200  2
   1391   1397   1398   1407     1  0.0000000  1.2552000  3
   1391   1397   1401   1404     1  180.0000771  2.0083200  2
   1391   1397   1401   1404     1  0.0000000  1.2552000  3
   1394   1391   1397   1398     1  180.0000771  2.0083200  2
   1394   1391   1397   1398     1  0.0000000  1.2552000  3
   1394   1391   1397   1401     1  180.0000771  2.0083200  2
   1394   1391   1397   1401     1  0.0000000  1.2552000  3
   1397   1391   1394   1414     1  0.0000000  0.6508444  3
   1397   1398   1407   1411     1  0.0000000  0.6508444  3
   1397   1401   1404   1410     1  0.0000000  0.6508444  3
   1398   1397   1401   1404     1  180.0000771  2.0083200  2
   1398   1397   1401   1404     1  0.0000000  1.2552000  3
   1398   1407   1411   1413     1  180.0000771  0.0000000  2
   1398   1407   1411   2889     1  0.0000000  0.2928800  2
   1398   1407   1411   2889     1  0.0000000  0.4184000  4
   1401   1397   1398   1407     1  180.0000771  2.0083200  2
   1401   1397   1398   1407     1  0.0000000  1.2552000  3
   1401   1404   1410   1412     1  180.0000771  0.0000000  2
   1401   1404   1410   2864     1  0.0000000  0.2928800  2
   1401   1404   1410   2864     1  0.0000000  0.4184000  4
   1404   1410   2864   2844     1  180.0000771  6.2760000  1
   1404   1410   2864   2844     1  0.0000000  0.0000000  2
   1407   1411   2889   2869     1  180.0000771  6.2760000  1
   1407   1411   2889   2869     1  0.0000000  0.0000000  2
   1410   2864   2844   2841     1  0.0000000  2.2175200  1
   1410   2864   2844   2841     1  0.0000000  0.0000000  2
   1410   2864   2844   2841     1  180.0000771  0.6276000  3
   1410   2864   2844   2841     1  180.0000771  2.0920000  4
   1411   2889   2869   2866     1  0.0000000  2.2175200  1
   1411   2889   2869   2866     1  0.0000000  0.0000000  2
   1411   2889   2869   2866     1  180.0000771  0.6276000  3
   1411   2889   2869   2866     1  180.0000771  2.0920000  4
   1412   1410   2864   2844     1  180.0000771  10.4600000  2
   1413   1411   2889   2869     1  180.0000771  10.4600000  2
   1416   1422   1423   1432     1  180.0000771  2.0083200  2
   1416   1422   1423   1432     1  0.0000000  1.2552000  3
   1416   1422   1426   1429     1  180.0000771  2.0083200  2
   1416   1422   1426   1429     1  0.0000000  1.2552000  3
   1419   1416   1422   1423     1  180.0000771  2.0083200  2
   1419   1416   1422   1423     1  0.0000000  1.2552000  3
   1419   1416   1422   1426     1  180.0000771  2.0083200  2
   1419   1416   1422   1426     1  0.0000000  1.2552000  3
   1422   1416   1419   1439     1  0.0000000  0.6508444  3
   1422   1423   1432   1436     1  0.0000000  0.6508444  3
   1422   1426   1429   1435     1  0.0000000  0.6508444  3
   1423   1422   1426   1429     1  180.0000771  2.0083200  2
   1423   1422   1426   1429     1  0.0000000  1.2552000  3
   1423   1432   1436   1438     1  180.0000771  0.0000000  2
   1423   1432   1436   2939     1  0.0000000  0.2928800  2
   1423   1432   1436   2939     1  0.0000000  0.4184000  4
   1426   1422   1423   1432     1  180.0000771  2.0083200  2
   1426   1422   1423   1432     1  0.0000000  1.2552000  3
   1426   1429   1435   1437     1  180.0000771  0.0000000  2
   1426   1429   1435   2914     1  0.0000000  0.2928800  2
   1426   1429   1435   2914     1  0.0000000  0.4184000  4
   1429   1435   2914   2894     1  180.0000771  6.2760000  1
   1429   1435   2914   2894     1  0.0000000  0.0000000  2
   1432   1436   2939   2919     1  180.0000771  6.2760000  1
   1432   1436   2939   2919     1  0.0000000  0.0000000  2
   1435   2914   2894   2891     1  0.0000000  2.2175200  1
   1435   2914   2894   2891     1  0.0000000  0.0000000  2
   1435   2914   2894   2891     1  180.0000771  0.6276000  3
   1435   2914   2894   2891     1  180.0000771  2.0920000  4
   1436   2939   2919   2916     1  0.0000000  2.2175200  1
   1436   2939   2919   2916     1  0.0000000  0.0000000  2
   1436   2939   2919   2916     1  180.0000771  0.6276000  3
   1436   2939   2919   2916     1  180.0000771  2.0920000  4
   1437   1435   2914   2894     1  180.0000771  10.4600000  2
   1438   1436   2939   2919     1  180.0000771  10.4600000  2
   1441   1447   1448   1457     1  180.0000771  2.0083200  2
   1441   1447   1448   1457     1  0.0000000  1.2552000  3
   1441   1447   1451   1454     1  180.0000771  2.0083200  2
   1441   1447   1451   1454     1  0.0000000  1.2552000  3
   1444   1441   1447   1448     1  180.0000771  2.0083200  2
   1444   1441   1447   1448     1  0.0000000  1.2552000  3
   1444   1441   1447   1451     1  180.0000771  2.0083200  2
   1444   1441   1447   1451     1  0.0000000  1.2552000  3
   1447   1441   1444   1464     1  0.0000000  0.6508444  3
   1447   1448   1457   1461     1  0.0000000  0.6508444  3
   1447   1451   1454   1460     1  0.0000000  0.6508444  3
   1448   1447   1451   1454     1  180.0000771  2.0083200  2
   1448   1447   1451   1454     1  0.0000000  1.2552000  3
   1448   1457   1461   1463     1  180.0000771  0.0000000  2
   1448   1457   1461   2989     1  0.0000000  0.2928800  2
   1448   1457   1461   2989     1  0.0000000  0.4184000  4
   1451   1447   1448   1457     1  180.0000771  2.0083200  2
   1451   1447   1448   1457     1  0.0000000  1.2552000  3
   1451   1454   1460   1462     1  180.0000771  0.0000000  2
   1451   1454   1460   2964     1  0.0000000  0.2928800  2
   1451   1454   1460   2964     1  0.0000000  0.4184000  4
   1454   1460   2964   2944     1  180.0000771  6.2760000  1
   1454   1460   2964   2944     1  0.0000000  0.0000000  2
   1457   1461   2989   2969     1  180.0000771  6.2760000  1
   1457   1461   2989   2969     1  0.0000000  0.0000000  2
   1460   2964   2944   2941     1  0.0000000  2.2175200  1
   1460   2964   2944   2941     1  0.0000000  0.0000000  2
   1460   2964   2944   2941     1  180.0000771  0.6276000  3
   1460   2964   2944   2941     1  180.0000771  2.0920000  4
   1461   2989   2969   2966     1  0.0000000  2.2175200  1
   1461   2989   2969   2966     1  0.0000000  0.0000000  2
   1461   2989   2969   2966     1  180.0000771  0.6276000  3
   1461   2989   2969   2966     1  180.0000771  2.0920000  4
   1462   1460   2964   2944     1  180.0000771  10.4600000  2
   1463   1461   2989   2969     1  180.0000771  10.4600000  2
   1466   1472   1473   1482     1  180.0000771  2.0083200  2
   1466   1472   1473   1482     1  0.0000000  1.2552000  3
   1466   1472   1476   1479     1  180.0000771  2.0083200  2
   1466   1472   1476   1479     1  0.0000000  1.2552000  3
   1469   1466   1472   1473     1  180.0000771  2.0083200  2
   1469   1466   1472   1473     1  0.0000000  1.2552000  3
   1469   1466   1472   1476     1  180.0000771  2.0083200  2
   1469   1466   1472   1476     1  0.0000000  1.2552000  3
   1472   1466   1469   1489     1  0.0000000  0.6508444  3
   1472   1473   1482   1486     1  0.0000000  0.6508444  3
   1472   1476   1479   1485     1  0.0000000  0.6508444  3
   1473   1472   1476   1479     1  180.0000771  2.0083200  2
   1473   1472   1476   1479     1  0.0000000  1.2552000  3
   1473   1482   1486   1488     1  180.0000771  0.0000000  2
   1473   1482   1486   3039     1  0.0000000  0.2928800  2
   1473   1482   1486   3039     1  0.0000000  0.4184000  4
   1476   1472   1473   1482     1  180.0000771  2.0083200  2
   1476   1472   1473   1482     1  0.0000000  1.2552000  3
   1476   1479   1485   1487     1  180.0000771  0.0000000  2
   1476   1479   1485   3014     1  0.0000000  0.2928800  2
   1476   1479   1485   3014     1  0.0000000  0.4184000  4
   1479   1485   3014   2994     1  180.0000771  6.2760000  1
   1479   1485   3014   2994     1  0.0000000  0.0000000  2
   1482   1486   3039   3019     1  180.0000771  6.2760000  1
   1482   1486   3039   3019     1  0.0000000  0.0000000  2
   1485   3014   2994   2991     1  0.0000000  2.2175200  1
   1485   3014   2994   2991     1  0.0000000  0.0000000  2
   1485   3014   2994   2991     1  180.0000771  0.6276000  3
   1485   3014   2994   2991     1  180.0000771  2.0920000  4
   1486   3039   3019   3016     1  0.0000000  2.2175200  1
   1486   3039   3019   3016     1  0.0000000  0.0000000  2
   1486   3039   3019   3016     1  180.0000771  0.6276000  3
   1486   3039   3019   3016     1  180.0000771  2.0920000  4
   1487   1485   3014   2994     1  180.0000771  10.4600000  2
   1488   1486   3039   3019     1  180.0000771  10.4600000  2
   1491   1497   1498   1507     1  180.0000771  2.0083200  2
   1491   1497   1498   1507     1  0.0000000  1.2552000  3
   1491   1497   1501   1504     1  180.0000771  2.0083200  2
   1491   1497   1501   1504     1  0.0000000  1.2552000  3
   1494   1491   1497   1498     1  180.0000771  2.0083200  2
   1494   1491   1497   1498     1  0.0000000  1.2552000  3
   1494   1491   1497   1501     1  180.0000771  2.0083200  2
   1494   1491   1497   1501     1  0.0000000  1.2552000  3
   1497   1491   1494   1514     1  0.0000000  0.6508444  3
   1497   1498   1507   1511     1  0.0000000  0.6508444  3
   1497   1501   1504   1510     1  0.0000000  0.6508444  3
   1498   1497   1501   1504     1  180.0000771  2.0083200  2
   1498   1497   1501   1504     1  0.0000000  1.2552000  3
   1498   1507   1511   1513     1  180.0000771  0.0000000  2
   1498   1507   1511   3089     1  0.0000000  0.2928800  2
   1498   1507   1511   3089     1  0.0000000  0.4184000  4
   1501   1497   1498   1507     1  180.0000771  2.0083200  2
   1501   1497   1498   1507     1  0.0000000  1.2552000  3
   1501   1504   1510   1512     1  180.0000771  0.0000000  2
   1501   1504   1510   3064     1  0.0000000  0.2928800  2
   1501   1504   1510   3064     1  0.0000000  0.4184000  4
   1504   1510   3064   3044     1  180.0000771  6.2760000  1
   1504   1510   3064   3044     1  0.0000000  0.0000000  2
   1507   1511   3089   3069     1  180.0000771  6.2760000  1
   1507   1511   3089   3069     1  0.0000000  0.0000000  2
   1510   3064   3044   3041     1  0.0000000  2.2175200  1
   1510   3064   3044   3041     1  0.0000000  0.0000000  2
   1510   3064   3044   3041     1  180.0000771  0.6276000  3
   1510   3064   3044   3041     1  180.0000771  2.0920000  4
   1511   3089   3069   3066     1  0.0000000  2.2175200  1
   1511   3089   3069   3066     1  0.0000000  0.0000000  2
   1511   3089   3069   3066     1  180.0000771  0.6276000  3
   1511   3089   3069   3066     1  180.0000771  2.0920000  4
   1512   1510   3064   3044     1  180.0000771  10.4600000  2
   1513   1511   3089   3069     1  180.0000771  10.4600000  2
   1516   1522   1523   1532     1  180.0000771  2.0083200  2
   1516   1522   1523   1532     1  0.0000000  1.2552000  3
   1516   1522   1526   1529     1  180.0000771  2.0083200  2
   1516   1522   1526   1529     1  0.0000000  1.2552000  3
   1519   1516   1522   1523     1  180.0000771  2.0083200  2
   1519   1516   1522   1523     1  0.0000000  1.2552000  3
   1519   1516   1522   1526     1  180.0000771  2.0083200  2
   1519   1516   1522   1526     1  0.0000000  1.2552000  3
   1522   1516   1519   1539     1  0.0000000  0.6508444  3
   1522   1523   1532   1536     1  0.0000000  0.6508444  3
   1522   1526   1529   1535     1  0.0000000  0.6508444  3
   1523   1522   1526   1529     1  180.0000771  2.0083200  2
   1523   1522   1526   1529     1  0.0000000  1.2552000  3
   1523   1532   1536   1538     1  180.0000771  0.0000000  2
   1523   1532   1536   3139     1  0.0000000  0.2928800  2
   1523   1532   1536   3139     1  0.0000000  0.4184000  4
   1526   1522   1523   1532     1  180.0000771  2.0083200  2
   1526   1522   1523   1532     1  0.0000000  1.2552000  3
   1526   1529   1535   1537     1  180.0000771  0.0000000  2
   1526   1529   1535   3114     1  0.0000000  0.2928800  2
   1526   1529   1535   3114     1  0.0000000  0.4184000  4
   1529   1535   3114   3094     1  180.0000771  6.2760000  1
   1529   1535   3114   3094     1  0.0000000  0.0000000  2
   1532   1536   3139   3119     1  180.0000771  6.2760000  1
   1532   1536   3139   3119     1  0.0000000  0.0000000  2
   1535   3114   3094   3091     1  0.0000000  2.2175200  1
   1535   3114   3094   3091     1  0.0000000  0.0000000  2
   1535   3114   3094   3091     1  180.0000771  0.6276000  3
   1535   3114   3094   3091     1  180.0000771  2.0920000  4
   1536   3139   3119   3116     1  0.0000000  2.2175200  1
   1536   3139   3119   3116     1  0.0000000  0.0000000  2
   1536   3139   3119   3116     1  180.0000771  0.6276000  3
   1536   3139   3119   3116     1  180.0000771  2.0920000  4
   1537   1535   3114   3094     1  180.0000771  10.4600000  2
   1538   1536   3139   3119     1  180.0000771  10.4600000  2
   1541   1547   1548   1557     1  180.0000771  2.0083200  2
   1541   1547   1548   1557     1  0.0000000  1.2552000  3
   1541   1547   1551   1554     1  180.0000771  2.0083200  2
   1541   1547   1551   1554     1  0.0000000  1.2552000  3
   1544   1541   1547   1548     1  180.0000771  2.0083200  2
   1544   1541   1547   1548     1  0.0000000  1.2552000  3
   1544   1541   1547   1551     1  180.0000771  2.0083200  2
   1544   1541   1547   1551     1  0.0000000  1.2552000  3
   1547   1541   1544   1564     1  0.0000000  0.6508444  3
   1547   1548   1557   1561     1  0.0000000  0.6508444  3
   1547   1551   1554   1560     1  0.0000000  0.6508444  3
   1548   1547   1551   1554     1  180.0000771  2.0083200  2
   1548   1547   1551   1554     1  0.0000000  1.2552000  3
   1548   1557   1561   1563     1  180.0000771  0.0000000  2
   1548   1557   1561   3161     1  0.0000000  0.2928800  2
   1548   1557   1561   3161     1  0.0000000  0.4184000  4
   1551   1547   1548   1557     1  180.0000771  2.0083200  2
   1551   1547   1548   1557     1  0.0000000  1.2552000  3
   1551   1554   1560   3150     1  0.0000000  0.2928800  2
   1551   1554   1560   3150     1  0.0000000  0.4184000  4
   1551   1554   1560   1562     1  180.0000771  0.0000000  2
   1554   1560   3150   3141     1  180.0000771  6.2760000  1
   1554   1560   3150   3141     1  0.0000000  0.0000000  2
   1557   1561   3161   3152     1  180.0000771  6.2760000  1
   1557   1561   3161   3152     1  0.0000000  0.0000000  2
   1560   3150   3141   3144     1  0.0000000  2.2175200  1
   1560   3150   3141   3144     1  0.0000000  0.0000000  2
   1560   3150   3141   3144     1  180.0000771  0.6276000  3
   1560   3150   3141   3144     1  180.0000771  2.0920000  4
   1561   3161   3152   3155     1  0.0000000  2.2175200  1
   1561   3161   3152   3155     1  0.0000000  0.0000000  2
   1561   3161   3152   3155     1  180.0000771  0.6276000  3
   1561   3161   3152   3155     1  180.0000771  2.0920000  4
   1562   1560   3150   3141     1  180.0000771  10.4600000  2
   1563   1561   3161   3152     1  180.0000771  10.4600000  2
   1566   1572   1573   1582     1  180.0000771  2.0083200  2
   1566   1572   1573   1582     1  0.0000000  1.2552000  3
   1566   1572   1576   1579     1  180.0000771  2.0083200  2
   1566   1572   1576   1579     1  0.0000000  1.2552000  3
   1569   1566   1572   1573     1  180.0000771  2.0083200  2
   1569   1566   1572   1573     1  0.0000000  1.2552000  3
   1569   1566   1572   1576     1  180.0000771  2.0083200  2
   1569   1566   1572   1576     1  0.0000000  1.2552000  3
   1572   1566   1569   1589     1  0.0000000  0.6508444  3
   1572   1573   1582   1586     1  0.0000000  0.6508444  3
   1572   1576   1579   1585     1  0.0000000  0.6508444  3
   1573   1572   1576   1579     1  180.0000771  2.0083200  2
   1573   1572   1576   1579     1  0.0000000  1.2552000  3
   1573   1582   1586   1588     1  180.0000771  0.0000000  2
   1573   1582   1586   3183     1  0.0000000  0.2928800  2
   1573   1582   1586   3183     1  0.0000000  0.4184000  4
   1576   1572   1573   1582     1  180.0000771  2.0083200  2
   1576   1572   1573   1582     1  0.0000000  1.2552000  3
   1576   1579   1585   3172     1  0.0000000  0.2928800  2
   1576   1579   1585   3172     1  0.0000000  0.4184000  4
   1576   1579   1585   1587     1  180.0000771  0.0000000  2
   1579   1585   3172   3163     1  180.0000771  6.2760000  1
   1579   1585   3172   3163     1  0.0000000  0.0000000  2
   1582   1586   3183   3174     1  180.0000771  6.2760000  1
   1582   1586   3183   3174     1  0.0000000  0.0000000  2
   1585   3172   3163   3166     1  0.0000000  2.2175200  1
   1585   3172   3163   3166     1  0.0000000  0.0000000  2
   1585   3172   3163   3166     1  180.0000771  0.6276000  3
   1585   3172   3163   3166     1  180.0000771  2.0920000  4
   1586   3183   3174   3177     1  0.0000000  2.2175200  1
   1586   3183   3174   3177     1  0.0000000  0.0000000  2
   1586   3183   3174   3177     1  180.0000771  0.6276000  3
   1586   3183   3174   3177     1  180.0000771  2.0920000  4
   1587   1585   3172   3163     1  180.0000771  10.4600000  2
   1588   1586   3183   3174     1  180.0000771  10.4600000  2
   1591   1597   1598   1607     1  180.0000771  2.0083200  2
   1591   1597   1598   1607     1  0.0000000  1.2552000  3
   1591   1597   1601   1604     1  180.0000771  2.0083200  2
   1591   1597   1601   1604     1  0.0000000  1.2552000  3
   1594   1591   1597   1598     1  180.0000771  2.0083200  2
   1594   1591   1597   1598     1  0.0000000  1.2552000  3
   1594   1591   1597   1601     1  180.0000771  2.0083200  2
   1594   1591   1597   1601     1  0.0000000  1.2552000  3
   1597   1591   1594   1614     1  0.0000000  0.6508444  3
   1597   1598   1607   1611     1  0.0000000  0.6508444  3
   1597   1601   1604   1610     1  0.0000000  0.6508444  3
   1598   1597   1601   1604     1  180.0000771  2.0083200  2
   1598   1597   1601   1604     1  0.0000000  1.2552000  3
   1598   1607   1611   1613     1  180.0000771  0.0000000  2
   1598   1607   1611   3205     1  0.0000000  0.2928800  2
   1598   1607   1611   3205     1  0.0000000  0.4184000  4
   1601   1597   1598   1607     1  180.0000771  2.0083200  2
   1601   1597   1598   1607     1  0.0000000  1.2552000  3
   1601   1604   1610   3194     1  0.0000000  0.2928800  2
   1601   1604   1610   3194     1  0.0000000  0.4184000  4
   1601   1604   1610   1612     1  180.0000771  0.0000000  2
   1604   1610   3194   3185     1  180.0000771  6.2760000  1
   1604   1610   3194   3185     1  0.0000000  0.0000000  2
   1607   1611   3205   3196     1  180.0000771  6.2760000  1
   1607   1611   3205   3196     1  0.0000000  0.0000000  2
   1610   3194   3185   3188     1  0.0000000  2.2175200  1
   1610   3194   3185   3188     1  0.0000000  0.0000000  2
   1610   3194   3185   3188     1  180.0000771  0.6276000  3
   1610   3194   3185   3188     1  180.0000771  2.0920000  4
   1611   3205   3196   3199     1  0.0000000  2.2175200  1
   1611   3205   3196   3199     1  0.0000000  0.0000000  2
   1611   3205   3196   3199     1  180.0000771  0.6276000  3
   1611   3205   3196   3199     1  180.0000771  2.0920000  4
   1612   1610   3194   3185     1  180.0000771  10.4600000  2
   1613   1611   3205   3196     1  180.0000771  10.4600000  2
   1616   1622   1623   1632     1  180.0000771  2.0083200  2
   1616   1622   1623   1632     1  0.0000000  1.2552000  3
   1616   1622   1626   1629     1  180.0000771  2.0083200  2
   1616   1622   1626   1629     1  0.0000000  1.2552000  3
   1619   1616   1622   1623     1  180.0000771  2.0083200  2
   1619   1616   1622   1623     1  0.0000000  1.2552000  3
   1619   1616   1622   1626     1  180.0000771  2.0083200  2
   1619   1616   1622   1626     1  0.0000000  1.2552000  3
   1622   1616   1619   1639     1  0.0000000  0.6508444  3
   1622   1623   1632   1636     1  0.0000000  0.6508444  3
   1622   1626   1629   1635     1  0.0000000  0.6508444  3
   1623   1622   1626   1629     1  180.0000771  2.0083200  2
   1623   1622   1626   1629     1  0.0000000  1.2552000  3
   1623   1632   1636   1638     1  180.0000771  0.0000000  2
   1623   1632   1636   3227     1  0.0000000  0.2928800  2
   1623   1632   1636   3227     1  0.0000000  0.4184000  4
   1626   1622   1623   1632     1  180.0000771  2.0083200  2
   1626   1622   1623   1632     1  0.0000000  1.2552000  3
   1626   1629   1635   3216     1  0.0000000  0.2928800  2
   1626   1629   1635   3216     1  0.0000000  0.4184000  4
   1626   1629   1635   1637     1  180.0000771  0.0000000  2
   1629   1635   3216   3207     1  180.0000771  6.2760000  1
   1629   1635   3216   3207     1  0.0000000  0.0000000  2
   1632   1636   3227   3218     1  180.0000771  6.2760000  1
   1632   1636   3227   3218     1  0.0000000  0.0000000  2
   1635   3216   3207   3210     1  0.0000000  2.2175200  1
   1635   3216   3207   3210     1  0.0000000  0.0000000  2
   1635   3216   3207   3210     1  180.0000771  0.6276000  3
   1635   3216   3207   3210     1  180.0000771  2.0920000  4
   1636   3227   3218   3221     1  0.0000000  2.2175200  1
   1636   3227   3218   3221     1  0.0000000  0.0000000  2
   1636   3227   3218   3221     1  180.0000771  0.6276000  3
   1636   3227   3218   3221     1  180.0000771  2.0920000  4
   1637   1635   3216   3207     1  180.0000771  10.4600000  2
   1638   1636   3227   3218     1  180.0000771  10.4600000  2
   1641   1647   1648   1657     1  180.0000771  2.0083200  2
   1641   1647   1648   1657     1  0.0000000  1.2552000  3
   1641   1647   1651   1654     1  180.0000771  2.0083200  2
   1641   1647   1651   1654     1  0.0000000  1.2552000  3
   1644   1641   1647   1648     1  180.0000771  2.0083200  2
   1644   1641   1647   1648     1  0.0000000  1.2552000  3
   1644   1641   1647   1651     1  180.0000771  2.0083200  2
   1644   1641   1647   1651     1  0.0000000  1.2552000  3
   1647   1641   1644   1664     1  0.0000000  0.6508444  3
   1647   1648   1657   1661     1  0.0000000  0.6508444  3
   1647   1651   1654   1660     1  0.0000000  0.6508444  3
   1648   1647   1651   1654     1  180.0000771  2.0083200  2
   1648   1647   1651   1654     1  0.0000000  1.2552000  3
   1648   1657   1661   1663     1  180.0000771  0.0000000  2
   1648   1657   1661   3249     1  0.0000000  0.2928800  2
   1648   1657   1661   3249     1  0.0000000  0.4184000  4
   1651   1647   1648   1657     1  180.0000771  2.0083200  2
   1651   1647   1648   1657     1  0.0000000  1.2552000  3
   1651   1654   1660   3238     1  0.0000000  0.2928800  2
   1651   1654   1660   3238     1  0.0000000  0.4184000  4
   1651   1654   1660   1662     1  180.0000771  0.0000000  2
   1654   1660   3238   3229     1  180.0000771  6.2760000  1
   1654   1660   3238   3229     1  0.0000000  0.0000000  2
   1657   1661   3249   3240     1  180.0000771  6.2760000  1
   1657   1661   3249   3240     1  0.0000000  0.0000000  2
   1660   3238   3229   3232     1  0.0000000  2.2175200  1
   1660   3238   3229   3232     1  0.0000000  0.0000000  2
   1660   3238   3229   3232     1  180.0000771  0.6276000  3
   1660   3238   3229   3232     1  180.0000771  2.0920000  4
   1661   3249   3240   3243     1  0.0000000  2.2175200  1
   1661   3249   3240   3243     1  0.0000000  0.0000000  2
   1661   3249   3240   3243     1  180.0000771  0.6276000  3
   1661   3249   3240   3243     1  180.0000771  2.0920000  4
   1662   1660   3238   3229     1  180.0000771  10.4600000  2
   1663   1661   3249   3240     1  180.0000771  10.4600000  2
   1666   1672   1673   1682     1  180.0000771  2.0083200  2
   1666   1672   1673   1682     1  0.0000000  1.2552000  3
   1666   1672   1676   1679     1  180.0000771  2.0083200  2
   1666   1672   1676   1679     1  0.0000000  1.2552000  3
   1669   1666   1672   1673     1  180.0000771  2.0083200  2
   1669   1666   1672   1673     1  0.0000000  1.2552000  3
   1669   1666   1672   1676     1  180.0000771  2.0083200  2
   1669   1666   1672   1676     1  0.0000000  1.2552000  3
   1672   1666   1669   1689     1  0.0000000  0.6508444  3
   1672   1673   1682   1686     1  0.0000000  0.6508444  3
   1672   1676   1679   1685     1  0.0000000  0.6508444  3
   1673   1672   1676   1679     1  180.0000771  2.0083200  2
   1673   1672   1676   1679     1  0.0000000  1.2552000  3
   1673   1682   1686   1688     1  180.0000771  0.0000000  2
   1673   1682   1686   3271     1  0.0000000  0.2928800  2
   1673   1682   1686   3271     1  0.0000000  0.4184000  4
   1676   1672   1673   1682     1  180.0000771  2.0083200  2
   1676   1672   1673   1682     1  0.0000000  1.2552000  3
   1676   1679   1685   3260     1  0.0000000  0.2928800  2
   1676   1679   1685   3260     1  0.0000000  0.4184000  4
   1676   1679   1685   1687     1  180.0000771  0.0000000  2
   1679   1685   3260   3251     1  180.0000771  6.2760000  1
   1679   1685   3260   3251     1  0.0000000  0.0000000  2
   1682   1686   3271   3262     1  180.0000771  6.2760000  1
   1682   1686   3271   3262     1  0.0000000  0.0000000  2
   1685   3260   3251   3254     1  0.0000000  2.2175200  1
   1685   3260   3251   3254     1  0.0000000  0.0000000  2
   1685   3260   3251   3254     1  180.0000771  0.6276000  3
   1685   3260   3251   3254     1  180.0000771  2.0920000  4
   1686   3271   3262   3265     1  0.0000000  2.2175200  1
   1686   3271   3262   3265     1  0.0000000  0.0000000  2
   1686   3271   3262   3265     1  180.0000771  0.6276000  3
   1686   3271   3262   3265     1  180.0000771  2.0920000  4
   1687   1685   3260   3251     1  180.0000771  10.4600000  2
   1688   1686   3271   3262     1  180.0000771  10.4600000  2
   1691   1697   1698   1707     1  180.0000771  2.0083200  2
   1691   1697   1698   1707     1  0.0000000  1.2552000  3
   1691   1697   1701   1704     1  180.0000771  2.0083200  2
   1691   1697   1701   1704     1  0.0000000  1.2552000  3
   1694   1691   1697   1698     1  180.0000771  2.0083200  2
   1694   1691   1697   1698     1  0.0000000  1.2552000  3
   1694   1691   1697   1701     1  180.0000771  2.0083200  2
   1694   1691   1697   1701     1  0.0000000  1.2552000  3
   1697   1691   1694   1714     1  0.0000000  0.6508444  3
   1697   1698   1707   1711     1  0.0000000  0.6508444  3
   1697   1701   1704   1710     1  0.0000000  0.6508444  3
   1698   1697   1701   1704     1  180.0000771  2.0083200  2
   1698   1697   1701   1704     1  0.0000000  1.2552000  3
   1698   1707   1711   1713     1  180.0000771  0.0000000  2
   1698   1707   1711   3293     1  0.0000000  0.2928800  2
   1698   1707   1711   3293     1  0.0000000  0.4184000  4
   1701   1697   1698   1707     1  180.0000771  2.0083200  2
   1701   1697   1698   1707     1  0.0000000  1.2552000  3
   1701   1704   1710   3282     1  0.0000000  0.2928800  2
   1701   1704   1710   3282     1  0.0000000  0.4184000  4
   1701   1704   1710   1712     1  180.0000771  0.0000000  2
   1704   1710   3282   3273     1  180.0000771  6.2760000  1
   1704   1710   3282   3273     1  0.0000000  0.0000000  2
   1707   1711   3293   3284     1  180.0000771  6.2760000  1
   1707   1711   3293   3284     1  0.0000000  0.0000000  2
   1710   3282   3273   3276     1  0.0000000  2.2175200  1
   1710   3282   3273   3276     1  0.0000000  0.0000000  2
   1710   3282   3273   3276     1  180.0000771  0.6276000  3
   1710   3282   3273   3276     1  180.0000771  2.0920000  4
   1711   3293   3284   3287     1  0.0000000  2.2175200  1
   1711   3293   3284   3287     1  0.0000000  0.0000000  2
   1711   3293   3284   3287     1  180.0000771  0.6276000  3
   1711   3293   3284   3287     1  180.0000771  2.0920000  4
   1712   1710   3282   3273     1  180.0000771  10.4600000  2
   1713   1711   3293   3284     1  180.0000771  10.4600000  2
   1716   1722   1723   1732     1  180.0000771  2.0083200  2
   1716   1722   1723   1732     1  0.0000000  1.2552000  3
   1716   1722   1726   1729     1  180.0000771  2.0083200  2
   1716   1722   1726   1729     1  0.0000000  1.2552000  3
   1719   1716   1722   1723     1  180.0000771  2.0083200  2
   1719   1716   1722   1723     1  0.0000000  1.2552000  3
   1719   1716   1722   1726     1  180.0000771  2.0083200  2
   1719   1716   1722   1726     1  0.0000000  1.2552000  3
   1722   1716   1719   1739     1  0.0000000  0.6508444  3
   1722   1723   1732   1736     1  0.0000000  0.6508444  3
   1722   1726   1729   1735     1  0.0000000  0.6508444  3
   1723   1722   1726   1729     1  180.0000771  2.0083200  2
   1723   1722   1726   1729     1  0.0000000  1.2552000  3
   1723   1732   1736   1738     1  180.0000771  0.0000000  2
   1723   1732   1736   3315     1  0.0000000  0.2928800  2
   1723   1732   1736   3315     1  0.0000000  0.4184000  4
   1726   1722   1723   1732     1  180.0000771  2.0083200  2
   1726   1722   1723   1732     1  0.0000000  1.2552000  3
   1726   1729   1735   3304     1  0.0000000  0.2928800  2
   1726   1729   1735   3304     1  0.0000000  0.4184000  4
   1726   1729   1735   1737     1  180.0000771  0.0000000  2
   1729   1735   3304   3295     1  180.0000771  6.2760000  1
   1729   1735   3304   3295     1  0.0000000  0.0000000  2
   1732   1736   3315   3306     1  180.0000771  6.2760000  1
   1732   1736   3315   3306     1  0.0000000  0.0000000  2
   1735   3304   3295   3298     1  0.0000000  2.2175200  1
   1735   3304   3295   3298     1  0.0000000  0.0000000  2
   1735   3304   3295   3298     1  180.0000771  0.6276000  3
   1735   3304   3295   3298     1  180.0000771  2.0920000  4
   1736   3315   3306   3309     1  0.0000000  2.2175200  1
   1736   3315   3306   3309     1  0.0000000  0.0000000  2
   1736   3315   3306   3309     1  180.0000771  0.6276000  3
   1736   3315   3306   3309     1  180.0000771  2.0920000  4
   1737   1735   3304   3295     1  180.0000771  10.4600000  2
   1738   1736   3315   3306     1  180.0000771  10.4600000  2
   1741   1747   1748   1757     1  180.0000771  2.0083200  2
   1741   1747   1748   1757     1  0.0000000  1.2552000  3
   1741   1747   1751   1754     1  180.0000771  2.0083200  2
   1741   1747   1751   1754     1  0.0000000  1.2552000  3
   1744   1741   1747   1748     1  180.0000771  2.0083200  2
   1744   1741   1747   1748     1  0.0000000  1.2552000  3
   1744   1741   1747   1751     1  180.0000771  2.0083200  2
   1744   1741   1747   1751     1  0.0000000  1.2552000  3
   1747   1741   1744   1764     1  0.0000000  0.6508444  3
   1747   1748   1757   1761     1  0.0000000  0.6508444  3
   1747   1751   1754   1760     1  0.0000000  0.6508444  3
   1748   1747   1751   1754     1  180.0000771  2.0083200  2
   1748   1747   1751   1754     1  0.0000000  1.2552000  3
   1748   1757   1761   1763     1  180.0000771  0.0000000  2
   1748   1757   1761   3337     1  0.0000000  0.2928800  2
   1748   1757   1761   3337     1  0.0000000  0.4184000  4
   1751   1747   1748   1757     1  180.0000771  2.0083200  2
   1751   1747   1748   1757     1  0.0000000  1.2552000  3
   1751   1754   1760   3326     1  0.0000000  0.2928800  2
   1751   1754   1760   3326     1  0.0000000  0.4184000  4
   1751   1754   1760   1762     1  180.0000771  0.0000000  2
   1754   1760   3326   3317     1  180.0000771  6.2760000  1
   1754   1760   3326   3317     1  0.0000000  0.0000000  2
   1757   1761   3337   3328     1  180.0000771  6.2760000  1
   1757   1761   3337   3328     1  0.0000000  0.0000000  2
   1760   3326   3317   3320     1  0.0000000  2.2175200  1
   1760   3326   3317   3320     1  0.0000000  0.0000000  2
   1760   3326   3317   3320     1  180.0000771  0.6276000  3
   1760   3326   3317   3320     1  180.0000771  2.0920000  4
   1761   3337   3328   3331     1  0.0000000  2.2175200  1
   1761   3337   3328   3331     1  0.0000000  0.0000000  2
   1761   3337   3328   3331     1  180.0000771  0.6276000  3
   1761   3337   3328   3331     1  180.0000771  2.0920000  4
   1762   1760   3326   3317     1  180.0000771  10.4600000  2
   1763   1761   3337   3328     1  180.0000771  10.4600000  2
   1766   1772   1773   1782     1  180.0000771  2.0083200  2
   1766   1772   1773   1782     1  0.0000000  1.2552000  3
   1766   1772   1776   1779     1  180.0000771  2.0083200  2
   1766   1772   1776   1779     1  0.0000000  1.2552000  3
   1769   1766   1772   1773     1  180.0000771  2.0083200  2
   1769   1766   1772   1773     1  0.0000000  1.2552000  3
   1769   1766   1772   1776     1  180.0000771  2.0083200  2
   1769   1766   1772   1776     1  0.0000000  1.2552000  3
   1772   1766   1769   1789     1  0.0000000  0.6508444  3
   1772   1773   1782   1786     1  0.0000000  0.6508444  3
   1772   1776   1779   1785     1  0.0000000  0.6508444  3
   1773   1772   1776   1779     1  180.0000771  2.0083200  2
   1773   1772   1776   1779     1  0.0000000  1.2552000  3
   1773   1782   1786   1788     1  180.0000771  0.0000000  2
   1773   1782   1786   3359     1  0.0000000  0.2928800  2
   1773   1782   1786   3359     1  0.0000000  0.4184000  4
   1776   1772   1773   1782     1  180.0000771  2.0083200  2
   1776   1772   1773   1782     1  0.0000000  1.2552000  3
   1776   1779   1785   3348     1  0.0000000  0.2928800  2
   1776   1779   1785   3348     1  0.0000000  0.4184000  4
   1776   1779   1785   1787     1  180.0000771  0.0000000  2
   1779   1785   3348   3339     1  180.0000771  6.2760000  1
   1779   1785   3348   3339     1  0.0000000  0.0000000  2
   1782   1786   3359   3350     1  180.0000771  6.2760000  1
   1782   1786   3359   3350     1  0.0000000  0.0000000  2
   1785   3348   3339   3342     1  0.0000000  2.2175200  1
   1785   3348   3339   3342     1  0.0000000  0.0000000  2
   1785   3348   3339   3342     1  180.0000771  0.6276000  3
   1785   3348   3339   3342     1  180.0000771  2.0920000  4
   1786   3359   3350   3353     1  0.0000000  2.2175200  1
   1786   3359   3350   3353     1  0.0000000  0.0000000  2
   1786   3359   3350   3353     1  180.0000771  0.6276000  3
   1786   3359   3350   3353     1  180.0000771  2.0920000  4
   1787   1785   3348   3339     1  180.0000771  10.4600000  2
   1788   1786   3359   3350     1  180.0000771  10.4600000  2
   1791   1797   1798   1807     1  180.0000771  2.0083200  2
   1791   1797   1798   1807     1  0.0000000  1.2552000  3
   1791   1797   1801   1804     1  180.0000771  2.0083200  2
   1791   1797   1801   1804     1  0.0000000  1.2552000  3
   1794   1791   1797   1798     1  180.0000771  2.0083200  2
   1794   1791   1797   1798     1  0.0000000  1.2552000  3
   1794   1791   1797   1801     1  180.0000771  2.0083200  2
   1794   1791   1797   1801     1  0.0000000  1.2552000  3
   1797   1791   1794   1814     1  0.0000000  0.6508444  3
   1797   1798   1807   1811     1  0.0000000  0.6508444  3
   1797   1801   1804   1810     1  0.0000000  0.6508444  3
   1798   1797   1801   1804     1  180.0000771  2.0083200  2
   1798   1797   1801   1804     1  0.0000000  1.2552000  3
   1798   1807   1811   1813     1  180.0000771  0.0000000  2
   1798   1807   1811   3381     1  0.0000000  0.2928800  2
   1798   1807   1811   3381     1  0.0000000  0.4184000  4
   1801   1797   1798   1807     1  180.0000771  2.0083200  2
   1801   1797   1798   1807     1  0.0000000  1.2552000  3
   1801   1804   1810   3370     1  0.0000000  0.2928800  2
   1801   1804   1810   3370     1  0.0000000  0.4184000  4
   1801   1804   1810   1812     1  180.0000771  0.0000000  2
   1804   1810   3370   3361     1  180.0000771  6.2760000  1
   1804   1810   3370   3361     1  0.0000000  0.0000000  2
   1807   1811   3381   3372     1  180.0000771  6.2760000  1
   1807   1811   3381   3372     1  0.0000000  0.0000000  2
   1810   3370   3361   3364     1  0.0000000  2.2175200  1
   1810   3370   3361   3364     1  0.0000000  0.0000000  2
   1810   3370   3361   3364     1  180.0000771  0.6276000  3
   1810   3370   3361   3364     1  180.0000771  2.0920000  4
   1811   3381   3372   3375     1  0.0000000  2.2175200  1
   1811   3381   3372   3375     1  0.0000000  0.0000000  2
   1811   3381   3372   3375     1  180.0000771  0.6276000  3
   1811   3381   3372   3375     1  180.0000771  2.0920000  4
   1812   1810   3370   3361     1  180.0000771  10.4600000  2
   1813   1811   3381   3372     1  180.0000771  10.4600000  2
   1816   1822   1823   1832     1  180.0000771  2.0083200  2
   1816   1822   1823   1832     1  0.0000000  1.2552000  3
   1816   1822   1826   1829     1  180.0000771  2.0083200  2
   1816   1822   1826   1829     1  0.0000000  1.2552000  3
   1819   1816   1822   1823     1  180.0000771  2.0083200  2
   1819   1816   1822   1823     1  0.0000000  1.2552000  3
   1819   1816   1822   1826     1  180.0000771  2.0083200  2
   1819   1816   1822   1826     1  0.0000000  1.2552000  3
   1822   1816   1819   1839     1  0.0000000  0.6508444  3
   1822   1823   1832   1836     1  0.0000000  0.6508444  3
   1822   1826   1829   1835     1  0.0000000  0.6508444  3
   1823   1822   1826   1829     1  180.0000771  2.0083200  2
   1823   1822   1826   1829     1  0.0000000  1.2552000  3
   1823   1832   1836   1838     1  180.0000771  0.0000000  2
   1823   1832   1836   3403     1  0.0000000  0.2928800  2
   1823   1832   1836   3403     1  0.0000000  0.4184000  4
   1826   1822   1823   1832     1  180.0000771  2.0083200  2
   1826   1822   1823   1832     1  0.0000000  1.2552000  3
   1826   1829   1835   3392     1  0.0000000  0.2928800  2
   1826   1829   1835   3392     1  0.0000000  0.4184000  4
   1826   1829   1835   1837     1  180.0000771  0.0000000  2
   1829   1835   3392   3383     1  180.0000771  6.2760000  1
   1829   1835   3392   3383     1  0.0000000  0.0000000  2
   1832   1836   3403   3394     1  180.0000771  6.2760000  1
   1832   1836   3403   3394     1  0.0000000  0.0000000  2
   1835   3392   3383   3386     1  0.0000000  2.2175200  1
   1835   3392   3383   3386     1  0.0000000  0.0000000  2
   1835   3392   3383   3386     1  180.0000771  0.6276000  3
   1835   3392   3383   3386     1  180.0000771  2.0920000  4
   1836   3403   3394   3397     1  0.0000000  2.2175200  1
   1836   3403   3394   3397     1  0.0000000  0.0000000  2
   1836   3403   3394   3397     1  180.0000771  0.6276000  3
   1836   3403   3394   3397     1  180.0000771  2.0920000  4
   1837   1835   3392   3383     1  180.0000771  10.4600000  2
   1838   1836   3403   3394     1  180.0000771  10.4600000  2
   1841   1847   1848   1857     1  180.0000771  2.0083200  2
   1841   1847   1848   1857     1  0.0000000  1.2552000  3
   1841   1847   1851   1854     1  180.0000771  2.0083200  2
   1841   1847   1851   1854     1  0.0000000  1.2552000  3
   1844   1841   1847   1848     1  180.0000771  2.0083200  2
   1844   1841   1847   1848     1  0.0000000  1.2552000  3
   1844   1841   1847   1851     1  180.0000771  2.0083200  2
   1844   1841   1847   1851     1  0.0000000  1.2552000  3
   1847   1841   1844   1864     1  0.0000000  0.6508444  3
   1847   1848   1857   1861     1  0.0000000  0.6508444  3
   1847   1851   1854   1860     1  0.0000000  0.6508444  3
   1848   1847   1851   1854     1  180.0000771  2.0083200  2
   1848   1847   1851   1854     1  0.0000000  1.2552000  3
   1848   1857   1861   1863     1  180.0000771  0.0000000  2
   1848   1857   1861   3425     1  0.0000000  0.2928800  2
   1848   1857   1861   3425     1  0.0000000  0.4184000  4
   1851   1847   1848   1857     1  180.0000771  2.0083200  2
   1851   1847   1848   1857     1  0.0000000  1.2552000  3
   1851   1854   1860   3414     1  0.0000000  0.2928800  2
   1851   1854   1860   3414     1  0.0000000  0.4184000  4
   1851   1854   1860   1862     1  180.0000771  0.0000000  2
   1854   1860   3414   3405     1  180.0000771  6.2760000  1
   1854   1860   3414   3405     1  0.0000000  0.0000000  2
   1857   1861   3425   3416     1  180.0000771  6.2760000  1
   1857   1861   3425   3416     1  0.0000000  0.0000000  2
   1860   3414   3405   3408     1  0.0000000  2.2175200  1
   1860   3414   3405   3408     1  0.0000000  0.0000000  2
   1860   3414   3405   3408     1  180.0000771  0.6276000  3
   1860   3414   3405   3408     1  180.0000771  2.0920000  4
   1861   3425   3416   3419     1  0.0000000  2.2175200  1
   1861   3425   3416   3419     1  0.0000000  0.0000000  2
   1861   3425   3416   3419     1  180.0000771  0.6276000  3
   1861   3425   3416   3419     1  180.0000771  2.0920000  4
   1862   1860   3414   3405     1  180.0000771  10.4600000  2
   1863   1861   3425   3416     1  180.0000771  10.4600000  2
   1866   1872   1873   1882     1  180.0000771  2.0083200  2
   1866   1872   1873   1882     1  0.0000000  1.2552000  3
   1866   1872   1876   1879     1  180.0000771  2.0083200  2
   1866   1872   1876   1879     1  0.0000000  1.2552000  3
   1869   1866   1872   1873     1  180.0000771  2.0083200  2
   1869   1866   1872   1873     1  0.0000000  1.2552000  3
   1869   1866   1872   1876     1  180.0000771  2.0083200  2
   1869   1866   1872   1876     1  0.0000000  1.2552000  3
   1872   1866   1869   1889     1  0.0000000  0.6508444  3
   1872   1873   1882   1886     1  0.0000000  0.6508444  3
   1872   1876   1879   1885     1  0.0000000  0.6508444  3
   1873   1872   1876   1879     1  180.0000771  2.0083200  2
   1873   1872   1876   1879     1  0.0000000  1.2552000  3
   1873   1882   1886   1888     1  180.0000771  0.0000000  2
   1873   1882   1886   3447     1  0.0000000  0.2928800  2
   1873   1882   1886   3447     1  0.0000000  0.4184000  4
   1876   1872   1873   1882     1  180.0000771  2.0083200  2
   1876   1872   1873   1882     1  0.0000000  1.2552000  3
   1876   1879   1885   3436     1  0.0000000  0.2928800  2
   1876   1879   1885   3436     1  0.0000000  0.4184000  4
   1876   1879   1885   1887     1  180.0000771  0.0000000  2
   1879   1885   3436   3427     1  180.0000771  6.2760000  1
   1879   1885   3436   3427     1  0.0000000  0.0000000  2
   1882   1886   3447   3438     1  180.0000771  6.2760000  1
   1882   1886   3447   3438     1  0.0000000  0.0000000  2
   1885   3436   3427   3430     1  0.0000000  2.2175200  1
   1885   3436   3427   3430     1  0.0000000  0.0000000  2
   1885   3436   3427   3430     1  180.0000771  0.6276000  3
   1885   3436   3427   3430     1  180.0000771  2.0920000  4
   1886   3447   3438   3441     1  0.0000000  2.2175200  1
   1886   3447   3438   3441     1  0.0000000  0.0000000  2
   1886   3447   3438   3441     1  180.0000771  0.6276000  3
   1886   3447   3438   3441     1  180.0000771  2.0920000  4
   1887   1885   3436   3427     1  180.0000771  10.4600000  2
   1888   1886   3447   3438     1  180.0000771  10.4600000  2
   1891   1897   1898   1907     1  180.0000771  2.0083200  2
   1891   1897   1898   1907     1  0.0000000  1.2552000  3
   1891   1897   1901   1904     1  180.0000771  2.0083200  2
   1891   1897   1901   1904     1  0.0000000  1.2552000  3
   1894   1891   1897   1898     1  180.0000771  2.0083200  2
   1894   1891   1897   1898     1  0.0000000  1.2552000  3
   1894   1891   1897   1901     1  180.0000771  2.0083200  2
   1894   1891   1897   1901     1  0.0000000  1.2552000  3
   1897   1891   1894   1914     1  0.0000000  0.6508444  3
   1897   1898   1907   1911     1  0.0000000  0.6508444  3
   1897   1901   1904   1910     1  0.0000000  0.6508444  3
   1898   1897   1901   1904     1  180.0000771  2.0083200  2
   1898   1897   1901   1904     1  0.0000000  1.2552000  3
   1898   1907   1911   1913     1  180.0000771  0.0000000  2
   1898   1907   1911   3469     1  0.0000000  0.2928800  2
   1898   1907   1911   3469     1  0.0000000  0.4184000  4
   1901   1897   1898   1907     1  180.0000771  2.0083200  2
   1901   1897   1898   1907     1  0.0000000  1.2552000  3
   1901   1904   1910   3458     1  0.0000000  0.2928800  2
   1901   1904   1910   3458     1  0.0000000  0.4184000  4
   1901   1904   1910   1912     1  180.0000771  0.0000000  2
   1904   1910   3458   3449     1  180.0000771  6.2760000  1
   1904   1910   3458   3449     1  0.0000000  0.0000000  2
   1907   1911   3469   3460     1  180.0000771  6.2760000  1
   1907   1911   3469   3460     1  0.0000000  0.0000000  2
   1910   3458   3449   3452     1  0.0000000  2.2175200  1
   1910   3458   3449   3452     1  0.0000000  0.0000000  2
   1910   3458   3449   3452     1  180.0000771  0.6276000  3
   1910   3458   3449   3452     1  180.0000771  2.0920000  4
   1911   3469   3460   3463     1  0.0000000  2.2175200  1
   1911   3469   3460   3463     1  0.0000000  0.0000000  2
   1911   3469   3460   3463     1  180.0000771  0.6276000  3
   1911   3469   3460   3463     1  180.0000771  2.0920000  4
   1912   1910   3458   3449     1  180.0000771  10.4600000  2
   1913   1911   3469   3460     1  180.0000771  10.4600000  2
   1916   1922   1923   1932     1  180.0000771  2.0083200  2
   1916   1922   1923   1932     1  0.0000000  1.2552000  3
   1916   1922   1926   1929     1  180.0000771  2.0083200  2
   1916   1922   1926   1929     1  0.0000000  1.2552000  3
   1919   1916   1922   1923     1  180.0000771  2.0083200  2
   1919   1916   1922   1923     1  0.0000000  1.2552000  3
   1919   1916   1922   1926     1  180.0000771  2.0083200  2
   1919   1916   1922   1926     1  0.0000000  1.2552000  3
   1922   1916   1919   1939     1  0.0000000  0.6508444  3
   1922   1923   1932   1936     1  0.0000000  0.6508444  3
   1922   1926   1929   1935     1  0.0000000  0.6508444  3
   1923   1922   1926   1929     1  180.0000771  2.0083200  2
   1923   1922   1926   1929     1  0.0000000  1.2552000  3
   1923   1932   1936   1938     1  180.0000771  0.0000000  2
   1923   1932   1936   3491     1  0.0000000  0.2928800  2
   1923   1932   1936   3491     1  0.0000000  0.4184000  4
   1926   1922   1923   1932     1  180.0000771  2.0083200  2
   1926   1922   1923   1932     1  0.0000000  1.2552000  3
   1926   1929   1935   3480     1  0.0000000  0.2928800  2
   1926   1929   1935   3480     1  0.0000000  0.4184000  4
   1926   1929   1935   1937     1  180.0000771  0.0000000  2
   1929   1935   3480   3471     1  180.0000771  6.2760000  1
   1929   1935   3480   3471     1  0.0000000  0.0000000  2
   1932   1936   3491   3482     1  180.0000771  6.2760000  1
   1932   1936   3491   3482     1  0.0000000  0.0000000  2
   1935   3480   3471   3474     1  0.0000000  2.2175200  1
   1935   3480   3471   3474     1  0.0000000  0.0000000  2
   1935   3480   3471   3474     1  180.0000771  0.6276000  3
   1935   3480   3471   3474     1  180.0000771  2.0920000  4
   1936   3491   3482   3485     1  0.0000000  2.2175200  1
   1936   3491   3482   3485     1  0.0000000  0.0000000  2
   1936   3491   3482   3485     1  180.0000771  0.6276000  3
   1936   3491   3482   3485     1  180.0000771  2.0920000  4
   1937   1935   3480   3471     1  180.0000771  10.4600000  2
   1938   1936   3491   3482     1  180.0000771  10.4600000  2
   1941   1947   1948   1957     1  180.0000771  2.0083200  2
   1941   1947   1948   1957     1  0.0000000  1.2552000  3
   1941   1947   1951   1954     1  180.0000771  2.0083200  2
   1941   1947   1951   1954     1  0.0000000  1.2552000  3
   1944   1941   1947   1948     1  180.0000771  2.0083200  2
   1944   1941   1947   1948     1  0.0000000  1.2552000  3
   1944   1941   1947   1951     1  180.0000771  2.0083200  2
   1944   1941   1947   1951     1  0.0000000  1.2552000  3
   1947   1941   1944   1964     1  0.0000000  0.6508444  3
   1947   1948   1957   1961     1  0.0000000  0.6508444  3
   1947   1951   1954   1960     1  0.0000000  0.6508444  3
   1948   1947   1951   1954     1  180.0000771  2.0083200  2
   1948   1947   1951   1954     1  0.0000000  1.2552000  3
   1948   1957   1961   1963     1  180.0000771  0.0000000  2
   1948   1957   1961   3513     1  0.0000000  0.2928800  2
   1948   1957   1961   3513     1  0.0000000  0.4184000  4
   1951   1947   1948   1957     1  180.0000771  2.0083200  2
   1951   1947   1948   1957     1  0.0000000  1.2552000  3
   1951   1954   1960   3502     1  0.0000000  0.2928800  2
   1951   1954   1960   3502     1  0.0000000  0.4184000  4
   1951   1954   1960   1962     1  180.0000771  0.0000000  2
   1954   1960   3502   3493     1  180.0000771  6.2760000  1
   1954   1960   3502   3493     1  0.0000000  0.0000000  2
   1957   1961   3513   3504     1  180.0000771  6.2760000  1
   1957   1961   3513   3504     1  0.0000000  0.0000000  2
   1960   3502   3493   3496     1  0.0000000  2.2175200  1
   1960   3502   3493   3496     1  0.0000000  0.0000000  2
   1960   3502   3493   3496     1  180.0000771  0.6276000  3
   1960   3502   3493   3496     1  180.0000771  2.0920000  4
   1961   3513   3504   3507     1  0.0000000  2.2175200  1
   1961   3513   3504   3507     1  0.0000000  0.0000000  2
   1961   3513   3504   3507     1  180.0000771  0.6276000  3
   1961   3513   3504   3507     1  180.0000771  2.0920000  4
   1962   1960   3502   3493     1  180.0000771  10.4600000  2
   1963   1961   3513   3504     1  180.0000771  10.4600000  2
   1966   1972   1973   1982     1  180.0000771  2.0083200  2
   1966   1972   1973   1982     1  0.0000000  1.2552000  3
   1966   1972   1976   1979     1  180.0000771  2.0083200  2
   1966   1972   1976   1979     1  0.0000000  1.2552000  3
   1969   1966   1972   1973     1  180.0000771  2.0083200  2
   1969   1966   1972   1973     1  0.0000000  1.2552000  3
   1969   1966   1972   1976     1  180.0000771  2.0083200  2
   1969   1966   1972   1976     1  0.0000000  1.2552000  3
   1972   1966   1969   1989     1  0.0000000  0.6508444  3
   1972   1973   1982   1986     1  0.0000000  0.6508444  3
   1972   1976   1979   1985     1  0.0000000  0.6508444  3
   1973   1972   1976   1979     1  180.0000771  2.0083200  2
   1973   1972   1976   1979     1  0.0000000  1.2552000  3
   1973   1982   1986   1988     1  180.0000771  0.0000000  2
   1973   1982   1986   3535     1  0.0000000  0.2928800  2
   1973   1982   1986   3535     1  0.0000000  0.4184000  4
   1976   1972   1973   1982     1  180.0000771  2.0083200  2
   1976   1972   1973   1982     1  0.0000000  1.2552000  3
   1976   1979   1985   3524     1  0.0000000  0.2928800  2
   1976   1979   1985   3524     1  0.0000000  0.4184000  4
   1976   1979   1985   1987     1  180.0000771  0.0000000  2
   1979   1985   3524   3515     1  180.0000771  6.2760000  1
   1979   1985   3524   3515     1  0.0000000  0.0000000  2
   1982   1986   3535   3526     1  180.0000771  6.2760000  1
   1982   1986   3535   3526     1  0.0000000  0.0000000  2
   1985   3524   3515   3518     1  0.0000000  2.2175200  1
   1985   3524   3515   3518     1  0.0000000  0.0000000  2
   1985   3524   3515   3518     1  180.0000771  0.6276000  3
   1985   3524   3515   3518     1  180.0000771  2.0920000  4
   1986   3535   3526   3529     1  0.0000000  2.2175200  1
   1986   3535   3526   3529     1  0.0000000  0.0000000  2
   1986   3535   3526   3529     1  180.0000771  0.6276000  3
   1986   3535   3526   3529     1  180.0000771  2.0920000  4
   1987   1985   3524   3515     1  180.0000771  10.4600000  2
   1988   1986   3535   3526     1  180.0000771  10.4600000  2
   1991   1997   1998   2007     1  180.0000771  2.0083200  2
   1991   1997   1998   2007     1  0.0000000  1.2552000  3
   1991   1997   2001   2004     1  180.0000771  2.0083200  2
   1991   1997   2001   2004     1  0.0000000  1.2552000  3
   1994   1991   1997   1998     1  180.0000771  2.0083200  2
   1994   1991   1997   1998     1  0.0000000  1.2552000  3
   1994   1991   1997   2001     1  180.0000771  2.0083200  2
   1994   1991   1997   2001     1  0.0000000  1.2552000  3
   1997   1991   1994   2014     1  0.0000000  0.6508444  3
   1997   1998   2007   2011     1  0.0000000  0.6508444  3
   1997   2001   2004   2010     1  0.0000000  0.6508444  3
   1998   1997   2001   2004     1  180.0000771  2.0083200  2
   1998   1997   2001   2004     1  0.0000000  1.2552000  3
   1998   2007   2011   2013     1  180.0000771  0.0000000  2
   1998   2007   2011   3557     1  0.0000000  0.2928800  2
   1998   2007   2011   3557     1  0.0000000  0.4184000  4
   2001   1997   1998   2007     1  180.0000771  2.0083200  2
   2001   1997   1998   2007     1  0.0000000  1.2552000  3
   2001   2004   2010   3546     1  0.0000000  0.2928800  2
   2001   2004   2010   3546     1  0.0000000  0.4184000  4
   2001   2004   2010   2012     1  180.0000771  0.0000000  2
   2004   2010   3546   3537     1  180.0000771  6.2760000  1
   2004   2010   3546   3537     1  0.0000000  0.0000000  2
   2007   2011   3557   3548     1  180.0000771  6.2760000  1
   2007   2011   3557   3548     1  0.0000000  0.0000000  2
   2010   3546   3537   3540     1  0.0000000  2.2175200  1
   2010   3546   3537   3540     1  0.0000000  0.0000000  2
   2010   3546   3537   3540     1  180.0000771  0.6276000  3
   2010   3546   3537   3540     1  180.0000771  2.0920000  4
   2011   3557   3548   3551     1  0.0000000  2.2175200  1
   2011   3557   3548   3551     1  0.0000000  0.0000000  2
   2011   3557   3548   3551     1  180.0000771  0.6276000  3
   2011   3557   3548   3551     1  180.0000771  2.0920000  4
   2012   2010   3546   3537     1  180.0000771  10.4600000  2
   2013   2011   3557   3548     1  180.0000771  10.4600000  2
   2016   2022   2023   2032     1  180.0000771  2.0083200  2
   2016   2022   2023   2032     1  0.0000000  1.2552000  3
   2016   2022   2026   2029     1  180.0000771  2.0083200  2
   2016   2022   2026   2029     1  0.0000000  1.2552000  3
   2019   2016   2022   2023     1  180.0000771  2.0083200  2
   2019   2016   2022   2023     1  0.0000000  1.2552000  3
   2019   2016   2022   2026     1  180.0000771  2.0083200  2
   2019   2016   2022   2026     1  0.0000000  1.2552000  3
   2022   2016   2019   2039     1  0.0000000  0.6508444  3
   2022   2023   2032   2036     1  0.0000000  0.6508444  3
   2022   2026   2029   2035     1  0.0000000  0.6508444  3
   2023   2022   2026   2029     1  180.0000771  2.0083200  2
   2023   2022   2026   2029     1  0.0000000  1.2552000  3
   2023   2032   2036   2038     1  180.0000771  0.0000000  2
   2023   2032   2036   3579     1  0.0000000  0.2928800  2
   2023   2032   2036   3579     1  0.0000000  0.4184000  4
   2026   2022   2023   2032     1  180.0000771  2.0083200  2
   2026   2022   2023   2032     1  0.0000000  1.2552000  3
   2026   2029   2035   3568     1  0.0000000  0.2928800  2
   2026   2029   2035   3568     1  0.0000000  0.4184000  4
   2026   2029   2035   2037     1  180.0000771  0.0000000  2
   2029   2035   3568   3559     1  180.0000771  6.2760000  1
   2029   2035   3568   3559     1  0.0000000  0.0000000  2
   2032   2036   3579   3570     1  180.0000771  6.2760000  1
   2032   2036   3579   3570     1  0.0000000  0.0000000  2
   2035   3568   3559   3562     1  0.0000000  2.2175200  1
   2035   3568   3559   3562     1  0.0000000  0.0000000  2
   2035   3568   3559   3562     1  180.0000771  0.6276000  3
   2035   3568   3559   3562     1  180.0000771  2.0920000  4
   2036   3579   3570   3573     1  0.0000000  2.2175200  1
   2036   3579   3570   3573     1  0.0000000  0.0000000  2
   2036   3579   3570   3573     1  180.0000771  0.6276000  3
   2036   3579   3570   3573     1  180.0000771  2.0920000  4
   2037   2035   3568   3559     1  180.0000771  10.4600000  2
   2038   2036   3579   3570     1  180.0000771  10.4600000  2
   2041   2047   2048   2057     1  180.0000771  2.0083200  2
   2041   2047   2048   2057     1  0.0000000  1.2552000  3
   2041   2047   2051   2054     1  180.0000771  2.0083200  2
   2041   2047   2051   2054     1  0.0000000  1.2552000  3
   2044   2041   2047   2048     1  180.0000771  2.0083200  2
   2044   2041   2047   2048     1  0.0000000  1.2552000  3
   2044   2041   2047   2051     1  180.0000771  2.0083200  2
   2044   2041   2047   2051     1  0.0000000  1.2552000  3
   2047   2041   2044   2064     1  0.0000000  0.6508444  3
   2047   2048   2057   2061     1  0.0000000  0.6508444  3
   2047   2051   2054   2060     1  0.0000000  0.6508444  3
   2048   2047   2051   2054     1  180.0000771  2.0083200  2
   2048   2047   2051   2054     1  0.0000000  1.2552000  3
   2048   2057   2061   2063     1  180.0000771  0.0000000  2
   2048   2057   2061   3601     1  0.0000000  0.2928800  2
   2048   2057   2061   3601     1  0.0000000  0.4184000  4
   2051   2047   2048   2057     1  180.0000771  2.0083200  2
   2051   2047   2048   2057     1  0.0000000  1.2552000  3
   2051   2054   2060   3590     1  0.0000000  0.2928800  2
   2051   2054   2060   3590     1  0.0000000  0.4184000  4
   2051   2054   2060   2062     1  180.0000771  0.0000000  2
   2054   2060   3590   3581     1  180.0000771  6.2760000  1
   2054   2060   3590   3581     1  0.0000000  0.0000000  2
   2057   2061   3601   3592     1  180.0000771  6.2760000  1
   2057   2061   3601   3592     1  0.0000000  0.0000000  2
   2060   3590   3581   3584     1  0.0000000  2.2175200  1
   2060   3590   3581   3584     1  0.0000000  0.0000000  2
   2060   3590   3581   3584     1  180.0000771  0.6276000  3
   2060   3590   3581   3584     1  180.0000771  2.0920000  4
   2061   3601   3592   3595     1  0.0000000  2.2175200  1
   2061   3601   3592   3595     1  0.0000000  0.0000000  2
   2061   3601   3592   3595     1  180.0000771  0.6276000  3
   2061   3601   3592   3595     1  180.0000771  2.0920000  4
   2062   2060   3590   3581     1  180.0000771  10.4600000  2
   2063   2061   3601   3592     1  180.0000771  10.4600000  2
   2066   2072   2073   2082     1  180.0000771  2.0083200  2
   2066   2072   2073   2082     1  0.0000000  1.2552000  3
   2066   2072   2076   2079     1  180.0000771  2.0083200  2
   2066   2072   2076   2079     1  0.0000000  1.2552000  3
   2069   2066   2072   2073     1  180.0000771  2.0083200  2
   2069   2066   2072   2073     1  0.0000000  1.2552000  3
   2069   2066   2072   2076     1  180.0000771  2.0083200  2
   2069   2066   2072   2076     1  0.0000000  1.2552000  3
   2072   2066   2069   2089     1  0.0000000  0.6508444  3
   2072   2073   2082   2086     1  0.0000000  0.6508444  3
   2072   2076   2079   2085     1  0.0000000  0.6508444  3
   2073   2072   2076   2079     1  180.0000771  2.0083200  2
   2073   2072   2076   2079     1  0.0000000  1.2552000  3
   2073   2082   2086   2088     1  180.0000771  0.0000000  2
   2073   2082   2086   3623     1  0.0000000  0.2928800  2
   2073   2082   2086   3623     1  0.0000000  0.4184000  4
   2076   2072   2073   2082     1  180.0000771  2.0083200  2
   2076   2072   2073   2082     1  0.0000000  1.2552000  3
   2076   2079   2085   3612     1  0.0000000  0.2928800  2
   2076   2079   2085   3612     1  0.0000000  0.4184000  4
   2076   2079   2085   2087     1  180.0000771  0.0000000  2
   2079   2085   3612   3603     1  180.0000771  6.2760000  1
   2079   2085   3612   3603     1  0.0000000  0.0000000  2
   2082   2086   3623   3614     1  180.0000771  6.2760000  1
   2082   2086   3623   3614     1  0.0000000  0.0000000  2
   2085   3612   3603   3606     1  0.0000000  2.2175200  1
   2085   3612   3603   3606     1  0.0000000  0.0000000  2
   2085   3612   3603   3606     1  180.0000771  0.6276000  3
   2085   3612   3603   3606     1  180.0000771  2.0920000  4
   2086   3623   3614   3617     1  0.0000000  2.2175200  1
   2086   3623   3614   3617     1  0.0000000  0.0000000  2
   2086   3623   3614   3617     1  180.0000771  0.6276000  3
   2086   3623   3614   3617     1  180.0000771  2.0920000  4
   2087   2085   3612   3603     1  180.0000771  10.4600000  2
   2088   2086   3623   3614     1  180.0000771  10.4600000  2
   2091   2097   2098   2107     1  180.0000771  2.0083200  2
   2091   2097   2098   2107     1  0.0000000  1.2552000  3
   2091   2097   2101   2104     1  180.0000771  2.0083200  2
   2091   2097   2101   2104     1  0.0000000  1.2552000  3
   2094   2091   2097   2098     1  180.0000771  2.0083200  2
   2094   2091   2097   2098     1  0.0000000  1.2552000  3
   2094   2091   2097   2101     1  180.0000771  2.0083200  2
   2094   2091   2097   2101     1  0.0000000  1.2552000  3
   2097   2091   2094   2114     1  0.0000000  0.6508444  3
   2097   2098   2107   2111     1  0.0000000  0.6508444  3
   2097   2101   2104   2110     1  0.0000000  0.6508444  3
   2098   2097   2101   2104     1  180.0000771  2.0083200  2
   2098   2097   2101   2104     1  0.0000000  1.2552000  3
   2098   2107   2111   2113     1  180.0000771  0.0000000  2
   2098   2107   2111   3645     1  0.0000000  0.2928800  2
   2098   2107   2111   3645     1  0.0000000  0.4184000  4
   2101   2097   2098   2107     1  180.0000771  2.0083200  2
   2101   2097   2098   2107     1  0.0000000  1.2552000  3
   2101   2104   2110   3634     1  0.0000000  0.2928800  2
   2101   2104   2110   3634     1  0.0000000  0.4184000  4
   2101   2104   2110   2112     1  180.0000771  0.0000000  2
   2104   2110   3634   3625     1  180.0000771  6.2760000  1
   2104   2110   3634   3625     1  0.0000000  0.0000000  2
   2107   2111   3645   3636     1  180.0000771  6.2760000  1
   2107   2111   3645   3636     1  0.0000000  0.0000000  2
   2110   3634   3625   3628     1  0.0000000  2.2175200  1
   2110   3634   3625   3628     1  0.0000000  0.0000000  2
   2110   3634   3625   3628     1  180.0000771  0.6276000  3
   2110   3634   3625   3628     1  180.0000771  2.0920000  4
   2111   3645   3636   3639     1  0.0000000  2.2175200  1
   2111   3645   3636   3639     1  0.0000000  0.0000000  2
   2111   3645   3636   3639     1  180.0000771  0.6276000  3
   2111   3645   3636   3639     1  180.0000771  2.0920000  4
   2112   2110   3634   3625     1  180.0000771  10.4600000  2
   2113   2111   3645   3636     1  180.0000771  10.4600000  2
   2116   2122   2123   2132     1  180.0000771  2.0083200  2
   2116   2122   2123   2132     1  0.0000000  1.2552000  3
   2116   2122   2126   2129     1  180.0000771  2.0083200  2
   2116   2122   2126   2129     1  0.0000000  1.2552000  3
   2119   2116   2122   2123     1  180.0000771  2.0083200  2
   2119   2116   2122   2123     1  0.0000000  1.2552000  3
   2119   2116   2122   2126     1  180.0000771  2.0083200  2
   2119   2116   2122   2126     1  0.0000000  1.2552000  3
   2122   2116   2119   2139     1  0.0000000  0.6508444  3
   2122   2123   2132   2136     1  0.0000000  0.6508444  3
   2122   2126   2129   2135     1  0.0000000  0.6508444  3
   2123   2122   2126   2129     1  180.0000771  2.0083200  2
   2123   2122   2126   2129     1  0.0000000  1.2552000  3
   2123   2132   2136   2138     1  180.0000771  0.0000000  2
   2123   2132   2136   3667     1  0.0000000  0.2928800  2
   2123   2132   2136   3667     1  0.0000000  0.4184000  4
   2126   2122   2123   2132     1  180.0000771  2.0083200  2
   2126   2122   2123   2132     1  0.0000000  1.2552000  3
   2126   2129   2135   3656     1  0.0000000  0.2928800  2
   2126   2129   2135   3656     1  0.0000000  0.4184000  4
   2126   2129   2135   2137     1  180.0000771  0.0000000  2
   2129   2135   3656   3647     1  180.0000771  6.2760000  1
   2129   2135   3656   3647     1  0.0000000  0.0000000  2
   2132   2136   3667   3658     1  180.0000771  6.2760000  1
   2132   2136   3667   3658     1  0.0000000  0.0000000  2
   2135   3656   3647   3650     1  0.0000000  2.2175200  1
   2135   3656   3647   3650     1  0.0000000  0.0000000  2
   2135   3656   3647   3650     1  180.0000771  0.6276000  3
   2135   3656   3647   3650     1  180.0000771  2.0920000  4
   2136   3667   3658   3661     1  0.0000000  2.2175200  1
   2136   3667   3658   3661     1  0.0000000  0.0000000  2
   2136   3667   3658   3661     1  180.0000771  0.6276000  3
   2136   3667   3658   3661     1  180.0000771  2.0920000  4
   2137   2135   3656   3647     1  180.0000771  10.4600000  2
   2138   2136   3667   3658     1  180.0000771  10.4600000  2
   2141   2147   2148   2157     1  180.0000771  2.0083200  2
   2141   2147   2148   2157     1  0.0000000  1.2552000  3
   2141   2147   2151   2154     1  180.0000771  2.0083200  2
   2141   2147   2151   2154     1  0.0000000  1.2552000  3
   2144   2141   2147   2148     1  180.0000771  2.0083200  2
   2144   2141   2147   2148     1  0.0000000  1.2552000  3
   2144   2141   2147   2151     1  180.0000771  2.0083200  2
   2144   2141   2147   2151     1  0.0000000  1.2552000  3
   2147   2141   2144   2164     1  0.0000000  0.6508444  3
   2147   2148   2157   2161     1  0.0000000  0.6508444  3
   2147   2151   2154   2160     1  0.0000000  0.6508444  3
   2148   2147   2151   2154     1  180.0000771  2.0083200  2
   2148   2147   2151   2154     1  0.0000000  1.2552000  3
   2148   2157   2161   2163     1  180.0000771  0.0000000  2
   2148   2157   2161   3689     1  0.0000000  0.2928800  2
   2148   2157   2161   3689     1  0.0000000  0.4184000  4
   2151   2147   2148   2157     1  180.0000771  2.0083200  2
   2151   2147   2148   2157     1  0.0000000  1.2552000  3
   2151   2154   2160   3678     1  0.0000000  0.2928800  2
   2151   2154   2160   3678     1  0.0000000  0.4184000  4
   2151   2154   2160   2162     1  180.0000771  0.0000000  2
   2154   2160   3678   3669     1  180.0000771  6.2760000  1
   2154   2160   3678   3669     1  0.0000000  0.0000000  2
   2157   2161   3689   3680     1  180.0000771  6.2760000  1
   2157   2161   3689   3680     1  0.0000000  0.0000000  2
   2160   3678   3669   3672     1  0.0000000  2.2175200  1
   2160   3678   3669   3672     1  0.0000000  0.0000000  2
   2160   3678   3669   3672     1  180.0000771  0.6276000  3
   2160   3678   3669   3672     1  180.0000771  2.0920000  4
   2161   3689   3680   3683     1  0.0000000  2.2175200  1
   2161   3689   3680   3683     1  0.0000000  0.0000000  2
   2161   3689   3680   3683     1  180.0000771  0.6276000  3
   2161   3689   3680   3683     1  180.0000771  2.0920000  4
   2162   2160   3678   3669     1  180.0000771  10.4600000  2
   2163   2161   3689   3680     1  180.0000771  10.4600000  2
   2166   2172   2173   2182     1  180.0000771  2.0083200  2
   2166   2172   2173   2182     1  0.0000000  1.2552000  3
   2166   2172   2176   2179     1  180.0000771  2.0083200  2
   2166   2172   2176   2179     1  0.0000000  1.2552000  3
   2169   2166   2172   2173     1  180.0000771  2.0083200  2
   2169   2166   2172   2173     1  0.0000000  1.2552000  3
   2169   2166   2172   2176     1  180.0000771  2.0083200  2
   2169   2166   2172   2176     1  0.0000000  1.2552000  3
   2172   2166   2169   2189     1  0.0000000  0.6508444  3
   2172   2173   2182   2186     1  0.0000000  0.6508444  3
   2172   2176   2179   2185     1  0.0000000  0.6508444  3
   2173   2172   2176   2179     1  180.0000771  2.0083200  2
   2173   2172   2176   2179     1  0.0000000  1.2552000  3
   2173   2182   2186   2188     1  180.0000771  0.0000000  2
   2173   2182   2186   3711     1  0.0000000  0.2928800  2
   2173   2182   2186   3711     1  0.0000000  0.4184000  4
   2176   2172   2173   2182     1  180.0000771  2.0083200  2
   2176   2172   2173   2182     1  0.0000000  1.2552000  3
   2176   2179   2185   3700     1  0.0000000  0.2928800  2
   2176   2179   2185   3700     1  0.0000000  0.4184000  4
   2176   2179   2185   2187     1  180.0000771  0.0000000  2
   2179   2185   3700   3691     1  180.0000771  6.2760000  1
   2179   2185   3700   3691     1  0.0000000  0.0000000  2
   2182   2186   3711   3702     1  180.0000771  6.2760000  1
   2182   2186   3711   3702     1  0.0000000  0.0000000  2
   2185   3700   3691   3694     1  0.0000000  2.2175200  1
   2185   3700   3691   3694     1  0.0000000  0.0000000  2
   2185   3700   3691   3694     1  180.0000771  0.6276000  3
   2185   3700   3691   3694     1  180.0000771  2.0920000  4
   2186   3711   3702   3705     1  0.0000000  2.2175200  1
   2186   3711   3702   3705     1  0.0000000  0.0000000  2
   2186   3711   3702   3705     1  180.0000771  0.6276000  3
   2186   3711   3702   3705     1  180.0000771  2.0920000  4
   2187   2185   3700   3691     1  180.0000771  10.4600000  2
   2188   2186   3711   3702     1  180.0000771  10.4600000  2
   2191   2197   2198   2207     1  180.0000771  2.0083200  2
   2191   2197   2198   2207     1  0.0000000  1.2552000  3
   2191   2197   2201   2204     1  180.0000771  2.0083200  2
   2191   2197   2201   2204     1  0.0000000  1.2552000  3
   2194   2191   2197   2198     1  180.0000771  2.0083200  2
   2194   2191   2197   2198     1  0.0000000  1.2552000  3
   2194   2191   2197   2201     1  180.0000771  2.0083200  2
   2194   2191   2197   2201     1  0.0000000  1.2552000  3
   2197   2191   2194   2214     1  0.0000000  0.6508444  3
   2197   2198   2207   2211     1  0.0000000  0.6508444  3
   2197   2201   2204   2210     1  0.0000000  0.6508444  3
   2198   2197   2201   2204     1  180.0000771  2.0083200  2
   2198   2197   2201   2204     1  0.0000000  1.2552000  3
   2198   2207   2211   2213     1  180.0000771  0.0000000  2
   2198   2207   2211   3733     1  0.0000000  0.2928800  2
   2198   2207   2211   3733     1  0.0000000  0.4184000  4
   2201   2197   2198   2207     1  180.0000771  2.0083200  2
   2201   2197   2198   2207     1  0.0000000  1.2552000  3
   2201   2204   2210   3722     1  0.0000000  0.2928800  2
   2201   2204   2210   3722     1  0.0000000  0.4184000  4
   2201   2204   2210   2212     1  180.0000771  0.0000000  2
   2204   2210   3722   3713     1  180.0000771  6.2760000  1
   2204   2210   3722   3713     1  0.0000000  0.0000000  2
   2207   2211   3733   3724     1  180.0000771  6.2760000  1
   2207   2211   3733   3724     1  0.0000000  0.0000000  2
   2210   3722   3713   3716     1  0.0000000  2.2175200  1
   2210   3722   3713   3716     1  0.0000000  0.0000000  2
   2210   3722   3713   3716     1  180.0000771  0.6276000  3
   2210   3722   3713   3716     1  180.0000771  2.0920000  4
   2211   3733   3724   3727     1  0.0000000  2.2175200  1
   2211   3733   3724   3727     1  0.0000000  0.0000000  2
   2211   3733   3724   3727     1  180.0000771  0.6276000  3
   2211   3733   3724   3727     1  180.0000771  2.0920000  4
   2212   2210   3722   3713     1  180.0000771  10.4600000  2
   2213   2211   3733   3724     1  180.0000771  10.4600000  2
   2216   2222   2223   2232     1  180.0000771  2.0083200  2
   2216   2222   2223   2232     1  0.0000000  1.2552000  3
   2216   2222   2226   2229     1  180.0000771  2.0083200  2
   2216   2222   2226   2229     1  0.0000000  1.2552000  3
   2219   2216   2222   2223     1  180.0000771  2.0083200  2
   2219   2216   2222   2223     1  0.0000000  1.2552000  3
   2219   2216   2222   2226     1  180.0000771  2.0083200  2
   2219   2216   2222   2226     1  0.0000000  1.2552000  3
   2222   2216   2219   2239     1  0.0000000  0.6508444  3
   2222   2223   2232   2236     1  0.0000000  0.6508444  3
   2222   2226   2229   2235     1  0.0000000  0.6508444  3
   2223   2222   2226   2229     1  180.0000771  2.0083200  2
   2223   2222   2226   2229     1  0.0000000  1.2552000  3
   2223   2232   2236   2238     1  180.0000771  0.0000000  2
   2223   2232   2236   3755     1  0.0000000  0.2928800  2
   2223   2232   2236   3755     1  0.0000000  0.4184000  4
   2226   2222   2223   2232     1  180.0000771  2.0083200  2
   2226   2222   2223   2232     1  0.0000000  1.2552000  3
   2226   2229   2235   3744     1  0.0000000  0.2928800  2
   2226   2229   2235   3744     1  0.0000000  0.4184000  4
   2226   2229   2235   2237     1  180.0000771  0.0000000  2
   2229   2235   3744   3735     1  180.0000771  6.2760000  1
   2229   2235   3744   3735     1  0.0000000  0.0000000  2
   2232   2236   3755   3746     1  180.0000771  6.2760000  1
   2232   2236   3755   3746     1  0.0000000  0.0000000  2
   2235   3744   3735   3738     1  0.0000000  2.2175200  1
   2235   3744   3735   3738     1  0.0000000  0.0000000  2
   2235   3744   3735   3738     1  180.0000771  0.6276000  3
   2235   3744   3735   3738     1  180.0000771  2.0920000  4
   2236   3755   3746   3749     1  0.0000000  2.2175200  1
   2236   3755   3746   3749     1  0.0000000  0.0000000  2
   2236   3755   3746   3749     1  180.0000771  0.6276000  3
   2236   3755   3746   3749     1  180.0000771  2.0920000  4
   2237   2235   3744   3735     1  180.0000771  10.4600000  2
   2238   2236   3755   3746     1  180.0000771  10.4600000  2
   2241   2247   2248   2257     1  180.0000771  2.0083200  2
   2241   2247   2248   2257     1  0.0000000  1.2552000  3
   2241   2247   2251   2254     1  180.0000771  2.0083200  2
   2241   2247   2251   2254     1  0.0000000  1.2552000  3
   2244   2241   2247   2248     1  180.0000771  2.0083200  2
   2244   2241   2247   2248     1  0.0000000  1.2552000  3
   2244   2241   2247   2251     1  180.0000771  2.0083200  2
   2244   2241   2247   2251     1  0.0000000  1.2552000  3
   2247   2241   2244   2264     1  0.0000000  0.6508444  3
   2247   2248   2257   2261     1  0.0000000  0.6508444  3
   2247   2251   2254   2260     1  0.0000000  0.6508444  3
   2248   2247   2251   2254     1  180.0000771  2.0083200  2
   2248   2247   2251   2254     1  0.0000000  1.2552000  3
   2248   2257   2261   2263     1  180.0000771  0.0000000  2
   2248   2257   2261   3777     1  0.0000000  0.2928800  2
   2248   2257   2261   3777     1  0.0000000  0.4184000  4
   2251   2247   2248   2257     1  180.0000771  2.0083200  2
   2251   2247   2248   2257     1  0.0000000  1.2552000  3
   2251   2254   2260   3766     1  0.0000000  0.2928800  2
   2251   2254   2260   3766     1  0.0000000  0.4184000  4
   2251   2254   2260   2262     1  180.0000771  0.0000000  2
   2254   2260   3766   3757     1  180.0000771  6.2760000  1
   2254   2260   3766   3757     1  0.0000000  0.0000000  2
   2257   2261   3777   3768     1  180.0000771  6.2760000  1
   2257   2261   3777   3768     1  0.0000000  0.0000000  2
   2260   3766   3757   3760     1  0.0000000  2.2175200  1
   2260   3766   3757   3760     1  0.0000000  0.0000000  2
   2260   3766   3757   3760     1  180.0000771  0.6276000  3
   2260   3766   3757   3760     1  180.0000771  2.0920000  4
   2261   3777   3768   3771     1  0.0000000  2.2175200  1
   2261   3777   3768   3771     1  0.0000000  0.0000000  2
   2261   3777   3768   3771     1  180.0000771  0.6276000  3
   2261   3777   3768   3771     1  180.0000771  2.0920000  4
   2262   2260   3766   3757     1  180.0000771  10.4600000  2
   2263   2261   3777   3768     1  180.0000771  10.4600000  2
   2266   2272   2273   2282     1  180.0000771  2.0083200  2
   2266   2272   2273   2282     1  0.0000000  1.2552000  3
   2266   2272   2276   2279     1  180.0000771  2.0083200  2
   2266   2272   2276   2279     1  0.0000000  1.2552000  3
   2269   2266   2272   2273     1  180.0000771  2.0083200  2
   2269   2266   2272   2273     1  0.0000000  1.2552000  3
   2269   2266   2272   2276     1  180.0000771  2.0083200  2
   2269   2266   2272   2276     1  0.0000000  1.2552000  3
   2272   2266   2269   2289     1  0.0000000  0.6508444  3
   2272   2273   2282   2286     1  0.0000000  0.6508444  3
   2272   2276   2279   2285     1  0.0000000  0.6508444  3
   2273   2272   2276   2279     1  180.0000771  2.0083200  2
   2273   2272   2276   2279     1  0.0000000  1.2552000  3
   2273   2282   2286   2288     1  180.0000771  0.0000000  2
   2273   2282   2286   3799     1  0.0000000  0.2928800  2
   2273   2282   2286   3799     1  0.0000000  0.4184000  4
   2276   2272   2273   2282     1  180.0000771  2.0083200  2
   2276   2272   2273   2282     1  0.0000000  1.2552000  3
   2276   2279   2285   3788     1  0.0000000  0.2928800  2
   2276   2279   2285   3788     1  0.0000000  0.4184000  4
   2276   2279   2285   2287     1  180.0000771  0.0000000  2
   2279   2285   3788   3779     1  180.0000771  6.2760000  1
   2279   2285   3788   3779     1  0.0000000  0.0000000  2
   2282   2286   3799   3790     1  180.0000771  6.2760000  1
   2282   2286   3799   3790     1  0.0000000  0.0000000  2
   2285   3788   3779   3782     1  0.0000000  2.2175200  1
   2285   3788   3779   3782     1  0.0000000  0.0000000  2
   2285   3788   3779   3782     1  180.0000771  0.6276000  3
   2285   3788   3779   3782     1  180.0000771  2.0920000  4
   2286   3799   3790   3793     1  0.0000000  2.2175200  1
   2286   3799   3790   3793     1  0.0000000  0.0000000  2
   2286   3799   3790   3793     1  180.0000771  0.6276000  3
   2286   3799   3790   3793     1  180.0000771  2.0920000  4
   2287   2285   3788   3779     1  180.0000771  10.4600000  2
   2288   2286   3799   3790     1  180.0000771  10.4600000  2
   2291   2297   2298   2307     1  180.0000771  2.0083200  2
   2291   2297   2298   2307     1  0.0000000  1.2552000  3
   2291   2297   2301   2304     1  180.0000771  2.0083200  2
   2291   2297   2301   2304     1  0.0000000  1.2552000  3
   2294   2291   2297   2298     1  180.0000771  2.0083200  2
   2294   2291   2297   2298     1  0.0000000  1.2552000  3
   2294   2291   2297   2301     1  180.0000771  2.0083200  2
   2294   2291   2297   2301     1  0.0000000  1.2552000  3
   2297   2291   2294   2314     1  0.0000000  0.6508444  3
   2297   2298   2307   2311     1  0.0000000  0.6508444  3
   2297   2301   2304   2310     1  0.0000000  0.6508444  3
   2298   2297   2301   2304     1  180.0000771  2.0083200  2
   2298   2297   2301   2304     1  0.0000000  1.2552000  3
   2298   2307   2311   2313     1  180.0000771  0.0000000  2
   2298   2307   2311   3821     1  0.0000000  0.2928800  2
   2298   2307   2311   3821     1  0.0000000  0.4184000  4
   2301   2297   2298   2307     1  180.0000771  2.0083200  2
   2301   2297   2298   2307     1  0.0000000  1.2552000  3
   2301   2304   2310   3810     1  0.0000000  0.2928800  2
   2301   2304   2310   3810     1  0.0000000  0.4184000  4
   2301   2304   2310   2312     1  180.0000771  0.0000000  2
   2304   2310   3810   3801     1  180.0000771  6.2760000  1
   2304   2310   3810   3801     1  0.0000000  0.0000000  2
   2307   2311   3821   3812     1  180.0000771  6.2760000  1
   2307   2311   3821   3812     1  0.0000000  0.0000000  2
   2310   3810   3801   3804     1  0.0000000  2.2175200  1
   2310   3810   3801   3804     1  0.0000000  0.0000000  2
   2310   3810   3801   3804     1  180.0000771  0.6276000  3
   2310   3810   3801   3804     1  180.0000771  2.0920000  4
   2311   3821   3812   3815     1  0.0000000  2.2175200  1
   2311   3821   3812   3815     1  0.0000000  0.0000000  2
   2311   3821   3812   3815     1  180.0000771  0.6276000  3
   2311   3821   3812   3815     1  180.0000771  2.0920000  4
   2312   2310   3810   3801     1  180.0000771  10.4600000  2
   2313   2311   3821   3812     1  180.0000771  10.4600000  2
   2316   2322   2323   2332     1  180.0000771  2.0083200  2
   2316   2322   2323   2332     1  0.0000000  1.2552000  3
   2316   2322   2326   2329     1  180.0000771  2.0083200  2
   2316   2322   2326   2329     1  0.0000000  1.2552000  3
   2319   2316   2322   2323     1  180.0000771  2.0083200  2
   2319   2316   2322   2323     1  0.0000000  1.2552000  3
   2319   2316   2322   2326     1  180.0000771  2.0083200  2
   2319   2316   2322   2326     1  0.0000000  1.2552000  3
   2322   2316   2319   2339     1  0.0000000  0.6508444  3
   2322   2323   2332   2336     1  0.0000000  0.6508444  3
   2322   2326   2329   2335     1  0.0000000  0.6508444  3
   2323   2322   2326   2329     1  180.0000771  2.0083200  2
   2323   2322   2326   2329     1  0.0000000  1.2552000  3
   2323   2332   2336   2338     1  180.0000771  0.0000000  2
   2323   2332   2336   3843     1  0.0000000  0.2928800  2
   2323   2332   2336   3843     1  0.0000000  0.4184000  4
   2326   2322   2323   2332     1  180.0000771  2.0083200  2
   2326   2322   2323   2332     1  0.0000000  1.2552000  3
   2326   2329   2335   3832     1  0.0000000  0.2928800  2
   2326   2329   2335   3832     1  0.0000000  0.4184000  4
   2326   2329   2335   2337     1  180.0000771  0.0000000  2
   2329   2335   3832   3823     1  180.0000771  6.2760000  1
   2329   2335   3832   3823     1  0.0000000  0.0000000  2
   2332   2336   3843   3834     1  180.0000771  6.2760000  1
   2332   2336   3843   3834     1  0.0000000  0.0000000  2
   2335   3832   3823   3826     1  0.0000000  2.2175200  1
   2335   3832   3823   3826     1  0.0000000  0.0000000  2
   2335   3832   3823   3826     1  180.0000771  0.6276000  3
   2335   3832   3823   3826     1  180.0000771  2.0920000  4
   2336   3843   3834   3837     1  0.0000000  2.2175200  1
   2336   3843   3834   3837     1  0.0000000  0.0000000  2
   2336   3843   3834   3837     1  180.0000771  0.6276000  3
   2336   3843   3834   3837     1  180.0000771  2.0920000  4
   2337   2335   3832   3823     1  180.0000771  10.4600000  2
   2338   2336   3843   3834     1  180.0000771  10.4600000  2
   2341   2347   2348   2357     1  180.0000771  2.0083200  2
   2341   2347   2348   2357     1  0.0000000  1.2552000  3
   2341   2347   2351   2354     1  180.0000771  2.0083200  2
   2341   2347   2351   2354     1  0.0000000  1.2552000  3
   2344   2341   2347   2348     1  180.0000771  2.0083200  2
   2344   2341   2347   2348     1  0.0000000  1.2552000  3
   2344   2341   2347   2351     1  180.0000771  2.0083200  2
   2344   2341   2347   2351     1  0.0000000  1.2552000  3
   2347   2341   2344   2364     1  0.0000000  0.6508444  3
   2347   2348   2357   2361     1  0.0000000  0.6508444  3
   2347   2351   2354   2360     1  0.0000000  0.6508444  3
   2348   2347   2351   2354     1  180.0000771  2.0083200  2
   2348   2347   2351   2354     1  0.0000000  1.2552000  3
   2348   2357   2361   2363     1  180.0000771  0.0000000  2
   2348   2357   2361   3865     1  0.0000000  0.2928800  2
   2348   2357   2361   3865     1  0.0000000  0.4184000  4
   2351   2347   2348   2357     1  180.0000771  2.0083200  2
   2351   2347   2348   2357     1  0.0000000  1.2552000  3
   2351   2354   2360   3854     1  0.0000000  0.2928800  2
   2351   2354   2360   3854     1  0.0000000  0.4184000  4
   2351   2354   2360   2362     1  180.0000771  0.0000000  2
   2354   2360   3854   3845     1  180.0000771  6.2760000  1
   2354   2360   3854   3845     1  0.0000000  0.0000000  2
   2357   2361   3865   3856     1  180.0000771  6.2760000  1
   2357   2361   3865   3856     1  0.0000000  0.0000000  2
   2360   3854   3845   3848     1  0.0000000  2.2175200  1
   2360   3854   3845   3848     1  0.0000000  0.0000000  2
   2360   3854   3845   3848     1  180.0000771  0.6276000  3
   2360   3854   3845   3848     1  180.0000771  2.0920000  4
   2361   3865   3856   3859     1  0.0000000  2.2175200  1
   2361   3865   3856   3859     1  0.0000000  0.0000000  2
   2361   3865   3856   3859     1  180.0000771  0.6276000  3
   2361   3865   3856   3859     1  180.0000771  2.0920000  4
   2362   2360   3854   3845     1  180.0000771  10.4600000  2
   2363   2361   3865   3856     1  180.0000771  10.4600000  2
   2366   2372   2373   2382     1  180.0000771  2.0083200  2
   2366   2372   2373   2382     1  0.0000000  1.2552000  3
   2366   2372   2376   2379     1  180.0000771  2.0083200  2
   2366   2372   2376   2379     1  0.0000000  1.2552000  3
   2369   2366   2372   2373     1  180.0000771  2.0083200  2
   2369   2366   2372   2373     1  0.0000000  1.2552000  3
   2369   2366   2372   2376     1  180.0000771  2.0083200  2
   2369   2366   2372   2376     1  0.0000000  1.2552000  3
   2372   2366   2369   2389     1  0.0000000  0.6508444  3
   2372   2373   2382   2386     1  0.0000000  0.6508444  3
   2372   2376   2379   2385     1  0.0000000  0.6508444  3
   2373   2372   2376   2379     1  180.0000771  2.0083200  2
   2373   2372   2376   2379     1  0.0000000  1.2552000  3
   2373   2382   2386   2388     1  180.0000771  0.0000000  2
   2373   2382   2386   3887     1  0.0000000  0.2928800  2
   2373   2382   2386   3887     1  0.0000000  0.4184000  4
   2376   2372   2373   2382     1  180.0000771  2.0083200  2
   2376   2372   2373   2382     1  0.0000000  1.2552000  3
   2376   2379   2385   3876     1  0.0000000  0.2928800  2
   2376   2379   2385   3876     1  0.0000000  0.4184000  4
   2376   2379   2385   2387     1  180.0000771  0.0000000  2
   2379   2385   3876   3867     1  180.0000771  6.2760000  1
   2379   2385   3876   3867     1  0.0000000  0.0000000  2
   2382   2386   3887   3878     1  180.0000771  6.2760000  1
   2382   2386   3887   3878     1  0.0000000  0.0000000  2
   2385   3876   3867   3870     1  0.0000000  2.2175200  1
   2385   3876   3867   3870     1  0.0000000  0.0000000  2
   2385   3876   3867   3870     1  180.0000771  0.6276000  3
   2385   3876   3867   3870     1  180.0000771  2.0920000  4
   2386   3887   3878   3881     1  0.0000000  2.2175200  1
   2386   3887   3878   3881     1  0.0000000  0.0000000  2
   2386   3887   3878   3881     1  180.0000771  0.6276000  3
   2386   3887   3878   3881     1  180.0000771  2.0920000  4
   2387   2385   3876   3867     1  180.0000771  10.4600000  2
   2388   2386   3887   3878     1  180.0000771  10.4600000  2
   2391   2397   2398   2407     1  180.0000771  2.0083200  2
   2391   2397   2398   2407     1  0.0000000  1.2552000  3
   2391   2397   2401   2404     1  180.0000771  2.0083200  2
   2391   2397   2401   2404     1  0.0000000  1.2552000  3
   2394   2391   2397   2398     1  180.0000771  2.0083200  2
   2394   2391   2397   2398     1  0.0000000  1.2552000  3
   2394   2391   2397   2401     1  180.0000771  2.0083200  2
   2394   2391   2397   2401     1  0.0000000  1.2552000  3
   2397   2391   2394   2414     1  0.0000000  0.6508444  3
   2397   2398   2407   2411     1  0.0000000  0.6508444  3
   2397   2401   2404   2410     1  0.0000000  0.6508444  3
   2398   2397   2401   2404     1  180.0000771  2.0083200  2
   2398   2397   2401   2404     1  0.0000000  1.2552000  3
   2398   2407   2411   2413     1  180.0000771  0.0000000  2
   2398   2407   2411   3909     1  0.0000000  0.2928800  2
   2398   2407   2411   3909     1  0.0000000  0.4184000  4
   2401   2397   2398   2407     1  180.0000771  2.0083200  2
   2401   2397   2398   2407     1  0.0000000  1.2552000  3
   2401   2404   2410   3898     1  0.0000000  0.2928800  2
   2401   2404   2410   3898     1  0.0000000  0.4184000  4
   2401   2404   2410   2412     1  180.0000771  0.0000000  2
   2404   2410   3898   3889     1  180.0000771  6.2760000  1
   2404   2410   3898   3889     1  0.0000000  0.0000000  2
   2407   2411   3909   3900     1  180.0000771  6.2760000  1
   2407   2411   3909   3900     1  0.0000000  0.0000000  2
   2410   3898   3889   3892     1  0.0000000  2.2175200  1
   2410   3898   3889   3892     1  0.0000000  0.0000000  2
   2410   3898   3889   3892     1  180.0000771  0.6276000  3
   2410   3898   3889   3892     1  180.0000771  2.0920000  4
   2411   3909   3900   3903     1  0.0000000  2.2175200  1
   2411   3909   3900   3903     1  0.0000000  0.0000000  2
   2411   3909   3900   3903     1  180.0000771  0.6276000  3
   2411   3909   3900   3903     1  180.0000771  2.0920000  4
   2412   2410   3898   3889     1  180.0000771  10.4600000  2
   2413   2411   3909   3900     1  180.0000771  10.4600000  2
   2416   2422   2423   2432     1  180.0000771  2.0083200  2
   2416   2422   2423   2432     1  0.0000000  1.2552000  3
   2416   2422   2426   2429     1  180.0000771  2.0083200  2
   2416   2422   2426   2429     1  0.0000000  1.2552000  3
   2419   2416   2422   2423     1  180.0000771  2.0083200  2
   2419   2416   2422   2423     1  0.0000000  1.2552000  3
   2419   2416   2422   2426     1  180.0000771  2.0083200  2
   2419   2416   2422   2426     1  0.0000000  1.2552000  3
   2422   2416   2419   2439     1  0.0000000  0.6508444  3
   2422   2423   2432   2436     1  0.0000000  0.6508444  3
   2422   2426   2429   2435     1  0.0000000  0.6508444  3
   2423   2422   2426   2429     1  180.0000771  2.0083200  2
   2423   2422   2426   2429     1  0.0000000  1.2552000  3
   2423   2432   2436   2438     1  180.0000771  0.0000000  2
   2423   2432   2436   3931     1  0.0000000  0.2928800  2
   2423   2432   2436   3931     1  0.0000000  0.4184000  4
   2426   2422   2423   2432     1  180.0000771  2.0083200  2
   2426   2422   2423   2432     1  0.0000000  1.2552000  3
   2426   2429   2435   3920     1  0.0000000  0.2928800  2
   2426   2429   2435   3920     1  0.0000000  0.4184000  4
   2426   2429   2435   2437     1  180.0000771  0.0000000  2
   2429   2435   3920   3911     1  180.0000771  6.2760000  1
   2429   2435   3920   3911     1  0.0000000  0.0000000  2
   2432   2436   3931   3922     1  180.0000771  6.2760000  1
   2432   2436   3931   3922     1  0.0000000  0.0000000  2
   2435   3920   3911   3914     1  0.0000000  2.2175200  1
   2435   3920   3911   3914     1  0.0000000  0.0000000  2
   2435   3920   3911   3914     1  180.0000771  0.6276000  3
   2435   3920   3911   3914     1  180.0000771  2.0920000  4
   2436   3931   3922   3925     1  0.0000000  2.2175200  1
   2436   3931   3922   3925     1  0.0000000  0.0000000  2
   2436   3931   3922   3925     1  180.0000771  0.6276000  3
   2436   3931   3922   3925     1  180.0000771  2.0920000  4
   2437   2435   3920   3911     1  180.0000771  10.4600000  2
   2438   2436   3931   3922     1  180.0000771  10.4600000  2
   2441   2447   2448   2457     1  180.0000771  2.0083200  2
   2441   2447   2448   2457     1  0.0000000  1.2552000  3
   2441   2447   2451   2454     1  180.0000771  2.0083200  2
   2441   2447   2451   2454     1  0.0000000  1.2552000  3
   2444   2441   2447   2448     1  180.0000771  2.0083200  2
   2444   2441   2447   2448     1  0.0000000  1.2552000  3
   2444   2441   2447   2451     1  180.0000771  2.0083200  2
   2444   2441   2447   2451     1  0.0000000  1.2552000  3
   2447   2441   2444   2464     1  0.0000000  0.6508444  3
   2447   2448   2457   2461     1  0.0000000  0.6508444  3
   2447   2451   2454   2460     1  0.0000000  0.6508444  3
   2448   2447   2451   2454     1  180.0000771  2.0083200  2
   2448   2447   2451   2454     1  0.0000000  1.2552000  3
   2448   2457   2461   2463     1  180.0000771  0.0000000  2
   2448   2457   2461   3953     1  0.0000000  0.2928800  2
   2448   2457   2461   3953     1  0.0000000  0.4184000  4
   2451   2447   2448   2457     1  180.0000771  2.0083200  2
   2451   2447   2448   2457     1  0.0000000  1.2552000  3
   2451   2454   2460   3942     1  0.0000000  0.2928800  2
   2451   2454   2460   3942     1  0.0000000  0.4184000  4
   2451   2454   2460   2462     1  180.0000771  0.0000000  2
   2454   2460   3942   3933     1  180.0000771  6.2760000  1
   2454   2460   3942   3933     1  0.0000000  0.0000000  2
   2457   2461   3953   3944     1  180.0000771  6.2760000  1
   2457   2461   3953   3944     1  0.0000000  0.0000000  2
   2460   3942   3933   3936     1  0.0000000  2.2175200  1
   2460   3942   3933   3936     1  0.0000000  0.0000000  2
   2460   3942   3933   3936     1  180.0000771  0.6276000  3
   2460   3942   3933   3936     1  180.0000771  2.0920000  4
   2461   3953   3944   3947     1  0.0000000  2.2175200  1
   2461   3953   3944   3947     1  0.0000000  0.0000000  2
   2461   3953   3944   3947     1  180.0000771  0.6276000  3
   2461   3953   3944   3947     1  180.0000771  2.0920000  4
   2462   2460   3942   3933     1  180.0000771  10.4600000  2
   2463   2461   3953   3944     1  180.0000771  10.4600000  2
   2466   2472   2473   2482     1  180.0000771  2.0083200  2
   2466   2472   2473   2482     1  0.0000000  1.2552000  3
   2466   2472   2476   2479     1  180.0000771  2.0083200  2
   2466   2472   2476   2479     1  0.0000000  1.2552000  3
   2469   2466   2472   2473     1  180.0000771  2.0083200  2
   2469   2466   2472   2473     1  0.0000000  1.2552000  3
   2469   2466   2472   2476     1  180.0000771  2.0083200  2
   2469   2466   2472   2476     1  0.0000000  1.2552000  3
   2472   2466   2469   2489     1  0.0000000  0.6508444  3
   2472   2473   2482   2486     1  0.0000000  0.6508444  3
   2472   2476   2479   2485     1  0.0000000  0.6508444  3
   2473   2472   2476   2479     1  180.0000771  2.0083200  2
   2473   2472   2476   2479     1  0.0000000  1.2552000  3
   2473   2482   2486   2488     1  180.0000771  0.0000000  2
   2473   2482   2486   3975     1  0.0000000  0.2928800  2
   2473   2482   2486   3975     1  0.0000000  0.4184000  4
   2476   2472   2473   2482     1  180.0000771  2.0083200  2
   2476   2472   2473   2482     1  0.0000000  1.2552000  3
   2476   2479   2485   3964     1  0.0000000  0.2928800  2
   2476   2479   2485   3964     1  0.0000000  0.4184000  4
   2476   2479   2485   2487     1  180.0000771  0.0000000  2
   2479   2485   3964   3955     1  180.0000771  6.2760000  1
   2479   2485   3964   3955     1  0.0000000  0.0000000  2
   2482   2486   3975   3966     1  180.0000771  6.2760000  1
   2482   2486   3975   3966     1  0.0000000  0.0000000  2
   2485   3964   3955   3958     1  0.0000000  2.2175200  1
   2485   3964   3955   3958     1  0.0000000  0.0000000  2
   2485   3964   3955   3958     1  180.0000771  0.6276000  3
   2485   3964   3955   3958     1  180.0000771  2.0920000  4
   2486   3975   3966   3969     1  0.0000000  2.2175200  1
   2486   3975   3966   3969     1  0.0000000  0.0000000  2
   2486   3975   3966   3969     1  180.0000771  0.6276000  3
   2486   3975   3966   3969     1  180.0000771  2.0920000  4
   2487   2485   3964   3955     1  180.0000771  10.4600000  2
   2488   2486   3975   3966     1  180.0000771  10.4600000  2
   2491   2497   2498   2507     1  180.0000771  2.0083200  2
   2491   2497   2498   2507     1  0.0000000  1.2552000  3
   2491   2497   2501   2504     1  180.0000771  2.0083200  2
   2491   2497   2501   2504     1  0.0000000  1.2552000  3
   2494   2491   2497   2498     1  180.0000771  2.0083200  2
   2494   2491   2497   2498     1  0.0000000  1.2552000  3
   2494   2491   2497   2501     1  180.0000771  2.0083200  2
   2494   2491   2497   2501     1  0.0000000  1.2552000  3
   2497   2491   2494   2514     1  0.0000000  0.6508444  3
   2497   2498   2507   2511     1  0.0000000  0.6508444  3
   2497   2501   2504   2510     1  0.0000000  0.6508444  3
   2498   2497   2501   2504     1  180.0000771  2.0083200  2
   2498   2497   2501   2504     1  0.0000000  1.2552000  3
   2498   2507   2511   2513     1  180.0000771  0.0000000  2
   2498   2507   2511   3997     1  0.0000000  0.2928800  2
   2498   2507   2511   3997     1  0.0000000  0.4184000  4
   2501   2497   2498   2507     1  180.0000771  2.0083200  2
   2501   2497   2498   2507     1  0.0000000  1.2552000  3
   2501   2504   2510   3986     1  0.0000000  0.2928800  2
   2501   2504   2510   3986     1  0.0000000  0.4184000  4
   2501   2504   2510   2512     1  180.0000771  0.0000000  2
   2504   2510   3986   3977     1  180.0000771  6.2760000  1
   2504   2510   3986   3977     1  0.0000000  0.0000000  2
   2507   2511   3997   3988     1  180.0000771  6.2760000  1
   2507   2511   3997   3988     1  0.0000000  0.0000000  2
   2510   3986   3977   3980     1  0.0000000  2.2175200  1
   2510   3986   3977   3980     1  0.0000000  0.0000000  2
   2510   3986   3977   3980     1  180.0000771  0.6276000  3
   2510   3986   3977   3980     1  180.0000771  2.0920000  4
   2511   3997   3988   3991     1  0.0000000  2.2175200  1
   2511   3997   3988   3991     1  0.0000000  0.0000000  2
   2511   3997   3988   3991     1  180.0000771  0.6276000  3
   2511   3997   3988   3991     1  180.0000771  2.0920000  4
   2512   2510   3986   3977     1  180.0000771  10.4600000  2
   2513   2511   3997   3988     1  180.0000771  10.4600000  2
   2516   2522   2523   2532     1  180.0000771  2.0083200  2
   2516   2522   2523   2532     1  0.0000000  1.2552000  3
   2516   2522   2526   2529     1  180.0000771  2.0083200  2
   2516   2522   2526   2529     1  0.0000000  1.2552000  3
   2519   2516   2522   2523     1  180.0000771  2.0083200  2
   2519   2516   2522   2523     1  0.0000000  1.2552000  3
   2519   2516   2522   2526     1  180.0000771  2.0083200  2
   2519   2516   2522   2526     1  0.0000000  1.2552000  3
   2522   2516   2519   2539     1  0.0000000  0.6508444  3
   2522   2523   2532   2536     1  0.0000000  0.6508444  3
   2522   2526   2529   2535     1  0.0000000  0.6508444  3
   2523   2522   2526   2529     1  180.0000771  2.0083200  2
   2523   2522   2526   2529     1  0.0000000  1.2552000  3
   2523   2532   2536   2538     1  180.0000771  0.0000000  2
   2523   2532   2536   4019     1  0.0000000  0.2928800  2
   2523   2532   2536   4019     1  0.0000000  0.4184000  4
   2526   2522   2523   2532     1  180.0000771  2.0083200  2
   2526   2522   2523   2532     1  0.0000000  1.2552000  3
   2526   2529   2535   4008     1  0.0000000  0.2928800  2
   2526   2529   2535   4008     1  0.0000000  0.4184000  4
   2526   2529   2535   2537     1  180.0000771  0.0000000  2
   2529   2535   4008   3999     1  180.0000771  6.2760000  1
   2529   2535   4008   3999     1  0.0000000  0.0000000  2
   2532   2536   4019   4010     1  180.0000771  6.2760000  1
   2532   2536   4019   4010     1  0.0000000  0.0000000  2
   2535   4008   3999   4002     1  0.0000000  2.2175200  1
   2535   4008   3999   4002     1  0.0000000  0.0000000  2
   2535   4008   3999   4002     1  180.0000771  0.6276000  3
   2535   4008   3999   4002     1  180.0000771  2.0920000  4
   2536   4019   4010   4013     1  0.0000000  2.2175200  1
   2536   4019   4010   4013     1  0.0000000  0.0000000  2
   2536   4019   4010   4013     1  180.0000771  0.6276000  3
   2536   4019   4010   4013     1  180.0000771  2.0920000  4
   2537   2535   4008   3999     1  180.0000771  10.4600000  2
   2538   2536   4019   4010     1  180.0000771  10.4600000  2
   2541   2547   2548   2557     1  180.0000771  2.0083200  2
   2541   2547   2548   2557     1  0.0000000  1.2552000  3
   2541   2547   2551   2554     1  180.0000771  2.0083200  2
   2541   2547   2551   2554     1  0.0000000  1.2552000  3
   2544   2541   2547   2548     1  180.0000771  2.0083200  2
   2544   2541   2547   2548     1  0.0000000  1.2552000  3
   2544   2541   2547   2551     1  180.0000771  2.0083200  2
   2544   2541   2547   2551     1  0.0000000  1.2552000  3
   2547   2541   2544   2564     1  0.0000000  0.6508444  3
   2547   2548   2557   2561     1  0.0000000  0.6508444  3
   2547   2551   2554   2560     1  0.0000000  0.6508444  3
   2548   2547   2551   2554     1  180.0000771  2.0083200  2
   2548   2547   2551   2554     1  0.0000000  1.2552000  3
   2548   2557   2561   2563     1  180.0000771  0.0000000  2
   2548   2557   2561   4041     1  0.0000000  0.2928800  2
   2548   2557   2561   4041     1  0.0000000  0.4184000  4
   2551   2547   2548   2557     1  180.0000771  2.0083200  2
   2551   2547   2548   2557     1  0.0000000  1.2552000  3
   2551   2554   2560   4030     1  0.0000000  0.2928800  2
   2551   2554   2560   4030     1  0.0000000  0.4184000  4
   2551   2554   2560   2562     1  180.0000771  0.0000000  2
   2554   2560   4030   4021     1  180.0000771  6.2760000  1
   2554   2560   4030   4021     1  0.0000000  0.0000000  2
   2557   2561   4041   4032     1  180.0000771  6.2760000  1
   2557   2561   4041   4032     1  0.0000000  0.0000000  2
   2560   4030   4021   4024     1  0.0000000  2.2175200  1
   2560   4030   4021   4024     1  0.0000000  0.0000000  2
   2560   4030   4021   4024     1  180.0000771  0.6276000  3
   2560   4030   4021   4024     1  180.0000771  2.0920000  4
   2561   4041   4032   4035     1  0.0000000  2.2175200  1
   2561   4041   4032   4035     1  0.0000000  0.0000000  2
   2561   4041   4032   4035     1  180.0000771  0.6276000  3
   2561   4041   4032   4035     1  180.0000771  2.0920000  4
   2562   2560   4030   4021     1  180.0000771  10.4600000  2
   2563   2561   4041   4032     1  180.0000771  10.4600000  2
   2566   2572   2573   2582     1  180.0000771  2.0083200  2
   2566   2572   2573   2582     1  0.0000000  1.2552000  3
   2566   2572   2576   2579     1  180.0000771  2.0083200  2
   2566   2572   2576   2579     1  0.0000000  1.2552000  3
   2569   2566   2572   2573     1  180.0000771  2.0083200  2
   2569   2566   2572   2573     1  0.0000000  1.2552000  3
   2569   2566   2572   2576     1  180.0000771  2.0083200  2
   2569   2566   2572   2576     1  0.0000000  1.2552000  3
   2572   2566   2569   2589     1  0.0000000  0.6508444  3
   2572   2573   2582   2586     1  0.0000000  0.6508444  3
   2572   2576   2579   2585     1  0.0000000  0.6508444  3
   2573   2572   2576   2579     1  180.0000771  2.0083200  2
   2573   2572   2576   2579     1  0.0000000  1.2552000  3
   2573   2582   2586   2588     1  180.0000771  0.0000000  2
   2573   2582   2586   4063     1  0.0000000  0.2928800  2
   2573   2582   2586   4063     1  0.0000000  0.4184000  4
   2576   2572   2573   2582     1  180.0000771  2.0083200  2
   2576   2572   2573   2582     1  0.0000000  1.2552000  3
   2576   2579   2585   4052     1  0.0000000  0.2928800  2
   2576   2579   2585   4052     1  0.0000000  0.4184000  4
   2576   2579   2585   2587     1  180.0000771  0.0000000  2
   2579   2585   4052   4043     1  180.0000771  6.2760000  1
   2579   2585   4052   4043     1  0.0000000  0.0000000  2
   2582   2586   4063   4054     1  180.0000771  6.2760000  1
   2582   2586   4063   4054     1  0.0000000  0.0000000  2
   2585   4052   4043   4046     1  0.0000000  2.2175200  1
   2585   4052   4043   4046     1  0.0000000  0.0000000  2
   2585   4052   4043   4046     1  180.0000771  0.6276000  3
   2585   4052   4043   4046     1  180.0000771  2.0920000  4
   2586   4063   4054   4057     1  0.0000000  2.2175200  1
   2586   4063   4054   4057     1  0.0000000  0.0000000  2
   2586   4063   4054   4057     1  180.0000771  0.6276000  3
   2586   4063   4054   4057     1  180.0000771  2.0920000  4
   2587   2585   4052   4043     1  180.0000771  10.4600000  2
   2588   2586   4063   4054     1  180.0000771  10.4600000  2
   2591   2597   2598   2607     1  180.0000771  2.0083200  2
   2591   2597   2598   2607     1  0.0000000  1.2552000  3
   2591   2597   2601   2604     1  180.0000771  2.0083200  2
   2591   2597   2601   2604     1  0.0000000  1.2552000  3
   2594   2591   2597   2598     1  180.0000771  2.0083200  2
   2594   2591   2597   2598     1  0.0000000  1.2552000  3
   2594   2591   2597   2601     1  180.0000771  2.0083200  2
   2594   2591   2597   2601     1  0.0000000  1.2552000  3
   2597   2591   2594   2614     1  0.0000000  0.6508444  3
   2597   2598   2607   2611     1  0.0000000  0.6508444  3
   2597   2601   2604   2610     1  0.0000000  0.6508444  3
   2598   2597   2601   2604     1  180.0000771  2.0083200  2
   2598   2597   2601   2604     1  0.0000000  1.2552000  3
   2598   2607   2611   2613     1  180.0000771  0.0000000  2
   2598   2607   2611   4085     1  0.0000000  0.2928800  2
   2598   2607   2611   4085     1  0.0000000  0.4184000  4
   2601   2597   2598   2607     1  180.0000771  2.0083200  2
   2601   2597   2598   2607     1  0.0000000  1.2552000  3
   2601   2604   2610   4074     1  0.0000000  0.2928800  2
   2601   2604   2610   4074     1  0.0000000  0.4184000  4
   2601   2604   2610   2612     1  180.0000771  0.0000000  2
   2604   2610   4074   4065     1  180.0000771  6.2760000  1
   2604   2610   4074   4065     1  0.0000000  0.0000000  2
   2607   2611   4085   4076     1  180.0000771  6.2760000  1
   2607   2611   4085   4076     1  0.0000000  0.0000000  2
   2610   4074   4065   4068     1  0.0000000  2.2175200  1
   2610   4074   4065   4068     1  0.0000000  0.0000000  2
   2610   4074   4065   4068     1  180.0000771  0.6276000  3
   2610   4074   4065   4068     1  180.0000771  2.0920000  4
   2611   4085   4076   4079     1  0.0000000  2.2175200  1
   2611   4085   4076   4079     1  0.0000000  0.0000000  2
   2611   4085   4076   4079     1  180.0000771  0.6276000  3
   2611   4085   4076   4079     1  180.0000771  2.0920000  4
   2612   2610   4074   4065     1  180.0000771  10.4600000  2
   2613   2611   4085   4076     1  180.0000771  10.4600000  2
   2616   2622   2623   2632     1  180.0000771  2.0083200  2
   2616   2622   2623   2632     1  0.0000000  1.2552000  3
   2616   2622   2626   2629     1  180.0000771  2.0083200  2
   2616   2622   2626   2629     1  0.0000000  1.2552000  3
   2619   2616   2622   2623     1  180.0000771  2.0083200  2
   2619   2616   2622   2623     1  0.0000000  1.2552000  3
   2619   2616   2622   2626     1  180.0000771  2.0083200  2
   2619   2616   2622   2626     1  0.0000000  1.2552000  3
   2622   2616   2619   2639     1  0.0000000  0.6508444  3
   2622   2623   2632   2636     1  0.0000000  0.6508444  3
   2622   2626   2629   2635     1  0.0000000  0.6508444  3
   2623   2622   2626   2629     1  180.0000771  2.0083200  2
   2623   2622   2626   2629     1  0.0000000  1.2552000  3
   2623   2632   2636   2638     1  180.0000771  0.0000000  2
   2623   2632   2636   4107     1  0.0000000  0.2928800  2
   2623   2632   2636   4107     1  0.0000000  0.4184000  4
   2626   2622   2623   2632     1  180.0000771  2.0083200  2
   2626   2622   2623   2632     1  0.0000000  1.2552000  3
   2626   2629   2635   4096     1  0.0000000  0.2928800  2
   2626   2629   2635   4096     1  0.0000000  0.4184000  4
   2626   2629   2635   2637     1  180.0000771  0.0000000  2
   2629   2635   4096   4087     1  180.0000771  6.2760000  1
   2629   2635   4096   4087     1  0.0000000  0.0000000  2
   2632   2636   4107   4098     1  180.0000771  6.2760000  1
   2632   2636   4107   4098     1  0.0000000  0.0000000  2
   2635   4096   4087   4090     1  0.0000000  2.2175200  1
   2635   4096   4087   4090     1  0.0000000  0.0000000  2
   2635   4096   4087   4090     1  180.0000771  0.6276000  3
   2635   4096   4087   4090     1  180.0000771  2.0920000  4
   2636   4107   4098   4101     1  0.0000000  2.2175200  1
   2636   4107   4098   4101     1  0.0000000  0.0000000  2
   2636   4107   4098   4101     1  180.0000771  0.6276000  3
   2636   4107   4098   4101     1  180.0000771  2.0920000  4
   2637   2635   4096   4087     1  180.0000771  10.4600000  2
   2638   2636   4107   4098     1  180.0000771  10.4600000  2
   2641   2647   2648   2657     1  180.0000771  2.0083200  2
   2641   2647   2648   2657     1  0.0000000  1.2552000  3
   2641   2647   2651   2654     1  180.0000771  2.0083200  2
   2641   2647   2651   2654     1  0.0000000  1.2552000  3
   2644   2641   2647   2648     1  180.0000771  2.0083200  2
   2644   2641   2647   2648     1  0.0000000  1.2552000  3
   2644   2641   2647   2651     1  180.0000771  2.0083200  2
   2644   2641   2647   2651     1  0.0000000  1.2552000  3
   2647   2641   2644   2664     1  0.0000000  0.6508444  3
   2647   2648   2657   2661     1  0.0000000  0.6508444  3
   2647   2651   2654   2660     1  0.0000000  0.6508444  3
   2648   2647   2651   2654     1  180.0000771  2.0083200  2
   2648   2647   2651   2654     1  0.0000000  1.2552000  3
   2648   2657   2661   2663     1  180.0000771  0.0000000  2
   2648   2657   2661   4129     1  0.0000000  0.2928800  2
   2648   2657   2661   4129     1  0.0000000  0.4184000  4
   2651   2647   2648   2657     1  180.0000771  2.0083200  2
   2651   2647   2648   2657     1  0.0000000  1.2552000  3
   2651   2654   2660   4118     1  0.0000000  0.2928800  2
   2651   2654   2660   4118     1  0.0000000  0.4184000  4
   2651   2654   2660   2662     1  180.0000771  0.0000000  2
   2654   2660   4118   4109     1  180.0000771  6.2760000  1
   2654   2660   4118   4109     1  0.0000000  0.0000000  2
   2657   2661   4129   4120     1  180.0000771  6.2760000  1
   2657   2661   4129   4120     1  0.0000000  0.0000000  2
   2660   4118   4109   4112     1  0.0000000  2.2175200  1
   2660   4118   4109   4112     1  0.0000000  0.0000000  2
   2660   4118   4109   4112     1  180.0000771  0.6276000  3
   2660   4118   4109   4112     1  180.0000771  2.0920000  4
   2661   4129   4120   4123     1  0.0000000  2.2175200  1
   2661   4129   4120   4123     1  0.0000000  0.0000000  2
   2661   4129   4120   4123     1  180.0000771  0.6276000  3
   2661   4129   4120   4123     1  180.0000771  2.0920000  4
   2662   2660   4118   4109     1  180.0000771  10.4600000  2
   2663   2661   4129   4120     1  180.0000771  10.4600000  2
   2666   2672   2673   2682     1  180.0000771  2.0083200  2
   2666   2672   2673   2682     1  0.0000000  1.2552000  3
   2666   2672   2676   2679     1  180.0000771  2.0083200  2
   2666   2672   2676   2679     1  0.0000000  1.2552000  3
   2669   2666   2672   2673     1  180.0000771  2.0083200  2
   2669   2666   2672   2673     1  0.0000000  1.2552000  3
   2669   2666   2672   2676     1  180.0000771  2.0083200  2
   2669   2666   2672   2676     1  0.0000000  1.2552000  3
   2672   2666   2669   2689     1  0.0000000  0.6508444  3
   2672   2673   2682   2686     1  0.0000000  0.6508444  3
   2672   2676   2679   2685     1  0.0000000  0.6508444  3
   2673   2672   2676   2679     1  180.0000771  2.0083200  2
   2673   2672   2676   2679     1  0.0000000  1.2552000  3
   2673   2682   2686   2688     1  180.0000771  0.0000000  2
   2673   2682   2686   4151     1  0.0000000  0.2928800  2
   2673   2682   2686   4151     1  0.0000000  0.4184000  4
   2676   2672   2673   2682     1  180.0000771  2.0083200  2
   2676   2672   2673   2682     1  0.0000000  1.2552000  3
   2676   2679   2685   4140     1  0.0000000  0.2928800  2
   2676   2679   2685   4140     1  0.0000000  0.4184000  4
   2676   2679   2685   2687     1  180.0000771  0.0000000  2
   2679   2685   4140   4131     1  180.0000771  6.2760000  1
   2679   2685   4140   4131     1  0.0000000  0.0000000  2
   2682   2686   4151   4142     1  180.0000771  6.2760000  1
   2682   2686   4151   4142     1  0.0000000  0.0000000  2
   2685   4140   4131   4134     1  0.0000000  2.2175200  1
   2685   4140   4131   4134     1  0.0000000  0.0000000  2
   2685   4140   4131   4134     1  180.0000771  0.6276000  3
   2685   4140   4131   4134     1  180.0000771  2.0920000  4
   2686   4151   4142   4145     1  0.0000000  2.2175200  1
   2686   4151   4142   4145     1  0.0000000  0.0000000  2
   2686   4151   4142   4145     1  180.0000771  0.6276000  3
   2686   4151   4142   4145     1  180.0000771  2.0920000  4
   2687   2685   4140   4131     1  180.0000771  10.4600000  2
   2688   2686   4151   4142     1  180.0000771  10.4600000  2
   2691   2697   2698   2707     1  180.0000771  2.0083200  2
   2691   2697   2698   2707     1  0.0000000  1.2552000  3
   2691   2697   2701   2704     1  180.0000771  2.0083200  2
   2691   2697   2701   2704     1  0.0000000  1.2552000  3
   2694   2691   2697   2698     1  180.0000771  2.0083200  2
   2694   2691   2697   2698     1  0.0000000  1.2552000  3
   2694   2691   2697   2701     1  180.0000771  2.0083200  2
   2694   2691   2697   2701     1  0.0000000  1.2552000  3
   2697   2691   2694   2714     1  0.0000000  0.6508444  3
   2697   2698   2707   2711     1  0.0000000  0.6508444  3
   2697   2701   2704   2710     1  0.0000000  0.6508444  3
   2698   2697   2701   2704     1  180.0000771  2.0083200  2
   2698   2697   2701   2704     1  0.0000000  1.2552000  3
   2698   2707   2711   2713     1  180.0000771  0.0000000  2
   2698   2707   2711   4173     1  0.0000000  0.2928800  2
   2698   2707   2711   4173     1  0.0000000  0.4184000  4
   2701   2697   2698   2707     1  180.0000771  2.0083200  2
   2701   2697   2698   2707     1  0.0000000  1.2552000  3
   2701   2704   2710   4162     1  0.0000000  0.2928800  2
   2701   2704   2710   4162     1  0.0000000  0.4184000  4
   2701   2704   2710   2712     1  180.0000771  0.0000000  2
   2704   2710   4162   4153     1  180.0000771  6.2760000  1
   2704   2710   4162   4153     1  0.0000000  0.0000000  2
   2707   2711   4173   4164     1  180.0000771  6.2760000  1
   2707   2711   4173   4164     1  0.0000000  0.0000000  2
   2710   4162   4153   4156     1  0.0000000  2.2175200  1
   2710   4162   4153   4156     1  0.0000000  0.0000000  2
   2710   4162   4153   4156     1  180.0000771  0.6276000  3
   2710   4162   4153   4156     1  180.0000771  2.0920000  4
   2711   4173   4164   4167     1  0.0000000  2.2175200  1
   2711   4173   4164   4167     1  0.0000000  0.0000000  2
   2711   4173   4164   4167     1  180.0000771  0.6276000  3
   2711   4173   4164   4167     1  180.0000771  2.0920000  4
   2712   2710   4162   4153     1  180.0000771  10.4600000  2
   2713   2711   4173   4164     1  180.0000771  10.4600000  2
   2716   2722   2723   2732     1  180.0000771  2.0083200  2
   2716   2722   2723   2732     1  0.0000000  1.2552000  3
   2716   2722   2726   2729     1  180.0000771  2.0083200  2
   2716   2722   2726   2729     1  0.0000000  1.2552000  3
   2719   2716   2722   2723     1  180.0000771  2.0083200  2
   2719   2716   2722   2723     1  0.0000000  1.2552000  3
   2719   2716   2722   2726     1  180.0000771  2.0083200  2
   2719   2716   2722   2726     1  0.0000000  1.2552000  3
   2722   2716   2719   2739     1  0.0000000  0.6508444  3
   2722   2723   2732   2736     1  0.0000000  0.6508444  3
   2722   2726   2729   2735     1  0.0000000  0.6508444  3
   2723   2722   2726   2729     1  180.0000771  2.0083200  2
   2723   2722   2726   2729     1  0.0000000  1.2552000  3
   2723   2732   2736   2738     1  180.0000771  0.0000000  2
   2723   2732   2736   4195     1  0.0000000  0.2928800  2
   2723   2732   2736   4195     1  0.0000000  0.4184000  4
   2726   2722   2723   2732     1  180.0000771  2.0083200  2
   2726   2722   2723   2732     1  0.0000000  1.2552000  3
   2726   2729   2735   4184     1  0.0000000  0.2928800  2
   2726   2729   2735   4184     1  0.0000000  0.4184000  4
   2726   2729   2735   2737     1  180.0000771  0.0000000  2
   2729   2735   4184   4175     1  180.0000771  6.2760000  1
   2729   2735   4184   4175     1  0.0000000  0.0000000  2
   2732   2736   4195   4186     1  180.0000771  6.2760000  1
   2732   2736   4195   4186     1  0.0000000  0.0000000  2
   2735   4184   4175   4178     1  0.0000000  2.2175200  1
   2735   4184   4175   4178     1  0.0000000  0.0000000  2
   2735   4184   4175   4178     1  180.0000771  0.6276000  3
   2735   4184   4175   4178     1  180.0000771  2.0920000  4
   2736   4195   4186   4189     1  0.0000000  2.2175200  1
   2736   4195   4186   4189     1  0.0000000  0.0000000  2
   2736   4195   4186   4189     1  180.0000771  0.6276000  3
   2736   4195   4186   4189     1  180.0000771  2.0920000  4
   2737   2735   4184   4175     1  180.0000771  10.4600000  2
   2738   2736   4195   4186     1  180.0000771  10.4600000  2
   2741   2747   2748   2757     1  180.0000771  2.0083200  2
   2741   2747   2748   2757     1  0.0000000  1.2552000  3
   2741   2747   2751   2754     1  180.0000771  2.0083200  2
   2741   2747   2751   2754     1  0.0000000  1.2552000  3
   2744   2741   2747   2748     1  180.0000771  2.0083200  2
   2744   2741   2747   2748     1  0.0000000  1.2552000  3
   2744   2741   2747   2751     1  180.0000771  2.0083200  2
   2744   2741   2747   2751     1  0.0000000  1.2552000  3
   2747   2741   2744   2764     1  0.0000000  0.6508444  3
   2747   2748   2757   2761     1  0.0000000  0.6508444  3
   2747   2751   2754   2760     1  0.0000000  0.6508444  3
   2748   2747   2751   2754     1  180.0000771  2.0083200  2
   2748   2747   2751   2754     1  0.0000000  1.2552000  3
   2748   2757   2761   2763     1  180.0000771  0.0000000  2
   2748   2757   2761   4217     1  0.0000000  0.2928800  2
   2748   2757   2761   4217     1  0.0000000  0.4184000  4
   2751   2747   2748   2757     1  180.0000771  2.0083200  2
   2751   2747   2748   2757     1  0.0000000  1.2552000  3
   2751   2754   2760   4206     1  0.0000000  0.2928800  2
   2751   2754   2760   4206     1  0.0000000  0.4184000  4
   2751   2754   2760   2762     1  180.0000771  0.0000000  2
   2754   2760   4206   4197     1  180.0000771  6.2760000  1
   2754   2760   4206   4197     1  0.0000000  0.0000000  2
   2757   2761   4217   4208     1  180.0000771  6.2760000  1
   2757   2761   4217   4208     1  0.0000000  0.0000000  2
   2760   4206   4197   4200     1  0.0000000  2.2175200  1
   2760   4206   4197   4200     1  0.0000000  0.0000000  2
   2760   4206   4197   4200     1  180.0000771  0.6276000  3
   2760   4206   4197   4200     1  180.0000771  2.0920000  4
   2761   4217   4208   4211     1  0.0000000  2.2175200  1
   2761   4217   4208   4211     1  0.0000000  0.0000000  2
   2761   4217   4208   4211     1  180.0000771  0.6276000  3
   2761   4217   4208   4211     1  180.0000771  2.0920000  4
   2762   2760   4206   4197     1  180.0000771  10.4600000  2
   2763   2761   4217   4208     1  180.0000771  10.4600000  2
   2766   2772   2773   2782     1  180.0000771  2.0083200  2
   2766   2772   2773   2782     1  0.0000000  1.2552000  3
   2766   2772   2776   2779     1  180.0000771  2.0083200  2
   2766   2772   2776   2779     1  0.0000000  1.2552000  3
   2769   2766   2772   2773     1  180.0000771  2.0083200  2
   2769   2766   2772   2773     1  0.0000000  1.2552000  3
   2769   2766   2772   2776     1  180.0000771  2.0083200  2
   2769   2766   2772   2776     1  0.0000000  1.2552000  3
   2772   2766   2769   2789     1  0.0000000  0.6508444  3
   2772   2773   2782   2786     1  0.0000000  0.6508444  3
   2772   2776   2779   2785     1  0.0000000  0.6508444  3
   2773   2772   2776   2779     1  180.0000771  2.0083200  2
   2773   2772   2776   2779     1  0.0000000  1.2552000  3
   2773   2782   2786   2788     1  180.0000771  0.0000000  2
   2773   2782   2786   4239     1  0.0000000  0.2928800  2
   2773   2782   2786   4239     1  0.0000000  0.4184000  4
   2776   2772   2773   2782     1  180.0000771  2.0083200  2
   2776   2772   2773   2782     1  0.0000000  1.2552000  3
   2776   2779   2785   4228     1  0.0000000  0.2928800  2
   2776   2779   2785   4228     1  0.0000000  0.4184000  4
   2776   2779   2785   2787     1  180.0000771  0.0000000  2
   2779   2785   4228   4219     1  180.0000771  6.2760000  1
   2779   2785   4228   4219     1  0.0000000  0.0000000  2
   2782   2786   4239   4230     1  180.0000771  6.2760000  1
   2782   2786   4239   4230     1  0.0000000  0.0000000  2
   2785   4228   4219   4222     1  0.0000000  2.2175200  1
   2785   4228   4219   4222     1  0.0000000  0.0000000  2
   2785   4228   4219   4222     1  180.0000771  0.6276000  3
   2785   4228   4219   4222     1  180.0000771  2.0920000  4
   2786   4239   4230   4233     1  0.0000000  2.2175200  1
   2786   4239   4230   4233     1  0.0000000  0.0000000  2
   2786   4239   4230   4233     1  180.0000771  0.6276000  3
   2786   4239   4230   4233     1  180.0000771  2.0920000  4
   2787   2785   4228   4219     1  180.0000771  10.4600000  2
   2788   2786   4239   4230     1  180.0000771  10.4600000  2
   2791   2797   2798   2807     1  180.0000771  2.0083200  2
   2791   2797   2798   2807     1  0.0000000  1.2552000  3
   2791   2797   2801   2804     1  180.0000771  2.0083200  2
   2791   2797   2801   2804     1  0.0000000  1.2552000  3
   2794   2791   2797   2798     1  180.0000771  2.0083200  2
   2794   2791   2797   2798     1  0.0000000  1.2552000  3
   2794   2791   2797   2801     1  180.0000771  2.0083200  2
   2794   2791   2797   2801     1  0.0000000  1.2552000  3
   2797   2791   2794   2814     1  0.0000000  0.6508444  3
   2797   2798   2807   2811     1  0.0000000  0.6508444  3
   2797   2801   2804   2810     1  0.0000000  0.6508444  3
   2798   2797   2801   2804     1  180.0000771  2.0083200  2
   2798   2797   2801   2804     1  0.0000000  1.2552000  3
   2798   2807   2811   2813     1  180.0000771  0.0000000  2
   2798   2807   2811   4261     1  0.0000000  0.2928800  2
   2798   2807   2811   4261     1  0.0000000  0.4184000  4
   2801   2797   2798   2807     1  180.0000771  2.0083200  2
   2801   2797   2798   2807     1  0.0000000  1.2552000  3
   2801   2804   2810   4250     1  0.0000000  0.2928800  2
   2801   2804   2810   4250     1  0.0000000  0.4184000  4
   2801   2804   2810   2812     1  180.0000771  0.0000000  2
   2804   2810   4250   4241     1  180.0000771  6.2760000  1
   2804   2810   4250   4241     1  0.0000000  0.0000000  2
   2807   2811   4261   4252     1  180.0000771  6.2760000  1
   2807   2811   4261   4252     1  0.0000000  0.0000000  2
   2810   4250   4241   4244     1  0.0000000  2.2175200  1
   2810   4250   4241   4244     1  0.0000000  0.0000000  2
   2810   4250   4241   4244     1  180.0000771  0.6276000  3
   2810   4250   4241   4244     1  180.0000771  2.0920000  4
   2811   4261   4252   4255     1  0.0000000  2.2175200  1
   2811   4261   4252   4255     1  0.0000000  0.0000000  2
   2811   4261   4252   4255     1  180.0000771  0.6276000  3
   2811   4261   4252   4255     1  180.0000771  2.0920000  4
   2812   2810   4250   4241     1  180.0000771  10.4600000  2
   2813   2811   4261   4252     1  180.0000771  10.4600000  2
   2816   2822   2823   2832     1  180.0000771  2.0083200  2
   2816   2822   2823   2832     1  0.0000000  1.2552000  3
   2816   2822   2826   2829     1  180.0000771  2.0083200  2
   2816   2822   2826   2829     1  0.0000000  1.2552000  3
   2819   2816   2822   2823     1  180.0000771  2.0083200  2
   2819   2816   2822   2823     1  0.0000000  1.2552000  3
   2819   2816   2822   2826     1  180.0000771  2.0083200  2
   2819   2816   2822   2826     1  0.0000000  1.2552000  3
   2822   2816   2819   2839     1  0.0000000  0.6508444  3
   2822   2823   2832   2836     1  0.0000000  0.6508444  3
   2822   2826   2829   2835     1  0.0000000  0.6508444  3
   2823   2822   2826   2829     1  180.0000771  2.0083200  2
   2823   2822   2826   2829     1  0.0000000  1.2552000  3
   2823   2832   2836   2838     1  180.0000771  0.0000000  2
   2823   2832   2836   4283     1  0.0000000  0.2928800  2
   2823   2832   2836   4283     1  0.0000000  0.4184000  4
   2826   2822   2823   2832     1  180.0000771  2.0083200  2
   2826   2822   2823   2832     1  0.0000000  1.2552000  3
   2826   2829   2835   4272     1  0.0000000  0.2928800  2
   2826   2829   2835   4272     1  0.0000000  0.4184000  4
   2826   2829   2835   2837     1  180.0000771  0.0000000  2
   2829   2835   4272   4263     1  180.0000771  6.2760000  1
   2829   2835   4272   4263     1  0.0000000  0.0000000  2
   2832   2836   4283   4274     1  180.0000771  6.2760000  1
   2832   2836   4283   4274     1  0.0000000  0.0000000  2
   2835   4272   4263   4266     1  0.0000000  2.2175200  1
   2835   4272   4263   4266     1  0.0000000  0.0000000  2
   2835   4272   4263   4266     1  180.0000771  0.6276000  3
   2835   4272   4263   4266     1  180.0000771  2.0920000  4
   2836   4283   4274   4277     1  0.0000000  2.2175200  1
   2836   4283   4274   4277     1  0.0000000  0.0000000  2
   2836   4283   4274   4277     1  180.0000771  0.6276000  3
   2836   4283   4274   4277     1  180.0000771  2.0920000  4
   2837   2835   4272   4263     1  180.0000771  10.4600000  2
   2838   2836   4283   4274     1  180.0000771  10.4600000  2
   2841   2847   2848   2857     1  180.0000771  2.0083200  2
   2841   2847   2848   2857     1  0.0000000  1.2552000  3
   2841   2847   2851   2854     1  180.0000771  2.0083200  2
   2841   2847   2851   2854     1  0.0000000  1.2552000  3
   2844   2841   2847   2848     1  180.0000771  2.0083200  2
   2844   2841   2847   2848     1  0.0000000  1.2552000  3
   2844   2841   2847   2851     1  180.0000771  2.0083200  2
   2844   2841   2847   2851     1  0.0000000  1.2552000  3
   2847   2841   2844   2864     1  0.0000000  0.6508444  3
   2847   2848   2857   2861     1  0.0000000  0.6508444  3
   2847   2851   2854   2860     1  0.0000000  0.6508444  3
   2848   2847   2851   2854     1  180.0000771  2.0083200  2
   2848   2847   2851   2854     1  0.0000000  1.2552000  3
   2848   2857   2861   2863     1  180.0000771  0.0000000  2
   2848   2857   2861   4305     1  0.0000000  0.2928800  2
   2848   2857   2861   4305     1  0.0000000  0.4184000  4
   2851   2847   2848   2857     1  180.0000771  2.0083200  2
   2851   2847   2848   2857     1  0.0000000  1.2552000  3
   2851   2854   2860   4294     1  0.0000000  0.2928800  2
   2851   2854   2860   4294     1  0.0000000  0.4184000  4
   2851   2854   2860   2862     1  180.0000771  0.0000000  2
   2854   2860   4294   4285     1  180.0000771  6.2760000  1
   2854   2860   4294   4285     1  0.0000000  0.0000000  2
   2857   2861   4305   4296     1  180.0000771  6.2760000  1
   2857   2861   4305   4296     1  0.0000000  0.0000000  2
   2860   4294   4285   4288     1  0.0000000  2.2175200  1
   2860   4294   4285   4288     1  0.0000000  0.0000000  2
   2860   4294   4285   4288     1  180.0000771  0.6276000  3
   2860   4294   4285   4288     1  180.0000771  2.0920000  4
   2861   4305   4296   4299     1  0.0000000  2.2175200  1
   2861   4305   4296   4299     1  0.0000000  0.0000000  2
   2861   4305   4296   4299     1  180.0000771  0.6276000  3
   2861   4305   4296   4299     1  180.0000771  2.0920000  4
   2862   2860   4294   4285     1  180.0000771  10.4600000  2
   2863   2861   4305   4296     1  180.0000771  10.4600000  2
   2866   2872   2873   2882     1  180.0000771  2.0083200  2
   2866   2872   2873   2882     1  0.0000000  1.2552000  3
   2866   2872   2876   2879     1  180.0000771  2.0083200  2
   2866   2872   2876   2879     1  0.0000000  1.2552000  3
   2869   2866   2872   2873     1  180.0000771  2.0083200  2
   2869   2866   2872   2873     1  0.0000000  1.2552000  3
   2869   2866   2872   2876     1  180.0000771  2.0083200  2
   2869   2866   2872   2876     1  0.0000000  1.2552000  3
   2872   2866   2869   2889     1  0.0000000  0.6508444  3
   2872   2873   2882   2886     1  0.0000000  0.6508444  3
   2872   2876   2879   2885     1  0.0000000  0.6508444  3
   2873   2872   2876   2879     1  180.0000771  2.0083200  2
   2873   2872   2876   2879     1  0.0000000  1.2552000  3
   2873   2882   2886   2888     1  180.0000771  0.0000000  2
   2873   2882   2886   4327     1  0.0000000  0.2928800  2
   2873   2882   2886   4327     1  0.0000000  0.4184000  4
   2876   2872   2873   2882     1  180.0000771  2.0083200  2
   2876   2872   2873   2882     1  0.0000000  1.2552000  3
   2876   2879   2885   4316     1  0.0000000  0.2928800  2
   2876   2879   2885   4316     1  0.0000000  0.4184000  4
   2876   2879   2885   2887     1  180.0000771  0.0000000  2
   2879   2885   4316   4307     1  180.0000771  6.2760000  1
   2879   2885   4316   4307     1  0.0000000  0.0000000  2
   2882   2886   4327   4318     1  180.0000771  6.2760000  1
   2882   2886   4327   4318     1  0.0000000  0.0000000  2
   2885   4316   4307   4310     1  0.0000000  2.2175200  1
   2885   4316   4307   4310     1  0.0000000  0.0000000  2
   2885   4316   4307   4310     1  180.0000771  0.6276000  3
   2885   4316   4307   4310     1  180.0000771  2.0920000  4
   2886   4327   4318   4321     1  0.0000000  2.2175200  1
   2886   4327   4318   4321     1  0.0000000  0.0000000  2
   2886   4327   4318   4321     1  180.0000771  0.6276000  3
   2886   4327   4318   4321     1  180.0000771  2.0920000  4
   2887   2885   4316   4307     1  180.0000771  10.4600000  2
   2888   2886   4327   4318     1  180.0000771  10.4600000  2
   2891   2897   2898   2907     1  180.0000771  2.0083200  2
   2891   2897   2898   2907     1  0.0000000  1.2552000  3
   2891   2897   2901   2904     1  180.0000771  2.0083200  2
   2891   2897   2901   2904     1  0.0000000  1.2552000  3
   2894   2891   2897   2898     1  180.0000771  2.0083200  2
   2894   2891   2897   2898     1  0.0000000  1.2552000  3
   2894   2891   2897   2901     1  180.0000771  2.0083200  2
   2894   2891   2897   2901     1  0.0000000  1.2552000  3
   2897   2891   2894   2914     1  0.0000000  0.6508444  3
   2897   2898   2907   2911     1  0.0000000  0.6508444  3
   2897   2901   2904   2910     1  0.0000000  0.6508444  3
   2898   2897   2901   2904     1  180.0000771  2.0083200  2
   2898   2897   2901   2904     1  0.0000000  1.2552000  3
   2898   2907   2911   2913     1  180.0000771  0.0000000  2
   2898   2907   2911   4349     1  0.0000000  0.2928800  2
   2898   2907   2911   4349     1  0.0000000  0.4184000  4
   2901   2897   2898   2907     1  180.0000771  2.0083200  2
   2901   2897   2898   2907     1  0.0000000  1.2552000  3
   2901   2904   2910   4338     1  0.0000000  0.2928800  2
   2901   2904   2910   4338     1  0.0000000  0.4184000  4
   2901   2904   2910   2912     1  180.0000771  0.0000000  2
   2904   2910   4338   4329     1  180.0000771  6.2760000  1
   2904   2910   4338   4329     1  0.0000000  0.0000000  2
   2907   2911   4349   4340     1  180.0000771  6.2760000  1
   2907   2911   4349   4340     1  0.0000000  0.0000000  2
   2910   4338   4329   4332     1  0.0000000  2.2175200  1
   2910   4338   4329   4332     1  0.0000000  0.0000000  2
   2910   4338   4329   4332     1  180.0000771  0.6276000  3
   2910   4338   4329   4332     1  180.0000771  2.0920000  4
   2911   4349   4340   4343     1  0.0000000  2.2175200  1
   2911   4349   4340   4343     1  0.0000000  0.0000000  2
   2911   4349   4340   4343     1  180.0000771  0.6276000  3
   2911   4349   4340   4343     1  180.0000771  2.0920000  4
   2912   2910   4338   4329     1  180.0000771  10.4600000  2
   2913   2911   4349   4340     1  180.0000771  10.4600000  2
   2916   2922   2923   2932     1  180.0000771  2.0083200  2
   2916   2922   2923   2932     1  0.0000000  1.2552000  3
   2916   2922   2926   2929     1  180.0000771  2.0083200  2
   2916   2922   2926   2929     1  0.0000000  1.2552000  3
   2919   2916   2922   2923     1  180.0000771  2.0083200  2
   2919   2916   2922   2923     1  0.0000000  1.2552000  3
   2919   2916   2922   2926     1  180.0000771  2.0083200  2
   2919   2916   2922   2926     1  0.0000000  1.2552000  3
   2922   2916   2919   2939     1  0.0000000  0.6508444  3
   2922   2923   2932   2936     1  0.0000000  0.6508444  3
   2922   2926   2929   2935     1  0.0000000  0.6508444  3
   2923   2922   2926   2929     1  180.0000771  2.0083200  2
   2923   2922   2926   2929     1  0.0000000  1.2552000  3
   2923   2932   2936   2938     1  180.0000771  0.0000000  2
   2923   2932   2936   4371     1  0.0000000  0.2928800  2
   2923   2932   2936   4371     1  0.0000000  0.4184000  4
   2926   2922   2923   2932     1  180.0000771  2.0083200  2
   2926   2922   2923   2932     1  0.0000000  1.2552000  3
   2926   2929   2935   4360     1  0.0000000  0.2928800  2
   2926   2929   2935   4360     1  0.0000000  0.4184000  4
   2926   2929   2935   2937     1  180.0000771  0.0000000  2
   2929   2935   4360   4351     1  180.0000771  6.2760000  1
   2929   2935   4360   4351     1  0.0000000  0.0000000  2
   2932   2936   4371   4362     1  180.0000771  6.2760000  1
   2932   2936   4371   4362     1  0.0000000  0.0000000  2
   2935   4360   4351   4354     1  0.0000000  2.2175200  1
   2935   4360   4351   4354     1  0.0000000  0.0000000  2
   2935   4360   4351   4354     1  180.0000771  0.6276000  3
   2935   4360   4351   4354     1  180.0000771  2.0920000  4
   2936   4371   4362   4365     1  0.0000000  2.2175200  1
   2936   4371   4362   4365     1  0.0000000  0.0000000  2
   2936   4371   4362   4365     1  180.0000771  0.6276000  3
   2936   4371   4362   4365     1  180.0000771  2.0920000  4
   2937   2935   4360   4351     1  180.0000771  10.4600000  2
   2938   2936   4371   4362     1  180.0000771  10.4600000  2
   2941   2947   2948   2957     1  180.0000771  2.0083200  2
   2941   2947   2948   2957     1  0.0000000  1.2552000  3
   2941   2947   2951   2954     1  180.0000771  2.0083200  2
   2941   2947   2951   2954     1  0.0000000  1.2552000  3
   2944   2941   2947   2948     1  180.0000771  2.0083200  2
   2944   2941   2947   2948     1  0.0000000  1.2552000  3
   2944   2941   2947   2951     1  180.0000771  2.0083200  2
   2944   2941   2947   2951     1  0.0000000  1.2552000  3
   2947   2941   2944   2964     1  0.0000000  0.6508444  3
   2947   2948   2957   2961     1  0.0000000  0.6508444  3
   2947   2951   2954   2960     1  0.0000000  0.6508444  3
   2948   2947   2951   2954     1  180.0000771  2.0083200  2
   2948   2947   2951   2954     1  0.0000000  1.2552000  3
   2948   2957   2961   2963     1  180.0000771  0.0000000  2
   2948   2957   2961   4393     1  0.0000000  0.2928800  2
   2948   2957   2961   4393     1  0.0000000  0.4184000  4
   2951   2947   2948   2957     1  180.0000771  2.0083200  2
   2951   2947   2948   2957     1  0.0000000  1.2552000  3
   2951   2954   2960   4382     1  0.0000000  0.2928800  2
   2951   2954   2960   4382     1  0.0000000  0.4184000  4
   2951   2954   2960   2962     1  180.0000771  0.0000000  2
   2954   2960   4382   4373     1  180.0000771  6.2760000  1
   2954   2960   4382   4373     1  0.0000000  0.0000000  2
   2957   2961   4393   4384     1  180.0000771  6.2760000  1
   2957   2961   4393   4384     1  0.0000000  0.0000000  2
   2960   4382   4373   4376     1  0.0000000  2.2175200  1
   2960   4382   4373   4376     1  0.0000000  0.0000000  2
   2960   4382   4373   4376     1  180.0000771  0.6276000  3
   2960   4382   4373   4376     1  180.0000771  2.0920000  4
   2961   4393   4384   4387     1  0.0000000  2.2175200  1
   2961   4393   4384   4387     1  0.0000000  0.0000000  2
   2961   4393   4384   4387     1  180.0000771  0.6276000  3
   2961   4393   4384   4387     1  180.0000771  2.0920000  4
   2962   2960   4382   4373     1  180.0000771  10.4600000  2
   2963   2961   4393   4384     1  180.0000771  10.4600000  2
   2966   2972   2973   2982     1  180.0000771  2.0083200  2
   2966   2972   2973   2982     1  0.0000000  1.2552000  3
   2966   2972   2976   2979     1  180.0000771  2.0083200  2
   2966   2972   2976   2979     1  0.0000000  1.2552000  3
   2969   2966   2972   2973     1  180.0000771  2.0083200  2
   2969   2966   2972   2973     1  0.0000000  1.2552000  3
   2969   2966   2972   2976     1  180.0000771  2.0083200  2
   2969   2966   2972   2976     1  0.0000000  1.2552000  3
   2972   2966   2969   2989     1  0.0000000  0.6508444  3
   2972   2973   2982   2986     1  0.0000000  0.6508444  3
   2972   2976   2979   2985     1  0.0000000  0.6508444  3
   2973   2972   2976   2979     1  180.0000771  2.0083200  2
   2973   2972   2976   2979     1  0.0000000  1.2552000  3
   2973   2982   2986   2988     1  180.0000771  0.0000000  2
   2973   2982   2986   4415     1  0.0000000  0.2928800  2
   2973   2982   2986   4415     1  0.0000000  0.4184000  4
   2976   2972   2973   2982     1  180.0000771  2.0083200  2
   2976   2972   2973   2982     1  0.0000000  1.2552000  3
   2976   2979   2985   4404     1  0.0000000  0.2928800  2
   2976   2979   2985   4404     1  0.0000000  0.4184000  4
   2976   2979   2985   2987     1  180.0000771  0.0000000  2
   2979   2985   4404   4395     1  180.0000771  6.2760000  1
   2979   2985   4404   4395     1  0.0000000  0.0000000  2
   2982   2986   4415   4406     1  180.0000771  6.2760000  1
   2982   2986   4415   4406     1  0.0000000  0.0000000  2
   2985   4404   4395   4398     1  0.0000000  2.2175200  1
   2985   4404   4395   4398     1  0.0000000  0.0000000  2
   2985   4404   4395   4398     1  180.0000771  0.6276000  3
   2985   4404   4395   4398     1  180.0000771  2.0920000  4
   2986   4415   4406   4409     1  0.0000000  2.2175200  1
   2986   4415   4406   4409     1  0.0000000  0.0000000  2
   2986   4415   4406   4409     1  180.0000771  0.6276000  3
   2986   4415   4406   4409     1  180.0000771  2.0920000  4
   2987   2985   4404   4395     1  180.0000771  10.4600000  2
   2988   2986   4415   4406     1  180.0000771  10.4600000  2
   2991   2997   2998   3007     1  180.0000771  2.0083200  2
   2991   2997   2998   3007     1  0.0000000  1.2552000  3
   2991   2997   3001   3004     1  180.0000771  2.0083200  2
   2991   2997   3001   3004     1  0.0000000  1.2552000  3
   2994   2991   2997   2998     1  180.0000771  2.0083200  2
   2994   2991   2997   2998     1  0.0000000  1.2552000  3
   2994   2991   2997   3001     1  180.0000771  2.0083200  2
   2994   2991   2997   3001     1  0.0000000  1.2552000  3
   2997   2991   2994   3014     1  0.0000000  0.6508444  3
   2997   2998   3007   3011     1  0.0000000  0.6508444  3
   2997   3001   3004   3010     1  0.0000000  0.6508444  3
   2998   2997   3001   3004     1  180.0000771  2.0083200  2
   2998   2997   3001   3004     1  0.0000000  1.2552000  3
   2998   3007   3011   3013     1  180.0000771  0.0000000  2
   2998   3007   3011   4437     1  0.0000000  0.2928800  2
   2998   3007   3011   4437     1  0.0000000  0.4184000  4
   3001   2997   2998   3007     1  180.0000771  2.0083200  2
   3001   2997   2998   3007     1  0.0000000  1.2552000  3
   3001   3004   3010   4426     1  0.0000000  0.2928800  2
   3001   3004   3010   4426     1  0.0000000  0.4184000  4
   3001   3004   3010   3012     1  180.0000771  0.0000000  2
   3004   3010   4426   4417     1  180.0000771  6.2760000  1
   3004   3010   4426   4417     1  0.0000000  0.0000000  2
   3007   3011   4437   4428     1  180.0000771  6.2760000  1
   3007   3011   4437   4428     1  0.0000000  0.0000000  2
   3010   4426   4417   4420     1  0.0000000  2.2175200  1
   3010   4426   4417   4420     1  0.0000000  0.0000000  2
   3010   4426   4417   4420     1  180.0000771  0.6276000  3
   3010   4426   4417   4420     1  180.0000771  2.0920000  4
   3011   4437   4428   4431     1  0.0000000  2.2175200  1
   3011   4437   4428   4431     1  0.0000000  0.0000000  2
   3011   4437   4428   4431     1  180.0000771  0.6276000  3
   3011   4437   4428   4431     1  180.0000771  2.0920000  4
   3012   3010   4426   4417     1  180.0000771  10.4600000  2
   3013   3011   4437   4428     1  180.0000771  10.4600000  2
   3016   3022   3023   3032     1  180.0000771  2.0083200  2
   3016   3022   3023   3032     1  0.0000000  1.2552000  3
   3016   3022   3026   3029     1  180.0000771  2.0083200  2
   3016   3022   3026   3029     1  0.0000000  1.2552000  3
   3019   3016   3022   3023     1  180.0000771  2.0083200  2
   3019   3016   3022   3023     1  0.0000000  1.2552000  3
   3019   3016   3022   3026     1  180.0000771  2.0083200  2
   3019   3016   3022   3026     1  0.0000000  1.2552000  3
   3022   3016   3019   3039     1  0.0000000  0.6508444  3
   3022   3023   3032   3036     1  0.0000000  0.6508444  3
   3022   3026   3029   3035     1  0.0000000  0.6508444  3
   3023   3022   3026   3029     1  180.0000771  2.0083200  2
   3023   3022   3026   3029     1  0.0000000  1.2552000  3
   3023   3032   3036   3038     1  180.0000771  0.0000000  2
   3023   3032   3036   4459     1  0.0000000  0.2928800  2
   3023   3032   3036   4459     1  0.0000000  0.4184000  4
   3026   3022   3023   3032     1  180.0000771  2.0083200  2
   3026   3022   3023   3032     1  0.0000000  1.2552000  3
   3026   3029   3035   4448     1  0.0000000  0.2928800  2
   3026   3029   3035   4448     1  0.0000000  0.4184000  4
   3026   3029   3035   3037     1  180.0000771  0.0000000  2
   3029   3035   4448   4439     1  180.0000771  6.2760000  1
   3029   3035   4448   4439     1  0.0000000  0.0000000  2
   3032   3036   4459   4450     1  180.0000771  6.2760000  1
   3032   3036   4459   4450     1  0.0000000  0.0000000  2
   3035   4448   4439   4442     1  0.0000000  2.2175200  1
   3035   4448   4439   4442     1  0.0000000  0.0000000  2
   3035   4448   4439   4442     1  180.0000771  0.6276000  3
   3035   4448   4439   4442     1  180.0000771  2.0920000  4
   3036   4459   4450   4453     1  0.0000000  2.2175200  1
   3036   4459   4450   4453     1  0.0000000  0.0000000  2
   3036   4459   4450   4453     1  180.0000771  0.6276000  3
   3036   4459   4450   4453     1  180.0000771  2.0920000  4
   3037   3035   4448   4439     1  180.0000771  10.4600000  2
   3038   3036   4459   4450     1  180.0000771  10.4600000  2
   3041   3047   3048   3057     1  180.0000771  2.0083200  2
   3041   3047   3048   3057     1  0.0000000  1.2552000  3
   3041   3047   3051   3054     1  180.0000771  2.0083200  2
   3041   3047   3051   3054     1  0.0000000  1.2552000  3
   3044   3041   3047   3048     1  180.0000771  2.0083200  2
   3044   3041   3047   3048     1  0.0000000  1.2552000  3
   3044   3041   3047   3051     1  180.0000771  2.0083200  2
   3044   3041   3047   3051     1  0.0000000  1.2552000  3
   3047   3041   3044   3064     1  0.0000000  0.6508444  3
   3047   3048   3057   3061     1  0.0000000  0.6508444  3
   3047   3051   3054   3060     1  0.0000000  0.6508444  3
   3048   3047   3051   3054     1  180.0000771  2.0083200  2
   3048   3047   3051   3054     1  0.0000000  1.2552000  3
   3048   3057   3061   3063     1  180.0000771  0.0000000  2
   3048   3057   3061   4481     1  0.0000000  0.2928800  2
   3048   3057   3061   4481     1  0.0000000  0.4184000  4
   3051   3047   3048   3057     1  180.0000771  2.0083200  2
   3051   3047   3048   3057     1  0.0000000  1.2552000  3
   3051   3054   3060   4470     1  0.0000000  0.2928800  2
   3051   3054   3060   4470     1  0.0000000  0.4184000  4
   3051   3054   3060   3062     1  180.0000771  0.0000000  2
   3054   3060   4470   4461     1  180.0000771  6.2760000  1
   3054   3060   4470   4461     1  0.0000000  0.0000000  2
   3057   3061   4481   4472     1  180.0000771  6.2760000  1
   3057   3061   4481   4472     1  0.0000000  0.0000000  2
   3060   4470   4461   4464     1  0.0000000  2.2175200  1
   3060   4470   4461   4464     1  0.0000000  0.0000000  2
   3060   4470   4461   4464     1  180.0000771  0.6276000  3
   3060   4470   4461   4464     1  180.0000771  2.0920000  4
   3061   4481   4472   4475     1  0.0000000  2.2175200  1
   3061   4481   4472   4475     1  0.0000000  0.0000000  2
   3061   4481   4472   4475     1  180.0000771  0.6276000  3
   3061   4481   4472   4475     1  180.0000771  2.0920000  4
   3062   3060   4470   4461     1  180.0000771  10.4600000  2
   3063   3061   4481   4472     1  180.0000771  10.4600000  2
   3066   3072   3073   3082     1  180.0000771  2.0083200  2
   3066   3072   3073   3082     1  0.0000000  1.2552000  3
   3066   3072   3076   3079     1  180.0000771  2.0083200  2
   3066   3072   3076   3079     1  0.0000000  1.2552000  3
   3069   3066   3072   3073     1  180.0000771  2.0083200  2
   3069   3066   3072   3073     1  0.0000000  1.2552000  3
   3069   3066   3072   3076     1  180.0000771  2.0083200  2
   3069   3066   3072   3076     1  0.0000000  1.2552000  3
   3072   3066   3069   3089     1  0.0000000  0.6508444  3
   3072   3073   3082   3086     1  0.0000000  0.6508444  3
   3072   3076   3079   3085     1  0.0000000  0.6508444  3
   3073   3072   3076   3079     1  180.0000771  2.0083200  2
   3073   3072   3076   3079     1  0.0000000  1.2552000  3
   3073   3082   3086   3088     1  180.0000771  0.0000000  2
   3073   3082   3086   4503     1  0.0000000  0.2928800  2
   3073   3082   3086   4503     1  0.0000000  0.4184000  4
   3076   3072   3073   3082     1  180.0000771  2.0083200  2
   3076   3072   3073   3082     1  0.0000000  1.2552000  3
   3076   3079   3085   4492     1  0.0000000  0.2928800  2
   3076   3079   3085   4492     1  0.0000000  0.4184000  4
   3076   3079   3085   3087     1  180.0000771  0.0000000  2
   3079   3085   4492   4483     1  180.0000771  6.2760000  1
   3079   3085   4492   4483     1  0.0000000  0.0000000  2
   3082   3086   4503   4494     1  180.0000771  6.2760000  1
   3082   3086   4503   4494     1  0.0000000  0.0000000  2
   3085   4492   4483   4486     1  0.0000000  2.2175200  1
   3085   4492   4483   4486     1  0.0000000  0.0000000  2
   3085   4492   4483   4486     1  180.0000771  0.6276000  3
   3085   4492   4483   4486     1  180.0000771  2.0920000  4
   3086   4503   4494   4497     1  0.0000000  2.2175200  1
   3086   4503   4494   4497     1  0.0000000  0.0000000  2
   3086   4503   4494   4497     1  180.0000771  0.6276000  3
   3086   4503   4494   4497     1  180.0000771  2.0920000  4
   3087   3085   4492   4483     1  180.0000771  10.4600000  2
   3088   3086   4503   4494     1  180.0000771  10.4600000  2
   3091   3097   3098   3107     1  180.0000771  2.0083200  2
   3091   3097   3098   3107     1  0.0000000  1.2552000  3
   3091   3097   3101   3104     1  180.0000771  2.0083200  2
   3091   3097   3101   3104     1  0.0000000  1.2552000  3
   3094   3091   3097   3098     1  180.0000771  2.0083200  2
   3094   3091   3097   3098     1  0.0000000  1.2552000  3
   3094   3091   3097   3101     1  180.0000771  2.0083200  2
   3094   3091   3097   3101     1  0.0000000  1.2552000  3
   3097   3091   3094   3114     1  0.0000000  0.6508444  3
   3097   3098   3107   3111     1  0.0000000  0.6508444  3
   3097   3101   3104   3110     1  0.0000000  0.6508444  3
   3098   3097   3101   3104     1  180.0000771  2.0083200  2
   3098   3097   3101   3104     1  0.0000000  1.2552000  3
   3098   3107   3111   3113     1  180.0000771  0.0000000  2
   3098   3107   3111   4525     1  0.0000000  0.2928800  2
   3098   3107   3111   4525     1  0.0000000  0.4184000  4
   3101   3097   3098   3107     1  180.0000771  2.0083200  2
   3101   3097   3098   3107     1  0.0000000  1.2552000  3
   3101   3104   3110   4514     1  0.0000000  0.2928800  2
   3101   3104   3110   4514     1  0.0000000  0.4184000  4
   3101   3104   3110   3112     1  180.0000771  0.0000000  2
   3104   3110   4514   4505     1  180.0000771  6.2760000  1
   3104   3110   4514   4505     1  0.0000000  0.0000000  2
   3107   3111   4525   4516     1  180.0000771  6.2760000  1
   3107   3111   4525   4516     1  0.0000000  0.0000000  2
   3110   4514   4505   4508     1  0.0000000  2.2175200  1
   3110   4514   4505   4508     1  0.0000000  0.0000000  2
   3110   4514   4505   4508     1  180.0000771  0.6276000  3
   3110   4514   4505   4508     1  180.0000771  2.0920000  4
   3111   4525   4516   4519     1  0.0000000  2.2175200  1
   3111   4525   4516   4519     1  0.0000000  0.0000000  2
   3111   4525   4516   4519     1  180.0000771  0.6276000  3
   3111   4525   4516   4519     1  180.0000771  2.0920000  4
   3112   3110   4514   4505     1  180.0000771  10.4600000  2
   3113   3111   4525   4516     1  180.0000771  10.4600000  2
   3116   3122   3123   3132     1  180.0000771  2.0083200  2
   3116   3122   3123   3132     1  0.0000000  1.2552000  3
   3116   3122   3126   3129     1  180.0000771  2.0083200  2
   3116   3122   3126   3129     1  0.0000000  1.2552000  3
   3119   3116   3122   3123     1  180.0000771  2.0083200  2
   3119   3116   3122   3123     1  0.0000000  1.2552000  3
   3119   3116   3122   3126     1  180.0000771  2.0083200  2
   3119   3116   3122   3126     1  0.0000000  1.2552000  3
   3122   3116   3119   3139     1  0.0000000  0.6508444  3
   3122   3123   3132   3136     1  0.0000000  0.6508444  3
   3122   3126   3129   3135     1  0.0000000  0.6508444  3
   3123   3122   3126   3129     1  180.0000771  2.0083200  2
   3123   3122   3126   3129     1  0.0000000  1.2552000  3
   3123   3132   3136   4547     1  0.0000000  0.2928800  2
   3123   3132   3136   4547     1  0.0000000  0.4184000  4
   3123   3132   3136   3138     1  180.0000771  0.0000000  2
   3126   3122   3123   3132     1  180.0000771  2.0083200  2
   3126   3122   3123   3132     1  0.0000000  1.2552000  3
   3126   3129   3135   4536     1  0.0000000  0.2928800  2
   3126   3129   3135   4536     1  0.0000000  0.4184000  4
   3126   3129   3135   3137     1  180.0000771  0.0000000  2
   3129   3135   4536   4527     1  180.0000771  6.2760000  1
   3129   3135   4536   4527     1  0.0000000  0.0000000  2
   3132   3136   4547   4538     1  180.0000771  6.2760000  1
   3132   3136   4547   4538     1  0.0000000  0.0000000  2
   3135   4536   4527   4530     1  0.0000000  2.2175200  1
   3135   4536   4527   4530     1  0.0000000  0.0000000  2
   3135   4536   4527   4530     1  180.0000771  0.6276000  3
   3135   4536   4527   4530     1  180.0000771  2.0920000  4
   3136   4547   4538   4541     1  0.0000000  2.2175200  1
   3136   4547   4538   4541     1  0.0000000  0.0000000  2
   3136   4547   4538   4541     1  180.0000771  0.6276000  3
   3136   4547   4538   4541     1  180.0000771  2.0920000  4
   3137   3135   4536   4527     1  180.0000771  10.4600000  2
   3138   3136   4547   4538     1  180.0000771  10.4600000  2
   3147   3144   3141   3150     1  0.0000000  0.6508444  3
   3158   3155   3152   3161     1  0.0000000  0.6508444  3
   3169   3166   3163   3172     1  0.0000000  0.6508444  3
   3180   3177   3174   3183     1  0.0000000  0.6508444  3
   3191   3188   3185   3194     1  0.0000000  0.6508444  3
   3202   3199   3196   3205     1  0.0000000  0.6508444  3
   3213   3210   3207   3216     1  0.0000000  0.6508444  3
   3224   3221   3218   3227     1  0.0000000  0.6508444  3
   3235   3232   3229   3238     1  0.0000000  0.6508444  3
   3246   3243   3240   3249     1  0.0000000  0.6508444  3
   3257   3254   3251   3260     1  0.0000000  0.6508444  3
   3268   3265   3262   3271     1  0.0000000  0.6508444  3
   3279   3276   3273   3282     1  0.0000000  0.6508444  3
   3290   3287   3284   3293     1  0.0000000  0.6508444  3
   3301   3298   3295   3304     1  0.0000000  0.6508444  3
   3312   3309   3306   3315     1  0.0000000  0.6508444  3
   3323   3320   3317   3326     1  0.0000000  0.6508444  3
   3334   3331   3328   3337     1  0.0000000  0.6508444  3
   3345   3342   3339   3348     1  0.0000000  0.6508444  3
   3356   3353   3350   3359     1  0.0000000  0.6508444  3
   3367   3364   3361   3370     1  0.0000000  0.6508444  3
   3378   3375   3372   3381     1  0.0000000  0.6508444  3
   3389   3386   3383   3392     1  0.0000000  0.6508444  3
   3400   3397   3394   3403     1  0.0000000  0.6508444  3
   3411   3408   3405   3414     1  0.0000000  0.6508444  3
   3422   3419   3416   3425     1  0.0000000  0.6508444  3
   3433   3430   3427   3436     1  0.0000000  0.6508444  3
   3444   3441   3438   3447     1  0.0000000  0.6508444  3
   3455   3452   3449   3458     1  0.0000000  0.6508444  3
   3466   3463   3460   3469     1  0.0000000  0.6508444  3
   3477   3474   3471   3480     1  0.0000000  0.6508444  3
   3488   3485   3482   3491     1  0.0000000  0.6508444  3
   3499   3496   3493   3502     1  0.0000000  0.6508444  3
   3510   3507   3504   3513     1  0.0000000  0.6508444  3
   3521   3518   3515   3524     1  0.0000000  0.6508444  3
   3532   3529   3526   3535     1  0.0000000  0.6508444  3
   3543   3540   3537   3546     1  0.0000000  0.6508444  3
   3554   3551   3548   3557     1  0.0000000  0.6508444  3
   3565   3562   3559   3568     1  0.0000000  0.6508444  3
   3576   3573   3570   3579     1  0.0000000  0.6508444  3
   3587   3584   3581   3590     1  0.0000000  0.6508444  3
   3598   3595   3592   3601     1  0.0000000  0.6508444  3
   3609   3606   3603   3612     1  0.0000000  0.6508444  3
   3620   3617   3614   3623     1  0.0000000  0.6508444  3
   3631   3628   3625   3634     1  0.0000000  0.6508444  3
   3642   3639   3636   3645     1  0.0000000  0.6508444  3
   3653   3650   3647   3656     1  0.0000000  0.6508444  3
   3664   3661   3658   3667     1  0.0000000  0.6508444  3
   3675   3672   3669   3678     1  0.0000000  0.6508444  3
   3686   3683   3680   3689     1  0.0000000  0.6508444  3
   3697   3694   3691   3700     1  0.0000000  0.6508444  3
   3708   3705   3702   3711     1  0.0000000  0.6508444  3
   3719   3716   3713   3722     1  0.0000000  0.6508444  3
   3730   3727   3724   3733     1  0.0000000  0.6508444  3
   3741   3738   3735   3744     1  0.0000000  0.6508444  3
   3752   3749   3746   3755     1  0.0000000  0.6508444  3
   3763   3760   3757   3766     1  0.0000000  0.6508444  3
   3774   3771   3768   3777     1  0.0000000  0.6508444  3
   3785   3782   3779   3788     1  0.0000000  0.6508444  3
   3796   3793   3790   3799     1  0.0000000  0.6508444  3
   3807   3804   3801   3810     1  0.0000000  0.6508444  3
   3818   3815   3812   3821     1  0.0000000  0.6508444  3
   3829   3826   3823   3832     1  0.0000000  0.6508444  3
   3840   3837   3834   3843     1  0.0000000  0.6508444  3
   3851   3848   3845   3854     1  0.0000000  0.6508444  3
   3862   3859   3856   3865     1  0.0000000  0.6508444  3
   3873   3870   3867   3876     1  0.0000000  0.6508444  3
   3884   3881   3878   3887     1  0.0000000  0.6508444  3
   3895   3892   3889   3898     1  0.0000000  0.6508444  3
   3906   3903   3900   3909     1  0.0000000  0.6508444  3
   3917   3914   3911   3920     1  0.0000000  0.6508444  3
   3928   3925   3922   3931     1  0.0000000  0.6508444  3
   3939   3936   3933   3942     1  0.0000000  0.6508444  3
   3950   3947   3944   3953     1  0.0000000  0.6508444  3
   3961   3958   3955   3964     1  0.0000000  0.6508444  3
   3972   3969   3966   3975     1  0.0000000  0.6508444  3
   3983   3980   3977   3986     1  0.0000000  0.6508444  3
   3994   3991   3988   3997     1  0.0000000  0.6508444  3
   4005   4002   3999   4008     1  0.0000000  0.6508444  3
   4016   4013   4010   4019     1  0.0000000  0.6508444  3
   4027   4024   4021   4030     1  0.0000000  0.6508444  3
   4038   4035   4032   4041     1  0.0000000  0.6508444  3
   4049   4046   4043   4052     1  0.0000000  0.6508444  3
   4060   4057   4054   4063     1  0.0000000  0.6508444  3
   4071   4068   4065   4074     1  0.0000000  0.6508444  3
   4082   4079   4076   4085     1  0.0000000  0.6508444  3
   4093   4090   4087   4096     1  0.0000000  0.6508444  3
   4104   4101   4098   4107     1  0.0000000  0.6508444  3
   4115   4112   4109   4118     1  0.0000000  0.6508444  3
   4126   4123   4120   4129     1  0.0000000  0.6508444  3
   4137   4134   4131   4140     1  0.0000000  0.6508444  3
   4148   4145   4142   4151     1  0.0000000  0.6508444  3
   4159   4156   4153   4162     1  0.0000000  0.6508444  3
   4170   4167   4164   4173     1  0.0000000  0.6508444  3
   4181   4178   4175   4184     1  0.0000000  0.6508444  3
   4192   4189   4186   4195     1  0.0000000  0.6508444  3
   4203   4200   4197   4206     1  0.0000000  0.6508444  3
   4214   4211   4208   4217     1  0.0000000  0.6508444  3
   4225   4222   4219   4228     1  0.0000000  0.6508444  3
   4236   4233   4230   4239     1  0.0000000  0.6508444  3
   4247   4244   4241   4250     1  0.0000000  0.6508444  3
   4258   4255   4252   4261     1  0.0000000  0.6508444  3
   4269   4266   4263   4272     1  0.0000000  0.6508444  3
   4280   4277   4274   4283     1  0.0000000  0.6508444  3
   4291   4288   4285   4294     1  0.0000000  0.6508444  3
   4302   4299   4296   4305     1  0.0000000  0.6508444  3
   4313   4310   4307   4316     1  0.0000000  0.6508444  3
   4324   4321   4318   4327     1  0.0000000  0.6508444  3
   4335   4332   4329   4338     1  0.0000000  0.6508444  3
   4346   4343   4340   4349     1  0.0000000  0.6508444  3
   4357   4354   4351   4360     1  0.0000000  0.6508444  3
   4368   4365   4362   4371     1  0.0000000  0.6508444  3
   4379   4376   4373   4382     1  0.0000000  0.6508444  3
   4390   4387   4384   4393     1  0.0000000  0.6508444  3
   4401   4398   4395   4404     1  0.0000000  0.6508444  3
   4412   4409   4406   4415     1  0.0000000  0.6508444  3
   4423   4420   4417   4426     1  0.0000000  0.6508444  3
   4434   4431   4428   4437     1  0.0000000  0.6508444  3
   4445   4442   4439   4448     1  0.0000000  0.6508444  3
   4456   4453   4450   4459     1  0.0000000  0.6508444  3
   4467   4464   4461   4470     1  0.0000000  0.6508444  3
   4478   4475   4472   4481     1  0.0000000  0.6508444  3
   4489   4486   4483   4492     1  0.0000000  0.6508444  3
   4500   4497   4494   4503     1  0.0000000  0.6508444  3
   4511   4508   4505   4514     1  0.0000000  0.6508444  3
   4522   4519   4516   4525     1  0.0000000  0.6508444  3
   4533   4530   4527   4536     1  0.0000000  0.6508444  3
   4544   4541   4538   4547     1  0.0000000  0.6508444  3
     27     64     33     37     4  180.0000771  43.9320000  2
     30     89     34     40     4  180.0000771  43.9320000  2
     21    114     35     38     4  180.0000771  43.9320000  2
     24    139     36     39     4  180.0000771  43.9320000  2
     54    164     60     62     4  180.0000771  43.9320000  2
     57    189     61     63     4  180.0000771  43.9320000  2
     79    214     85     87     4  180.0000771  43.9320000  2
     82    239     86     88     4  180.0000771  43.9320000  2
    104    264    110    112     4  180.0000771  43.9320000  2
    107    289    111    113     4  180.0000771  43.9320000  2
    129    314    135    137     4  180.0000771  43.9320000  2
    132    339    136    138     4  180.0000771  43.9320000  2
    154    364    160    162     4  180.0000771  43.9320000  2
    157    389    161    163     4  180.0000771  43.9320000  2
    179    414    185    187     4  180.0000771  43.9320000  2
    182    439    186    188     4  180.0000771  43.9320000  2
    204    464    210    212     4  180.0000771  43.9320000  2
    207    489    211    213     4  180.0000771  43.9320000  2
    229    514    235    237     4  180.0000771  43.9320000  2
    232    539    236    238     4  180.0000771  43.9320000  2
    254    564    260    262     4  180.0000771  43.9320000  2
    257    589    261    263     4  180.0000771  43.9320000  2
    279    614    285    287     4  180.0000771  43.9320000  2
    282    639    286    288     4  180.0000771  43.9320000  2
    304    664    310    312     4  180.0000771  43.9320000  2
    307    689    311    313     4  180.0000771  43.9320000  2
    329    714    335    337     4  180.0000771  43.9320000  2
    332    739    336    338     4  180.0000771  43.9320000  2
    354    764    360    362     4  180.0000771  43.9320000  2
    357    789    361    363     4  180.0000771  43.9320000  2
    379    814    385    387     4  180.0000771  43.9320000  2
    382    839    386    388     4  180.0000771  43.9320000  2
    404    864    410    412     4  180.0000771  43.9320000  2
    407    889    411    413     4  180.0000771  43.9320000  2
    429    914    435    437     4  180.0000771  43.9320000  2
    432    939    436    438     4  180.0000771  43.9320000  2
    454    964    460    462     4  180.0000771  43.9320000  2
    457    989    461    463     4  180.0000771  43.9320000  2
    479   1014    485    487     4  180.0000771  43.9320000  2
    482   1039    486    488     4  180.0000771  43.9320000  2
    504   1064    510    512     4  180.0000771  43.9320000  2
    507   1089    511    513     4  180.0000771  43.9320000  2
    529   1114    535    537     4  180.0000771  43.9320000  2
    532   1139    536    538     4  180.0000771  43.9320000  2
    554   1164    560    562     4  180.0000771  43.9320000  2
    557   1189    561    563     4  180.0000771  43.9320000  2
    579   1214    585    587     4  180.0000771  43.9320000  2
    582   1239    586    588     4  180.0000771  43.9320000  2
    604   1264    610    612     4  180.0000771  43.9320000  2
    607   1289    611    613     4  180.0000771  43.9320000  2
    629   1314    635    637     4  180.0000771  43.9320000  2
    632   1339    636    638     4  180.0000771  43.9320000  2
    654   1364    660    662     4  180.0000771  43.9320000  2
    657   1389    661    663     4  180.0000771  43.9320000  2
    679   1414    685    687     4  180.0000771  43.9320000  2
    682   1439    686    688     4  180.0000771  43.9320000  2
    704   1464    710    712     4  180.0000771  43.9320000  2
    707   1489    711    713     4  180.0000771  43.9320000  2
    729   1514    735    737     4  180.0000771  43.9320000  2
    732   1539    736    738     4  180.0000771  43.9320000  2
    754   1564    760    762     4  180.0000771  43.9320000  2
    757   1589    761    763     4  180.0000771  43.9320000  2
    779   1614    785    787     4  180.0000771  43.9320000  2
    782   1639    786    788     4  180.0000771  43.9320000  2
    804   1664    810    812     4  180.0000771  43.9320000  2
    807   1689    811    813     4  180.0000771  43.9320000  2
    829   1714    835    837     4  180.0000771  43.9320000  2
    832   1739    836    838     4  180.0000771  43.9320000  2
    854   1764    860    862     4  180.0000771  43.9320000  2
    857   1789    861    863     4  180.0000771  43.9320000  2
    879   1814    885    887     4  180.0000771  43.9320000  2
    882   1839    886    888     4  180.0000771  43.9320000  2
    904   1864    910    912     4  180.0000771  43.9320000  2
    907   1889    911    913     4  180.0000771  43.9320000  2
    929   1914    935    937     4  180.0000771  43.9320000  2
    932   1939    936    938     4  180.0000771  43.9320000  2
    954   1964    960    962     4  180.0000771  43.9320000  2
    957   1989    961    963     4  180.0000771  43.9320000  2
    979   2014    985    987     4  180.0000771  43.9320000  2
    982   2039    986    988     4  180.0000771  43.9320000  2
   1004   2064   1010   1012     4  180.0000771  43.9320000  2
   1007   2089   1011   1013     4  180.0000771  43.9320000  2
   1029   2114   1035   1037     4  180.0000771  43.9320000  2
   1032   2139   1036   1038     4  180.0000771  43.9320000  2
   1054   2164   1060   1062     4  180.0000771  43.9320000  2
   1057   2189   1061   1063     4  180.0000771  43.9320000  2
   1079   2214   1085   1087     4  180.0000771  43.9320000  2
   1082   2239   1086   1088     4  180.0000771  43.9320000  2
   1104   2264   1110   1112     4  180.0000771  43.9320000  2
   1107   2289   1111   1113     4  180.0000771  43.9320000  2
   1129   2314   1135   1137     4  180.0000771  43.9320000  2
   1132   2339   1136   1138     4  180.0000771  43.9320000  2
   1154   2364   1160   1162     4  180.0000771  43.9320000  2
   1157   2389   1161   1163     4  180.0000771  43.9320000  2
   1179   2414   1185   1187     4  180.0000771  43.9320000  2
   1182   2439   1186   1188     4  180.0000771  43.9320000  2
   1204   2464   1210   1212     4  180.0000771  43.9320000  2
   1207   2489   1211   1213     4  180.0000771  43.9320000  2
   1229   2514   1235   1237     4  180.0000771  43.9320000  2
   1232   2539   1236   1238     4  180.0000771  43.9320000  2
   1254   2564   1260   1262     4  180.0000771  43.9320000  2
   1257   2589   1261   1263     4  180.0000771  43.9320000  2
   1279   2614   1285   1287     4  180.0000771  43.9320000  2
   1282   2639   1286   1288     4  180.0000771  43.9320000  2
   1304   2664   1310   1312     4  180.0000771  43.9320000  2
   1307   2689   1311   1313     4  180.0000771  43.9320000  2
   1329   2714   1335   1337     4  180.0000771  43.9320000  2
   1332   2739   1336   1338     4  180.0000771  43.9320000  2
   1354   2764   1360   1362     4  180.0000771  43.9320000  2
   1357   2789   1361   1363     4  180.0000771  43.9320000  2
   1379   2814   1385   1387     4  180.0000771  43.9320000  2
   1382   2839   1386   1388     4  180.0000771  43.9320000  2
   1404   2864   1410   1412     4  180.0000771  43.9320000  2
   1407   2889   1411   1413     4  180.0000771  43.9320000  2
   1429   2914   1435   1437     4  180.0000771  43.9320000  2
   1432   2939   1436   1438     4  180.0000771  43.9320000  2
   1454   2964   1460   1462     4  180.0000771  43.9320000  2
   1457   2989   1461   1463     4  180.0000771  43.9320000  2
   1479   3014   1485   1487     4  180.0000771  43.9320000  2
   1482   3039   1486   1488     4  180.0000771  43.9320000  2
   1504   3064   1510   1512     4  180.0000771  43.9320000  2
   1507   3089   1511   1513     4  180.0000771  43.9320000  2
   1529   3114   1535   1537     4  180.0000771  43.9320000  2
   1532   3139   1536   1538     4  180.0000771  43.9320000  2
   1554   3150   1560   1562     4  180.0000771  43.9320000  2
   1557   3161   1561   1563     4  180.0000771  43.9320000  2
   1579   3172   1585   1587     4  180.0000771  43.9320000  2
   1582   3183   1586   1588     4  180.0000771  43.9320000  2
   1604   3194   1610   1612     4  180.0000771  43.9320000  2
   1607   3205   1611   1613     4  180.0000771  43.9320000  2
   1629   3216   1635   1637     4  180.0000771  43.9320000  2
   1632   3227   1636   1638     4  180.0000771  43.9320000  2
   1654   3238   1660   1662     4  180.0000771  43.9320000  2
   1657   3249   1661   1663     4  180.0000771  43.9320000  2
   1679   3260   1685   1687     4  180.0000771  43.9320000  2
   1682   3271   1686   1688     4  180.0000771  43.9320000  2
   1704   3282   1710   1712     4  180.0000771  43.9320000  2
   1707   3293   1711   1713     4  180.0000771  43.9320000  2
   1729   3304   1735   1737     4  180.0000771  43.9320000  2
   1732   3315   1736   1738     4  180.0000771  43.9320000  2
   1754   3326   1760   1762     4  180.0000771  43.9320000  2
   1757   3337   1761   1763     4  180.0000771  43.9320000  2
   1779   3348   1785   1787     4  180.0000771  43.9320000  2
   1782   3359   1786   1788     4  180.0000771  43.9320000  2
   1804   3370   1810   1812     4  180.0000771  43.9320000  2
   1807   3381   1811   1813     4  180.0000771  43.9320000  2
   1829   3392   1835   1837     4  180.0000771  43.9320000  2
   1832   3403   1836   1838     4  180.0000771  43.9320000  2
   1854   3414   1860   1862     4  180.0000771  43.9320000  2
   1857   3425   1861   1863     4  180.0000771  43.9320000  2
   1879   3436   1885   1887     4  180.0000771  43.9320000  2
   1882   3447   1886   1888     4  180.0000771  43.9320000  2
   1904   3458   1910   1912     4  180.0000771  43.9320000  2
   1907   3469   1911   1913     4  180.0000771  43.9320000  2
   1929   3480   1935   1937     4  180.0000771  43.9320000  2
   1932   3491   1936   1938     4  180.0000771  43.9320000  2
   1954   3502   1960   1962     4  180.0000771  43.9320000  2
   1957   3513   1961   1963     4  180.0000771  43.9320000  2
   1979   3524   1985   1987     4  180.0000771  43.9320000  2
   1982   3535   1986   1988     4  180.0000771  43.9320000  2
   2004   3546   2010   2012     4  180.0000771  43.9320000  2
   2007   3557   2011   2013     4  180.0000771  43.9320000  2
   2029   3568   2035   2037     4  180.0000771  43.9320000  2
   2032   3579   2036   2038     4  180.0000771  43.9320000  2
   2054   3590   2060   2062     4  180.0000771  43.9320000  2
   2057   3601   2061   2063     4  180.0000771  43.9320000  2
   2079   3612   2085   2087     4  180.0000771  43.9320000  2
   2082   3623   2086   2088     4  180.0000771  43.9320000  2
   2104   3634   2110   2112     4  180.0000771  43.9320000  2
   2107   3645   2111   2113     4  180.0000771  43.9320000  2
   2129   3656   2135   2137     4  180.0000771  43.9320000  2
   2132   3667   2136   2138     4  180.0000771  43.9320000  2
   2154   3678   2160   2162     4  180.0000771  43.9320000  2
   2157   3689   2161   2163     4  180.0000771  43.9320000  2
   2179   3700   2185   2187     4  180.0000771  43.9320000  2
   2182   3711   2186   2188     4  180.0000771  43.9320000  2
   2204   3722   2210   2212     4  180.0000771  43.9320000  2
   2207   3733   2211   2213     4  180.0000771  43.9320000  2
   2229   3744   2235   2237     4  180.0000771  43.9320000  2
   2232   3755   2236   2238     4  180.0000771  43.9320000  2
   2254   3766   2260   2262     4  180.0000771  43.9320000  2
   2257   3777   2261   2263     4  180.0000771  43.9320000  2
   2279   3788   2285   2287     4  180.0000771  43.9320000  2
   2282   3799   2286   2288     4  180.0000771  43.9320000  2
   2304   3810   2310   2312     4  180.0000771  43.9320000  2
   2307   3821   2311   2313     4  180.0000771  43.9320000  2
   2329   3832   2335   2337     4  180.0000771  43.9320000  2
   2332   3843   2336   2338     4  180.0000771  43.9320000  2
   2354   3854   2360   2362     4  180.0000771  43.9320000  2
   2357   3865   2361   2363     4  180.0000771  43.9320000  2
   2379   3876   2385   2387     4  180.0000771  43.9320000  2
   2382   3887   2386   2388     4  180.0000771  43.9320000  2
   2404   3898   2410   2412     4  180.0000771  43.9320000  2
   2407   3909   2411   2413     4  180.0000771  43.9320000  2
   2429   3920   2435   2437     4  180.0000771  43.9320000  2
   2432   3931   2436   2438     4  180.0000771  43.9320000  2
   2454   3942   2460   2462     4  180.0000771  43.9320000  2
   2457   3953   2461   2463     4  180.0000771  43.9320000  2
   2479   3964   2485   2487     4  180.0000771  43.9320000  2
   2482   3975   2486   2488     4  180.0000771  43.9320000  2
   2504   3986   2510   2512     4  180.0000771  43.9320000  2
   2507   3997   2511   2513     4  180.0000771  43.9320000  2
   2529   4008   2535   2537     4  180.0000771  43.9320000  2
   2532   4019   2536   2538     4  180.0000771  43.9320000  2
   2554   4030   2560   2562     4  180.0000771  43.9320000  2
   2557   4041   2561   2563     4  180.0000771  43.9320000  2
   2579   4052   2585   2587     4  180.0000771  43.9320000  2
   2582   4063   2586   2588     4  180.0000771  43.9320000  2
   2604   4074   2610   2612     4  180.0000771  43.9320000  2
   2607   4085   2611   2613     4  180.0000771  43.9320000  2
   2629   4096   2635   2637     4  180.0000771  43.9320000  2
   2632   4107   2636   2638     4  180.0000771  43.9320000  2
   2654   4118   2660   2662     4  180.0000771  43.9320000  2
   2657   4129   2661   2663     4  180.0000771  43.9320000  2
   2679   4140   2685   2687     4  180.0000771  43.9320000  2
   2682   4151   2686   2688     4  180.0000771  43.9320000  2
   2704   4162   2710   2712     4  180.0000771  43.9320000  2
   2707   4173   2711   2713     4  180.0000771  43.9320000  2
   2729   4184   2735   2737     4  180.0000771  43.9320000  2
   2732   4195   2736   2738     4  180.0000771  43.9320000  2
   2754   4206   2760   2762     4  180.0000771  43.9320000  2
   2757   4217   2761   2763     4  180.0000771  43.9320000  2
   2779   4228   2785   2787     4  180.0000771  43.9320000  2
   2782   4239   2786   2788     4  180.0000771  43.9320000  2
   2804   4250   2810   2812     4  180.0000771  43.9320000  2
   2807   4261   2811   2813     4  180.0000771  43.9320000  2
   2829   4272   2835   2837     4  180.0000771  43.9320000  2
   2832   4283   2836   2838     4  180.0000771  43.9320000  2
   2854   4294   2860   2862     4  180.0000771  43.9320000  2
   2857   4305   2861   2863     4  180.0000771  43.9320000  2
   2879   4316   2885   2887     4  180.0000771  43.9320000  2
   2882   4327   2886   2888     4  180.0000771  43.9320000  2
   2904   4338   2910   2912     4  180.0000771  43.9320000  2
   2907   4349   2911   2913     4  180.0000771  43.9320000  2
   2929   4360   2935   2937     4  180.0000771  43.9320000  2
   2932   4371   2936   2938     4  180.0000771  43.9320000  2
   2954   4382   2960   2962     4  180.0000771  43.9320000  2
   2957   4393   2961   2963     4  180.0000771  43.9320000  2
   2979   4404   2985   2987     4  180.0000771  43.9320000  2
   2982   4415   2986   2988     4  180.0000771  43.9320000  2
   3004   4426   3010   3012     4  180.0000771  43.9320000  2
   3007   4437   3011   3013     4  180.0000771  43.9320000  2
   3029   4448   3035   3037     4  180.0000771  43.9320000  2
   3032   4459   3036   3038     4  180.0000771  43.9320000  2
   3054   4470   3060   3062     4  180.0000771  43.9320000  2
   3057   4481   3061   3063     4  180.0000771  43.9320000  2
   3079   4492   3085   3087     4  180.0000771  43.9320000  2
   3082   4503   3086   3088     4  180.0000771  43.9320000  2
   3104   4514   3110   3112     4  180.0000771  43.9320000  2
   3107   4525   3111   3113     4  180.0000771  43.9320000  2
   3129   4536   3135   3137     4  180.0000771  43.9320000  2
   3132   4547   3136   3138     4  180.0000771  43.9320000  2
      1      8      9     10     1  0.0000000  1.2552000  3
      1      8      9     11     1  0.0000000  1.2552000  3
      1      8     12     13     1  0.0000000  1.2552000  3
      1      8     12     14     1  0.0000000  1.2552000  3
      2      1      4      7     1  0.0000000  0.6508444  3
      2      1      4      5     1  0.0000000  0.6508444  3
      2      1      4      6     1  0.0000000  0.6508444  3
      2      1      8      9     1  0.0000000  1.2552000  3
      2      1      8     12     1  0.0000000  1.2552000  3
      3      1      4      7     1  0.0000000  0.6508444  3
      3      1      4      5     1  0.0000000  0.6508444  3
      3      1      4      6     1  0.0000000  0.6508444  3
      3      1      8      9     1  0.0000000  1.2552000  3
      3      1      8     12     1  0.0000000  1.2552000  3
      4      7     15     16     1  0.0000000  1.2552000  3
      4      7     15     17     1  0.0000000  1.2552000  3
      4      7     18     19     1  0.0000000  1.2552000  3
      4      7     18     20     1  0.0000000  1.2552000  3
      8      1      4      5     1  0.0000000  0.6508444  3
      5      4      7     15     1  0.0000000  1.2552000  3
      5      4      7     18     1  0.0000000  1.2552000  3
      8      1      4      6     1  0.0000000  0.6508444  3
      6      4      7     15     1  0.0000000  1.2552000  3
      6      4      7     18     1  0.0000000  1.2552000  3
      7     15     21     22     1  0.0000000  0.6508444  3
      7     15     21     23     1  0.0000000  0.6508444  3
      7     18     24     25     1  0.0000000  0.6508444  3
      7     18     24     26     1  0.0000000  0.6508444  3
      8      9     30     31     1  0.0000000  0.6508444  3
      8      9     30     32     1  0.0000000  0.6508444  3
      8     12     27     28     1  0.0000000  0.6508444  3
      8     12     27     29     1  0.0000000  0.6508444  3
      9      8     12     13     1  0.0000000  1.2552000  3
      9      8     12     14     1  0.0000000  1.2552000  3
     10      9      8     12     1  0.0000000  1.2552000  3
     10      9     30     34     1  0.0000000  0.6508444  3
     10      9     30     31     1  0.0000000  0.6508444  3
     10      9     30     32     1  0.0000000  0.6508444  3
     11      9      8     12     1  0.0000000  1.2552000  3
     11      9     30     34     1  0.0000000  0.6508444  3
     11      9     30     31     1  0.0000000  0.6508444  3
     11      9     30     32     1  0.0000000  0.6508444  3
     13     12     27     33     1  0.0000000  0.6508444  3
     13     12     27     28     1  0.0000000  0.6508444  3
     13     12     27     29     1  0.0000000  0.6508444  3
     14     12     27     33     1  0.0000000  0.6508444  3
     14     12     27     28     1  0.0000000  0.6508444  3
     14     12     27     29     1  0.0000000  0.6508444  3
     15      7     18     19     1  0.0000000  1.2552000  3
     15      7     18     20     1  0.0000000  1.2552000  3
     16     15      7     18     1  0.0000000  1.2552000  3
     16     15     21     35     1  0.0000000  0.6508444  3
     16     15     21     22     1  0.0000000  0.6508444  3
     16     15     21     23     1  0.0000000  0.6508444  3
     17     15      7     18     1  0.0000000  1.2552000  3
     17     15     21     35     1  0.0000000  0.6508444  3
     17     15     21     22     1  0.0000000  0.6508444  3
     17     15     21     23     1  0.0000000  0.6508444  3
     19     18     24     36     1  0.0000000  0.6508444  3
     19     18     24     25     1  0.0000000  0.6508444  3
     19     18     24     26     1  0.0000000  0.6508444  3
     20     18     24     36     1  0.0000000  0.6508444  3
     20     18     24     25     1  0.0000000  0.6508444  3
     20     18     24     26     1  0.0000000  0.6508444  3
     21     35    114    115     1  180.0000771  10.4600000  2
     22     21     35     38     1  0.0000000  3.3472000  1
     22     21     35     38     1  0.0000000  0.0000000  2
     22     21     35     38     1  180.0000771  0.3347200  3
     22     21     35    114     1  180.0000771  0.0000000  2
     23     21     35     38     1  0.0000000  3.3472000  1
     23     21     35     38     1  0.0000000  0.0000000  2
     23     21     35     38     1  180.0000771  0.3347200  3
     23     21     35    114     1  180.0000771  0.0000000  2
     24     36    139    140     1  180.0000771  10.4600000  2
     25     24     36     39     1  0.0000000  3.3472000  1
     25     24     36     39     1  0.0000000  0.0000000  2
     25     24     36     39     1  180.0000771  0.3347200  3
     25     24     36    139     1  180.0000771  0.0000000  2
     26     24     36     39     1  0.0000000  3.3472000  1
     26     24     36     39     1  0.0000000  0.0000000  2
     26     24     36     39     1  180.0000771  0.3347200  3
     26     24     36    139     1  180.0000771  0.0000000  2
     27     33     64     65     1  180.0000771  10.4600000  2
     28     27     33     37     1  0.0000000  3.3472000  1
     28     27     33     37     1  0.0000000  0.0000000  2
     28     27     33     37     1  180.0000771  0.3347200  3
     28     27     33     64     1  180.0000771  0.0000000  2
     29     27     33     37     1  0.0000000  3.3472000  1
     29     27     33     37     1  0.0000000  0.0000000  2
     29     27     33     37     1  180.0000771  0.3347200  3
     29     27     33     64     1  180.0000771  0.0000000  2
     30     34     89     90     1  180.0000771  10.4600000  2
     31     30     34     40     1  0.0000000  3.3472000  1
     31     30     34     40     1  0.0000000  0.0000000  2
     31     30     34     40     1  180.0000771  0.3347200  3
     31     30     34     89     1  180.0000771  0.0000000  2
     32     30     34     40     1  0.0000000  3.3472000  1
     32     30     34     40     1  0.0000000  0.0000000  2
     32     30     34     40     1  180.0000771  0.3347200  3
     32     30     34     89     1  180.0000771  0.0000000  2
     33     64     44     45     1  0.0000000  0.0000000  2
     33     64     44     46     1  0.0000000  0.0000000  2
     34     89     69     70     1  0.0000000  0.0000000  2
     34     89     69     71     1  0.0000000  0.0000000  2
     35    114     94     95     1  0.0000000  0.0000000  2
     35    114     94     96     1  0.0000000  0.0000000  2
     36    139    119    120     1  0.0000000  0.0000000  2
     36    139    119    121     1  0.0000000  0.0000000  2
     37     33     64     65     1  0.0000000  8.3680000  1
     37     33     64     65     1  180.0000771  10.4600000  2
     38     35    114    115     1  0.0000000  8.3680000  1
     38     35    114    115     1  180.0000771  10.4600000  2
     39     36    139    140     1  0.0000000  8.3680000  1
     39     36    139    140     1  180.0000771  10.4600000  2
     40     34     89     90     1  0.0000000  8.3680000  1
     40     34     89     90     1  180.0000771  10.4600000  2
     41     44     64     65     1  0.0000000  0.0000000  2
     41     47     48     49     1  0.0000000  1.2552000  3
     41     47     48     50     1  0.0000000  1.2552000  3
     41     47     51     52     1  0.0000000  1.2552000  3
     41     47     51     53     1  0.0000000  1.2552000  3
     42     41     44     64     1  0.0000000  0.6508444  3
     42     41     44     45     1  0.0000000  0.6508444  3
     42     41     44     46     1  0.0000000  0.6508444  3
     42     41     47     48     1  0.0000000  1.2552000  3
     42     41     47     51     1  0.0000000  1.2552000  3
     43     41     44     64     1  0.0000000  0.6508444  3
     43     41     44     45     1  0.0000000  0.6508444  3
     43     41     44     46     1  0.0000000  0.6508444  3
     43     41     47     48     1  0.0000000  1.2552000  3
     43     41     47     51     1  0.0000000  1.2552000  3
     45     44     41     47     1  0.0000000  0.6508444  3
     45     44     64     65     1  0.0000000  0.0000000  2
     46     44     41     47     1  0.0000000  0.6508444  3
     46     44     64     65     1  0.0000000  0.0000000  2
     47     48     57     58     1  0.0000000  0.6508444  3
     47     48     57     59     1  0.0000000  0.6508444  3
     47     51     54     55     1  0.0000000  0.6508444  3
     47     51     54     56     1  0.0000000  0.6508444  3
     48     47     51     52     1  0.0000000  1.2552000  3
     48     47     51     53     1  0.0000000  1.2552000  3
     49     48     47     51     1  0.0000000  1.2552000  3
     49     48     57     61     1  0.0000000  0.6508444  3
     49     48     57     58     1  0.0000000  0.6508444  3
     49     48     57     59     1  0.0000000  0.6508444  3
     50     48     47     51     1  0.0000000  1.2552000  3
     50     48     57     61     1  0.0000000  0.6508444  3
     50     48     57     58     1  0.0000000  0.6508444  3
     50     48     57     59     1  0.0000000  0.6508444  3
     52     51     54     60     1  0.0000000  0.6508444  3
     52     51     54     55     1  0.0000000  0.6508444  3
     52     51     54     56     1  0.0000000  0.6508444  3
     53     51     54     60     1  0.0000000  0.6508444  3
     53     51     54     55     1  0.0000000  0.6508444  3
     53     51     54     56     1  0.0000000  0.6508444  3
     54     60    164    165     1  180.0000771  10.4600000  2
     55     54     60     62     1  0.0000000  3.3472000  1
     55     54     60     62     1  0.0000000  0.0000000  2
     55     54     60     62     1  180.0000771  0.3347200  3
     55     54     60    164     1  180.0000771  0.0000000  2
     56     54     60     62     1  0.0000000  3.3472000  1
     56     54     60     62     1  0.0000000  0.0000000  2
     56     54     60     62     1  180.0000771  0.3347200  3
     56     54     60    164     1  180.0000771  0.0000000  2
     57     61    189    190     1  180.0000771  10.4600000  2
     58     57     61     63     1  0.0000000  3.3472000  1
     58     57     61     63     1  0.0000000  0.0000000  2
     58     57     61     63     1  180.0000771  0.3347200  3
     58     57     61    189     1  180.0000771  0.0000000  2
     59     57     61     63     1  0.0000000  3.3472000  1
     59     57     61     63     1  0.0000000  0.0000000  2
     59     57     61     63     1  180.0000771  0.3347200  3
     59     57     61    189     1  180.0000771  0.0000000  2
     60    164    144    145     1  0.0000000  0.0000000  2
     60    164    144    146     1  0.0000000  0.0000000  2
     61    189    169    170     1  0.0000000  0.0000000  2
     61    189    169    171     1  0.0000000  0.0000000  2
     62     60    164    165     1  0.0000000  8.3680000  1
     62     60    164    165     1  180.0000771  10.4600000  2
     63     61    189    190     1  0.0000000  8.3680000  1
     63     61    189    190     1  180.0000771  10.4600000  2
     66     69     89     90     1  0.0000000  0.0000000  2
     66     72     73     74     1  0.0000000  1.2552000  3
     66     72     73     75     1  0.0000000  1.2552000  3
     66     72     76     77     1  0.0000000  1.2552000  3
     66     72     76     78     1  0.0000000  1.2552000  3
     67     66     69     89     1  0.0000000  0.6508444  3
     67     66     69     70     1  0.0000000  0.6508444  3
     67     66     69     71     1  0.0000000  0.6508444  3
     67     66     72     73     1  0.0000000  1.2552000  3
     67     66     72     76     1  0.0000000  1.2552000  3
     68     66     69     89     1  0.0000000  0.6508444  3
     68     66     69     70     1  0.0000000  0.6508444  3
     68     66     69     71     1  0.0000000  0.6508444  3
     68     66     72     73     1  0.0000000  1.2552000  3
     68     66     72     76     1  0.0000000  1.2552000  3
     70     69     66     72     1  0.0000000  0.6508444  3
     70     69     89     90     1  0.0000000  0.0000000  2
     71     69     66     72     1  0.0000000  0.6508444  3
     71     69     89     90     1  0.0000000  0.0000000  2
     72     73     82     83     1  0.0000000  0.6508444  3
     72     73     82     84     1  0.0000000  0.6508444  3
     72     76     79     80     1  0.0000000  0.6508444  3
     72     76     79     81     1  0.0000000  0.6508444  3
     73     72     76     77     1  0.0000000  1.2552000  3
     73     72     76     78     1  0.0000000  1.2552000  3
     74     73     72     76     1  0.0000000  1.2552000  3
     74     73     82     86     1  0.0000000  0.6508444  3
     74     73     82     83     1  0.0000000  0.6508444  3
     74     73     82     84     1  0.0000000  0.6508444  3
     75     73     72     76     1  0.0000000  1.2552000  3
     75     73     82     86     1  0.0000000  0.6508444  3
     75     73     82     83     1  0.0000000  0.6508444  3
     75     73     82     84     1  0.0000000  0.6508444  3
     77     76     79     85     1  0.0000000  0.6508444  3
     77     76     79     80     1  0.0000000  0.6508444  3
     77     76     79     81     1  0.0000000  0.6508444  3
     78     76     79     85     1  0.0000000  0.6508444  3
     78     76     79     80     1  0.0000000  0.6508444  3
     78     76     79     81     1  0.0000000  0.6508444  3
     79     85    214    215     1  180.0000771  10.4600000  2
     80     79     85     87     1  0.0000000  3.3472000  1
     80     79     85     87     1  0.0000000  0.0000000  2
     80     79     85     87     1  180.0000771  0.3347200  3
     80     79     85    214     1  180.0000771  0.0000000  2
     81     79     85     87     1  0.0000000  3.3472000  1
     81     79     85     87     1  0.0000000  0.0000000  2
     81     79     85     87     1  180.0000771  0.3347200  3
     81     79     85    214     1  180.0000771  0.0000000  2
     82     86    239    240     1  180.0000771  10.4600000  2
     83     82     86     88     1  0.0000000  3.3472000  1
     83     82     86     88     1  0.0000000  0.0000000  2
     83     82     86     88     1  180.0000771  0.3347200  3
     83     82     86    239     1  180.0000771  0.0000000  2
     84     82     86     88     1  0.0000000  3.3472000  1
     84     82     86     88     1  0.0000000  0.0000000  2
     84     82     86     88     1  180.0000771  0.3347200  3
     84     82     86    239     1  180.0000771  0.0000000  2
     85    214    194    195     1  0.0000000  0.0000000  2
     85    214    194    196     1  0.0000000  0.0000000  2
     86    239    219    220     1  0.0000000  0.0000000  2
     86    239    219    221     1  0.0000000  0.0000000  2
     87     85    214    215     1  0.0000000  8.3680000  1
     87     85    214    215     1  180.0000771  10.4600000  2
     88     86    239    240     1  0.0000000  8.3680000  1
     88     86    239    240     1  180.0000771  10.4600000  2
     91     94    114    115     1  0.0000000  0.0000000  2
     91     97     98     99     1  0.0000000  1.2552000  3
     91     97     98    100     1  0.0000000  1.2552000  3
     91     97    101    102     1  0.0000000  1.2552000  3
     91     97    101    103     1  0.0000000  1.2552000  3
     92     91     94    114     1  0.0000000  0.6508444  3
     92     91     94     95     1  0.0000000  0.6508444  3
     92     91     94     96     1  0.0000000  0.6508444  3
     92     91     97     98     1  0.0000000  1.2552000  3
     92     91     97    101     1  0.0000000  1.2552000  3
     93     91     94    114     1  0.0000000  0.6508444  3
     93     91     94     95     1  0.0000000  0.6508444  3
     93     91     94     96     1  0.0000000  0.6508444  3
     93     91     97     98     1  0.0000000  1.2552000  3
     93     91     97    101     1  0.0000000  1.2552000  3
     95     94     91     97     1  0.0000000  0.6508444  3
     95     94    114    115     1  0.0000000  0.0000000  2
     96     94     91     97     1  0.0000000  0.6508444  3
     96     94    114    115     1  0.0000000  0.0000000  2
     97     98    107    108     1  0.0000000  0.6508444  3
     97     98    107    109     1  0.0000000  0.6508444  3
     97    101    104    105     1  0.0000000  0.6508444  3
     97    101    104    106     1  0.0000000  0.6508444  3
     98     97    101    102     1  0.0000000  1.2552000  3
     98     97    101    103     1  0.0000000  1.2552000  3
     99     98     97    101     1  0.0000000  1.2552000  3
     99     98    107    111     1  0.0000000  0.6508444  3
     99     98    107    108     1  0.0000000  0.6508444  3
     99     98    107    109     1  0.0000000  0.6508444  3
    100     98     97    101     1  0.0000000  1.2552000  3
    100     98    107    111     1  0.0000000  0.6508444  3
    100     98    107    108     1  0.0000000  0.6508444  3
    100     98    107    109     1  0.0000000  0.6508444  3
    102    101    104    110     1  0.0000000  0.6508444  3
    102    101    104    105     1  0.0000000  0.6508444  3
    102    101    104    106     1  0.0000000  0.6508444  3
    103    101    104    110     1  0.0000000  0.6508444  3
    103    101    104    105     1  0.0000000  0.6508444  3
    103    101    104    106     1  0.0000000  0.6508444  3
    104    110    264    265     1  180.0000771  10.4600000  2
    105    104    110    112     1  0.0000000  3.3472000  1
    105    104    110    112     1  0.0000000  0.0000000  2
    105    104    110    112     1  180.0000771  0.3347200  3
    105    104    110    264     1  180.0000771  0.0000000  2
    106    104    110    112     1  0.0000000  3.3472000  1
    106    104    110    112     1  0.0000000  0.0000000  2
    106    104    110    112     1  180.0000771  0.3347200  3
    106    104    110    264     1  180.0000771  0.0000000  2
    107    111    289    290     1  180.0000771  10.4600000  2
    108    107    111    113     1  0.0000000  3.3472000  1
    108    107    111    113     1  0.0000000  0.0000000  2
    108    107    111    113     1  180.0000771  0.3347200  3
    108    107    111    289     1  180.0000771  0.0000000  2
    109    107    111    113     1  0.0000000  3.3472000  1
    109    107    111    113     1  0.0000000  0.0000000  2
    109    107    111    113     1  180.0000771  0.3347200  3
    109    107    111    289     1  180.0000771  0.0000000  2
    110    264    244    245     1  0.0000000  0.0000000  2
    110    264    244    246     1  0.0000000  0.0000000  2
    111    289    269    270     1  0.0000000  0.0000000  2
    111    289    269    271     1  0.0000000  0.0000000  2
    112    110    264    265     1  0.0000000  8.3680000  1
    112    110    264    265     1  180.0000771  10.4600000  2
    113    111    289    290     1  0.0000000  8.3680000  1
    113    111    289    290     1  180.0000771  10.4600000  2
    116    119    139    140     1  0.0000000  0.0000000  2
    116    122    123    124     1  0.0000000  1.2552000  3
    116    122    123    125     1  0.0000000  1.2552000  3
    116    122    126    127     1  0.0000000  1.2552000  3
    116    122    126    128     1  0.0000000  1.2552000  3
    117    116    119    139     1  0.0000000  0.6508444  3
    117    116    119    120     1  0.0000000  0.6508444  3
    117    116    119    121     1  0.0000000  0.6508444  3
    117    116    122    123     1  0.0000000  1.2552000  3
    117    116    122    126     1  0.0000000  1.2552000  3
    118    116    119    139     1  0.0000000  0.6508444  3
    118    116    119    120     1  0.0000000  0.6508444  3
    118    116    119    121     1  0.0000000  0.6508444  3
    118    116    122    123     1  0.0000000  1.2552000  3
    118    116    122    126     1  0.0000000  1.2552000  3
    120    119    116    122     1  0.0000000  0.6508444  3
    120    119    139    140     1  0.0000000  0.0000000  2
    121    119    116    122     1  0.0000000  0.6508444  3
    121    119    139    140     1  0.0000000  0.0000000  2
    122    123    132    133     1  0.0000000  0.6508444  3
    122    123    132    134     1  0.0000000  0.6508444  3
    122    126    129    130     1  0.0000000  0.6508444  3
    122    126    129    131     1  0.0000000  0.6508444  3
    123    122    126    127     1  0.0000000  1.2552000  3
    123    122    126    128     1  0.0000000  1.2552000  3
    124    123    122    126     1  0.0000000  1.2552000  3
    124    123    132    136     1  0.0000000  0.6508444  3
    124    123    132    133     1  0.0000000  0.6508444  3
    124    123    132    134     1  0.0000000  0.6508444  3
    125    123    122    126     1  0.0000000  1.2552000  3
    125    123    132    136     1  0.0000000  0.6508444  3
    125    123    132    133     1  0.0000000  0.6508444  3
    125    123    132    134     1  0.0000000  0.6508444  3
    127    126    129    135     1  0.0000000  0.6508444  3
    127    126    129    130     1  0.0000000  0.6508444  3
    127    126    129    131     1  0.0000000  0.6508444  3
    128    126    129    135     1  0.0000000  0.6508444  3
    128    126    129    130     1  0.0000000  0.6508444  3
    128    126    129    131     1  0.0000000  0.6508444  3
    129    135    314    315     1  180.0000771  10.4600000  2
    130    129    135    137     1  0.0000000  3.3472000  1
    130    129    135    137     1  0.0000000  0.0000000  2
    130    129    135    137     1  180.0000771  0.3347200  3
    130    129    135    314     1  180.0000771  0.0000000  2
    131    129    135    137     1  0.0000000  3.3472000  1
    131    129    135    137     1  0.0000000  0.0000000  2
    131    129    135    137     1  180.0000771  0.3347200  3
    131    129    135    314     1  180.0000771  0.0000000  2
    132    136    339    340     1  180.0000771  10.4600000  2
    133    132    136    138     1  0.0000000  3.3472000  1
    133    132    136    138     1  0.0000000  0.0000000  2
    133    132    136    138     1  180.0000771  0.3347200  3
    133    132    136    339     1  180.0000771  0.0000000  2
    134    132    136    138     1  0.0000000  3.3472000  1
    134    132    136    138     1  0.0000000  0.0000000  2
    134    132    136    138     1  180.0000771  0.3347200  3
    134    132    136    339     1  180.0000771  0.0000000  2
    135    314    294    295     1  0.0000000  0.0000000  2
    135    314    294    296     1  0.0000000  0.0000000  2
    136    339    319    320     1  0.0000000  0.0000000  2
    136    339    319    321     1  0.0000000  0.0000000  2
    137    135    314    315     1  0.0000000  8.3680000  1
    137    135    314    315     1  180.0000771  10.4600000  2
    138    136    339    340     1  0.0000000  8.3680000  1
    138    136    339    340     1  180.0000771  10.4600000  2
    141    144    164    165     1  0.0000000  0.0000000  2
    141    147    148    149     1  0.0000000  1.2552000  3
    141    147    148    150     1  0.0000000  1.2552000  3
    141    147    151    152     1  0.0000000  1.2552000  3
    141    147    151    153     1  0.0000000  1.2552000  3
    142    141    144    164     1  0.0000000  0.6508444  3
    142    141    144    145     1  0.0000000  0.6508444  3
    142    141    144    146     1  0.0000000  0.6508444  3
    142    141    147    148     1  0.0000000  1.2552000  3
    142    141    147    151     1  0.0000000  1.2552000  3
    143    141    144    164     1  0.0000000  0.6508444  3
    143    141    144    145     1  0.0000000  0.6508444  3
    143    141    144    146     1  0.0000000  0.6508444  3
    143    141    147    148     1  0.0000000  1.2552000  3
    143    141    147    151     1  0.0000000  1.2552000  3
    145    144    141    147     1  0.0000000  0.6508444  3
    145    144    164    165     1  0.0000000  0.0000000  2
    146    144    141    147     1  0.0000000  0.6508444  3
    146    144    164    165     1  0.0000000  0.0000000  2
    147    148    157    158     1  0.0000000  0.6508444  3
    147    148    157    159     1  0.0000000  0.6508444  3
    147    151    154    155     1  0.0000000  0.6508444  3
    147    151    154    156     1  0.0000000  0.6508444  3
    148    147    151    152     1  0.0000000  1.2552000  3
    148    147    151    153     1  0.0000000  1.2552000  3
    149    148    147    151     1  0.0000000  1.2552000  3
    149    148    157    161     1  0.0000000  0.6508444  3
    149    148    157    158     1  0.0000000  0.6508444  3
    149    148    157    159     1  0.0000000  0.6508444  3
    150    148    147    151     1  0.0000000  1.2552000  3
    150    148    157    161     1  0.0000000  0.6508444  3
    150    148    157    158     1  0.0000000  0.6508444  3
    150    148    157    159     1  0.0000000  0.6508444  3
    152    151    154    160     1  0.0000000  0.6508444  3
    152    151    154    155     1  0.0000000  0.6508444  3
    152    151    154    156     1  0.0000000  0.6508444  3
    153    151    154    160     1  0.0000000  0.6508444  3
    153    151    154    155     1  0.0000000  0.6508444  3
    153    151    154    156     1  0.0000000  0.6508444  3
    154    160    364    365     1  180.0000771  10.4600000  2
    155    154    160    162     1  0.0000000  3.3472000  1
    155    154    160    162     1  0.0000000  0.0000000  2
    155    154    160    162     1  180.0000771  0.3347200  3
    155    154    160    364     1  180.0000771  0.0000000  2
    156    154    160    162     1  0.0000000  3.3472000  1
    156    154    160    162     1  0.0000000  0.0000000  2
    156    154    160    162     1  180.0000771  0.3347200  3
    156    154    160    364     1  180.0000771  0.0000000  2
    157    161    389    390     1  180.0000771  10.4600000  2
    158    157    161    163     1  0.0000000  3.3472000  1
    158    157    161    163     1  0.0000000  0.0000000  2
    158    157    161    163     1  180.0000771  0.3347200  3
    158    157    161    389     1  180.0000771  0.0000000  2
    159    157    161    163     1  0.0000000  3.3472000  1
    159    157    161    163     1  0.0000000  0.0000000  2
    159    157    161    163     1  180.0000771  0.3347200  3
    159    157    161    389     1  180.0000771  0.0000000  2
    160    364    344    345     1  0.0000000  0.0000000  2
    160    364    344    346     1  0.0000000  0.0000000  2
    161    389    369    370     1  0.0000000  0.0000000  2
    161    389    369    371     1  0.0000000  0.0000000  2
    162    160    364    365     1  0.0000000  8.3680000  1
    162    160    364    365     1  180.0000771  10.4600000  2
    163    161    389    390     1  0.0000000  8.3680000  1
    163    161    389    390     1  180.0000771  10.4600000  2
    166    169    189    190     1  0.0000000  0.0000000  2
    166    172    173    174     1  0.0000000  1.2552000  3
    166    172    173    175     1  0.0000000  1.2552000  3
    166    172    176    177     1  0.0000000  1.2552000  3
    166    172    176    178     1  0.0000000  1.2552000  3
    167    166    169    189     1  0.0000000  0.6508444  3
    167    166    169    170     1  0.0000000  0.6508444  3
    167    166    169    171     1  0.0000000  0.6508444  3
    167    166    172    173     1  0.0000000  1.2552000  3
    167    166    172    176     1  0.0000000  1.2552000  3
    168    166    169    189     1  0.0000000  0.6508444  3
    168    166    169    170     1  0.0000000  0.6508444  3
    168    166    169    171     1  0.0000000  0.6508444  3
    168    166    172    173     1  0.0000000  1.2552000  3
    168    166    172    176     1  0.0000000  1.2552000  3
    170    169    166    172     1  0.0000000  0.6508444  3
    170    169    189    190     1  0.0000000  0.0000000  2
    171    169    166    172     1  0.0000000  0.6508444  3
    171    169    189    190     1  0.0000000  0.0000000  2
    172    173    182    183     1  0.0000000  0.6508444  3
    172    173    182    184     1  0.0000000  0.6508444  3
    172    176    179    180     1  0.0000000  0.6508444  3
    172    176    179    181     1  0.0000000  0.6508444  3
    173    172    176    177     1  0.0000000  1.2552000  3
    173    172    176    178     1  0.0000000  1.2552000  3
    174    173    172    176     1  0.0000000  1.2552000  3
    174    173    182    186     1  0.0000000  0.6508444  3
    174    173    182    183     1  0.0000000  0.6508444  3
    174    173    182    184     1  0.0000000  0.6508444  3
    175    173    172    176     1  0.0000000  1.2552000  3
    175    173    182    186     1  0.0000000  0.6508444  3
    175    173    182    183     1  0.0000000  0.6508444  3
    175    173    182    184     1  0.0000000  0.6508444  3
    177    176    179    185     1  0.0000000  0.6508444  3
    177    176    179    180     1  0.0000000  0.6508444  3
    177    176    179    181     1  0.0000000  0.6508444  3
    178    176    179    185     1  0.0000000  0.6508444  3
    178    176    179    180     1  0.0000000  0.6508444  3
    178    176    179    181     1  0.0000000  0.6508444  3
    179    185    414    415     1  180.0000771  10.4600000  2
    180    179    185    187     1  0.0000000  3.3472000  1
    180    179    185    187     1  0.0000000  0.0000000  2
    180    179    185    187     1  180.0000771  0.3347200  3
    180    179    185    414     1  180.0000771  0.0000000  2
    181    179    185    187     1  0.0000000  3.3472000  1
    181    179    185    187     1  0.0000000  0.0000000  2
    181    179    185    187     1  180.0000771  0.3347200  3
    181    179    185    414     1  180.0000771  0.0000000  2
    182    186    439    440     1  180.0000771  10.4600000  2
    183    182    186    188     1  0.0000000  3.3472000  1
    183    182    186    188     1  0.0000000  0.0000000  2
    183    182    186    188     1  180.0000771  0.3347200  3
    183    182    186    439     1  180.0000771  0.0000000  2
    184    182    186    188     1  0.0000000  3.3472000  1
    184    182    186    188     1  0.0000000  0.0000000  2
    184    182    186    188     1  180.0000771  0.3347200  3
    184    182    186    439     1  180.0000771  0.0000000  2
    185    414    394    395     1  0.0000000  0.0000000  2
    185    414    394    396     1  0.0000000  0.0000000  2
    186    439    419    420     1  0.0000000  0.0000000  2
    186    439    419    421     1  0.0000000  0.0000000  2
    187    185    414    415     1  0.0000000  8.3680000  1
    187    185    414    415     1  180.0000771  10.4600000  2
    188    186    439    440     1  0.0000000  8.3680000  1
    188    186    439    440     1  180.0000771  10.4600000  2
    191    194    214    215     1  0.0000000  0.0000000  2
    191    197    198    199     1  0.0000000  1.2552000  3
    191    197    198    200     1  0.0000000  1.2552000  3
    191    197    201    202     1  0.0000000  1.2552000  3
    191    197    201    203     1  0.0000000  1.2552000  3
    192    191    194    214     1  0.0000000  0.6508444  3
    192    191    194    195     1  0.0000000  0.6508444  3
    192    191    194    196     1  0.0000000  0.6508444  3
    192    191    197    198     1  0.0000000  1.2552000  3
    192    191    197    201     1  0.0000000  1.2552000  3
    193    191    194    214     1  0.0000000  0.6508444  3
    193    191    194    195     1  0.0000000  0.6508444  3
    193    191    194    196     1  0.0000000  0.6508444  3
    193    191    197    198     1  0.0000000  1.2552000  3
    193    191    197    201     1  0.0000000  1.2552000  3
    195    194    191    197     1  0.0000000  0.6508444  3
    195    194    214    215     1  0.0000000  0.0000000  2
    196    194    191    197     1  0.0000000  0.6508444  3
    196    194    214    215     1  0.0000000  0.0000000  2
    197    198    207    208     1  0.0000000  0.6508444  3
    197    198    207    209     1  0.0000000  0.6508444  3
    197    201    204    205     1  0.0000000  0.6508444  3
    197    201    204    206     1  0.0000000  0.6508444  3
    198    197    201    202     1  0.0000000  1.2552000  3
    198    197    201    203     1  0.0000000  1.2552000  3
    199    198    197    201     1  0.0000000  1.2552000  3
    199    198    207    211     1  0.0000000  0.6508444  3
    199    198    207    208     1  0.0000000  0.6508444  3
    199    198    207    209     1  0.0000000  0.6508444  3
    200    198    197    201     1  0.0000000  1.2552000  3
    200    198    207    211     1  0.0000000  0.6508444  3
    200    198    207    208     1  0.0000000  0.6508444  3
    200    198    207    209     1  0.0000000  0.6508444  3
    202    201    204    210     1  0.0000000  0.6508444  3
    202    201    204    205     1  0.0000000  0.6508444  3
    202    201    204    206     1  0.0000000  0.6508444  3
    203    201    204    210     1  0.0000000  0.6508444  3
    203    201    204    205     1  0.0000000  0.6508444  3
    203    201    204    206     1  0.0000000  0.6508444  3
    204    210    464    465     1  180.0000771  10.4600000  2
    205    204    210    212     1  0.0000000  3.3472000  1
    205    204    210    212     1  0.0000000  0.0000000  2
    205    204    210    212     1  180.0000771  0.3347200  3
    205    204    210    464     1  180.0000771  0.0000000  2
    206    204    210    212     1  0.0000000  3.3472000  1
    206    204    210    212     1  0.0000000  0.0000000  2
    206    204    210    212     1  180.0000771  0.3347200  3
    206    204    210    464     1  180.0000771  0.0000000  2
    207    211    489    490     1  180.0000771  10.4600000  2
    208    207    211    213     1  0.0000000  3.3472000  1
    208    207    211    213     1  0.0000000  0.0000000  2
    208    207    211    213     1  180.0000771  0.3347200  3
    208    207    211    489     1  180.0000771  0.0000000  2
    209    207    211    213     1  0.0000000  3.3472000  1
    209    207    211    213     1  0.0000000  0.0000000  2
    209    207    211    213     1  180.0000771  0.3347200  3
    209    207    211    489     1  180.0000771  0.0000000  2
    210    464    444    445     1  0.0000000  0.0000000  2
    210    464    444    446     1  0.0000000  0.0000000  2
    211    489    469    470     1  0.0000000  0.0000000  2
    211    489    469    471     1  0.0000000  0.0000000  2
    212    210    464    465     1  0.0000000  8.3680000  1
    212    210    464    465     1  180.0000771  10.4600000  2
    213    211    489    490     1  0.0000000  8.3680000  1
    213    211    489    490     1  180.0000771  10.4600000  2
    216    219    239    240     1  0.0000000  0.0000000  2
    216    222    223    224     1  0.0000000  1.2552000  3
    216    222    223    225     1  0.0000000  1.2552000  3
    216    222    226    227     1  0.0000000  1.2552000  3
    216    222    226    228     1  0.0000000  1.2552000  3
    217    216    219    239     1  0.0000000  0.6508444  3
    217    216    219    220     1  0.0000000  0.6508444  3
    217    216    219    221     1  0.0000000  0.6508444  3
    217    216    222    223     1  0.0000000  1.2552000  3
    217    216    222    226     1  0.0000000  1.2552000  3
    218    216    219    239     1  0.0000000  0.6508444  3
    218    216    219    220     1  0.0000000  0.6508444  3
    218    216    219    221     1  0.0000000  0.6508444  3
    218    216    222    223     1  0.0000000  1.2552000  3
    218    216    222    226     1  0.0000000  1.2552000  3
    220    219    216    222     1  0.0000000  0.6508444  3
    220    219    239    240     1  0.0000000  0.0000000  2
    221    219    216    222     1  0.0000000  0.6508444  3
    221    219    239    240     1  0.0000000  0.0000000  2
    222    223    232    233     1  0.0000000  0.6508444  3
    222    223    232    234     1  0.0000000  0.6508444  3
    222    226    229    230     1  0.0000000  0.6508444  3
    222    226    229    231     1  0.0000000  0.6508444  3
    223    222    226    227     1  0.0000000  1.2552000  3
    223    222    226    228     1  0.0000000  1.2552000  3
    224    223    222    226     1  0.0000000  1.2552000  3
    224    223    232    236     1  0.0000000  0.6508444  3
    224    223    232    233     1  0.0000000  0.6508444  3
    224    223    232    234     1  0.0000000  0.6508444  3
    225    223    222    226     1  0.0000000  1.2552000  3
    225    223    232    236     1  0.0000000  0.6508444  3
    225    223    232    233     1  0.0000000  0.6508444  3
    225    223    232    234     1  0.0000000  0.6508444  3
    227    226    229    235     1  0.0000000  0.6508444  3
    227    226    229    230     1  0.0000000  0.6508444  3
    227    226    229    231     1  0.0000000  0.6508444  3
    228    226    229    235     1  0.0000000  0.6508444  3
    228    226    229    230     1  0.0000000  0.6508444  3
    228    226    229    231     1  0.0000000  0.6508444  3
    229    235    514    515     1  180.0000771  10.4600000  2
    230    229    235    237     1  0.0000000  3.3472000  1
    230    229    235    237     1  0.0000000  0.0000000  2
    230    229    235    237     1  180.0000771  0.3347200  3
    230    229    235    514     1  180.0000771  0.0000000  2
    231    229    235    237     1  0.0000000  3.3472000  1
    231    229    235    237     1  0.0000000  0.0000000  2
    231    229    235    237     1  180.0000771  0.3347200  3
    231    229    235    514     1  180.0000771  0.0000000  2
    232    236    539    540     1  180.0000771  10.4600000  2
    233    232    236    238     1  0.0000000  3.3472000  1
    233    232    236    238     1  0.0000000  0.0000000  2
    233    232    236    238     1  180.0000771  0.3347200  3
    233    232    236    539     1  180.0000771  0.0000000  2
    234    232    236    238     1  0.0000000  3.3472000  1
    234    232    236    238     1  0.0000000  0.0000000  2
    234    232    236    238     1  180.0000771  0.3347200  3
    234    232    236    539     1  180.0000771  0.0000000  2
    235    514    494    495     1  0.0000000  0.0000000  2
    235    514    494    496     1  0.0000000  0.0000000  2
    236    539    519    520     1  0.0000000  0.0000000  2
    236    539    519    521     1  0.0000000  0.0000000  2
    237    235    514    515     1  0.0000000  8.3680000  1
    237    235    514    515     1  180.0000771  10.4600000  2
    238    236    539    540     1  0.0000000  8.3680000  1
    238    236    539    540     1  180.0000771  10.4600000  2
    241    244    264    265     1  0.0000000  0.0000000  2
    241    247    248    249     1  0.0000000  1.2552000  3
    241    247    248    250     1  0.0000000  1.2552000  3
    241    247    251    252     1  0.0000000  1.2552000  3
    241    247    251    253     1  0.0000000  1.2552000  3
    242    241    244    264     1  0.0000000  0.6508444  3
    242    241    244    245     1  0.0000000  0.6508444  3
    242    241    244    246     1  0.0000000  0.6508444  3
    242    241    247    248     1  0.0000000  1.2552000  3
    242    241    247    251     1  0.0000000  1.2552000  3
    243    241    244    264     1  0.0000000  0.6508444  3
    243    241    244    245     1  0.0000000  0.6508444  3
    243    241    244    246     1  0.0000000  0.6508444  3
    243    241    247    248     1  0.0000000  1.2552000  3
    243    241    247    251     1  0.0000000  1.2552000  3
    245    244    241    247     1  0.0000000  0.6508444  3
    245    244    264    265     1  0.0000000  0.0000000  2
    246    244    241    247     1  0.0000000  0.6508444  3
    246    244    264    265     1  0.0000000  0.0000000  2
    247    248    257    258     1  0.0000000  0.6508444  3
    247    248    257    259     1  0.0000000  0.6508444  3
    247    251    254    255     1  0.0000000  0.6508444  3
    247    251    254    256     1  0.0000000  0.6508444  3
    248    247    251    252     1  0.0000000  1.2552000  3
    248    247    251    253     1  0.0000000  1.2552000  3
    249    248    247    251     1  0.0000000  1.2552000  3
    249    248    257    261     1  0.0000000  0.6508444  3
    249    248    257    258     1  0.0000000  0.6508444  3
    249    248    257    259     1  0.0000000  0.6508444  3
    250    248    247    251     1  0.0000000  1.2552000  3
    250    248    257    261     1  0.0000000  0.6508444  3
    250    248    257    258     1  0.0000000  0.6508444  3
    250    248    257    259     1  0.0000000  0.6508444  3
    252    251    254    260     1  0.0000000  0.6508444  3
    252    251    254    255     1  0.0000000  0.6508444  3
    252    251    254    256     1  0.0000000  0.6508444  3
    253    251    254    260     1  0.0000000  0.6508444  3
    253    251    254    255     1  0.0000000  0.6508444  3
    253    251    254    256     1  0.0000000  0.6508444  3
    254    260    564    565     1  180.0000771  10.4600000  2
    255    254    260    262     1  0.0000000  3.3472000  1
    255    254    260    262     1  0.0000000  0.0000000  2
    255    254    260    262     1  180.0000771  0.3347200  3
    255    254    260    564     1  180.0000771  0.0000000  2
    256    254    260    262     1  0.0000000  3.3472000  1
    256    254    260    262     1  0.0000000  0.0000000  2
    256    254    260    262     1  180.0000771  0.3347200  3
    256    254    260    564     1  180.0000771  0.0000000  2
    257    261    589    590     1  180.0000771  10.4600000  2
    258    257    261    263     1  0.0000000  3.3472000  1
    258    257    261    263     1  0.0000000  0.0000000  2
    258    257    261    263     1  180.0000771  0.3347200  3
    258    257    261    589     1  180.0000771  0.0000000  2
    259    257    261    263     1  0.0000000  3.3472000  1
    259    257    261    263     1  0.0000000  0.0000000  2
    259    257    261    263     1  180.0000771  0.3347200  3
    259    257    261    589     1  180.0000771  0.0000000  2
    260    564    544    545     1  0.0000000  0.0000000  2
    260    564    544    546     1  0.0000000  0.0000000  2
    261    589    569    570     1  0.0000000  0.0000000  2
    261    589    569    571     1  0.0000000  0.0000000  2
    262    260    564    565     1  0.0000000  8.3680000  1
    262    260    564    565     1  180.0000771  10.4600000  2
    263    261    589    590     1  0.0000000  8.3680000  1
    263    261    589    590     1  180.0000771  10.4600000  2
    266    269    289    290     1  0.0000000  0.0000000  2
    266    272    273    274     1  0.0000000  1.2552000  3
    266    272    273    275     1  0.0000000  1.2552000  3
    266    272    276    277     1  0.0000000  1.2552000  3
    266    272    276    278     1  0.0000000  1.2552000  3
    267    266    269    289     1  0.0000000  0.6508444  3
    267    266    269    270     1  0.0000000  0.6508444  3
    267    266    269    271     1  0.0000000  0.6508444  3
    267    266    272    273     1  0.0000000  1.2552000  3
    267    266    272    276     1  0.0000000  1.2552000  3
    268    266    269    289     1  0.0000000  0.6508444  3
    268    266    269    270     1  0.0000000  0.6508444  3
    268    266    269    271     1  0.0000000  0.6508444  3
    268    266    272    273     1  0.0000000  1.2552000  3
    268    266    272    276     1  0.0000000  1.2552000  3
    270    269    266    272     1  0.0000000  0.6508444  3
    270    269    289    290     1  0.0000000  0.0000000  2
    271    269    266    272     1  0.0000000  0.6508444  3
    271    269    289    290     1  0.0000000  0.0000000  2
    272    273    282    283     1  0.0000000  0.6508444  3
    272    273    282    284     1  0.0000000  0.6508444  3
    272    276    279    280     1  0.0000000  0.6508444  3
    272    276    279    281     1  0.0000000  0.6508444  3
    273    272    276    277     1  0.0000000  1.2552000  3
    273    272    276    278     1  0.0000000  1.2552000  3
    274    273    272    276     1  0.0000000  1.2552000  3
    274    273    282    286     1  0.0000000  0.6508444  3
    274    273    282    283     1  0.0000000  0.6508444  3
    274    273    282    284     1  0.0000000  0.6508444  3
    275    273    272    276     1  0.0000000  1.2552000  3
    275    273    282    286     1  0.0000000  0.6508444  3
    275    273    282    283     1  0.0000000  0.6508444  3
    275    273    282    284     1  0.0000000  0.6508444  3
    277    276    279    285     1  0.0000000  0.6508444  3
    277    276    279    280     1  0.0000000  0.6508444  3
    277    276    279    281     1  0.0000000  0.6508444  3
    278    276    279    285     1  0.0000000  0.6508444  3
    278    276    279    280     1  0.0000000  0.6508444  3
    278    276    279    281     1  0.0000000  0.6508444  3
    279    285    614    615     1  180.0000771  10.4600000  2
    280    279    285    287     1  0.0000000  3.3472000  1
    280    279    285    287     1  0.0000000  0.0000000  2
    280    279    285    287     1  180.0000771  0.3347200  3
    280    279    285    614     1  180.0000771  0.0000000  2
    281    279    285    287     1  0.0000000  3.3472000  1
    281    279    285    287     1  0.0000000  0.0000000  2
    281    279    285    287     1  180.0000771  0.3347200  3
    281    279    285    614     1  180.0000771  0.0000000  2
    282    286    639    640     1  180.0000771  10.4600000  2
    283    282    286    288     1  0.0000000  3.3472000  1
    283    282    286    288     1  0.0000000  0.0000000  2
    283    282    286    288     1  180.0000771  0.3347200  3
    283    282    286    639     1  180.0000771  0.0000000  2
    284    282    286    288     1  0.0000000  3.3472000  1
    284    282    286    288     1  0.0000000  0.0000000  2
    284    282    286    288     1  180.0000771  0.3347200  3
    284    282    286    639     1  180.0000771  0.0000000  2
    285    614    594    595     1  0.0000000  0.0000000  2
    285    614    594    596     1  0.0000000  0.0000000  2
    286    639    619    620     1  0.0000000  0.0000000  2
    286    639    619    621     1  0.0000000  0.0000000  2
    287    285    614    615     1  0.0000000  8.3680000  1
    287    285    614    615     1  180.0000771  10.4600000  2
    288    286    639    640     1  0.0000000  8.3680000  1
    288    286    639    640     1  180.0000771  10.4600000  2
    291    294    314    315     1  0.0000000  0.0000000  2
    291    297    298    299     1  0.0000000  1.2552000  3
    291    297    298    300     1  0.0000000  1.2552000  3
    291    297    301    302     1  0.0000000  1.2552000  3
    291    297    301    303     1  0.0000000  1.2552000  3
    292    291    294    314     1  0.0000000  0.6508444  3
    292    291    294    295     1  0.0000000  0.6508444  3
    292    291    294    296     1  0.0000000  0.6508444  3
    292    291    297    298     1  0.0000000  1.2552000  3
    292    291    297    301     1  0.0000000  1.2552000  3
    293    291    294    314     1  0.0000000  0.6508444  3
    293    291    294    295     1  0.0000000  0.6508444  3
    293    291    294    296     1  0.0000000  0.6508444  3
    293    291    297    298     1  0.0000000  1.2552000  3
    293    291    297    301     1  0.0000000  1.2552000  3
    295    294    291    297     1  0.0000000  0.6508444  3
    295    294    314    315     1  0.0000000  0.0000000  2
    296    294    291    297     1  0.0000000  0.6508444  3
    296    294    314    315     1  0.0000000  0.0000000  2
    297    298    307    308     1  0.0000000  0.6508444  3
    297    298    307    309     1  0.0000000  0.6508444  3
    297    301    304    305     1  0.0000000  0.6508444  3
    297    301    304    306     1  0.0000000  0.6508444  3
    298    297    301    302     1  0.0000000  1.2552000  3
    298    297    301    303     1  0.0000000  1.2552000  3
    299    298    297    301     1  0.0000000  1.2552000  3
    299    298    307    311     1  0.0000000  0.6508444  3
    299    298    307    308     1  0.0000000  0.6508444  3
    299    298    307    309     1  0.0000000  0.6508444  3
    300    298    297    301     1  0.0000000  1.2552000  3
    300    298    307    311     1  0.0000000  0.6508444  3
    300    298    307    308     1  0.0000000  0.6508444  3
    300    298    307    309     1  0.0000000  0.6508444  3
    302    301    304    310     1  0.0000000  0.6508444  3
    302    301    304    305     1  0.0000000  0.6508444  3
    302    301    304    306     1  0.0000000  0.6508444  3
    303    301    304    310     1  0.0000000  0.6508444  3
    303    301    304    305     1  0.0000000  0.6508444  3
    303    301    304    306     1  0.0000000  0.6508444  3
    304    310    664    665     1  180.0000771  10.4600000  2
    305    304    310    312     1  0.0000000  3.3472000  1
    305    304    310    312     1  0.0000000  0.0000000  2
    305    304    310    312     1  180.0000771  0.3347200  3
    305    304    310    664     1  180.0000771  0.0000000  2
    306    304    310    312     1  0.0000000  3.3472000  1
    306    304    310    312     1  0.0000000  0.0000000  2
    306    304    310    312     1  180.0000771  0.3347200  3
    306    304    310    664     1  180.0000771  0.0000000  2
    307    311    689    690     1  180.0000771  10.4600000  2
    308    307    311    313     1  0.0000000  3.3472000  1
    308    307    311    313     1  0.0000000  0.0000000  2
    308    307    311    313     1  180.0000771  0.3347200  3
    308    307    311    689     1  180.0000771  0.0000000  2
    309    307    311    313     1  0.0000000  3.3472000  1
    309    307    311    313     1  0.0000000  0.0000000  2
    309    307    311    313     1  180.0000771  0.3347200  3
    309    307    311    689     1  180.0000771  0.0000000  2
    310    664    644    645     1  0.0000000  0.0000000  2
    310    664    644    646     1  0.0000000  0.0000000  2
    311    689    669    670     1  0.0000000  0.0000000  2
    311    689    669    671     1  0.0000000  0.0000000  2
    312    310    664    665     1  0.0000000  8.3680000  1
    312    310    664    665     1  180.0000771  10.4600000  2
    313    311    689    690     1  0.0000000  8.3680000  1
    313    311    689    690     1  180.0000771  10.4600000  2
    316    319    339    340     1  0.0000000  0.0000000  2
    316    322    323    324     1  0.0000000  1.2552000  3
    316    322    323    325     1  0.0000000  1.2552000  3
    316    322    326    327     1  0.0000000  1.2552000  3
    316    322    326    328     1  0.0000000  1.2552000  3
    317    316    319    339     1  0.0000000  0.6508444  3
    317    316    319    320     1  0.0000000  0.6508444  3
    317    316    319    321     1  0.0000000  0.6508444  3
    317    316    322    323     1  0.0000000  1.2552000  3
    317    316    322    326     1  0.0000000  1.2552000  3
    318    316    319    339     1  0.0000000  0.6508444  3
    318    316    319    320     1  0.0000000  0.6508444  3
    318    316    319    321     1  0.0000000  0.6508444  3
    318    316    322    323     1  0.0000000  1.2552000  3
    318    316    322    326     1  0.0000000  1.2552000  3
    320    319    316    322     1  0.0000000  0.6508444  3
    320    319    339    340     1  0.0000000  0.0000000  2
    321    319    316    322     1  0.0000000  0.6508444  3
    321    319    339    340     1  0.0000000  0.0000000  2
    322    323    332    333     1  0.0000000  0.6508444  3
    322    323    332    334     1  0.0000000  0.6508444  3
    322    326    329    330     1  0.0000000  0.6508444  3
    322    326    329    331     1  0.0000000  0.6508444  3
    323    322    326    327     1  0.0000000  1.2552000  3
    323    322    326    328     1  0.0000000  1.2552000  3
    324    323    322    326     1  0.0000000  1.2552000  3
    324    323    332    336     1  0.0000000  0.6508444  3
    324    323    332    333     1  0.0000000  0.6508444  3
    324    323    332    334     1  0.0000000  0.6508444  3
    325    323    322    326     1  0.0000000  1.2552000  3
    325    323    332    336     1  0.0000000  0.6508444  3
    325    323    332    333     1  0.0000000  0.6508444  3
    325    323    332    334     1  0.0000000  0.6508444  3
    327    326    329    335     1  0.0000000  0.6508444  3
    327    326    329    330     1  0.0000000  0.6508444  3
    327    326    329    331     1  0.0000000  0.6508444  3
    328    326    329    335     1  0.0000000  0.6508444  3
    328    326    329    330     1  0.0000000  0.6508444  3
    328    326    329    331     1  0.0000000  0.6508444  3
    329    335    714    715     1  180.0000771  10.4600000  2
    330    329    335    337     1  0.0000000  3.3472000  1
    330    329    335    337     1  0.0000000  0.0000000  2
    330    329    335    337     1  180.0000771  0.3347200  3
    330    329    335    714     1  180.0000771  0.0000000  2
    331    329    335    337     1  0.0000000  3.3472000  1
    331    329    335    337     1  0.0000000  0.0000000  2
    331    329    335    337     1  180.0000771  0.3347200  3
    331    329    335    714     1  180.0000771  0.0000000  2
    332    336    739    740     1  180.0000771  10.4600000  2
    333    332    336    338     1  0.0000000  3.3472000  1
    333    332    336    338     1  0.0000000  0.0000000  2
    333    332    336    338     1  180.0000771  0.3347200  3
    333    332    336    739     1  180.0000771  0.0000000  2
    334    332    336    338     1  0.0000000  3.3472000  1
    334    332    336    338     1  0.0000000  0.0000000  2
    334    332    336    338     1  180.0000771  0.3347200  3
    334    332    336    739     1  180.0000771  0.0000000  2
    335    714    694    695     1  0.0000000  0.0000000  2
    335    714    694    696     1  0.0000000  0.0000000  2
    336    739    719    720     1  0.0000000  0.0000000  2
    336    739    719    721     1  0.0000000  0.0000000  2
    337    335    714    715     1  0.0000000  8.3680000  1
    337    335    714    715     1  180.0000771  10.4600000  2
    338    336    739    740     1  0.0000000  8.3680000  1
    338    336    739    740     1  180.0000771  10.4600000  2
    341    344    364    365     1  0.0000000  0.0000000  2
    341    347    348    349     1  0.0000000  1.2552000  3
    341    347    348    350     1  0.0000000  1.2552000  3
    341    347    351    352     1  0.0000000  1.2552000  3
    341    347    351    353     1  0.0000000  1.2552000  3
    342    341    344    364     1  0.0000000  0.6508444  3
    342    341    344    345     1  0.0000000  0.6508444  3
    342    341    344    346     1  0.0000000  0.6508444  3
    342    341    347    348     1  0.0000000  1.2552000  3
    342    341    347    351     1  0.0000000  1.2552000  3
    343    341    344    364     1  0.0000000  0.6508444  3
    343    341    344    345     1  0.0000000  0.6508444  3
    343    341    344    346     1  0.0000000  0.6508444  3
    343    341    347    348     1  0.0000000  1.2552000  3
    343    341    347    351     1  0.0000000  1.2552000  3
    345    344    341    347     1  0.0000000  0.6508444  3
    345    344    364    365     1  0.0000000  0.0000000  2
    346    344    341    347     1  0.0000000  0.6508444  3
    346    344    364    365     1  0.0000000  0.0000000  2
    347    348    357    358     1  0.0000000  0.6508444  3
    347    348    357    359     1  0.0000000  0.6508444  3
    347    351    354    355     1  0.0000000  0.6508444  3
    347    351    354    356     1  0.0000000  0.6508444  3
    348    347    351    352     1  0.0000000  1.2552000  3
    348    347    351    353     1  0.0000000  1.2552000  3
    349    348    347    351     1  0.0000000  1.2552000  3
    349    348    357    361     1  0.0000000  0.6508444  3
    349    348    357    358     1  0.0000000  0.6508444  3
    349    348    357    359     1  0.0000000  0.6508444  3
    350    348    347    351     1  0.0000000  1.2552000  3
    350    348    357    361     1  0.0000000  0.6508444  3
    350    348    357    358     1  0.0000000  0.6508444  3
    350    348    357    359     1  0.0000000  0.6508444  3
    352    351    354    360     1  0.0000000  0.6508444  3
    352    351    354    355     1  0.0000000  0.6508444  3
    352    351    354    356     1  0.0000000  0.6508444  3
    353    351    354    360     1  0.0000000  0.6508444  3
    353    351    354    355     1  0.0000000  0.6508444  3
    353    351    354    356     1  0.0000000  0.6508444  3
    354    360    764    765     1  180.0000771  10.4600000  2
    355    354    360    362     1  0.0000000  3.3472000  1
    355    354    360    362     1  0.0000000  0.0000000  2
    355    354    360    362     1  180.0000771  0.3347200  3
    355    354    360    764     1  180.0000771  0.0000000  2
    356    354    360    362     1  0.0000000  3.3472000  1
    356    354    360    362     1  0.0000000  0.0000000  2
    356    354    360    362     1  180.0000771  0.3347200  3
    356    354    360    764     1  180.0000771  0.0000000  2
    357    361    789    790     1  180.0000771  10.4600000  2
    358    357    361    363     1  0.0000000  3.3472000  1
    358    357    361    363     1  0.0000000  0.0000000  2
    358    357    361    363     1  180.0000771  0.3347200  3
    358    357    361    789     1  180.0000771  0.0000000  2
    359    357    361    363     1  0.0000000  3.3472000  1
    359    357    361    363     1  0.0000000  0.0000000  2
    359    357    361    363     1  180.0000771  0.3347200  3
    359    357    361    789     1  180.0000771  0.0000000  2
    360    764    744    745     1  0.0000000  0.0000000  2
    360    764    744    746     1  0.0000000  0.0000000  2
    361    789    769    770     1  0.0000000  0.0000000  2
    361    789    769    771     1  0.0000000  0.0000000  2
    362    360    764    765     1  0.0000000  8.3680000  1
    362    360    764    765     1  180.0000771  10.4600000  2
    363    361    789    790     1  0.0000000  8.3680000  1
    363    361    789    790     1  180.0000771  10.4600000  2
    366    369    389    390     1  0.0000000  0.0000000  2
    366    372    373    374     1  0.0000000  1.2552000  3
    366    372    373    375     1  0.0000000  1.2552000  3
    366    372    376    377     1  0.0000000  1.2552000  3
    366    372    376    378     1  0.0000000  1.2552000  3
    367    366    369    389     1  0.0000000  0.6508444  3
    367    366    369    370     1  0.0000000  0.6508444  3
    367    366    369    371     1  0.0000000  0.6508444  3
    367    366    372    373     1  0.0000000  1.2552000  3
    367    366    372    376     1  0.0000000  1.2552000  3
    368    366    369    389     1  0.0000000  0.6508444  3
    368    366    369    370     1  0.0000000  0.6508444  3
    368    366    369    371     1  0.0000000  0.6508444  3
    368    366    372    373     1  0.0000000  1.2552000  3
    368    366    372    376     1  0.0000000  1.2552000  3
    370    369    366    372     1  0.0000000  0.6508444  3
    370    369    389    390     1  0.0000000  0.0000000  2
    371    369    366    372     1  0.0000000  0.6508444  3
    371    369    389    390     1  0.0000000  0.0000000  2
    372    373    382    383     1  0.0000000  0.6508444  3
    372    373    382    384     1  0.0000000  0.6508444  3
    372    376    379    380     1  0.0000000  0.6508444  3
    372    376    379    381     1  0.0000000  0.6508444  3
    373    372    376    377     1  0.0000000  1.2552000  3
    373    372    376    378     1  0.0000000  1.2552000  3
    374    373    372    376     1  0.0000000  1.2552000  3
    374    373    382    386     1  0.0000000  0.6508444  3
    374    373    382    383     1  0.0000000  0.6508444  3
    374    373    382    384     1  0.0000000  0.6508444  3
    375    373    372    376     1  0.0000000  1.2552000  3
    375    373    382    386     1  0.0000000  0.6508444  3
    375    373    382    383     1  0.0000000  0.6508444  3
    375    373    382    384     1  0.0000000  0.6508444  3
    377    376    379    385     1  0.0000000  0.6508444  3
    377    376    379    380     1  0.0000000  0.6508444  3
    377    376    379    381     1  0.0000000  0.6508444  3
    378    376    379    385     1  0.0000000  0.6508444  3
    378    376    379    380     1  0.0000000  0.6508444  3
    378    376    379    381     1  0.0000000  0.6508444  3
    379    385    814    815     1  180.0000771  10.4600000  2
    380    379    385    387     1  0.0000000  3.3472000  1
    380    379    385    387     1  0.0000000  0.0000000  2
    380    379    385    387     1  180.0000771  0.3347200  3
    380    379    385    814     1  180.0000771  0.0000000  2
    381    379    385    387     1  0.0000000  3.3472000  1
    381    379    385    387     1  0.0000000  0.0000000  2
    381    379    385    387     1  180.0000771  0.3347200  3
    381    379    385    814     1  180.0000771  0.0000000  2
    382    386    839    840     1  180.0000771  10.4600000  2
    383    382    386    388     1  0.0000000  3.3472000  1
    383    382    386    388     1  0.0000000  0.0000000  2
    383    382    386    388     1  180.0000771  0.3347200  3
    383    382    386    839     1  180.0000771  0.0000000  2
    384    382    386    388     1  0.0000000  3.3472000  1
    384    382    386    388     1  0.0000000  0.0000000  2
    384    382    386    388     1  180.0000771  0.3347200  3
    384    382    386    839     1  180.0000771  0.0000000  2
    385    814    794    795     1  0.0000000  0.0000000  2
    385    814    794    796     1  0.0000000  0.0000000  2
    386    839    819    820     1  0.0000000  0.0000000  2
    386    839    819    821     1  0.0000000  0.0000000  2
    387    385    814    815     1  0.0000000  8.3680000  1
    387    385    814    815     1  180.0000771  10.4600000  2
    388    386    839    840     1  0.0000000  8.3680000  1
    388    386    839    840     1  180.0000771  10.4600000  2
    391    394    414    415     1  0.0000000  0.0000000  2
    391    397    398    399     1  0.0000000  1.2552000  3
    391    397    398    400     1  0.0000000  1.2552000  3
    391    397    401    402     1  0.0000000  1.2552000  3
    391    397    401    403     1  0.0000000  1.2552000  3
    392    391    394    414     1  0.0000000  0.6508444  3
    392    391    394    395     1  0.0000000  0.6508444  3
    392    391    394    396     1  0.0000000  0.6508444  3
    392    391    397    398     1  0.0000000  1.2552000  3
    392    391    397    401     1  0.0000000  1.2552000  3
    393    391    394    414     1  0.0000000  0.6508444  3
    393    391    394    395     1  0.0000000  0.6508444  3
    393    391    394    396     1  0.0000000  0.6508444  3
    393    391    397    398     1  0.0000000  1.2552000  3
    393    391    397    401     1  0.0000000  1.2552000  3
    395    394    391    397     1  0.0000000  0.6508444  3
    395    394    414    415     1  0.0000000  0.0000000  2
    396    394    391    397     1  0.0000000  0.6508444  3
    396    394    414    415     1  0.0000000  0.0000000  2
    397    398    407    408     1  0.0000000  0.6508444  3
    397    398    407    409     1  0.0000000  0.6508444  3
    397    401    404    405     1  0.0000000  0.6508444  3
    397    401    404    406     1  0.0000000  0.6508444  3
    398    397    401    402     1  0.0000000  1.2552000  3
    398    397    401    403     1  0.0000000  1.2552000  3
    399    398    397    401     1  0.0000000  1.2552000  3
    399    398    407    411     1  0.0000000  0.6508444  3
    399    398    407    408     1  0.0000000  0.6508444  3
    399    398    407    409     1  0.0000000  0.6508444  3
    400    398    397    401     1  0.0000000  1.2552000  3
    400    398    407    411     1  0.0000000  0.6508444  3
    400    398    407    408     1  0.0000000  0.6508444  3
    400    398    407    409     1  0.0000000  0.6508444  3
    402    401    404    410     1  0.0000000  0.6508444  3
    402    401    404    405     1  0.0000000  0.6508444  3
    402    401    404    406     1  0.0000000  0.6508444  3
    403    401    404    410     1  0.0000000  0.6508444  3
    403    401    404    405     1  0.0000000  0.6508444  3
    403    401    404    406     1  0.0000000  0.6508444  3
    404    410    864    865     1  180.0000771  10.4600000  2
    405    404    410    412     1  0.0000000  3.3472000  1
    405    404    410    412     1  0.0000000  0.0000000  2
    405    404    410    412     1  180.0000771  0.3347200  3
    405    404    410    864     1  180.0000771  0.0000000  2
    406    404    410    412     1  0.0000000  3.3472000  1
    406    404    410    412     1  0.0000000  0.0000000  2
    406    404    410    412     1  180.0000771  0.3347200  3
    406    404    410    864     1  180.0000771  0.0000000  2
    407    411    889    890     1  180.0000771  10.4600000  2
    408    407    411    413     1  0.0000000  3.3472000  1
    408    407    411    413     1  0.0000000  0.0000000  2
    408    407    411    413     1  180.0000771  0.3347200  3
    408    407    411    889     1  180.0000771  0.0000000  2
    409    407    411    413     1  0.0000000  3.3472000  1
    409    407    411    413     1  0.0000000  0.0000000  2
    409    407    411    413     1  180.0000771  0.3347200  3
    409    407    411    889     1  180.0000771  0.0000000  2
    410    864    844    845     1  0.0000000  0.0000000  2
    410    864    844    846     1  0.0000000  0.0000000  2
    411    889    869    870     1  0.0000000  0.0000000  2
    411    889    869    871     1  0.0000000  0.0000000  2
    412    410    864    865     1  0.0000000  8.3680000  1
    412    410    864    865     1  180.0000771  10.4600000  2
    413    411    889    890     1  0.0000000  8.3680000  1
    413    411    889    890     1  180.0000771  10.4600000  2
    416    419    439    440     1  0.0000000  0.0000000  2
    416    422    423    424     1  0.0000000  1.2552000  3
    416    422    423    425     1  0.0000000  1.2552000  3
    416    422    426    427     1  0.0000000  1.2552000  3
    416    422    426    428     1  0.0000000  1.2552000  3
    417    416    419    439     1  0.0000000  0.6508444  3
    417    416    419    420     1  0.0000000  0.6508444  3
    417    416    419    421     1  0.0000000  0.6508444  3
    417    416    422    423     1  0.0000000  1.2552000  3
    417    416    422    426     1  0.0000000  1.2552000  3
    418    416    419    439     1  0.0000000  0.6508444  3
    418    416    419    420     1  0.0000000  0.6508444  3
    418    416    419    421     1  0.0000000  0.6508444  3
    418    416    422    423     1  0.0000000  1.2552000  3
    418    416    422    426     1  0.0000000  1.2552000  3
    420    419    416    422     1  0.0000000  0.6508444  3
    420    419    439    440     1  0.0000000  0.0000000  2
    421    419    416    422     1  0.0000000  0.6508444  3
    421    419    439    440     1  0.0000000  0.0000000  2
    422    423    432    433     1  0.0000000  0.6508444  3
    422    423    432    434     1  0.0000000  0.6508444  3
    422    426    429    430     1  0.0000000  0.6508444  3
    422    426    429    431     1  0.0000000  0.6508444  3
    423    422    426    427     1  0.0000000  1.2552000  3
    423    422    426    428     1  0.0000000  1.2552000  3
    424    423    422    426     1  0.0000000  1.2552000  3
    424    423    432    436     1  0.0000000  0.6508444  3
    424    423    432    433     1  0.0000000  0.6508444  3
    424    423    432    434     1  0.0000000  0.6508444  3
    425    423    422    426     1  0.0000000  1.2552000  3
    425    423    432    436     1  0.0000000  0.6508444  3
    425    423    432    433     1  0.0000000  0.6508444  3
    425    423    432    434     1  0.0000000  0.6508444  3
    427    426    429    435     1  0.0000000  0.6508444  3
    427    426    429    430     1  0.0000000  0.6508444  3
    427    426    429    431     1  0.0000000  0.6508444  3
    428    426    429    435     1  0.0000000  0.6508444  3
    428    426    429    430     1  0.0000000  0.6508444  3
    428    426    429    431     1  0.0000000  0.6508444  3
    429    435    914    915     1  180.0000771  10.4600000  2
    430    429    435    437     1  0.0000000  3.3472000  1
    430    429    435    437     1  0.0000000  0.0000000  2
    430    429    435    437     1  180.0000771  0.3347200  3
    430    429    435    914     1  180.0000771  0.0000000  2
    431    429    435    437     1  0.0000000  3.3472000  1
    431    429    435    437     1  0.0000000  0.0000000  2
    431    429    435    437     1  180.0000771  0.3347200  3
    431    429    435    914     1  180.0000771  0.0000000  2
    432    436    939    940     1  180.0000771  10.4600000  2
    433    432    436    438     1  0.0000000  3.3472000  1
    433    432    436    438     1  0.0000000  0.0000000  2
    433    432    436    438     1  180.0000771  0.3347200  3
    433    432    436    939     1  180.0000771  0.0000000  2
    434    432    436    438     1  0.0000000  3.3472000  1
    434    432    436    438     1  0.0000000  0.0000000  2
    434    432    436    438     1  180.0000771  0.3347200  3
    434    432    436    939     1  180.0000771  0.0000000  2
    435    914    894    895     1  0.0000000  0.0000000  2
    435    914    894    896     1  0.0000000  0.0000000  2
    436    939    919    920     1  0.0000000  0.0000000  2
    436    939    919    921     1  0.0000000  0.0000000  2
    437    435    914    915     1  0.0000000  8.3680000  1
    437    435    914    915     1  180.0000771  10.4600000  2
    438    436    939    940     1  0.0000000  8.3680000  1
    438    436    939    940     1  180.0000771  10.4600000  2
    441    444    464    465     1  0.0000000  0.0000000  2
    441    447    448    449     1  0.0000000  1.2552000  3
    441    447    448    450     1  0.0000000  1.2552000  3
    441    447    451    452     1  0.0000000  1.2552000  3
    441    447    451    453     1  0.0000000  1.2552000  3
    442    441    444    464     1  0.0000000  0.6508444  3
    442    441    444    445     1  0.0000000  0.6508444  3
    442    441    444    446     1  0.0000000  0.6508444  3
    442    441    447    448     1  0.0000000  1.2552000  3
    442    441    447    451     1  0.0000000  1.2552000  3
    443    441    444    464     1  0.0000000  0.6508444  3
    443    441    444    445     1  0.0000000  0.6508444  3
    443    441    444    446     1  0.0000000  0.6508444  3
    443    441    447    448     1  0.0000000  1.2552000  3
    443    441    447    451     1  0.0000000  1.2552000  3
    445    444    441    447     1  0.0000000  0.6508444  3
    445    444    464    465     1  0.0000000  0.0000000  2
    446    444    441    447     1  0.0000000  0.6508444  3
    446    444    464    465     1  0.0000000  0.0000000  2
    447    448    457    458     1  0.0000000  0.6508444  3
    447    448    457    459     1  0.0000000  0.6508444  3
    447    451    454    455     1  0.0000000  0.6508444  3
    447    451    454    456     1  0.0000000  0.6508444  3
    448    447    451    452     1  0.0000000  1.2552000  3
    448    447    451    453     1  0.0000000  1.2552000  3
    449    448    447    451     1  0.0000000  1.2552000  3
    449    448    457    461     1  0.0000000  0.6508444  3
    449    448    457    458     1  0.0000000  0.6508444  3
    449    448    457    459     1  0.0000000  0.6508444  3
    450    448    447    451     1  0.0000000  1.2552000  3
    450    448    457    461     1  0.0000000  0.6508444  3
    450    448    457    458     1  0.0000000  0.6508444  3
    450    448    457    459     1  0.0000000  0.6508444  3
    452    451    454    460     1  0.0000000  0.6508444  3
    452    451    454    455     1  0.0000000  0.6508444  3
    452    451    454    456     1  0.0000000  0.6508444  3
    453    451    454    460     1  0.0000000  0.6508444  3
    453    451    454    455     1  0.0000000  0.6508444  3
    453    451    454    456     1  0.0000000  0.6508444  3
    454    460    964    965     1  180.0000771  10.4600000  2
    455    454    460    462     1  0.0000000  3.3472000  1
    455    454    460    462     1  0.0000000  0.0000000  2
    455    454    460    462     1  180.0000771  0.3347200  3
    455    454    460    964     1  180.0000771  0.0000000  2
    456    454    460    462     1  0.0000000  3.3472000  1
    456    454    460    462     1  0.0000000  0.0000000  2
    456    454    460    462     1  180.0000771  0.3347200  3
    456    454    460    964     1  180.0000771  0.0000000  2
    457    461    989    990     1  180.0000771  10.4600000  2
    458    457    461    463     1  0.0000000  3.3472000  1
    458    457    461    463     1  0.0000000  0.0000000  2
    458    457    461    463     1  180.0000771  0.3347200  3
    458    457    461    989     1  180.0000771  0.0000000  2
    459    457    461    463     1  0.0000000  3.3472000  1
    459    457    461    463     1  0.0000000  0.0000000  2
    459    457    461    463     1  180.0000771  0.3347200  3
    459    457    461    989     1  180.0000771  0.0000000  2
    460    964    944    945     1  0.0000000  0.0000000  2
    460    964    944    946     1  0.0000000  0.0000000  2
    461    989    969    970     1  0.0000000  0.0000000  2
    461    989    969    971     1  0.0000000  0.0000000  2
    462    460    964    965     1  0.0000000  8.3680000  1
    462    460    964    965     1  180.0000771  10.4600000  2
    463    461    989    990     1  0.0000000  8.3680000  1
    463    461    989    990     1  180.0000771  10.4600000  2
    466    469    489    490     1  0.0000000  0.0000000  2
    466    472    473    474     1  0.0000000  1.2552000  3
    466    472    473    475     1  0.0000000  1.2552000  3
    466    472    476    477     1  0.0000000  1.2552000  3
    466    472    476    478     1  0.0000000  1.2552000  3
    467    466    469    489     1  0.0000000  0.6508444  3
    467    466    469    470     1  0.0000000  0.6508444  3
    467    466    469    471     1  0.0000000  0.6508444  3
    467    466    472    473     1  0.0000000  1.2552000  3
    467    466    472    476     1  0.0000000  1.2552000  3
    468    466    469    489     1  0.0000000  0.6508444  3
    468    466    469    470     1  0.0000000  0.6508444  3
    468    466    469    471     1  0.0000000  0.6508444  3
    468    466    472    473     1  0.0000000  1.2552000  3
    468    466    472    476     1  0.0000000  1.2552000  3
    470    469    466    472     1  0.0000000  0.6508444  3
    470    469    489    490     1  0.0000000  0.0000000  2
    471    469    466    472     1  0.0000000  0.6508444  3
    471    469    489    490     1  0.0000000  0.0000000  2
    472    473    482    483     1  0.0000000  0.6508444  3
    472    473    482    484     1  0.0000000  0.6508444  3
    472    476    479    480     1  0.0000000  0.6508444  3
    472    476    479    481     1  0.0000000  0.6508444  3
    473    472    476    477     1  0.0000000  1.2552000  3
    473    472    476    478     1  0.0000000  1.2552000  3
    474    473    472    476     1  0.0000000  1.2552000  3
    474    473    482    486     1  0.0000000  0.6508444  3
    474    473    482    483     1  0.0000000  0.6508444  3
    474    473    482    484     1  0.0000000  0.6508444  3
    475    473    472    476     1  0.0000000  1.2552000  3
    475    473    482    486     1  0.0000000  0.6508444  3
    475    473    482    483     1  0.0000000  0.6508444  3
    475    473    482    484     1  0.0000000  0.6508444  3
    477    476    479    485     1  0.0000000  0.6508444  3
    477    476    479    480     1  0.0000000  0.6508444  3
    477    476    479    481     1  0.0000000  0.6508444  3
    478    476    479    485     1  0.0000000  0.6508444  3
    478    476    479    480     1  0.0000000  0.6508444  3
    478    476    479    481     1  0.0000000  0.6508444  3
    479    485   1014   1015     1  180.0000771  10.4600000  2
    480    479    485    487     1  0.0000000  3.3472000  1
    480    479    485    487     1  0.0000000  0.0000000  2
    480    479    485    487     1  180.0000771  0.3347200  3
    480    479    485   1014     1  180.0000771  0.0000000  2
    481    479    485    487     1  0.0000000  3.3472000  1
    481    479    485    487     1  0.0000000  0.0000000  2
    481    479    485    487     1  180.0000771  0.3347200  3
    481    479    485   1014     1  180.0000771  0.0000000  2
    482    486   1039   1040     1  180.0000771  10.4600000  2
    483    482    486    488     1  0.0000000  3.3472000  1
    483    482    486    488     1  0.0000000  0.0000000  2
    483    482    486    488     1  180.0000771  0.3347200  3
    483    482    486   1039     1  180.0000771  0.0000000  2
    484    482    486    488     1  0.0000000  3.3472000  1
    484    482    486    488     1  0.0000000  0.0000000  2
    484    482    486    488     1  180.0000771  0.3347200  3
    484    482    486   1039     1  180.0000771  0.0000000  2
    485   1014    994    995     1  0.0000000  0.0000000  2
    485   1014    994    996     1  0.0000000  0.0000000  2
    486   1039   1019   1020     1  0.0000000  0.0000000  2
    486   1039   1019   1021     1  0.0000000  0.0000000  2
    487    485   1014   1015     1  0.0000000  8.3680000  1
    487    485   1014   1015     1  180.0000771  10.4600000  2
    488    486   1039   1040     1  0.0000000  8.3680000  1
    488    486   1039   1040     1  180.0000771  10.4600000  2
    491    494    514    515     1  0.0000000  0.0000000  2
    491    497    498    499     1  0.0000000  1.2552000  3
    491    497    498    500     1  0.0000000  1.2552000  3
    491    497    501    502     1  0.0000000  1.2552000  3
    491    497    501    503     1  0.0000000  1.2552000  3
    492    491    494    514     1  0.0000000  0.6508444  3
    492    491    494    495     1  0.0000000  0.6508444  3
    492    491    494    496     1  0.0000000  0.6508444  3
    492    491    497    498     1  0.0000000  1.2552000  3
    492    491    497    501     1  0.0000000  1.2552000  3
    493    491    494    514     1  0.0000000  0.6508444  3
    493    491    494    495     1  0.0000000  0.6508444  3
    493    491    494    496     1  0.0000000  0.6508444  3
    493    491    497    498     1  0.0000000  1.2552000  3
    493    491    497    501     1  0.0000000  1.2552000  3
    495    494    491    497     1  0.0000000  0.6508444  3
    495    494    514    515     1  0.0000000  0.0000000  2
    496    494    491    497     1  0.0000000  0.6508444  3
    496    494    514    515     1  0.0000000  0.0000000  2
    497    498    507    508     1  0.0000000  0.6508444  3
    497    498    507    509     1  0.0000000  0.6508444  3
    497    501    504    505     1  0.0000000  0.6508444  3
    497    501    504    506     1  0.0000000  0.6508444  3
    498    497    501    502     1  0.0000000  1.2552000  3
    498    497    501    503     1  0.0000000  1.2552000  3
    499    498    497    501     1  0.0000000  1.2552000  3
    499    498    507    511     1  0.0000000  0.6508444  3
    499    498    507    508     1  0.0000000  0.6508444  3
    499    498    507    509     1  0.0000000  0.6508444  3
    500    498    497    501     1  0.0000000  1.2552000  3
    500    498    507    511     1  0.0000000  0.6508444  3
    500    498    507    508     1  0.0000000  0.6508444  3
    500    498    507    509     1  0.0000000  0.6508444  3
    502    501    504    510     1  0.0000000  0.6508444  3
    502    501    504    505     1  0.0000000  0.6508444  3
    502    501    504    506     1  0.0000000  0.6508444  3
    503    501    504    510     1  0.0000000  0.6508444  3
    503    501    504    505     1  0.0000000  0.6508444  3
    503    501    504    506     1  0.0000000  0.6508444  3
    504    510   1064   1065     1  180.0000771  10.4600000  2
    505    504    510    512     1  0.0000000  3.3472000  1
    505    504    510    512     1  0.0000000  0.0000000  2
    505    504    510    512     1  180.0000771  0.3347200  3
    505    504    510   1064     1  180.0000771  0.0000000  2
    506    504    510    512     1  0.0000000  3.3472000  1
    506    504    510    512     1  0.0000000  0.0000000  2
    506    504    510    512     1  180.0000771  0.3347200  3
    506    504    510   1064     1  180.0000771  0.0000000  2
    507    511   1089   1090     1  180.0000771  10.4600000  2
    508    507    511    513     1  0.0000000  3.3472000  1
    508    507    511    513     1  0.0000000  0.0000000  2
    508    507    511    513     1  180.0000771  0.3347200  3
    508    507    511   1089     1  180.0000771  0.0000000  2
    509    507    511    513     1  0.0000000  3.3472000  1
    509    507    511    513     1  0.0000000  0.0000000  2
    509    507    511    513     1  180.0000771  0.3347200  3
    509    507    511   1089     1  180.0000771  0.0000000  2
    510   1064   1044   1045     1  0.0000000  0.0000000  2
    510   1064   1044   1046     1  0.0000000  0.0000000  2
    511   1089   1069   1070     1  0.0000000  0.0000000  2
    511   1089   1069   1071     1  0.0000000  0.0000000  2
    512    510   1064   1065     1  0.0000000  8.3680000  1
    512    510   1064   1065     1  180.0000771  10.4600000  2
    513    511   1089   1090     1  0.0000000  8.3680000  1
    513    511   1089   1090     1  180.0000771  10.4600000  2
    516    519    539    540     1  0.0000000  0.0000000  2
    516    522    523    524     1  0.0000000  1.2552000  3
    516    522    523    525     1  0.0000000  1.2552000  3
    516    522    526    527     1  0.0000000  1.2552000  3
    516    522    526    528     1  0.0000000  1.2552000  3
    517    516    519    539     1  0.0000000  0.6508444  3
    517    516    519    520     1  0.0000000  0.6508444  3
    517    516    519    521     1  0.0000000  0.6508444  3
    517    516    522    523     1  0.0000000  1.2552000  3
    517    516    522    526     1  0.0000000  1.2552000  3
    518    516    519    539     1  0.0000000  0.6508444  3
    518    516    519    520     1  0.0000000  0.6508444  3
    518    516    519    521     1  0.0000000  0.6508444  3
    518    516    522    523     1  0.0000000  1.2552000  3
    518    516    522    526     1  0.0000000  1.2552000  3
    520    519    516    522     1  0.0000000  0.6508444  3
    520    519    539    540     1  0.0000000  0.0000000  2
    521    519    516    522     1  0.0000000  0.6508444  3
    521    519    539    540     1  0.0000000  0.0000000  2
    522    523    532    533     1  0.0000000  0.6508444  3
    522    523    532    534     1  0.0000000  0.6508444  3
    522    526    529    530     1  0.0000000  0.6508444  3
    522    526    529    531     1  0.0000000  0.6508444  3
    523    522    526    527     1  0.0000000  1.2552000  3
    523    522    526    528     1  0.0000000  1.2552000  3
    524    523    522    526     1  0.0000000  1.2552000  3
    524    523    532    536     1  0.0000000  0.6508444  3
    524    523    532    533     1  0.0000000  0.6508444  3
    524    523    532    534     1  0.0000000  0.6508444  3
    525    523    522    526     1  0.0000000  1.2552000  3
    525    523    532    536     1  0.0000000  0.6508444  3
    525    523    532    533     1  0.0000000  0.6508444  3
    525    523    532    534     1  0.0000000  0.6508444  3
    527    526    529    535     1  0.0000000  0.6508444  3
    527    526    529    530     1  0.0000000  0.6508444  3
    527    526    529    531     1  0.0000000  0.6508444  3
    528    526    529    535     1  0.0000000  0.6508444  3
    528    526    529    530     1  0.0000000  0.6508444  3
    528    526    529    531     1  0.0000000  0.6508444  3
    529    535   1114   1115     1  180.0000771  10.4600000  2
    530    529    535    537     1  0.0000000  3.3472000  1
    530    529    535    537     1  0.0000000  0.0000000  2
    530    529    535    537     1  180.0000771  0.3347200  3
    530    529    535   1114     1  180.0000771  0.0000000  2
    531    529    535    537     1  0.0000000  3.3472000  1
    531    529    535    537     1  0.0000000  0.0000000  2
    531    529    535    537     1  180.0000771  0.3347200  3
    531    529    535   1114     1  180.0000771  0.0000000  2
    532    536   1139   1140     1  180.0000771  10.4600000  2
    533    532    536    538     1  0.0000000  3.3472000  1
    533    532    536    538     1  0.0000000  0.0000000  2
    533    532    536    538     1  180.0000771  0.3347200  3
    533    532    536   1139     1  180.0000771  0.0000000  2
    534    532    536    538     1  0.0000000  3.3472000  1
    534    532    536    538     1  0.0000000  0.0000000  2
    534    532    536    538     1  180.0000771  0.3347200  3
    534    532    536   1139     1  180.0000771  0.0000000  2
    535   1114   1094   1095     1  0.0000000  0.0000000  2
    535   1114   1094   1096     1  0.0000000  0.0000000  2
    536   1139   1119   1120     1  0.0000000  0.0000000  2
    536   1139   1119   1121     1  0.0000000  0.0000000  2
    537    535   1114   1115     1  0.0000000  8.3680000  1
    537    535   1114   1115     1  180.0000771  10.4600000  2
    538    536   1139   1140     1  0.0000000  8.3680000  1
    538    536   1139   1140     1  180.0000771  10.4600000  2
    541    544    564    565     1  0.0000000  0.0000000  2
    541    547    548    549     1  0.0000000  1.2552000  3
    541    547    548    550     1  0.0000000  1.2552000  3
    541    547    551    552     1  0.0000000  1.2552000  3
    541    547    551    553     1  0.0000000  1.2552000  3
    542    541    544    564     1  0.0000000  0.6508444  3
    542    541    544    545     1  0.0000000  0.6508444  3
    542    541    544    546     1  0.0000000  0.6508444  3
    542    541    547    548     1  0.0000000  1.2552000  3
    542    541    547    551     1  0.0000000  1.2552000  3
    543    541    544    564     1  0.0000000  0.6508444  3
    543    541    544    545     1  0.0000000  0.6508444  3
    543    541    544    546     1  0.0000000  0.6508444  3
    543    541    547    548     1  0.0000000  1.2552000  3
    543    541    547    551     1  0.0000000  1.2552000  3
    545    544    541    547     1  0.0000000  0.6508444  3
    545    544    564    565     1  0.0000000  0.0000000  2
    546    544    541    547     1  0.0000000  0.6508444  3
    546    544    564    565     1  0.0000000  0.0000000  2
    547    548    557    558     1  0.0000000  0.6508444  3
    547    548    557    559     1  0.0000000  0.6508444  3
    547    551    554    555     1  0.0000000  0.6508444  3
    547    551    554    556     1  0.0000000  0.6508444  3
    548    547    551    552     1  0.0000000  1.2552000  3
    548    547    551    553     1  0.0000000  1.2552000  3
    549    548    547    551     1  0.0000000  1.2552000  3
    549    548    557    561     1  0.0000000  0.6508444  3
    549    548    557    558     1  0.0000000  0.6508444  3
    549    548    557    559     1  0.0000000  0.6508444  3
    550    548    547    551     1  0.0000000  1.2552000  3
    550    548    557    561     1  0.0000000  0.6508444  3
    550    548    557    558     1  0.0000000  0.6508444  3
    550    548    557    559     1  0.0000000  0.6508444  3
    552    551    554    560     1  0.0000000  0.6508444  3
    552    551    554    555     1  0.0000000  0.6508444  3
    552    551    554    556     1  0.0000000  0.6508444  3
    553    551    554    560     1  0.0000000  0.6508444  3
    553    551    554    555     1  0.0000000  0.6508444  3
    553    551    554    556     1  0.0000000  0.6508444  3
    554    560   1164   1165     1  180.0000771  10.4600000  2
    555    554    560    562     1  0.0000000  3.3472000  1
    555    554    560    562     1  0.0000000  0.0000000  2
    555    554    560    562     1  180.0000771  0.3347200  3
    555    554    560   1164     1  180.0000771  0.0000000  2
    556    554    560    562     1  0.0000000  3.3472000  1
    556    554    560    562     1  0.0000000  0.0000000  2
    556    554    560    562     1  180.0000771  0.3347200  3
    556    554    560   1164     1  180.0000771  0.0000000  2
    557    561   1189   1190     1  180.0000771  10.4600000  2
    558    557    561    563     1  0.0000000  3.3472000  1
    558    557    561    563     1  0.0000000  0.0000000  2
    558    557    561    563     1  180.0000771  0.3347200  3
    558    557    561   1189     1  180.0000771  0.0000000  2
    559    557    561    563     1  0.0000000  3.3472000  1
    559    557    561    563     1  0.0000000  0.0000000  2
    559    557    561    563     1  180.0000771  0.3347200  3
    559    557    561   1189     1  180.0000771  0.0000000  2
    560   1164   1144   1145     1  0.0000000  0.0000000  2
    560   1164   1144   1146     1  0.0000000  0.0000000  2
    561   1189   1169   1170     1  0.0000000  0.0000000  2
    561   1189   1169   1171     1  0.0000000  0.0000000  2
    562    560   1164   1165     1  0.0000000  8.3680000  1
    562    560   1164   1165     1  180.0000771  10.4600000  2
    563    561   1189   1190     1  0.0000000  8.3680000  1
    563    561   1189   1190     1  180.0000771  10.4600000  2
    566    569    589    590     1  0.0000000  0.0000000  2
    566    572    573    574     1  0.0000000  1.2552000  3
    566    572    573    575     1  0.0000000  1.2552000  3
    566    572    576    577     1  0.0000000  1.2552000  3
    566    572    576    578     1  0.0000000  1.2552000  3
    567    566    569    589     1  0.0000000  0.6508444  3
    567    566    569    570     1  0.0000000  0.6508444  3
    567    566    569    571     1  0.0000000  0.6508444  3
    567    566    572    573     1  0.0000000  1.2552000  3
    567    566    572    576     1  0.0000000  1.2552000  3
    568    566    569    589     1  0.0000000  0.6508444  3
    568    566    569    570     1  0.0000000  0.6508444  3
    568    566    569    571     1  0.0000000  0.6508444  3
    568    566    572    573     1  0.0000000  1.2552000  3
    568    566    572    576     1  0.0000000  1.2552000  3
    570    569    566    572     1  0.0000000  0.6508444  3
    570    569    589    590     1  0.0000000  0.0000000  2
    571    569    566    572     1  0.0000000  0.6508444  3
    571    569    589    590     1  0.0000000  0.0000000  2
    572    573    582    583     1  0.0000000  0.6508444  3
    572    573    582    584     1  0.0000000  0.6508444  3
    572    576    579    580     1  0.0000000  0.6508444  3
    572    576    579    581     1  0.0000000  0.6508444  3
    573    572    576    577     1  0.0000000  1.2552000  3
    573    572    576    578     1  0.0000000  1.2552000  3
    574    573    572    576     1  0.0000000  1.2552000  3
    574    573    582    586     1  0.0000000  0.6508444  3
    574    573    582    583     1  0.0000000  0.6508444  3
    574    573    582    584     1  0.0000000  0.6508444  3
    575    573    572    576     1  0.0000000  1.2552000  3
    575    573    582    586     1  0.0000000  0.6508444  3
    575    573    582    583     1  0.0000000  0.6508444  3
    575    573    582    584     1  0.0000000  0.6508444  3
    577    576    579    585     1  0.0000000  0.6508444  3
    577    576    579    580     1  0.0000000  0.6508444  3
    577    576    579    581     1  0.0000000  0.6508444  3
    578    576    579    585     1  0.0000000  0.6508444  3
    578    576    579    580     1  0.0000000  0.6508444  3
    578    576    579    581     1  0.0000000  0.6508444  3
    579    585   1214   1215     1  180.0000771  10.4600000  2
    580    579    585    587     1  0.0000000  3.3472000  1
    580    579    585    587     1  0.0000000  0.0000000  2
    580    579    585    587     1  180.0000771  0.3347200  3
    580    579    585   1214     1  180.0000771  0.0000000  2
    581    579    585    587     1  0.0000000  3.3472000  1
    581    579    585    587     1  0.0000000  0.0000000  2
    581    579    585    587     1  180.0000771  0.3347200  3
    581    579    585   1214     1  180.0000771  0.0000000  2
    582    586   1239   1240     1  180.0000771  10.4600000  2
    583    582    586    588     1  0.0000000  3.3472000  1
    583    582    586    588     1  0.0000000  0.0000000  2
    583    582    586    588     1  180.0000771  0.3347200  3
    583    582    586   1239     1  180.0000771  0.0000000  2
    584    582    586    588     1  0.0000000  3.3472000  1
    584    582    586    588     1  0.0000000  0.0000000  2
    584    582    586    588     1  180.0000771  0.3347200  3
    584    582    586   1239     1  180.0000771  0.0000000  2
    585   1214   1194   1195     1  0.0000000  0.0000000  2
    585   1214   1194   1196     1  0.0000000  0.0000000  2
    586   1239   1219   1220     1  0.0000000  0.0000000  2
    586   1239   1219   1221     1  0.0000000  0.0000000  2
    587    585   1214   1215     1  0.0000000  8.3680000  1
    587    585   1214   1215     1  180.0000771  10.4600000  2
    588    586   1239   1240     1  0.0000000  8.3680000  1
    588    586   1239   1240     1  180.0000771  10.4600000  2
    591    594    614    615     1  0.0000000  0.0000000  2
    591    597    598    599     1  0.0000000  1.2552000  3
    591    597    598    600     1  0.0000000  1.2552000  3
    591    597    601    602     1  0.0000000  1.2552000  3
    591    597    601    603     1  0.0000000  1.2552000  3
    592    591    594    614     1  0.0000000  0.6508444  3
    592    591    594    595     1  0.0000000  0.6508444  3
    592    591    594    596     1  0.0000000  0.6508444  3
    592    591    597    598     1  0.0000000  1.2552000  3
    592    591    597    601     1  0.0000000  1.2552000  3
    593    591    594    614     1  0.0000000  0.6508444  3
    593    591    594    595     1  0.0000000  0.6508444  3
    593    591    594    596     1  0.0000000  0.6508444  3
    593    591    597    598     1  0.0000000  1.2552000  3
    593    591    597    601     1  0.0000000  1.2552000  3
    595    594    591    597     1  0.0000000  0.6508444  3
    595    594    614    615     1  0.0000000  0.0000000  2
    596    594    591    597     1  0.0000000  0.6508444  3
    596    594    614    615     1  0.0000000  0.0000000  2
    597    598    607    608     1  0.0000000  0.6508444  3
    597    598    607    609     1  0.0000000  0.6508444  3
    597    601    604    605     1  0.0000000  0.6508444  3
    597    601    604    606     1  0.0000000  0.6508444  3
    598    597    601    602     1  0.0000000  1.2552000  3
    598    597    601    603     1  0.0000000  1.2552000  3
    599    598    597    601     1  0.0000000  1.2552000  3
    599    598    607    611     1  0.0000000  0.6508444  3
    599    598    607    608     1  0.0000000  0.6508444  3
    599    598    607    609     1  0.0000000  0.6508444  3
    600    598    597    601     1  0.0000000  1.2552000  3
    600    598    607    611     1  0.0000000  0.6508444  3
    600    598    607    608     1  0.0000000  0.6508444  3
    600    598    607    609     1  0.0000000  0.6508444  3
    602    601    604    610     1  0.0000000  0.6508444  3
    602    601    604    605     1  0.0000000  0.6508444  3
    602    601    604    606     1  0.0000000  0.6508444  3
    603    601    604    610     1  0.0000000  0.6508444  3
    603    601    604    605     1  0.0000000  0.6508444  3
    603    601    604    606     1  0.0000000  0.6508444  3
    604    610   1264   1265     1  180.0000771  10.4600000  2
    605    604    610    612     1  0.0000000  3.3472000  1
    605    604    610    612     1  0.0000000  0.0000000  2
    605    604    610    612     1  180.0000771  0.3347200  3
    605    604    610   1264     1  180.0000771  0.0000000  2
    606    604    610    612     1  0.0000000  3.3472000  1
    606    604    610    612     1  0.0000000  0.0000000  2
    606    604    610    612     1  180.0000771  0.3347200  3
    606    604    610   1264     1  180.0000771  0.0000000  2
    607    611   1289   1290     1  180.0000771  10.4600000  2
    608    607    611    613     1  0.0000000  3.3472000  1
    608    607    611    613     1  0.0000000  0.0000000  2
    608    607    611    613     1  180.0000771  0.3347200  3
    608    607    611   1289     1  180.0000771  0.0000000  2
    609    607    611    613     1  0.0000000  3.3472000  1
    609    607    611    613     1  0.0000000  0.0000000  2
    609    607    611    613     1  180.0000771  0.3347200  3
    609    607    611   1289     1  180.0000771  0.0000000  2
    610   1264   1244   1245     1  0.0000000  0.0000000  2
    610   1264   1244   1246     1  0.0000000  0.0000000  2
    611   1289   1269   1270     1  0.0000000  0.0000000  2
    611   1289   1269   1271     1  0.0000000  0.0000000  2
    612    610   1264   1265     1  0.0000000  8.3680000  1
    612    610   1264   1265     1  180.0000771  10.4600000  2
    613    611   1289   1290     1  0.0000000  8.3680000  1
    613    611   1289   1290     1  180.0000771  10.4600000  2
    616    619    639    640     1  0.0000000  0.0000000  2
    616    622    623    624     1  0.0000000  1.2552000  3
    616    622    623    625     1  0.0000000  1.2552000  3
    616    622    626    627     1  0.0000000  1.2552000  3
    616    622    626    628     1  0.0000000  1.2552000  3
    617    616    619    639     1  0.0000000  0.6508444  3
    617    616    619    620     1  0.0000000  0.6508444  3
    617    616    619    621     1  0.0000000  0.6508444  3
    617    616    622    623     1  0.0000000  1.2552000  3
    617    616    622    626     1  0.0000000  1.2552000  3
    618    616    619    639     1  0.0000000  0.6508444  3
    618    616    619    620     1  0.0000000  0.6508444  3
    618    616    619    621     1  0.0000000  0.6508444  3
    618    616    622    623     1  0.0000000  1.2552000  3
    618    616    622    626     1  0.0000000  1.2552000  3
    620    619    616    622     1  0.0000000  0.6508444  3
    620    619    639    640     1  0.0000000  0.0000000  2
    621    619    616    622     1  0.0000000  0.6508444  3
    621    619    639    640     1  0.0000000  0.0000000  2
    622    623    632    633     1  0.0000000  0.6508444  3
    622    623    632    634     1  0.0000000  0.6508444  3
    622    626    629    630     1  0.0000000  0.6508444  3
    622    626    629    631     1  0.0000000  0.6508444  3
    623    622    626    627     1  0.0000000  1.2552000  3
    623    622    626    628     1  0.0000000  1.2552000  3
    624    623    622    626     1  0.0000000  1.2552000  3
    624    623    632    636     1  0.0000000  0.6508444  3
    624    623    632    633     1  0.0000000  0.6508444  3
    624    623    632    634     1  0.0000000  0.6508444  3
    625    623    622    626     1  0.0000000  1.2552000  3
    625    623    632    636     1  0.0000000  0.6508444  3
    625    623    632    633     1  0.0000000  0.6508444  3
    625    623    632    634     1  0.0000000  0.6508444  3
    627    626    629    635     1  0.0000000  0.6508444  3
    627    626    629    630     1  0.0000000  0.6508444  3
    627    626    629    631     1  0.0000000  0.6508444  3
    628    626    629    635     1  0.0000000  0.6508444  3
    628    626    629    630     1  0.0000000  0.6508444  3
    628    626    629    631     1  0.0000000  0.6508444  3
    629    635   1314   1315     1  180.0000771  10.4600000  2
    630    629    635    637     1  0.0000000  3.3472000  1
    630    629    635    637     1  0.0000000  0.0000000  2
    630    629    635    637     1  180.0000771  0.3347200  3
    630    629    635   1314     1  180.0000771  0.0000000  2
    631    629    635    637     1  0.0000000  3.3472000  1
    631    629    635    637     1  0.0000000  0.0000000  2
    631    629    635    637     1  180.0000771  0.3347200  3
    631    629    635   1314     1  180.0000771  0.0000000  2
    632    636   1339   1340     1  180.0000771  10.4600000  2
    633    632    636    638     1  0.0000000  3.3472000  1
    633    632    636    638     1  0.0000000  0.0000000  2
    633    632    636    638     1  180.0000771  0.3347200  3
    633    632    636   1339     1  180.0000771  0.0000000  2
    634    632    636    638     1  0.0000000  3.3472000  1
    634    632    636    638     1  0.0000000  0.0000000  2
    634    632    636    638     1  180.0000771  0.3347200  3
    634    632    636   1339     1  180.0000771  0.0000000  2
    635   1314   1294   1295     1  0.0000000  0.0000000  2
    635   1314   1294   1296     1  0.0000000  0.0000000  2
    636   1339   1319   1320     1  0.0000000  0.0000000  2
    636   1339   1319   1321     1  0.0000000  0.0000000  2
    637    635   1314   1315     1  0.0000000  8.3680000  1
    637    635   1314   1315     1  180.0000771  10.4600000  2
    638    636   1339   1340     1  0.0000000  8.3680000  1
    638    636   1339   1340     1  180.0000771  10.4600000  2
    641    644    664    665     1  0.0000000  0.0000000  2
    641    647    648    649     1  0.0000000  1.2552000  3
    641    647    648    650     1  0.0000000  1.2552000  3
    641    647    651    652     1  0.0000000  1.2552000  3
    641    647    651    653     1  0.0000000  1.2552000  3
    642    641    644    664     1  0.0000000  0.6508444  3
    642    641    644    645     1  0.0000000  0.6508444  3
    642    641    644    646     1  0.0000000  0.6508444  3
    642    641    647    648     1  0.0000000  1.2552000  3
    642    641    647    651     1  0.0000000  1.2552000  3
    643    641    644    664     1  0.0000000  0.6508444  3
    643    641    644    645     1  0.0000000  0.6508444  3
    643    641    644    646     1  0.0000000  0.6508444  3
    643    641    647    648     1  0.0000000  1.2552000  3
    643    641    647    651     1  0.0000000  1.2552000  3
    645    644    641    647     1  0.0000000  0.6508444  3
    645    644    664    665     1  0.0000000  0.0000000  2
    646    644    641    647     1  0.0000000  0.6508444  3
    646    644    664    665     1  0.0000000  0.0000000  2
    647    648    657    658     1  0.0000000  0.6508444  3
    647    648    657    659     1  0.0000000  0.6508444  3
    647    651    654    655     1  0.0000000  0.6508444  3
    647    651    654    656     1  0.0000000  0.6508444  3
    648    647    651    652     1  0.0000000  1.2552000  3
    648    647    651    653     1  0.0000000  1.2552000  3
    649    648    647    651     1  0.0000000  1.2552000  3
    649    648    657    661     1  0.0000000  0.6508444  3
    649    648    657    658     1  0.0000000  0.6508444  3
    649    648    657    659     1  0.0000000  0.6508444  3
    650    648    647    651     1  0.0000000  1.2552000  3
    650    648    657    661     1  0.0000000  0.6508444  3
    650    648    657    658     1  0.0000000  0.6508444  3
    650    648    657    659     1  0.0000000  0.6508444  3
    652    651    654    660     1  0.0000000  0.6508444  3
    652    651    654    655     1  0.0000000  0.6508444  3
    652    651    654    656     1  0.0000000  0.6508444  3
    653    651    654    660     1  0.0000000  0.6508444  3
    653    651    654    655     1  0.0000000  0.6508444  3
    653    651    654    656     1  0.0000000  0.6508444  3
    654    660   1364   1365     1  180.0000771  10.4600000  2
    655    654    660    662     1  0.0000000  3.3472000  1
    655    654    660    662     1  0.0000000  0.0000000  2
    655    654    660    662     1  180.0000771  0.3347200  3
    655    654    660   1364     1  180.0000771  0.0000000  2
    656    654    660    662     1  0.0000000  3.3472000  1
    656    654    660    662     1  0.0000000  0.0000000  2
    656    654    660    662     1  180.0000771  0.3347200  3
    656    654    660   1364     1  180.0000771  0.0000000  2
    657    661   1389   1390     1  180.0000771  10.4600000  2
    658    657    661    663     1  0.0000000  3.3472000  1
    658    657    661    663     1  0.0000000  0.0000000  2
    658    657    661    663     1  180.0000771  0.3347200  3
    658    657    661   1389     1  180.0000771  0.0000000  2
    659    657    661    663     1  0.0000000  3.3472000  1
    659    657    661    663     1  0.0000000  0.0000000  2
    659    657    661    663     1  180.0000771  0.3347200  3
    659    657    661   1389     1  180.0000771  0.0000000  2
    660   1364   1344   1345     1  0.0000000  0.0000000  2
    660   1364   1344   1346     1  0.0000000  0.0000000  2
    661   1389   1369   1370     1  0.0000000  0.0000000  2
    661   1389   1369   1371     1  0.0000000  0.0000000  2
    662    660   1364   1365     1  0.0000000  8.3680000  1
    662    660   1364   1365     1  180.0000771  10.4600000  2
    663    661   1389   1390     1  0.0000000  8.3680000  1
    663    661   1389   1390     1  180.0000771  10.4600000  2
    666    669    689    690     1  0.0000000  0.0000000  2
    666    672    673    674     1  0.0000000  1.2552000  3
    666    672    673    675     1  0.0000000  1.2552000  3
    666    672    676    677     1  0.0000000  1.2552000  3
    666    672    676    678     1  0.0000000  1.2552000  3
    667    666    669    689     1  0.0000000  0.6508444  3
    667    666    669    670     1  0.0000000  0.6508444  3
    667    666    669    671     1  0.0000000  0.6508444  3
    667    666    672    673     1  0.0000000  1.2552000  3
    667    666    672    676     1  0.0000000  1.2552000  3
    668    666    669    689     1  0.0000000  0.6508444  3
    668    666    669    670     1  0.0000000  0.6508444  3
    668    666    669    671     1  0.0000000  0.6508444  3
    668    666    672    673     1  0.0000000  1.2552000  3
    668    666    672    676     1  0.0000000  1.2552000  3
    670    669    666    672     1  0.0000000  0.6508444  3
    670    669    689    690     1  0.0000000  0.0000000  2
    671    669    666    672     1  0.0000000  0.6508444  3
    671    669    689    690     1  0.0000000  0.0000000  2
    672    673    682    683     1  0.0000000  0.6508444  3
    672    673    682    684     1  0.0000000  0.6508444  3
    672    676    679    680     1  0.0000000  0.6508444  3
    672    676    679    681     1  0.0000000  0.6508444  3
    673    672    676    677     1  0.0000000  1.2552000  3
    673    672    676    678     1  0.0000000  1.2552000  3
    674    673    672    676     1  0.0000000  1.2552000  3
    674    673    682    686     1  0.0000000  0.6508444  3
    674    673    682    683     1  0.0000000  0.6508444  3
    674    673    682    684     1  0.0000000  0.6508444  3
    675    673    672    676     1  0.0000000  1.2552000  3
    675    673    682    686     1  0.0000000  0.6508444  3
    675    673    682    683     1  0.0000000  0.6508444  3
    675    673    682    684     1  0.0000000  0.6508444  3
    677    676    679    685     1  0.0000000  0.6508444  3
    677    676    679    680     1  0.0000000  0.6508444  3
    677    676    679    681     1  0.0000000  0.6508444  3
    678    676    679    685     1  0.0000000  0.6508444  3
    678    676    679    680     1  0.0000000  0.6508444  3
    678    676    679    681     1  0.0000000  0.6508444  3
    679    685   1414   1415     1  180.0000771  10.4600000  2
    680    679    685    687     1  0.0000000  3.3472000  1
    680    679    685    687     1  0.0000000  0.0000000  2
    680    679    685    687     1  180.0000771  0.3347200  3
    680    679    685   1414     1  180.0000771  0.0000000  2
    681    679    685    687     1  0.0000000  3.3472000  1
    681    679    685    687     1  0.0000000  0.0000000  2
    681    679    685    687     1  180.0000771  0.3347200  3
    681    679    685   1414     1  180.0000771  0.0000000  2
    682    686   1439   1440     1  180.0000771  10.4600000  2
    683    682    686    688     1  0.0000000  3.3472000  1
    683    682    686    688     1  0.0000000  0.0000000  2
    683    682    686    688     1  180.0000771  0.3347200  3
    683    682    686   1439     1  180.0000771  0.0000000  2
    684    682    686    688     1  0.0000000  3.3472000  1
    684    682    686    688     1  0.0000000  0.0000000  2
    684    682    686    688     1  180.0000771  0.3347200  3
    684    682    686   1439     1  180.0000771  0.0000000  2
    685   1414   1394   1395     1  0.0000000  0.0000000  2
    685   1414   1394   1396     1  0.0000000  0.0000000  2
    686   1439   1419   1420     1  0.0000000  0.0000000  2
    686   1439   1419   1421     1  0.0000000  0.0000000  2
    687    685   1414   1415     1  0.0000000  8.3680000  1
    687    685   1414   1415     1  180.0000771  10.4600000  2
    688    686   1439   1440     1  0.0000000  8.3680000  1
    688    686   1439   1440     1  180.0000771  10.4600000  2
    691    694    714    715     1  0.0000000  0.0000000  2
    691    697    698    699     1  0.0000000  1.2552000  3
    691    697    698    700     1  0.0000000  1.2552000  3
    691    697    701    702     1  0.0000000  1.2552000  3
    691    697    701    703     1  0.0000000  1.2552000  3
    692    691    694    714     1  0.0000000  0.6508444  3
    692    691    694    695     1  0.0000000  0.6508444  3
    692    691    694    696     1  0.0000000  0.6508444  3
    692    691    697    698     1  0.0000000  1.2552000  3
    692    691    697    701     1  0.0000000  1.2552000  3
    693    691    694    714     1  0.0000000  0.6508444  3
    693    691    694    695     1  0.0000000  0.6508444  3
    693    691    694    696     1  0.0000000  0.6508444  3
    693    691    697    698     1  0.0000000  1.2552000  3
    693    691    697    701     1  0.0000000  1.2552000  3
    695    694    691    697     1  0.0000000  0.6508444  3
    695    694    714    715     1  0.0000000  0.0000000  2
    696    694    691    697     1  0.0000000  0.6508444  3
    696    694    714    715     1  0.0000000  0.0000000  2
    697    698    707    708     1  0.0000000  0.6508444  3
    697    698    707    709     1  0.0000000  0.6508444  3
    697    701    704    705     1  0.0000000  0.6508444  3
    697    701    704    706     1  0.0000000  0.6508444  3
    698    697    701    702     1  0.0000000  1.2552000  3
    698    697    701    703     1  0.0000000  1.2552000  3
    699    698    697    701     1  0.0000000  1.2552000  3
    699    698    707    711     1  0.0000000  0.6508444  3
    699    698    707    708     1  0.0000000  0.6508444  3
    699    698    707    709     1  0.0000000  0.6508444  3
    700    698    697    701     1  0.0000000  1.2552000  3
    700    698    707    711     1  0.0000000  0.6508444  3
    700    698    707    708     1  0.0000000  0.6508444  3
    700    698    707    709     1  0.0000000  0.6508444  3
    702    701    704    710     1  0.0000000  0.6508444  3
    702    701    704    705     1  0.0000000  0.6508444  3
    702    701    704    706     1  0.0000000  0.6508444  3
    703    701    704    710     1  0.0000000  0.6508444  3
    703    701    704    705     1  0.0000000  0.6508444  3
    703    701    704    706     1  0.0000000  0.6508444  3
    704    710   1464   1465     1  180.0000771  10.4600000  2
    705    704    710    712     1  0.0000000  3.3472000  1
    705    704    710    712     1  0.0000000  0.0000000  2
    705    704    710    712     1  180.0000771  0.3347200  3
    705    704    710   1464     1  180.0000771  0.0000000  2
    706    704    710    712     1  0.0000000  3.3472000  1
    706    704    710    712     1  0.0000000  0.0000000  2
    706    704    710    712     1  180.0000771  0.3347200  3
    706    704    710   1464     1  180.0000771  0.0000000  2
    707    711   1489   1490     1  180.0000771  10.4600000  2
    708    707    711    713     1  0.0000000  3.3472000  1
    708    707    711    713     1  0.0000000  0.0000000  2
    708    707    711    713     1  180.0000771  0.3347200  3
    708    707    711   1489     1  180.0000771  0.0000000  2
    709    707    711    713     1  0.0000000  3.3472000  1
    709    707    711    713     1  0.0000000  0.0000000  2
    709    707    711    713     1  180.0000771  0.3347200  3
    709    707    711   1489     1  180.0000771  0.0000000  2
    710   1464   1444   1445     1  0.0000000  0.0000000  2
    710   1464   1444   1446     1  0.0000000  0.0000000  2
    711   1489   1469   1470     1  0.0000000  0.0000000  2
    711   1489   1469   1471     1  0.0000000  0.0000000  2
    712    710   1464   1465     1  0.0000000  8.3680000  1
    712    710   1464   1465     1  180.0000771  10.4600000  2
    713    711   1489   1490     1  0.0000000  8.3680000  1
    713    711   1489   1490     1  180.0000771  10.4600000  2
    716    719    739    740     1  0.0000000  0.0000000  2
    716    722    723    724     1  0.0000000  1.2552000  3
    716    722    723    725     1  0.0000000  1.2552000  3
    716    722    726    727     1  0.0000000  1.2552000  3
    716    722    726    728     1  0.0000000  1.2552000  3
    717    716    719    739     1  0.0000000  0.6508444  3
    717    716    719    720     1  0.0000000  0.6508444  3
    717    716    719    721     1  0.0000000  0.6508444  3
    717    716    722    723     1  0.0000000  1.2552000  3
    717    716    722    726     1  0.0000000  1.2552000  3
    718    716    719    739     1  0.0000000  0.6508444  3
    718    716    719    720     1  0.0000000  0.6508444  3
    718    716    719    721     1  0.0000000  0.6508444  3
    718    716    722    723     1  0.0000000  1.2552000  3
    718    716    722    726     1  0.0000000  1.2552000  3
    720    719    716    722     1  0.0000000  0.6508444  3
    720    719    739    740     1  0.0000000  0.0000000  2
    721    719    716    722     1  0.0000000  0.6508444  3
    721    719    739    740     1  0.0000000  0.0000000  2
    722    723    732    733     1  0.0000000  0.6508444  3
    722    723    732    734     1  0.0000000  0.6508444  3
    722    726    729    730     1  0.0000000  0.6508444  3
    722    726    729    731     1  0.0000000  0.6508444  3
    723    722    726    727     1  0.0000000  1.2552000  3
    723    722    726    728     1  0.0000000  1.2552000  3
    724    723    722    726     1  0.0000000  1.2552000  3
    724    723    732    736     1  0.0000000  0.6508444  3
    724    723    732    733     1  0.0000000  0.6508444  3
    724    723    732    734     1  0.0000000  0.6508444  3
    725    723    722    726     1  0.0000000  1.2552000  3
    725    723    732    736     1  0.0000000  0.6508444  3
    725    723    732    733     1  0.0000000  0.6508444  3
    725    723    732    734     1  0.0000000  0.6508444  3
    727    726    729    735     1  0.0000000  0.6508444  3
    727    726    729    730     1  0.0000000  0.6508444  3
    727    726    729    731     1  0.0000000  0.6508444  3
    728    726    729    735     1  0.0000000  0.6508444  3
    728    726    729    730     1  0.0000000  0.6508444  3
    728    726    729    731     1  0.0000000  0.6508444  3
    729    735   1514   1515     1  180.0000771  10.4600000  2
    730    729    735    737     1  0.0000000  3.3472000  1
    730    729    735    737     1  0.0000000  0.0000000  2
    730    729    735    737     1  180.0000771  0.3347200  3
    730    729    735   1514     1  180.0000771  0.0000000  2
    731    729    735    737     1  0.0000000  3.3472000  1
    731    729    735    737     1  0.0000000  0.0000000  2
    731    729    735    737     1  180.0000771  0.3347200  3
    731    729    735   1514     1  180.0000771  0.0000000  2
    732    736   1539   1540     1  180.0000771  10.4600000  2
    733    732    736    738     1  0.0000000  3.3472000  1
    733    732    736    738     1  0.0000000  0.0000000  2
    733    732    736    738     1  180.0000771  0.3347200  3
    733    732    736   1539     1  180.0000771  0.0000000  2
    734    732    736    738     1  0.0000000  3.3472000  1
    734    732    736    738     1  0.0000000  0.0000000  2
    734    732    736    738     1  180.0000771  0.3347200  3
    734    732    736   1539     1  180.0000771  0.0000000  2
    735   1514   1494   1495     1  0.0000000  0.0000000  2
    735   1514   1494   1496     1  0.0000000  0.0000000  2
    736   1539   1519   1520     1  0.0000000  0.0000000  2
    736   1539   1519   1521     1  0.0000000  0.0000000  2
    737    735   1514   1515     1  0.0000000  8.3680000  1
    737    735   1514   1515     1  180.0000771  10.4600000  2
    738    736   1539   1540     1  0.0000000  8.3680000  1
    738    736   1539   1540     1  180.0000771  10.4600000  2
    741    744    764    765     1  0.0000000  0.0000000  2
    741    747    748    749     1  0.0000000  1.2552000  3
    741    747    748    750     1  0.0000000  1.2552000  3
    741    747    751    752     1  0.0000000  1.2552000  3
    741    747    751    753     1  0.0000000  1.2552000  3
    742    741    744    764     1  0.0000000  0.6508444  3
    742    741    744    745     1  0.0000000  0.6508444  3
    742    741    744    746     1  0.0000000  0.6508444  3
    742    741    747    748     1  0.0000000  1.2552000  3
    742    741    747    751     1  0.0000000  1.2552000  3
    743    741    744    764     1  0.0000000  0.6508444  3
    743    741    744    745     1  0.0000000  0.6508444  3
    743    741    744    746     1  0.0000000  0.6508444  3
    743    741    747    748     1  0.0000000  1.2552000  3
    743    741    747    751     1  0.0000000  1.2552000  3
    745    744    741    747     1  0.0000000  0.6508444  3
    745    744    764    765     1  0.0000000  0.0000000  2
    746    744    741    747     1  0.0000000  0.6508444  3
    746    744    764    765     1  0.0000000  0.0000000  2
    747    748    757    758     1  0.0000000  0.6508444  3
    747    748    757    759     1  0.0000000  0.6508444  3
    747    751    754    755     1  0.0000000  0.6508444  3
    747    751    754    756     1  0.0000000  0.6508444  3
    748    747    751    752     1  0.0000000  1.2552000  3
    748    747    751    753     1  0.0000000  1.2552000  3
    749    748    747    751     1  0.0000000  1.2552000  3
    749    748    757    761     1  0.0000000  0.6508444  3
    749    748    757    758     1  0.0000000  0.6508444  3
    749    748    757    759     1  0.0000000  0.6508444  3
    750    748    747    751     1  0.0000000  1.2552000  3
    750    748    757    761     1  0.0000000  0.6508444  3
    750    748    757    758     1  0.0000000  0.6508444  3
    750    748    757    759     1  0.0000000  0.6508444  3
    752    751    754    760     1  0.0000000  0.6508444  3
    752    751    754    755     1  0.0000000  0.6508444  3
    752    751    754    756     1  0.0000000  0.6508444  3
    753    751    754    760     1  0.0000000  0.6508444  3
    753    751    754    755     1  0.0000000  0.6508444  3
    753    751    754    756     1  0.0000000  0.6508444  3
    754    760   1564   1565     1  180.0000771  10.4600000  2
    755    754    760    762     1  0.0000000  3.3472000  1
    755    754    760    762     1  0.0000000  0.0000000  2
    755    754    760    762     1  180.0000771  0.3347200  3
    755    754    760   1564     1  180.0000771  0.0000000  2
    756    754    760    762     1  0.0000000  3.3472000  1
    756    754    760    762     1  0.0000000  0.0000000  2
    756    754    760    762     1  180.0000771  0.3347200  3
    756    754    760   1564     1  180.0000771  0.0000000  2
    757    761   1589   1590     1  180.0000771  10.4600000  2
    758    757    761    763     1  0.0000000  3.3472000  1
    758    757    761    763     1  0.0000000  0.0000000  2
    758    757    761    763     1  180.0000771  0.3347200  3
    758    757    761   1589     1  180.0000771  0.0000000  2
    759    757    761    763     1  0.0000000  3.3472000  1
    759    757    761    763     1  0.0000000  0.0000000  2
    759    757    761    763     1  180.0000771  0.3347200  3
    759    757    761   1589     1  180.0000771  0.0000000  2
    760   1564   1544   1545     1  0.0000000  0.0000000  2
    760   1564   1544   1546     1  0.0000000  0.0000000  2
    761   1589   1569   1570     1  0.0000000  0.0000000  2
    761   1589   1569   1571     1  0.0000000  0.0000000  2
    762    760   1564   1565     1  0.0000000  8.3680000  1
    762    760   1564   1565     1  180.0000771  10.4600000  2
    763    761   1589   1590     1  0.0000000  8.3680000  1
    763    761   1589   1590     1  180.0000771  10.4600000  2
    766    769    789    790     1  0.0000000  0.0000000  2
    766    772    773    774     1  0.0000000  1.2552000  3
    766    772    773    775     1  0.0000000  1.2552000  3
    766    772    776    777     1  0.0000000  1.2552000  3
    766    772    776    778     1  0.0000000  1.2552000  3
    767    766    769    789     1  0.0000000  0.6508444  3
    767    766    769    770     1  0.0000000  0.6508444  3
    767    766    769    771     1  0.0000000  0.6508444  3
    767    766    772    773     1  0.0000000  1.2552000  3
    767    766    772    776     1  0.0000000  1.2552000  3
    768    766    769    789     1  0.0000000  0.6508444  3
    768    766    769    770     1  0.0000000  0.6508444  3
    768    766    769    771     1  0.0000000  0.6508444  3
    768    766    772    773     1  0.0000000  1.2552000  3
    768    766    772    776     1  0.0000000  1.2552000  3
    770    769    766    772     1  0.0000000  0.6508444  3
    770    769    789    790     1  0.0000000  0.0000000  2
    771    769    766    772     1  0.0000000  0.6508444  3
    771    769    789    790     1  0.0000000  0.0000000  2
    772    773    782    783     1  0.0000000  0.6508444  3
    772    773    782    784     1  0.0000000  0.6508444  3
    772    776    779    780     1  0.0000000  0.6508444  3
    772    776    779    781     1  0.0000000  0.6508444  3
    773    772    776    777     1  0.0000000  1.2552000  3
    773    772    776    778     1  0.0000000  1.2552000  3
    774    773    772    776     1  0.0000000  1.2552000  3
    774    773    782    786     1  0.0000000  0.6508444  3
    774    773    782    783     1  0.0000000  0.6508444  3
    774    773    782    784     1  0.0000000  0.6508444  3
    775    773    772    776     1  0.0000000  1.2552000  3
    775    773    782    786     1  0.0000000  0.6508444  3
    775    773    782    783     1  0.0000000  0.6508444  3
    775    773    782    784     1  0.0000000  0.6508444  3
    777    776    779    785     1  0.0000000  0.6508444  3
    777    776    779    780     1  0.0000000  0.6508444  3
    777    776    779    781     1  0.0000000  0.6508444  3
    778    776    779    785     1  0.0000000  0.6508444  3
    778    776    779    780     1  0.0000000  0.6508444  3
    778    776    779    781     1  0.0000000  0.6508444  3
    779    785   1614   1615     1  180.0000771  10.4600000  2
    780    779    785    787     1  0.0000000  3.3472000  1
    780    779    785    787     1  0.0000000  0.0000000  2
    780    779    785    787     1  180.0000771  0.3347200  3
    780    779    785   1614     1  180.0000771  0.0000000  2
    781    779    785    787     1  0.0000000  3.3472000  1
    781    779    785    787     1  0.0000000  0.0000000  2
    781    779    785    787     1  180.0000771  0.3347200  3
    781    779    785   1614     1  180.0000771  0.0000000  2
    782    786   1639   1640     1  180.0000771  10.4600000  2
    783    782    786    788     1  0.0000000  3.3472000  1
    783    782    786    788     1  0.0000000  0.0000000  2
    783    782    786    788     1  180.0000771  0.3347200  3
    783    782    786   1639     1  180.0000771  0.0000000  2
    784    782    786    788     1  0.0000000  3.3472000  1
    784    782    786    788     1  0.0000000  0.0000000  2
    784    782    786    788     1  180.0000771  0.3347200  3
    784    782    786   1639     1  180.0000771  0.0000000  2
    785   1614   1594   1595     1  0.0000000  0.0000000  2
    785   1614   1594   1596     1  0.0000000  0.0000000  2
    786   1639   1619   1620     1  0.0000000  0.0000000  2
    786   1639   1619   1621     1  0.0000000  0.0000000  2
    787    785   1614   1615     1  0.0000000  8.3680000  1
    787    785   1614   1615     1  180.0000771  10.4600000  2
    788    786   1639   1640     1  0.0000000  8.3680000  1
    788    786   1639   1640     1  180.0000771  10.4600000  2
    791    794    814    815     1  0.0000000  0.0000000  2
    791    797    798    799     1  0.0000000  1.2552000  3
    791    797    798    800     1  0.0000000  1.2552000  3
    791    797    801    802     1  0.0000000  1.2552000  3
    791    797    801    803     1  0.0000000  1.2552000  3
    792    791    794    814     1  0.0000000  0.6508444  3
    792    791    794    795     1  0.0000000  0.6508444  3
    792    791    794    796     1  0.0000000  0.6508444  3
    792    791    797    798     1  0.0000000  1.2552000  3
    792    791    797    801     1  0.0000000  1.2552000  3
    793    791    794    814     1  0.0000000  0.6508444  3
    793    791    794    795     1  0.0000000  0.6508444  3
    793    791    794    796     1  0.0000000  0.6508444  3
    793    791    797    798     1  0.0000000  1.2552000  3
    793    791    797    801     1  0.0000000  1.2552000  3
    795    794    791    797     1  0.0000000  0.6508444  3
    795    794    814    815     1  0.0000000  0.0000000  2
    796    794    791    797     1  0.0000000  0.6508444  3
    796    794    814    815     1  0.0000000  0.0000000  2
    797    798    807    808     1  0.0000000  0.6508444  3
    797    798    807    809     1  0.0000000  0.6508444  3
    797    801    804    805     1  0.0000000  0.6508444  3
    797    801    804    806     1  0.0000000  0.6508444  3
    798    797    801    802     1  0.0000000  1.2552000  3
    798    797    801    803     1  0.0000000  1.2552000  3
    799    798    797    801     1  0.0000000  1.2552000  3
    799    798    807    811     1  0.0000000  0.6508444  3
    799    798    807    808     1  0.0000000  0.6508444  3
    799    798    807    809     1  0.0000000  0.6508444  3
    800    798    797    801     1  0.0000000  1.2552000  3
    800    798    807    811     1  0.0000000  0.6508444  3
    800    798    807    808     1  0.0000000  0.6508444  3
    800    798    807    809     1  0.0000000  0.6508444  3
    802    801    804    810     1  0.0000000  0.6508444  3
    802    801    804    805     1  0.0000000  0.6508444  3
    802    801    804    806     1  0.0000000  0.6508444  3
    803    801    804    810     1  0.0000000  0.6508444  3
    803    801    804    805     1  0.0000000  0.6508444  3
    803    801    804    806     1  0.0000000  0.6508444  3
    804    810   1664   1665     1  180.0000771  10.4600000  2
    805    804    810    812     1  0.0000000  3.3472000  1
    805    804    810    812     1  0.0000000  0.0000000  2
    805    804    810    812     1  180.0000771  0.3347200  3
    805    804    810   1664     1  180.0000771  0.0000000  2
    806    804    810    812     1  0.0000000  3.3472000  1
    806    804    810    812     1  0.0000000  0.0000000  2
    806    804    810    812     1  180.0000771  0.3347200  3
    806    804    810   1664     1  180.0000771  0.0000000  2
    807    811   1689   1690     1  180.0000771  10.4600000  2
    808    807    811    813     1  0.0000000  3.3472000  1
    808    807    811    813     1  0.0000000  0.0000000  2
    808    807    811    813     1  180.0000771  0.3347200  3
    808    807    811   1689     1  180.0000771  0.0000000  2
    809    807    811    813     1  0.0000000  3.3472000  1
    809    807    811    813     1  0.0000000  0.0000000  2
    809    807    811    813     1  180.0000771  0.3347200  3
    809    807    811   1689     1  180.0000771  0.0000000  2
    810   1664   1644   1645     1  0.0000000  0.0000000  2
    810   1664   1644   1646     1  0.0000000  0.0000000  2
    811   1689   1669   1670     1  0.0000000  0.0000000  2
    811   1689   1669   1671     1  0.0000000  0.0000000  2
    812    810   1664   1665     1  0.0000000  8.3680000  1
    812    810   1664   1665     1  180.0000771  10.4600000  2
    813    811   1689   1690     1  0.0000000  8.3680000  1
    813    811   1689   1690     1  180.0000771  10.4600000  2
    816    819    839    840     1  0.0000000  0.0000000  2
    816    822    823    824     1  0.0000000  1.2552000  3
    816    822    823    825     1  0.0000000  1.2552000  3
    816    822    826    827     1  0.0000000  1.2552000  3
    816    822    826    828     1  0.0000000  1.2552000  3
    817    816    819    839     1  0.0000000  0.6508444  3
    817    816    819    820     1  0.0000000  0.6508444  3
    817    816    819    821     1  0.0000000  0.6508444  3
    817    816    822    823     1  0.0000000  1.2552000  3
    817    816    822    826     1  0.0000000  1.2552000  3
    818    816    819    839     1  0.0000000  0.6508444  3
    818    816    819    820     1  0.0000000  0.6508444  3
    818    816    819    821     1  0.0000000  0.6508444  3
    818    816    822    823     1  0.0000000  1.2552000  3
    818    816    822    826     1  0.0000000  1.2552000  3
    820    819    816    822     1  0.0000000  0.6508444  3
    820    819    839    840     1  0.0000000  0.0000000  2
    821    819    816    822     1  0.0000000  0.6508444  3
    821    819    839    840     1  0.0000000  0.0000000  2
    822    823    832    833     1  0.0000000  0.6508444  3
    822    823    832    834     1  0.0000000  0.6508444  3
    822    826    829    830     1  0.0000000  0.6508444  3
    822    826    829    831     1  0.0000000  0.6508444  3
    823    822    826    827     1  0.0000000  1.2552000  3
    823    822    826    828     1  0.0000000  1.2552000  3
    824    823    822    826     1  0.0000000  1.2552000  3
    824    823    832    836     1  0.0000000  0.6508444  3
    824    823    832    833     1  0.0000000  0.6508444  3
    824    823    832    834     1  0.0000000  0.6508444  3
    825    823    822    826     1  0.0000000  1.2552000  3
    825    823    832    836     1  0.0000000  0.6508444  3
    825    823    832    833     1  0.0000000  0.6508444  3
    825    823    832    834     1  0.0000000  0.6508444  3
    827    826    829    835     1  0.0000000  0.6508444  3
    827    826    829    830     1  0.0000000  0.6508444  3
    827    826    829    831     1  0.0000000  0.6508444  3
    828    826    829    835     1  0.0000000  0.6508444  3
    828    826    829    830     1  0.0000000  0.6508444  3
    828    826    829    831     1  0.0000000  0.6508444  3
    829    835   1714   1715     1  180.0000771  10.4600000  2
    830    829    835    837     1  0.0000000  3.3472000  1
    830    829    835    837     1  0.0000000  0.0000000  2
    830    829    835    837     1  180.0000771  0.3347200  3
    830    829    835   1714     1  180.0000771  0.0000000  2
    831    829    835    837     1  0.0000000  3.3472000  1
    831    829    835    837     1  0.0000000  0.0000000  2
    831    829    835    837     1  180.0000771  0.3347200  3
    831    829    835   1714     1  180.0000771  0.0000000  2
    832    836   1739   1740     1  180.0000771  10.4600000  2
    833    832    836    838     1  0.0000000  3.3472000  1
    833    832    836    838     1  0.0000000  0.0000000  2
    833    832    836    838     1  180.0000771  0.3347200  3
    833    832    836   1739     1  180.0000771  0.0000000  2
    834    832    836    838     1  0.0000000  3.3472000  1
    834    832    836    838     1  0.0000000  0.0000000  2
    834    832    836    838     1  180.0000771  0.3347200  3
    834    832    836   1739     1  180.0000771  0.0000000  2
    835   1714   1694   1695     1  0.0000000  0.0000000  2
    835   1714   1694   1696     1  0.0000000  0.0000000  2
    836   1739   1719   1720     1  0.0000000  0.0000000  2
    836   1739   1719   1721     1  0.0000000  0.0000000  2
    837    835   1714   1715     1  0.0000000  8.3680000  1
    837    835   1714   1715     1  180.0000771  10.4600000  2
    838    836   1739   1740     1  0.0000000  8.3680000  1
    838    836   1739   1740     1  180.0000771  10.4600000  2
    841    844    864    865     1  0.0000000  0.0000000  2
    841    847    848    849     1  0.0000000  1.2552000  3
    841    847    848    850     1  0.0000000  1.2552000  3
    841    847    851    852     1  0.0000000  1.2552000  3
    841    847    851    853     1  0.0000000  1.2552000  3
    842    841    844    864     1  0.0000000  0.6508444  3
    842    841    844    845     1  0.0000000  0.6508444  3
    842    841    844    846     1  0.0000000  0.6508444  3
    842    841    847    848     1  0.0000000  1.2552000  3
    842    841    847    851     1  0.0000000  1.2552000  3
    843    841    844    864     1  0.0000000  0.6508444  3
    843    841    844    845     1  0.0000000  0.6508444  3
    843    841    844    846     1  0.0000000  0.6508444  3
    843    841    847    848     1  0.0000000  1.2552000  3
    843    841    847    851     1  0.0000000  1.2552000  3
    845    844    841    847     1  0.0000000  0.6508444  3
    845    844    864    865     1  0.0000000  0.0000000  2
    846    844    841    847     1  0.0000000  0.6508444  3
    846    844    864    865     1  0.0000000  0.0000000  2
    847    848    857    858     1  0.0000000  0.6508444  3
    847    848    857    859     1  0.0000000  0.6508444  3
    847    851    854    855     1  0.0000000  0.6508444  3
    847    851    854    856     1  0.0000000  0.6508444  3
    848    847    851    852     1  0.0000000  1.2552000  3
    848    847    851    853     1  0.0000000  1.2552000  3
    849    848    847    851     1  0.0000000  1.2552000  3
    849    848    857    861     1  0.0000000  0.6508444  3
    849    848    857    858     1  0.0000000  0.6508444  3
    849    848    857    859     1  0.0000000  0.6508444  3
    850    848    847    851     1  0.0000000  1.2552000  3
    850    848    857    861     1  0.0000000  0.6508444  3
    850    848    857    858     1  0.0000000  0.6508444  3
    850    848    857    859     1  0.0000000  0.6508444  3
    852    851    854    860     1  0.0000000  0.6508444  3
    852    851    854    855     1  0.0000000  0.6508444  3
    852    851    854    856     1  0.0000000  0.6508444  3
    853    851    854    860     1  0.0000000  0.6508444  3
    853    851    854    855     1  0.0000000  0.6508444  3
    853    851    854    856     1  0.0000000  0.6508444  3
    854    860   1764   1765     1  180.0000771  10.4600000  2
    855    854    860    862     1  0.0000000  3.3472000  1
    855    854    860    862     1  0.0000000  0.0000000  2
    855    854    860    862     1  180.0000771  0.3347200  3
    855    854    860   1764     1  180.0000771  0.0000000  2
    856    854    860    862     1  0.0000000  3.3472000  1
    856    854    860    862     1  0.0000000  0.0000000  2
    856    854    860    862     1  180.0000771  0.3347200  3
    856    854    860   1764     1  180.0000771  0.0000000  2
    857    861   1789   1790     1  180.0000771  10.4600000  2
    858    857    861    863     1  0.0000000  3.3472000  1
    858    857    861    863     1  0.0000000  0.0000000  2
    858    857    861    863     1  180.0000771  0.3347200  3
    858    857    861   1789     1  180.0000771  0.0000000  2
    859    857    861    863     1  0.0000000  3.3472000  1
    859    857    861    863     1  0.0000000  0.0000000  2
    859    857    861    863     1  180.0000771  0.3347200  3
    859    857    861   1789     1  180.0000771  0.0000000  2
    860   1764   1744   1745     1  0.0000000  0.0000000  2
    860   1764   1744   1746     1  0.0000000  0.0000000  2
    861   1789   1769   1770     1  0.0000000  0.0000000  2
    861   1789   1769   1771     1  0.0000000  0.0000000  2
    862    860   1764   1765     1  0.0000000  8.3680000  1
    862    860   1764   1765     1  180.0000771  10.4600000  2
    863    861   1789   1790     1  0.0000000  8.3680000  1
    863    861   1789   1790     1  180.0000771  10.4600000  2
    866    869    889    890     1  0.0000000  0.0000000  2
    866    872    873    874     1  0.0000000  1.2552000  3
    866    872    873    875     1  0.0000000  1.2552000  3
    866    872    876    877     1  0.0000000  1.2552000  3
    866    872    876    878     1  0.0000000  1.2552000  3
    867    866    869    889     1  0.0000000  0.6508444  3
    867    866    869    870     1  0.0000000  0.6508444  3
    867    866    869    871     1  0.0000000  0.6508444  3
    867    866    872    873     1  0.0000000  1.2552000  3
    867    866    872    876     1  0.0000000  1.2552000  3
    868    866    869    889     1  0.0000000  0.6508444  3
    868    866    869    870     1  0.0000000  0.6508444  3
    868    866    869    871     1  0.0000000  0.6508444  3
    868    866    872    873     1  0.0000000  1.2552000  3
    868    866    872    876     1  0.0000000  1.2552000  3
    870    869    866    872     1  0.0000000  0.6508444  3
    870    869    889    890     1  0.0000000  0.0000000  2
    871    869    866    872     1  0.0000000  0.6508444  3
    871    869    889    890     1  0.0000000  0.0000000  2
    872    873    882    883     1  0.0000000  0.6508444  3
    872    873    882    884     1  0.0000000  0.6508444  3
    872    876    879    880     1  0.0000000  0.6508444  3
    872    876    879    881     1  0.0000000  0.6508444  3
    873    872    876    877     1  0.0000000  1.2552000  3
    873    872    876    878     1  0.0000000  1.2552000  3
    874    873    872    876     1  0.0000000  1.2552000  3
    874    873    882    886     1  0.0000000  0.6508444  3
    874    873    882    883     1  0.0000000  0.6508444  3
    874    873    882    884     1  0.0000000  0.6508444  3
    875    873    872    876     1  0.0000000  1.2552000  3
    875    873    882    886     1  0.0000000  0.6508444  3
    875    873    882    883     1  0.0000000  0.6508444  3
    875    873    882    884     1  0.0000000  0.6508444  3
    877    876    879    885     1  0.0000000  0.6508444  3
    877    876    879    880     1  0.0000000  0.6508444  3
    877    876    879    881     1  0.0000000  0.6508444  3
    878    876    879    885     1  0.0000000  0.6508444  3
    878    876    879    880     1  0.0000000  0.6508444  3
    878    876    879    881     1  0.0000000  0.6508444  3
    879    885   1814   1815     1  180.0000771  10.4600000  2
    880    879    885    887     1  0.0000000  3.3472000  1
    880    879    885    887     1  0.0000000  0.0000000  2
    880    879    885    887     1  180.0000771  0.3347200  3
    880    879    885   1814     1  180.0000771  0.0000000  2
    881    879    885    887     1  0.0000000  3.3472000  1
    881    879    885    887     1  0.0000000  0.0000000  2
    881    879    885    887     1  180.0000771  0.3347200  3
    881    879    885   1814     1  180.0000771  0.0000000  2
    882    886   1839   1840     1  180.0000771  10.4600000  2
    883    882    886    888     1  0.0000000  3.3472000  1
    883    882    886    888     1  0.0000000  0.0000000  2
    883    882    886    888     1  180.0000771  0.3347200  3
    883    882    886   1839     1  180.0000771  0.0000000  2
    884    882    886    888     1  0.0000000  3.3472000  1
    884    882    886    888     1  0.0000000  0.0000000  2
    884    882    886    888     1  180.0000771  0.3347200  3
    884    882    886   1839     1  180.0000771  0.0000000  2
    885   1814   1794   1795     1  0.0000000  0.0000000  2
    885   1814   1794   1796     1  0.0000000  0.0000000  2
    886   1839   1819   1820     1  0.0000000  0.0000000  2
    886   1839   1819   1821     1  0.0000000  0.0000000  2
    887    885   1814   1815     1  0.0000000  8.3680000  1
    887    885   1814   1815     1  180.0000771  10.4600000  2
    888    886   1839   1840     1  0.0000000  8.3680000  1
    888    886   1839   1840     1  180.0000771  10.4600000  2
    891    894    914    915     1  0.0000000  0.0000000  2
    891    897    898    899     1  0.0000000  1.2552000  3
    891    897    898    900     1  0.0000000  1.2552000  3
    891    897    901    902     1  0.0000000  1.2552000  3
    891    897    901    903     1  0.0000000  1.2552000  3
    892    891    894    914     1  0.0000000  0.6508444  3
    892    891    894    895     1  0.0000000  0.6508444  3
    892    891    894    896     1  0.0000000  0.6508444  3
    892    891    897    898     1  0.0000000  1.2552000  3
    892    891    897    901     1  0.0000000  1.2552000  3
    893    891    894    914     1  0.0000000  0.6508444  3
    893    891    894    895     1  0.0000000  0.6508444  3
    893    891    894    896     1  0.0000000  0.6508444  3
    893    891    897    898     1  0.0000000  1.2552000  3
    893    891    897    901     1  0.0000000  1.2552000  3
    895    894    891    897     1  0.0000000  0.6508444  3
    895    894    914    915     1  0.0000000  0.0000000  2
    896    894    891    897     1  0.0000000  0.6508444  3
    896    894    914    915     1  0.0000000  0.0000000  2
    897    898    907    908     1  0.0000000  0.6508444  3
    897    898    907    909     1  0.0000000  0.6508444  3
    897    901    904    905     1  0.0000000  0.6508444  3
    897    901    904    906     1  0.0000000  0.6508444  3
    898    897    901    902     1  0.0000000  1.2552000  3
    898    897    901    903     1  0.0000000  1.2552000  3
    899    898    897    901     1  0.0000000  1.2552000  3
    899    898    907    911     1  0.0000000  0.6508444  3
    899    898    907    908     1  0.0000000  0.6508444  3
    899    898    907    909     1  0.0000000  0.6508444  3
    900    898    897    901     1  0.0000000  1.2552000  3
    900    898    907    911     1  0.0000000  0.6508444  3
    900    898    907    908     1  0.0000000  0.6508444  3
    900    898    907    909     1  0.0000000  0.6508444  3
    902    901    904    910     1  0.0000000  0.6508444  3
    902    901    904    905     1  0.0000000  0.6508444  3
    902    901    904    906     1  0.0000000  0.6508444  3
    903    901    904    910     1  0.0000000  0.6508444  3
    903    901    904    905     1  0.0000000  0.6508444  3
    903    901    904    906     1  0.0000000  0.6508444  3
    904    910   1864   1865     1  180.0000771  10.4600000  2
    905    904    910    912     1  0.0000000  3.3472000  1
    905    904    910    912     1  0.0000000  0.0000000  2
    905    904    910    912     1  180.0000771  0.3347200  3
    905    904    910   1864     1  180.0000771  0.0000000  2
    906    904    910    912     1  0.0000000  3.3472000  1
    906    904    910    912     1  0.0000000  0.0000000  2
    906    904    910    912     1  180.0000771  0.3347200  3
    906    904    910   1864     1  180.0000771  0.0000000  2
    907    911   1889   1890     1  180.0000771  10.4600000  2
    908    907    911    913     1  0.0000000  3.3472000  1
    908    907    911    913     1  0.0000000  0.0000000  2
    908    907    911    913     1  180.0000771  0.3347200  3
    908    907    911   1889     1  180.0000771  0.0000000  2
    909    907    911    913     1  0.0000000  3.3472000  1
    909    907    911    913     1  0.0000000  0.0000000  2
    909    907    911    913     1  180.0000771  0.3347200  3
    909    907    911   1889     1  180.0000771  0.0000000  2
    910   1864   1844   1845     1  0.0000000  0.0000000  2
    910   1864   1844   1846     1  0.0000000  0.0000000  2
    911   1889   1869   1870     1  0.0000000  0.0000000  2
    911   1889   1869   1871     1  0.0000000  0.0000000  2
    912    910   1864   1865     1  0.0000000  8.3680000  1
    912    910   1864   1865     1  180.0000771  10.4600000  2
    913    911   1889   1890     1  0.0000000  8.3680000  1
    913    911   1889   1890     1  180.0000771  10.4600000  2
    916    919    939    940     1  0.0000000  0.0000000  2
    916    922    923    924     1  0.0000000  1.2552000  3
    916    922    923    925     1  0.0000000  1.2552000  3
    916    922    926    927     1  0.0000000  1.2552000  3
    916    922    926    928     1  0.0000000  1.2552000  3
    917    916    919    939     1  0.0000000  0.6508444  3
    917    916    919    920     1  0.0000000  0.6508444  3
    917    916    919    921     1  0.0000000  0.6508444  3
    917    916    922    923     1  0.0000000  1.2552000  3
    917    916    922    926     1  0.0000000  1.2552000  3
    918    916    919    939     1  0.0000000  0.6508444  3
    918    916    919    920     1  0.0000000  0.6508444  3
    918    916    919    921     1  0.0000000  0.6508444  3
    918    916    922    923     1  0.0000000  1.2552000  3
    918    916    922    926     1  0.0000000  1.2552000  3
    920    919    916    922     1  0.0000000  0.6508444  3
    920    919    939    940     1  0.0000000  0.0000000  2
    921    919    916    922     1  0.0000000  0.6508444  3
    921    919    939    940     1  0.0000000  0.0000000  2
    922    923    932    933     1  0.0000000  0.6508444  3
    922    923    932    934     1  0.0000000  0.6508444  3
    922    926    929    930     1  0.0000000  0.6508444  3
    922    926    929    931     1  0.0000000  0.6508444  3
    923    922    926    927     1  0.0000000  1.2552000  3
    923    922    926    928     1  0.0000000  1.2552000  3
    924    923    922    926     1  0.0000000  1.2552000  3
    924    923    932    936     1  0.0000000  0.6508444  3
    924    923    932    933     1  0.0000000  0.6508444  3
    924    923    932    934     1  0.0000000  0.6508444  3
    925    923    922    926     1  0.0000000  1.2552000  3
    925    923    932    936     1  0.0000000  0.6508444  3
    925    923    932    933     1  0.0000000  0.6508444  3
    925    923    932    934     1  0.0000000  0.6508444  3
    927    926    929    935     1  0.0000000  0.6508444  3
    927    926    929    930     1  0.0000000  0.6508444  3
    927    926    929    931     1  0.0000000  0.6508444  3
    928    926    929    935     1  0.0000000  0.6508444  3
    928    926    929    930     1  0.0000000  0.6508444  3
    928    926    929    931     1  0.0000000  0.6508444  3
    929    935   1914   1915     1  180.0000771  10.4600000  2
    930    929    935    937     1  0.0000000  3.3472000  1
    930    929    935    937     1  0.0000000  0.0000000  2
    930    929    935    937     1  180.0000771  0.3347200  3
    930    929    935   1914     1  180.0000771  0.0000000  2
    931    929    935    937     1  0.0000000  3.3472000  1
    931    929    935    937     1  0.0000000  0.0000000  2
    931    929    935    937     1  180.0000771  0.3347200  3
    931    929    935   1914     1  180.0000771  0.0000000  2
    932    936   1939   1940     1  180.0000771  10.4600000  2
    933    932    936    938     1  0.0000000  3.3472000  1
    933    932    936    938     1  0.0000000  0.0000000  2
    933    932    936    938     1  180.0000771  0.3347200  3
    933    932    936   1939     1  180.0000771  0.0000000  2
    934    932    936    938     1  0.0000000  3.3472000  1
    934    932    936    938     1  0.0000000  0.0000000  2
    934    932    936    938     1  180.0000771  0.3347200  3
    934    932    936   1939     1  180.0000771  0.0000000  2
    935   1914   1894   1895     1  0.0000000  0.0000000  2
    935   1914   1894   1896     1  0.0000000  0.0000000  2
    936   1939   1919   1920     1  0.0000000  0.0000000  2
    936   1939   1919   1921     1  0.0000000  0.0000000  2
    937    935   1914   1915     1  0.0000000  8.3680000  1
    937    935   1914   1915     1  180.0000771  10.4600000  2
    938    936   1939   1940     1  0.0000000  8.3680000  1
    938    936   1939   1940     1  180.0000771  10.4600000  2
    941    944    964    965     1  0.0000000  0.0000000  2
    941    947    948    949     1  0.0000000  1.2552000  3
    941    947    948    950     1  0.0000000  1.2552000  3
    941    947    951    952     1  0.0000000  1.2552000  3
    941    947    951    953     1  0.0000000  1.2552000  3
    942    941    944    964     1  0.0000000  0.6508444  3
    942    941    944    945     1  0.0000000  0.6508444  3
    942    941    944    946     1  0.0000000  0.6508444  3
    942    941    947    948     1  0.0000000  1.2552000  3
    942    941    947    951     1  0.0000000  1.2552000  3
    943    941    944    964     1  0.0000000  0.6508444  3
    943    941    944    945     1  0.0000000  0.6508444  3
    943    941    944    946     1  0.0000000  0.6508444  3
    943    941    947    948     1  0.0000000  1.2552000  3
    943    941    947    951     1  0.0000000  1.2552000  3
    945    944    941    947     1  0.0000000  0.6508444  3
    945    944    964    965     1  0.0000000  0.0000000  2
    946    944    941    947     1  0.0000000  0.6508444  3
    946    944    964    965     1  0.0000000  0.0000000  2
    947    948    957    958     1  0.0000000  0.6508444  3
    947    948    957    959     1  0.0000000  0.6508444  3
    947    951    954    955     1  0.0000000  0.6508444  3
    947    951    954    956     1  0.0000000  0.6508444  3
    948    947    951    952     1  0.0000000  1.2552000  3
    948    947    951    953     1  0.0000000  1.2552000  3
    949    948    947    951     1  0.0000000  1.2552000  3
    949    948    957    961     1  0.0000000  0.6508444  3
    949    948    957    958     1  0.0000000  0.6508444  3
    949    948    957    959     1  0.0000000  0.6508444  3
    950    948    947    951     1  0.0000000  1.2552000  3
    950    948    957    961     1  0.0000000  0.6508444  3
    950    948    957    958     1  0.0000000  0.6508444  3
    950    948    957    959     1  0.0000000  0.6508444  3
    952    951    954    960     1  0.0000000  0.6508444  3
    952    951    954    955     1  0.0000000  0.6508444  3
    952    951    954    956     1  0.0000000  0.6508444  3
    953    951    954    960     1  0.0000000  0.6508444  3
    953    951    954    955     1  0.0000000  0.6508444  3
    953    951    954    956     1  0.0000000  0.6508444  3
    954    960   1964   1965     1  180.0000771  10.4600000  2
    955    954    960    962     1  0.0000000  3.3472000  1
    955    954    960    962     1  0.0000000  0.0000000  2
    955    954    960    962     1  180.0000771  0.3347200  3
    955    954    960   1964     1  180.0000771  0.0000000  2
    956    954    960    962     1  0.0000000  3.3472000  1
    956    954    960    962     1  0.0000000  0.0000000  2
    956    954    960    962     1  180.0000771  0.3347200  3
    956    954    960   1964     1  180.0000771  0.0000000  2
    957    961   1989   1990     1  180.0000771  10.4600000  2
    958    957    961    963     1  0.0000000  3.3472000  1
    958    957    961    963     1  0.0000000  0.0000000  2
    958    957    961    963     1  180.0000771  0.3347200  3
    958    957    961   1989     1  180.0000771  0.0000000  2
    959    957    961    963     1  0.0000000  3.3472000  1
    959    957    961    963     1  0.0000000  0.0000000  2
    959    957    961    963     1  180.0000771  0.3347200  3
    959    957    961   1989     1  180.0000771  0.0000000  2
    960   1964   1944   1945     1  0.0000000  0.0000000  2
    960   1964   1944   1946     1  0.0000000  0.0000000  2
    961   1989   1969   1970     1  0.0000000  0.0000000  2
    961   1989   1969   1971     1  0.0000000  0.0000000  2
    962    960   1964   1965     1  0.0000000  8.3680000  1
    962    960   1964   1965     1  180.0000771  10.4600000  2
    963    961   1989   1990     1  0.0000000  8.3680000  1
    963    961   1989   1990     1  180.0000771  10.4600000  2
    966    969    989    990     1  0.0000000  0.0000000  2
    966    972    973    974     1  0.0000000  1.2552000  3
    966    972    973    975     1  0.0000000  1.2552000  3
    966    972    976    977     1  0.0000000  1.2552000  3
    966    972    976    978     1  0.0000000  1.2552000  3
    967    966    969    989     1  0.0000000  0.6508444  3
    967    966    969    970     1  0.0000000  0.6508444  3
    967    966    969    971     1  0.0000000  0.6508444  3
    967    966    972    973     1  0.0000000  1.2552000  3
    967    966    972    976     1  0.0000000  1.2552000  3
    968    966    969    989     1  0.0000000  0.6508444  3
    968    966    969    970     1  0.0000000  0.6508444  3
    968    966    969    971     1  0.0000000  0.6508444  3
    968    966    972    973     1  0.0000000  1.2552000  3
    968    966    972    976     1  0.0000000  1.2552000  3
    970    969    966    972     1  0.0000000  0.6508444  3
    970    969    989    990     1  0.0000000  0.0000000  2
    971    969    966    972     1  0.0000000  0.6508444  3
    971    969    989    990     1  0.0000000  0.0000000  2
    972    973    982    983     1  0.0000000  0.6508444  3
    972    973    982    984     1  0.0000000  0.6508444  3
    972    976    979    980     1  0.0000000  0.6508444  3
    972    976    979    981     1  0.0000000  0.6508444  3
    973    972    976    977     1  0.0000000  1.2552000  3
    973    972    976    978     1  0.0000000  1.2552000  3
    974    973    972    976     1  0.0000000  1.2552000  3
    974    973    982    986     1  0.0000000  0.6508444  3
    974    973    982    983     1  0.0000000  0.6508444  3
    974    973    982    984     1  0.0000000  0.6508444  3
    975    973    972    976     1  0.0000000  1.2552000  3
    975    973    982    986     1  0.0000000  0.6508444  3
    975    973    982    983     1  0.0000000  0.6508444  3
    975    973    982    984     1  0.0000000  0.6508444  3
    977    976    979    985     1  0.0000000  0.6508444  3
    977    976    979    980     1  0.0000000  0.6508444  3
    977    976    979    981     1  0.0000000  0.6508444  3
    978    976    979    985     1  0.0000000  0.6508444  3
    978    976    979    980     1  0.0000000  0.6508444  3
    978    976    979    981     1  0.0000000  0.6508444  3
    979    985   2014   2015     1  180.0000771  10.4600000  2
    980    979    985    987     1  0.0000000  3.3472000  1
    980    979    985    987     1  0.0000000  0.0000000  2
    980    979    985    987     1  180.0000771  0.3347200  3
    980    979    985   2014     1  180.0000771  0.0000000  2
    981    979    985    987     1  0.0000000  3.3472000  1
    981    979    985    987     1  0.0000000  0.0000000  2
    981    979    985    987     1  180.0000771  0.3347200  3
    981    979    985   2014     1  180.0000771  0.0000000  2
    982    986   2039   2040     1  180.0000771  10.4600000  2
    983    982    986    988     1  0.0000000  3.3472000  1
    983    982    986    988     1  0.0000000  0.0000000  2
    983    982    986    988     1  180.0000771  0.3347200  3
    983    982    986   2039     1  180.0000771  0.0000000  2
    984    982    986    988     1  0.0000000  3.3472000  1
    984    982    986    988     1  0.0000000  0.0000000  2
    984    982    986    988     1  180.0000771  0.3347200  3
    984    982    986   2039     1  180.0000771  0.0000000  2
    985   2014   1994   1995     1  0.0000000  0.0000000  2
    985   2014   1994   1996     1  0.0000000  0.0000000  2
    986   2039   2019   2020     1  0.0000000  0.0000000  2
    986   2039   2019   2021     1  0.0000000  0.0000000  2
    987    985   2014   2015     1  0.0000000  8.3680000  1
    987    985   2014   2015     1  180.0000771  10.4600000  2
    988    986   2039   2040     1  0.0000000  8.3680000  1
    988    986   2039   2040     1  180.0000771  10.4600000  2
    991    994   1014   1015     1  0.0000000  0.0000000  2
    991    997    998    999     1  0.0000000  1.2552000  3
    991    997    998   1000     1  0.0000000  1.2552000  3
    991    997   1001   1002     1  0.0000000  1.2552000  3
    991    997   1001   1003     1  0.0000000  1.2552000  3
    992    991    994   1014     1  0.0000000  0.6508444  3
    992    991    994    995     1  0.0000000  0.6508444  3
    992    991    994    996     1  0.0000000  0.6508444  3
    992    991    997    998     1  0.0000000  1.2552000  3
    992    991    997   1001     1  0.0000000  1.2552000  3
    993    991    994   1014     1  0.0000000  0.6508444  3
    993    991    994    995     1  0.0000000  0.6508444  3
    993    991    994    996     1  0.0000000  0.6508444  3
    993    991    997    998     1  0.0000000  1.2552000  3
    993    991    997   1001     1  0.0000000  1.2552000  3
    995    994    991    997     1  0.0000000  0.6508444  3
    995    994   1014   1015     1  0.0000000  0.0000000  2
    996    994    991    997     1  0.0000000  0.6508444  3
    996    994   1014   1015     1  0.0000000  0.0000000  2
    997    998   1007   1008     1  0.0000000  0.6508444  3
    997    998   1007   1009     1  0.0000000  0.6508444  3
    997   1001   1004   1005     1  0.0000000  0.6508444  3
    997   1001   1004   1006     1  0.0000000  0.6508444  3
    998    997   1001   1002     1  0.0000000  1.2552000  3
    998    997   1001   1003     1  0.0000000  1.2552000  3
    999    998    997   1001     1  0.0000000  1.2552000  3
    999    998   1007   1011     1  0.0000000  0.6508444  3
    999    998   1007   1008     1  0.0000000  0.6508444  3
    999    998   1007   1009     1  0.0000000  0.6508444  3
   1000    998    997   1001     1  0.0000000  1.2552000  3
   1000    998   1007   1011     1  0.0000000  0.6508444  3
   1000    998   1007   1008     1  0.0000000  0.6508444  3
   1000    998   1007   1009     1  0.0000000  0.6508444  3
   1002   1001   1004   1010     1  0.0000000  0.6508444  3
   1002   1001   1004   1005     1  0.0000000  0.6508444  3
   1002   1001   1004   1006     1  0.0000000  0.6508444  3
   1003   1001   1004   1010     1  0.0000000  0.6508444  3
   1003   1001   1004   1005     1  0.0000000  0.6508444  3
   1003   1001   1004   1006     1  0.0000000  0.6508444  3
   1004   1010   2064   2065     1  180.0000771  10.4600000  2
   1005   1004   1010   1012     1  0.0000000  3.3472000  1
   1005   1004   1010   1012     1  0.0000000  0.0000000  2
   1005   1004   1010   1012     1  180.0000771  0.3347200  3
   1005   1004   1010   2064     1  180.0000771  0.0000000  2
   1006   1004   1010   1012     1  0.0000000  3.3472000  1
   1006   1004   1010   1012     1  0.0000000  0.0000000  2
   1006   1004   1010   1012     1  180.0000771  0.3347200  3
   1006   1004   1010   2064     1  180.0000771  0.0000000  2
   1007   1011   2089   2090     1  180.0000771  10.4600000  2
   1008   1007   1011   1013     1  0.0000000  3.3472000  1
   1008   1007   1011   1013     1  0.0000000  0.0000000  2
   1008   1007   1011   1013     1  180.0000771  0.3347200  3
   1008   1007   1011   2089     1  180.0000771  0.0000000  2
   1009   1007   1011   1013     1  0.0000000  3.3472000  1
   1009   1007   1011   1013     1  0.0000000  0.0000000  2
   1009   1007   1011   1013     1  180.0000771  0.3347200  3
   1009   1007   1011   2089     1  180.0000771  0.0000000  2
   1010   2064   2044   2045     1  0.0000000  0.0000000  2
   1010   2064   2044   2046     1  0.0000000  0.0000000  2
   1011   2089   2069   2070     1  0.0000000  0.0000000  2
   1011   2089   2069   2071     1  0.0000000  0.0000000  2
   1012   1010   2064   2065     1  0.0000000  8.3680000  1
   1012   1010   2064   2065     1  180.0000771  10.4600000  2
   1013   1011   2089   2090     1  0.0000000  8.3680000  1
   1013   1011   2089   2090     1  180.0000771  10.4600000  2
   1016   1019   1039   1040     1  0.0000000  0.0000000  2
   1016   1022   1023   1024     1  0.0000000  1.2552000  3
   1016   1022   1023   1025     1  0.0000000  1.2552000  3
   1016   1022   1026   1027     1  0.0000000  1.2552000  3
   1016   1022   1026   1028     1  0.0000000  1.2552000  3
   1017   1016   1019   1039     1  0.0000000  0.6508444  3
   1017   1016   1019   1020     1  0.0000000  0.6508444  3
   1017   1016   1019   1021     1  0.0000000  0.6508444  3
   1017   1016   1022   1023     1  0.0000000  1.2552000  3
   1017   1016   1022   1026     1  0.0000000  1.2552000  3
   1018   1016   1019   1039     1  0.0000000  0.6508444  3
   1018   1016   1019   1020     1  0.0000000  0.6508444  3
   1018   1016   1019   1021     1  0.0000000  0.6508444  3
   1018   1016   1022   1023     1  0.0000000  1.2552000  3
   1018   1016   1022   1026     1  0.0000000  1.2552000  3
   1020   1019   1016   1022     1  0.0000000  0.6508444  3
   1020   1019   1039   1040     1  0.0000000  0.0000000  2
   1021   1019   1016   1022     1  0.0000000  0.6508444  3
   1021   1019   1039   1040     1  0.0000000  0.0000000  2
   1022   1023   1032   1033     1  0.0000000  0.6508444  3
   1022   1023   1032   1034     1  0.0000000  0.6508444  3
   1022   1026   1029   1030     1  0.0000000  0.6508444  3
   1022   1026   1029   1031     1  0.0000000  0.6508444  3
   1023   1022   1026   1027     1  0.0000000  1.2552000  3
   1023   1022   1026   1028     1  0.0000000  1.2552000  3
   1024   1023   1022   1026     1  0.0000000  1.2552000  3
   1024   1023   1032   1036     1  0.0000000  0.6508444  3
   1024   1023   1032   1033     1  0.0000000  0.6508444  3
   1024   1023   1032   1034     1  0.0000000  0.6508444  3
   1025   1023   1022   1026     1  0.0000000  1.2552000  3
   1025   1023   1032   1036     1  0.0000000  0.6508444  3
   1025   1023   1032   1033     1  0.0000000  0.6508444  3
   1025   1023   1032   1034     1  0.0000000  0.6508444  3
   1027   1026   1029   1035     1  0.0000000  0.6508444  3
   1027   1026   1029   1030     1  0.0000000  0.6508444  3
   1027   1026   1029   1031     1  0.0000000  0.6508444  3
   1028   1026   1029   1035     1  0.0000000  0.6508444  3
   1028   1026   1029   1030     1  0.0000000  0.6508444  3
   1028   1026   1029   1031     1  0.0000000  0.6508444  3
   1029   1035   2114   2115     1  180.0000771  10.4600000  2
   1030   1029   1035   1037     1  0.0000000  3.3472000  1
   1030   1029   1035   1037     1  0.0000000  0.0000000  2
   1030   1029   1035   1037     1  180.0000771  0.3347200  3
   1030   1029   1035   2114     1  180.0000771  0.0000000  2
   1031   1029   1035   1037     1  0.0000000  3.3472000  1
   1031   1029   1035   1037     1  0.0000000  0.0000000  2
   1031   1029   1035   1037     1  180.0000771  0.3347200  3
   1031   1029   1035   2114     1  180.0000771  0.0000000  2
   1032   1036   2139   2140     1  180.0000771  10.4600000  2
   1033   1032   1036   1038     1  0.0000000  3.3472000  1
   1033   1032   1036   1038     1  0.0000000  0.0000000  2
   1033   1032   1036   1038     1  180.0000771  0.3347200  3
   1033   1032   1036   2139     1  180.0000771  0.0000000  2
   1034   1032   1036   1038     1  0.0000000  3.3472000  1
   1034   1032   1036   1038     1  0.0000000  0.0000000  2
   1034   1032   1036   1038     1  180.0000771  0.3347200  3
   1034   1032   1036   2139     1  180.0000771  0.0000000  2
   1035   2114   2094   2095     1  0.0000000  0.0000000  2
   1035   2114   2094   2096     1  0.0000000  0.0000000  2
   1036   2139   2119   2120     1  0.0000000  0.0000000  2
   1036   2139   2119   2121     1  0.0000000  0.0000000  2
   1037   1035   2114   2115     1  0.0000000  8.3680000  1
   1037   1035   2114   2115     1  180.0000771  10.4600000  2
   1038   1036   2139   2140     1  0.0000000  8.3680000  1
   1038   1036   2139   2140     1  180.0000771  10.4600000  2
   1041   1044   1064   1065     1  0.0000000  0.0000000  2
   1041   1047   1048   1049     1  0.0000000  1.2552000  3
   1041   1047   1048   1050     1  0.0000000  1.2552000  3
   1041   1047   1051   1052     1  0.0000000  1.2552000  3
   1041   1047   1051   1053     1  0.0000000  1.2552000  3
   1042   1041   1044   1064     1  0.0000000  0.6508444  3
   1042   1041   1044   1045     1  0.0000000  0.6508444  3
   1042   1041   1044   1046     1  0.0000000  0.6508444  3
   1042   1041   1047   1048     1  0.0000000  1.2552000  3
   1042   1041   1047   1051     1  0.0000000  1.2552000  3
   1043   1041   1044   1064     1  0.0000000  0.6508444  3
   1043   1041   1044   1045     1  0.0000000  0.6508444  3
   1043   1041   1044   1046     1  0.0000000  0.6508444  3
   1043   1041   1047   1048     1  0.0000000  1.2552000  3
   1043   1041   1047   1051     1  0.0000000  1.2552000  3
   1045   1044   1041   1047     1  0.0000000  0.6508444  3
   1045   1044   1064   1065     1  0.0000000  0.0000000  2
   1046   1044   1041   1047     1  0.0000000  0.6508444  3
   1046   1044   1064   1065     1  0.0000000  0.0000000  2
   1047   1048   1057   1058     1  0.0000000  0.6508444  3
   1047   1048   1057   1059     1  0.0000000  0.6508444  3
   1047   1051   1054   1055     1  0.0000000  0.6508444  3
   1047   1051   1054   1056     1  0.0000000  0.6508444  3
   1048   1047   1051   1052     1  0.0000000  1.2552000  3
   1048   1047   1051   1053     1  0.0000000  1.2552000  3
   1049   1048   1047   1051     1  0.0000000  1.2552000  3
   1049   1048   1057   1061     1  0.0000000  0.6508444  3
   1049   1048   1057   1058     1  0.0000000  0.6508444  3
   1049   1048   1057   1059     1  0.0000000  0.6508444  3
   1050   1048   1047   1051     1  0.0000000  1.2552000  3
   1050   1048   1057   1061     1  0.0000000  0.6508444  3
   1050   1048   1057   1058     1  0.0000000  0.6508444  3
   1050   1048   1057   1059     1  0.0000000  0.6508444  3
   1052   1051   1054   1060     1  0.0000000  0.6508444  3
   1052   1051   1054   1055     1  0.0000000  0.6508444  3
   1052   1051   1054   1056     1  0.0000000  0.6508444  3
   1053   1051   1054   1060     1  0.0000000  0.6508444  3
   1053   1051   1054   1055     1  0.0000000  0.6508444  3
   1053   1051   1054   1056     1  0.0000000  0.6508444  3
   1054   1060   2164   2165     1  180.0000771  10.4600000  2
   1055   1054   1060   1062     1  0.0000000  3.3472000  1
   1055   1054   1060   1062     1  0.0000000  0.0000000  2
   1055   1054   1060   1062     1  180.0000771  0.3347200  3
   1055   1054   1060   2164     1  180.0000771  0.0000000  2
   1056   1054   1060   1062     1  0.0000000  3.3472000  1
   1056   1054   1060   1062     1  0.0000000  0.0000000  2
   1056   1054   1060   1062     1  180.0000771  0.3347200  3
   1056   1054   1060   2164     1  180.0000771  0.0000000  2
   1057   1061   2189   2190     1  180.0000771  10.4600000  2
   1058   1057   1061   1063     1  0.0000000  3.3472000  1
   1058   1057   1061   1063     1  0.0000000  0.0000000  2
   1058   1057   1061   1063     1  180.0000771  0.3347200  3
   1058   1057   1061   2189     1  180.0000771  0.0000000  2
   1059   1057   1061   1063     1  0.0000000  3.3472000  1
   1059   1057   1061   1063     1  0.0000000  0.0000000  2
   1059   1057   1061   1063     1  180.0000771  0.3347200  3
   1059   1057   1061   2189     1  180.0000771  0.0000000  2
   1060   2164   2144   2145     1  0.0000000  0.0000000  2
   1060   2164   2144   2146     1  0.0000000  0.0000000  2
   1061   2189   2169   2170     1  0.0000000  0.0000000  2
   1061   2189   2169   2171     1  0.0000000  0.0000000  2
   1062   1060   2164   2165     1  0.0000000  8.3680000  1
   1062   1060   2164   2165     1  180.0000771  10.4600000  2
   1063   1061   2189   2190     1  0.0000000  8.3680000  1
   1063   1061   2189   2190     1  180.0000771  10.4600000  2
   1066   1069   1089   1090     1  0.0000000  0.0000000  2
   1066   1072   1073   1074     1  0.0000000  1.2552000  3
   1066   1072   1073   1075     1  0.0000000  1.2552000  3
   1066   1072   1076   1077     1  0.0000000  1.2552000  3
   1066   1072   1076   1078     1  0.0000000  1.2552000  3
   1067   1066   1069   1089     1  0.0000000  0.6508444  3
   1067   1066   1069   1070     1  0.0000000  0.6508444  3
   1067   1066   1069   1071     1  0.0000000  0.6508444  3
   1067   1066   1072   1073     1  0.0000000  1.2552000  3
   1067   1066   1072   1076     1  0.0000000  1.2552000  3
   1068   1066   1069   1089     1  0.0000000  0.6508444  3
   1068   1066   1069   1070     1  0.0000000  0.6508444  3
   1068   1066   1069   1071     1  0.0000000  0.6508444  3
   1068   1066   1072   1073     1  0.0000000  1.2552000  3
   1068   1066   1072   1076     1  0.0000000  1.2552000  3
   1070   1069   1066   1072     1  0.0000000  0.6508444  3
   1070   1069   1089   1090     1  0.0000000  0.0000000  2
   1071   1069   1066   1072     1  0.0000000  0.6508444  3
   1071   1069   1089   1090     1  0.0000000  0.0000000  2
   1072   1073   1082   1083     1  0.0000000  0.6508444  3
   1072   1073   1082   1084     1  0.0000000  0.6508444  3
   1072   1076   1079   1080     1  0.0000000  0.6508444  3
   1072   1076   1079   1081     1  0.0000000  0.6508444  3
   1073   1072   1076   1077     1  0.0000000  1.2552000  3
   1073   1072   1076   1078     1  0.0000000  1.2552000  3
   1074   1073   1072   1076     1  0.0000000  1.2552000  3
   1074   1073   1082   1086     1  0.0000000  0.6508444  3
   1074   1073   1082   1083     1  0.0000000  0.6508444  3
   1074   1073   1082   1084     1  0.0000000  0.6508444  3
   1075   1073   1072   1076     1  0.0000000  1.2552000  3
   1075   1073   1082   1086     1  0.0000000  0.6508444  3
   1075   1073   1082   1083     1  0.0000000  0.6508444  3
   1075   1073   1082   1084     1  0.0000000  0.6508444  3
   1077   1076   1079   1085     1  0.0000000  0.6508444  3
   1077   1076   1079   1080     1  0.0000000  0.6508444  3
   1077   1076   1079   1081     1  0.0000000  0.6508444  3
   1078   1076   1079   1085     1  0.0000000  0.6508444  3
   1078   1076   1079   1080     1  0.0000000  0.6508444  3
   1078   1076   1079   1081     1  0.0000000  0.6508444  3
   1079   1085   2214   2215     1  180.0000771  10.4600000  2
   1080   1079   1085   1087     1  0.0000000  3.3472000  1
   1080   1079   1085   1087     1  0.0000000  0.0000000  2
   1080   1079   1085   1087     1  180.0000771  0.3347200  3
   1080   1079   1085   2214     1  180.0000771  0.0000000  2
   1081   1079   1085   1087     1  0.0000000  3.3472000  1
   1081   1079   1085   1087     1  0.0000000  0.0000000  2
   1081   1079   1085   1087     1  180.0000771  0.3347200  3
   1081   1079   1085   2214     1  180.0000771  0.0000000  2
   1082   1086   2239   2240     1  180.0000771  10.4600000  2
   1083   1082   1086   1088     1  0.0000000  3.3472000  1
   1083   1082   1086   1088     1  0.0000000  0.0000000  2
   1083   1082   1086   1088     1  180.0000771  0.3347200  3
   1083   1082   1086   2239     1  180.0000771  0.0000000  2
   1084   1082   1086   1088     1  0.0000000  3.3472000  1
   1084   1082   1086   1088     1  0.0000000  0.0000000  2
   1084   1082   1086   1088     1  180.0000771  0.3347200  3
   1084   1082   1086   2239     1  180.0000771  0.0000000  2
   1085   2214   2194   2195     1  0.0000000  0.0000000  2
   1085   2214   2194   2196     1  0.0000000  0.0000000  2
   1086   2239   2219   2220     1  0.0000000  0.0000000  2
   1086   2239   2219   2221     1  0.0000000  0.0000000  2
   1087   1085   2214   2215     1  0.0000000  8.3680000  1
   1087   1085   2214   2215     1  180.0000771  10.4600000  2
   1088   1086   2239   2240     1  0.0000000  8.3680000  1
   1088   1086   2239   2240     1  180.0000771  10.4600000  2
   1091   1094   1114   1115     1  0.0000000  0.0000000  2
   1091   1097   1098   1099     1  0.0000000  1.2552000  3
   1091   1097   1098   1100     1  0.0000000  1.2552000  3
   1091   1097   1101   1102     1  0.0000000  1.2552000  3
   1091   1097   1101   1103     1  0.0000000  1.2552000  3
   1092   1091   1094   1114     1  0.0000000  0.6508444  3
   1092   1091   1094   1095     1  0.0000000  0.6508444  3
   1092   1091   1094   1096     1  0.0000000  0.6508444  3
   1092   1091   1097   1098     1  0.0000000  1.2552000  3
   1092   1091   1097   1101     1  0.0000000  1.2552000  3
   1093   1091   1094   1114     1  0.0000000  0.6508444  3
   1093   1091   1094   1095     1  0.0000000  0.6508444  3
   1093   1091   1094   1096     1  0.0000000  0.6508444  3
   1093   1091   1097   1098     1  0.0000000  1.2552000  3
   1093   1091   1097   1101     1  0.0000000  1.2552000  3
   1095   1094   1091   1097     1  0.0000000  0.6508444  3
   1095   1094   1114   1115     1  0.0000000  0.0000000  2
   1096   1094   1091   1097     1  0.0000000  0.6508444  3
   1096   1094   1114   1115     1  0.0000000  0.0000000  2
   1097   1098   1107   1108     1  0.0000000  0.6508444  3
   1097   1098   1107   1109     1  0.0000000  0.6508444  3
   1097   1101   1104   1105     1  0.0000000  0.6508444  3
   1097   1101   1104   1106     1  0.0000000  0.6508444  3
   1098   1097   1101   1102     1  0.0000000  1.2552000  3
   1098   1097   1101   1103     1  0.0000000  1.2552000  3
   1099   1098   1097   1101     1  0.0000000  1.2552000  3
   1099   1098   1107   1111     1  0.0000000  0.6508444  3
   1099   1098   1107   1108     1  0.0000000  0.6508444  3
   1099   1098   1107   1109     1  0.0000000  0.6508444  3
   1100   1098   1097   1101     1  0.0000000  1.2552000  3
   1100   1098   1107   1111     1  0.0000000  0.6508444  3
   1100   1098   1107   1108     1  0.0000000  0.6508444  3
   1100   1098   1107   1109     1  0.0000000  0.6508444  3
   1102   1101   1104   1110     1  0.0000000  0.6508444  3
   1102   1101   1104   1105     1  0.0000000  0.6508444  3
   1102   1101   1104   1106     1  0.0000000  0.6508444  3
   1103   1101   1104   1110     1  0.0000000  0.6508444  3
   1103   1101   1104   1105     1  0.0000000  0.6508444  3
   1103   1101   1104   1106     1  0.0000000  0.6508444  3
   1104   1110   2264   2265     1  180.0000771  10.4600000  2
   1105   1104   1110   1112     1  0.0000000  3.3472000  1
   1105   1104   1110   1112     1  0.0000000  0.0000000  2
   1105   1104   1110   1112     1  180.0000771  0.3347200  3
   1105   1104   1110   2264     1  180.0000771  0.0000000  2
   1106   1104   1110   1112     1  0.0000000  3.3472000  1
   1106   1104   1110   1112     1  0.0000000  0.0000000  2
   1106   1104   1110   1112     1  180.0000771  0.3347200  3
   1106   1104   1110   2264     1  180.0000771  0.0000000  2
   1107   1111   2289   2290     1  180.0000771  10.4600000  2
   1108   1107   1111   1113     1  0.0000000  3.3472000  1
   1108   1107   1111   1113     1  0.0000000  0.0000000  2
   1108   1107   1111   1113     1  180.0000771  0.3347200  3
   1108   1107   1111   2289     1  180.0000771  0.0000000  2
   1109   1107   1111   1113     1  0.0000000  3.3472000  1
   1109   1107   1111   1113     1  0.0000000  0.0000000  2
   1109   1107   1111   1113     1  180.0000771  0.3347200  3
   1109   1107   1111   2289     1  180.0000771  0.0000000  2
   1110   2264   2244   2245     1  0.0000000  0.0000000  2
   1110   2264   2244   2246     1  0.0000000  0.0000000  2
   1111   2289   2269   2270     1  0.0000000  0.0000000  2
   1111   2289   2269   2271     1  0.0000000  0.0000000  2
   1112   1110   2264   2265     1  0.0000000  8.3680000  1
   1112   1110   2264   2265     1  180.0000771  10.4600000  2
   1113   1111   2289   2290     1  0.0000000  8.3680000  1
   1113   1111   2289   2290     1  180.0000771  10.4600000  2
   1116   1119   1139   1140     1  0.0000000  0.0000000  2
   1116   1122   1123   1124     1  0.0000000  1.2552000  3
   1116   1122   1123   1125     1  0.0000000  1.2552000  3
   1116   1122   1126   1127     1  0.0000000  1.2552000  3
   1116   1122   1126   1128     1  0.0000000  1.2552000  3
   1117   1116   1119   1139     1  0.0000000  0.6508444  3
   1117   1116   1119   1120     1  0.0000000  0.6508444  3
   1117   1116   1119   1121     1  0.0000000  0.6508444  3
   1117   1116   1122   1123     1  0.0000000  1.2552000  3
   1117   1116   1122   1126     1  0.0000000  1.2552000  3
   1118   1116   1119   1139     1  0.0000000  0.6508444  3
   1118   1116   1119   1120     1  0.0000000  0.6508444  3
   1118   1116   1119   1121     1  0.0000000  0.6508444  3
   1118   1116   1122   1123     1  0.0000000  1.2552000  3
   1118   1116   1122   1126     1  0.0000000  1.2552000  3
   1120   1119   1116   1122     1  0.0000000  0.6508444  3
   1120   1119   1139   1140     1  0.0000000  0.0000000  2
   1121   1119   1116   1122     1  0.0000000  0.6508444  3
   1121   1119   1139   1140     1  0.0000000  0.0000000  2
   1122   1123   1132   1133     1  0.0000000  0.6508444  3
   1122   1123   1132   1134     1  0.0000000  0.6508444  3
   1122   1126   1129   1130     1  0.0000000  0.6508444  3
   1122   1126   1129   1131     1  0.0000000  0.6508444  3
   1123   1122   1126   1127     1  0.0000000  1.2552000  3
   1123   1122   1126   1128     1  0.0000000  1.2552000  3
   1124   1123   1122   1126     1  0.0000000  1.2552000  3
   1124   1123   1132   1136     1  0.0000000  0.6508444  3
   1124   1123   1132   1133     1  0.0000000  0.6508444  3
   1124   1123   1132   1134     1  0.0000000  0.6508444  3
   1125   1123   1122   1126     1  0.0000000  1.2552000  3
   1125   1123   1132   1136     1  0.0000000  0.6508444  3
   1125   1123   1132   1133     1  0.0000000  0.6508444  3
   1125   1123   1132   1134     1  0.0000000  0.6508444  3
   1127   1126   1129   1135     1  0.0000000  0.6508444  3
   1127   1126   1129   1130     1  0.0000000  0.6508444  3
   1127   1126   1129   1131     1  0.0000000  0.6508444  3
   1128   1126   1129   1135     1  0.0000000  0.6508444  3
   1128   1126   1129   1130     1  0.0000000  0.6508444  3
   1128   1126   1129   1131     1  0.0000000  0.6508444  3
   1129   1135   2314   2315     1  180.0000771  10.4600000  2
   1130   1129   1135   1137     1  0.0000000  3.3472000  1
   1130   1129   1135   1137     1  0.0000000  0.0000000  2
   1130   1129   1135   1137     1  180.0000771  0.3347200  3
   1130   1129   1135   2314     1  180.0000771  0.0000000  2
   1131   1129   1135   1137     1  0.0000000  3.3472000  1
   1131   1129   1135   1137     1  0.0000000  0.0000000  2
   1131   1129   1135   1137     1  180.0000771  0.3347200  3
   1131   1129   1135   2314     1  180.0000771  0.0000000  2
   1132   1136   2339   2340     1  180.0000771  10.4600000  2
   1133   1132   1136   1138     1  0.0000000  3.3472000  1
   1133   1132   1136   1138     1  0.0000000  0.0000000  2
   1133   1132   1136   1138     1  180.0000771  0.3347200  3
   1133   1132   1136   2339     1  180.0000771  0.0000000  2
   1134   1132   1136   1138     1  0.0000000  3.3472000  1
   1134   1132   1136   1138     1  0.0000000  0.0000000  2
   1134   1132   1136   1138     1  180.0000771  0.3347200  3
   1134   1132   1136   2339     1  180.0000771  0.0000000  2
   1135   2314   2294   2295     1  0.0000000  0.0000000  2
   1135   2314   2294   2296     1  0.0000000  0.0000000  2
   1136   2339   2319   2320     1  0.0000000  0.0000000  2
   1136   2339   2319   2321     1  0.0000000  0.0000000  2
   1137   1135   2314   2315     1  0.0000000  8.3680000  1
   1137   1135   2314   2315     1  180.0000771  10.4600000  2
   1138   1136   2339   2340     1  0.0000000  8.3680000  1
   1138   1136   2339   2340     1  180.0000771  10.4600000  2
   1141   1144   1164   1165     1  0.0000000  0.0000000  2
   1141   1147   1148   1149     1  0.0000000  1.2552000  3
   1141   1147   1148   1150     1  0.0000000  1.2552000  3
   1141   1147   1151   1152     1  0.0000000  1.2552000  3
   1141   1147   1151   1153     1  0.0000000  1.2552000  3
   1142   1141   1144   1164     1  0.0000000  0.6508444  3
   1142   1141   1144   1145     1  0.0000000  0.6508444  3
   1142   1141   1144   1146     1  0.0000000  0.6508444  3
   1142   1141   1147   1148     1  0.0000000  1.2552000  3
   1142   1141   1147   1151     1  0.0000000  1.2552000  3
   1143   1141   1144   1164     1  0.0000000  0.6508444  3
   1143   1141   1144   1145     1  0.0000000  0.6508444  3
   1143   1141   1144   1146     1  0.0000000  0.6508444  3
   1143   1141   1147   1148     1  0.0000000  1.2552000  3
   1143   1141   1147   1151     1  0.0000000  1.2552000  3
   1145   1144   1141   1147     1  0.0000000  0.6508444  3
   1145   1144   1164   1165     1  0.0000000  0.0000000  2
   1146   1144   1141   1147     1  0.0000000  0.6508444  3
   1146   1144   1164   1165     1  0.0000000  0.0000000  2
   1147   1148   1157   1158     1  0.0000000  0.6508444  3
   1147   1148   1157   1159     1  0.0000000  0.6508444  3
   1147   1151   1154   1155     1  0.0000000  0.6508444  3
   1147   1151   1154   1156     1  0.0000000  0.6508444  3
   1148   1147   1151   1152     1  0.0000000  1.2552000  3
   1148   1147   1151   1153     1  0.0000000  1.2552000  3
   1149   1148   1147   1151     1  0.0000000  1.2552000  3
   1149   1148   1157   1161     1  0.0000000  0.6508444  3
   1149   1148   1157   1158     1  0.0000000  0.6508444  3
   1149   1148   1157   1159     1  0.0000000  0.6508444  3
   1150   1148   1147   1151     1  0.0000000  1.2552000  3
   1150   1148   1157   1161     1  0.0000000  0.6508444  3
   1150   1148   1157   1158     1  0.0000000  0.6508444  3
   1150   1148   1157   1159     1  0.0000000  0.6508444  3
   1152   1151   1154   1160     1  0.0000000  0.6508444  3
   1152   1151   1154   1155     1  0.0000000  0.6508444  3
   1152   1151   1154   1156     1  0.0000000  0.6508444  3
   1153   1151   1154   1160     1  0.0000000  0.6508444  3
   1153   1151   1154   1155     1  0.0000000  0.6508444  3
   1153   1151   1154   1156     1  0.0000000  0.6508444  3
   1154   1160   2364   2365     1  180.0000771  10.4600000  2
   1155   1154   1160   1162     1  0.0000000  3.3472000  1
   1155   1154   1160   1162     1  0.0000000  0.0000000  2
   1155   1154   1160   1162     1  180.0000771  0.3347200  3
   1155   1154   1160   2364     1  180.0000771  0.0000000  2
   1156   1154   1160   1162     1  0.0000000  3.3472000  1
   1156   1154   1160   1162     1  0.0000000  0.0000000  2
   1156   1154   1160   1162     1  180.0000771  0.3347200  3
   1156   1154   1160   2364     1  180.0000771  0.0000000  2
   1157   1161   2389   2390     1  180.0000771  10.4600000  2
   1158   1157   1161   1163     1  0.0000000  3.3472000  1
   1158   1157   1161   1163     1  0.0000000  0.0000000  2
   1158   1157   1161   1163     1  180.0000771  0.3347200  3
   1158   1157   1161   2389     1  180.0000771  0.0000000  2
   1159   1157   1161   1163     1  0.0000000  3.3472000  1
   1159   1157   1161   1163     1  0.0000000  0.0000000  2
   1159   1157   1161   1163     1  180.0000771  0.3347200  3
   1159   1157   1161   2389     1  180.0000771  0.0000000  2
   1160   2364   2344   2345     1  0.0000000  0.0000000  2
   1160   2364   2344   2346     1  0.0000000  0.0000000  2
   1161   2389   2369   2370     1  0.0000000  0.0000000  2
   1161   2389   2369   2371     1  0.0000000  0.0000000  2
   1162   1160   2364   2365     1  0.0000000  8.3680000  1
   1162   1160   2364   2365     1  180.0000771  10.4600000  2
   1163   1161   2389   2390     1  0.0000000  8.3680000  1
   1163   1161   2389   2390     1  180.0000771  10.4600000  2
   1166   1169   1189   1190     1  0.0000000  0.0000000  2
   1166   1172   1173   1174     1  0.0000000  1.2552000  3
   1166   1172   1173   1175     1  0.0000000  1.2552000  3
   1166   1172   1176   1177     1  0.0000000  1.2552000  3
   1166   1172   1176   1178     1  0.0000000  1.2552000  3
   1167   1166   1169   1189     1  0.0000000  0.6508444  3
   1167   1166   1169   1170     1  0.0000000  0.6508444  3
   1167   1166   1169   1171     1  0.0000000  0.6508444  3
   1167   1166   1172   1173     1  0.0000000  1.2552000  3
   1167   1166   1172   1176     1  0.0000000  1.2552000  3
   1168   1166   1169   1189     1  0.0000000  0.6508444  3
   1168   1166   1169   1170     1  0.0000000  0.6508444  3
   1168   1166   1169   1171     1  0.0000000  0.6508444  3
   1168   1166   1172   1173     1  0.0000000  1.2552000  3
   1168   1166   1172   1176     1  0.0000000  1.2552000  3
   1170   1169   1166   1172     1  0.0000000  0.6508444  3
   1170   1169   1189   1190     1  0.0000000  0.0000000  2
   1171   1169   1166   1172     1  0.0000000  0.6508444  3
   1171   1169   1189   1190     1  0.0000000  0.0000000  2
   1172   1173   1182   1183     1  0.0000000  0.6508444  3
   1172   1173   1182   1184     1  0.0000000  0.6508444  3
   1172   1176   1179   1180     1  0.0000000  0.6508444  3
   1172   1176   1179   1181     1  0.0000000  0.6508444  3
   1173   1172   1176   1177     1  0.0000000  1.2552000  3
   1173   1172   1176   1178     1  0.0000000  1.2552000  3
   1174   1173   1172   1176     1  0.0000000  1.2552000  3
   1174   1173   1182   1186     1  0.0000000  0.6508444  3
   1174   1173   1182   1183     1  0.0000000  0.6508444  3
   1174   1173   1182   1184     1  0.0000000  0.6508444  3
   1175   1173   1172   1176     1  0.0000000  1.2552000  3
   1175   1173   1182   1186     1  0.0000000  0.6508444  3
   1175   1173   1182   1183     1  0.0000000  0.6508444  3
   1175   1173   1182   1184     1  0.0000000  0.6508444  3
   1177   1176   1179   1185     1  0.0000000  0.6508444  3
   1177   1176   1179   1180     1  0.0000000  0.6508444  3
   1177   1176   1179   1181     1  0.0000000  0.6508444  3
   1178   1176   1179   1185     1  0.0000000  0.6508444  3
   1178   1176   1179   1180     1  0.0000000  0.6508444  3
   1178   1176   1179   1181     1  0.0000000  0.6508444  3
   1179   1185   2414   2415     1  180.0000771  10.4600000  2
   1180   1179   1185   1187     1  0.0000000  3.3472000  1
   1180   1179   1185   1187     1  0.0000000  0.0000000  2
   1180   1179   1185   1187     1  180.0000771  0.3347200  3
   1180   1179   1185   2414     1  180.0000771  0.0000000  2
   1181   1179   1185   1187     1  0.0000000  3.3472000  1
   1181   1179   1185   1187     1  0.0000000  0.0000000  2
   1181   1179   1185   1187     1  180.0000771  0.3347200  3
   1181   1179   1185   2414     1  180.0000771  0.0000000  2
   1182   1186   2439   2440     1  180.0000771  10.4600000  2
   1183   1182   1186   1188     1  0.0000000  3.3472000  1
   1183   1182   1186   1188     1  0.0000000  0.0000000  2
   1183   1182   1186   1188     1  180.0000771  0.3347200  3
   1183   1182   1186   2439     1  180.0000771  0.0000000  2
   1184   1182   1186   1188     1  0.0000000  3.3472000  1
   1184   1182   1186   1188     1  0.0000000  0.0000000  2
   1184   1182   1186   1188     1  180.0000771  0.3347200  3
   1184   1182   1186   2439     1  180.0000771  0.0000000  2
   1185   2414   2394   2395     1  0.0000000  0.0000000  2
   1185   2414   2394   2396     1  0.0000000  0.0000000  2
   1186   2439   2419   2420     1  0.0000000  0.0000000  2
   1186   2439   2419   2421     1  0.0000000  0.0000000  2
   1187   1185   2414   2415     1  0.0000000  8.3680000  1
   1187   1185   2414   2415     1  180.0000771  10.4600000  2
   1188   1186   2439   2440     1  0.0000000  8.3680000  1
   1188   1186   2439   2440     1  180.0000771  10.4600000  2
   1191   1194   1214   1215     1  0.0000000  0.0000000  2
   1191   1197   1198   1199     1  0.0000000  1.2552000  3
   1191   1197   1198   1200     1  0.0000000  1.2552000  3
   1191   1197   1201   1202     1  0.0000000  1.2552000  3
   1191   1197   1201   1203     1  0.0000000  1.2552000  3
   1192   1191   1194   1214     1  0.0000000  0.6508444  3
   1192   1191   1194   1195     1  0.0000000  0.6508444  3
   1192   1191   1194   1196     1  0.0000000  0.6508444  3
   1192   1191   1197   1198     1  0.0000000  1.2552000  3
   1192   1191   1197   1201     1  0.0000000  1.2552000  3
   1193   1191   1194   1214     1  0.0000000  0.6508444  3
   1193   1191   1194   1195     1  0.0000000  0.6508444  3
   1193   1191   1194   1196     1  0.0000000  0.6508444  3
   1193   1191   1197   1198     1  0.0000000  1.2552000  3
   1193   1191   1197   1201     1  0.0000000  1.2552000  3
   1195   1194   1191   1197     1  0.0000000  0.6508444  3
   1195   1194   1214   1215     1  0.0000000  0.0000000  2
   1196   1194   1191   1197     1  0.0000000  0.6508444  3
   1196   1194   1214   1215     1  0.0000000  0.0000000  2
   1197   1198   1207   1208     1  0.0000000  0.6508444  3
   1197   1198   1207   1209     1  0.0000000  0.6508444  3
   1197   1201   1204   1205     1  0.0000000  0.6508444  3
   1197   1201   1204   1206     1  0.0000000  0.6508444  3
   1198   1197   1201   1202     1  0.0000000  1.2552000  3
   1198   1197   1201   1203     1  0.0000000  1.2552000  3
   1199   1198   1197   1201     1  0.0000000  1.2552000  3
   1199   1198   1207   1211     1  0.0000000  0.6508444  3
   1199   1198   1207   1208     1  0.0000000  0.6508444  3
   1199   1198   1207   1209     1  0.0000000  0.6508444  3
   1200   1198   1197   1201     1  0.0000000  1.2552000  3
   1200   1198   1207   1211     1  0.0000000  0.6508444  3
   1200   1198   1207   1208     1  0.0000000  0.6508444  3
   1200   1198   1207   1209     1  0.0000000  0.6508444  3
   1202   1201   1204   1210     1  0.0000000  0.6508444  3
   1202   1201   1204   1205     1  0.0000000  0.6508444  3
   1202   1201   1204   1206     1  0.0000000  0.6508444  3
   1203   1201   1204   1210     1  0.0000000  0.6508444  3
   1203   1201   1204   1205     1  0.0000000  0.6508444  3
   1203   1201   1204   1206     1  0.0000000  0.6508444  3
   1204   1210   2464   2465     1  180.0000771  10.4600000  2
   1205   1204   1210   1212     1  0.0000000  3.3472000  1
   1205   1204   1210   1212     1  0.0000000  0.0000000  2
   1205   1204   1210   1212     1  180.0000771  0.3347200  3
   1205   1204   1210   2464     1  180.0000771  0.0000000  2
   1206   1204   1210   1212     1  0.0000000  3.3472000  1
   1206   1204   1210   1212     1  0.0000000  0.0000000  2
   1206   1204   1210   1212     1  180.0000771  0.3347200  3
   1206   1204   1210   2464     1  180.0000771  0.0000000  2
   1207   1211   2489   2490     1  180.0000771  10.4600000  2
   1208   1207   1211   1213     1  0.0000000  3.3472000  1
   1208   1207   1211   1213     1  0.0000000  0.0000000  2
   1208   1207   1211   1213     1  180.0000771  0.3347200  3
   1208   1207   1211   2489     1  180.0000771  0.0000000  2
   1209   1207   1211   1213     1  0.0000000  3.3472000  1
   1209   1207   1211   1213     1  0.0000000  0.0000000  2
   1209   1207   1211   1213     1  180.0000771  0.3347200  3
   1209   1207   1211   2489     1  180.0000771  0.0000000  2
   1210   2464   2444   2445     1  0.0000000  0.0000000  2
   1210   2464   2444   2446     1  0.0000000  0.0000000  2
   1211   2489   2469   2470     1  0.0000000  0.0000000  2
   1211   2489   2469   2471     1  0.0000000  0.0000000  2
   1212   1210   2464   2465     1  0.0000000  8.3680000  1
   1212   1210   2464   2465     1  180.0000771  10.4600000  2
   1213   1211   2489   2490     1  0.0000000  8.3680000  1
   1213   1211   2489   2490     1  180.0000771  10.4600000  2
   1216   1219   1239   1240     1  0.0000000  0.0000000  2
   1216   1222   1223   1224     1  0.0000000  1.2552000  3
   1216   1222   1223   1225     1  0.0000000  1.2552000  3
   1216   1222   1226   1227     1  0.0000000  1.2552000  3
   1216   1222   1226   1228     1  0.0000000  1.2552000  3
   1217   1216   1219   1239     1  0.0000000  0.6508444  3
   1217   1216   1219   1220     1  0.0000000  0.6508444  3
   1217   1216   1219   1221     1  0.0000000  0.6508444  3
   1217   1216   1222   1223     1  0.0000000  1.2552000  3
   1217   1216   1222   1226     1  0.0000000  1.2552000  3
   1218   1216   1219   1239     1  0.0000000  0.6508444  3
   1218   1216   1219   1220     1  0.0000000  0.6508444  3
   1218   1216   1219   1221     1  0.0000000  0.6508444  3
   1218   1216   1222   1223     1  0.0000000  1.2552000  3
   1218   1216   1222   1226     1  0.0000000  1.2552000  3
   1220   1219   1216   1222     1  0.0000000  0.6508444  3
   1220   1219   1239   1240     1  0.0000000  0.0000000  2
   1221   1219   1216   1222     1  0.0000000  0.6508444  3
   1221   1219   1239   1240     1  0.0000000  0.0000000  2
   1222   1223   1232   1233     1  0.0000000  0.6508444  3
   1222   1223   1232   1234     1  0.0000000  0.6508444  3
   1222   1226   1229   1230     1  0.0000000  0.6508444  3
   1222   1226   1229   1231     1  0.0000000  0.6508444  3
   1223   1222   1226   1227     1  0.0000000  1.2552000  3
   1223   1222   1226   1228     1  0.0000000  1.2552000  3
   1224   1223   1222   1226     1  0.0000000  1.2552000  3
   1224   1223   1232   1236     1  0.0000000  0.6508444  3
   1224   1223   1232   1233     1  0.0000000  0.6508444  3
   1224   1223   1232   1234     1  0.0000000  0.6508444  3
   1225   1223   1222   1226     1  0.0000000  1.2552000  3
   1225   1223   1232   1236     1  0.0000000  0.6508444  3
   1225   1223   1232   1233     1  0.0000000  0.6508444  3
   1225   1223   1232   1234     1  0.0000000  0.6508444  3
   1227   1226   1229   1235     1  0.0000000  0.6508444  3
   1227   1226   1229   1230     1  0.0000000  0.6508444  3
   1227   1226   1229   1231     1  0.0000000  0.6508444  3
   1228   1226   1229   1235     1  0.0000000  0.6508444  3
   1228   1226   1229   1230     1  0.0000000  0.6508444  3
   1228   1226   1229   1231     1  0.0000000  0.6508444  3
   1229   1235   2514   2515     1  180.0000771  10.4600000  2
   1230   1229   1235   1237     1  0.0000000  3.3472000  1
   1230   1229   1235   1237     1  0.0000000  0.0000000  2
   1230   1229   1235   1237     1  180.0000771  0.3347200  3
   1230   1229   1235   2514     1  180.0000771  0.0000000  2
   1231   1229   1235   1237     1  0.0000000  3.3472000  1
   1231   1229   1235   1237     1  0.0000000  0.0000000  2
   1231   1229   1235   1237     1  180.0000771  0.3347200  3
   1231   1229   1235   2514     1  180.0000771  0.0000000  2
   1232   1236   2539   2540     1  180.0000771  10.4600000  2
   1233   1232   1236   1238     1  0.0000000  3.3472000  1
   1233   1232   1236   1238     1  0.0000000  0.0000000  2
   1233   1232   1236   1238     1  180.0000771  0.3347200  3
   1233   1232   1236   2539     1  180.0000771  0.0000000  2
   1234   1232   1236   1238     1  0.0000000  3.3472000  1
   1234   1232   1236   1238     1  0.0000000  0.0000000  2
   1234   1232   1236   1238     1  180.0000771  0.3347200  3
   1234   1232   1236   2539     1  180.0000771  0.0000000  2
   1235   2514   2494   2495     1  0.0000000  0.0000000  2
   1235   2514   2494   2496     1  0.0000000  0.0000000  2
   1236   2539   2519   2520     1  0.0000000  0.0000000  2
   1236   2539   2519   2521     1  0.0000000  0.0000000  2
   1237   1235   2514   2515     1  0.0000000  8.3680000  1
   1237   1235   2514   2515     1  180.0000771  10.4600000  2
   1238   1236   2539   2540     1  0.0000000  8.3680000  1
   1238   1236   2539   2540     1  180.0000771  10.4600000  2
   1241   1244   1264   1265     1  0.0000000  0.0000000  2
   1241   1247   1248   1249     1  0.0000000  1.2552000  3
   1241   1247   1248   1250     1  0.0000000  1.2552000  3
   1241   1247   1251   1252     1  0.0000000  1.2552000  3
   1241   1247   1251   1253     1  0.0000000  1.2552000  3
   1242   1241   1244   1264     1  0.0000000  0.6508444  3
   1242   1241   1244   1245     1  0.0000000  0.6508444  3
   1242   1241   1244   1246     1  0.0000000  0.6508444  3
   1242   1241   1247   1248     1  0.0000000  1.2552000  3
   1242   1241   1247   1251     1  0.0000000  1.2552000  3
   1243   1241   1244   1264     1  0.0000000  0.6508444  3
   1243   1241   1244   1245     1  0.0000000  0.6508444  3
   1243   1241   1244   1246     1  0.0000000  0.6508444  3
   1243   1241   1247   1248     1  0.0000000  1.2552000  3
   1243   1241   1247   1251     1  0.0000000  1.2552000  3
   1245   1244   1241   1247     1  0.0000000  0.6508444  3
   1245   1244   1264   1265     1  0.0000000  0.0000000  2
   1246   1244   1241   1247     1  0.0000000  0.6508444  3
   1246   1244   1264   1265     1  0.0000000  0.0000000  2
   1247   1248   1257   1258     1  0.0000000  0.6508444  3
   1247   1248   1257   1259     1  0.0000000  0.6508444  3
   1247   1251   1254   1255     1  0.0000000  0.6508444  3
   1247   1251   1254   1256     1  0.0000000  0.6508444  3
   1248   1247   1251   1252     1  0.0000000  1.2552000  3
   1248   1247   1251   1253     1  0.0000000  1.2552000  3
   1249   1248   1247   1251     1  0.0000000  1.2552000  3
   1249   1248   1257   1261     1  0.0000000  0.6508444  3
   1249   1248   1257   1258     1  0.0000000  0.6508444  3
   1249   1248   1257   1259     1  0.0000000  0.6508444  3
   1250   1248   1247   1251     1  0.0000000  1.2552000  3
   1250   1248   1257   1261     1  0.0000000  0.6508444  3
   1250   1248   1257   1258     1  0.0000000  0.6508444  3
   1250   1248   1257   1259     1  0.0000000  0.6508444  3
   1252   1251   1254   1260     1  0.0000000  0.6508444  3
   1252   1251   1254   1255     1  0.0000000  0.6508444  3
   1252   1251   1254   1256     1  0.0000000  0.6508444  3
   1253   1251   1254   1260     1  0.0000000  0.6508444  3
   1253   1251   1254   1255     1  0.0000000  0.6508444  3
   1253   1251   1254   1256     1  0.0000000  0.6508444  3
   1254   1260   2564   2565     1  180.0000771  10.4600000  2
   1255   1254   1260   1262     1  0.0000000  3.3472000  1
   1255   1254   1260   1262     1  0.0000000  0.0000000  2
   1255   1254   1260   1262     1  180.0000771  0.3347200  3
   1255   1254   1260   2564     1  180.0000771  0.0000000  2
   1256   1254   1260   1262     1  0.0000000  3.3472000  1
   1256   1254   1260   1262     1  0.0000000  0.0000000  2
   1256   1254   1260   1262     1  180.0000771  0.3347200  3
   1256   1254   1260   2564     1  180.0000771  0.0000000  2
   1257   1261   2589   2590     1  180.0000771  10.4600000  2
   1258   1257   1261   1263     1  0.0000000  3.3472000  1
   1258   1257   1261   1263     1  0.0000000  0.0000000  2
   1258   1257   1261   1263     1  180.0000771  0.3347200  3
   1258   1257   1261   2589     1  180.0000771  0.0000000  2
   1259   1257   1261   1263     1  0.0000000  3.3472000  1
   1259   1257   1261   1263     1  0.0000000  0.0000000  2
   1259   1257   1261   1263     1  180.0000771  0.3347200  3
   1259   1257   1261   2589     1  180.0000771  0.0000000  2
   1260   2564   2544   2545     1  0.0000000  0.0000000  2
   1260   2564   2544   2546     1  0.0000000  0.0000000  2
   1261   2589   2569   2570     1  0.0000000  0.0000000  2
   1261   2589   2569   2571     1  0.0000000  0.0000000  2
   1262   1260   2564   2565     1  0.0000000  8.3680000  1
   1262   1260   2564   2565     1  180.0000771  10.4600000  2
   1263   1261   2589   2590     1  0.0000000  8.3680000  1
   1263   1261   2589   2590     1  180.0000771  10.4600000  2
   1266   1269   1289   1290     1  0.0000000  0.0000000  2
   1266   1272   1273   1274     1  0.0000000  1.2552000  3
   1266   1272   1273   1275     1  0.0000000  1.2552000  3
   1266   1272   1276   1277     1  0.0000000  1.2552000  3
   1266   1272   1276   1278     1  0.0000000  1.2552000  3
   1267   1266   1269   1289     1  0.0000000  0.6508444  3
   1267   1266   1269   1270     1  0.0000000  0.6508444  3
   1267   1266   1269   1271     1  0.0000000  0.6508444  3
   1267   1266   1272   1273     1  0.0000000  1.2552000  3
   1267   1266   1272   1276     1  0.0000000  1.2552000  3
   1268   1266   1269   1289     1  0.0000000  0.6508444  3
   1268   1266   1269   1270     1  0.0000000  0.6508444  3
   1268   1266   1269   1271     1  0.0000000  0.6508444  3
   1268   1266   1272   1273     1  0.0000000  1.2552000  3
   1268   1266   1272   1276     1  0.0000000  1.2552000  3
   1270   1269   1266   1272     1  0.0000000  0.6508444  3
   1270   1269   1289   1290     1  0.0000000  0.0000000  2
   1271   1269   1266   1272     1  0.0000000  0.6508444  3
   1271   1269   1289   1290     1  0.0000000  0.0000000  2
   1272   1273   1282   1283     1  0.0000000  0.6508444  3
   1272   1273   1282   1284     1  0.0000000  0.6508444  3
   1272   1276   1279   1280     1  0.0000000  0.6508444  3
   1272   1276   1279   1281     1  0.0000000  0.6508444  3
   1273   1272   1276   1277     1  0.0000000  1.2552000  3
   1273   1272   1276   1278     1  0.0000000  1.2552000  3
   1274   1273   1272   1276     1  0.0000000  1.2552000  3
   1274   1273   1282   1286     1  0.0000000  0.6508444  3
   1274   1273   1282   1283     1  0.0000000  0.6508444  3
   1274   1273   1282   1284     1  0.0000000  0.6508444  3
   1275   1273   1272   1276     1  0.0000000  1.2552000  3
   1275   1273   1282   1286     1  0.0000000  0.6508444  3
   1275   1273   1282   1283     1  0.0000000  0.6508444  3
   1275   1273   1282   1284     1  0.0000000  0.6508444  3
   1277   1276   1279   1285     1  0.0000000  0.6508444  3
   1277   1276   1279   1280     1  0.0000000  0.6508444  3
   1277   1276   1279   1281     1  0.0000000  0.6508444  3
   1278   1276   1279   1285     1  0.0000000  0.6508444  3
   1278   1276   1279   1280     1  0.0000000  0.6508444  3
   1278   1276   1279   1281     1  0.0000000  0.6508444  3
   1279   1285   2614   2615     1  180.0000771  10.4600000  2
   1280   1279   1285   1287     1  0.0000000  3.3472000  1
   1280   1279   1285   1287     1  0.0000000  0.0000000  2
   1280   1279   1285   1287     1  180.0000771  0.3347200  3
   1280   1279   1285   2614     1  180.0000771  0.0000000  2
   1281   1279   1285   1287     1  0.0000000  3.3472000  1
   1281   1279   1285   1287     1  0.0000000  0.0000000  2
   1281   1279   1285   1287     1  180.0000771  0.3347200  3
   1281   1279   1285   2614     1  180.0000771  0.0000000  2
   1282   1286   2639   2640     1  180.0000771  10.4600000  2
   1283   1282   1286   1288     1  0.0000000  3.3472000  1
   1283   1282   1286   1288     1  0.0000000  0.0000000  2
   1283   1282   1286   1288     1  180.0000771  0.3347200  3
   1283   1282   1286   2639     1  180.0000771  0.0000000  2
   1284   1282   1286   1288     1  0.0000000  3.3472000  1
   1284   1282   1286   1288     1  0.0000000  0.0000000  2
   1284   1282   1286   1288     1  180.0000771  0.3347200  3
   1284   1282   1286   2639     1  180.0000771  0.0000000  2
   1285   2614   2594   2595     1  0.0000000  0.0000000  2
   1285   2614   2594   2596     1  0.0000000  0.0000000  2
   1286   2639   2619   2620     1  0.0000000  0.0000000  2
   1286   2639   2619   2621     1  0.0000000  0.0000000  2
   1287   1285   2614   2615     1  0.0000000  8.3680000  1
   1287   1285   2614   2615     1  180.0000771  10.4600000  2
   1288   1286   2639   2640     1  0.0000000  8.3680000  1
   1288   1286   2639   2640     1  180.0000771  10.4600000  2
   1291   1294   1314   1315     1  0.0000000  0.0000000  2
   1291   1297   1298   1299     1  0.0000000  1.2552000  3
   1291   1297   1298   1300     1  0.0000000  1.2552000  3
   1291   1297   1301   1302     1  0.0000000  1.2552000  3
   1291   1297   1301   1303     1  0.0000000  1.2552000  3
   1292   1291   1294   1314     1  0.0000000  0.6508444  3
   1292   1291   1294   1295     1  0.0000000  0.6508444  3
   1292   1291   1294   1296     1  0.0000000  0.6508444  3
   1292   1291   1297   1298     1  0.0000000  1.2552000  3
   1292   1291   1297   1301     1  0.0000000  1.2552000  3
   1293   1291   1294   1314     1  0.0000000  0.6508444  3
   1293   1291   1294   1295     1  0.0000000  0.6508444  3
   1293   1291   1294   1296     1  0.0000000  0.6508444  3
   1293   1291   1297   1298     1  0.0000000  1.2552000  3
   1293   1291   1297   1301     1  0.0000000  1.2552000  3
   1295   1294   1291   1297     1  0.0000000  0.6508444  3
   1295   1294   1314   1315     1  0.0000000  0.0000000  2
   1296   1294   1291   1297     1  0.0000000  0.6508444  3
   1296   1294   1314   1315     1  0.0000000  0.0000000  2
   1297   1298   1307   1308     1  0.0000000  0.6508444  3
   1297   1298   1307   1309     1  0.0000000  0.6508444  3
   1297   1301   1304   1305     1  0.0000000  0.6508444  3
   1297   1301   1304   1306     1  0.0000000  0.6508444  3
   1298   1297   1301   1302     1  0.0000000  1.2552000  3
   1298   1297   1301   1303     1  0.0000000  1.2552000  3
   1299   1298   1297   1301     1  0.0000000  1.2552000  3
   1299   1298   1307   1311     1  0.0000000  0.6508444  3
   1299   1298   1307   1308     1  0.0000000  0.6508444  3
   1299   1298   1307   1309     1  0.0000000  0.6508444  3
   1300   1298   1297   1301     1  0.0000000  1.2552000  3
   1300   1298   1307   1311     1  0.0000000  0.6508444  3
   1300   1298   1307   1308     1  0.0000000  0.6508444  3
   1300   1298   1307   1309     1  0.0000000  0.6508444  3
   1302   1301   1304   1310     1  0.0000000  0.6508444  3
   1302   1301   1304   1305     1  0.0000000  0.6508444  3
   1302   1301   1304   1306     1  0.0000000  0.6508444  3
   1303   1301   1304   1310     1  0.0000000  0.6508444  3
   1303   1301   1304   1305     1  0.0000000  0.6508444  3
   1303   1301   1304   1306     1  0.0000000  0.6508444  3
   1304   1310   2664   2665     1  180.0000771  10.4600000  2
   1305   1304   1310   1312     1  0.0000000  3.3472000  1
   1305   1304   1310   1312     1  0.0000000  0.0000000  2
   1305   1304   1310   1312     1  180.0000771  0.3347200  3
   1305   1304   1310   2664     1  180.0000771  0.0000000  2
   1306   1304   1310   1312     1  0.0000000  3.3472000  1
   1306   1304   1310   1312     1  0.0000000  0.0000000  2
   1306   1304   1310   1312     1  180.0000771  0.3347200  3
   1306   1304   1310   2664     1  180.0000771  0.0000000  2
   1307   1311   2689   2690     1  180.0000771  10.4600000  2
   1308   1307   1311   1313     1  0.0000000  3.3472000  1
   1308   1307   1311   1313     1  0.0000000  0.0000000  2
   1308   1307   1311   1313     1  180.0000771  0.3347200  3
   1308   1307   1311   2689     1  180.0000771  0.0000000  2
   1309   1307   1311   1313     1  0.0000000  3.3472000  1
   1309   1307   1311   1313     1  0.0000000  0.0000000  2
   1309   1307   1311   1313     1  180.0000771  0.3347200  3
   1309   1307   1311   2689     1  180.0000771  0.0000000  2
   1310   2664   2644   2645     1  0.0000000  0.0000000  2
   1310   2664   2644   2646     1  0.0000000  0.0000000  2
   1311   2689   2669   2670     1  0.0000000  0.0000000  2
   1311   2689   2669   2671     1  0.0000000  0.0000000  2
   1312   1310   2664   2665     1  0.0000000  8.3680000  1
   1312   1310   2664   2665     1  180.0000771  10.4600000  2
   1313   1311   2689   2690     1  0.0000000  8.3680000  1
   1313   1311   2689   2690     1  180.0000771  10.4600000  2
   1316   1319   1339   1340     1  0.0000000  0.0000000  2
   1316   1322   1323   1324     1  0.0000000  1.2552000  3
   1316   1322   1323   1325     1  0.0000000  1.2552000  3
   1316   1322   1326   1327     1  0.0000000  1.2552000  3
   1316   1322   1326   1328     1  0.0000000  1.2552000  3
   1317   1316   1319   1339     1  0.0000000  0.6508444  3
   1317   1316   1319   1320     1  0.0000000  0.6508444  3
   1317   1316   1319   1321     1  0.0000000  0.6508444  3
   1317   1316   1322   1323     1  0.0000000  1.2552000  3
   1317   1316   1322   1326     1  0.0000000  1.2552000  3
   1318   1316   1319   1339     1  0.0000000  0.6508444  3
   1318   1316   1319   1320     1  0.0000000  0.6508444  3
   1318   1316   1319   1321     1  0.0000000  0.6508444  3
   1318   1316   1322   1323     1  0.0000000  1.2552000  3
   1318   1316   1322   1326     1  0.0000000  1.2552000  3
   1320   1319   1316   1322     1  0.0000000  0.6508444  3
   1320   1319   1339   1340     1  0.0000000  0.0000000  2
   1321   1319   1316   1322     1  0.0000000  0.6508444  3
   1321   1319   1339   1340     1  0.0000000  0.0000000  2
   1322   1323   1332   1333     1  0.0000000  0.6508444  3
   1322   1323   1332   1334     1  0.0000000  0.6508444  3
   1322   1326   1329   1330     1  0.0000000  0.6508444  3
   1322   1326   1329   1331     1  0.0000000  0.6508444  3
   1323   1322   1326   1327     1  0.0000000  1.2552000  3
   1323   1322   1326   1328     1  0.0000000  1.2552000  3
   1324   1323   1322   1326     1  0.0000000  1.2552000  3
   1324   1323   1332   1336     1  0.0000000  0.6508444  3
   1324   1323   1332   1333     1  0.0000000  0.6508444  3
   1324   1323   1332   1334     1  0.0000000  0.6508444  3
   1325   1323   1322   1326     1  0.0000000  1.2552000  3
   1325   1323   1332   1336     1  0.0000000  0.6508444  3
   1325   1323   1332   1333     1  0.0000000  0.6508444  3
   1325   1323   1332   1334     1  0.0000000  0.6508444  3
   1327   1326   1329   1335     1  0.0000000  0.6508444  3
   1327   1326   1329   1330     1  0.0000000  0.6508444  3
   1327   1326   1329   1331     1  0.0000000  0.6508444  3
   1328   1326   1329   1335     1  0.0000000  0.6508444  3
   1328   1326   1329   1330     1  0.0000000  0.6508444  3
   1328   1326   1329   1331     1  0.0000000  0.6508444  3
   1329   1335   2714   2715     1  180.0000771  10.4600000  2
   1330   1329   1335   1337     1  0.0000000  3.3472000  1
   1330   1329   1335   1337     1  0.0000000  0.0000000  2
   1330   1329   1335   1337     1  180.0000771  0.3347200  3
   1330   1329   1335   2714     1  180.0000771  0.0000000  2
   1331   1329   1335   1337     1  0.0000000  3.3472000  1
   1331   1329   1335   1337     1  0.0000000  0.0000000  2
   1331   1329   1335   1337     1  180.0000771  0.3347200  3
   1331   1329   1335   2714     1  180.0000771  0.0000000  2
   1332   1336   2739   2740     1  180.0000771  10.4600000  2
   1333   1332   1336   1338     1  0.0000000  3.3472000  1
   1333   1332   1336   1338     1  0.0000000  0.0000000  2
   1333   1332   1336   1338     1  180.0000771  0.3347200  3
   1333   1332   1336   2739     1  180.0000771  0.0000000  2
   1334   1332   1336   1338     1  0.0000000  3.3472000  1
   1334   1332   1336   1338     1  0.0000000  0.0000000  2
   1334   1332   1336   1338     1  180.0000771  0.3347200  3
   1334   1332   1336   2739     1  180.0000771  0.0000000  2
   1335   2714   2694   2695     1  0.0000000  0.0000000  2
   1335   2714   2694   2696     1  0.0000000  0.0000000  2
   1336   2739   2719   2720     1  0.0000000  0.0000000  2
   1336   2739   2719   2721     1  0.0000000  0.0000000  2
   1337   1335   2714   2715     1  0.0000000  8.3680000  1
   1337   1335   2714   2715     1  180.0000771  10.4600000  2
   1338   1336   2739   2740     1  0.0000000  8.3680000  1
   1338   1336   2739   2740     1  180.0000771  10.4600000  2
   1341   1344   1364   1365     1  0.0000000  0.0000000  2
   1341   1347   1348   1349     1  0.0000000  1.2552000  3
   1341   1347   1348   1350     1  0.0000000  1.2552000  3
   1341   1347   1351   1352     1  0.0000000  1.2552000  3
   1341   1347   1351   1353     1  0.0000000  1.2552000  3
   1342   1341   1344   1364     1  0.0000000  0.6508444  3
   1342   1341   1344   1345     1  0.0000000  0.6508444  3
   1342   1341   1344   1346     1  0.0000000  0.6508444  3
   1342   1341   1347   1348     1  0.0000000  1.2552000  3
   1342   1341   1347   1351     1  0.0000000  1.2552000  3
   1343   1341   1344   1364     1  0.0000000  0.6508444  3
   1343   1341   1344   1345     1  0.0000000  0.6508444  3
   1343   1341   1344   1346     1  0.0000000  0.6508444  3
   1343   1341   1347   1348     1  0.0000000  1.2552000  3
   1343   1341   1347   1351     1  0.0000000  1.2552000  3
   1345   1344   1341   1347     1  0.0000000  0.6508444  3
   1345   1344   1364   1365     1  0.0000000  0.0000000  2
   1346   1344   1341   1347     1  0.0000000  0.6508444  3
   1346   1344   1364   1365     1  0.0000000  0.0000000  2
   1347   1348   1357   1358     1  0.0000000  0.6508444  3
   1347   1348   1357   1359     1  0.0000000  0.6508444  3
   1347   1351   1354   1355     1  0.0000000  0.6508444  3
   1347   1351   1354   1356     1  0.0000000  0.6508444  3
   1348   1347   1351   1352     1  0.0000000  1.2552000  3
   1348   1347   1351   1353     1  0.0000000  1.2552000  3
   1349   1348   1347   1351     1  0.0000000  1.2552000  3
   1349   1348   1357   1361     1  0.0000000  0.6508444  3
   1349   1348   1357   1358     1  0.0000000  0.6508444  3
   1349   1348   1357   1359     1  0.0000000  0.6508444  3
   1350   1348   1347   1351     1  0.0000000  1.2552000  3
   1350   1348   1357   1361     1  0.0000000  0.6508444  3
   1350   1348   1357   1358     1  0.0000000  0.6508444  3
   1350   1348   1357   1359     1  0.0000000  0.6508444  3
   1352   1351   1354   1360     1  0.0000000  0.6508444  3
   1352   1351   1354   1355     1  0.0000000  0.6508444  3
   1352   1351   1354   1356     1  0.0000000  0.6508444  3
   1353   1351   1354   1360     1  0.0000000  0.6508444  3
   1353   1351   1354   1355     1  0.0000000  0.6508444  3
   1353   1351   1354   1356     1  0.0000000  0.6508444  3
   1354   1360   2764   2765     1  180.0000771  10.4600000  2
   1355   1354   1360   1362     1  0.0000000  3.3472000  1
   1355   1354   1360   1362     1  0.0000000  0.0000000  2
   1355   1354   1360   1362     1  180.0000771  0.3347200  3
   1355   1354   1360   2764     1  180.0000771  0.0000000  2
   1356   1354   1360   1362     1  0.0000000  3.3472000  1
   1356   1354   1360   1362     1  0.0000000  0.0000000  2
   1356   1354   1360   1362     1  180.0000771  0.3347200  3
   1356   1354   1360   2764     1  180.0000771  0.0000000  2
   1357   1361   2789   2790     1  180.0000771  10.4600000  2
   1358   1357   1361   1363     1  0.0000000  3.3472000  1
   1358   1357   1361   1363     1  0.0000000  0.0000000  2
   1358   1357   1361   1363     1  180.0000771  0.3347200  3
   1358   1357   1361   2789     1  180.0000771  0.0000000  2
   1359   1357   1361   1363     1  0.0000000  3.3472000  1
   1359   1357   1361   1363     1  0.0000000  0.0000000  2
   1359   1357   1361   1363     1  180.0000771  0.3347200  3
   1359   1357   1361   2789     1  180.0000771  0.0000000  2
   1360   2764   2744   2745     1  0.0000000  0.0000000  2
   1360   2764   2744   2746     1  0.0000000  0.0000000  2
   1361   2789   2769   2770     1  0.0000000  0.0000000  2
   1361   2789   2769   2771     1  0.0000000  0.0000000  2
   1362   1360   2764   2765     1  0.0000000  8.3680000  1
   1362   1360   2764   2765     1  180.0000771  10.4600000  2
   1363   1361   2789   2790     1  0.0000000  8.3680000  1
   1363   1361   2789   2790     1  180.0000771  10.4600000  2
   1366   1369   1389   1390     1  0.0000000  0.0000000  2
   1366   1372   1373   1374     1  0.0000000  1.2552000  3
   1366   1372   1373   1375     1  0.0000000  1.2552000  3
   1366   1372   1376   1377     1  0.0000000  1.2552000  3
   1366   1372   1376   1378     1  0.0000000  1.2552000  3
   1367   1366   1369   1389     1  0.0000000  0.6508444  3
   1367   1366   1369   1370     1  0.0000000  0.6508444  3
   1367   1366   1369   1371     1  0.0000000  0.6508444  3
   1367   1366   1372   1373     1  0.0000000  1.2552000  3
   1367   1366   1372   1376     1  0.0000000  1.2552000  3
   1368   1366   1369   1389     1  0.0000000  0.6508444  3
   1368   1366   1369   1370     1  0.0000000  0.6508444  3
   1368   1366   1369   1371     1  0.0000000  0.6508444  3
   1368   1366   1372   1373     1  0.0000000  1.2552000  3
   1368   1366   1372   1376     1  0.0000000  1.2552000  3
   1370   1369   1366   1372     1  0.0000000  0.6508444  3
   1370   1369   1389   1390     1  0.0000000  0.0000000  2
   1371   1369   1366   1372     1  0.0000000  0.6508444  3
   1371   1369   1389   1390     1  0.0000000  0.0000000  2
   1372   1373   1382   1383     1  0.0000000  0.6508444  3
   1372   1373   1382   1384     1  0.0000000  0.6508444  3
   1372   1376   1379   1380     1  0.0000000  0.6508444  3
   1372   1376   1379   1381     1  0.0000000  0.6508444  3
   1373   1372   1376   1377     1  0.0000000  1.2552000  3
   1373   1372   1376   1378     1  0.0000000  1.2552000  3
   1374   1373   1372   1376     1  0.0000000  1.2552000  3
   1374   1373   1382   1386     1  0.0000000  0.6508444  3
   1374   1373   1382   1383     1  0.0000000  0.6508444  3
   1374   1373   1382   1384     1  0.0000000  0.6508444  3
   1375   1373   1372   1376     1  0.0000000  1.2552000  3
   1375   1373   1382   1386     1  0.0000000  0.6508444  3
   1375   1373   1382   1383     1  0.0000000  0.6508444  3
   1375   1373   1382   1384     1  0.0000000  0.6508444  3
   1377   1376   1379   1385     1  0.0000000  0.6508444  3
   1377   1376   1379   1380     1  0.0000000  0.6508444  3
   1377   1376   1379   1381     1  0.0000000  0.6508444  3
   1378   1376   1379   1385     1  0.0000000  0.6508444  3
   1378   1376   1379   1380     1  0.0000000  0.6508444  3
   1378   1376   1379   1381     1  0.0000000  0.6508444  3
   1379   1385   2814   2815     1  180.0000771  10.4600000  2
   1380   1379   1385   1387     1  0.0000000  3.3472000  1
   1380   1379   1385   1387     1  0.0000000  0.0000000  2
   1380   1379   1385   1387     1  180.0000771  0.3347200  3
   1380   1379   1385   2814     1  180.0000771  0.0000000  2
   1381   1379   1385   1387     1  0.0000000  3.3472000  1
   1381   1379   1385   1387     1  0.0000000  0.0000000  2
   1381   1379   1385   1387     1  180.0000771  0.3347200  3
   1381   1379   1385   2814     1  180.0000771  0.0000000  2
   1382   1386   2839   2840     1  180.0000771  10.4600000  2
   1383   1382   1386   1388     1  0.0000000  3.3472000  1
   1383   1382   1386   1388     1  0.0000000  0.0000000  2
   1383   1382   1386   1388     1  180.0000771  0.3347200  3
   1383   1382   1386   2839     1  180.0000771  0.0000000  2
   1384   1382   1386   1388     1  0.0000000  3.3472000  1
   1384   1382   1386   1388     1  0.0000000  0.0000000  2
   1384   1382   1386   1388     1  180.0000771  0.3347200  3
   1384   1382   1386   2839     1  180.0000771  0.0000000  2
   1385   2814   2794   2795     1  0.0000000  0.0000000  2
   1385   2814   2794   2796     1  0.0000000  0.0000000  2
   1386   2839   2819   2820     1  0.0000000  0.0000000  2
   1386   2839   2819   2821     1  0.0000000  0.0000000  2
   1387   1385   2814   2815     1  0.0000000  8.3680000  1
   1387   1385   2814   2815     1  180.0000771  10.4600000  2
   1388   1386   2839   2840     1  0.0000000  8.3680000  1
   1388   1386   2839   2840     1  180.0000771  10.4600000  2
   1391   1394   1414   1415     1  0.0000000  0.0000000  2
   1391   1397   1398   1399     1  0.0000000  1.2552000  3
   1391   1397   1398   1400     1  0.0000000  1.2552000  3
   1391   1397   1401   1402     1  0.0000000  1.2552000  3
   1391   1397   1401   1403     1  0.0000000  1.2552000  3
   1392   1391   1394   1414     1  0.0000000  0.6508444  3
   1392   1391   1394   1395     1  0.0000000  0.6508444  3
   1392   1391   1394   1396     1  0.0000000  0.6508444  3
   1392   1391   1397   1398     1  0.0000000  1.2552000  3
   1392   1391   1397   1401     1  0.0000000  1.2552000  3
   1393   1391   1394   1414     1  0.0000000  0.6508444  3
   1393   1391   1394   1395     1  0.0000000  0.6508444  3
   1393   1391   1394   1396     1  0.0000000  0.6508444  3
   1393   1391   1397   1398     1  0.0000000  1.2552000  3
   1393   1391   1397   1401     1  0.0000000  1.2552000  3
   1395   1394   1391   1397     1  0.0000000  0.6508444  3
   1395   1394   1414   1415     1  0.0000000  0.0000000  2
   1396   1394   1391   1397     1  0.0000000  0.6508444  3
   1396   1394   1414   1415     1  0.0000000  0.0000000  2
   1397   1398   1407   1408     1  0.0000000  0.6508444  3
   1397   1398   1407   1409     1  0.0000000  0.6508444  3
   1397   1401   1404   1405     1  0.0000000  0.6508444  3
   1397   1401   1404   1406     1  0.0000000  0.6508444  3
   1398   1397   1401   1402     1  0.0000000  1.2552000  3
   1398   1397   1401   1403     1  0.0000000  1.2552000  3
   1399   1398   1397   1401     1  0.0000000  1.2552000  3
   1399   1398   1407   1411     1  0.0000000  0.6508444  3
   1399   1398   1407   1408     1  0.0000000  0.6508444  3
   1399   1398   1407   1409     1  0.0000000  0.6508444  3
   1400   1398   1397   1401     1  0.0000000  1.2552000  3
   1400   1398   1407   1411     1  0.0000000  0.6508444  3
   1400   1398   1407   1408     1  0.0000000  0.6508444  3
   1400   1398   1407   1409     1  0.0000000  0.6508444  3
   1402   1401   1404   1410     1  0.0000000  0.6508444  3
   1402   1401   1404   1405     1  0.0000000  0.6508444  3
   1402   1401   1404   1406     1  0.0000000  0.6508444  3
   1403   1401   1404   1410     1  0.0000000  0.6508444  3
   1403   1401   1404   1405     1  0.0000000  0.6508444  3
   1403   1401   1404   1406     1  0.0000000  0.6508444  3
   1404   1410   2864   2865     1  180.0000771  10.4600000  2
   1405   1404   1410   1412     1  0.0000000  3.3472000  1
   1405   1404   1410   1412     1  0.0000000  0.0000000  2
   1405   1404   1410   1412     1  180.0000771  0.3347200  3
   1405   1404   1410   2864     1  180.0000771  0.0000000  2
   1406   1404   1410   1412     1  0.0000000  3.3472000  1
   1406   1404   1410   1412     1  0.0000000  0.0000000  2
   1406   1404   1410   1412     1  180.0000771  0.3347200  3
   1406   1404   1410   2864     1  180.0000771  0.0000000  2
   1407   1411   2889   2890     1  180.0000771  10.4600000  2
   1408   1407   1411   1413     1  0.0000000  3.3472000  1
   1408   1407   1411   1413     1  0.0000000  0.0000000  2
   1408   1407   1411   1413     1  180.0000771  0.3347200  3
   1408   1407   1411   2889     1  180.0000771  0.0000000  2
   1409   1407   1411   1413     1  0.0000000  3.3472000  1
   1409   1407   1411   1413     1  0.0000000  0.0000000  2
   1409   1407   1411   1413     1  180.0000771  0.3347200  3
   1409   1407   1411   2889     1  180.0000771  0.0000000  2
   1410   2864   2844   2845     1  0.0000000  0.0000000  2
   1410   2864   2844   2846     1  0.0000000  0.0000000  2
   1411   2889   2869   2870     1  0.0000000  0.0000000  2
   1411   2889   2869   2871     1  0.0000000  0.0000000  2
   1412   1410   2864   2865     1  0.0000000  8.3680000  1
   1412   1410   2864   2865     1  180.0000771  10.4600000  2
   1413   1411   2889   2890     1  0.0000000  8.3680000  1
   1413   1411   2889   2890     1  180.0000771  10.4600000  2
   1416   1419   1439   1440     1  0.0000000  0.0000000  2
   1416   1422   1423   1424     1  0.0000000  1.2552000  3
   1416   1422   1423   1425     1  0.0000000  1.2552000  3
   1416   1422   1426   1427     1  0.0000000  1.2552000  3
   1416   1422   1426   1428     1  0.0000000  1.2552000  3
   1417   1416   1419   1439     1  0.0000000  0.6508444  3
   1417   1416   1419   1420     1  0.0000000  0.6508444  3
   1417   1416   1419   1421     1  0.0000000  0.6508444  3
   1417   1416   1422   1423     1  0.0000000  1.2552000  3
   1417   1416   1422   1426     1  0.0000000  1.2552000  3
   1418   1416   1419   1439     1  0.0000000  0.6508444  3
   1418   1416   1419   1420     1  0.0000000  0.6508444  3
   1418   1416   1419   1421     1  0.0000000  0.6508444  3
   1418   1416   1422   1423     1  0.0000000  1.2552000  3
   1418   1416   1422   1426     1  0.0000000  1.2552000  3
   1420   1419   1416   1422     1  0.0000000  0.6508444  3
   1420   1419   1439   1440     1  0.0000000  0.0000000  2
   1421   1419   1416   1422     1  0.0000000  0.6508444  3
   1421   1419   1439   1440     1  0.0000000  0.0000000  2
   1422   1423   1432   1433     1  0.0000000  0.6508444  3
   1422   1423   1432   1434     1  0.0000000  0.6508444  3
   1422   1426   1429   1430     1  0.0000000  0.6508444  3
   1422   1426   1429   1431     1  0.0000000  0.6508444  3
   1423   1422   1426   1427     1  0.0000000  1.2552000  3
   1423   1422   1426   1428     1  0.0000000  1.2552000  3
   1424   1423   1422   1426     1  0.0000000  1.2552000  3
   1424   1423   1432   1436     1  0.0000000  0.6508444  3
   1424   1423   1432   1433     1  0.0000000  0.6508444  3
   1424   1423   1432   1434     1  0.0000000  0.6508444  3
   1425   1423   1422   1426     1  0.0000000  1.2552000  3
   1425   1423   1432   1436     1  0.0000000  0.6508444  3
   1425   1423   1432   1433     1  0.0000000  0.6508444  3
   1425   1423   1432   1434     1  0.0000000  0.6508444  3
   1427   1426   1429   1435     1  0.0000000  0.6508444  3
   1427   1426   1429   1430     1  0.0000000  0.6508444  3
   1427   1426   1429   1431     1  0.0000000  0.6508444  3
   1428   1426   1429   1435     1  0.0000000  0.6508444  3
   1428   1426   1429   1430     1  0.0000000  0.6508444  3
   1428   1426   1429   1431     1  0.0000000  0.6508444  3
   1429   1435   2914   2915     1  180.0000771  10.4600000  2
   1430   1429   1435   1437     1  0.0000000  3.3472000  1
   1430   1429   1435   1437     1  0.0000000  0.0000000  2
   1430   1429   1435   1437     1  180.0000771  0.3347200  3
   1430   1429   1435   2914     1  180.0000771  0.0000000  2
   1431   1429   1435   1437     1  0.0000000  3.3472000  1
   1431   1429   1435   1437     1  0.0000000  0.0000000  2
   1431   1429   1435   1437     1  180.0000771  0.3347200  3
   1431   1429   1435   2914     1  180.0000771  0.0000000  2
   1432   1436   2939   2940     1  180.0000771  10.4600000  2
   1433   1432   1436   1438     1  0.0000000  3.3472000  1
   1433   1432   1436   1438     1  0.0000000  0.0000000  2
   1433   1432   1436   1438     1  180.0000771  0.3347200  3
   1433   1432   1436   2939     1  180.0000771  0.0000000  2
   1434   1432   1436   1438     1  0.0000000  3.3472000  1
   1434   1432   1436   1438     1  0.0000000  0.0000000  2
   1434   1432   1436   1438     1  180.0000771  0.3347200  3
   1434   1432   1436   2939     1  180.0000771  0.0000000  2
   1435   2914   2894   2895     1  0.0000000  0.0000000  2
   1435   2914   2894   2896     1  0.0000000  0.0000000  2
   1436   2939   2919   2920     1  0.0000000  0.0000000  2
   1436   2939   2919   2921     1  0.0000000  0.0000000  2
   1437   1435   2914   2915     1  0.0000000  8.3680000  1
   1437   1435   2914   2915     1  180.0000771  10.4600000  2
   1438   1436   2939   2940     1  0.0000000  8.3680000  1
   1438   1436   2939   2940     1  180.0000771  10.4600000  2
   1441   1444   1464   1465     1  0.0000000  0.0000000  2
   1441   1447   1448   1449     1  0.0000000  1.2552000  3
   1441   1447   1448   1450     1  0.0000000  1.2552000  3
   1441   1447   1451   1452     1  0.0000000  1.2552000  3
   1441   1447   1451   1453     1  0.0000000  1.2552000  3
   1442   1441   1444   1464     1  0.0000000  0.6508444  3
   1442   1441   1444   1445     1  0.0000000  0.6508444  3
   1442   1441   1444   1446     1  0.0000000  0.6508444  3
   1442   1441   1447   1448     1  0.0000000  1.2552000  3
   1442   1441   1447   1451     1  0.0000000  1.2552000  3
   1443   1441   1444   1464     1  0.0000000  0.6508444  3
   1443   1441   1444   1445     1  0.0000000  0.6508444  3
   1443   1441   1444   1446     1  0.0000000  0.6508444  3
   1443   1441   1447   1448     1  0.0000000  1.2552000  3
   1443   1441   1447   1451     1  0.0000000  1.2552000  3
   1445   1444   1441   1447     1  0.0000000  0.6508444  3
   1445   1444   1464   1465     1  0.0000000  0.0000000  2
   1446   1444   1441   1447     1  0.0000000  0.6508444  3
   1446   1444   1464   1465     1  0.0000000  0.0000000  2
   1447   1448   1457   1458     1  0.0000000  0.6508444  3
   1447   1448   1457   1459     1  0.0000000  0.6508444  3
   1447   1451   1454   1455     1  0.0000000  0.6508444  3
   1447   1451   1454   1456     1  0.0000000  0.6508444  3
   1448   1447   1451   1452     1  0.0000000  1.2552000  3
   1448   1447   1451   1453     1  0.0000000  1.2552000  3
   1449   1448   1447   1451     1  0.0000000  1.2552000  3
   1449   1448   1457   1461     1  0.0000000  0.6508444  3
   1449   1448   1457   1458     1  0.0000000  0.6508444  3
   1449   1448   1457   1459     1  0.0000000  0.6508444  3
   1450   1448   1447   1451     1  0.0000000  1.2552000  3
   1450   1448   1457   1461     1  0.0000000  0.6508444  3
   1450   1448   1457   1458     1  0.0000000  0.6508444  3
   1450   1448   1457   1459     1  0.0000000  0.6508444  3
   1452   1451   1454   1460     1  0.0000000  0.6508444  3
   1452   1451   1454   1455     1  0.0000000  0.6508444  3
   1452   1451   1454   1456     1  0.0000000  0.6508444  3
   1453   1451   1454   1460     1  0.0000000  0.6508444  3
   1453   1451   1454   1455     1  0.0000000  0.6508444  3
   1453   1451   1454   1456     1  0.0000000  0.6508444  3
   1454   1460   2964   2965     1  180.0000771  10.4600000  2
   1455   1454   1460   1462     1  0.0000000  3.3472000  1
   1455   1454   1460   1462     1  0.0000000  0.0000000  2
   1455   1454   1460   1462     1  180.0000771  0.3347200  3
   1455   1454   1460   2964     1  180.0000771  0.0000000  2
   1456   1454   1460   1462     1  0.0000000  3.3472000  1
   1456   1454   1460   1462     1  0.0000000  0.0000000  2
   1456   1454   1460   1462     1  180.0000771  0.3347200  3
   1456   1454   1460   2964     1  180.0000771  0.0000000  2
   1457   1461   2989   2990     1  180.0000771  10.4600000  2
   1458   1457   1461   1463     1  0.0000000  3.3472000  1
   1458   1457   1461   1463     1  0.0000000  0.0000000  2
   1458   1457   1461   1463     1  180.0000771  0.3347200  3
   1458   1457   1461   2989     1  180.0000771  0.0000000  2
   1459   1457   1461   1463     1  0.0000000  3.3472000  1
   1459   1457   1461   1463     1  0.0000000  0.0000000  2
   1459   1457   1461   1463     1  180.0000771  0.3347200  3
   1459   1457   1461   2989     1  180.0000771  0.0000000  2
   1460   2964   2944   2945     1  0.0000000  0.0000000  2
   1460   2964   2944   2946     1  0.0000000  0.0000000  2
   1461   2989   2969   2970     1  0.0000000  0.0000000  2
   1461   2989   2969   2971     1  0.0000000  0.0000000  2
   1462   1460   2964   2965     1  0.0000000  8.3680000  1
   1462   1460   2964   2965     1  180.0000771  10.4600000  2
   1463   1461   2989   2990     1  0.0000000  8.3680000  1
   1463   1461   2989   2990     1  180.0000771  10.4600000  2
   1466   1469   1489   1490     1  0.0000000  0.0000000  2
   1466   1472   1473   1474     1  0.0000000  1.2552000  3
   1466   1472   1473   1475     1  0.0000000  1.2552000  3
   1466   1472   1476   1477     1  0.0000000  1.2552000  3
   1466   1472   1476   1478     1  0.0000000  1.2552000  3
   1467   1466   1469   1489     1  0.0000000  0.6508444  3
   1467   1466   1469   1470     1  0.0000000  0.6508444  3
   1467   1466   1469   1471     1  0.0000000  0.6508444  3
   1467   1466   1472   1473     1  0.0000000  1.2552000  3
   1467   1466   1472   1476     1  0.0000000  1.2552000  3
   1468   1466   1469   1489     1  0.0000000  0.6508444  3
   1468   1466   1469   1470     1  0.0000000  0.6508444  3
   1468   1466   1469   1471     1  0.0000000  0.6508444  3
   1468   1466   1472   1473     1  0.0000000  1.2552000  3
   1468   1466   1472   1476     1  0.0000000  1.2552000  3
   1470   1469   1466   1472     1  0.0000000  0.6508444  3
   1470   1469   1489   1490     1  0.0000000  0.0000000  2
   1471   1469   1466   1472     1  0.0000000  0.6508444  3
   1471   1469   1489   1490     1  0.0000000  0.0000000  2
   1472   1473   1482   1483     1  0.0000000  0.6508444  3
   1472   1473   1482   1484     1  0.0000000  0.6508444  3
   1472   1476   1479   1480     1  0.0000000  0.6508444  3
   1472   1476   1479   1481     1  0.0000000  0.6508444  3
   1473   1472   1476   1477     1  0.0000000  1.2552000  3
   1473   1472   1476   1478     1  0.0000000  1.2552000  3
   1474   1473   1472   1476     1  0.0000000  1.2552000  3
   1474   1473   1482   1486     1  0.0000000  0.6508444  3
   1474   1473   1482   1483     1  0.0000000  0.6508444  3
   1474   1473   1482   1484     1  0.0000000  0.6508444  3
   1475   1473   1472   1476     1  0.0000000  1.2552000  3
   1475   1473   1482   1486     1  0.0000000  0.6508444  3
   1475   1473   1482   1483     1  0.0000000  0.6508444  3
   1475   1473   1482   1484     1  0.0000000  0.6508444  3
   1477   1476   1479   1485     1  0.0000000  0.6508444  3
   1477   1476   1479   1480     1  0.0000000  0.6508444  3
   1477   1476   1479   1481     1  0.0000000  0.6508444  3
   1478   1476   1479   1485     1  0.0000000  0.6508444  3
   1478   1476   1479   1480     1  0.0000000  0.6508444  3
   1478   1476   1479   1481     1  0.0000000  0.6508444  3
   1479   1485   3014   3015     1  180.0000771  10.4600000  2
   1480   1479   1485   1487     1  0.0000000  3.3472000  1
   1480   1479   1485   1487     1  0.0000000  0.0000000  2
   1480   1479   1485   1487     1  180.0000771  0.3347200  3
   1480   1479   1485   3014     1  180.0000771  0.0000000  2
   1481   1479   1485   1487     1  0.0000000  3.3472000  1
   1481   1479   1485   1487     1  0.0000000  0.0000000  2
   1481   1479   1485   1487     1  180.0000771  0.3347200  3
   1481   1479   1485   3014     1  180.0000771  0.0000000  2
   1482   1486   3039   3040     1  180.0000771  10.4600000  2
   1483   1482   1486   1488     1  0.0000000  3.3472000  1
   1483   1482   1486   1488     1  0.0000000  0.0000000  2
   1483   1482   1486   1488     1  180.0000771  0.3347200  3
   1483   1482   1486   3039     1  180.0000771  0.0000000  2
   1484   1482   1486   1488     1  0.0000000  3.3472000  1
   1484   1482   1486   1488     1  0.0000000  0.0000000  2
   1484   1482   1486   1488     1  180.0000771  0.3347200  3
   1484   1482   1486   3039     1  180.0000771  0.0000000  2
   1485   3014   2994   2995     1  0.0000000  0.0000000  2
   1485   3014   2994   2996     1  0.0000000  0.0000000  2
   1486   3039   3019   3020     1  0.0000000  0.0000000  2
   1486   3039   3019   3021     1  0.0000000  0.0000000  2
   1487   1485   3014   3015     1  0.0000000  8.3680000  1
   1487   1485   3014   3015     1  180.0000771  10.4600000  2
   1488   1486   3039   3040     1  0.0000000  8.3680000  1
   1488   1486   3039   3040     1  180.0000771  10.4600000  2
   1491   1494   1514   1515     1  0.0000000  0.0000000  2
   1491   1497   1498   1499     1  0.0000000  1.2552000  3
   1491   1497   1498   1500     1  0.0000000  1.2552000  3
   1491   1497   1501   1502     1  0.0000000  1.2552000  3
   1491   1497   1501   1503     1  0.0000000  1.2552000  3
   1492   1491   1494   1514     1  0.0000000  0.6508444  3
   1492   1491   1494   1495     1  0.0000000  0.6508444  3
   1492   1491   1494   1496     1  0.0000000  0.6508444  3
   1492   1491   1497   1498     1  0.0000000  1.2552000  3
   1492   1491   1497   1501     1  0.0000000  1.2552000  3
   1493   1491   1494   1514     1  0.0000000  0.6508444  3
   1493   1491   1494   1495     1  0.0000000  0.6508444  3
   1493   1491   1494   1496     1  0.0000000  0.6508444  3
   1493   1491   1497   1498     1  0.0000000  1.2552000  3
   1493   1491   1497   1501     1  0.0000000  1.2552000  3
   1495   1494   1491   1497     1  0.0000000  0.6508444  3
   1495   1494   1514   1515     1  0.0000000  0.0000000  2
   1496   1494   1491   1497     1  0.0000000  0.6508444  3
   1496   1494   1514   1515     1  0.0000000  0.0000000  2
   1497   1498   1507   1508     1  0.0000000  0.6508444  3
   1497   1498   1507   1509     1  0.0000000  0.6508444  3
   1497   1501   1504   1505     1  0.0000000  0.6508444  3
   1497   1501   1504   1506     1  0.0000000  0.6508444  3
   1498   1497   1501   1502     1  0.0000000  1.2552000  3
   1498   1497   1501   1503     1  0.0000000  1.2552000  3
   1499   1498   1497   1501     1  0.0000000  1.2552000  3
   1499   1498   1507   1511     1  0.0000000  0.6508444  3
   1499   1498   1507   1508     1  0.0000000  0.6508444  3
   1499   1498   1507   1509     1  0.0000000  0.6508444  3
   1500   1498   1497   1501     1  0.0000000  1.2552000  3
   1500   1498   1507   1511     1  0.0000000  0.6508444  3
   1500   1498   1507   1508     1  0.0000000  0.6508444  3
   1500   1498   1507   1509     1  0.0000000  0.6508444  3
   1502   1501   1504   1510     1  0.0000000  0.6508444  3
   1502   1501   1504   1505     1  0.0000000  0.6508444  3
   1502   1501   1504   1506     1  0.0000000  0.6508444  3
   1503   1501   1504   1510     1  0.0000000  0.6508444  3
   1503   1501   1504   1505     1  0.0000000  0.6508444  3
   1503   1501   1504   1506     1  0.0000000  0.6508444  3
   1504   1510   3064   3065     1  180.0000771  10.4600000  2
   1505   1504   1510   1512     1  0.0000000  3.3472000  1
   1505   1504   1510   1512     1  0.0000000  0.0000000  2
   1505   1504   1510   1512     1  180.0000771  0.3347200  3
   1505   1504   1510   3064     1  180.0000771  0.0000000  2
   1506   1504   1510   1512     1  0.0000000  3.3472000  1
   1506   1504   1510   1512     1  0.0000000  0.0000000  2
   1506   1504   1510   1512     1  180.0000771  0.3347200  3
   1506   1504   1510   3064     1  180.0000771  0.0000000  2
   1507   1511   3089   3090     1  180.0000771  10.4600000  2
   1508   1507   1511   1513     1  0.0000000  3.3472000  1
   1508   1507   1511   1513     1  0.0000000  0.0000000  2
   1508   1507   1511   1513     1  180.0000771  0.3347200  3
   1508   1507   1511   3089     1  180.0000771  0.0000000  2
   1509   1507   1511   1513     1  0.0000000  3.3472000  1
   1509   1507   1511   1513     1  0.0000000  0.0000000  2
   1509   1507   1511   1513     1  180.0000771  0.3347200  3
   1509   1507   1511   3089     1  180.0000771  0.0000000  2
   1510   3064   3044   3045     1  0.0000000  0.0000000  2
   1510   3064   3044   3046     1  0.0000000  0.0000000  2
   1511   3089   3069   3070     1  0.0000000  0.0000000  2
   1511   3089   3069   3071     1  0.0000000  0.0000000  2
   1512   1510   3064   3065     1  0.0000000  8.3680000  1
   1512   1510   3064   3065     1  180.0000771  10.4600000  2
   1513   1511   3089   3090     1  0.0000000  8.3680000  1
   1513   1511   3089   3090     1  180.0000771  10.4600000  2
   1516   1519   1539   1540     1  0.0000000  0.0000000  2
   1516   1522   1523   1524     1  0.0000000  1.2552000  3
   1516   1522   1523   1525     1  0.0000000  1.2552000  3
   1516   1522   1526   1527     1  0.0000000  1.2552000  3
   1516   1522   1526   1528     1  0.0000000  1.2552000  3
   1517   1516   1519   1539     1  0.0000000  0.6508444  3
   1517   1516   1519   1520     1  0.0000000  0.6508444  3
   1517   1516   1519   1521     1  0.0000000  0.6508444  3
   1517   1516   1522   1523     1  0.0000000  1.2552000  3
   1517   1516   1522   1526     1  0.0000000  1.2552000  3
   1518   1516   1519   1539     1  0.0000000  0.6508444  3
   1518   1516   1519   1520     1  0.0000000  0.6508444  3
   1518   1516   1519   1521     1  0.0000000  0.6508444  3
   1518   1516   1522   1523     1  0.0000000  1.2552000  3
   1518   1516   1522   1526     1  0.0000000  1.2552000  3
   1520   1519   1516   1522     1  0.0000000  0.6508444  3
   1520   1519   1539   1540     1  0.0000000  0.0000000  2
   1521   1519   1516   1522     1  0.0000000  0.6508444  3
   1521   1519   1539   1540     1  0.0000000  0.0000000  2
   1522   1523   1532   1533     1  0.0000000  0.6508444  3
   1522   1523   1532   1534     1  0.0000000  0.6508444  3
   1522   1526   1529   1530     1  0.0000000  0.6508444  3
   1522   1526   1529   1531     1  0.0000000  0.6508444  3
   1523   1522   1526   1527     1  0.0000000  1.2552000  3
   1523   1522   1526   1528     1  0.0000000  1.2552000  3
   1524   1523   1522   1526     1  0.0000000  1.2552000  3
   1524   1523   1532   1536     1  0.0000000  0.6508444  3
   1524   1523   1532   1533     1  0.0000000  0.6508444  3
   1524   1523   1532   1534     1  0.0000000  0.6508444  3
   1525   1523   1522   1526     1  0.0000000  1.2552000  3
   1525   1523   1532   1536     1  0.0000000  0.6508444  3
   1525   1523   1532   1533     1  0.0000000  0.6508444  3
   1525   1523   1532   1534     1  0.0000000  0.6508444  3
   1527   1526   1529   1535     1  0.0000000  0.6508444  3
   1527   1526   1529   1530     1  0.0000000  0.6508444  3
   1527   1526   1529   1531     1  0.0000000  0.6508444  3
   1528   1526   1529   1535     1  0.0000000  0.6508444  3
   1528   1526   1529   1530     1  0.0000000  0.6508444  3
   1528   1526   1529   1531     1  0.0000000  0.6508444  3
   1529   1535   3114   3115     1  180.0000771  10.4600000  2
   1530   1529   1535   1537     1  0.0000000  3.3472000  1
   1530   1529   1535   1537     1  0.0000000  0.0000000  2
   1530   1529   1535   1537     1  180.0000771  0.3347200  3
   1530   1529   1535   3114     1  180.0000771  0.0000000  2
   1531   1529   1535   1537     1  0.0000000  3.3472000  1
   1531   1529   1535   1537     1  0.0000000  0.0000000  2
   1531   1529   1535   1537     1  180.0000771  0.3347200  3
   1531   1529   1535   3114     1  180.0000771  0.0000000  2
   1532   1536   3139   3140     1  180.0000771  10.4600000  2
   1533   1532   1536   1538     1  0.0000000  3.3472000  1
   1533   1532   1536   1538     1  0.0000000  0.0000000  2
   1533   1532   1536   1538     1  180.0000771  0.3347200  3
   1533   1532   1536   3139     1  180.0000771  0.0000000  2
   1534   1532   1536   1538     1  0.0000000  3.3472000  1
   1534   1532   1536   1538     1  0.0000000  0.0000000  2
   1534   1532   1536   1538     1  180.0000771  0.3347200  3
   1534   1532   1536   3139     1  180.0000771  0.0000000  2
   1535   3114   3094   3095     1  0.0000000  0.0000000  2
   1535   3114   3094   3096     1  0.0000000  0.0000000  2
   1536   3139   3119   3120     1  0.0000000  0.0000000  2
   1536   3139   3119   3121     1  0.0000000  0.0000000  2
   1537   1535   3114   3115     1  0.0000000  8.3680000  1
   1537   1535   3114   3115     1  180.0000771  10.4600000  2
   1538   1536   3139   3140     1  0.0000000  8.3680000  1
   1538   1536   3139   3140     1  180.0000771  10.4600000  2
   1541   1544   1564   1565     1  0.0000000  0.0000000  2
   1541   1547   1548   1549     1  0.0000000  1.2552000  3
   1541   1547   1548   1550     1  0.0000000  1.2552000  3
   1541   1547   1551   1552     1  0.0000000  1.2552000  3
   1541   1547   1551   1553     1  0.0000000  1.2552000  3
   1542   1541   1544   1564     1  0.0000000  0.6508444  3
   1542   1541   1544   1545     1  0.0000000  0.6508444  3
   1542   1541   1544   1546     1  0.0000000  0.6508444  3
   1542   1541   1547   1548     1  0.0000000  1.2552000  3
   1542   1541   1547   1551     1  0.0000000  1.2552000  3
   1543   1541   1544   1564     1  0.0000000  0.6508444  3
   1543   1541   1544   1545     1  0.0000000  0.6508444  3
   1543   1541   1544   1546     1  0.0000000  0.6508444  3
   1543   1541   1547   1548     1  0.0000000  1.2552000  3
   1543   1541   1547   1551     1  0.0000000  1.2552000  3
   1545   1544   1541   1547     1  0.0000000  0.6508444  3
   1545   1544   1564   1565     1  0.0000000  0.0000000  2
   1546   1544   1541   1547     1  0.0000000  0.6508444  3
   1546   1544   1564   1565     1  0.0000000  0.0000000  2
   1547   1548   1557   1558     1  0.0000000  0.6508444  3
   1547   1548   1557   1559     1  0.0000000  0.6508444  3
   1547   1551   1554   1555     1  0.0000000  0.6508444  3
   1547   1551   1554   1556     1  0.0000000  0.6508444  3
   1548   1547   1551   1552     1  0.0000000  1.2552000  3
   1548   1547   1551   1553     1  0.0000000  1.2552000  3
   1549   1548   1547   1551     1  0.0000000  1.2552000  3
   1549   1548   1557   1561     1  0.0000000  0.6508444  3
   1549   1548   1557   1558     1  0.0000000  0.6508444  3
   1549   1548   1557   1559     1  0.0000000  0.6508444  3
   1550   1548   1547   1551     1  0.0000000  1.2552000  3
   1550   1548   1557   1561     1  0.0000000  0.6508444  3
   1550   1548   1557   1558     1  0.0000000  0.6508444  3
   1550   1548   1557   1559     1  0.0000000  0.6508444  3
   1552   1551   1554   1560     1  0.0000000  0.6508444  3
   1552   1551   1554   1555     1  0.0000000  0.6508444  3
   1552   1551   1554   1556     1  0.0000000  0.6508444  3
   1553   1551   1554   1560     1  0.0000000  0.6508444  3
   1553   1551   1554   1555     1  0.0000000  0.6508444  3
   1553   1551   1554   1556     1  0.0000000  0.6508444  3
   1554   1560   3150   3151     1  180.0000771  10.4600000  2
   1555   1554   1560   3150     1  180.0000771  0.0000000  2
   1555   1554   1560   1562     1  0.0000000  3.3472000  1
   1555   1554   1560   1562     1  0.0000000  0.0000000  2
   1555   1554   1560   1562     1  180.0000771  0.3347200  3
   1556   1554   1560   3150     1  180.0000771  0.0000000  2
   1556   1554   1560   1562     1  0.0000000  3.3472000  1
   1556   1554   1560   1562     1  0.0000000  0.0000000  2
   1556   1554   1560   1562     1  180.0000771  0.3347200  3
   1557   1561   3161   3162     1  180.0000771  10.4600000  2
   1558   1557   1561   1563     1  0.0000000  3.3472000  1
   1558   1557   1561   1563     1  0.0000000  0.0000000  2
   1558   1557   1561   1563     1  180.0000771  0.3347200  3
   1558   1557   1561   3161     1  180.0000771  0.0000000  2
   1559   1557   1561   1563     1  0.0000000  3.3472000  1
   1559   1557   1561   1563     1  0.0000000  0.0000000  2
   1559   1557   1561   1563     1  180.0000771  0.3347200  3
   1559   1557   1561   3161     1  180.0000771  0.0000000  2
   1560   3150   3141   3142     1  0.0000000  0.0000000  2
   1560   3150   3141   3143     1  0.0000000  0.0000000  2
   1561   3161   3152   3153     1  0.0000000  0.0000000  2
   1561   3161   3152   3154     1  0.0000000  0.0000000  2
   1562   1560   3150   3151     1  0.0000000  8.3680000  1
   1562   1560   3150   3151     1  180.0000771  10.4600000  2
   1563   1561   3161   3162     1  0.0000000  8.3680000  1
   1563   1561   3161   3162     1  180.0000771  10.4600000  2
   1566   1569   1589   1590     1  0.0000000  0.0000000  2
   1566   1572   1573   1574     1  0.0000000  1.2552000  3
   1566   1572   1573   1575     1  0.0000000  1.2552000  3
   1566   1572   1576   1577     1  0.0000000  1.2552000  3
   1566   1572   1576   1578     1  0.0000000  1.2552000  3
   1567   1566   1569   1589     1  0.0000000  0.6508444  3
   1567   1566   1569   1570     1  0.0000000  0.6508444  3
   1567   1566   1569   1571     1  0.0000000  0.6508444  3
   1567   1566   1572   1573     1  0.0000000  1.2552000  3
   1567   1566   1572   1576     1  0.0000000  1.2552000  3
   1568   1566   1569   1589     1  0.0000000  0.6508444  3
   1568   1566   1569   1570     1  0.0000000  0.6508444  3
   1568   1566   1569   1571     1  0.0000000  0.6508444  3
   1568   1566   1572   1573     1  0.0000000  1.2552000  3
   1568   1566   1572   1576     1  0.0000000  1.2552000  3
   1570   1569   1566   1572     1  0.0000000  0.6508444  3
   1570   1569   1589   1590     1  0.0000000  0.0000000  2
   1571   1569   1566   1572     1  0.0000000  0.6508444  3
   1571   1569   1589   1590     1  0.0000000  0.0000000  2
   1572   1573   1582   1583     1  0.0000000  0.6508444  3
   1572   1573   1582   1584     1  0.0000000  0.6508444  3
   1572   1576   1579   1580     1  0.0000000  0.6508444  3
   1572   1576   1579   1581     1  0.0000000  0.6508444  3
   1573   1572   1576   1577     1  0.0000000  1.2552000  3
   1573   1572   1576   1578     1  0.0000000  1.2552000  3
   1574   1573   1572   1576     1  0.0000000  1.2552000  3
   1574   1573   1582   1586     1  0.0000000  0.6508444  3
   1574   1573   1582   1583     1  0.0000000  0.6508444  3
   1574   1573   1582   1584     1  0.0000000  0.6508444  3
   1575   1573   1572   1576     1  0.0000000  1.2552000  3
   1575   1573   1582   1586     1  0.0000000  0.6508444  3
   1575   1573   1582   1583     1  0.0000000  0.6508444  3
   1575   1573   1582   1584     1  0.0000000  0.6508444  3
   1577   1576   1579   1585     1  0.0000000  0.6508444  3
   1577   1576   1579   1580     1  0.0000000  0.6508444  3
   1577   1576   1579   1581     1  0.0000000  0.6508444  3
   1578   1576   1579   1585     1  0.0000000  0.6508444  3
   1578   1576   1579   1580     1  0.0000000  0.6508444  3
   1578   1576   1579   1581     1  0.0000000  0.6508444  3
   1579   1585   3172   3173     1  180.0000771  10.4600000  2
   1580   1579   1585   3172     1  180.0000771  0.0000000  2
   1580   1579   1585   1587     1  0.0000000  3.3472000  1
   1580   1579   1585   1587     1  0.0000000  0.0000000  2
   1580   1579   1585   1587     1  180.0000771  0.3347200  3
   1581   1579   1585   3172     1  180.0000771  0.0000000  2
   1581   1579   1585   1587     1  0.0000000  3.3472000  1
   1581   1579   1585   1587     1  0.0000000  0.0000000  2
   1581   1579   1585   1587     1  180.0000771  0.3347200  3
   1582   1586   3183   3184     1  180.0000771  10.4600000  2
   1583   1582   1586   1588     1  0.0000000  3.3472000  1
   1583   1582   1586   1588     1  0.0000000  0.0000000  2
   1583   1582   1586   1588     1  180.0000771  0.3347200  3
   1583   1582   1586   3183     1  180.0000771  0.0000000  2
   1584   1582   1586   1588     1  0.0000000  3.3472000  1
   1584   1582   1586   1588     1  0.0000000  0.0000000  2
   1584   1582   1586   1588     1  180.0000771  0.3347200  3
   1584   1582   1586   3183     1  180.0000771  0.0000000  2
   1585   3172   3163   3164     1  0.0000000  0.0000000  2
   1585   3172   3163   3165     1  0.0000000  0.0000000  2
   1586   3183   3174   3175     1  0.0000000  0.0000000  2
   1586   3183   3174   3176     1  0.0000000  0.0000000  2
   1587   1585   3172   3173     1  0.0000000  8.3680000  1
   1587   1585   3172   3173     1  180.0000771  10.4600000  2
   1588   1586   3183   3184     1  0.0000000  8.3680000  1
   1588   1586   3183   3184     1  180.0000771  10.4600000  2
   1591   1594   1614   1615     1  0.0000000  0.0000000  2
   1591   1597   1598   1599     1  0.0000000  1.2552000  3
   1591   1597   1598   1600     1  0.0000000  1.2552000  3
   1591   1597   1601   1602     1  0.0000000  1.2552000  3
   1591   1597   1601   1603     1  0.0000000  1.2552000  3
   1592   1591   1594   1614     1  0.0000000  0.6508444  3
   1592   1591   1594   1595     1  0.0000000  0.6508444  3
   1592   1591   1594   1596     1  0.0000000  0.6508444  3
   1592   1591   1597   1598     1  0.0000000  1.2552000  3
   1592   1591   1597   1601     1  0.0000000  1.2552000  3
   1593   1591   1594   1614     1  0.0000000  0.6508444  3
   1593   1591   1594   1595     1  0.0000000  0.6508444  3
   1593   1591   1594   1596     1  0.0000000  0.6508444  3
   1593   1591   1597   1598     1  0.0000000  1.2552000  3
   1593   1591   1597   1601     1  0.0000000  1.2552000  3
   1595   1594   1591   1597     1  0.0000000  0.6508444  3
   1595   1594   1614   1615     1  0.0000000  0.0000000  2
   1596   1594   1591   1597     1  0.0000000  0.6508444  3
   1596   1594   1614   1615     1  0.0000000  0.0000000  2
   1597   1598   1607   1608     1  0.0000000  0.6508444  3
   1597   1598   1607   1609     1  0.0000000  0.6508444  3
   1597   1601   1604   1605     1  0.0000000  0.6508444  3
   1597   1601   1604   1606     1  0.0000000  0.6508444  3
   1598   1597   1601   1602     1  0.0000000  1.2552000  3
   1598   1597   1601   1603     1  0.0000000  1.2552000  3
   1599   1598   1597   1601     1  0.0000000  1.2552000  3
   1599   1598   1607   1611     1  0.0000000  0.6508444  3
   1599   1598   1607   1608     1  0.0000000  0.6508444  3
   1599   1598   1607   1609     1  0.0000000  0.6508444  3
   1600   1598   1597   1601     1  0.0000000  1.2552000  3
   1600   1598   1607   1611     1  0.0000000  0.6508444  3
   1600   1598   1607   1608     1  0.0000000  0.6508444  3
   1600   1598   1607   1609     1  0.0000000  0.6508444  3
   1602   1601   1604   1610     1  0.0000000  0.6508444  3
   1602   1601   1604   1605     1  0.0000000  0.6508444  3
   1602   1601   1604   1606     1  0.0000000  0.6508444  3
   1603   1601   1604   1610     1  0.0000000  0.6508444  3
   1603   1601   1604   1605     1  0.0000000  0.6508444  3
   1603   1601   1604   1606     1  0.0000000  0.6508444  3
   1604   1610   3194   3195     1  180.0000771  10.4600000  2
   1605   1604   1610   3194     1  180.0000771  0.0000000  2
   1605   1604   1610   1612     1  0.0000000  3.3472000  1
   1605   1604   1610   1612     1  0.0000000  0.0000000  2
   1605   1604   1610   1612     1  180.0000771  0.3347200  3
   1606   1604   1610   3194     1  180.0000771  0.0000000  2
   1606   1604   1610   1612     1  0.0000000  3.3472000  1
   1606   1604   1610   1612     1  0.0000000  0.0000000  2
   1606   1604   1610   1612     1  180.0000771  0.3347200  3
   1607   1611   3205   3206     1  180.0000771  10.4600000  2
   1608   1607   1611   1613     1  0.0000000  3.3472000  1
   1608   1607   1611   1613     1  0.0000000  0.0000000  2
   1608   1607   1611   1613     1  180.0000771  0.3347200  3
   1608   1607   1611   3205     1  180.0000771  0.0000000  2
   1609   1607   1611   1613     1  0.0000000  3.3472000  1
   1609   1607   1611   1613     1  0.0000000  0.0000000  2
   1609   1607   1611   1613     1  180.0000771  0.3347200  3
   1609   1607   1611   3205     1  180.0000771  0.0000000  2
   1610   3194   3185   3186     1  0.0000000  0.0000000  2
   1610   3194   3185   3187     1  0.0000000  0.0000000  2
   1611   3205   3196   3197     1  0.0000000  0.0000000  2
   1611   3205   3196   3198     1  0.0000000  0.0000000  2
   1612   1610   3194   3195     1  0.0000000  8.3680000  1
   1612   1610   3194   3195     1  180.0000771  10.4600000  2
   1613   1611   3205   3206     1  0.0000000  8.3680000  1
   1613   1611   3205   3206     1  180.0000771  10.4600000  2
   1616   1619   1639   1640     1  0.0000000  0.0000000  2
   1616   1622   1623   1624     1  0.0000000  1.2552000  3
   1616   1622   1623   1625     1  0.0000000  1.2552000  3
   1616   1622   1626   1627     1  0.0000000  1.2552000  3
   1616   1622   1626   1628     1  0.0000000  1.2552000  3
   1617   1616   1619   1639     1  0.0000000  0.6508444  3
   1617   1616   1619   1620     1  0.0000000  0.6508444  3
   1617   1616   1619   1621     1  0.0000000  0.6508444  3
   1617   1616   1622   1623     1  0.0000000  1.2552000  3
   1617   1616   1622   1626     1  0.0000000  1.2552000  3
   1618   1616   1619   1639     1  0.0000000  0.6508444  3
   1618   1616   1619   1620     1  0.0000000  0.6508444  3
   1618   1616   1619   1621     1  0.0000000  0.6508444  3
   1618   1616   1622   1623     1  0.0000000  1.2552000  3
   1618   1616   1622   1626     1  0.0000000  1.2552000  3
   1620   1619   1616   1622     1  0.0000000  0.6508444  3
   1620   1619   1639   1640     1  0.0000000  0.0000000  2
   1621   1619   1616   1622     1  0.0000000  0.6508444  3
   1621   1619   1639   1640     1  0.0000000  0.0000000  2
   1622   1623   1632   1633     1  0.0000000  0.6508444  3
   1622   1623   1632   1634     1  0.0000000  0.6508444  3
   1622   1626   1629   1630     1  0.0000000  0.6508444  3
   1622   1626   1629   1631     1  0.0000000  0.6508444  3
   1623   1622   1626   1627     1  0.0000000  1.2552000  3
   1623   1622   1626   1628     1  0.0000000  1.2552000  3
   1624   1623   1622   1626     1  0.0000000  1.2552000  3
   1624   1623   1632   1636     1  0.0000000  0.6508444  3
   1624   1623   1632   1633     1  0.0000000  0.6508444  3
   1624   1623   1632   1634     1  0.0000000  0.6508444  3
   1625   1623   1622   1626     1  0.0000000  1.2552000  3
   1625   1623   1632   1636     1  0.0000000  0.6508444  3
   1625   1623   1632   1633     1  0.0000000  0.6508444  3
   1625   1623   1632   1634     1  0.0000000  0.6508444  3
   1627   1626   1629   1635     1  0.0000000  0.6508444  3
   1627   1626   1629   1630     1  0.0000000  0.6508444  3
   1627   1626   1629   1631     1  0.0000000  0.6508444  3
   1628   1626   1629   1635     1  0.0000000  0.6508444  3
   1628   1626   1629   1630     1  0.0000000  0.6508444  3
   1628   1626   1629   1631     1  0.0000000  0.6508444  3
   1629   1635   3216   3217     1  180.0000771  10.4600000  2
   1630   1629   1635   3216     1  180.0000771  0.0000000  2
   1630   1629   1635   1637     1  0.0000000  3.3472000  1
   1630   1629   1635   1637     1  0.0000000  0.0000000  2
   1630   1629   1635   1637     1  180.0000771  0.3347200  3
   1631   1629   1635   3216     1  180.0000771  0.0000000  2
   1631   1629   1635   1637     1  0.0000000  3.3472000  1
   1631   1629   1635   1637     1  0.0000000  0.0000000  2
   1631   1629   1635   1637     1  180.0000771  0.3347200  3
   1632   1636   3227   3228     1  180.0000771  10.4600000  2
   1633   1632   1636   1638     1  0.0000000  3.3472000  1
   1633   1632   1636   1638     1  0.0000000  0.0000000  2
   1633   1632   1636   1638     1  180.0000771  0.3347200  3
   1633   1632   1636   3227     1  180.0000771  0.0000000  2
   1634   1632   1636   1638     1  0.0000000  3.3472000  1
   1634   1632   1636   1638     1  0.0000000  0.0000000  2
   1634   1632   1636   1638     1  180.0000771  0.3347200  3
   1634   1632   1636   3227     1  180.0000771  0.0000000  2
   1635   3216   3207   3208     1  0.0000000  0.0000000  2
   1635   3216   3207   3209     1  0.0000000  0.0000000  2
   1636   3227   3218   3219     1  0.0000000  0.0000000  2
   1636   3227   3218   3220     1  0.0000000  0.0000000  2
   1637   1635   3216   3217     1  0.0000000  8.3680000  1
   1637   1635   3216   3217     1  180.0000771  10.4600000  2
   1638   1636   3227   3228     1  0.0000000  8.3680000  1
   1638   1636   3227   3228     1  180.0000771  10.4600000  2
   1641   1644   1664   1665     1  0.0000000  0.0000000  2
   1641   1647   1648   1649     1  0.0000000  1.2552000  3
   1641   1647   1648   1650     1  0.0000000  1.2552000  3
   1641   1647   1651   1652     1  0.0000000  1.2552000  3
   1641   1647   1651   1653     1  0.0000000  1.2552000  3
   1642   1641   1644   1664     1  0.0000000  0.6508444  3
   1642   1641   1644   1645     1  0.0000000  0.6508444  3
   1642   1641   1644   1646     1  0.0000000  0.6508444  3
   1642   1641   1647   1648     1  0.0000000  1.2552000  3
   1642   1641   1647   1651     1  0.0000000  1.2552000  3
   1643   1641   1644   1664     1  0.0000000  0.6508444  3
   1643   1641   1644   1645     1  0.0000000  0.6508444  3
   1643   1641   1644   1646     1  0.0000000  0.6508444  3
   1643   1641   1647   1648     1  0.0000000  1.2552000  3
   1643   1641   1647   1651     1  0.0000000  1.2552000  3
   1645   1644   1641   1647     1  0.0000000  0.6508444  3
   1645   1644   1664   1665     1  0.0000000  0.0000000  2
   1646   1644   1641   1647     1  0.0000000  0.6508444  3
   1646   1644   1664   1665     1  0.0000000  0.0000000  2
   1647   1648   1657   1658     1  0.0000000  0.6508444  3
   1647   1648   1657   1659     1  0.0000000  0.6508444  3
   1647   1651   1654   1655     1  0.0000000  0.6508444  3
   1647   1651   1654   1656     1  0.0000000  0.6508444  3
   1648   1647   1651   1652     1  0.0000000  1.2552000  3
   1648   1647   1651   1653     1  0.0000000  1.2552000  3
   1649   1648   1647   1651     1  0.0000000  1.2552000  3
   1649   1648   1657   1661     1  0.0000000  0.6508444  3
   1649   1648   1657   1658     1  0.0000000  0.6508444  3
   1649   1648   1657   1659     1  0.0000000  0.6508444  3
   1650   1648   1647   1651     1  0.0000000  1.2552000  3
   1650   1648   1657   1661     1  0.0000000  0.6508444  3
   1650   1648   1657   1658     1  0.0000000  0.6508444  3
   1650   1648   1657   1659     1  0.0000000  0.6508444  3
   1652   1651   1654   1660     1  0.0000000  0.6508444  3
   1652   1651   1654   1655     1  0.0000000  0.6508444  3
   1652   1651   1654   1656     1  0.0000000  0.6508444  3
   1653   1651   1654   1660     1  0.0000000  0.6508444  3
   1653   1651   1654   1655     1  0.0000000  0.6508444  3
   1653   1651   1654   1656     1  0.0000000  0.6508444  3
   1654   1660   3238   3239     1  180.0000771  10.4600000  2
   1655   1654   1660   3238     1  180.0000771  0.0000000  2
   1655   1654   1660   1662     1  0.0000000  3.3472000  1
   1655   1654   1660   1662     1  0.0000000  0.0000000  2
   1655   1654   1660   1662     1  180.0000771  0.3347200  3
   1656   1654   1660   3238     1  180.0000771  0.0000000  2
   1656   1654   1660   1662     1  0.0000000  3.3472000  1
   1656   1654   1660   1662     1  0.0000000  0.0000000  2
   1656   1654   1660   1662     1  180.0000771  0.3347200  3
   1657   1661   3249   3250     1  180.0000771  10.4600000  2
   1658   1657   1661   1663     1  0.0000000  3.3472000  1
   1658   1657   1661   1663     1  0.0000000  0.0000000  2
   1658   1657   1661   1663     1  180.0000771  0.3347200  3
   1658   1657   1661   3249     1  180.0000771  0.0000000  2
   1659   1657   1661   1663     1  0.0000000  3.3472000  1
   1659   1657   1661   1663     1  0.0000000  0.0000000  2
   1659   1657   1661   1663     1  180.0000771  0.3347200  3
   1659   1657   1661   3249     1  180.0000771  0.0000000  2
   1660   3238   3229   3230     1  0.0000000  0.0000000  2
   1660   3238   3229   3231     1  0.0000000  0.0000000  2
   1661   3249   3240   3241     1  0.0000000  0.0000000  2
   1661   3249   3240   3242     1  0.0000000  0.0000000  2
   1662   1660   3238   3239     1  0.0000000  8.3680000  1
   1662   1660   3238   3239     1  180.0000771  10.4600000  2
   1663   1661   3249   3250     1  0.0000000  8.3680000  1
   1663   1661   3249   3250     1  180.0000771  10.4600000  2
   1666   1669   1689   1690     1  0.0000000  0.0000000  2
   1666   1672   1673   1674     1  0.0000000  1.2552000  3
   1666   1672   1673   1675     1  0.0000000  1.2552000  3
   1666   1672   1676   1677     1  0.0000000  1.2552000  3
   1666   1672   1676   1678     1  0.0000000  1.2552000  3
   1667   1666   1669   1689     1  0.0000000  0.6508444  3
   1667   1666   1669   1670     1  0.0000000  0.6508444  3
   1667   1666   1669   1671     1  0.0000000  0.6508444  3
   1667   1666   1672   1673     1  0.0000000  1.2552000  3
   1667   1666   1672   1676     1  0.0000000  1.2552000  3
   1668   1666   1669   1689     1  0.0000000  0.6508444  3
   1668   1666   1669   1670     1  0.0000000  0.6508444  3
   1668   1666   1669   1671     1  0.0000000  0.6508444  3
   1668   1666   1672   1673     1  0.0000000  1.2552000  3
   1668   1666   1672   1676     1  0.0000000  1.2552000  3
   1670   1669   1666   1672     1  0.0000000  0.6508444  3
   1670   1669   1689   1690     1  0.0000000  0.0000000  2
   1671   1669   1666   1672     1  0.0000000  0.6508444  3
   1671   1669   1689   1690     1  0.0000000  0.0000000  2
   1672   1673   1682   1683     1  0.0000000  0.6508444  3
   1672   1673   1682   1684     1  0.0000000  0.6508444  3
   1672   1676   1679   1680     1  0.0000000  0.6508444  3
   1672   1676   1679   1681     1  0.0000000  0.6508444  3
   1673   1672   1676   1677     1  0.0000000  1.2552000  3
   1673   1672   1676   1678     1  0.0000000  1.2552000  3
   1674   1673   1672   1676     1  0.0000000  1.2552000  3
   1674   1673   1682   1686     1  0.0000000  0.6508444  3
   1674   1673   1682   1683     1  0.0000000  0.6508444  3
   1674   1673   1682   1684     1  0.0000000  0.6508444  3
   1675   1673   1672   1676     1  0.0000000  1.2552000  3
   1675   1673   1682   1686     1  0.0000000  0.6508444  3
   1675   1673   1682   1683     1  0.0000000  0.6508444  3
   1675   1673   1682   1684     1  0.0000000  0.6508444  3
   1677   1676   1679   1685     1  0.0000000  0.6508444  3
   1677   1676   1679   1680     1  0.0000000  0.6508444  3
   1677   1676   1679   1681     1  0.0000000  0.6508444  3
   1678   1676   1679   1685     1  0.0000000  0.6508444  3
   1678   1676   1679   1680     1  0.0000000  0.6508444  3
   1678   1676   1679   1681     1  0.0000000  0.6508444  3
   1679   1685   3260   3261     1  180.0000771  10.4600000  2
   1680   1679   1685   3260     1  180.0000771  0.0000000  2
   1680   1679   1685   1687     1  0.0000000  3.3472000  1
   1680   1679   1685   1687     1  0.0000000  0.0000000  2
   1680   1679   1685   1687     1  180.0000771  0.3347200  3
   1681   1679   1685   3260     1  180.0000771  0.0000000  2
   1681   1679   1685   1687     1  0.0000000  3.3472000  1
   1681   1679   1685   1687     1  0.0000000  0.0000000  2
   1681   1679   1685   1687     1  180.0000771  0.3347200  3
   1682   1686   3271   3272     1  180.0000771  10.4600000  2
   1683   1682   1686   1688     1  0.0000000  3.3472000  1
   1683   1682   1686   1688     1  0.0000000  0.0000000  2
   1683   1682   1686   1688     1  180.0000771  0.3347200  3
   1683   1682   1686   3271     1  180.0000771  0.0000000  2
   1684   1682   1686   1688     1  0.0000000  3.3472000  1
   1684   1682   1686   1688     1  0.0000000  0.0000000  2
   1684   1682   1686   1688     1  180.0000771  0.3347200  3
   1684   1682   1686   3271     1  180.0000771  0.0000000  2
   1685   3260   3251   3252     1  0.0000000  0.0000000  2
   1685   3260   3251   3253     1  0.0000000  0.0000000  2
   1686   3271   3262   3263     1  0.0000000  0.0000000  2
   1686   3271   3262   3264     1  0.0000000  0.0000000  2
   1687   1685   3260   3261     1  0.0000000  8.3680000  1
   1687   1685   3260   3261     1  180.0000771  10.4600000  2
   1688   1686   3271   3272     1  0.0000000  8.3680000  1
   1688   1686   3271   3272     1  180.0000771  10.4600000  2
   1691   1694   1714   1715     1  0.0000000  0.0000000  2
   1691   1697   1698   1699     1  0.0000000  1.2552000  3
   1691   1697   1698   1700     1  0.0000000  1.2552000  3
   1691   1697   1701   1702     1  0.0000000  1.2552000  3
   1691   1697   1701   1703     1  0.0000000  1.2552000  3
   1692   1691   1694   1714     1  0.0000000  0.6508444  3
   1692   1691   1694   1695     1  0.0000000  0.6508444  3
   1692   1691   1694   1696     1  0.0000000  0.6508444  3
   1692   1691   1697   1698     1  0.0000000  1.2552000  3
   1692   1691   1697   1701     1  0.0000000  1.2552000  3
   1693   1691   1694   1714     1  0.0000000  0.6508444  3
   1693   1691   1694   1695     1  0.0000000  0.6508444  3
   1693   1691   1694   1696     1  0.0000000  0.6508444  3
   1693   1691   1697   1698     1  0.0000000  1.2552000  3
   1693   1691   1697   1701     1  0.0000000  1.2552000  3
   1695   1694   1691   1697     1  0.0000000  0.6508444  3
   1695   1694   1714   1715     1  0.0000000  0.0000000  2
   1696   1694   1691   1697     1  0.0000000  0.6508444  3
   1696   1694   1714   1715     1  0.0000000  0.0000000  2
   1697   1698   1707   1708     1  0.0000000  0.6508444  3
   1697   1698   1707   1709     1  0.0000000  0.6508444  3
   1697   1701   1704   1705     1  0.0000000  0.6508444  3
   1697   1701   1704   1706     1  0.0000000  0.6508444  3
   1698   1697   1701   1702     1  0.0000000  1.2552000  3
   1698   1697   1701   1703     1  0.0000000  1.2552000  3
   1699   1698   1697   1701     1  0.0000000  1.2552000  3
   1699   1698   1707   1711     1  0.0000000  0.6508444  3
   1699   1698   1707   1708     1  0.0000000  0.6508444  3
   1699   1698   1707   1709     1  0.0000000  0.6508444  3
   1700   1698   1697   1701     1  0.0000000  1.2552000  3
   1700   1698   1707   1711     1  0.0000000  0.6508444  3
   1700   1698   1707   1708     1  0.0000000  0.6508444  3
   1700   1698   1707   1709     1  0.0000000  0.6508444  3
   1702   1701   1704   1710     1  0.0000000  0.6508444  3
   1702   1701   1704   1705     1  0.0000000  0.6508444  3
   1702   1701   1704   1706     1  0.0000000  0.6508444  3
   1703   1701   1704   1710     1  0.0000000  0.6508444  3
   1703   1701   1704   1705     1  0.0000000  0.6508444  3
   1703   1701   1704   1706     1  0.0000000  0.6508444  3
   1704   1710   3282   3283     1  180.0000771  10.4600000  2
   1705   1704   1710   3282     1  180.0000771  0.0000000  2
   1705   1704   1710   1712     1  0.0000000  3.3472000  1
   1705   1704   1710   1712     1  0.0000000  0.0000000  2
   1705   1704   1710   1712     1  180.0000771  0.3347200  3
   1706   1704   1710   3282     1  180.0000771  0.0000000  2
   1706   1704   1710   1712     1  0.0000000  3.3472000  1
   1706   1704   1710   1712     1  0.0000000  0.0000000  2
   1706   1704   1710   1712     1  180.0000771  0.3347200  3
   1707   1711   3293   3294     1  180.0000771  10.4600000  2
   1708   1707   1711   1713     1  0.0000000  3.3472000  1
   1708   1707   1711   1713     1  0.0000000  0.0000000  2
   1708   1707   1711   1713     1  180.0000771  0.3347200  3
   1708   1707   1711   3293     1  180.0000771  0.0000000  2
   1709   1707   1711   1713     1  0.0000000  3.3472000  1
   1709   1707   1711   1713     1  0.0000000  0.0000000  2
   1709   1707   1711   1713     1  180.0000771  0.3347200  3
   1709   1707   1711   3293     1  180.0000771  0.0000000  2
   1710   3282   3273   3274     1  0.0000000  0.0000000  2
   1710   3282   3273   3275     1  0.0000000  0.0000000  2
   1711   3293   3284   3285     1  0.0000000  0.0000000  2
   1711   3293   3284   3286     1  0.0000000  0.0000000  2
   1712   1710   3282   3283     1  0.0000000  8.3680000  1
   1712   1710   3282   3283     1  180.0000771  10.4600000  2
   1713   1711   3293   3294     1  0.0000000  8.3680000  1
   1713   1711   3293   3294     1  180.0000771  10.4600000  2
   1716   1719   1739   1740     1  0.0000000  0.0000000  2
   1716   1722   1723   1724     1  0.0000000  1.2552000  3
   1716   1722   1723   1725     1  0.0000000  1.2552000  3
   1716   1722   1726   1727     1  0.0000000  1.2552000  3
   1716   1722   1726   1728     1  0.0000000  1.2552000  3
   1717   1716   1719   1739     1  0.0000000  0.6508444  3
   1717   1716   1719   1720     1  0.0000000  0.6508444  3
   1717   1716   1719   1721     1  0.0000000  0.6508444  3
   1717   1716   1722   1723     1  0.0000000  1.2552000  3
   1717   1716   1722   1726     1  0.0000000  1.2552000  3
   1718   1716   1719   1739     1  0.0000000  0.6508444  3
   1718   1716   1719   1720     1  0.0000000  0.6508444  3
   1718   1716   1719   1721     1  0.0000000  0.6508444  3
   1718   1716   1722   1723     1  0.0000000  1.2552000  3
   1718   1716   1722   1726     1  0.0000000  1.2552000  3
   1720   1719   1716   1722     1  0.0000000  0.6508444  3
   1720   1719   1739   1740     1  0.0000000  0.0000000  2
   1721   1719   1716   1722     1  0.0000000  0.6508444  3
   1721   1719   1739   1740     1  0.0000000  0.0000000  2
   1722   1723   1732   1733     1  0.0000000  0.6508444  3
   1722   1723   1732   1734     1  0.0000000  0.6508444  3
   1722   1726   1729   1730     1  0.0000000  0.6508444  3
   1722   1726   1729   1731     1  0.0000000  0.6508444  3
   1723   1722   1726   1727     1  0.0000000  1.2552000  3
   1723   1722   1726   1728     1  0.0000000  1.2552000  3
   1724   1723   1722   1726     1  0.0000000  1.2552000  3
   1724   1723   1732   1736     1  0.0000000  0.6508444  3
   1724   1723   1732   1733     1  0.0000000  0.6508444  3
   1724   1723   1732   1734     1  0.0000000  0.6508444  3
   1725   1723   1722   1726     1  0.0000000  1.2552000  3
   1725   1723   1732   1736     1  0.0000000  0.6508444  3
   1725   1723   1732   1733     1  0.0000000  0.6508444  3
   1725   1723   1732   1734     1  0.0000000  0.6508444  3
   1727   1726   1729   1735     1  0.0000000  0.6508444  3
   1727   1726   1729   1730     1  0.0000000  0.6508444  3
   1727   1726   1729   1731     1  0.0000000  0.6508444  3
   1728   1726   1729   1735     1  0.0000000  0.6508444  3
   1728   1726   1729   1730     1  0.0000000  0.6508444  3
   1728   1726   1729   1731     1  0.0000000  0.6508444  3
   1729   1735   3304   3305     1  180.0000771  10.4600000  2
   1730   1729   1735   3304     1  180.0000771  0.0000000  2
   1730   1729   1735   1737     1  0.0000000  3.3472000  1
   1730   1729   1735   1737     1  0.0000000  0.0000000  2
   1730   1729   1735   1737     1  180.0000771  0.3347200  3
   1731   1729   1735   3304     1  180.0000771  0.0000000  2
   1731   1729   1735   1737     1  0.0000000  3.3472000  1
   1731   1729   1735   1737     1  0.0000000  0.0000000  2
   1731   1729   1735   1737     1  180.0000771  0.3347200  3
   1732   1736   3315   3316     1  180.0000771  10.4600000  2
   1733   1732   1736   1738     1  0.0000000  3.3472000  1
   1733   1732   1736   1738     1  0.0000000  0.0000000  2
   1733   1732   1736   1738     1  180.0000771  0.3347200  3
   1733   1732   1736   3315     1  180.0000771  0.0000000  2
   1734   1732   1736   1738     1  0.0000000  3.3472000  1
   1734   1732   1736   1738     1  0.0000000  0.0000000  2
   1734   1732   1736   1738     1  180.0000771  0.3347200  3
   1734   1732   1736   3315     1  180.0000771  0.0000000  2
   1735   3304   3295   3296     1  0.0000000  0.0000000  2
   1735   3304   3295   3297     1  0.0000000  0.0000000  2
   1736   3315   3306   3307     1  0.0000000  0.0000000  2
   1736   3315   3306   3308     1  0.0000000  0.0000000  2
   1737   1735   3304   3305     1  0.0000000  8.3680000  1
   1737   1735   3304   3305     1  180.0000771  10.4600000  2
   1738   1736   3315   3316     1  0.0000000  8.3680000  1
   1738   1736   3315   3316     1  180.0000771  10.4600000  2
   1741   1744   1764   1765     1  0.0000000  0.0000000  2
   1741   1747   1748   1749     1  0.0000000  1.2552000  3
   1741   1747   1748   1750     1  0.0000000  1.2552000  3
   1741   1747   1751   1752     1  0.0000000  1.2552000  3
   1741   1747   1751   1753     1  0.0000000  1.2552000  3
   1742   1741   1744   1764     1  0.0000000  0.6508444  3
   1742   1741   1744   1745     1  0.0000000  0.6508444  3
   1742   1741   1744   1746     1  0.0000000  0.6508444  3
   1742   1741   1747   1748     1  0.0000000  1.2552000  3
   1742   1741   1747   1751     1  0.0000000  1.2552000  3
   1743   1741   1744   1764     1  0.0000000  0.6508444  3
   1743   1741   1744   1745     1  0.0000000  0.6508444  3
   1743   1741   1744   1746     1  0.0000000  0.6508444  3
   1743   1741   1747   1748     1  0.0000000  1.2552000  3
   1743   1741   1747   1751     1  0.0000000  1.2552000  3
   1745   1744   1741   1747     1  0.0000000  0.6508444  3
   1745   1744   1764   1765     1  0.0000000  0.0000000  2
   1746   1744   1741   1747     1  0.0000000  0.6508444  3
   1746   1744   1764   1765     1  0.0000000  0.0000000  2
   1747   1748   1757   1758     1  0.0000000  0.6508444  3
   1747   1748   1757   1759     1  0.0000000  0.6508444  3
   1747   1751   1754   1755     1  0.0000000  0.6508444  3
   1747   1751   1754   1756     1  0.0000000  0.6508444  3
   1748   1747   1751   1752     1  0.0000000  1.2552000  3
   1748   1747   1751   1753     1  0.0000000  1.2552000  3
   1749   1748   1747   1751     1  0.0000000  1.2552000  3
   1749   1748   1757   1761     1  0.0000000  0.6508444  3
   1749   1748   1757   1758     1  0.0000000  0.6508444  3
   1749   1748   1757   1759     1  0.0000000  0.6508444  3
   1750   1748   1747   1751     1  0.0000000  1.2552000  3
   1750   1748   1757   1761     1  0.0000000  0.6508444  3
   1750   1748   1757   1758     1  0.0000000  0.6508444  3
   1750   1748   1757   1759     1  0.0000000  0.6508444  3
   1752   1751   1754   1760     1  0.0000000  0.6508444  3
   1752   1751   1754   1755     1  0.0000000  0.6508444  3
   1752   1751   1754   1756     1  0.0000000  0.6508444  3
   1753   1751   1754   1760     1  0.0000000  0.6508444  3
   1753   1751   1754   1755     1  0.0000000  0.6508444  3
   1753   1751   1754   1756     1  0.0000000  0.6508444  3
   1754   1760   3326   3327     1  180.0000771  10.4600000  2
   1755   1754   1760   3326     1  180.0000771  0.0000000  2
   1755   1754   1760   1762     1  0.0000000  3.3472000  1
   1755   1754   1760   1762     1  0.0000000  0.0000000  2
   1755   1754   1760   1762     1  180.0000771  0.3347200  3
   1756   1754   1760   3326     1  180.0000771  0.0000000  2
   1756   1754   1760   1762     1  0.0000000  3.3472000  1
   1756   1754   1760   1762     1  0.0000000  0.0000000  2
   1756   1754   1760   1762     1  180.0000771  0.3347200  3
   1757   1761   3337   3338     1  180.0000771  10.4600000  2
   1758   1757   1761   1763     1  0.0000000  3.3472000  1
   1758   1757   1761   1763     1  0.0000000  0.0000000  2
   1758   1757   1761   1763     1  180.0000771  0.3347200  3
   1758   1757   1761   3337     1  180.0000771  0.0000000  2
   1759   1757   1761   1763     1  0.0000000  3.3472000  1
   1759   1757   1761   1763     1  0.0000000  0.0000000  2
   1759   1757   1761   1763     1  180.0000771  0.3347200  3
   1759   1757   1761   3337     1  180.0000771  0.0000000  2
   1760   3326   3317   3318     1  0.0000000  0.0000000  2
   1760   3326   3317   3319     1  0.0000000  0.0000000  2
   1761   3337   3328   3329     1  0.0000000  0.0000000  2
   1761   3337   3328   3330     1  0.0000000  0.0000000  2
   1762   1760   3326   3327     1  0.0000000  8.3680000  1
   1762   1760   3326   3327     1  180.0000771  10.4600000  2
   1763   1761   3337   3338     1  0.0000000  8.3680000  1
   1763   1761   3337   3338     1  180.0000771  10.4600000  2
   1766   1769   1789   1790     1  0.0000000  0.0000000  2
   1766   1772   1773   1774     1  0.0000000  1.2552000  3
   1766   1772   1773   1775     1  0.0000000  1.2552000  3
   1766   1772   1776   1777     1  0.0000000  1.2552000  3
   1766   1772   1776   1778     1  0.0000000  1.2552000  3
   1767   1766   1769   1789     1  0.0000000  0.6508444  3
   1767   1766   1769   1770     1  0.0000000  0.6508444  3
   1767   1766   1769   1771     1  0.0000000  0.6508444  3
   1767   1766   1772   1773     1  0.0000000  1.2552000  3
   1767   1766   1772   1776     1  0.0000000  1.2552000  3
   1768   1766   1769   1789     1  0.0000000  0.6508444  3
   1768   1766   1769   1770     1  0.0000000  0.6508444  3
   1768   1766   1769   1771     1  0.0000000  0.6508444  3
   1768   1766   1772   1773     1  0.0000000  1.2552000  3
   1768   1766   1772   1776     1  0.0000000  1.2552000  3
   1770   1769   1766   1772     1  0.0000000  0.6508444  3
   1770   1769   1789   1790     1  0.0000000  0.0000000  2
   1771   1769   1766   1772     1  0.0000000  0.6508444  3
   1771   1769   1789   1790     1  0.0000000  0.0000000  2
   1772   1773   1782   1783     1  0.0000000  0.6508444  3
   1772   1773   1782   1784     1  0.0000000  0.6508444  3
   1772   1776   1779   1780     1  0.0000000  0.6508444  3
   1772   1776   1779   1781     1  0.0000000  0.6508444  3
   1773   1772   1776   1777     1  0.0000000  1.2552000  3
   1773   1772   1776   1778     1  0.0000000  1.2552000  3
   1774   1773   1772   1776     1  0.0000000  1.2552000  3
   1774   1773   1782   1786     1  0.0000000  0.6508444  3
   1774   1773   1782   1783     1  0.0000000  0.6508444  3
   1774   1773   1782   1784     1  0.0000000  0.6508444  3
   1775   1773   1772   1776     1  0.0000000  1.2552000  3
   1775   1773   1782   1786     1  0.0000000  0.6508444  3
   1775   1773   1782   1783     1  0.0000000  0.6508444  3
   1775   1773   1782   1784     1  0.0000000  0.6508444  3
   1777   1776   1779   1785     1  0.0000000  0.6508444  3
   1777   1776   1779   1780     1  0.0000000  0.6508444  3
   1777   1776   1779   1781     1  0.0000000  0.6508444  3
   1778   1776   1779   1785     1  0.0000000  0.6508444  3
   1778   1776   1779   1780     1  0.0000000  0.6508444  3
   1778   1776   1779   1781     1  0.0000000  0.6508444  3
   1779   1785   3348   3349     1  180.0000771  10.4600000  2
   1780   1779   1785   3348     1  180.0000771  0.0000000  2
   1780   1779   1785   1787     1  0.0000000  3.3472000  1
   1780   1779   1785   1787     1  0.0000000  0.0000000  2
   1780   1779   1785   1787     1  180.0000771  0.3347200  3
   1781   1779   1785   3348     1  180.0000771  0.0000000  2
   1781   1779   1785   1787     1  0.0000000  3.3472000  1
   1781   1779   1785   1787     1  0.0000000  0.0000000  2
   1781   1779   1785   1787     1  180.0000771  0.3347200  3
   1782   1786   3359   3360     1  180.0000771  10.4600000  2
   1783   1782   1786   1788     1  0.0000000  3.3472000  1
   1783   1782   1786   1788     1  0.0000000  0.0000000  2
   1783   1782   1786   1788     1  180.0000771  0.3347200  3
   1783   1782   1786   3359     1  180.0000771  0.0000000  2
   1784   1782   1786   1788     1  0.0000000  3.3472000  1
   1784   1782   1786   1788     1  0.0000000  0.0000000  2
   1784   1782   1786   1788     1  180.0000771  0.3347200  3
   1784   1782   1786   3359     1  180.0000771  0.0000000  2
   1785   3348   3339   3340     1  0.0000000  0.0000000  2
   1785   3348   3339   3341     1  0.0000000  0.0000000  2
   1786   3359   3350   3351     1  0.0000000  0.0000000  2
   1786   3359   3350   3352     1  0.0000000  0.0000000  2
   1787   1785   3348   3349     1  0.0000000  8.3680000  1
   1787   1785   3348   3349     1  180.0000771  10.4600000  2
   1788   1786   3359   3360     1  0.0000000  8.3680000  1
   1788   1786   3359   3360     1  180.0000771  10.4600000  2
   1791   1794   1814   1815     1  0.0000000  0.0000000  2
   1791   1797   1798   1799     1  0.0000000  1.2552000  3
   1791   1797   1798   1800     1  0.0000000  1.2552000  3
   1791   1797   1801   1802     1  0.0000000  1.2552000  3
   1791   1797   1801   1803     1  0.0000000  1.2552000  3
   1792   1791   1794   1814     1  0.0000000  0.6508444  3
   1792   1791   1794   1795     1  0.0000000  0.6508444  3
   1792   1791   1794   1796     1  0.0000000  0.6508444  3
   1792   1791   1797   1798     1  0.0000000  1.2552000  3
   1792   1791   1797   1801     1  0.0000000  1.2552000  3
   1793   1791   1794   1814     1  0.0000000  0.6508444  3
   1793   1791   1794   1795     1  0.0000000  0.6508444  3
   1793   1791   1794   1796     1  0.0000000  0.6508444  3
   1793   1791   1797   1798     1  0.0000000  1.2552000  3
   1793   1791   1797   1801     1  0.0000000  1.2552000  3
   1795   1794   1791   1797     1  0.0000000  0.6508444  3
   1795   1794   1814   1815     1  0.0000000  0.0000000  2
   1796   1794   1791   1797     1  0.0000000  0.6508444  3
   1796   1794   1814   1815     1  0.0000000  0.0000000  2
   1797   1798   1807   1808     1  0.0000000  0.6508444  3
   1797   1798   1807   1809     1  0.0000000  0.6508444  3
   1797   1801   1804   1805     1  0.0000000  0.6508444  3
   1797   1801   1804   1806     1  0.0000000  0.6508444  3
   1798   1797   1801   1802     1  0.0000000  1.2552000  3
   1798   1797   1801   1803     1  0.0000000  1.2552000  3
   1799   1798   1797   1801     1  0.0000000  1.2552000  3
   1799   1798   1807   1811     1  0.0000000  0.6508444  3
   1799   1798   1807   1808     1  0.0000000  0.6508444  3
   1799   1798   1807   1809     1  0.0000000  0.6508444  3
   1800   1798   1797   1801     1  0.0000000  1.2552000  3
   1800   1798   1807   1811     1  0.0000000  0.6508444  3
   1800   1798   1807   1808     1  0.0000000  0.6508444  3
   1800   1798   1807   1809     1  0.0000000  0.6508444  3
   1802   1801   1804   1810     1  0.0000000  0.6508444  3
   1802   1801   1804   1805     1  0.0000000  0.6508444  3
   1802   1801   1804   1806     1  0.0000000  0.6508444  3
   1803   1801   1804   1810     1  0.0000000  0.6508444  3
   1803   1801   1804   1805     1  0.0000000  0.6508444  3
   1803   1801   1804   1806     1  0.0000000  0.6508444  3
   1804   1810   3370   3371     1  180.0000771  10.4600000  2
   1805   1804   1810   3370     1  180.0000771  0.0000000  2
   1805   1804   1810   1812     1  0.0000000  3.3472000  1
   1805   1804   1810   1812     1  0.0000000  0.0000000  2
   1805   1804   1810   1812     1  180.0000771  0.3347200  3
   1806   1804   1810   3370     1  180.0000771  0.0000000  2
   1806   1804   1810   1812     1  0.0000000  3.3472000  1
   1806   1804   1810   1812     1  0.0000000  0.0000000  2
   1806   1804   1810   1812     1  180.0000771  0.3347200  3
   1807   1811   3381   3382     1  180.0000771  10.4600000  2
   1808   1807   1811   1813     1  0.0000000  3.3472000  1
   1808   1807   1811   1813     1  0.0000000  0.0000000  2
   1808   1807   1811   1813     1  180.0000771  0.3347200  3
   1808   1807   1811   3381     1  180.0000771  0.0000000  2
   1809   1807   1811   1813     1  0.0000000  3.3472000  1
   1809   1807   1811   1813     1  0.0000000  0.0000000  2
   1809   1807   1811   1813     1  180.0000771  0.3347200  3
   1809   1807   1811   3381     1  180.0000771  0.0000000  2
   1810   3370   3361   3362     1  0.0000000  0.0000000  2
   1810   3370   3361   3363     1  0.0000000  0.0000000  2
   1811   3381   3372   3373     1  0.0000000  0.0000000  2
   1811   3381   3372   3374     1  0.0000000  0.0000000  2
   1812   1810   3370   3371     1  0.0000000  8.3680000  1
   1812   1810   3370   3371     1  180.0000771  10.4600000  2
   1813   1811   3381   3382     1  0.0000000  8.3680000  1
   1813   1811   3381   3382     1  180.0000771  10.4600000  2
   1816   1819   1839   1840     1  0.0000000  0.0000000  2
   1816   1822   1823   1824     1  0.0000000  1.2552000  3
   1816   1822   1823   1825     1  0.0000000  1.2552000  3
   1816   1822   1826   1827     1  0.0000000  1.2552000  3
   1816   1822   1826   1828     1  0.0000000  1.2552000  3
   1817   1816   1819   1839     1  0.0000000  0.6508444  3
   1817   1816   1819   1820     1  0.0000000  0.6508444  3
   1817   1816   1819   1821     1  0.0000000  0.6508444  3
   1817   1816   1822   1823     1  0.0000000  1.2552000  3
   1817   1816   1822   1826     1  0.0000000  1.2552000  3
   1818   1816   1819   1839     1  0.0000000  0.6508444  3
   1818   1816   1819   1820     1  0.0000000  0.6508444  3
   1818   1816   1819   1821     1  0.0000000  0.6508444  3
   1818   1816   1822   1823     1  0.0000000  1.2552000  3
   1818   1816   1822   1826     1  0.0000000  1.2552000  3
   1820   1819   1816   1822     1  0.0000000  0.6508444  3
   1820   1819   1839   1840     1  0.0000000  0.0000000  2
   1821   1819   1816   1822     1  0.0000000  0.6508444  3
   1821   1819   1839   1840     1  0.0000000  0.0000000  2
   1822   1823   1832   1833     1  0.0000000  0.6508444  3
   1822   1823   1832   1834     1  0.0000000  0.6508444  3
   1822   1826   1829   1830     1  0.0000000  0.6508444  3
   1822   1826   1829   1831     1  0.0000000  0.6508444  3
   1823   1822   1826   1827     1  0.0000000  1.2552000  3
   1823   1822   1826   1828     1  0.0000000  1.2552000  3
   1824   1823   1822   1826     1  0.0000000  1.2552000  3
   1824   1823   1832   1836     1  0.0000000  0.6508444  3
   1824   1823   1832   1833     1  0.0000000  0.6508444  3
   1824   1823   1832   1834     1  0.0000000  0.6508444  3
   1825   1823   1822   1826     1  0.0000000  1.2552000  3
   1825   1823   1832   1836     1  0.0000000  0.6508444  3
   1825   1823   1832   1833     1  0.0000000  0.6508444  3
   1825   1823   1832   1834     1  0.0000000  0.6508444  3
   1827   1826   1829   1835     1  0.0000000  0.6508444  3
   1827   1826   1829   1830     1  0.0000000  0.6508444  3
   1827   1826   1829   1831     1  0.0000000  0.6508444  3
   1828   1826   1829   1835     1  0.0000000  0.6508444  3
   1828   1826   1829   1830     1  0.0000000  0.6508444  3
   1828   1826   1829   1831     1  0.0000000  0.6508444  3
   1829   1835   3392   3393     1  180.0000771  10.4600000  2
   1830   1829   1835   3392     1  180.0000771  0.0000000  2
   1830   1829   1835   1837     1  0.0000000  3.3472000  1
   1830   1829   1835   1837     1  0.0000000  0.0000000  2
   1830   1829   1835   1837     1  180.0000771  0.3347200  3
   1831   1829   1835   3392     1  180.0000771  0.0000000  2
   1831   1829   1835   1837     1  0.0000000  3.3472000  1
   1831   1829   1835   1837     1  0.0000000  0.0000000  2
   1831   1829   1835   1837     1  180.0000771  0.3347200  3
   1832   1836   3403   3404     1  180.0000771  10.4600000  2
   1833   1832   1836   1838     1  0.0000000  3.3472000  1
   1833   1832   1836   1838     1  0.0000000  0.0000000  2
   1833   1832   1836   1838     1  180.0000771  0.3347200  3
   1833   1832   1836   3403     1  180.0000771  0.0000000  2
   1834   1832   1836   1838     1  0.0000000  3.3472000  1
   1834   1832   1836   1838     1  0.0000000  0.0000000  2
   1834   1832   1836   1838     1  180.0000771  0.3347200  3
   1834   1832   1836   3403     1  180.0000771  0.0000000  2
   1835   3392   3383   3384     1  0.0000000  0.0000000  2
   1835   3392   3383   3385     1  0.0000000  0.0000000  2
   1836   3403   3394   3395     1  0.0000000  0.0000000  2
   1836   3403   3394   3396     1  0.0000000  0.0000000  2
   1837   1835   3392   3393     1  0.0000000  8.3680000  1
   1837   1835   3392   3393     1  180.0000771  10.4600000  2
   1838   1836   3403   3404     1  0.0000000  8.3680000  1
   1838   1836   3403   3404     1  180.0000771  10.4600000  2
   1841   1844   1864   1865     1  0.0000000  0.0000000  2
   1841   1847   1848   1849     1  0.0000000  1.2552000  3
   1841   1847   1848   1850     1  0.0000000  1.2552000  3
   1841   1847   1851   1852     1  0.0000000  1.2552000  3
   1841   1847   1851   1853     1  0.0000000  1.2552000  3
   1842   1841   1844   1864     1  0.0000000  0.6508444  3
   1842   1841   1844   1845     1  0.0000000  0.6508444  3
   1842   1841   1844   1846     1  0.0000000  0.6508444  3
   1842   1841   1847   1848     1  0.0000000  1.2552000  3
   1842   1841   1847   1851     1  0.0000000  1.2552000  3
   1843   1841   1844   1864     1  0.0000000  0.6508444  3
   1843   1841   1844   1845     1  0.0000000  0.6508444  3
   1843   1841   1844   1846     1  0.0000000  0.6508444  3
   1843   1841   1847   1848     1  0.0000000  1.2552000  3
   1843   1841   1847   1851     1  0.0000000  1.2552000  3
   1845   1844   1841   1847     1  0.0000000  0.6508444  3
   1845   1844   1864   1865     1  0.0000000  0.0000000  2
   1846   1844   1841   1847     1  0.0000000  0.6508444  3
   1846   1844   1864   1865     1  0.0000000  0.0000000  2
   1847   1848   1857   1858     1  0.0000000  0.6508444  3
   1847   1848   1857   1859     1  0.0000000  0.6508444  3
   1847   1851   1854   1855     1  0.0000000  0.6508444  3
   1847   1851   1854   1856     1  0.0000000  0.6508444  3
   1848   1847   1851   1852     1  0.0000000  1.2552000  3
   1848   1847   1851   1853     1  0.0000000  1.2552000  3
   1849   1848   1847   1851     1  0.0000000  1.2552000  3
   1849   1848   1857   1861     1  0.0000000  0.6508444  3
   1849   1848   1857   1858     1  0.0000000  0.6508444  3
   1849   1848   1857   1859     1  0.0000000  0.6508444  3
   1850   1848   1847   1851     1  0.0000000  1.2552000  3
   1850   1848   1857   1861     1  0.0000000  0.6508444  3
   1850   1848   1857   1858     1  0.0000000  0.6508444  3
   1850   1848   1857   1859     1  0.0000000  0.6508444  3
   1852   1851   1854   1860     1  0.0000000  0.6508444  3
   1852   1851   1854   1855     1  0.0000000  0.6508444  3
   1852   1851   1854   1856     1  0.0000000  0.6508444  3
   1853   1851   1854   1860     1  0.0000000  0.6508444  3
   1853   1851   1854   1855     1  0.0000000  0.6508444  3
   1853   1851   1854   1856     1  0.0000000  0.6508444  3
   1854   1860   3414   3415     1  180.0000771  10.4600000  2
   1855   1854   1860   3414     1  180.0000771  0.0000000  2
   1855   1854   1860   1862     1  0.0000000  3.3472000  1
   1855   1854   1860   1862     1  0.0000000  0.0000000  2
   1855   1854   1860   1862     1  180.0000771  0.3347200  3
   1856   1854   1860   3414     1  180.0000771  0.0000000  2
   1856   1854   1860   1862     1  0.0000000  3.3472000  1
   1856   1854   1860   1862     1  0.0000000  0.0000000  2
   1856   1854   1860   1862     1  180.0000771  0.3347200  3
   1857   1861   3425   3426     1  180.0000771  10.4600000  2
   1858   1857   1861   1863     1  0.0000000  3.3472000  1
   1858   1857   1861   1863     1  0.0000000  0.0000000  2
   1858   1857   1861   1863     1  180.0000771  0.3347200  3
   1858   1857   1861   3425     1  180.0000771  0.0000000  2
   1859   1857   1861   1863     1  0.0000000  3.3472000  1
   1859   1857   1861   1863     1  0.0000000  0.0000000  2
   1859   1857   1861   1863     1  180.0000771  0.3347200  3
   1859   1857   1861   3425     1  180.0000771  0.0000000  2
   1860   3414   3405   3406     1  0.0000000  0.0000000  2
   1860   3414   3405   3407     1  0.0000000  0.0000000  2
   1861   3425   3416   3417     1  0.0000000  0.0000000  2
   1861   3425   3416   3418     1  0.0000000  0.0000000  2
   1862   1860   3414   3415     1  0.0000000  8.3680000  1
   1862   1860   3414   3415     1  180.0000771  10.4600000  2
   1863   1861   3425   3426     1  0.0000000  8.3680000  1
   1863   1861   3425   3426     1  180.0000771  10.4600000  2
   1866   1869   1889   1890     1  0.0000000  0.0000000  2
   1866   1872   1873   1874     1  0.0000000  1.2552000  3
   1866   1872   1873   1875     1  0.0000000  1.2552000  3
   1866   1872   1876   1877     1  0.0000000  1.2552000  3
   1866   1872   1876   1878     1  0.0000000  1.2552000  3
   1867   1866   1869   1889     1  0.0000000  0.6508444  3
   1867   1866   1869   1870     1  0.0000000  0.6508444  3
   1867   1866   1869   1871     1  0.0000000  0.6508444  3
   1867   1866   1872   1873     1  0.0000000  1.2552000  3
   1867   1866   1872   1876     1  0.0000000  1.2552000  3
   1868   1866   1869   1889     1  0.0000000  0.6508444  3
   1868   1866   1869   1870     1  0.0000000  0.6508444  3
   1868   1866   1869   1871     1  0.0000000  0.6508444  3
   1868   1866   1872   1873     1  0.0000000  1.2552000  3
   1868   1866   1872   1876     1  0.0000000  1.2552000  3
   1870   1869   1866   1872     1  0.0000000  0.6508444  3
   1870   1869   1889   1890     1  0.0000000  0.0000000  2
   1871   1869   1866   1872     1  0.0000000  0.6508444  3
   1871   1869   1889   1890     1  0.0000000  0.0000000  2
   1872   1873   1882   1883     1  0.0000000  0.6508444  3
   1872   1873   1882   1884     1  0.0000000  0.6508444  3
   1872   1876   1879   1880     1  0.0000000  0.6508444  3
   1872   1876   1879   1881     1  0.0000000  0.6508444  3
   1873   1872   1876   1877     1  0.0000000  1.2552000  3
   1873   1872   1876   1878     1  0.0000000  1.2552000  3
   1874   1873   1872   1876     1  0.0000000  1.2552000  3
   1874   1873   1882   1886     1  0.0000000  0.6508444  3
   1874   1873   1882   1883     1  0.0000000  0.6508444  3
   1874   1873   1882   1884     1  0.0000000  0.6508444  3
   1875   1873   1872   1876     1  0.0000000  1.2552000  3
   1875   1873   1882   1886     1  0.0000000  0.6508444  3
   1875   1873   1882   1883     1  0.0000000  0.6508444  3
   1875   1873   1882   1884     1  0.0000000  0.6508444  3
   1877   1876   1879   1885     1  0.0000000  0.6508444  3
   1877   1876   1879   1880     1  0.0000000  0.6508444  3
   1877   1876   1879   1881     1  0.0000000  0.6508444  3
   1878   1876   1879   1885     1  0.0000000  0.6508444  3
   1878   1876   1879   1880     1  0.0000000  0.6508444  3
   1878   1876   1879   1881     1  0.0000000  0.6508444  3
   1879   1885   3436   3437     1  180.0000771  10.4600000  2
   1880   1879   1885   3436     1  180.0000771  0.0000000  2
   1880   1879   1885   1887     1  0.0000000  3.3472000  1
   1880   1879   1885   1887     1  0.0000000  0.0000000  2
   1880   1879   1885   1887     1  180.0000771  0.3347200  3
   1881   1879   1885   3436     1  180.0000771  0.0000000  2
   1881   1879   1885   1887     1  0.0000000  3.3472000  1
   1881   1879   1885   1887     1  0.0000000  0.0000000  2
   1881   1879   1885   1887     1  180.0000771  0.3347200  3
   1882   1886   3447   3448     1  180.0000771  10.4600000  2
   1883   1882   1886   1888     1  0.0000000  3.3472000  1
   1883   1882   1886   1888     1  0.0000000  0.0000000  2
   1883   1882   1886   1888     1  180.0000771  0.3347200  3
   1883   1882   1886   3447     1  180.0000771  0.0000000  2
   1884   1882   1886   1888     1  0.0000000  3.3472000  1
   1884   1882   1886   1888     1  0.0000000  0.0000000  2
   1884   1882   1886   1888     1  180.0000771  0.3347200  3
   1884   1882   1886   3447     1  180.0000771  0.0000000  2
   1885   3436   3427   3428     1  0.0000000  0.0000000  2
   1885   3436   3427   3429     1  0.0000000  0.0000000  2
   1886   3447   3438   3439     1  0.0000000  0.0000000  2
   1886   3447   3438   3440     1  0.0000000  0.0000000  2
   1887   1885   3436   3437     1  0.0000000  8.3680000  1
   1887   1885   3436   3437     1  180.0000771  10.4600000  2
   1888   1886   3447   3448     1  0.0000000  8.3680000  1
   1888   1886   3447   3448     1  180.0000771  10.4600000  2
   1891   1894   1914   1915     1  0.0000000  0.0000000  2
   1891   1897   1898   1899     1  0.0000000  1.2552000  3
   1891   1897   1898   1900     1  0.0000000  1.2552000  3
   1891   1897   1901   1902     1  0.0000000  1.2552000  3
   1891   1897   1901   1903     1  0.0000000  1.2552000  3
   1892   1891   1894   1914     1  0.0000000  0.6508444  3
   1892   1891   1894   1895     1  0.0000000  0.6508444  3
   1892   1891   1894   1896     1  0.0000000  0.6508444  3
   1892   1891   1897   1898     1  0.0000000  1.2552000  3
   1892   1891   1897   1901     1  0.0000000  1.2552000  3
   1893   1891   1894   1914     1  0.0000000  0.6508444  3
   1893   1891   1894   1895     1  0.0000000  0.6508444  3
   1893   1891   1894   1896     1  0.0000000  0.6508444  3
   1893   1891   1897   1898     1  0.0000000  1.2552000  3
   1893   1891   1897   1901     1  0.0000000  1.2552000  3
   1895   1894   1891   1897     1  0.0000000  0.6508444  3
   1895   1894   1914   1915     1  0.0000000  0.0000000  2
   1896   1894   1891   1897     1  0.0000000  0.6508444  3
   1896   1894   1914   1915     1  0.0000000  0.0000000  2
   1897   1898   1907   1908     1  0.0000000  0.6508444  3
   1897   1898   1907   1909     1  0.0000000  0.6508444  3
   1897   1901   1904   1905     1  0.0000000  0.6508444  3
   1897   1901   1904   1906     1  0.0000000  0.6508444  3
   1898   1897   1901   1902     1  0.0000000  1.2552000  3
   1898   1897   1901   1903     1  0.0000000  1.2552000  3
   1899   1898   1897   1901     1  0.0000000  1.2552000  3
   1899   1898   1907   1911     1  0.0000000  0.6508444  3
   1899   1898   1907   1908     1  0.0000000  0.6508444  3
   1899   1898   1907   1909     1  0.0000000  0.6508444  3
   1900   1898   1897   1901     1  0.0000000  1.2552000  3
   1900   1898   1907   1911     1  0.0000000  0.6508444  3
   1900   1898   1907   1908     1  0.0000000  0.6508444  3
   1900   1898   1907   1909     1  0.0000000  0.6508444  3
   1902   1901   1904   1910     1  0.0000000  0.6508444  3
   1902   1901   1904   1905     1  0.0000000  0.6508444  3
   1902   1901   1904   1906     1  0.0000000  0.6508444  3
   1903   1901   1904   1910     1  0.0000000  0.6508444  3
   1903   1901   1904   1905     1  0.0000000  0.6508444  3
   1903   1901   1904   1906     1  0.0000000  0.6508444  3
   1904   1910   3458   3459     1  180.0000771  10.4600000  2
   1905   1904   1910   3458     1  180.0000771  0.0000000  2
   1905   1904   1910   1912     1  0.0000000  3.3472000  1
   1905   1904   1910   1912     1  0.0000000  0.0000000  2
   1905   1904   1910   1912     1  180.0000771  0.3347200  3
   1906   1904   1910   3458     1  180.0000771  0.0000000  2
   1906   1904   1910   1912     1  0.0000000  3.3472000  1
   1906   1904   1910   1912     1  0.0000000  0.0000000  2
   1906   1904   1910   1912     1  180.0000771  0.3347200  3
   1907   1911   3469   3470     1  180.0000771  10.4600000  2
   1908   1907   1911   1913     1  0.0000000  3.3472000  1
   1908   1907   1911   1913     1  0.0000000  0.0000000  2
   1908   1907   1911   1913     1  180.0000771  0.3347200  3
   1908   1907   1911   3469     1  180.0000771  0.0000000  2
   1909   1907   1911   1913     1  0.0000000  3.3472000  1
   1909   1907   1911   1913     1  0.0000000  0.0000000  2
   1909   1907   1911   1913     1  180.0000771  0.3347200  3
   1909   1907   1911   3469     1  180.0000771  0.0000000  2
   1910   3458   3449   3450     1  0.0000000  0.0000000  2
   1910   3458   3449   3451     1  0.0000000  0.0000000  2
   1911   3469   3460   3461     1  0.0000000  0.0000000  2
   1911   3469   3460   3462     1  0.0000000  0.0000000  2
   1912   1910   3458   3459     1  0.0000000  8.3680000  1
   1912   1910   3458   3459     1  180.0000771  10.4600000  2
   1913   1911   3469   3470     1  0.0000000  8.3680000  1
   1913   1911   3469   3470     1  180.0000771  10.4600000  2
   1916   1919   1939   1940     1  0.0000000  0.0000000  2
   1916   1922   1923   1924     1  0.0000000  1.2552000  3
   1916   1922   1923   1925     1  0.0000000  1.2552000  3
   1916   1922   1926   1927     1  0.0000000  1.2552000  3
   1916   1922   1926   1928     1  0.0000000  1.2552000  3
   1917   1916   1919   1939     1  0.0000000  0.6508444  3
   1917   1916   1919   1920     1  0.0000000  0.6508444  3
   1917   1916   1919   1921     1  0.0000000  0.6508444  3
   1917   1916   1922   1923     1  0.0000000  1.2552000  3
   1917   1916   1922   1926     1  0.0000000  1.2552000  3
   1918   1916   1919   1939     1  0.0000000  0.6508444  3
   1918   1916   1919   1920     1  0.0000000  0.6508444  3
   1918   1916   1919   1921     1  0.0000000  0.6508444  3
   1918   1916   1922   1923     1  0.0000000  1.2552000  3
   1918   1916   1922   1926     1  0.0000000  1.2552000  3
   1920   1919   1916   1922     1  0.0000000  0.6508444  3
   1920   1919   1939   1940     1  0.0000000  0.0000000  2
   1921   1919   1916   1922     1  0.0000000  0.6508444  3
   1921   1919   1939   1940     1  0.0000000  0.0000000  2
   1922   1923   1932   1933     1  0.0000000  0.6508444  3
   1922   1923   1932   1934     1  0.0000000  0.6508444  3
   1922   1926   1929   1930     1  0.0000000  0.6508444  3
   1922   1926   1929   1931     1  0.0000000  0.6508444  3
   1923   1922   1926   1927     1  0.0000000  1.2552000  3
   1923   1922   1926   1928     1  0.0000000  1.2552000  3
   1924   1923   1922   1926     1  0.0000000  1.2552000  3
   1924   1923   1932   1936     1  0.0000000  0.6508444  3
   1924   1923   1932   1933     1  0.0000000  0.6508444  3
   1924   1923   1932   1934     1  0.0000000  0.6508444  3
   1925   1923   1922   1926     1  0.0000000  1.2552000  3
   1925   1923   1932   1936     1  0.0000000  0.6508444  3
   1925   1923   1932   1933     1  0.0000000  0.6508444  3
   1925   1923   1932   1934     1  0.0000000  0.6508444  3
   1927   1926   1929   1935     1  0.0000000  0.6508444  3
   1927   1926   1929   1930     1  0.0000000  0.6508444  3
   1927   1926   1929   1931     1  0.0000000  0.6508444  3
   1928   1926   1929   1935     1  0.0000000  0.6508444  3
   1928   1926   1929   1930     1  0.0000000  0.6508444  3
   1928   1926   1929   1931     1  0.0000000  0.6508444  3
   1929   1935   3480   3481     1  180.0000771  10.4600000  2
   1930   1929   1935   3480     1  180.0000771  0.0000000  2
   1930   1929   1935   1937     1  0.0000000  3.3472000  1
   1930   1929   1935   1937     1  0.0000000  0.0000000  2
   1930   1929   1935   1937     1  180.0000771  0.3347200  3
   1931   1929   1935   3480     1  180.0000771  0.0000000  2
   1931   1929   1935   1937     1  0.0000000  3.3472000  1
   1931   1929   1935   1937     1  0.0000000  0.0000000  2
   1931   1929   1935   1937     1  180.0000771  0.3347200  3
   1932   1936   3491   3492     1  180.0000771  10.4600000  2
   1933   1932   1936   1938     1  0.0000000  3.3472000  1
   1933   1932   1936   1938     1  0.0000000  0.0000000  2
   1933   1932   1936   1938     1  180.0000771  0.3347200  3
   1933   1932   1936   3491     1  180.0000771  0.0000000  2
   1934   1932   1936   1938     1  0.0000000  3.3472000  1
   1934   1932   1936   1938     1  0.0000000  0.0000000  2
   1934   1932   1936   1938     1  180.0000771  0.3347200  3
   1934   1932   1936   3491     1  180.0000771  0.0000000  2
   1935   3480   3471   3472     1  0.0000000  0.0000000  2
   1935   3480   3471   3473     1  0.0000000  0.0000000  2
   1936   3491   3482   3483     1  0.0000000  0.0000000  2
   1936   3491   3482   3484     1  0.0000000  0.0000000  2
   1937   1935   3480   3481     1  0.0000000  8.3680000  1
   1937   1935   3480   3481     1  180.0000771  10.4600000  2
   1938   1936   3491   3492     1  0.0000000  8.3680000  1
   1938   1936   3491   3492     1  180.0000771  10.4600000  2
   1941   1944   1964   1965     1  0.0000000  0.0000000  2
   1941   1947   1948   1949     1  0.0000000  1.2552000  3
   1941   1947   1948   1950     1  0.0000000  1.2552000  3
   1941   1947   1951   1952     1  0.0000000  1.2552000  3
   1941   1947   1951   1953     1  0.0000000  1.2552000  3
   1942   1941   1944   1964     1  0.0000000  0.6508444  3
   1942   1941   1944   1945     1  0.0000000  0.6508444  3
   1942   1941   1944   1946     1  0.0000000  0.6508444  3
   1942   1941   1947   1948     1  0.0000000  1.2552000  3
   1942   1941   1947   1951     1  0.0000000  1.2552000  3
   1943   1941   1944   1964     1  0.0000000  0.6508444  3
   1943   1941   1944   1945     1  0.0000000  0.6508444  3
   1943   1941   1944   1946     1  0.0000000  0.6508444  3
   1943   1941   1947   1948     1  0.0000000  1.2552000  3
   1943   1941   1947   1951     1  0.0000000  1.2552000  3
   1945   1944   1941   1947     1  0.0000000  0.6508444  3
   1945   1944   1964   1965     1  0.0000000  0.0000000  2
   1946   1944   1941   1947     1  0.0000000  0.6508444  3
   1946   1944   1964   1965     1  0.0000000  0.0000000  2
   1947   1948   1957   1958     1  0.0000000  0.6508444  3
   1947   1948   1957   1959     1  0.0000000  0.6508444  3
   1947   1951   1954   1955     1  0.0000000  0.6508444  3
   1947   1951   1954   1956     1  0.0000000  0.6508444  3
   1948   1947   1951   1952     1  0.0000000  1.2552000  3
   1948   1947   1951   1953     1  0.0000000  1.2552000  3
   1949   1948   1947   1951     1  0.0000000  1.2552000  3
   1949   1948   1957   1961     1  0.0000000  0.6508444  3
   1949   1948   1957   1958     1  0.0000000  0.6508444  3
   1949   1948   1957   1959     1  0.0000000  0.6508444  3
   1950   1948   1947   1951     1  0.0000000  1.2552000  3
   1950   1948   1957   1961     1  0.0000000  0.6508444  3
   1950   1948   1957   1958     1  0.0000000  0.6508444  3
   1950   1948   1957   1959     1  0.0000000  0.6508444  3
   1952   1951   1954   1960     1  0.0000000  0.6508444  3
   1952   1951   1954   1955     1  0.0000000  0.6508444  3
   1952   1951   1954   1956     1  0.0000000  0.6508444  3
   1953   1951   1954   1960     1  0.0000000  0.6508444  3
   1953   1951   1954   1955     1  0.0000000  0.6508444  3
   1953   1951   1954   1956     1  0.0000000  0.6508444  3
   1954   1960   3502   3503     1  180.0000771  10.4600000  2
   1955   1954   1960   3502     1  180.0000771  0.0000000  2
   1955   1954   1960   1962     1  0.0000000  3.3472000  1
   1955   1954   1960   1962     1  0.0000000  0.0000000  2
   1955   1954   1960   1962     1  180.0000771  0.3347200  3
   1956   1954   1960   3502     1  180.0000771  0.0000000  2
   1956   1954   1960   1962     1  0.0000000  3.3472000  1
   1956   1954   1960   1962     1  0.0000000  0.0000000  2
   1956   1954   1960   1962     1  180.0000771  0.3347200  3
   1957   1961   3513   3514     1  180.0000771  10.4600000  2
   1958   1957   1961   1963     1  0.0000000  3.3472000  1
   1958   1957   1961   1963     1  0.0000000  0.0000000  2
   1958   1957   1961   1963     1  180.0000771  0.3347200  3
   1958   1957   1961   3513     1  180.0000771  0.0000000  2
   1959   1957   1961   1963     1  0.0000000  3.3472000  1
   1959   1957   1961   1963     1  0.0000000  0.0000000  2
   1959   1957   1961   1963     1  180.0000771  0.3347200  3
   1959   1957   1961   3513     1  180.0000771  0.0000000  2
   1960   3502   3493   3494     1  0.0000000  0.0000000  2
   1960   3502   3493   3495     1  0.0000000  0.0000000  2
   1961   3513   3504   3505     1  0.0000000  0.0000000  2
   1961   3513   3504   3506     1  0.0000000  0.0000000  2
   1962   1960   3502   3503     1  0.0000000  8.3680000  1
   1962   1960   3502   3503     1  180.0000771  10.4600000  2
   1963   1961   3513   3514     1  0.0000000  8.3680000  1
   1963   1961   3513   3514     1  180.0000771  10.4600000  2
   1966   1969   1989   1990     1  0.0000000  0.0000000  2
   1966   1972   1973   1974     1  0.0000000  1.2552000  3
   1966   1972   1973   1975     1  0.0000000  1.2552000  3
   1966   1972   1976   1977     1  0.0000000  1.2552000  3
   1966   1972   1976   1978     1  0.0000000  1.2552000  3
   1967   1966   1969   1989     1  0.0000000  0.6508444  3
   1967   1966   1969   1970     1  0.0000000  0.6508444  3
   1967   1966   1969   1971     1  0.0000000  0.6508444  3
   1967   1966   1972   1973     1  0.0000000  1.2552000  3
   1967   1966   1972   1976     1  0.0000000  1.2552000  3
   1968   1966   1969   1989     1  0.0000000  0.6508444  3
   1968   1966   1969   1970     1  0.0000000  0.6508444  3
   1968   1966   1969   1971     1  0.0000000  0.6508444  3
   1968   1966   1972   1973     1  0.0000000  1.2552000  3
   1968   1966   1972   1976     1  0.0000000  1.2552000  3
   1970   1969   1966   1972     1  0.0000000  0.6508444  3
   1970   1969   1989   1990     1  0.0000000  0.0000000  2
   1971   1969   1966   1972     1  0.0000000  0.6508444  3
   1971   1969   1989   1990     1  0.0000000  0.0000000  2
   1972   1973   1982   1983     1  0.0000000  0.6508444  3
   1972   1973   1982   1984     1  0.0000000  0.6508444  3
   1972   1976   1979   1980     1  0.0000000  0.6508444  3
   1972   1976   1979   1981     1  0.0000000  0.6508444  3
   1973   1972   1976   1977     1  0.0000000  1.2552000  3
   1973   1972   1976   1978     1  0.0000000  1.2552000  3
   1974   1973   1972   1976     1  0.0000000  1.2552000  3
   1974   1973   1982   1986     1  0.0000000  0.6508444  3
   1974   1973   1982   1983     1  0.0000000  0.6508444  3
   1974   1973   1982   1984     1  0.0000000  0.6508444  3
   1975   1973   1972   1976     1  0.0000000  1.2552000  3
   1975   1973   1982   1986     1  0.0000000  0.6508444  3
   1975   1973   1982   1983     1  0.0000000  0.6508444  3
   1975   1973   1982   1984     1  0.0000000  0.6508444  3
   1977   1976   1979   1985     1  0.0000000  0.6508444  3
   1977   1976   1979   1980     1  0.0000000  0.6508444  3
   1977   1976   1979   1981     1  0.0000000  0.6508444  3
   1978   1976   1979   1985     1  0.0000000  0.6508444  3
   1978   1976   1979   1980     1  0.0000000  0.6508444  3
   1978   1976   1979   1981     1  0.0000000  0.6508444  3
   1979   1985   3524   3525     1  180.0000771  10.4600000  2
   1980   1979   1985   3524     1  180.0000771  0.0000000  2
   1980   1979   1985   1987     1  0.0000000  3.3472000  1
   1980   1979   1985   1987     1  0.0000000  0.0000000  2
   1980   1979   1985   1987     1  180.0000771  0.3347200  3
   1981   1979   1985   3524     1  180.0000771  0.0000000  2
   1981   1979   1985   1987     1  0.0000000  3.3472000  1
   1981   1979   1985   1987     1  0.0000000  0.0000000  2
   1981   1979   1985   1987     1  180.0000771  0.3347200  3
   1982   1986   3535   3536     1  180.0000771  10.4600000  2
   1983   1982   1986   1988     1  0.0000000  3.3472000  1
   1983   1982   1986   1988     1  0.0000000  0.0000000  2
   1983   1982   1986   1988     1  180.0000771  0.3347200  3
   1983   1982   1986   3535     1  180.0000771  0.0000000  2
   1984   1982   1986   1988     1  0.0000000  3.3472000  1
   1984   1982   1986   1988     1  0.0000000  0.0000000  2
   1984   1982   1986   1988     1  180.0000771  0.3347200  3
   1984   1982   1986   3535     1  180.0000771  0.0000000  2
   1985   3524   3515   3516     1  0.0000000  0.0000000  2
   1985   3524   3515   3517     1  0.0000000  0.0000000  2
   1986   3535   3526   3527     1  0.0000000  0.0000000  2
   1986   3535   3526   3528     1  0.0000000  0.0000000  2
   1987   1985   3524   3525     1  0.0000000  8.3680000  1
   1987   1985   3524   3525     1  180.0000771  10.4600000  2
   1988   1986   3535   3536     1  0.0000000  8.3680000  1
   1988   1986   3535   3536     1  180.0000771  10.4600000  2
   1991   1994   2014   2015     1  0.0000000  0.0000000  2
   1991   1997   1998   1999     1  0.0000000  1.2552000  3
   1991   1997   1998   2000     1  0.0000000  1.2552000  3
   1991   1997   2001   2002     1  0.0000000  1.2552000  3
   1991   1997   2001   2003     1  0.0000000  1.2552000  3
   1992   1991   1994   2014     1  0.0000000  0.6508444  3
   1992   1991   1994   1995     1  0.0000000  0.6508444  3
   1992   1991   1994   1996     1  0.0000000  0.6508444  3
   1992   1991   1997   1998     1  0.0000000  1.2552000  3
   1992   1991   1997   2001     1  0.0000000  1.2552000  3
   1993   1991   1994   2014     1  0.0000000  0.6508444  3
   1993   1991   1994   1995     1  0.0000000  0.6508444  3
   1993   1991   1994   1996     1  0.0000000  0.6508444  3
   1993   1991   1997   1998     1  0.0000000  1.2552000  3
   1993   1991   1997   2001     1  0.0000000  1.2552000  3
   1995   1994   1991   1997     1  0.0000000  0.6508444  3
   1995   1994   2014   2015     1  0.0000000  0.0000000  2
   1996   1994   1991   1997     1  0.0000000  0.6508444  3
   1996   1994   2014   2015     1  0.0000000  0.0000000  2
   1997   1998   2007   2008     1  0.0000000  0.6508444  3
   1997   1998   2007   2009     1  0.0000000  0.6508444  3
   1997   2001   2004   2005     1  0.0000000  0.6508444  3
   1997   2001   2004   2006     1  0.0000000  0.6508444  3
   1998   1997   2001   2002     1  0.0000000  1.2552000  3
   1998   1997   2001   2003     1  0.0000000  1.2552000  3
   1999   1998   1997   2001     1  0.0000000  1.2552000  3
   1999   1998   2007   2011     1  0.0000000  0.6508444  3
   1999   1998   2007   2008     1  0.0000000  0.6508444  3
   1999   1998   2007   2009     1  0.0000000  0.6508444  3
   2000   1998   1997   2001     1  0.0000000  1.2552000  3
   2000   1998   2007   2011     1  0.0000000  0.6508444  3
   2000   1998   2007   2008     1  0.0000000  0.6508444  3
   2000   1998   2007   2009     1  0.0000000  0.6508444  3
   2002   2001   2004   2010     1  0.0000000  0.6508444  3
   2002   2001   2004   2005     1  0.0000000  0.6508444  3
   2002   2001   2004   2006     1  0.0000000  0.6508444  3
   2003   2001   2004   2010     1  0.0000000  0.6508444  3
   2003   2001   2004   2005     1  0.0000000  0.6508444  3
   2003   2001   2004   2006     1  0.0000000  0.6508444  3
   2004   2010   3546   3547     1  180.0000771  10.4600000  2
   2005   2004   2010   3546     1  180.0000771  0.0000000  2
   2005   2004   2010   2012     1  0.0000000  3.3472000  1
   2005   2004   2010   2012     1  0.0000000  0.0000000  2
   2005   2004   2010   2012     1  180.0000771  0.3347200  3
   2006   2004   2010   3546     1  180.0000771  0.0000000  2
   2006   2004   2010   2012     1  0.0000000  3.3472000  1
   2006   2004   2010   2012     1  0.0000000  0.0000000  2
   2006   2004   2010   2012     1  180.0000771  0.3347200  3
   2007   2011   3557   3558     1  180.0000771  10.4600000  2
   2008   2007   2011   2013     1  0.0000000  3.3472000  1
   2008   2007   2011   2013     1  0.0000000  0.0000000  2
   2008   2007   2011   2013     1  180.0000771  0.3347200  3
   2008   2007   2011   3557     1  180.0000771  0.0000000  2
   2009   2007   2011   2013     1  0.0000000  3.3472000  1
   2009   2007   2011   2013     1  0.0000000  0.0000000  2
   2009   2007   2011   2013     1  180.0000771  0.3347200  3
   2009   2007   2011   3557     1  180.0000771  0.0000000  2
   2010   3546   3537   3538     1  0.0000000  0.0000000  2
   2010   3546   3537   3539     1  0.0000000  0.0000000  2
   2011   3557   3548   3549     1  0.0000000  0.0000000  2
   2011   3557   3548   3550     1  0.0000000  0.0000000  2
   2012   2010   3546   3547     1  0.0000000  8.3680000  1
   2012   2010   3546   3547     1  180.0000771  10.4600000  2
   2013   2011   3557   3558     1  0.0000000  8.3680000  1
   2013   2011   3557   3558     1  180.0000771  10.4600000  2
   2016   2019   2039   2040     1  0.0000000  0.0000000  2
   2016   2022   2023   2024     1  0.0000000  1.2552000  3
   2016   2022   2023   2025     1  0.0000000  1.2552000  3
   2016   2022   2026   2027     1  0.0000000  1.2552000  3
   2016   2022   2026   2028     1  0.0000000  1.2552000  3
   2017   2016   2019   2039     1  0.0000000  0.6508444  3
   2017   2016   2019   2020     1  0.0000000  0.6508444  3
   2017   2016   2019   2021     1  0.0000000  0.6508444  3
   2017   2016   2022   2023     1  0.0000000  1.2552000  3
   2017   2016   2022   2026     1  0.0000000  1.2552000  3
   2018   2016   2019   2039     1  0.0000000  0.6508444  3
   2018   2016   2019   2020     1  0.0000000  0.6508444  3
   2018   2016   2019   2021     1  0.0000000  0.6508444  3
   2018   2016   2022   2023     1  0.0000000  1.2552000  3
   2018   2016   2022   2026     1  0.0000000  1.2552000  3
   2020   2019   2016   2022     1  0.0000000  0.6508444  3
   2020   2019   2039   2040     1  0.0000000  0.0000000  2
   2021   2019   2016   2022     1  0.0000000  0.6508444  3
   2021   2019   2039   2040     1  0.0000000  0.0000000  2
   2022   2023   2032   2033     1  0.0000000  0.6508444  3
   2022   2023   2032   2034     1  0.0000000  0.6508444  3
   2022   2026   2029   2030     1  0.0000000  0.6508444  3
   2022   2026   2029   2031     1  0.0000000  0.6508444  3
   2023   2022   2026   2027     1  0.0000000  1.2552000  3
   2023   2022   2026   2028     1  0.0000000  1.2552000  3
   2024   2023   2022   2026     1  0.0000000  1.2552000  3
   2024   2023   2032   2036     1  0.0000000  0.6508444  3
   2024   2023   2032   2033     1  0.0000000  0.6508444  3
   2024   2023   2032   2034     1  0.0000000  0.6508444  3
   2025   2023   2022   2026     1  0.0000000  1.2552000  3
   2025   2023   2032   2036     1  0.0000000  0.6508444  3
   2025   2023   2032   2033     1  0.0000000  0.6508444  3
   2025   2023   2032   2034     1  0.0000000  0.6508444  3
   2027   2026   2029   2035     1  0.0000000  0.6508444  3
   2027   2026   2029   2030     1  0.0000000  0.6508444  3
   2027   2026   2029   2031     1  0.0000000  0.6508444  3
   2028   2026   2029   2035     1  0.0000000  0.6508444  3
   2028   2026   2029   2030     1  0.0000000  0.6508444  3
   2028   2026   2029   2031     1  0.0000000  0.6508444  3
   2029   2035   3568   3569     1  180.0000771  10.4600000  2
   2030   2029   2035   3568     1  180.0000771  0.0000000  2
   2030   2029   2035   2037     1  0.0000000  3.3472000  1
   2030   2029   2035   2037     1  0.0000000  0.0000000  2
   2030   2029   2035   2037     1  180.0000771  0.3347200  3
   2031   2029   2035   3568     1  180.0000771  0.0000000  2
   2031   2029   2035   2037     1  0.0000000  3.3472000  1
   2031   2029   2035   2037     1  0.0000000  0.0000000  2
   2031   2029   2035   2037     1  180.0000771  0.3347200  3
   2032   2036   3579   3580     1  180.0000771  10.4600000  2
   2033   2032   2036   2038     1  0.0000000  3.3472000  1
   2033   2032   2036   2038     1  0.0000000  0.0000000  2
   2033   2032   2036   2038     1  180.0000771  0.3347200  3
   2033   2032   2036   3579     1  180.0000771  0.0000000  2
   2034   2032   2036   2038     1  0.0000000  3.3472000  1
   2034   2032   2036   2038     1  0.0000000  0.0000000  2
   2034   2032   2036   2038     1  180.0000771  0.3347200  3
   2034   2032   2036   3579     1  180.0000771  0.0000000  2
   2035   3568   3559   3560     1  0.0000000  0.0000000  2
   2035   3568   3559   3561     1  0.0000000  0.0000000  2
   2036   3579   3570   3571     1  0.0000000  0.0000000  2
   2036   3579   3570   3572     1  0.0000000  0.0000000  2
   2037   2035   3568   3569     1  0.0000000  8.3680000  1
   2037   2035   3568   3569     1  180.0000771  10.4600000  2
   2038   2036   3579   3580     1  0.0000000  8.3680000  1
   2038   2036   3579   3580     1  180.0000771  10.4600000  2
   2041   2044   2064   2065     1  0.0000000  0.0000000  2
   2041   2047   2048   2049     1  0.0000000  1.2552000  3
   2041   2047   2048   2050     1  0.0000000  1.2552000  3
   2041   2047   2051   2052     1  0.0000000  1.2552000  3
   2041   2047   2051   2053     1  0.0000000  1.2552000  3
   2042   2041   2044   2064     1  0.0000000  0.6508444  3
   2042   2041   2044   2045     1  0.0000000  0.6508444  3
   2042   2041   2044   2046     1  0.0000000  0.6508444  3
   2042   2041   2047   2048     1  0.0000000  1.2552000  3
   2042   2041   2047   2051     1  0.0000000  1.2552000  3
   2043   2041   2044   2064     1  0.0000000  0.6508444  3
   2043   2041   2044   2045     1  0.0000000  0.6508444  3
   2043   2041   2044   2046     1  0.0000000  0.6508444  3
   2043   2041   2047   2048     1  0.0000000  1.2552000  3
   2043   2041   2047   2051     1  0.0000000  1.2552000  3
   2045   2044   2041   2047     1  0.0000000  0.6508444  3
   2045   2044   2064   2065     1  0.0000000  0.0000000  2
   2046   2044   2041   2047     1  0.0000000  0.6508444  3
   2046   2044   2064   2065     1  0.0000000  0.0000000  2
   2047   2048   2057   2058     1  0.0000000  0.6508444  3
   2047   2048   2057   2059     1  0.0000000  0.6508444  3
   2047   2051   2054   2055     1  0.0000000  0.6508444  3
   2047   2051   2054   2056     1  0.0000000  0.6508444  3
   2048   2047   2051   2052     1  0.0000000  1.2552000  3
   2048   2047   2051   2053     1  0.0000000  1.2552000  3
   2049   2048   2047   2051     1  0.0000000  1.2552000  3
   2049   2048   2057   2061     1  0.0000000  0.6508444  3
   2049   2048   2057   2058     1  0.0000000  0.6508444  3
   2049   2048   2057   2059     1  0.0000000  0.6508444  3
   2050   2048   2047   2051     1  0.0000000  1.2552000  3
   2050   2048   2057   2061     1  0.0000000  0.6508444  3
   2050   2048   2057   2058     1  0.0000000  0.6508444  3
   2050   2048   2057   2059     1  0.0000000  0.6508444  3
   2052   2051   2054   2060     1  0.0000000  0.6508444  3
   2052   2051   2054   2055     1  0.0000000  0.6508444  3
   2052   2051   2054   2056     1  0.0000000  0.6508444  3
   2053   2051   2054   2060     1  0.0000000  0.6508444  3
   2053   2051   2054   2055     1  0.0000000  0.6508444  3
   2053   2051   2054   2056     1  0.0000000  0.6508444  3
   2054   2060   3590   3591     1  180.0000771  10.4600000  2
   2055   2054   2060   3590     1  180.0000771  0.0000000  2
   2055   2054   2060   2062     1  0.0000000  3.3472000  1
   2055   2054   2060   2062     1  0.0000000  0.0000000  2
   2055   2054   2060   2062     1  180.0000771  0.3347200  3
   2056   2054   2060   3590     1  180.0000771  0.0000000  2
   2056   2054   2060   2062     1  0.0000000  3.3472000  1
   2056   2054   2060   2062     1  0.0000000  0.0000000  2
   2056   2054   2060   2062     1  180.0000771  0.3347200  3
   2057   2061   3601   3602     1  180.0000771  10.4600000  2
   2058   2057   2061   2063     1  0.0000000  3.3472000  1
   2058   2057   2061   2063     1  0.0000000  0.0000000  2
   2058   2057   2061   2063     1  180.0000771  0.3347200  3
   2058   2057   2061   3601     1  180.0000771  0.0000000  2
   2059   2057   2061   2063     1  0.0000000  3.3472000  1
   2059   2057   2061   2063     1  0.0000000  0.0000000  2
   2059   2057   2061   2063     1  180.0000771  0.3347200  3
   2059   2057   2061   3601     1  180.0000771  0.0000000  2
   2060   3590   3581   3582     1  0.0000000  0.0000000  2
   2060   3590   3581   3583     1  0.0000000  0.0000000  2
   2061   3601   3592   3593     1  0.0000000  0.0000000  2
   2061   3601   3592   3594     1  0.0000000  0.0000000  2
   2062   2060   3590   3591     1  0.0000000  8.3680000  1
   2062   2060   3590   3591     1  180.0000771  10.4600000  2
   2063   2061   3601   3602     1  0.0000000  8.3680000  1
   2063   2061   3601   3602     1  180.0000771  10.4600000  2
   2066   2069   2089   2090     1  0.0000000  0.0000000  2
   2066   2072   2073   2074     1  0.0000000  1.2552000  3
   2066   2072   2073   2075     1  0.0000000  1.2552000  3
   2066   2072   2076   2077     1  0.0000000  1.2552000  3
   2066   2072   2076   2078     1  0.0000000  1.2552000  3
   2067   2066   2069   2089     1  0.0000000  0.6508444  3
   2067   2066   2069   2070     1  0.0000000  0.6508444  3
   2067   2066   2069   2071     1  0.0000000  0.6508444  3
   2067   2066   2072   2073     1  0.0000000  1.2552000  3
   2067   2066   2072   2076     1  0.0000000  1.2552000  3
   2068   2066   2069   2089     1  0.0000000  0.6508444  3
   2068   2066   2069   2070     1  0.0000000  0.6508444  3
   2068   2066   2069   2071     1  0.0000000  0.6508444  3
   2068   2066   2072   2073     1  0.0000000  1.2552000  3
   2068   2066   2072   2076     1  0.0000000  1.2552000  3
   2070   2069   2066   2072     1  0.0000000  0.6508444  3
   2070   2069   2089   2090     1  0.0000000  0.0000000  2
   2071   2069   2066   2072     1  0.0000000  0.6508444  3
   2071   2069   2089   2090     1  0.0000000  0.0000000  2
   2072   2073   2082   2083     1  0.0000000  0.6508444  3
   2072   2073   2082   2084     1  0.0000000  0.6508444  3
   2072   2076   2079   2080     1  0.0000000  0.6508444  3
   2072   2076   2079   2081     1  0.0000000  0.6508444  3
   2073   2072   2076   2077     1  0.0000000  1.2552000  3
   2073   2072   2076   2078     1  0.0000000  1.2552000  3
   2074   2073   2072   2076     1  0.0000000  1.2552000  3
   2074   2073   2082   2086     1  0.0000000  0.6508444  3
   2074   2073   2082   2083     1  0.0000000  0.6508444  3
   2074   2073   2082   2084     1  0.0000000  0.6508444  3
   2075   2073   2072   2076     1  0.0000000  1.2552000  3
   2075   2073   2082   2086     1  0.0000000  0.6508444  3
   2075   2073   2082   2083     1  0.0000000  0.6508444  3
   2075   2073   2082   2084     1  0.0000000  0.6508444  3
   2077   2076   2079   2085     1  0.0000000  0.6508444  3
   2077   2076   2079   2080     1  0.0000000  0.6508444  3
   2077   2076   2079   2081     1  0.0000000  0.6508444  3
   2078   2076   2079   2085     1  0.0000000  0.6508444  3
   2078   2076   2079   2080     1  0.0000000  0.6508444  3
   2078   2076   2079   2081     1  0.0000000  0.6508444  3
   2079   2085   3612   3613     1  180.0000771  10.4600000  2
   2080   2079   2085   3612     1  180.0000771  0.0000000  2
   2080   2079   2085   2087     1  0.0000000  3.3472000  1
   2080   2079   2085   2087     1  0.0000000  0.0000000  2
   2080   2079   2085   2087     1  180.0000771  0.3347200  3
   2081   2079   2085   3612     1  180.0000771  0.0000000  2
   2081   2079   2085   2087     1  0.0000000  3.3472000  1
   2081   2079   2085   2087     1  0.0000000  0.0000000  2
   2081   2079   2085   2087     1  180.0000771  0.3347200  3
   2082   2086   3623   3624     1  180.0000771  10.4600000  2
   2083   2082   2086   2088     1  0.0000000  3.3472000  1
   2083   2082   2086   2088     1  0.0000000  0.0000000  2
   2083   2082   2086   2088     1  180.0000771  0.3347200  3
   2083   2082   2086   3623     1  180.0000771  0.0000000  2
   2084   2082   2086   2088     1  0.0000000  3.3472000  1
   2084   2082   2086   2088     1  0.0000000  0.0000000  2
   2084   2082   2086   2088     1  180.0000771  0.3347200  3
   2084   2082   2086   3623     1  180.0000771  0.0000000  2
   2085   3612   3603   3604     1  0.0000000  0.0000000  2
   2085   3612   3603   3605     1  0.0000000  0.0000000  2
   2086   3623   3614   3615     1  0.0000000  0.0000000  2
   2086   3623   3614   3616     1  0.0000000  0.0000000  2
   2087   2085   3612   3613     1  0.0000000  8.3680000  1
   2087   2085   3612   3613     1  180.0000771  10.4600000  2
   2088   2086   3623   3624     1  0.0000000  8.3680000  1
   2088   2086   3623   3624     1  180.0000771  10.4600000  2
   2091   2094   2114   2115     1  0.0000000  0.0000000  2
   2091   2097   2098   2099     1  0.0000000  1.2552000  3
   2091   2097   2098   2100     1  0.0000000  1.2552000  3
   2091   2097   2101   2102     1  0.0000000  1.2552000  3
   2091   2097   2101   2103     1  0.0000000  1.2552000  3
   2092   2091   2094   2114     1  0.0000000  0.6508444  3
   2092   2091   2094   2095     1  0.0000000  0.6508444  3
   2092   2091   2094   2096     1  0.0000000  0.6508444  3
   2092   2091   2097   2098     1  0.0000000  1.2552000  3
   2092   2091   2097   2101     1  0.0000000  1.2552000  3
   2093   2091   2094   2114     1  0.0000000  0.6508444  3
   2093   2091   2094   2095     1  0.0000000  0.6508444  3
   2093   2091   2094   2096     1  0.0000000  0.6508444  3
   2093   2091   2097   2098     1  0.0000000  1.2552000  3
   2093   2091   2097   2101     1  0.0000000  1.2552000  3
   2095   2094   2091   2097     1  0.0000000  0.6508444  3
   2095   2094   2114   2115     1  0.0000000  0.0000000  2
   2096   2094   2091   2097     1  0.0000000  0.6508444  3
   2096   2094   2114   2115     1  0.0000000  0.0000000  2
   2097   2098   2107   2108     1  0.0000000  0.6508444  3
   2097   2098   2107   2109     1  0.0000000  0.6508444  3
   2097   2101   2104   2105     1  0.0000000  0.6508444  3
   2097   2101   2104   2106     1  0.0000000  0.6508444  3
   2098   2097   2101   2102     1  0.0000000  1.2552000  3
   2098   2097   2101   2103     1  0.0000000  1.2552000  3
   2099   2098   2097   2101     1  0.0000000  1.2552000  3
   2099   2098   2107   2111     1  0.0000000  0.6508444  3
   2099   2098   2107   2108     1  0.0000000  0.6508444  3
   2099   2098   2107   2109     1  0.0000000  0.6508444  3
   2100   2098   2097   2101     1  0.0000000  1.2552000  3
   2100   2098   2107   2111     1  0.0000000  0.6508444  3
   2100   2098   2107   2108     1  0.0000000  0.6508444  3
   2100   2098   2107   2109     1  0.0000000  0.6508444  3
   2102   2101   2104   2110     1  0.0000000  0.6508444  3
   2102   2101   2104   2105     1  0.0000000  0.6508444  3
   2102   2101   2104   2106     1  0.0000000  0.6508444  3
   2103   2101   2104   2110     1  0.0000000  0.6508444  3
   2103   2101   2104   2105     1  0.0000000  0.6508444  3
   2103   2101   2104   2106     1  0.0000000  0.6508444  3
   2104   2110   3634   3635     1  180.0000771  10.4600000  2
   2105   2104   2110   3634     1  180.0000771  0.0000000  2
   2105   2104   2110   2112     1  0.0000000  3.3472000  1
   2105   2104   2110   2112     1  0.0000000  0.0000000  2
   2105   2104   2110   2112     1  180.0000771  0.3347200  3
   2106   2104   2110   3634     1  180.0000771  0.0000000  2
   2106   2104   2110   2112     1  0.0000000  3.3472000  1
   2106   2104   2110   2112     1  0.0000000  0.0000000  2
   2106   2104   2110   2112     1  180.0000771  0.3347200  3
   2107   2111   3645   3646     1  180.0000771  10.4600000  2
   2108   2107   2111   2113     1  0.0000000  3.3472000  1
   2108   2107   2111   2113     1  0.0000000  0.0000000  2
   2108   2107   2111   2113     1  180.0000771  0.3347200  3
   2108   2107   2111   3645     1  180.0000771  0.0000000  2
   2109   2107   2111   2113     1  0.0000000  3.3472000  1
   2109   2107   2111   2113     1  0.0000000  0.0000000  2
   2109   2107   2111   2113     1  180.0000771  0.3347200  3
   2109   2107   2111   3645     1  180.0000771  0.0000000  2
   2110   3634   3625   3626     1  0.0000000  0.0000000  2
   2110   3634   3625   3627     1  0.0000000  0.0000000  2
   2111   3645   3636   3637     1  0.0000000  0.0000000  2
   2111   3645   3636   3638     1  0.0000000  0.0000000  2
   2112   2110   3634   3635     1  0.0000000  8.3680000  1
   2112   2110   3634   3635     1  180.0000771  10.4600000  2
   2113   2111   3645   3646     1  0.0000000  8.3680000  1
   2113   2111   3645   3646     1  180.0000771  10.4600000  2
   2116   2119   2139   2140     1  0.0000000  0.0000000  2
   2116   2122   2123   2124     1  0.0000000  1.2552000  3
   2116   2122   2123   2125     1  0.0000000  1.2552000  3
   2116   2122   2126   2127     1  0.0000000  1.2552000  3
   2116   2122   2126   2128     1  0.0000000  1.2552000  3
   2117   2116   2119   2139     1  0.0000000  0.6508444  3
   2117   2116   2119   2120     1  0.0000000  0.6508444  3
   2117   2116   2119   2121     1  0.0000000  0.6508444  3
   2117   2116   2122   2123     1  0.0000000  1.2552000  3
   2117   2116   2122   2126     1  0.0000000  1.2552000  3
   2118   2116   2119   2139     1  0.0000000  0.6508444  3
   2118   2116   2119   2120     1  0.0000000  0.6508444  3
   2118   2116   2119   2121     1  0.0000000  0.6508444  3
   2118   2116   2122   2123     1  0.0000000  1.2552000  3
   2118   2116   2122   2126     1  0.0000000  1.2552000  3
   2120   2119   2116   2122     1  0.0000000  0.6508444  3
   2120   2119   2139   2140     1  0.0000000  0.0000000  2
   2121   2119   2116   2122     1  0.0000000  0.6508444  3
   2121   2119   2139   2140     1  0.0000000  0.0000000  2
   2122   2123   2132   2133     1  0.0000000  0.6508444  3
   2122   2123   2132   2134     1  0.0000000  0.6508444  3
   2122   2126   2129   2130     1  0.0000000  0.6508444  3
   2122   2126   2129   2131     1  0.0000000  0.6508444  3
   2123   2122   2126   2127     1  0.0000000  1.2552000  3
   2123   2122   2126   2128     1  0.0000000  1.2552000  3
   2124   2123   2122   2126     1  0.0000000  1.2552000  3
   2124   2123   2132   2136     1  0.0000000  0.6508444  3
   2124   2123   2132   2133     1  0.0000000  0.6508444  3
   2124   2123   2132   2134     1  0.0000000  0.6508444  3
   2125   2123   2122   2126     1  0.0000000  1.2552000  3
   2125   2123   2132   2136     1  0.0000000  0.6508444  3
   2125   2123   2132   2133     1  0.0000000  0.6508444  3
   2125   2123   2132   2134     1  0.0000000  0.6508444  3
   2127   2126   2129   2135     1  0.0000000  0.6508444  3
   2127   2126   2129   2130     1  0.0000000  0.6508444  3
   2127   2126   2129   2131     1  0.0000000  0.6508444  3
   2128   2126   2129   2135     1  0.0000000  0.6508444  3
   2128   2126   2129   2130     1  0.0000000  0.6508444  3
   2128   2126   2129   2131     1  0.0000000  0.6508444  3
   2129   2135   3656   3657     1  180.0000771  10.4600000  2
   2130   2129   2135   3656     1  180.0000771  0.0000000  2
   2130   2129   2135   2137     1  0.0000000  3.3472000  1
   2130   2129   2135   2137     1  0.0000000  0.0000000  2
   2130   2129   2135   2137     1  180.0000771  0.3347200  3
   2131   2129   2135   3656     1  180.0000771  0.0000000  2
   2131   2129   2135   2137     1  0.0000000  3.3472000  1
   2131   2129   2135   2137     1  0.0000000  0.0000000  2
   2131   2129   2135   2137     1  180.0000771  0.3347200  3
   2132   2136   3667   3668     1  180.0000771  10.4600000  2
   2133   2132   2136   2138     1  0.0000000  3.3472000  1
   2133   2132   2136   2138     1  0.0000000  0.0000000  2
   2133   2132   2136   2138     1  180.0000771  0.3347200  3
   2133   2132   2136   3667     1  180.0000771  0.0000000  2
   2134   2132   2136   2138     1  0.0000000  3.3472000  1
   2134   2132   2136   2138     1  0.0000000  0.0000000  2
   2134   2132   2136   2138     1  180.0000771  0.3347200  3
   2134   2132   2136   3667     1  180.0000771  0.0000000  2
   2135   3656   3647   3648     1  0.0000000  0.0000000  2
   2135   3656   3647   3649     1  0.0000000  0.0000000  2
   2136   3667   3658   3659     1  0.0000000  0.0000000  2
   2136   3667   3658   3660     1  0.0000000  0.0000000  2
   2137   2135   3656   3657     1  0.0000000  8.3680000  1
   2137   2135   3656   3657     1  180.0000771  10.4600000  2
   2138   2136   3667   3668     1  0.0000000  8.3680000  1
   2138   2136   3667   3668     1  180.0000771  10.4600000  2
   2141   2144   2164   2165     1  0.0000000  0.0000000  2
   2141   2147   2148   2149     1  0.0000000  1.2552000  3
   2141   2147   2148   2150     1  0.0000000  1.2552000  3
   2141   2147   2151   2152     1  0.0000000  1.2552000  3
   2141   2147   2151   2153     1  0.0000000  1.2552000  3
   2142   2141   2144   2164     1  0.0000000  0.6508444  3
   2142   2141   2144   2145     1  0.0000000  0.6508444  3
   2142   2141   2144   2146     1  0.0000000  0.6508444  3
   2142   2141   2147   2148     1  0.0000000  1.2552000  3
   2142   2141   2147   2151     1  0.0000000  1.2552000  3
   2143   2141   2144   2164     1  0.0000000  0.6508444  3
   2143   2141   2144   2145     1  0.0000000  0.6508444  3
   2143   2141   2144   2146     1  0.0000000  0.6508444  3
   2143   2141   2147   2148     1  0.0000000  1.2552000  3
   2143   2141   2147   2151     1  0.0000000  1.2552000  3
   2145   2144   2141   2147     1  0.0000000  0.6508444  3
   2145   2144   2164   2165     1  0.0000000  0.0000000  2
   2146   2144   2141   2147     1  0.0000000  0.6508444  3
   2146   2144   2164   2165     1  0.0000000  0.0000000  2
   2147   2148   2157   2158     1  0.0000000  0.6508444  3
   2147   2148   2157   2159     1  0.0000000  0.6508444  3
   2147   2151   2154   2155     1  0.0000000  0.6508444  3
   2147   2151   2154   2156     1  0.0000000  0.6508444  3
   2148   2147   2151   2152     1  0.0000000  1.2552000  3
   2148   2147   2151   2153     1  0.0000000  1.2552000  3
   2149   2148   2147   2151     1  0.0000000  1.2552000  3
   2149   2148   2157   2161     1  0.0000000  0.6508444  3
   2149   2148   2157   2158     1  0.0000000  0.6508444  3
   2149   2148   2157   2159     1  0.0000000  0.6508444  3
   2150   2148   2147   2151     1  0.0000000  1.2552000  3
   2150   2148   2157   2161     1  0.0000000  0.6508444  3
   2150   2148   2157   2158     1  0.0000000  0.6508444  3
   2150   2148   2157   2159     1  0.0000000  0.6508444  3
   2152   2151   2154   2160     1  0.0000000  0.6508444  3
   2152   2151   2154   2155     1  0.0000000  0.6508444  3
   2152   2151   2154   2156     1  0.0000000  0.6508444  3
   2153   2151   2154   2160     1  0.0000000  0.6508444  3
   2153   2151   2154   2155     1  0.0000000  0.6508444  3
   2153   2151   2154   2156     1  0.0000000  0.6508444  3
   2154   2160   3678   3679     1  180.0000771  10.4600000  2
   2155   2154   2160   3678     1  180.0000771  0.0000000  2
   2155   2154   2160   2162     1  0.0000000  3.3472000  1
   2155   2154   2160   2162     1  0.0000000  0.0000000  2
   2155   2154   2160   2162     1  180.0000771  0.3347200  3
   2156   2154   2160   3678     1  180.0000771  0.0000000  2
   2156   2154   2160   2162     1  0.0000000  3.3472000  1
   2156   2154   2160   2162     1  0.0000000  0.0000000  2
   2156   2154   2160   2162     1  180.0000771  0.3347200  3
   2157   2161   3689   3690     1  180.0000771  10.4600000  2
   2158   2157   2161   2163     1  0.0000000  3.3472000  1
   2158   2157   2161   2163     1  0.0000000  0.0000000  2
   2158   2157   2161   2163     1  180.0000771  0.3347200  3
   2158   2157   2161   3689     1  180.0000771  0.0000000  2
   2159   2157   2161   2163     1  0.0000000  3.3472000  1
   2159   2157   2161   2163     1  0.0000000  0.0000000  2
   2159   2157   2161   2163     1  180.0000771  0.3347200  3
   2159   2157   2161   3689     1  180.0000771  0.0000000  2
   2160   3678   3669   3670     1  0.0000000  0.0000000  2
   2160   3678   3669   3671     1  0.0000000  0.0000000  2
   2161   3689   3680   3681     1  0.0000000  0.0000000  2
   2161   3689   3680   3682     1  0.0000000  0.0000000  2
   2162   2160   3678   3679     1  0.0000000  8.3680000  1
   2162   2160   3678   3679     1  180.0000771  10.4600000  2
   2163   2161   3689   3690     1  0.0000000  8.3680000  1
   2163   2161   3689   3690     1  180.0000771  10.4600000  2
   2166   2169   2189   2190     1  0.0000000  0.0000000  2
   2166   2172   2173   2174     1  0.0000000  1.2552000  3
   2166   2172   2173   2175     1  0.0000000  1.2552000  3
   2166   2172   2176   2177     1  0.0000000  1.2552000  3
   2166   2172   2176   2178     1  0.0000000  1.2552000  3
   2167   2166   2169   2189     1  0.0000000  0.6508444  3
   2167   2166   2169   2170     1  0.0000000  0.6508444  3
   2167   2166   2169   2171     1  0.0000000  0.6508444  3
   2167   2166   2172   2173     1  0.0000000  1.2552000  3
   2167   2166   2172   2176     1  0.0000000  1.2552000  3
   2168   2166   2169   2189     1  0.0000000  0.6508444  3
   2168   2166   2169   2170     1  0.0000000  0.6508444  3
   2168   2166   2169   2171     1  0.0000000  0.6508444  3
   2168   2166   2172   2173     1  0.0000000  1.2552000  3
   2168   2166   2172   2176     1  0.0000000  1.2552000  3
   2170   2169   2166   2172     1  0.0000000  0.6508444  3
   2170   2169   2189   2190     1  0.0000000  0.0000000  2
   2171   2169   2166   2172     1  0.0000000  0.6508444  3
   2171   2169   2189   2190     1  0.0000000  0.0000000  2
   2172   2173   2182   2183     1  0.0000000  0.6508444  3
   2172   2173   2182   2184     1  0.0000000  0.6508444  3
   2172   2176   2179   2180     1  0.0000000  0.6508444  3
   2172   2176   2179   2181     1  0.0000000  0.6508444  3
   2173   2172   2176   2177     1  0.0000000  1.2552000  3
   2173   2172   2176   2178     1  0.0000000  1.2552000  3
   2174   2173   2172   2176     1  0.0000000  1.2552000  3
   2174   2173   2182   2186     1  0.0000000  0.6508444  3
   2174   2173   2182   2183     1  0.0000000  0.6508444  3
   2174   2173   2182   2184     1  0.0000000  0.6508444  3
   2175   2173   2172   2176     1  0.0000000  1.2552000  3
   2175   2173   2182   2186     1  0.0000000  0.6508444  3
   2175   2173   2182   2183     1  0.0000000  0.6508444  3
   2175   2173   2182   2184     1  0.0000000  0.6508444  3
   2177   2176   2179   2185     1  0.0000000  0.6508444  3
   2177   2176   2179   2180     1  0.0000000  0.6508444  3
   2177   2176   2179   2181     1  0.0000000  0.6508444  3
   2178   2176   2179   2185     1  0.0000000  0.6508444  3
   2178   2176   2179   2180     1  0.0000000  0.6508444  3
   2178   2176   2179   2181     1  0.0000000  0.6508444  3
   2179   2185   3700   3701     1  180.0000771  10.4600000  2
   2180   2179   2185   3700     1  180.0000771  0.0000000  2
   2180   2179   2185   2187     1  0.0000000  3.3472000  1
   2180   2179   2185   2187     1  0.0000000  0.0000000  2
   2180   2179   2185   2187     1  180.0000771  0.3347200  3
   2181   2179   2185   3700     1  180.0000771  0.0000000  2
   2181   2179   2185   2187     1  0.0000000  3.3472000  1
   2181   2179   2185   2187     1  0.0000000  0.0000000  2
   2181   2179   2185   2187     1  180.0000771  0.3347200  3
   2182   2186   3711   3712     1  180.0000771  10.4600000  2
   2183   2182   2186   2188     1  0.0000000  3.3472000  1
   2183   2182   2186   2188     1  0.0000000  0.0000000  2
   2183   2182   2186   2188     1  180.0000771  0.3347200  3
   2183   2182   2186   3711     1  180.0000771  0.0000000  2
   2184   2182   2186   2188     1  0.0000000  3.3472000  1
   2184   2182   2186   2188     1  0.0000000  0.0000000  2
   2184   2182   2186   2188     1  180.0000771  0.3347200  3
   2184   2182   2186   3711     1  180.0000771  0.0000000  2
   2185   3700   3691   3692     1  0.0000000  0.0000000  2
   2185   3700   3691   3693     1  0.0000000  0.0000000  2
   2186   3711   3702   3703     1  0.0000000  0.0000000  2
   2186   3711   3702   3704     1  0.0000000  0.0000000  2
   2187   2185   3700   3701     1  0.0000000  8.3680000  1
   2187   2185   3700   3701     1  180.0000771  10.4600000  2
   2188   2186   3711   3712     1  0.0000000  8.3680000  1
   2188   2186   3711   3712     1  180.0000771  10.4600000  2
   2191   2194   2214   2215     1  0.0000000  0.0000000  2
   2191   2197   2198   2199     1  0.0000000  1.2552000  3
   2191   2197   2198   2200     1  0.0000000  1.2552000  3
   2191   2197   2201   2202     1  0.0000000  1.2552000  3
   2191   2197   2201   2203     1  0.0000000  1.2552000  3
   2192   2191   2194   2214     1  0.0000000  0.6508444  3
   2192   2191   2194   2195     1  0.0000000  0.6508444  3
   2192   2191   2194   2196     1  0.0000000  0.6508444  3
   2192   2191   2197   2198     1  0.0000000  1.2552000  3
   2192   2191   2197   2201     1  0.0000000  1.2552000  3
   2193   2191   2194   2214     1  0.0000000  0.6508444  3
   2193   2191   2194   2195     1  0.0000000  0.6508444  3
   2193   2191   2194   2196     1  0.0000000  0.6508444  3
   2193   2191   2197   2198     1  0.0000000  1.2552000  3
   2193   2191   2197   2201     1  0.0000000  1.2552000  3
   2195   2194   2191   2197     1  0.0000000  0.6508444  3
   2195   2194   2214   2215     1  0.0000000  0.0000000  2
   2196   2194   2191   2197     1  0.0000000  0.6508444  3
   2196   2194   2214   2215     1  0.0000000  0.0000000  2
   2197   2198   2207   2208     1  0.0000000  0.6508444  3
   2197   2198   2207   2209     1  0.0000000  0.6508444  3
   2197   2201   2204   2205     1  0.0000000  0.6508444  3
   2197   2201   2204   2206     1  0.0000000  0.6508444  3
   2198   2197   2201   2202     1  0.0000000  1.2552000  3
   2198   2197   2201   2203     1  0.0000000  1.2552000  3
   2199   2198   2197   2201     1  0.0000000  1.2552000  3
   2199   2198   2207   2211     1  0.0000000  0.6508444  3
   2199   2198   2207   2208     1  0.0000000  0.6508444  3
   2199   2198   2207   2209     1  0.0000000  0.6508444  3
   2200   2198   2197   2201     1  0.0000000  1.2552000  3
   2200   2198   2207   2211     1  0.0000000  0.6508444  3
   2200   2198   2207   2208     1  0.0000000  0.6508444  3
   2200   2198   2207   2209     1  0.0000000  0.6508444  3
   2202   2201   2204   2210     1  0.0000000  0.6508444  3
   2202   2201   2204   2205     1  0.0000000  0.6508444  3
   2202   2201   2204   2206     1  0.0000000  0.6508444  3
   2203   2201   2204   2210     1  0.0000000  0.6508444  3
   2203   2201   2204   2205     1  0.0000000  0.6508444  3
   2203   2201   2204   2206     1  0.0000000  0.6508444  3
   2204   2210   3722   3723     1  180.0000771  10.4600000  2
   2205   2204   2210   3722     1  180.0000771  0.0000000  2
   2205   2204   2210   2212     1  0.0000000  3.3472000  1
   2205   2204   2210   2212     1  0.0000000  0.0000000  2
   2205   2204   2210   2212     1  180.0000771  0.3347200  3
   2206   2204   2210   3722     1  180.0000771  0.0000000  2
   2206   2204   2210   2212     1  0.0000000  3.3472000  1
   2206   2204   2210   2212     1  0.0000000  0.0000000  2
   2206   2204   2210   2212     1  180.0000771  0.3347200  3
   2207   2211   3733   3734     1  180.0000771  10.4600000  2
   2208   2207   2211   2213     1  0.0000000  3.3472000  1
   2208   2207   2211   2213     1  0.0000000  0.0000000  2
   2208   2207   2211   2213     1  180.0000771  0.3347200  3
   2208   2207   2211   3733     1  180.0000771  0.0000000  2
   2209   2207   2211   2213     1  0.0000000  3.3472000  1
   2209   2207   2211   2213     1  0.0000000  0.0000000  2
   2209   2207   2211   2213     1  180.0000771  0.3347200  3
   2209   2207   2211   3733     1  180.0000771  0.0000000  2
   2210   3722   3713   3714     1  0.0000000  0.0000000  2
   2210   3722   3713   3715     1  0.0000000  0.0000000  2
   2211   3733   3724   3725     1  0.0000000  0.0000000  2
   2211   3733   3724   3726     1  0.0000000  0.0000000  2
   2212   2210   3722   3723     1  0.0000000  8.3680000  1
   2212   2210   3722   3723     1  180.0000771  10.4600000  2
   2213   2211   3733   3734     1  0.0000000  8.3680000  1
   2213   2211   3733   3734     1  180.0000771  10.4600000  2
   2216   2219   2239   2240     1  0.0000000  0.0000000  2
   2216   2222   2223   2224     1  0.0000000  1.2552000  3
   2216   2222   2223   2225     1  0.0000000  1.2552000  3
   2216   2222   2226   2227     1  0.0000000  1.2552000  3
   2216   2222   2226   2228     1  0.0000000  1.2552000  3
   2217   2216   2219   2239     1  0.0000000  0.6508444  3
   2217   2216   2219   2220     1  0.0000000  0.6508444  3
   2217   2216   2219   2221     1  0.0000000  0.6508444  3
   2217   2216   2222   2223     1  0.0000000  1.2552000  3
   2217   2216   2222   2226     1  0.0000000  1.2552000  3
   2218   2216   2219   2239     1  0.0000000  0.6508444  3
   2218   2216   2219   2220     1  0.0000000  0.6508444  3
   2218   2216   2219   2221     1  0.0000000  0.6508444  3
   2218   2216   2222   2223     1  0.0000000  1.2552000  3
   2218   2216   2222   2226     1  0.0000000  1.2552000  3
   2220   2219   2216   2222     1  0.0000000  0.6508444  3
   2220   2219   2239   2240     1  0.0000000  0.0000000  2
   2221   2219   2216   2222     1  0.0000000  0.6508444  3
   2221   2219   2239   2240     1  0.0000000  0.0000000  2
   2222   2223   2232   2233     1  0.0000000  0.6508444  3
   2222   2223   2232   2234     1  0.0000000  0.6508444  3
   2222   2226   2229   2230     1  0.0000000  0.6508444  3
   2222   2226   2229   2231     1  0.0000000  0.6508444  3
   2223   2222   2226   2227     1  0.0000000  1.2552000  3
   2223   2222   2226   2228     1  0.0000000  1.2552000  3
   2224   2223   2222   2226     1  0.0000000  1.2552000  3
   2224   2223   2232   2236     1  0.0000000  0.6508444  3
   2224   2223   2232   2233     1  0.0000000  0.6508444  3
   2224   2223   2232   2234     1  0.0000000  0.6508444  3
   2225   2223   2222   2226     1  0.0000000  1.2552000  3
   2225   2223   2232   2236     1  0.0000000  0.6508444  3
   2225   2223   2232   2233     1  0.0000000  0.6508444  3
   2225   2223   2232   2234     1  0.0000000  0.6508444  3
   2227   2226   2229   2235     1  0.0000000  0.6508444  3
   2227   2226   2229   2230     1  0.0000000  0.6508444  3
   2227   2226   2229   2231     1  0.0000000  0.6508444  3
   2228   2226   2229   2235     1  0.0000000  0.6508444  3
   2228   2226   2229   2230     1  0.0000000  0.6508444  3
   2228   2226   2229   2231     1  0.0000000  0.6508444  3
   2229   2235   3744   3745     1  180.0000771  10.4600000  2
   2230   2229   2235   3744     1  180.0000771  0.0000000  2
   2230   2229   2235   2237     1  0.0000000  3.3472000  1
   2230   2229   2235   2237     1  0.0000000  0.0000000  2
   2230   2229   2235   2237     1  180.0000771  0.3347200  3
   2231   2229   2235   3744     1  180.0000771  0.0000000  2
   2231   2229   2235   2237     1  0.0000000  3.3472000  1
   2231   2229   2235   2237     1  0.0000000  0.0000000  2
   2231   2229   2235   2237     1  180.0000771  0.3347200  3
   2232   2236   3755   3756     1  180.0000771  10.4600000  2
   2233   2232   2236   2238     1  0.0000000  3.3472000  1
   2233   2232   2236   2238     1  0.0000000  0.0000000  2
   2233   2232   2236   2238     1  180.0000771  0.3347200  3
   2233   2232   2236   3755     1  180.0000771  0.0000000  2
   2234   2232   2236   2238     1  0.0000000  3.3472000  1
   2234   2232   2236   2238     1  0.0000000  0.0000000  2
   2234   2232   2236   2238     1  180.0000771  0.3347200  3
   2234   2232   2236   3755     1  180.0000771  0.0000000  2
   2235   3744   3735   3736     1  0.0000000  0.0000000  2
   2235   3744   3735   3737     1  0.0000000  0.0000000  2
   2236   3755   3746   3747     1  0.0000000  0.0000000  2
   2236   3755   3746   3748     1  0.0000000  0.0000000  2
   2237   2235   3744   3745     1  0.0000000  8.3680000  1
   2237   2235   3744   3745     1  180.0000771  10.4600000  2
   2238   2236   3755   3756     1  0.0000000  8.3680000  1
   2238   2236   3755   3756     1  180.0000771  10.4600000  2
   2241   2244   2264   2265     1  0.0000000  0.0000000  2
   2241   2247   2248   2249     1  0.0000000  1.2552000  3
   2241   2247   2248   2250     1  0.0000000  1.2552000  3
   2241   2247   2251   2252     1  0.0000000  1.2552000  3
   2241   2247   2251   2253     1  0.0000000  1.2552000  3
   2242   2241   2244   2264     1  0.0000000  0.6508444  3
   2242   2241   2244   2245     1  0.0000000  0.6508444  3
   2242   2241   2244   2246     1  0.0000000  0.6508444  3
   2242   2241   2247   2248     1  0.0000000  1.2552000  3
   2242   2241   2247   2251     1  0.0000000  1.2552000  3
   2243   2241   2244   2264     1  0.0000000  0.6508444  3
   2243   2241   2244   2245     1  0.0000000  0.6508444  3
   2243   2241   2244   2246     1  0.0000000  0.6508444  3
   2243   2241   2247   2248     1  0.0000000  1.2552000  3
   2243   2241   2247   2251     1  0.0000000  1.2552000  3
   2245   2244   2241   2247     1  0.0000000  0.6508444  3
   2245   2244   2264   2265     1  0.0000000  0.0000000  2
   2246   2244   2241   2247     1  0.0000000  0.6508444  3
   2246   2244   2264   2265     1  0.0000000  0.0000000  2
   2247   2248   2257   2258     1  0.0000000  0.6508444  3
   2247   2248   2257   2259     1  0.0000000  0.6508444  3
   2247   2251   2254   2255     1  0.0000000  0.6508444  3
   2247   2251   2254   2256     1  0.0000000  0.6508444  3
   2248   2247   2251   2252     1  0.0000000  1.2552000  3
   2248   2247   2251   2253     1  0.0000000  1.2552000  3
   2249   2248   2247   2251     1  0.0000000  1.2552000  3
   2249   2248   2257   2261     1  0.0000000  0.6508444  3
   2249   2248   2257   2258     1  0.0000000  0.6508444  3
   2249   2248   2257   2259     1  0.0000000  0.6508444  3
   2250   2248   2247   2251     1  0.0000000  1.2552000  3
   2250   2248   2257   2261     1  0.0000000  0.6508444  3
   2250   2248   2257   2258     1  0.0000000  0.6508444  3
   2250   2248   2257   2259     1  0.0000000  0.6508444  3
   2252   2251   2254   2260     1  0.0000000  0.6508444  3
   2252   2251   2254   2255     1  0.0000000  0.6508444  3
   2252   2251   2254   2256     1  0.0000000  0.6508444  3
   2253   2251   2254   2260     1  0.0000000  0.6508444  3
   2253   2251   2254   2255     1  0.0000000  0.6508444  3
   2253   2251   2254   2256     1  0.0000000  0.6508444  3
   2254   2260   3766   3767     1  180.0000771  10.4600000  2
   2255   2254   2260   3766     1  180.0000771  0.0000000  2
   2255   2254   2260   2262     1  0.0000000  3.3472000  1
   2255   2254   2260   2262     1  0.0000000  0.0000000  2
   2255   2254   2260   2262     1  180.0000771  0.3347200  3
   2256   2254   2260   3766     1  180.0000771  0.0000000  2
   2256   2254   2260   2262     1  0.0000000  3.3472000  1
   2256   2254   2260   2262     1  0.0000000  0.0000000  2
   2256   2254   2260   2262     1  180.0000771  0.3347200  3
   2257   2261   3777   3778     1  180.0000771  10.4600000  2
   2258   2257   2261   2263     1  0.0000000  3.3472000  1
   2258   2257   2261   2263     1  0.0000000  0.0000000  2
   2258   2257   2261   2263     1  180.0000771  0.3347200  3
   2258   2257   2261   3777     1  180.0000771  0.0000000  2
   2259   2257   2261   2263     1  0.0000000  3.3472000  1
   2259   2257   2261   2263     1  0.0000000  0.0000000  2
   2259   2257   2261   2263     1  180.0000771  0.3347200  3
   2259   2257   2261   3777     1  180.0000771  0.0000000  2
   2260   3766   3757   3758     1  0.0000000  0.0000000  2
   2260   3766   3757   3759     1  0.0000000  0.0000000  2
   2261   3777   3768   3769     1  0.0000000  0.0000000  2
   2261   3777   3768   3770     1  0.0000000  0.0000000  2
   2262   2260   3766   3767     1  0.0000000  8.3680000  1
   2262   2260   3766   3767     1  180.0000771  10.4600000  2
   2263   2261   3777   3778     1  0.0000000  8.3680000  1
   2263   2261   3777   3778     1  180.0000771  10.4600000  2
   2266   2269   2289   2290     1  0.0000000  0.0000000  2
   2266   2272   2273   2274     1  0.0000000  1.2552000  3
   2266   2272   2273   2275     1  0.0000000  1.2552000  3
   2266   2272   2276   2277     1  0.0000000  1.2552000  3
   2266   2272   2276   2278     1  0.0000000  1.2552000  3
   2267   2266   2269   2289     1  0.0000000  0.6508444  3
   2267   2266   2269   2270     1  0.0000000  0.6508444  3
   2267   2266   2269   2271     1  0.0000000  0.6508444  3
   2267   2266   2272   2273     1  0.0000000  1.2552000  3
   2267   2266   2272   2276     1  0.0000000  1.2552000  3
   2268   2266   2269   2289     1  0.0000000  0.6508444  3
   2268   2266   2269   2270     1  0.0000000  0.6508444  3
   2268   2266   2269   2271     1  0.0000000  0.6508444  3
   2268   2266   2272   2273     1  0.0000000  1.2552000  3
   2268   2266   2272   2276     1  0.0000000  1.2552000  3
   2270   2269   2266   2272     1  0.0000000  0.6508444  3
   2270   2269   2289   2290     1  0.0000000  0.0000000  2
   2271   2269   2266   2272     1  0.0000000  0.6508444  3
   2271   2269   2289   2290     1  0.0000000  0.0000000  2
   2272   2273   2282   2283     1  0.0000000  0.6508444  3
   2272   2273   2282   2284     1  0.0000000  0.6508444  3
   2272   2276   2279   2280     1  0.0000000  0.6508444  3
   2272   2276   2279   2281     1  0.0000000  0.6508444  3
   2273   2272   2276   2277     1  0.0000000  1.2552000  3
   2273   2272   2276   2278     1  0.0000000  1.2552000  3
   2274   2273   2272   2276     1  0.0000000  1.2552000  3
   2274   2273   2282   2286     1  0.0000000  0.6508444  3
   2274   2273   2282   2283     1  0.0000000  0.6508444  3
   2274   2273   2282   2284     1  0.0000000  0.6508444  3
   2275   2273   2272   2276     1  0.0000000  1.2552000  3
   2275   2273   2282   2286     1  0.0000000  0.6508444  3
   2275   2273   2282   2283     1  0.0000000  0.6508444  3
   2275   2273   2282   2284     1  0.0000000  0.6508444  3
   2277   2276   2279   2285     1  0.0000000  0.6508444  3
   2277   2276   2279   2280     1  0.0000000  0.6508444  3
   2277   2276   2279   2281     1  0.0000000  0.6508444  3
   2278   2276   2279   2285     1  0.0000000  0.6508444  3
   2278   2276   2279   2280     1  0.0000000  0.6508444  3
   2278   2276   2279   2281     1  0.0000000  0.6508444  3
   2279   2285   3788   3789     1  180.0000771  10.4600000  2
   2280   2279   2285   3788     1  180.0000771  0.0000000  2
   2280   2279   2285   2287     1  0.0000000  3.3472000  1
   2280   2279   2285   2287     1  0.0000000  0.0000000  2
   2280   2279   2285   2287     1  180.0000771  0.3347200  3
   2281   2279   2285   3788     1  180.0000771  0.0000000  2
   2281   2279   2285   2287     1  0.0000000  3.3472000  1
   2281   2279   2285   2287     1  0.0000000  0.0000000  2
   2281   2279   2285   2287     1  180.0000771  0.3347200  3
   2282   2286   3799   3800     1  180.0000771  10.4600000  2
   2283   2282   2286   2288     1  0.0000000  3.3472000  1
   2283   2282   2286   2288     1  0.0000000  0.0000000  2
   2283   2282   2286   2288     1  180.0000771  0.3347200  3
   2283   2282   2286   3799     1  180.0000771  0.0000000  2
   2284   2282   2286   2288     1  0.0000000  3.3472000  1
   2284   2282   2286   2288     1  0.0000000  0.0000000  2
   2284   2282   2286   2288     1  180.0000771  0.3347200  3
   2284   2282   2286   3799     1  180.0000771  0.0000000  2
   2285   3788   3779   3780     1  0.0000000  0.0000000  2
   2285   3788   3779   3781     1  0.0000000  0.0000000  2
   2286   3799   3790   3791     1  0.0000000  0.0000000  2
   2286   3799   3790   3792     1  0.0000000  0.0000000  2
   2287   2285   3788   3789     1  0.0000000  8.3680000  1
   2287   2285   3788   3789     1  180.0000771  10.4600000  2
   2288   2286   3799   3800     1  0.0000000  8.3680000  1
   2288   2286   3799   3800     1  180.0000771  10.4600000  2
   2291   2294   2314   2315     1  0.0000000  0.0000000  2
   2291   2297   2298   2299     1  0.0000000  1.2552000  3
   2291   2297   2298   2300     1  0.0000000  1.2552000  3
   2291   2297   2301   2302     1  0.0000000  1.2552000  3
   2291   2297   2301   2303     1  0.0000000  1.2552000  3
   2292   2291   2294   2314     1  0.0000000  0.6508444  3
   2292   2291   2294   2295     1  0.0000000  0.6508444  3
   2292   2291   2294   2296     1  0.0000000  0.6508444  3
   2292   2291   2297   2298     1  0.0000000  1.2552000  3
   2292   2291   2297   2301     1  0.0000000  1.2552000  3
   2293   2291   2294   2314     1  0.0000000  0.6508444  3
   2293   2291   2294   2295     1  0.0000000  0.6508444  3
   2293   2291   2294   2296     1  0.0000000  0.6508444  3
   2293   2291   2297   2298     1  0.0000000  1.2552000  3
   2293   2291   2297   2301     1  0.0000000  1.2552000  3
   2295   2294   2291   2297     1  0.0000000  0.6508444  3
   2295   2294   2314   2315     1  0.0000000  0.0000000  2
   2296   2294   2291   2297     1  0.0000000  0.6508444  3
   2296   2294   2314   2315     1  0.0000000  0.0000000  2
   2297   2298   2307   2308     1  0.0000000  0.6508444  3
   2297   2298   2307   2309     1  0.0000000  0.6508444  3
   2297   2301   2304   2305     1  0.0000000  0.6508444  3
   2297   2301   2304   2306     1  0.0000000  0.6508444  3
   2298   2297   2301   2302     1  0.0000000  1.2552000  3
   2298   2297   2301   2303     1  0.0000000  1.2552000  3
   2299   2298   2297   2301     1  0.0000000  1.2552000  3
   2299   2298   2307   2311     1  0.0000000  0.6508444  3
   2299   2298   2307   2308     1  0.0000000  0.6508444  3
   2299   2298   2307   2309     1  0.0000000  0.6508444  3
   2300   2298   2297   2301     1  0.0000000  1.2552000  3
   2300   2298   2307   2311     1  0.0000000  0.6508444  3
   2300   2298   2307   2308     1  0.0000000  0.6508444  3
   2300   2298   2307   2309     1  0.0000000  0.6508444  3
   2302   2301   2304   2310     1  0.0000000  0.6508444  3
   2302   2301   2304   2305     1  0.0000000  0.6508444  3
   2302   2301   2304   2306     1  0.0000000  0.6508444  3
   2303   2301   2304   2310     1  0.0000000  0.6508444  3
   2303   2301   2304   2305     1  0.0000000  0.6508444  3
   2303   2301   2304   2306     1  0.0000000  0.6508444  3
   2304   2310   3810   3811     1  180.0000771  10.4600000  2
   2305   2304   2310   3810     1  180.0000771  0.0000000  2
   2305   2304   2310   2312     1  0.0000000  3.3472000  1
   2305   2304   2310   2312     1  0.0000000  0.0000000  2
   2305   2304   2310   2312     1  180.0000771  0.3347200  3
   2306   2304   2310   3810     1  180.0000771  0.0000000  2
   2306   2304   2310   2312     1  0.0000000  3.3472000  1
   2306   2304   2310   2312     1  0.0000000  0.0000000  2
   2306   2304   2310   2312     1  180.0000771  0.3347200  3
   2307   2311   3821   3822     1  180.0000771  10.4600000  2
   2308   2307   2311   2313     1  0.0000000  3.3472000  1
   2308   2307   2311   2313     1  0.0000000  0.0000000  2
   2308   2307   2311   2313     1  180.0000771  0.3347200  3
   2308   2307   2311   3821     1  180.0000771  0.0000000  2
   2309   2307   2311   2313     1  0.0000000  3.3472000  1
   2309   2307   2311   2313     1  0.0000000  0.0000000  2
   2309   2307   2311   2313     1  180.0000771  0.3347200  3
   2309   2307   2311   3821     1  180.0000771  0.0000000  2
   2310   3810   3801   3802     1  0.0000000  0.0000000  2
   2310   3810   3801   3803     1  0.0000000  0.0000000  2
   2311   3821   3812   3813     1  0.0000000  0.0000000  2
   2311   3821   3812   3814     1  0.0000000  0.0000000  2
   2312   2310   3810   3811     1  0.0000000  8.3680000  1
   2312   2310   3810   3811     1  180.0000771  10.4600000  2
   2313   2311   3821   3822     1  0.0000000  8.3680000  1
   2313   2311   3821   3822     1  180.0000771  10.4600000  2
   2316   2319   2339   2340     1  0.0000000  0.0000000  2
   2316   2322   2323   2324     1  0.0000000  1.2552000  3
   2316   2322   2323   2325     1  0.0000000  1.2552000  3
   2316   2322   2326   2327     1  0.0000000  1.2552000  3
   2316   2322   2326   2328     1  0.0000000  1.2552000  3
   2317   2316   2319   2339     1  0.0000000  0.6508444  3
   2317   2316   2319   2320     1  0.0000000  0.6508444  3
   2317   2316   2319   2321     1  0.0000000  0.6508444  3
   2317   2316   2322   2323     1  0.0000000  1.2552000  3
   2317   2316   2322   2326     1  0.0000000  1.2552000  3
   2318   2316   2319   2339     1  0.0000000  0.6508444  3
   2318   2316   2319   2320     1  0.0000000  0.6508444  3
   2318   2316   2319   2321     1  0.0000000  0.6508444  3
   2318   2316   2322   2323     1  0.0000000  1.2552000  3
   2318   2316   2322   2326     1  0.0000000  1.2552000  3
   2320   2319   2316   2322     1  0.0000000  0.6508444  3
   2320   2319   2339   2340     1  0.0000000  0.0000000  2
   2321   2319   2316   2322     1  0.0000000  0.6508444  3
   2321   2319   2339   2340     1  0.0000000  0.0000000  2
   2322   2323   2332   2333     1  0.0000000  0.6508444  3
   2322   2323   2332   2334     1  0.0000000  0.6508444  3
   2322   2326   2329   2330     1  0.0000000  0.6508444  3
   2322   2326   2329   2331     1  0.0000000  0.6508444  3
   2323   2322   2326   2327     1  0.0000000  1.2552000  3
   2323   2322   2326   2328     1  0.0000000  1.2552000  3
   2324   2323   2322   2326     1  0.0000000  1.2552000  3
   2324   2323   2332   2336     1  0.0000000  0.6508444  3
   2324   2323   2332   2333     1  0.0000000  0.6508444  3
   2324   2323   2332   2334     1  0.0000000  0.6508444  3
   2325   2323   2322   2326     1  0.0000000  1.2552000  3
   2325   2323   2332   2336     1  0.0000000  0.6508444  3
   2325   2323   2332   2333     1  0.0000000  0.6508444  3
   2325   2323   2332   2334     1  0.0000000  0.6508444  3
   2327   2326   2329   2335     1  0.0000000  0.6508444  3
   2327   2326   2329   2330     1  0.0000000  0.6508444  3
   2327   2326   2329   2331     1  0.0000000  0.6508444  3
   2328   2326   2329   2335     1  0.0000000  0.6508444  3
   2328   2326   2329   2330     1  0.0000000  0.6508444  3
   2328   2326   2329   2331     1  0.0000000  0.6508444  3
   2329   2335   3832   3833     1  180.0000771  10.4600000  2
   2330   2329   2335   3832     1  180.0000771  0.0000000  2
   2330   2329   2335   2337     1  0.0000000  3.3472000  1
   2330   2329   2335   2337     1  0.0000000  0.0000000  2
   2330   2329   2335   2337     1  180.0000771  0.3347200  3
   2331   2329   2335   3832     1  180.0000771  0.0000000  2
   2331   2329   2335   2337     1  0.0000000  3.3472000  1
   2331   2329   2335   2337     1  0.0000000  0.0000000  2
   2331   2329   2335   2337     1  180.0000771  0.3347200  3
   2332   2336   3843   3844     1  180.0000771  10.4600000  2
   2333   2332   2336   2338     1  0.0000000  3.3472000  1
   2333   2332   2336   2338     1  0.0000000  0.0000000  2
   2333   2332   2336   2338     1  180.0000771  0.3347200  3
   2333   2332   2336   3843     1  180.0000771  0.0000000  2
   2334   2332   2336   2338     1  0.0000000  3.3472000  1
   2334   2332   2336   2338     1  0.0000000  0.0000000  2
   2334   2332   2336   2338     1  180.0000771  0.3347200  3
   2334   2332   2336   3843     1  180.0000771  0.0000000  2
   2335   3832   3823   3824     1  0.0000000  0.0000000  2
   2335   3832   3823   3825     1  0.0000000  0.0000000  2
   2336   3843   3834   3835     1  0.0000000  0.0000000  2
   2336   3843   3834   3836     1  0.0000000  0.0000000  2
   2337   2335   3832   3833     1  0.0000000  8.3680000  1
   2337   2335   3832   3833     1  180.0000771  10.4600000  2
   2338   2336   3843   3844     1  0.0000000  8.3680000  1
   2338   2336   3843   3844     1  180.0000771  10.4600000  2
   2341   2344   2364   2365     1  0.0000000  0.0000000  2
   2341   2347   2348   2349     1  0.0000000  1.2552000  3
   2341   2347   2348   2350     1  0.0000000  1.2552000  3
   2341   2347   2351   2352     1  0.0000000  1.2552000  3
   2341   2347   2351   2353     1  0.0000000  1.2552000  3
   2342   2341   2344   2364     1  0.0000000  0.6508444  3
   2342   2341   2344   2345     1  0.0000000  0.6508444  3
   2342   2341   2344   2346     1  0.0000000  0.6508444  3
   2342   2341   2347   2348     1  0.0000000  1.2552000  3
   2342   2341   2347   2351     1  0.0000000  1.2552000  3
   2343   2341   2344   2364     1  0.0000000  0.6508444  3
   2343   2341   2344   2345     1  0.0000000  0.6508444  3
   2343   2341   2344   2346     1  0.0000000  0.6508444  3
   2343   2341   2347   2348     1  0.0000000  1.2552000  3
   2343   2341   2347   2351     1  0.0000000  1.2552000  3
   2345   2344   2341   2347     1  0.0000000  0.6508444  3
   2345   2344   2364   2365     1  0.0000000  0.0000000  2
   2346   2344   2341   2347     1  0.0000000  0.6508444  3
   2346   2344   2364   2365     1  0.0000000  0.0000000  2
   2347   2348   2357   2358     1  0.0000000  0.6508444  3
   2347   2348   2357   2359     1  0.0000000  0.6508444  3
   2347   2351   2354   2355     1  0.0000000  0.6508444  3
   2347   2351   2354   2356     1  0.0000000  0.6508444  3
   2348   2347   2351   2352     1  0.0000000  1.2552000  3
   2348   2347   2351   2353     1  0.0000000  1.2552000  3
   2349   2348   2347   2351     1  0.0000000  1.2552000  3
   2349   2348   2357   2361     1  0.0000000  0.6508444  3
   2349   2348   2357   2358     1  0.0000000  0.6508444  3
   2349   2348   2357   2359     1  0.0000000  0.6508444  3
   2350   2348   2347   2351     1  0.0000000  1.2552000  3
   2350   2348   2357   2361     1  0.0000000  0.6508444  3
   2350   2348   2357   2358     1  0.0000000  0.6508444  3
   2350   2348   2357   2359     1  0.0000000  0.6508444  3
   2352   2351   2354   2360     1  0.0000000  0.6508444  3
   2352   2351   2354   2355     1  0.0000000  0.6508444  3
   2352   2351   2354   2356     1  0.0000000  0.6508444  3
   2353   2351   2354   2360     1  0.0000000  0.6508444  3
   2353   2351   2354   2355     1  0.0000000  0.6508444  3
   2353   2351   2354   2356     1  0.0000000  0.6508444  3
   2354   2360   3854   3855     1  180.0000771  10.4600000  2
   2355   2354   2360   3854     1  180.0000771  0.0000000  2
   2355   2354   2360   2362     1  0.0000000  3.3472000  1
   2355   2354   2360   2362     1  0.0000000  0.0000000  2
   2355   2354   2360   2362     1  180.0000771  0.3347200  3
   2356   2354   2360   3854     1  180.0000771  0.0000000  2
   2356   2354   2360   2362     1  0.0000000  3.3472000  1
   2356   2354   2360   2362     1  0.0000000  0.0000000  2
   2356   2354   2360   2362     1  180.0000771  0.3347200  3
   2357   2361   3865   3866     1  180.0000771  10.4600000  2
   2358   2357   2361   2363     1  0.0000000  3.3472000  1
   2358   2357   2361   2363     1  0.0000000  0.0000000  2
   2358   2357   2361   2363     1  180.0000771  0.3347200  3
   2358   2357   2361   3865     1  180.0000771  0.0000000  2
   2359   2357   2361   2363     1  0.0000000  3.3472000  1
   2359   2357   2361   2363     1  0.0000000  0.0000000  2
   2359   2357   2361   2363     1  180.0000771  0.3347200  3
   2359   2357   2361   3865     1  180.0000771  0.0000000  2
   2360   3854   3845   3846     1  0.0000000  0.0000000  2
   2360   3854   3845   3847     1  0.0000000  0.0000000  2
   2361   3865   3856   3857     1  0.0000000  0.0000000  2
   2361   3865   3856   3858     1  0.0000000  0.0000000  2
   2362   2360   3854   3855     1  0.0000000  8.3680000  1
   2362   2360   3854   3855     1  180.0000771  10.4600000  2
   2363   2361   3865   3866     1  0.0000000  8.3680000  1
   2363   2361   3865   3866     1  180.0000771  10.4600000  2
   2366   2369   2389   2390     1  0.0000000  0.0000000  2
   2366   2372   2373   2374     1  0.0000000  1.2552000  3
   2366   2372   2373   2375     1  0.0000000  1.2552000  3
   2366   2372   2376   2377     1  0.0000000  1.2552000  3
   2366   2372   2376   2378     1  0.0000000  1.2552000  3
   2367   2366   2369   2389     1  0.0000000  0.6508444  3
   2367   2366   2369   2370     1  0.0000000  0.6508444  3
   2367   2366   2369   2371     1  0.0000000  0.6508444  3
   2367   2366   2372   2373     1  0.0000000  1.2552000  3
   2367   2366   2372   2376     1  0.0000000  1.2552000  3
   2368   2366   2369   2389     1  0.0000000  0.6508444  3
   2368   2366   2369   2370     1  0.0000000  0.6508444  3
   2368   2366   2369   2371     1  0.0000000  0.6508444  3
   2368   2366   2372   2373     1  0.0000000  1.2552000  3
   2368   2366   2372   2376     1  0.0000000  1.2552000  3
   2370   2369   2366   2372     1  0.0000000  0.6508444  3
   2370   2369   2389   2390     1  0.0000000  0.0000000  2
   2371   2369   2366   2372     1  0.0000000  0.6508444  3
   2371   2369   2389   2390     1  0.0000000  0.0000000  2
   2372   2373   2382   2383     1  0.0000000  0.6508444  3
   2372   2373   2382   2384     1  0.0000000  0.6508444  3
   2372   2376   2379   2380     1  0.0000000  0.6508444  3
   2372   2376   2379   2381     1  0.0000000  0.6508444  3
   2373   2372   2376   2377     1  0.0000000  1.2552000  3
   2373   2372   2376   2378     1  0.0000000  1.2552000  3
   2374   2373   2372   2376     1  0.0000000  1.2552000  3
   2374   2373   2382   2386     1  0.0000000  0.6508444  3
   2374   2373   2382   2383     1  0.0000000  0.6508444  3
   2374   2373   2382   2384     1  0.0000000  0.6508444  3
   2375   2373   2372   2376     1  0.0000000  1.2552000  3
   2375   2373   2382   2386     1  0.0000000  0.6508444  3
   2375   2373   2382   2383     1  0.0000000  0.6508444  3
   2375   2373   2382   2384     1  0.0000000  0.6508444  3
   2377   2376   2379   2385     1  0.0000000  0.6508444  3
   2377   2376   2379   2380     1  0.0000000  0.6508444  3
   2377   2376   2379   2381     1  0.0000000  0.6508444  3
   2378   2376   2379   2385     1  0.0000000  0.6508444  3
   2378   2376   2379   2380     1  0.0000000  0.6508444  3
   2378   2376   2379   2381     1  0.0000000  0.6508444  3
   2379   2385   3876   3877     1  180.0000771  10.4600000  2
   2380   2379   2385   3876     1  180.0000771  0.0000000  2
   2380   2379   2385   2387     1  0.0000000  3.3472000  1
   2380   2379   2385   2387     1  0.0000000  0.0000000  2
   2380   2379   2385   2387     1  180.0000771  0.3347200  3
   2381   2379   2385   3876     1  180.0000771  0.0000000  2
   2381   2379   2385   2387     1  0.0000000  3.3472000  1
   2381   2379   2385   2387     1  0.0000000  0.0000000  2
   2381   2379   2385   2387     1  180.0000771  0.3347200  3
   2382   2386   3887   3888     1  180.0000771  10.4600000  2
   2383   2382   2386   2388     1  0.0000000  3.3472000  1
   2383   2382   2386   2388     1  0.0000000  0.0000000  2
   2383   2382   2386   2388     1  180.0000771  0.3347200  3
   2383   2382   2386   3887     1  180.0000771  0.0000000  2
   2384   2382   2386   2388     1  0.0000000  3.3472000  1
   2384   2382   2386   2388     1  0.0000000  0.0000000  2
   2384   2382   2386   2388     1  180.0000771  0.3347200  3
   2384   2382   2386   3887     1  180.0000771  0.0000000  2
   2385   3876   3867   3868     1  0.0000000  0.0000000  2
   2385   3876   3867   3869     1  0.0000000  0.0000000  2
   2386   3887   3878   3879     1  0.0000000  0.0000000  2
   2386   3887   3878   3880     1  0.0000000  0.0000000  2
   2387   2385   3876   3877     1  0.0000000  8.3680000  1
   2387   2385   3876   3877     1  180.0000771  10.4600000  2
   2388   2386   3887   3888     1  0.0000000  8.3680000  1
   2388   2386   3887   3888     1  180.0000771  10.4600000  2
   2391   2394   2414   2415     1  0.0000000  0.0000000  2
   2391   2397   2398   2399     1  0.0000000  1.2552000  3
   2391   2397   2398   2400     1  0.0000000  1.2552000  3
   2391   2397   2401   2402     1  0.0000000  1.2552000  3
   2391   2397   2401   2403     1  0.0000000  1.2552000  3
   2392   2391   2394   2414     1  0.0000000  0.6508444  3
   2392   2391   2394   2395     1  0.0000000  0.6508444  3
   2392   2391   2394   2396     1  0.0000000  0.6508444  3
   2392   2391   2397   2398     1  0.0000000  1.2552000  3
   2392   2391   2397   2401     1  0.0000000  1.2552000  3
   2393   2391   2394   2414     1  0.0000000  0.6508444  3
   2393   2391   2394   2395     1  0.0000000  0.6508444  3
   2393   2391   2394   2396     1  0.0000000  0.6508444  3
   2393   2391   2397   2398     1  0.0000000  1.2552000  3
   2393   2391   2397   2401     1  0.0000000  1.2552000  3
   2395   2394   2391   2397     1  0.0000000  0.6508444  3
   2395   2394   2414   2415     1  0.0000000  0.0000000  2
   2396   2394   2391   2397     1  0.0000000  0.6508444  3
   2396   2394   2414   2415     1  0.0000000  0.0000000  2
   2397   2398   2407   2408     1  0.0000000  0.6508444  3
   2397   2398   2407   2409     1  0.0000000  0.6508444  3
   2397   2401   2404   2405     1  0.0000000  0.6508444  3
   2397   2401   2404   2406     1  0.0000000  0.6508444  3
   2398   2397   2401   2402     1  0.0000000  1.2552000  3
   2398   2397   2401   2403     1  0.0000000  1.2552000  3
   2399   2398   2397   2401     1  0.0000000  1.2552000  3
   2399   2398   2407   2411     1  0.0000000  0.6508444  3
   2399   2398   2407   2408     1  0.0000000  0.6508444  3
   2399   2398   2407   2409     1  0.0000000  0.6508444  3
   2400   2398   2397   2401     1  0.0000000  1.2552000  3
   2400   2398   2407   2411     1  0.0000000  0.6508444  3
   2400   2398   2407   2408     1  0.0000000  0.6508444  3
   2400   2398   2407   2409     1  0.0000000  0.6508444  3
   2402   2401   2404   2410     1  0.0000000  0.6508444  3
   2402   2401   2404   2405     1  0.0000000  0.6508444  3
   2402   2401   2404   2406     1  0.0000000  0.6508444  3
   2403   2401   2404   2410     1  0.0000000  0.6508444  3
   2403   2401   2404   2405     1  0.0000000  0.6508444  3
   2403   2401   2404   2406     1  0.0000000  0.6508444  3
   2404   2410   3898   3899     1  180.0000771  10.4600000  2
   2405   2404   2410   3898     1  180.0000771  0.0000000  2
   2405   2404   2410   2412     1  0.0000000  3.3472000  1
   2405   2404   2410   2412     1  0.0000000  0.0000000  2
   2405   2404   2410   2412     1  180.0000771  0.3347200  3
   2406   2404   2410   3898     1  180.0000771  0.0000000  2
   2406   2404   2410   2412     1  0.0000000  3.3472000  1
   2406   2404   2410   2412     1  0.0000000  0.0000000  2
   2406   2404   2410   2412     1  180.0000771  0.3347200  3
   2407   2411   3909   3910     1  180.0000771  10.4600000  2
   2408   2407   2411   2413     1  0.0000000  3.3472000  1
   2408   2407   2411   2413     1  0.0000000  0.0000000  2
   2408   2407   2411   2413     1  180.0000771  0.3347200  3
   2408   2407   2411   3909     1  180.0000771  0.0000000  2
   2409   2407   2411   2413     1  0.0000000  3.3472000  1
   2409   2407   2411   2413     1  0.0000000  0.0000000  2
   2409   2407   2411   2413     1  180.0000771  0.3347200  3
   2409   2407   2411   3909     1  180.0000771  0.0000000  2
   2410   3898   3889   3890     1  0.0000000  0.0000000  2
   2410   3898   3889   3891     1  0.0000000  0.0000000  2
   2411   3909   3900   3901     1  0.0000000  0.0000000  2
   2411   3909   3900   3902     1  0.0000000  0.0000000  2
   2412   2410   3898   3899     1  0.0000000  8.3680000  1
   2412   2410   3898   3899     1  180.0000771  10.4600000  2
   2413   2411   3909   3910     1  0.0000000  8.3680000  1
   2413   2411   3909   3910     1  180.0000771  10.4600000  2
   2416   2419   2439   2440     1  0.0000000  0.0000000  2
   2416   2422   2423   2424     1  0.0000000  1.2552000  3
   2416   2422   2423   2425     1  0.0000000  1.2552000  3
   2416   2422   2426   2427     1  0.0000000  1.2552000  3
   2416   2422   2426   2428     1  0.0000000  1.2552000  3
   2417   2416   2419   2439     1  0.0000000  0.6508444  3
   2417   2416   2419   2420     1  0.0000000  0.6508444  3
   2417   2416   2419   2421     1  0.0000000  0.6508444  3
   2417   2416   2422   2423     1  0.0000000  1.2552000  3
   2417   2416   2422   2426     1  0.0000000  1.2552000  3
   2418   2416   2419   2439     1  0.0000000  0.6508444  3
   2418   2416   2419   2420     1  0.0000000  0.6508444  3
   2418   2416   2419   2421     1  0.0000000  0.6508444  3
   2418   2416   2422   2423     1  0.0000000  1.2552000  3
   2418   2416   2422   2426     1  0.0000000  1.2552000  3
   2420   2419   2416   2422     1  0.0000000  0.6508444  3
   2420   2419   2439   2440     1  0.0000000  0.0000000  2
   2421   2419   2416   2422     1  0.0000000  0.6508444  3
   2421   2419   2439   2440     1  0.0000000  0.0000000  2
   2422   2423   2432   2433     1  0.0000000  0.6508444  3
   2422   2423   2432   2434     1  0.0000000  0.6508444  3
   2422   2426   2429   2430     1  0.0000000  0.6508444  3
   2422   2426   2429   2431     1  0.0000000  0.6508444  3
   2423   2422   2426   2427     1  0.0000000  1.2552000  3
   2423   2422   2426   2428     1  0.0000000  1.2552000  3
   2424   2423   2422   2426     1  0.0000000  1.2552000  3
   2424   2423   2432   2436     1  0.0000000  0.6508444  3
   2424   2423   2432   2433     1  0.0000000  0.6508444  3
   2424   2423   2432   2434     1  0.0000000  0.6508444  3
   2425   2423   2422   2426     1  0.0000000  1.2552000  3
   2425   2423   2432   2436     1  0.0000000  0.6508444  3
   2425   2423   2432   2433     1  0.0000000  0.6508444  3
   2425   2423   2432   2434     1  0.0000000  0.6508444  3
   2427   2426   2429   2435     1  0.0000000  0.6508444  3
   2427   2426   2429   2430     1  0.0000000  0.6508444  3
   2427   2426   2429   2431     1  0.0000000  0.6508444  3
   2428   2426   2429   2435     1  0.0000000  0.6508444  3
   2428   2426   2429   2430     1  0.0000000  0.6508444  3
   2428   2426   2429   2431     1  0.0000000  0.6508444  3
   2429   2435   3920   3921     1  180.0000771  10.4600000  2
   2430   2429   2435   3920     1  180.0000771  0.0000000  2
   2430   2429   2435   2437     1  0.0000000  3.3472000  1
   2430   2429   2435   2437     1  0.0000000  0.0000000  2
   2430   2429   2435   2437     1  180.0000771  0.3347200  3
   2431   2429   2435   3920     1  180.0000771  0.0000000  2
   2431   2429   2435   2437     1  0.0000000  3.3472000  1
   2431   2429   2435   2437     1  0.0000000  0.0000000  2
   2431   2429   2435   2437     1  180.0000771  0.3347200  3
   2432   2436   3931   3932     1  180.0000771  10.4600000  2
   2433   2432   2436   2438     1  0.0000000  3.3472000  1
   2433   2432   2436   2438     1  0.0000000  0.0000000  2
   2433   2432   2436   2438     1  180.0000771  0.3347200  3
   2433   2432   2436   3931     1  180.0000771  0.0000000  2
   2434   2432   2436   2438     1  0.0000000  3.3472000  1
   2434   2432   2436   2438     1  0.0000000  0.0000000  2
   2434   2432   2436   2438     1  180.0000771  0.3347200  3
   2434   2432   2436   3931     1  180.0000771  0.0000000  2
   2435   3920   3911   3912     1  0.0000000  0.0000000  2
   2435   3920   3911   3913     1  0.0000000  0.0000000  2
   2436   3931   3922   3923     1  0.0000000  0.0000000  2
   2436   3931   3922   3924     1  0.0000000  0.0000000  2
   2437   2435   3920   3921     1  0.0000000  8.3680000  1
   2437   2435   3920   3921     1  180.0000771  10.4600000  2
   2438   2436   3931   3932     1  0.0000000  8.3680000  1
   2438   2436   3931   3932     1  180.0000771  10.4600000  2
   2441   2444   2464   2465     1  0.0000000  0.0000000  2
   2441   2447   2448   2449     1  0.0000000  1.2552000  3
   2441   2447   2448   2450     1  0.0000000  1.2552000  3
   2441   2447   2451   2452     1  0.0000000  1.2552000  3
   2441   2447   2451   2453     1  0.0000000  1.2552000  3
   2442   2441   2444   2464     1  0.0000000  0.6508444  3
   2442   2441   2444   2445     1  0.0000000  0.6508444  3
   2442   2441   2444   2446     1  0.0000000  0.6508444  3
   2442   2441   2447   2448     1  0.0000000  1.2552000  3
   2442   2441   2447   2451     1  0.0000000  1.2552000  3
   2443   2441   2444   2464     1  0.0000000  0.6508444  3
   2443   2441   2444   2445     1  0.0000000  0.6508444  3
   2443   2441   2444   2446     1  0.0000000  0.6508444  3
   2443   2441   2447   2448     1  0.0000000  1.2552000  3
   2443   2441   2447   2451     1  0.0000000  1.2552000  3
   2445   2444   2441   2447     1  0.0000000  0.6508444  3
   2445   2444   2464   2465     1  0.0000000  0.0000000  2
   2446   2444   2441   2447     1  0.0000000  0.6508444  3
   2446   2444   2464   2465     1  0.0000000  0.0000000  2
   2447   2448   2457   2458     1  0.0000000  0.6508444  3
   2447   2448   2457   2459     1  0.0000000  0.6508444  3
   2447   2451   2454   2455     1  0.0000000  0.6508444  3
   2447   2451   2454   2456     1  0.0000000  0.6508444  3
   2448   2447   2451   2452     1  0.0000000  1.2552000  3
   2448   2447   2451   2453     1  0.0000000  1.2552000  3
   2449   2448   2447   2451     1  0.0000000  1.2552000  3
   2449   2448   2457   2461     1  0.0000000  0.6508444  3
   2449   2448   2457   2458     1  0.0000000  0.6508444  3
   2449   2448   2457   2459     1  0.0000000  0.6508444  3
   2450   2448   2447   2451     1  0.0000000  1.2552000  3
   2450   2448   2457   2461     1  0.0000000  0.6508444  3
   2450   2448   2457   2458     1  0.0000000  0.6508444  3
   2450   2448   2457   2459     1  0.0000000  0.6508444  3
   2452   2451   2454   2460     1  0.0000000  0.6508444  3
   2452   2451   2454   2455     1  0.0000000  0.6508444  3
   2452   2451   2454   2456     1  0.0000000  0.6508444  3
   2453   2451   2454   2460     1  0.0000000  0.6508444  3
   2453   2451   2454   2455     1  0.0000000  0.6508444  3
   2453   2451   2454   2456     1  0.0000000  0.6508444  3
   2454   2460   3942   3943     1  180.0000771  10.4600000  2
   2455   2454   2460   3942     1  180.0000771  0.0000000  2
   2455   2454   2460   2462     1  0.0000000  3.3472000  1
   2455   2454   2460   2462     1  0.0000000  0.0000000  2
   2455   2454   2460   2462     1  180.0000771  0.3347200  3
   2456   2454   2460   3942     1  180.0000771  0.0000000  2
   2456   2454   2460   2462     1  0.0000000  3.3472000  1
   2456   2454   2460   2462     1  0.0000000  0.0000000  2
   2456   2454   2460   2462     1  180.0000771  0.3347200  3
   2457   2461   3953   3954     1  180.0000771  10.4600000  2
   2458   2457   2461   2463     1  0.0000000  3.3472000  1
   2458   2457   2461   2463     1  0.0000000  0.0000000  2
   2458   2457   2461   2463     1  180.0000771  0.3347200  3
   2458   2457   2461   3953     1  180.0000771  0.0000000  2
   2459   2457   2461   2463     1  0.0000000  3.3472000  1
   2459   2457   2461   2463     1  0.0000000  0.0000000  2
   2459   2457   2461   2463     1  180.0000771  0.3347200  3
   2459   2457   2461   3953     1  180.0000771  0.0000000  2
   2460   3942   3933   3934     1  0.0000000  0.0000000  2
   2460   3942   3933   3935     1  0.0000000  0.0000000  2
   2461   3953   3944   3945     1  0.0000000  0.0000000  2
   2461   3953   3944   3946     1  0.0000000  0.0000000  2
   2462   2460   3942   3943     1  0.0000000  8.3680000  1
   2462   2460   3942   3943     1  180.0000771  10.4600000  2
   2463   2461   3953   3954     1  0.0000000  8.3680000  1
   2463   2461   3953   3954     1  180.0000771  10.4600000  2
   2466   2469   2489   2490     1  0.0000000  0.0000000  2
   2466   2472   2473   2474     1  0.0000000  1.2552000  3
   2466   2472   2473   2475     1  0.0000000  1.2552000  3
   2466   2472   2476   2477     1  0.0000000  1.2552000  3
   2466   2472   2476   2478     1  0.0000000  1.2552000  3
   2467   2466   2469   2489     1  0.0000000  0.6508444  3
   2467   2466   2469   2470     1  0.0000000  0.6508444  3
   2467   2466   2469   2471     1  0.0000000  0.6508444  3
   2467   2466   2472   2473     1  0.0000000  1.2552000  3
   2467   2466   2472   2476     1  0.0000000  1.2552000  3
   2468   2466   2469   2489     1  0.0000000  0.6508444  3
   2468   2466   2469   2470     1  0.0000000  0.6508444  3
   2468   2466   2469   2471     1  0.0000000  0.6508444  3
   2468   2466   2472   2473     1  0.0000000  1.2552000  3
   2468   2466   2472   2476     1  0.0000000  1.2552000  3
   2470   2469   2466   2472     1  0.0000000  0.6508444  3
   2470   2469   2489   2490     1  0.0000000  0.0000000  2
   2471   2469   2466   2472     1  0.0000000  0.6508444  3
   2471   2469   2489   2490     1  0.0000000  0.0000000  2
   2472   2473   2482   2483     1  0.0000000  0.6508444  3
   2472   2473   2482   2484     1  0.0000000  0.6508444  3
   2472   2476   2479   2480     1  0.0000000  0.6508444  3
   2472   2476   2479   2481     1  0.0000000  0.6508444  3
   2473   2472   2476   2477     1  0.0000000  1.2552000  3
   2473   2472   2476   2478     1  0.0000000  1.2552000  3
   2474   2473   2472   2476     1  0.0000000  1.2552000  3
   2474   2473   2482   2486     1  0.0000000  0.6508444  3
   2474   2473   2482   2483     1  0.0000000  0.6508444  3
   2474   2473   2482   2484     1  0.0000000  0.6508444  3
   2475   2473   2472   2476     1  0.0000000  1.2552000  3
   2475   2473   2482   2486     1  0.0000000  0.6508444  3
   2475   2473   2482   2483     1  0.0000000  0.6508444  3
   2475   2473   2482   2484     1  0.0000000  0.6508444  3
   2477   2476   2479   2485     1  0.0000000  0.6508444  3
   2477   2476   2479   2480     1  0.0000000  0.6508444  3
   2477   2476   2479   2481     1  0.0000000  0.6508444  3
   2478   2476   2479   2485     1  0.0000000  0.6508444  3
   2478   2476   2479   2480     1  0.0000000  0.6508444  3
   2478   2476   2479   2481     1  0.0000000  0.6508444  3
   2479   2485   3964   3965     1  180.0000771  10.4600000  2
   2480   2479   2485   3964     1  180.0000771  0.0000000  2
   2480   2479   2485   2487     1  0.0000000  3.3472000  1
   2480   2479   2485   2487     1  0.0000000  0.0000000  2
   2480   2479   2485   2487     1  180.0000771  0.3347200  3
   2481   2479   2485   3964     1  180.0000771  0.0000000  2
   2481   2479   2485   2487     1  0.0000000  3.3472000  1
   2481   2479   2485   2487     1  0.0000000  0.0000000  2
   2481   2479   2485   2487     1  180.0000771  0.3347200  3
   2482   2486   3975   3976     1  180.0000771  10.4600000  2
   2483   2482   2486   2488     1  0.0000000  3.3472000  1
   2483   2482   2486   2488     1  0.0000000  0.0000000  2
   2483   2482   2486   2488     1  180.0000771  0.3347200  3
   2483   2482   2486   3975     1  180.0000771  0.0000000  2
   2484   2482   2486   2488     1  0.0000000  3.3472000  1
   2484   2482   2486   2488     1  0.0000000  0.0000000  2
   2484   2482   2486   2488     1  180.0000771  0.3347200  3
   2484   2482   2486   3975     1  180.0000771  0.0000000  2
   2485   3964   3955   3956     1  0.0000000  0.0000000  2
   2485   3964   3955   3957     1  0.0000000  0.0000000  2
   2486   3975   3966   3967     1  0.0000000  0.0000000  2
   2486   3975   3966   3968     1  0.0000000  0.0000000  2
   2487   2485   3964   3965     1  0.0000000  8.3680000  1
   2487   2485   3964   3965     1  180.0000771  10.4600000  2
   2488   2486   3975   3976     1  0.0000000  8.3680000  1
   2488   2486   3975   3976     1  180.0000771  10.4600000  2
   2491   2494   2514   2515     1  0.0000000  0.0000000  2
   2491   2497   2498   2499     1  0.0000000  1.2552000  3
   2491   2497   2498   2500     1  0.0000000  1.2552000  3
   2491   2497   2501   2502     1  0.0000000  1.2552000  3
   2491   2497   2501   2503     1  0.0000000  1.2552000  3
   2492   2491   2494   2514     1  0.0000000  0.6508444  3
   2492   2491   2494   2495     1  0.0000000  0.6508444  3
   2492   2491   2494   2496     1  0.0000000  0.6508444  3
   2492   2491   2497   2498     1  0.0000000  1.2552000  3
   2492   2491   2497   2501     1  0.0000000  1.2552000  3
   2493   2491   2494   2514     1  0.0000000  0.6508444  3
   2493   2491   2494   2495     1  0.0000000  0.6508444  3
   2493   2491   2494   2496     1  0.0000000  0.6508444  3
   2493   2491   2497   2498     1  0.0000000  1.2552000  3
   2493   2491   2497   2501     1  0.0000000  1.2552000  3
   2495   2494   2491   2497     1  0.0000000  0.6508444  3
   2495   2494   2514   2515     1  0.0000000  0.0000000  2
   2496   2494   2491   2497     1  0.0000000  0.6508444  3
   2496   2494   2514   2515     1  0.0000000  0.0000000  2
   2497   2498   2507   2508     1  0.0000000  0.6508444  3
   2497   2498   2507   2509     1  0.0000000  0.6508444  3
   2497   2501   2504   2505     1  0.0000000  0.6508444  3
   2497   2501   2504   2506     1  0.0000000  0.6508444  3
   2498   2497   2501   2502     1  0.0000000  1.2552000  3
   2498   2497   2501   2503     1  0.0000000  1.2552000  3
   2499   2498   2497   2501     1  0.0000000  1.2552000  3
   2499   2498   2507   2511     1  0.0000000  0.6508444  3
   2499   2498   2507   2508     1  0.0000000  0.6508444  3
   2499   2498   2507   2509     1  0.0000000  0.6508444  3
   2500   2498   2497   2501     1  0.0000000  1.2552000  3
   2500   2498   2507   2511     1  0.0000000  0.6508444  3
   2500   2498   2507   2508     1  0.0000000  0.6508444  3
   2500   2498   2507   2509     1  0.0000000  0.6508444  3
   2502   2501   2504   2510     1  0.0000000  0.6508444  3
   2502   2501   2504   2505     1  0.0000000  0.6508444  3
   2502   2501   2504   2506     1  0.0000000  0.6508444  3
   2503   2501   2504   2510     1  0.0000000  0.6508444  3
   2503   2501   2504   2505     1  0.0000000  0.6508444  3
   2503   2501   2504   2506     1  0.0000000  0.6508444  3
   2504   2510   3986   3987     1  180.0000771  10.4600000  2
   2505   2504   2510   3986     1  180.0000771  0.0000000  2
   2505   2504   2510   2512     1  0.0000000  3.3472000  1
   2505   2504   2510   2512     1  0.0000000  0.0000000  2
   2505   2504   2510   2512     1  180.0000771  0.3347200  3
   2506   2504   2510   3986     1  180.0000771  0.0000000  2
   2506   2504   2510   2512     1  0.0000000  3.3472000  1
   2506   2504   2510   2512     1  0.0000000  0.0000000  2
   2506   2504   2510   2512     1  180.0000771  0.3347200  3
   2507   2511   3997   3998     1  180.0000771  10.4600000  2
   2508   2507   2511   2513     1  0.0000000  3.3472000  1
   2508   2507   2511   2513     1  0.0000000  0.0000000  2
   2508   2507   2511   2513     1  180.0000771  0.3347200  3
   2508   2507   2511   3997     1  180.0000771  0.0000000  2
   2509   2507   2511   2513     1  0.0000000  3.3472000  1
   2509   2507   2511   2513     1  0.0000000  0.0000000  2
   2509   2507   2511   2513     1  180.0000771  0.3347200  3
   2509   2507   2511   3997     1  180.0000771  0.0000000  2
   2510   3986   3977   3978     1  0.0000000  0.0000000  2
   2510   3986   3977   3979     1  0.0000000  0.0000000  2
   2511   3997   3988   3989     1  0.0000000  0.0000000  2
   2511   3997   3988   3990     1  0.0000000  0.0000000  2
   2512   2510   3986   3987     1  0.0000000  8.3680000  1
   2512   2510   3986   3987     1  180.0000771  10.4600000  2
   2513   2511   3997   3998     1  0.0000000  8.3680000  1
   2513   2511   3997   3998     1  180.0000771  10.4600000  2
   2516   2519   2539   2540     1  0.0000000  0.0000000  2
   2516   2522   2523   2524     1  0.0000000  1.2552000  3
   2516   2522   2523   2525     1  0.0000000  1.2552000  3
   2516   2522   2526   2527     1  0.0000000  1.2552000  3
   2516   2522   2526   2528     1  0.0000000  1.2552000  3
   2517   2516   2519   2539     1  0.0000000  0.6508444  3
   2517   2516   2519   2520     1  0.0000000  0.6508444  3
   2517   2516   2519   2521     1  0.0000000  0.6508444  3
   2517   2516   2522   2523     1  0.0000000  1.2552000  3
   2517   2516   2522   2526     1  0.0000000  1.2552000  3
   2518   2516   2519   2539     1  0.0000000  0.6508444  3
   2518   2516   2519   2520     1  0.0000000  0.6508444  3
   2518   2516   2519   2521     1  0.0000000  0.6508444  3
   2518   2516   2522   2523     1  0.0000000  1.2552000  3
   2518   2516   2522   2526     1  0.0000000  1.2552000  3
   2520   2519   2516   2522     1  0.0000000  0.6508444  3
   2520   2519   2539   2540     1  0.0000000  0.0000000  2
   2521   2519   2516   2522     1  0.0000000  0.6508444  3
   2521   2519   2539   2540     1  0.0000000  0.0000000  2
   2522   2523   2532   2533     1  0.0000000  0.6508444  3
   2522   2523   2532   2534     1  0.0000000  0.6508444  3
   2522   2526   2529   2530     1  0.0000000  0.6508444  3
   2522   2526   2529   2531     1  0.0000000  0.6508444  3
   2523   2522   2526   2527     1  0.0000000  1.2552000  3
   2523   2522   2526   2528     1  0.0000000  1.2552000  3
   2524   2523   2522   2526     1  0.0000000  1.2552000  3
   2524   2523   2532   2536     1  0.0000000  0.6508444  3
   2524   2523   2532   2533     1  0.0000000  0.6508444  3
   2524   2523   2532   2534     1  0.0000000  0.6508444  3
   2525   2523   2522   2526     1  0.0000000  1.2552000  3
   2525   2523   2532   2536     1  0.0000000  0.6508444  3
   2525   2523   2532   2533     1  0.0000000  0.6508444  3
   2525   2523   2532   2534     1  0.0000000  0.6508444  3
   2527   2526   2529   2535     1  0.0000000  0.6508444  3
   2527   2526   2529   2530     1  0.0000000  0.6508444  3
   2527   2526   2529   2531     1  0.0000000  0.6508444  3
   2528   2526   2529   2535     1  0.0000000  0.6508444  3
   2528   2526   2529   2530     1  0.0000000  0.6508444  3
   2528   2526   2529   2531     1  0.0000000  0.6508444  3
   2529   2535   4008   4009     1  180.0000771  10.4600000  2
   2530   2529   2535   4008     1  180.0000771  0.0000000  2
   2530   2529   2535   2537     1  0.0000000  3.3472000  1
   2530   2529   2535   2537     1  0.0000000  0.0000000  2
   2530   2529   2535   2537     1  180.0000771  0.3347200  3
   2531   2529   2535   4008     1  180.0000771  0.0000000  2
   2531   2529   2535   2537     1  0.0000000  3.3472000  1
   2531   2529   2535   2537     1  0.0000000  0.0000000  2
   2531   2529   2535   2537     1  180.0000771  0.3347200  3
   2532   2536   4019   4020     1  180.0000771  10.4600000  2
   2533   2532   2536   2538     1  0.0000000  3.3472000  1
   2533   2532   2536   2538     1  0.0000000  0.0000000  2
   2533   2532   2536   2538     1  180.0000771  0.3347200  3
   2533   2532   2536   4019     1  180.0000771  0.0000000  2
   2534   2532   2536   2538     1  0.0000000  3.3472000  1
   2534   2532   2536   2538     1  0.0000000  0.0000000  2
   2534   2532   2536   2538     1  180.0000771  0.3347200  3
   2534   2532   2536   4019     1  180.0000771  0.0000000  2
   2535   4008   3999   4000     1  0.0000000  0.0000000  2
   2535   4008   3999   4001     1  0.0000000  0.0000000  2
   2536   4019   4010   4011     1  0.0000000  0.0000000  2
   2536   4019   4010   4012     1  0.0000000  0.0000000  2
   2537   2535   4008   4009     1  0.0000000  8.3680000  1
   2537   2535   4008   4009     1  180.0000771  10.4600000  2
   2538   2536   4019   4020     1  0.0000000  8.3680000  1
   2538   2536   4019   4020     1  180.0000771  10.4600000  2
   2541   2544   2564   2565     1  0.0000000  0.0000000  2
   2541   2547   2548   2549     1  0.0000000  1.2552000  3
   2541   2547   2548   2550     1  0.0000000  1.2552000  3
   2541   2547   2551   2552     1  0.0000000  1.2552000  3
   2541   2547   2551   2553     1  0.0000000  1.2552000  3
   2542   2541   2544   2564     1  0.0000000  0.6508444  3
   2542   2541   2544   2545     1  0.0000000  0.6508444  3
   2542   2541   2544   2546     1  0.0000000  0.6508444  3
   2542   2541   2547   2548     1  0.0000000  1.2552000  3
   2542   2541   2547   2551     1  0.0000000  1.2552000  3
   2543   2541   2544   2564     1  0.0000000  0.6508444  3
   2543   2541   2544   2545     1  0.0000000  0.6508444  3
   2543   2541   2544   2546     1  0.0000000  0.6508444  3
   2543   2541   2547   2548     1  0.0000000  1.2552000  3
   2543   2541   2547   2551     1  0.0000000  1.2552000  3
   2545   2544   2541   2547     1  0.0000000  0.6508444  3
   2545   2544   2564   2565     1  0.0000000  0.0000000  2
   2546   2544   2541   2547     1  0.0000000  0.6508444  3
   2546   2544   2564   2565     1  0.0000000  0.0000000  2
   2547   2548   2557   2558     1  0.0000000  0.6508444  3
   2547   2548   2557   2559     1  0.0000000  0.6508444  3
   2547   2551   2554   2555     1  0.0000000  0.6508444  3
   2547   2551   2554   2556     1  0.0000000  0.6508444  3
   2548   2547   2551   2552     1  0.0000000  1.2552000  3
   2548   2547   2551   2553     1  0.0000000  1.2552000  3
   2549   2548   2547   2551     1  0.0000000  1.2552000  3
   2549   2548   2557   2561     1  0.0000000  0.6508444  3
   2549   2548   2557   2558     1  0.0000000  0.6508444  3
   2549   2548   2557   2559     1  0.0000000  0.6508444  3
   2550   2548   2547   2551     1  0.0000000  1.2552000  3
   2550   2548   2557   2561     1  0.0000000  0.6508444  3
   2550   2548   2557   2558     1  0.0000000  0.6508444  3
   2550   2548   2557   2559     1  0.0000000  0.6508444  3
   2552   2551   2554   2560     1  0.0000000  0.6508444  3
   2552   2551   2554   2555     1  0.0000000  0.6508444  3
   2552   2551   2554   2556     1  0.0000000  0.6508444  3
   2553   2551   2554   2560     1  0.0000000  0.6508444  3
   2553   2551   2554   2555     1  0.0000000  0.6508444  3
   2553   2551   2554   2556     1  0.0000000  0.6508444  3
   2554   2560   4030   4031     1  180.0000771  10.4600000  2
   2555   2554   2560   4030     1  180.0000771  0.0000000  2
   2555   2554   2560   2562     1  0.0000000  3.3472000  1
   2555   2554   2560   2562     1  0.0000000  0.0000000  2
   2555   2554   2560   2562     1  180.0000771  0.3347200  3
   2556   2554   2560   4030     1  180.0000771  0.0000000  2
   2556   2554   2560   2562     1  0.0000000  3.3472000  1
   2556   2554   2560   2562     1  0.0000000  0.0000000  2
   2556   2554   2560   2562     1  180.0000771  0.3347200  3
   2557   2561   4041   4042     1  180.0000771  10.4600000  2
   2558   2557   2561   2563     1  0.0000000  3.3472000  1
   2558   2557   2561   2563     1  0.0000000  0.0000000  2
   2558   2557   2561   2563     1  180.0000771  0.3347200  3
   2558   2557   2561   4041     1  180.0000771  0.0000000  2
   2559   2557   2561   2563     1  0.0000000  3.3472000  1
   2559   2557   2561   2563     1  0.0000000  0.0000000  2
   2559   2557   2561   2563     1  180.0000771  0.3347200  3
   2559   2557   2561   4041     1  180.0000771  0.0000000  2
   2560   4030   4021   4022     1  0.0000000  0.0000000  2
   2560   4030   4021   4023     1  0.0000000  0.0000000  2
   2561   4041   4032   4033     1  0.0000000  0.0000000  2
   2561   4041   4032   4034     1  0.0000000  0.0000000  2
   2562   2560   4030   4031     1  0.0000000  8.3680000  1
   2562   2560   4030   4031     1  180.0000771  10.4600000  2
   2563   2561   4041   4042     1  0.0000000  8.3680000  1
   2563   2561   4041   4042     1  180.0000771  10.4600000  2
   2566   2569   2589   2590     1  0.0000000  0.0000000  2
   2566   2572   2573   2574     1  0.0000000  1.2552000  3
   2566   2572   2573   2575     1  0.0000000  1.2552000  3
   2566   2572   2576   2577     1  0.0000000  1.2552000  3
   2566   2572   2576   2578     1  0.0000000  1.2552000  3
   2567   2566   2569   2589     1  0.0000000  0.6508444  3
   2567   2566   2569   2570     1  0.0000000  0.6508444  3
   2567   2566   2569   2571     1  0.0000000  0.6508444  3
   2567   2566   2572   2573     1  0.0000000  1.2552000  3
   2567   2566   2572   2576     1  0.0000000  1.2552000  3
   2568   2566   2569   2589     1  0.0000000  0.6508444  3
   2568   2566   2569   2570     1  0.0000000  0.6508444  3
   2568   2566   2569   2571     1  0.0000000  0.6508444  3
   2568   2566   2572   2573     1  0.0000000  1.2552000  3
   2568   2566   2572   2576     1  0.0000000  1.2552000  3
   2570   2569   2566   2572     1  0.0000000  0.6508444  3
   2570   2569   2589   2590     1  0.0000000  0.0000000  2
   2571   2569   2566   2572     1  0.0000000  0.6508444  3
   2571   2569   2589   2590     1  0.0000000  0.0000000  2
   2572   2573   2582   2583     1  0.0000000  0.6508444  3
   2572   2573   2582   2584     1  0.0000000  0.6508444  3
   2572   2576   2579   2580     1  0.0000000  0.6508444  3
   2572   2576   2579   2581     1  0.0000000  0.6508444  3
   2573   2572   2576   2577     1  0.0000000  1.2552000  3
   2573   2572   2576   2578     1  0.0000000  1.2552000  3
   2574   2573   2572   2576     1  0.0000000  1.2552000  3
   2574   2573   2582   2586     1  0.0000000  0.6508444  3
   2574   2573   2582   2583     1  0.0000000  0.6508444  3
   2574   2573   2582   2584     1  0.0000000  0.6508444  3
   2575   2573   2572   2576     1  0.0000000  1.2552000  3
   2575   2573   2582   2586     1  0.0000000  0.6508444  3
   2575   2573   2582   2583     1  0.0000000  0.6508444  3
   2575   2573   2582   2584     1  0.0000000  0.6508444  3
   2577   2576   2579   2585     1  0.0000000  0.6508444  3
   2577   2576   2579   2580     1  0.0000000  0.6508444  3
   2577   2576   2579   2581     1  0.0000000  0.6508444  3
   2578   2576   2579   2585     1  0.0000000  0.6508444  3
   2578   2576   2579   2580     1  0.0000000  0.6508444  3
   2578   2576   2579   2581     1  0.0000000  0.6508444  3
   2579   2585   4052   4053     1  180.0000771  10.4600000  2
   2580   2579   2585   4052     1  180.0000771  0.0000000  2
   2580   2579   2585   2587     1  0.0000000  3.3472000  1
   2580   2579   2585   2587     1  0.0000000  0.0000000  2
   2580   2579   2585   2587     1  180.0000771  0.3347200  3
   2581   2579   2585   4052     1  180.0000771  0.0000000  2
   2581   2579   2585   2587     1  0.0000000  3.3472000  1
   2581   2579   2585   2587     1  0.0000000  0.0000000  2
   2581   2579   2585   2587     1  180.0000771  0.3347200  3
   2582   2586   4063   4064     1  180.0000771  10.4600000  2
   2583   2582   2586   2588     1  0.0000000  3.3472000  1
   2583   2582   2586   2588     1  0.0000000  0.0000000  2
   2583   2582   2586   2588     1  180.0000771  0.3347200  3
   2583   2582   2586   4063     1  180.0000771  0.0000000  2
   2584   2582   2586   2588     1  0.0000000  3.3472000  1
   2584   2582   2586   2588     1  0.0000000  0.0000000  2
   2584   2582   2586   2588     1  180.0000771  0.3347200  3
   2584   2582   2586   4063     1  180.0000771  0.0000000  2
   2585   4052   4043   4044     1  0.0000000  0.0000000  2
   2585   4052   4043   4045     1  0.0000000  0.0000000  2
   2586   4063   4054   4055     1  0.0000000  0.0000000  2
   2586   4063   4054   4056     1  0.0000000  0.0000000  2
   2587   2585   4052   4053     1  0.0000000  8.3680000  1
   2587   2585   4052   4053     1  180.0000771  10.4600000  2
   2588   2586   4063   4064     1  0.0000000  8.3680000  1
   2588   2586   4063   4064     1  180.0000771  10.4600000  2
   2591   2594   2614   2615     1  0.0000000  0.0000000  2
   2591   2597   2598   2599     1  0.0000000  1.2552000  3
   2591   2597   2598   2600     1  0.0000000  1.2552000  3
   2591   2597   2601   2602     1  0.0000000  1.2552000  3
   2591   2597   2601   2603     1  0.0000000  1.2552000  3
   2592   2591   2594   2614     1  0.0000000  0.6508444  3
   2592   2591   2594   2595     1  0.0000000  0.6508444  3
   2592   2591   2594   2596     1  0.0000000  0.6508444  3
   2592   2591   2597   2598     1  0.0000000  1.2552000  3
   2592   2591   2597   2601     1  0.0000000  1.2552000  3
   2593   2591   2594   2614     1  0.0000000  0.6508444  3
   2593   2591   2594   2595     1  0.0000000  0.6508444  3
   2593   2591   2594   2596     1  0.0000000  0.6508444  3
   2593   2591   2597   2598     1  0.0000000  1.2552000  3
   2593   2591   2597   2601     1  0.0000000  1.2552000  3
   2595   2594   2591   2597     1  0.0000000  0.6508444  3
   2595   2594   2614   2615     1  0.0000000  0.0000000  2
   2596   2594   2591   2597     1  0.0000000  0.6508444  3
   2596   2594   2614   2615     1  0.0000000  0.0000000  2
   2597   2598   2607   2608     1  0.0000000  0.6508444  3
   2597   2598   2607   2609     1  0.0000000  0.6508444  3
   2597   2601   2604   2605     1  0.0000000  0.6508444  3
   2597   2601   2604   2606     1  0.0000000  0.6508444  3
   2598   2597   2601   2602     1  0.0000000  1.2552000  3
   2598   2597   2601   2603     1  0.0000000  1.2552000  3
   2599   2598   2597   2601     1  0.0000000  1.2552000  3
   2599   2598   2607   2611     1  0.0000000  0.6508444  3
   2599   2598   2607   2608     1  0.0000000  0.6508444  3
   2599   2598   2607   2609     1  0.0000000  0.6508444  3
   2600   2598   2597   2601     1  0.0000000  1.2552000  3
   2600   2598   2607   2611     1  0.0000000  0.6508444  3
   2600   2598   2607   2608     1  0.0000000  0.6508444  3
   2600   2598   2607   2609     1  0.0000000  0.6508444  3
   2602   2601   2604   2610     1  0.0000000  0.6508444  3
   2602   2601   2604   2605     1  0.0000000  0.6508444  3
   2602   2601   2604   2606     1  0.0000000  0.6508444  3
   2603   2601   2604   2610     1  0.0000000  0.6508444  3
   2603   2601   2604   2605     1  0.0000000  0.6508444  3
   2603   2601   2604   2606     1  0.0000000  0.6508444  3
   2604   2610   4074   4075     1  180.0000771  10.4600000  2
   2605   2604   2610   4074     1  180.0000771  0.0000000  2
   2605   2604   2610   2612     1  0.0000000  3.3472000  1
   2605   2604   2610   2612     1  0.0000000  0.0000000  2
   2605   2604   2610   2612     1  180.0000771  0.3347200  3
   2606   2604   2610   4074     1  180.0000771  0.0000000  2
   2606   2604   2610   2612     1  0.0000000  3.3472000  1
   2606   2604   2610   2612     1  0.0000000  0.0000000  2
   2606   2604   2610   2612     1  180.0000771  0.3347200  3
   2607   2611   4085   4086     1  180.0000771  10.4600000  2
   2608   2607   2611   2613     1  0.0000000  3.3472000  1
   2608   2607   2611   2613     1  0.0000000  0.0000000  2
   2608   2607   2611   2613     1  180.0000771  0.3347200  3
   2608   2607   2611   4085     1  180.0000771  0.0000000  2
   2609   2607   2611   2613     1  0.0000000  3.3472000  1
   2609   2607   2611   2613     1  0.0000000  0.0000000  2
   2609   2607   2611   2613     1  180.0000771  0.3347200  3
   2609   2607   2611   4085     1  180.0000771  0.0000000  2
   2610   4074   4065   4066     1  0.0000000  0.0000000  2
   2610   4074   4065   4067     1  0.0000000  0.0000000  2
   2611   4085   4076   4077     1  0.0000000  0.0000000  2
   2611   4085   4076   4078     1  0.0000000  0.0000000  2
   2612   2610   4074   4075     1  0.0000000  8.3680000  1
   2612   2610   4074   4075     1  180.0000771  10.4600000  2
   2613   2611   4085   4086     1  0.0000000  8.3680000  1
   2613   2611   4085   4086     1  180.0000771  10.4600000  2
   2616   2619   2639   2640     1  0.0000000  0.0000000  2
   2616   2622   2623   2624     1  0.0000000  1.2552000  3
   2616   2622   2623   2625     1  0.0000000  1.2552000  3
   2616   2622   2626   2627     1  0.0000000  1.2552000  3
   2616   2622   2626   2628     1  0.0000000  1.2552000  3
   2617   2616   2619   2639     1  0.0000000  0.6508444  3
   2617   2616   2619   2620     1  0.0000000  0.6508444  3
   2617   2616   2619   2621     1  0.0000000  0.6508444  3
   2617   2616   2622   2623     1  0.0000000  1.2552000  3
   2617   2616   2622   2626     1  0.0000000  1.2552000  3
   2618   2616   2619   2639     1  0.0000000  0.6508444  3
   2618   2616   2619   2620     1  0.0000000  0.6508444  3
   2618   2616   2619   2621     1  0.0000000  0.6508444  3
   2618   2616   2622   2623     1  0.0000000  1.2552000  3
   2618   2616   2622   2626     1  0.0000000  1.2552000  3
   2620   2619   2616   2622     1  0.0000000  0.6508444  3
   2620   2619   2639   2640     1  0.0000000  0.0000000  2
   2621   2619   2616   2622     1  0.0000000  0.6508444  3
   2621   2619   2639   2640     1  0.0000000  0.0000000  2
   2622   2623   2632   2633     1  0.0000000  0.6508444  3
   2622   2623   2632   2634     1  0.0000000  0.6508444  3
   2622   2626   2629   2630     1  0.0000000  0.6508444  3
   2622   2626   2629   2631     1  0.0000000  0.6508444  3
   2623   2622   2626   2627     1  0.0000000  1.2552000  3
   2623   2622   2626   2628     1  0.0000000  1.2552000  3
   2624   2623   2622   2626     1  0.0000000  1.2552000  3
   2624   2623   2632   2636     1  0.0000000  0.6508444  3
   2624   2623   2632   2633     1  0.0000000  0.6508444  3
   2624   2623   2632   2634     1  0.0000000  0.6508444  3
   2625   2623   2622   2626     1  0.0000000  1.2552000  3
   2625   2623   2632   2636     1  0.0000000  0.6508444  3
   2625   2623   2632   2633     1  0.0000000  0.6508444  3
   2625   2623   2632   2634     1  0.0000000  0.6508444  3
   2627   2626   2629   2635     1  0.0000000  0.6508444  3
   2627   2626   2629   2630     1  0.0000000  0.6508444  3
   2627   2626   2629   2631     1  0.0000000  0.6508444  3
   2628   2626   2629   2635     1  0.0000000  0.6508444  3
   2628   2626   2629   2630     1  0.0000000  0.6508444  3
   2628   2626   2629   2631     1  0.0000000  0.6508444  3
   2629   2635   4096   4097     1  180.0000771  10.4600000  2
   2630   2629   2635   4096     1  180.0000771  0.0000000  2
   2630   2629   2635   2637     1  0.0000000  3.3472000  1
   2630   2629   2635   2637     1  0.0000000  0.0000000  2
   2630   2629   2635   2637     1  180.0000771  0.3347200  3
   2631   2629   2635   4096     1  180.0000771  0.0000000  2
   2631   2629   2635   2637     1  0.0000000  3.3472000  1
   2631   2629   2635   2637     1  0.0000000  0.0000000  2
   2631   2629   2635   2637     1  180.0000771  0.3347200  3
   2632   2636   4107   4108     1  180.0000771  10.4600000  2
   2633   2632   2636   2638     1  0.0000000  3.3472000  1
   2633   2632   2636   2638     1  0.0000000  0.0000000  2
   2633   2632   2636   2638     1  180.0000771  0.3347200  3
   2633   2632   2636   4107     1  180.0000771  0.0000000  2
   2634   2632   2636   2638     1  0.0000000  3.3472000  1
   2634   2632   2636   2638     1  0.0000000  0.0000000  2
   2634   2632   2636   2638     1  180.0000771  0.3347200  3
   2634   2632   2636   4107     1  180.0000771  0.0000000  2
   2635   4096   4087   4088     1  0.0000000  0.0000000  2
   2635   4096   4087   4089     1  0.0000000  0.0000000  2
   2636   4107   4098   4099     1  0.0000000  0.0000000  2
   2636   4107   4098   4100     1  0.0000000  0.0000000  2
   2637   2635   4096   4097     1  0.0000000  8.3680000  1
   2637   2635   4096   4097     1  180.0000771  10.4600000  2
   2638   2636   4107   4108     1  0.0000000  8.3680000  1
   2638   2636   4107   4108     1  180.0000771  10.4600000  2
   2641   2644   2664   2665     1  0.0000000  0.0000000  2
   2641   2647   2648   2649     1  0.0000000  1.2552000  3
   2641   2647   2648   2650     1  0.0000000  1.2552000  3
   2641   2647   2651   2652     1  0.0000000  1.2552000  3
   2641   2647   2651   2653     1  0.0000000  1.2552000  3
   2642   2641   2644   2664     1  0.0000000  0.6508444  3
   2642   2641   2644   2645     1  0.0000000  0.6508444  3
   2642   2641   2644   2646     1  0.0000000  0.6508444  3
   2642   2641   2647   2648     1  0.0000000  1.2552000  3
   2642   2641   2647   2651     1  0.0000000  1.2552000  3
   2643   2641   2644   2664     1  0.0000000  0.6508444  3
   2643   2641   2644   2645     1  0.0000000  0.6508444  3
   2643   2641   2644   2646     1  0.0000000  0.6508444  3
   2643   2641   2647   2648     1  0.0000000  1.2552000  3
   2643   2641   2647   2651     1  0.0000000  1.2552000  3
   2645   2644   2641   2647     1  0.0000000  0.6508444  3
   2645   2644   2664   2665     1  0.0000000  0.0000000  2
   2646   2644   2641   2647     1  0.0000000  0.6508444  3
   2646   2644   2664   2665     1  0.0000000  0.0000000  2
   2647   2648   2657   2658     1  0.0000000  0.6508444  3
   2647   2648   2657   2659     1  0.0000000  0.6508444  3
   2647   2651   2654   2655     1  0.0000000  0.6508444  3
   2647   2651   2654   2656     1  0.0000000  0.6508444  3
   2648   2647   2651   2652     1  0.0000000  1.2552000  3
   2648   2647   2651   2653     1  0.0000000  1.2552000  3
   2649   2648   2647   2651     1  0.0000000  1.2552000  3
   2649   2648   2657   2661     1  0.0000000  0.6508444  3
   2649   2648   2657   2658     1  0.0000000  0.6508444  3
   2649   2648   2657   2659     1  0.0000000  0.6508444  3
   2650   2648   2647   2651     1  0.0000000  1.2552000  3
   2650   2648   2657   2661     1  0.0000000  0.6508444  3
   2650   2648   2657   2658     1  0.0000000  0.6508444  3
   2650   2648   2657   2659     1  0.0000000  0.6508444  3
   2652   2651   2654   2660     1  0.0000000  0.6508444  3
   2652   2651   2654   2655     1  0.0000000  0.6508444  3
   2652   2651   2654   2656     1  0.0000000  0.6508444  3
   2653   2651   2654   2660     1  0.0000000  0.6508444  3
   2653   2651   2654   2655     1  0.0000000  0.6508444  3
   2653   2651   2654   2656     1  0.0000000  0.6508444  3
   2654   2660   4118   4119     1  180.0000771  10.4600000  2
   2655   2654   2660   4118     1  180.0000771  0.0000000  2
   2655   2654   2660   2662     1  0.0000000  3.3472000  1
   2655   2654   2660   2662     1  0.0000000  0.0000000  2
   2655   2654   2660   2662     1  180.0000771  0.3347200  3
   2656   2654   2660   4118     1  180.0000771  0.0000000  2
   2656   2654   2660   2662     1  0.0000000  3.3472000  1
   2656   2654   2660   2662     1  0.0000000  0.0000000  2
   2656   2654   2660   2662     1  180.0000771  0.3347200  3
   2657   2661   4129   4130     1  180.0000771  10.4600000  2
   2658   2657   2661   2663     1  0.0000000  3.3472000  1
   2658   2657   2661   2663     1  0.0000000  0.0000000  2
   2658   2657   2661   2663     1  180.0000771  0.3347200  3
   2658   2657   2661   4129     1  180.0000771  0.0000000  2
   2659   2657   2661   2663     1  0.0000000  3.3472000  1
   2659   2657   2661   2663     1  0.0000000  0.0000000  2
   2659   2657   2661   2663     1  180.0000771  0.3347200  3
   2659   2657   2661   4129     1  180.0000771  0.0000000  2
   2660   4118   4109   4110     1  0.0000000  0.0000000  2
   2660   4118   4109   4111     1  0.0000000  0.0000000  2
   2661   4129   4120   4121     1  0.0000000  0.0000000  2
   2661   4129   4120   4122     1  0.0000000  0.0000000  2
   2662   2660   4118   4119     1  0.0000000  8.3680000  1
   2662   2660   4118   4119     1  180.0000771  10.4600000  2
   2663   2661   4129   4130     1  0.0000000  8.3680000  1
   2663   2661   4129   4130     1  180.0000771  10.4600000  2
   2666   2669   2689   2690     1  0.0000000  0.0000000  2
   2666   2672   2673   2674     1  0.0000000  1.2552000  3
   2666   2672   2673   2675     1  0.0000000  1.2552000  3
   2666   2672   2676   2677     1  0.0000000  1.2552000  3
   2666   2672   2676   2678     1  0.0000000  1.2552000  3
   2667   2666   2669   2689     1  0.0000000  0.6508444  3
   2667   2666   2669   2670     1  0.0000000  0.6508444  3
   2667   2666   2669   2671     1  0.0000000  0.6508444  3
   2667   2666   2672   2673     1  0.0000000  1.2552000  3
   2667   2666   2672   2676     1  0.0000000  1.2552000  3
   2668   2666   2669   2689     1  0.0000000  0.6508444  3
   2668   2666   2669   2670     1  0.0000000  0.6508444  3
   2668   2666   2669   2671     1  0.0000000  0.6508444  3
   2668   2666   2672   2673     1  0.0000000  1.2552000  3
   2668   2666   2672   2676     1  0.0000000  1.2552000  3
   2670   2669   2666   2672     1  0.0000000  0.6508444  3
   2670   2669   2689   2690     1  0.0000000  0.0000000  2
   2671   2669   2666   2672     1  0.0000000  0.6508444  3
   2671   2669   2689   2690     1  0.0000000  0.0000000  2
   2672   2673   2682   2683     1  0.0000000  0.6508444  3
   2672   2673   2682   2684     1  0.0000000  0.6508444  3
   2672   2676   2679   2680     1  0.0000000  0.6508444  3
   2672   2676   2679   2681     1  0.0000000  0.6508444  3
   2673   2672   2676   2677     1  0.0000000  1.2552000  3
   2673   2672   2676   2678     1  0.0000000  1.2552000  3
   2674   2673   2672   2676     1  0.0000000  1.2552000  3
   2674   2673   2682   2686     1  0.0000000  0.6508444  3
   2674   2673   2682   2683     1  0.0000000  0.6508444  3
   2674   2673   2682   2684     1  0.0000000  0.6508444  3
   2675   2673   2672   2676     1  0.0000000  1.2552000  3
   2675   2673   2682   2686     1  0.0000000  0.6508444  3
   2675   2673   2682   2683     1  0.0000000  0.6508444  3
   2675   2673   2682   2684     1  0.0000000  0.6508444  3
   2677   2676   2679   2685     1  0.0000000  0.6508444  3
   2677   2676   2679   2680     1  0.0000000  0.6508444  3
   2677   2676   2679   2681     1  0.0000000  0.6508444  3
   2678   2676   2679   2685     1  0.0000000  0.6508444  3
   2678   2676   2679   2680     1  0.0000000  0.6508444  3
   2678   2676   2679   2681     1  0.0000000  0.6508444  3
   2679   2685   4140   4141     1  180.0000771  10.4600000  2
   2680   2679   2685   4140     1  180.0000771  0.0000000  2
   2680   2679   2685   2687     1  0.0000000  3.3472000  1
   2680   2679   2685   2687     1  0.0000000  0.0000000  2
   2680   2679   2685   2687     1  180.0000771  0.3347200  3
   2681   2679   2685   4140     1  180.0000771  0.0000000  2
   2681   2679   2685   2687     1  0.0000000  3.3472000  1
   2681   2679   2685   2687     1  0.0000000  0.0000000  2
   2681   2679   2685   2687     1  180.0000771  0.3347200  3
   2682   2686   4151   4152     1  180.0000771  10.4600000  2
   2683   2682   2686   2688     1  0.0000000  3.3472000  1
   2683   2682   2686   2688     1  0.0000000  0.0000000  2
   2683   2682   2686   2688     1  180.0000771  0.3347200  3
   2683   2682   2686   4151     1  180.0000771  0.0000000  2
   2684   2682   2686   2688     1  0.0000000  3.3472000  1
   2684   2682   2686   2688     1  0.0000000  0.0000000  2
   2684   2682   2686   2688     1  180.0000771  0.3347200  3
   2684   2682   2686   4151     1  180.0000771  0.0000000  2
   2685   4140   4131   4132     1  0.0000000  0.0000000  2
   2685   4140   4131   4133     1  0.0000000  0.0000000  2
   2686   4151   4142   4143     1  0.0000000  0.0000000  2
   2686   4151   4142   4144     1  0.0000000  0.0000000  2
   2687   2685   4140   4141     1  0.0000000  8.3680000  1
   2687   2685   4140   4141     1  180.0000771  10.4600000  2
   2688   2686   4151   4152     1  0.0000000  8.3680000  1
   2688   2686   4151   4152     1  180.0000771  10.4600000  2
   2691   2694   2714   2715     1  0.0000000  0.0000000  2
   2691   2697   2698   2699     1  0.0000000  1.2552000  3
   2691   2697   2698   2700     1  0.0000000  1.2552000  3
   2691   2697   2701   2702     1  0.0000000  1.2552000  3
   2691   2697   2701   2703     1  0.0000000  1.2552000  3
   2692   2691   2694   2714     1  0.0000000  0.6508444  3
   2692   2691   2694   2695     1  0.0000000  0.6508444  3
   2692   2691   2694   2696     1  0.0000000  0.6508444  3
   2692   2691   2697   2698     1  0.0000000  1.2552000  3
   2692   2691   2697   2701     1  0.0000000  1.2552000  3
   2693   2691   2694   2714     1  0.0000000  0.6508444  3
   2693   2691   2694   2695     1  0.0000000  0.6508444  3
   2693   2691   2694   2696     1  0.0000000  0.6508444  3
   2693   2691   2697   2698     1  0.0000000  1.2552000  3
   2693   2691   2697   2701     1  0.0000000  1.2552000  3
   2695   2694   2691   2697     1  0.0000000  0.6508444  3
   2695   2694   2714   2715     1  0.0000000  0.0000000  2
   2696   2694   2691   2697     1  0.0000000  0.6508444  3
   2696   2694   2714   2715     1  0.0000000  0.0000000  2
   2697   2698   2707   2708     1  0.0000000  0.6508444  3
   2697   2698   2707   2709     1  0.0000000  0.6508444  3
   2697   2701   2704   2705     1  0.0000000  0.6508444  3
   2697   2701   2704   2706     1  0.0000000  0.6508444  3
   2698   2697   2701   2702     1  0.0000000  1.2552000  3
   2698   2697   2701   2703     1  0.0000000  1.2552000  3
   2699   2698   2697   2701     1  0.0000000  1.2552000  3
   2699   2698   2707   2711     1  0.0000000  0.6508444  3
   2699   2698   2707   2708     1  0.0000000  0.6508444  3
   2699   2698   2707   2709     1  0.0000000  0.6508444  3
   2700   2698   2697   2701     1  0.0000000  1.2552000  3
   2700   2698   2707   2711     1  0.0000000  0.6508444  3
   2700   2698   2707   2708     1  0.0000000  0.6508444  3
   2700   2698   2707   2709     1  0.0000000  0.6508444  3
   2702   2701   2704   2710     1  0.0000000  0.6508444  3
   2702   2701   2704   2705     1  0.0000000  0.6508444  3
   2702   2701   2704   2706     1  0.0000000  0.6508444  3
   2703   2701   2704   2710     1  0.0000000  0.6508444  3
   2703   2701   2704   2705     1  0.0000000  0.6508444  3
   2703   2701   2704   2706     1  0.0000000  0.6508444  3
   2704   2710   4162   4163     1  180.0000771  10.4600000  2
   2705   2704   2710   4162     1  180.0000771  0.0000000  2
   2705   2704   2710   2712     1  0.0000000  3.3472000  1
   2705   2704   2710   2712     1  0.0000000  0.0000000  2
   2705   2704   2710   2712     1  180.0000771  0.3347200  3
   2706   2704   2710   4162     1  180.0000771  0.0000000  2
   2706   2704   2710   2712     1  0.0000000  3.3472000  1
   2706   2704   2710   2712     1  0.0000000  0.0000000  2
   2706   2704   2710   2712     1  180.0000771  0.3347200  3
   2707   2711   4173   4174     1  180.0000771  10.4600000  2
   2708   2707   2711   2713     1  0.0000000  3.3472000  1
   2708   2707   2711   2713     1  0.0000000  0.0000000  2
   2708   2707   2711   2713     1  180.0000771  0.3347200  3
   2708   2707   2711   4173     1  180.0000771  0.0000000  2
   2709   2707   2711   2713     1  0.0000000  3.3472000  1
   2709   2707   2711   2713     1  0.0000000  0.0000000  2
   2709   2707   2711   2713     1  180.0000771  0.3347200  3
   2709   2707   2711   4173     1  180.0000771  0.0000000  2
   2710   4162   4153   4154     1  0.0000000  0.0000000  2
   2710   4162   4153   4155     1  0.0000000  0.0000000  2
   2711   4173   4164   4165     1  0.0000000  0.0000000  2
   2711   4173   4164   4166     1  0.0000000  0.0000000  2
   2712   2710   4162   4163     1  0.0000000  8.3680000  1
   2712   2710   4162   4163     1  180.0000771  10.4600000  2
   2713   2711   4173   4174     1  0.0000000  8.3680000  1
   2713   2711   4173   4174     1  180.0000771  10.4600000  2
   2716   2719   2739   2740     1  0.0000000  0.0000000  2
   2716   2722   2723   2724     1  0.0000000  1.2552000  3
   2716   2722   2723   2725     1  0.0000000  1.2552000  3
   2716   2722   2726   2727     1  0.0000000  1.2552000  3
   2716   2722   2726   2728     1  0.0000000  1.2552000  3
   2717   2716   2719   2739     1  0.0000000  0.6508444  3
   2717   2716   2719   2720     1  0.0000000  0.6508444  3
   2717   2716   2719   2721     1  0.0000000  0.6508444  3
   2717   2716   2722   2723     1  0.0000000  1.2552000  3
   2717   2716   2722   2726     1  0.0000000  1.2552000  3
   2718   2716   2719   2739     1  0.0000000  0.6508444  3
   2718   2716   2719   2720     1  0.0000000  0.6508444  3
   2718   2716   2719   2721     1  0.0000000  0.6508444  3
   2718   2716   2722   2723     1  0.0000000  1.2552000  3
   2718   2716   2722   2726     1  0.0000000  1.2552000  3
   2720   2719   2716   2722     1  0.0000000  0.6508444  3
   2720   2719   2739   2740     1  0.0000000  0.0000000  2
   2721   2719   2716   2722     1  0.0000000  0.6508444  3
   2721   2719   2739   2740     1  0.0000000  0.0000000  2
   2722   2723   2732   2733     1  0.0000000  0.6508444  3
   2722   2723   2732   2734     1  0.0000000  0.6508444  3
   2722   2726   2729   2730     1  0.0000000  0.6508444  3
   2722   2726   2729   2731     1  0.0000000  0.6508444  3
   2723   2722   2726   2727     1  0.0000000  1.2552000  3
   2723   2722   2726   2728     1  0.0000000  1.2552000  3
   2724   2723   2722   2726     1  0.0000000  1.2552000  3
   2724   2723   2732   2736     1  0.0000000  0.6508444  3
   2724   2723   2732   2733     1  0.0000000  0.6508444  3
   2724   2723   2732   2734     1  0.0000000  0.6508444  3
   2725   2723   2722   2726     1  0.0000000  1.2552000  3
   2725   2723   2732   2736     1  0.0000000  0.6508444  3
   2725   2723   2732   2733     1  0.0000000  0.6508444  3
   2725   2723   2732   2734     1  0.0000000  0.6508444  3
   2727   2726   2729   2735     1  0.0000000  0.6508444  3
   2727   2726   2729   2730     1  0.0000000  0.6508444  3
   2727   2726   2729   2731     1  0.0000000  0.6508444  3
   2728   2726   2729   2735     1  0.0000000  0.6508444  3
   2728   2726   2729   2730     1  0.0000000  0.6508444  3
   2728   2726   2729   2731     1  0.0000000  0.6508444  3
   2729   2735   4184   4185     1  180.0000771  10.4600000  2
   2730   2729   2735   4184     1  180.0000771  0.0000000  2
   2730   2729   2735   2737     1  0.0000000  3.3472000  1
   2730   2729   2735   2737     1  0.0000000  0.0000000  2
   2730   2729   2735   2737     1  180.0000771  0.3347200  3
   2731   2729   2735   4184     1  180.0000771  0.0000000  2
   2731   2729   2735   2737     1  0.0000000  3.3472000  1
   2731   2729   2735   2737     1  0.0000000  0.0000000  2
   2731   2729   2735   2737     1  180.0000771  0.3347200  3
   2732   2736   4195   4196     1  180.0000771  10.4600000  2
   2733   2732   2736   2738     1  0.0000000  3.3472000  1
   2733   2732   2736   2738     1  0.0000000  0.0000000  2
   2733   2732   2736   2738     1  180.0000771  0.3347200  3
   2733   2732   2736   4195     1  180.0000771  0.0000000  2
   2734   2732   2736   2738     1  0.0000000  3.3472000  1
   2734   2732   2736   2738     1  0.0000000  0.0000000  2
   2734   2732   2736   2738     1  180.0000771  0.3347200  3
   2734   2732   2736   4195     1  180.0000771  0.0000000  2
   2735   4184   4175   4176     1  0.0000000  0.0000000  2
   2735   4184   4175   4177     1  0.0000000  0.0000000  2
   2736   4195   4186   4187     1  0.0000000  0.0000000  2
   2736   4195   4186   4188     1  0.0000000  0.0000000  2
   2737   2735   4184   4185     1  0.0000000  8.3680000  1
   2737   2735   4184   4185     1  180.0000771  10.4600000  2
   2738   2736   4195   4196     1  0.0000000  8.3680000  1
   2738   2736   4195   4196     1  180.0000771  10.4600000  2
   2741   2744   2764   2765     1  0.0000000  0.0000000  2
   2741   2747   2748   2749     1  0.0000000  1.2552000  3
   2741   2747   2748   2750     1  0.0000000  1.2552000  3
   2741   2747   2751   2752     1  0.0000000  1.2552000  3
   2741   2747   2751   2753     1  0.0000000  1.2552000  3
   2742   2741   2744   2764     1  0.0000000  0.6508444  3
   2742   2741   2744   2745     1  0.0000000  0.6508444  3
   2742   2741   2744   2746     1  0.0000000  0.6508444  3
   2742   2741   2747   2748     1  0.0000000  1.2552000  3
   2742   2741   2747   2751     1  0.0000000  1.2552000  3
   2743   2741   2744   2764     1  0.0000000  0.6508444  3
   2743   2741   2744   2745     1  0.0000000  0.6508444  3
   2743   2741   2744   2746     1  0.0000000  0.6508444  3
   2743   2741   2747   2748     1  0.0000000  1.2552000  3
   2743   2741   2747   2751     1  0.0000000  1.2552000  3
   2745   2744   2741   2747     1  0.0000000  0.6508444  3
   2745   2744   2764   2765     1  0.0000000  0.0000000  2
   2746   2744   2741   2747     1  0.0000000  0.6508444  3
   2746   2744   2764   2765     1  0.0000000  0.0000000  2
   2747   2748   2757   2758     1  0.0000000  0.6508444  3
   2747   2748   2757   2759     1  0.0000000  0.6508444  3
   2747   2751   2754   2755     1  0.0000000  0.6508444  3
   2747   2751   2754   2756     1  0.0000000  0.6508444  3
   2748   2747   2751   2752     1  0.0000000  1.2552000  3
   2748   2747   2751   2753     1  0.0000000  1.2552000  3
   2749   2748   2747   2751     1  0.0000000  1.2552000  3
   2749   2748   2757   2761     1  0.0000000  0.6508444  3
   2749   2748   2757   2758     1  0.0000000  0.6508444  3
   2749   2748   2757   2759     1  0.0000000  0.6508444  3
   2750   2748   2747   2751     1  0.0000000  1.2552000  3
   2750   2748   2757   2761     1  0.0000000  0.6508444  3
   2750   2748   2757   2758     1  0.0000000  0.6508444  3
   2750   2748   2757   2759     1  0.0000000  0.6508444  3
   2752   2751   2754   2760     1  0.0000000  0.6508444  3
   2752   2751   2754   2755     1  0.0000000  0.6508444  3
   2752   2751   2754   2756     1  0.0000000  0.6508444  3
   2753   2751   2754   2760     1  0.0000000  0.6508444  3
   2753   2751   2754   2755     1  0.0000000  0.6508444  3
   2753   2751   2754   2756     1  0.0000000  0.6508444  3
   2754   2760   4206   4207     1  180.0000771  10.4600000  2
   2755   2754   2760   4206     1  180.0000771  0.0000000  2
   2755   2754   2760   2762     1  0.0000000  3.3472000  1
   2755   2754   2760   2762     1  0.0000000  0.0000000  2
   2755   2754   2760   2762     1  180.0000771  0.3347200  3
   2756   2754   2760   4206     1  180.0000771  0.0000000  2
   2756   2754   2760   2762     1  0.0000000  3.3472000  1
   2756   2754   2760   2762     1  0.0000000  0.0000000  2
   2756   2754   2760   2762     1  180.0000771  0.3347200  3
   2757   2761   4217   4218     1  180.0000771  10.4600000  2
   2758   2757   2761   2763     1  0.0000000  3.3472000  1
   2758   2757   2761   2763     1  0.0000000  0.0000000  2
   2758   2757   2761   2763     1  180.0000771  0.3347200  3
   2758   2757   2761   4217     1  180.0000771  0.0000000  2
   2759   2757   2761   2763     1  0.0000000  3.3472000  1
   2759   2757   2761   2763     1  0.0000000  0.0000000  2
   2759   2757   2761   2763     1  180.0000771  0.3347200  3
   2759   2757   2761   4217     1  180.0000771  0.0000000  2
   2760   4206   4197   4198     1  0.0000000  0.0000000  2
   2760   4206   4197   4199     1  0.0000000  0.0000000  2
   2761   4217   4208   4209     1  0.0000000  0.0000000  2
   2761   4217   4208   4210     1  0.0000000  0.0000000  2
   2762   2760   4206   4207     1  0.0000000  8.3680000  1
   2762   2760   4206   4207     1  180.0000771  10.4600000  2
   2763   2761   4217   4218     1  0.0000000  8.3680000  1
   2763   2761   4217   4218     1  180.0000771  10.4600000  2
   2766   2769   2789   2790     1  0.0000000  0.0000000  2
   2766   2772   2773   2774     1  0.0000000  1.2552000  3
   2766   2772   2773   2775     1  0.0000000  1.2552000  3
   2766   2772   2776   2777     1  0.0000000  1.2552000  3
   2766   2772   2776   2778     1  0.0000000  1.2552000  3
   2767   2766   2769   2789     1  0.0000000  0.6508444  3
   2767   2766   2769   2770     1  0.0000000  0.6508444  3
   2767   2766   2769   2771     1  0.0000000  0.6508444  3
   2767   2766   2772   2773     1  0.0000000  1.2552000  3
   2767   2766   2772   2776     1  0.0000000  1.2552000  3
   2768   2766   2769   2789     1  0.0000000  0.6508444  3
   2768   2766   2769   2770     1  0.0000000  0.6508444  3
   2768   2766   2769   2771     1  0.0000000  0.6508444  3
   2768   2766   2772   2773     1  0.0000000  1.2552000  3
   2768   2766   2772   2776     1  0.0000000  1.2552000  3
   2770   2769   2766   2772     1  0.0000000  0.6508444  3
   2770   2769   2789   2790     1  0.0000000  0.0000000  2
   2771   2769   2766   2772     1  0.0000000  0.6508444  3
   2771   2769   2789   2790     1  0.0000000  0.0000000  2
   2772   2773   2782   2783     1  0.0000000  0.6508444  3
   2772   2773   2782   2784     1  0.0000000  0.6508444  3
   2772   2776   2779   2780     1  0.0000000  0.6508444  3
   2772   2776   2779   2781     1  0.0000000  0.6508444  3
   2773   2772   2776   2777     1  0.0000000  1.2552000  3
   2773   2772   2776   2778     1  0.0000000  1.2552000  3
   2774   2773   2772   2776     1  0.0000000  1.2552000  3
   2774   2773   2782   2786     1  0.0000000  0.6508444  3
   2774   2773   2782   2783     1  0.0000000  0.6508444  3
   2774   2773   2782   2784     1  0.0000000  0.6508444  3
   2775   2773   2772   2776     1  0.0000000  1.2552000  3
   2775   2773   2782   2786     1  0.0000000  0.6508444  3
   2775   2773   2782   2783     1  0.0000000  0.6508444  3
   2775   2773   2782   2784     1  0.0000000  0.6508444  3
   2777   2776   2779   2785     1  0.0000000  0.6508444  3
   2777   2776   2779   2780     1  0.0000000  0.6508444  3
   2777   2776   2779   2781     1  0.0000000  0.6508444  3
   2778   2776   2779   2785     1  0.0000000  0.6508444  3
   2778   2776   2779   2780     1  0.0000000  0.6508444  3
   2778   2776   2779   2781     1  0.0000000  0.6508444  3
   2779   2785   4228   4229     1  180.0000771  10.4600000  2
   2780   2779   2785   4228     1  180.0000771  0.0000000  2
   2780   2779   2785   2787     1  0.0000000  3.3472000  1
   2780   2779   2785   2787     1  0.0000000  0.0000000  2
   2780   2779   2785   2787     1  180.0000771  0.3347200  3
   2781   2779   2785   4228     1  180.0000771  0.0000000  2
   2781   2779   2785   2787     1  0.0000000  3.3472000  1
   2781   2779   2785   2787     1  0.0000000  0.0000000  2
   2781   2779   2785   2787     1  180.0000771  0.3347200  3
   2782   2786   4239   4240     1  180.0000771  10.4600000  2
   2783   2782   2786   2788     1  0.0000000  3.3472000  1
   2783   2782   2786   2788     1  0.0000000  0.0000000  2
   2783   2782   2786   2788     1  180.0000771  0.3347200  3
   2783   2782   2786   4239     1  180.0000771  0.0000000  2
   2784   2782   2786   2788     1  0.0000000  3.3472000  1
   2784   2782   2786   2788     1  0.0000000  0.0000000  2
   2784   2782   2786   2788     1  180.0000771  0.3347200  3
   2784   2782   2786   4239     1  180.0000771  0.0000000  2
   2785   4228   4219   4220     1  0.0000000  0.0000000  2
   2785   4228   4219   4221     1  0.0000000  0.0000000  2
   2786   4239   4230   4231     1  0.0000000  0.0000000  2
   2786   4239   4230   4232     1  0.0000000  0.0000000  2
   2787   2785   4228   4229     1  0.0000000  8.3680000  1
   2787   2785   4228   4229     1  180.0000771  10.4600000  2
   2788   2786   4239   4240     1  0.0000000  8.3680000  1
   2788   2786   4239   4240     1  180.0000771  10.4600000  2
   2791   2794   2814   2815     1  0.0000000  0.0000000  2
   2791   2797   2798   2799     1  0.0000000  1.2552000  3
   2791   2797   2798   2800     1  0.0000000  1.2552000  3
   2791   2797   2801   2802     1  0.0000000  1.2552000  3
   2791   2797   2801   2803     1  0.0000000  1.2552000  3
   2792   2791   2794   2814     1  0.0000000  0.6508444  3
   2792   2791   2794   2795     1  0.0000000  0.6508444  3
   2792   2791   2794   2796     1  0.0000000  0.6508444  3
   2792   2791   2797   2798     1  0.0000000  1.2552000  3
   2792   2791   2797   2801     1  0.0000000  1.2552000  3
   2793   2791   2794   2814     1  0.0000000  0.6508444  3
   2793   2791   2794   2795     1  0.0000000  0.6508444  3
   2793   2791   2794   2796     1  0.0000000  0.6508444  3
   2793   2791   2797   2798     1  0.0000000  1.2552000  3
   2793   2791   2797   2801     1  0.0000000  1.2552000  3
   2795   2794   2791   2797     1  0.0000000  0.6508444  3
   2795   2794   2814   2815     1  0.0000000  0.0000000  2
   2796   2794   2791   2797     1  0.0000000  0.6508444  3
   2796   2794   2814   2815     1  0.0000000  0.0000000  2
   2797   2798   2807   2808     1  0.0000000  0.6508444  3
   2797   2798   2807   2809     1  0.0000000  0.6508444  3
   2797   2801   2804   2805     1  0.0000000  0.6508444  3
   2797   2801   2804   2806     1  0.0000000  0.6508444  3
   2798   2797   2801   2802     1  0.0000000  1.2552000  3
   2798   2797   2801   2803     1  0.0000000  1.2552000  3
   2799   2798   2797   2801     1  0.0000000  1.2552000  3
   2799   2798   2807   2811     1  0.0000000  0.6508444  3
   2799   2798   2807   2808     1  0.0000000  0.6508444  3
   2799   2798   2807   2809     1  0.0000000  0.6508444  3
   2800   2798   2797   2801     1  0.0000000  1.2552000  3
   2800   2798   2807   2811     1  0.0000000  0.6508444  3
   2800   2798   2807   2808     1  0.0000000  0.6508444  3
   2800   2798   2807   2809     1  0.0000000  0.6508444  3
   2802   2801   2804   2810     1  0.0000000  0.6508444  3
   2802   2801   2804   2805     1  0.0000000  0.6508444  3
   2802   2801   2804   2806     1  0.0000000  0.6508444  3
   2803   2801   2804   2810     1  0.0000000  0.6508444  3
   2803   2801   2804   2805     1  0.0000000  0.6508444  3
   2803   2801   2804   2806     1  0.0000000  0.6508444  3
   2804   2810   4250   4251     1  180.0000771  10.4600000  2
   2805   2804   2810   4250     1  180.0000771  0.0000000  2
   2805   2804   2810   2812     1  0.0000000  3.3472000  1
   2805   2804   2810   2812     1  0.0000000  0.0000000  2
   2805   2804   2810   2812     1  180.0000771  0.3347200  3
   2806   2804   2810   4250     1  180.0000771  0.0000000  2
   2806   2804   2810   2812     1  0.0000000  3.3472000  1
   2806   2804   2810   2812     1  0.0000000  0.0000000  2
   2806   2804   2810   2812     1  180.0000771  0.3347200  3
   2807   2811   4261   4262     1  180.0000771  10.4600000  2
   2808   2807   2811   2813     1  0.0000000  3.3472000  1
   2808   2807   2811   2813     1  0.0000000  0.0000000  2
   2808   2807   2811   2813     1  180.0000771  0.3347200  3
   2808   2807   2811   4261     1  180.0000771  0.0000000  2
   2809   2807   2811   2813     1  0.0000000  3.3472000  1
   2809   2807   2811   2813     1  0.0000000  0.0000000  2
   2809   2807   2811   2813     1  180.0000771  0.3347200  3
   2809   2807   2811   4261     1  180.0000771  0.0000000  2
   2810   4250   4241   4242     1  0.0000000  0.0000000  2
   2810   4250   4241   4243     1  0.0000000  0.0000000  2
   2811   4261   4252   4253     1  0.0000000  0.0000000  2
   2811   4261   4252   4254     1  0.0000000  0.0000000  2
   2812   2810   4250   4251     1  0.0000000  8.3680000  1
   2812   2810   4250   4251     1  180.0000771  10.4600000  2
   2813   2811   4261   4262     1  0.0000000  8.3680000  1
   2813   2811   4261   4262     1  180.0000771  10.4600000  2
   2816   2819   2839   2840     1  0.0000000  0.0000000  2
   2816   2822   2823   2824     1  0.0000000  1.2552000  3
   2816   2822   2823   2825     1  0.0000000  1.2552000  3
   2816   2822   2826   2827     1  0.0000000  1.2552000  3
   2816   2822   2826   2828     1  0.0000000  1.2552000  3
   2817   2816   2819   2839     1  0.0000000  0.6508444  3
   2817   2816   2819   2820     1  0.0000000  0.6508444  3
   2817   2816   2819   2821     1  0.0000000  0.6508444  3
   2817   2816   2822   2823     1  0.0000000  1.2552000  3
   2817   2816   2822   2826     1  0.0000000  1.2552000  3
   2818   2816   2819   2839     1  0.0000000  0.6508444  3
   2818   2816   2819   2820     1  0.0000000  0.6508444  3
   2818   2816   2819   2821     1  0.0000000  0.6508444  3
   2818   2816   2822   2823     1  0.0000000  1.2552000  3
   2818   2816   2822   2826     1  0.0000000  1.2552000  3
   2820   2819   2816   2822     1  0.0000000  0.6508444  3
   2820   2819   2839   2840     1  0.0000000  0.0000000  2
   2821   2819   2816   2822     1  0.0000000  0.6508444  3
   2821   2819   2839   2840     1  0.0000000  0.0000000  2
   2822   2823   2832   2833     1  0.0000000  0.6508444  3
   2822   2823   2832   2834     1  0.0000000  0.6508444  3
   2822   2826   2829   2830     1  0.0000000  0.6508444  3
   2822   2826   2829   2831     1  0.0000000  0.6508444  3
   2823   2822   2826   2827     1  0.0000000  1.2552000  3
   2823   2822   2826   2828     1  0.0000000  1.2552000  3
   2824   2823   2822   2826     1  0.0000000  1.2552000  3
   2824   2823   2832   2836     1  0.0000000  0.6508444  3
   2824   2823   2832   2833     1  0.0000000  0.6508444  3
   2824   2823   2832   2834     1  0.0000000  0.6508444  3
   2825   2823   2822   2826     1  0.0000000  1.2552000  3
   2825   2823   2832   2836     1  0.0000000  0.6508444  3
   2825   2823   2832   2833     1  0.0000000  0.6508444  3
   2825   2823   2832   2834     1  0.0000000  0.6508444  3
   2827   2826   2829   2835     1  0.0000000  0.6508444  3
   2827   2826   2829   2830     1  0.0000000  0.6508444  3
   2827   2826   2829   2831     1  0.0000000  0.6508444  3
   2828   2826   2829   2835     1  0.0000000  0.6508444  3
   2828   2826   2829   2830     1  0.0000000  0.6508444  3
   2828   2826   2829   2831     1  0.0000000  0.6508444  3
   2829   2835   4272   4273     1  180.0000771  10.4600000  2
   2830   2829   2835   4272     1  180.0000771  0.0000000  2
   2830   2829   2835   2837     1  0.0000000  3.3472000  1
   2830   2829   2835   2837     1  0.0000000  0.0000000  2
   2830   2829   2835   2837     1  180.0000771  0.3347200  3
   2831   2829   2835   4272     1  180.0000771  0.0000000  2
   2831   2829   2835   2837     1  0.0000000  3.3472000  1
   2831   2829   2835   2837     1  0.0000000  0.0000000  2
   2831   2829   2835   2837     1  180.0000771  0.3347200  3
   2832   2836   4283   4284     1  180.0000771  10.4600000  2
   2833   2832   2836   2838     1  0.0000000  3.3472000  1
   2833   2832   2836   2838     1  0.0000000  0.0000000  2
   2833   2832   2836   2838     1  180.0000771  0.3347200  3
   2833   2832   2836   4283     1  180.0000771  0.0000000  2
   2834   2832   2836   2838     1  0.0000000  3.3472000  1
   2834   2832   2836   2838     1  0.0000000  0.0000000  2
   2834   2832   2836   2838     1  180.0000771  0.3347200  3
   2834   2832   2836   4283     1  180.0000771  0.0000000  2
   2835   4272   4263   4264     1  0.0000000  0.0000000  2
   2835   4272   4263   4265     1  0.0000000  0.0000000  2
   2836   4283   4274   4275     1  0.0000000  0.0000000  2
   2836   4283   4274   4276     1  0.0000000  0.0000000  2
   2837   2835   4272   4273     1  0.0000000  8.3680000  1
   2837   2835   4272   4273     1  180.0000771  10.4600000  2
   2838   2836   4283   4284     1  0.0000000  8.3680000  1
   2838   2836   4283   4284     1  180.0000771  10.4600000  2
   2841   2844   2864   2865     1  0.0000000  0.0000000  2
   2841   2847   2848   2849     1  0.0000000  1.2552000  3
   2841   2847   2848   2850     1  0.0000000  1.2552000  3
   2841   2847   2851   2852     1  0.0000000  1.2552000  3
   2841   2847   2851   2853     1  0.0000000  1.2552000  3
   2842   2841   2844   2864     1  0.0000000  0.6508444  3
   2842   2841   2844   2845     1  0.0000000  0.6508444  3
   2842   2841   2844   2846     1  0.0000000  0.6508444  3
   2842   2841   2847   2848     1  0.0000000  1.2552000  3
   2842   2841   2847   2851     1  0.0000000  1.2552000  3
   2843   2841   2844   2864     1  0.0000000  0.6508444  3
   2843   2841   2844   2845     1  0.0000000  0.6508444  3
   2843   2841   2844   2846     1  0.0000000  0.6508444  3
   2843   2841   2847   2848     1  0.0000000  1.2552000  3
   2843   2841   2847   2851     1  0.0000000  1.2552000  3
   2845   2844   2841   2847     1  0.0000000  0.6508444  3
   2845   2844   2864   2865     1  0.0000000  0.0000000  2
   2846   2844   2841   2847     1  0.0000000  0.6508444  3
   2846   2844   2864   2865     1  0.0000000  0.0000000  2
   2847   2848   2857   2858     1  0.0000000  0.6508444  3
   2847   2848   2857   2859     1  0.0000000  0.6508444  3
   2847   2851   2854   2855     1  0.0000000  0.6508444  3
   2847   2851   2854   2856     1  0.0000000  0.6508444  3
   2848   2847   2851   2852     1  0.0000000  1.2552000  3
   2848   2847   2851   2853     1  0.0000000  1.2552000  3
   2849   2848   2847   2851     1  0.0000000  1.2552000  3
   2849   2848   2857   2861     1  0.0000000  0.6508444  3
   2849   2848   2857   2858     1  0.0000000  0.6508444  3
   2849   2848   2857   2859     1  0.0000000  0.6508444  3
   2850   2848   2847   2851     1  0.0000000  1.2552000  3
   2850   2848   2857   2861     1  0.0000000  0.6508444  3
   2850   2848   2857   2858     1  0.0000000  0.6508444  3
   2850   2848   2857   2859     1  0.0000000  0.6508444  3
   2852   2851   2854   2860     1  0.0000000  0.6508444  3
   2852   2851   2854   2855     1  0.0000000  0.6508444  3
   2852   2851   2854   2856     1  0.0000000  0.6508444  3
   2853   2851   2854   2860     1  0.0000000  0.6508444  3
   2853   2851   2854   2855     1  0.0000000  0.6508444  3
   2853   2851   2854   2856     1  0.0000000  0.6508444  3
   2854   2860   4294   4295     1  180.0000771  10.4600000  2
   2855   2854   2860   4294     1  180.0000771  0.0000000  2
   2855   2854   2860   2862     1  0.0000000  3.3472000  1
   2855   2854   2860   2862     1  0.0000000  0.0000000  2
   2855   2854   2860   2862     1  180.0000771  0.3347200  3
   2856   2854   2860   4294     1  180.0000771  0.0000000  2
   2856   2854   2860   2862     1  0.0000000  3.3472000  1
   2856   2854   2860   2862     1  0.0000000  0.0000000  2
   2856   2854   2860   2862     1  180.0000771  0.3347200  3
   2857   2861   4305   4306     1  180.0000771  10.4600000  2
   2858   2857   2861   2863     1  0.0000000  3.3472000  1
   2858   2857   2861   2863     1  0.0000000  0.0000000  2
   2858   2857   2861   2863     1  180.0000771  0.3347200  3
   2858   2857   2861   4305     1  180.0000771  0.0000000  2
   2859   2857   2861   2863     1  0.0000000  3.3472000  1
   2859   2857   2861   2863     1  0.0000000  0.0000000  2
   2859   2857   2861   2863     1  180.0000771  0.3347200  3
   2859   2857   2861   4305     1  180.0000771  0.0000000  2
   2860   4294   4285   4286     1  0.0000000  0.0000000  2
   2860   4294   4285   4287     1  0.0000000  0.0000000  2
   2861   4305   4296   4297     1  0.0000000  0.0000000  2
   2861   4305   4296   4298     1  0.0000000  0.0000000  2
   2862   2860   4294   4295     1  0.0000000  8.3680000  1
   2862   2860   4294   4295     1  180.0000771  10.4600000  2
   2863   2861   4305   4306     1  0.0000000  8.3680000  1
   2863   2861   4305   4306     1  180.0000771  10.4600000  2
   2866   2869   2889   2890     1  0.0000000  0.0000000  2
   2866   2872   2873   2874     1  0.0000000  1.2552000  3
   2866   2872   2873   2875     1  0.0000000  1.2552000  3
   2866   2872   2876   2877     1  0.0000000  1.2552000  3
   2866   2872   2876   2878     1  0.0000000  1.2552000  3
   2867   2866   2869   2889     1  0.0000000  0.6508444  3
   2867   2866   2869   2870     1  0.0000000  0.6508444  3
   2867   2866   2869   2871     1  0.0000000  0.6508444  3
   2867   2866   2872   2873     1  0.0000000  1.2552000  3
   2867   2866   2872   2876     1  0.0000000  1.2552000  3
   2868   2866   2869   2889     1  0.0000000  0.6508444  3
   2868   2866   2869   2870     1  0.0000000  0.6508444  3
   2868   2866   2869   2871     1  0.0000000  0.6508444  3
   2868   2866   2872   2873     1  0.0000000  1.2552000  3
   2868   2866   2872   2876     1  0.0000000  1.2552000  3
   2870   2869   2866   2872     1  0.0000000  0.6508444  3
   2870   2869   2889   2890     1  0.0000000  0.0000000  2
   2871   2869   2866   2872     1  0.0000000  0.6508444  3
   2871   2869   2889   2890     1  0.0000000  0.0000000  2
   2872   2873   2882   2883     1  0.0000000  0.6508444  3
   2872   2873   2882   2884     1  0.0000000  0.6508444  3
   2872   2876   2879   2880     1  0.0000000  0.6508444  3
   2872   2876   2879   2881     1  0.0000000  0.6508444  3
   2873   2872   2876   2877     1  0.0000000  1.2552000  3
   2873   2872   2876   2878     1  0.0000000  1.2552000  3
   2874   2873   2872   2876     1  0.0000000  1.2552000  3
   2874   2873   2882   2886     1  0.0000000  0.6508444  3
   2874   2873   2882   2883     1  0.0000000  0.6508444  3
   2874   2873   2882   2884     1  0.0000000  0.6508444  3
   2875   2873   2872   2876     1  0.0000000  1.2552000  3
   2875   2873   2882   2886     1  0.0000000  0.6508444  3
   2875   2873   2882   2883     1  0.0000000  0.6508444  3
   2875   2873   2882   2884     1  0.0000000  0.6508444  3
   2877   2876   2879   2885     1  0.0000000  0.6508444  3
   2877   2876   2879   2880     1  0.0000000  0.6508444  3
   2877   2876   2879   2881     1  0.0000000  0.6508444  3
   2878   2876   2879   2885     1  0.0000000  0.6508444  3
   2878   2876   2879   2880     1  0.0000000  0.6508444  3
   2878   2876   2879   2881     1  0.0000000  0.6508444  3
   2879   2885   4316   4317     1  180.0000771  10.4600000  2
   2880   2879   2885   4316     1  180.0000771  0.0000000  2
   2880   2879   2885   2887     1  0.0000000  3.3472000  1
   2880   2879   2885   2887     1  0.0000000  0.0000000  2
   2880   2879   2885   2887     1  180.0000771  0.3347200  3
   2881   2879   2885   4316     1  180.0000771  0.0000000  2
   2881   2879   2885   2887     1  0.0000000  3.3472000  1
   2881   2879   2885   2887     1  0.0000000  0.0000000  2
   2881   2879   2885   2887     1  180.0000771  0.3347200  3
   2882   2886   4327   4328     1  180.0000771  10.4600000  2
   2883   2882   2886   2888     1  0.0000000  3.3472000  1
   2883   2882   2886   2888     1  0.0000000  0.0000000  2
   2883   2882   2886   2888     1  180.0000771  0.3347200  3
   2883   2882   2886   4327     1  180.0000771  0.0000000  2
   2884   2882   2886   2888     1  0.0000000  3.3472000  1
   2884   2882   2886   2888     1  0.0000000  0.0000000  2
   2884   2882   2886   2888     1  180.0000771  0.3347200  3
   2884   2882   2886   4327     1  180.0000771  0.0000000  2
   2885   4316   4307   4308     1  0.0000000  0.0000000  2
   2885   4316   4307   4309     1  0.0000000  0.0000000  2
   2886   4327   4318   4319     1  0.0000000  0.0000000  2
   2886   4327   4318   4320     1  0.0000000  0.0000000  2
   2887   2885   4316   4317     1  0.0000000  8.3680000  1
   2887   2885   4316   4317     1  180.0000771  10.4600000  2
   2888   2886   4327   4328     1  0.0000000  8.3680000  1
   2888   2886   4327   4328     1  180.0000771  10.4600000  2
   2891   2894   2914   2915     1  0.0000000  0.0000000  2
   2891   2897   2898   2899     1  0.0000000  1.2552000  3
   2891   2897   2898   2900     1  0.0000000  1.2552000  3
   2891   2897   2901   2902     1  0.0000000  1.2552000  3
   2891   2897   2901   2903     1  0.0000000  1.2552000  3
   2892   2891   2894   2914     1  0.0000000  0.6508444  3
   2892   2891   2894   2895     1  0.0000000  0.6508444  3
   2892   2891   2894   2896     1  0.0000000  0.6508444  3
   2892   2891   2897   2898     1  0.0000000  1.2552000  3
   2892   2891   2897   2901     1  0.0000000  1.2552000  3
   2893   2891   2894   2914     1  0.0000000  0.6508444  3
   2893   2891   2894   2895     1  0.0000000  0.6508444  3
   2893   2891   2894   2896     1  0.0000000  0.6508444  3
   2893   2891   2897   2898     1  0.0000000  1.2552000  3
   2893   2891   2897   2901     1  0.0000000  1.2552000  3
   2895   2894   2891   2897     1  0.0000000  0.6508444  3
   2895   2894   2914   2915     1  0.0000000  0.0000000  2
   2896   2894   2891   2897     1  0.0000000  0.6508444  3
   2896   2894   2914   2915     1  0.0000000  0.0000000  2
   2897   2898   2907   2908     1  0.0000000  0.6508444  3
   2897   2898   2907   2909     1  0.0000000  0.6508444  3
   2897   2901   2904   2905     1  0.0000000  0.6508444  3
   2897   2901   2904   2906     1  0.0000000  0.6508444  3
   2898   2897   2901   2902     1  0.0000000  1.2552000  3
   2898   2897   2901   2903     1  0.0000000  1.2552000  3
   2899   2898   2897   2901     1  0.0000000  1.2552000  3
   2899   2898   2907   2911     1  0.0000000  0.6508444  3
   2899   2898   2907   2908     1  0.0000000  0.6508444  3
   2899   2898   2907   2909     1  0.0000000  0.6508444  3
   2900   2898   2897   2901     1  0.0000000  1.2552000  3
   2900   2898   2907   2911     1  0.0000000  0.6508444  3
   2900   2898   2907   2908     1  0.0000000  0.6508444  3
   2900   2898   2907   2909     1  0.0000000  0.6508444  3
   2902   2901   2904   2910     1  0.0000000  0.6508444  3
   2902   2901   2904   2905     1  0.0000000  0.6508444  3
   2902   2901   2904   2906     1  0.0000000  0.6508444  3
   2903   2901   2904   2910     1  0.0000000  0.6508444  3
   2903   2901   2904   2905     1  0.0000000  0.6508444  3
   2903   2901   2904   2906     1  0.0000000  0.6508444  3
   2904   2910   4338   4339     1  180.0000771  10.4600000  2
   2905   2904   2910   4338     1  180.0000771  0.0000000  2
   2905   2904   2910   2912     1  0.0000000  3.3472000  1
   2905   2904   2910   2912     1  0.0000000  0.0000000  2
   2905   2904   2910   2912     1  180.0000771  0.3347200  3
   2906   2904   2910   4338     1  180.0000771  0.0000000  2
   2906   2904   2910   2912     1  0.0000000  3.3472000  1
   2906   2904   2910   2912     1  0.0000000  0.0000000  2
   2906   2904   2910   2912     1  180.0000771  0.3347200  3
   2907   2911   4349   4350     1  180.0000771  10.4600000  2
   2908   2907   2911   2913     1  0.0000000  3.3472000  1
   2908   2907   2911   2913     1  0.0000000  0.0000000  2
   2908   2907   2911   2913     1  180.0000771  0.3347200  3
   2908   2907   2911   4349     1  180.0000771  0.0000000  2
   2909   2907   2911   2913     1  0.0000000  3.3472000  1
   2909   2907   2911   2913     1  0.0000000  0.0000000  2
   2909   2907   2911   2913     1  180.0000771  0.3347200  3
   2909   2907   2911   4349     1  180.0000771  0.0000000  2
   2910   4338   4329   4330     1  0.0000000  0.0000000  2
   2910   4338   4329   4331     1  0.0000000  0.0000000  2
   2911   4349   4340   4341     1  0.0000000  0.0000000  2
   2911   4349   4340   4342     1  0.0000000  0.0000000  2
   2912   2910   4338   4339     1  0.0000000  8.3680000  1
   2912   2910   4338   4339     1  180.0000771  10.4600000  2
   2913   2911   4349   4350     1  0.0000000  8.3680000  1
   2913   2911   4349   4350     1  180.0000771  10.4600000  2
   2916   2919   2939   2940     1  0.0000000  0.0000000  2
   2916   2922   2923   2924     1  0.0000000  1.2552000  3
   2916   2922   2923   2925     1  0.0000000  1.2552000  3
   2916   2922   2926   2927     1  0.0000000  1.2552000  3
   2916   2922   2926   2928     1  0.0000000  1.2552000  3
   2917   2916   2919   2939     1  0.0000000  0.6508444  3
   2917   2916   2919   2920     1  0.0000000  0.6508444  3
   2917   2916   2919   2921     1  0.0000000  0.6508444  3
   2917   2916   2922   2923     1  0.0000000  1.2552000  3
   2917   2916   2922   2926     1  0.0000000  1.2552000  3
   2918   2916   2919   2939     1  0.0000000  0.6508444  3
   2918   2916   2919   2920     1  0.0000000  0.6508444  3
   2918   2916   2919   2921     1  0.0000000  0.6508444  3
   2918   2916   2922   2923     1  0.0000000  1.2552000  3
   2918   2916   2922   2926     1  0.0000000  1.2552000  3
   2920   2919   2916   2922     1  0.0000000  0.6508444  3
   2920   2919   2939   2940     1  0.0000000  0.0000000  2
   2921   2919   2916   2922     1  0.0000000  0.6508444  3
   2921   2919   2939   2940     1  0.0000000  0.0000000  2
   2922   2923   2932   2933     1  0.0000000  0.6508444  3
   2922   2923   2932   2934     1  0.0000000  0.6508444  3
   2922   2926   2929   2930     1  0.0000000  0.6508444  3
   2922   2926   2929   2931     1  0.0000000  0.6508444  3
   2923   2922   2926   2927     1  0.0000000  1.2552000  3
   2923   2922   2926   2928     1  0.0000000  1.2552000  3
   2924   2923   2922   2926     1  0.0000000  1.2552000  3
   2924   2923   2932   2936     1  0.0000000  0.6508444  3
   2924   2923   2932   2933     1  0.0000000  0.6508444  3
   2924   2923   2932   2934     1  0.0000000  0.6508444  3
   2925   2923   2922   2926     1  0.0000000  1.2552000  3
   2925   2923   2932   2936     1  0.0000000  0.6508444  3
   2925   2923   2932   2933     1  0.0000000  0.6508444  3
   2925   2923   2932   2934     1  0.0000000  0.6508444  3
   2927   2926   2929   2935     1  0.0000000  0.6508444  3
   2927   2926   2929   2930     1  0.0000000  0.6508444  3
   2927   2926   2929   2931     1  0.0000000  0.6508444  3
   2928   2926   2929   2935     1  0.0000000  0.6508444  3
   2928   2926   2929   2930     1  0.0000000  0.6508444  3
   2928   2926   2929   2931     1  0.0000000  0.6508444  3
   2929   2935   4360   4361     1  180.0000771  10.4600000  2
   2930   2929   2935   4360     1  180.0000771  0.0000000  2
   2930   2929   2935   2937     1  0.0000000  3.3472000  1
   2930   2929   2935   2937     1  0.0000000  0.0000000  2
   2930   2929   2935   2937     1  180.0000771  0.3347200  3
   2931   2929   2935   4360     1  180.0000771  0.0000000  2
   2931   2929   2935   2937     1  0.0000000  3.3472000  1
   2931   2929   2935   2937     1  0.0000000  0.0000000  2
   2931   2929   2935   2937     1  180.0000771  0.3347200  3
   2932   2936   4371   4372     1  180.0000771  10.4600000  2
   2933   2932   2936   2938     1  0.0000000  3.3472000  1
   2933   2932   2936   2938     1  0.0000000  0.0000000  2
   2933   2932   2936   2938     1  180.0000771  0.3347200  3
   2933   2932   2936   4371     1  180.0000771  0.0000000  2
   2934   2932   2936   2938     1  0.0000000  3.3472000  1
   2934   2932   2936   2938     1  0.0000000  0.0000000  2
   2934   2932   2936   2938     1  180.0000771  0.3347200  3
   2934   2932   2936   4371     1  180.0000771  0.0000000  2
   2935   4360   4351   4352     1  0.0000000  0.0000000  2
   2935   4360   4351   4353     1  0.0000000  0.0000000  2
   2936   4371   4362   4363     1  0.0000000  0.0000000  2
   2936   4371   4362   4364     1  0.0000000  0.0000000  2
   2937   2935   4360   4361     1  0.0000000  8.3680000  1
   2937   2935   4360   4361     1  180.0000771  10.4600000  2
   2938   2936   4371   4372     1  0.0000000  8.3680000  1
   2938   2936   4371   4372     1  180.0000771  10.4600000  2
   2941   2944   2964   2965     1  0.0000000  0.0000000  2
   2941   2947   2948   2949     1  0.0000000  1.2552000  3
   2941   2947   2948   2950     1  0.0000000  1.2552000  3
   2941   2947   2951   2952     1  0.0000000  1.2552000  3
   2941   2947   2951   2953     1  0.0000000  1.2552000  3
   2942   2941   2944   2964     1  0.0000000  0.6508444  3
   2942   2941   2944   2945     1  0.0000000  0.6508444  3
   2942   2941   2944   2946     1  0.0000000  0.6508444  3
   2942   2941   2947   2948     1  0.0000000  1.2552000  3
   2942   2941   2947   2951     1  0.0000000  1.2552000  3
   2943   2941   2944   2964     1  0.0000000  0.6508444  3
   2943   2941   2944   2945     1  0.0000000  0.6508444  3
   2943   2941   2944   2946     1  0.0000000  0.6508444  3
   2943   2941   2947   2948     1  0.0000000  1.2552000  3
   2943   2941   2947   2951     1  0.0000000  1.2552000  3
   2945   2944   2941   2947     1  0.0000000  0.6508444  3
   2945   2944   2964   2965     1  0.0000000  0.0000000  2
   2946   2944   2941   2947     1  0.0000000  0.6508444  3
   2946   2944   2964   2965     1  0.0000000  0.0000000  2
   2947   2948   2957   2958     1  0.0000000  0.6508444  3
   2947   2948   2957   2959     1  0.0000000  0.6508444  3
   2947   2951   2954   2955     1  0.0000000  0.6508444  3
   2947   2951   2954   2956     1  0.0000000  0.6508444  3
   2948   2947   2951   2952     1  0.0000000  1.2552000  3
   2948   2947   2951   2953     1  0.0000000  1.2552000  3
   2949   2948   2947   2951     1  0.0000000  1.2552000  3
   2949   2948   2957   2961     1  0.0000000  0.6508444  3
   2949   2948   2957   2958     1  0.0000000  0.6508444  3
   2949   2948   2957   2959     1  0.0000000  0.6508444  3
   2950   2948   2947   2951     1  0.0000000  1.2552000  3
   2950   2948   2957   2961     1  0.0000000  0.6508444  3
   2950   2948   2957   2958     1  0.0000000  0.6508444  3
   2950   2948   2957   2959     1  0.0000000  0.6508444  3
   2952   2951   2954   2960     1  0.0000000  0.6508444  3
   2952   2951   2954   2955     1  0.0000000  0.6508444  3
   2952   2951   2954   2956     1  0.0000000  0.6508444  3
   2953   2951   2954   2960     1  0.0000000  0.6508444  3
   2953   2951   2954   2955     1  0.0000000  0.6508444  3
   2953   2951   2954   2956     1  0.0000000  0.6508444  3
   2954   2960   4382   4383     1  180.0000771  10.4600000  2
   2955   2954   2960   4382     1  180.0000771  0.0000000  2
   2955   2954   2960   2962     1  0.0000000  3.3472000  1
   2955   2954   2960   2962     1  0.0000000  0.0000000  2
   2955   2954   2960   2962     1  180.0000771  0.3347200  3
   2956   2954   2960   4382     1  180.0000771  0.0000000  2
   2956   2954   2960   2962     1  0.0000000  3.3472000  1
   2956   2954   2960   2962     1  0.0000000  0.0000000  2
   2956   2954   2960   2962     1  180.0000771  0.3347200  3
   2957   2961   4393   4394     1  180.0000771  10.4600000  2
   2958   2957   2961   2963     1  0.0000000  3.3472000  1
   2958   2957   2961   2963     1  0.0000000  0.0000000  2
   2958   2957   2961   2963     1  180.0000771  0.3347200  3
   2958   2957   2961   4393     1  180.0000771  0.0000000  2
   2959   2957   2961   2963     1  0.0000000  3.3472000  1
   2959   2957   2961   2963     1  0.0000000  0.0000000  2
   2959   2957   2961   2963     1  180.0000771  0.3347200  3
   2959   2957   2961   4393     1  180.0000771  0.0000000  2
   2960   4382   4373   4374     1  0.0000000  0.0000000  2
   2960   4382   4373   4375     1  0.0000000  0.0000000  2
   2961   4393   4384   4385     1  0.0000000  0.0000000  2
   2961   4393   4384   4386     1  0.0000000  0.0000000  2
   2962   2960   4382   4383     1  0.0000000  8.3680000  1
   2962   2960   4382   4383     1  180.0000771  10.4600000  2
   2963   2961   4393   4394     1  0.0000000  8.3680000  1
   2963   2961   4393   4394     1  180.0000771  10.4600000  2
   2966   2969   2989   2990     1  0.0000000  0.0000000  2
   2966   2972   2973   2974     1  0.0000000  1.2552000  3
   2966   2972   2973   2975     1  0.0000000  1.2552000  3
   2966   2972   2976   2977     1  0.0000000  1.2552000  3
   2966   2972   2976   2978     1  0.0000000  1.2552000  3
   2967   2966   2969   2989     1  0.0000000  0.6508444  3
   2967   2966   2969   2970     1  0.0000000  0.6508444  3
   2967   2966   2969   2971     1  0.0000000  0.6508444  3
   2967   2966   2972   2973     1  0.0000000  1.2552000  3
   2967   2966   2972   2976     1  0.0000000  1.2552000  3
   2968   2966   2969   2989     1  0.0000000  0.6508444  3
   2968   2966   2969   2970     1  0.0000000  0.6508444  3
   2968   2966   2969   2971     1  0.0000000  0.6508444  3
   2968   2966   2972   2973     1  0.0000000  1.2552000  3
   2968   2966   2972   2976     1  0.0000000  1.2552000  3
   2970   2969   2966   2972     1  0.0000000  0.6508444  3
   2970   2969   2989   2990     1  0.0000000  0.0000000  2
   2971   2969   2966   2972     1  0.0000000  0.6508444  3
   2971   2969   2989   2990     1  0.0000000  0.0000000  2
   2972   2973   2982   2983     1  0.0000000  0.6508444  3
   2972   2973   2982   2984     1  0.0000000  0.6508444  3
   2972   2976   2979   2980     1  0.0000000  0.6508444  3
   2972   2976   2979   2981     1  0.0000000  0.6508444  3
   2973   2972   2976   2977     1  0.0000000  1.2552000  3
   2973   2972   2976   2978     1  0.0000000  1.2552000  3
   2974   2973   2972   2976     1  0.0000000  1.2552000  3
   2974   2973   2982   2986     1  0.0000000  0.6508444  3
   2974   2973   2982   2983     1  0.0000000  0.6508444  3
   2974   2973   2982   2984     1  0.0000000  0.6508444  3
   2975   2973   2972   2976     1  0.0000000  1.2552000  3
   2975   2973   2982   2986     1  0.0000000  0.6508444  3
   2975   2973   2982   2983     1  0.0000000  0.6508444  3
   2975   2973   2982   2984     1  0.0000000  0.6508444  3
   2977   2976   2979   2985     1  0.0000000  0.6508444  3
   2977   2976   2979   2980     1  0.0000000  0.6508444  3
   2977   2976   2979   2981     1  0.0000000  0.6508444  3
   2978   2976   2979   2985     1  0.0000000  0.6508444  3
   2978   2976   2979   2980     1  0.0000000  0.6508444  3
   2978   2976   2979   2981     1  0.0000000  0.6508444  3
   2979   2985   4404   4405     1  180.0000771  10.4600000  2
   2980   2979   2985   4404     1  180.0000771  0.0000000  2
   2980   2979   2985   2987     1  0.0000000  3.3472000  1
   2980   2979   2985   2987     1  0.0000000  0.0000000  2
   2980   2979   2985   2987     1  180.0000771  0.3347200  3
   2981   2979   2985   4404     1  180.0000771  0.0000000  2
   2981   2979   2985   2987     1  0.0000000  3.3472000  1
   2981   2979   2985   2987     1  0.0000000  0.0000000  2
   2981   2979   2985   2987     1  180.0000771  0.3347200  3
   2982   2986   4415   4416     1  180.0000771  10.4600000  2
   2983   2982   2986   2988     1  0.0000000  3.3472000  1
   2983   2982   2986   2988     1  0.0000000  0.0000000  2
   2983   2982   2986   2988     1  180.0000771  0.3347200  3
   2983   2982   2986   4415     1  180.0000771  0.0000000  2
   2984   2982   2986   2988     1  0.0000000  3.3472000  1
   2984   2982   2986   2988     1  0.0000000  0.0000000  2
   2984   2982   2986   2988     1  180.0000771  0.3347200  3
   2984   2982   2986   4415     1  180.0000771  0.0000000  2
   2985   4404   4395   4396     1  0.0000000  0.0000000  2
   2985   4404   4395   4397     1  0.0000000  0.0000000  2
   2986   4415   4406   4407     1  0.0000000  0.0000000  2
   2986   4415   4406   4408     1  0.0000000  0.0000000  2
   2987   2985   4404   4405     1  0.0000000  8.3680000  1
   2987   2985   4404   4405     1  180.0000771  10.4600000  2
   2988   2986   4415   4416     1  0.0000000  8.3680000  1
   2988   2986   4415   4416     1  180.0000771  10.4600000  2
   2991   2994   3014   3015     1  0.0000000  0.0000000  2
   2991   2997   2998   2999     1  0.0000000  1.2552000  3
   2991   2997   2998   3000     1  0.0000000  1.2552000  3
   2991   2997   3001   3002     1  0.0000000  1.2552000  3
   2991   2997   3001   3003     1  0.0000000  1.2552000  3
   2992   2991   2994   3014     1  0.0000000  0.6508444  3
   2992   2991   2994   2995     1  0.0000000  0.6508444  3
   2992   2991   2994   2996     1  0.0000000  0.6508444  3
   2992   2991   2997   2998     1  0.0000000  1.2552000  3
   2992   2991   2997   3001     1  0.0000000  1.2552000  3
   2993   2991   2994   3014     1  0.0000000  0.6508444  3
   2993   2991   2994   2995     1  0.0000000  0.6508444  3
   2993   2991   2994   2996     1  0.0000000  0.6508444  3
   2993   2991   2997   2998     1  0.0000000  1.2552000  3
   2993   2991   2997   3001     1  0.0000000  1.2552000  3
   2995   2994   2991   2997     1  0.0000000  0.6508444  3
   2995   2994   3014   3015     1  0.0000000  0.0000000  2
   2996   2994   2991   2997     1  0.0000000  0.6508444  3
   2996   2994   3014   3015     1  0.0000000  0.0000000  2
   2997   2998   3007   3008     1  0.0000000  0.6508444  3
   2997   2998   3007   3009     1  0.0000000  0.6508444  3
   2997   3001   3004   3005     1  0.0000000  0.6508444  3
   2997   3001   3004   3006     1  0.0000000  0.6508444  3
   2998   2997   3001   3002     1  0.0000000  1.2552000  3
   2998   2997   3001   3003     1  0.0000000  1.2552000  3
   2999   2998   2997   3001     1  0.0000000  1.2552000  3
   2999   2998   3007   3011     1  0.0000000  0.6508444  3
   2999   2998   3007   3008     1  0.0000000  0.6508444  3
   2999   2998   3007   3009     1  0.0000000  0.6508444  3
   3000   2998   2997   3001     1  0.0000000  1.2552000  3
   3000   2998   3007   3011     1  0.0000000  0.6508444  3
   3000   2998   3007   3008     1  0.0000000  0.6508444  3
   3000   2998   3007   3009     1  0.0000000  0.6508444  3
   3002   3001   3004   3010     1  0.0000000  0.6508444  3
   3002   3001   3004   3005     1  0.0000000  0.6508444  3
   3002   3001   3004   3006     1  0.0000000  0.6508444  3
   3003   3001   3004   3010     1  0.0000000  0.6508444  3
   3003   3001   3004   3005     1  0.0000000  0.6508444  3
   3003   3001   3004   3006     1  0.0000000  0.6508444  3
   3004   3010   4426   4427     1  180.0000771  10.4600000  2
   3005   3004   3010   4426     1  180.0000771  0.0000000  2
   3005   3004   3010   3012     1  0.0000000  3.3472000  1
   3005   3004   3010   3012     1  0.0000000  0.0000000  2
   3005   3004   3010   3012     1  180.0000771  0.3347200  3
   3006   3004   3010   4426     1  180.0000771  0.0000000  2
   3006   3004   3010   3012     1  0.0000000  3.3472000  1
   3006   3004   3010   3012     1  0.0000000  0.0000000  2
   3006   3004   3010   3012     1  180.0000771  0.3347200  3
   3007   3011   4437   4438     1  180.0000771  10.4600000  2
   3008   3007   3011   3013     1  0.0000000  3.3472000  1
   3008   3007   3011   3013     1  0.0000000  0.0000000  2
   3008   3007   3011   3013     1  180.0000771  0.3347200  3
   3008   3007   3011   4437     1  180.0000771  0.0000000  2
   3009   3007   3011   3013     1  0.0000000  3.3472000  1
   3009   3007   3011   3013     1  0.0000000  0.0000000  2
   3009   3007   3011   3013     1  180.0000771  0.3347200  3
   3009   3007   3011   4437     1  180.0000771  0.0000000  2
   3010   4426   4417   4418     1  0.0000000  0.0000000  2
   3010   4426   4417   4419     1  0.0000000  0.0000000  2
   3011   4437   4428   4429     1  0.0000000  0.0000000  2
   3011   4437   4428   4430     1  0.0000000  0.0000000  2
   3012   3010   4426   4427     1  0.0000000  8.3680000  1
   3012   3010   4426   4427     1  180.0000771  10.4600000  2
   3013   3011   4437   4438     1  0.0000000  8.3680000  1
   3013   3011   4437   4438     1  180.0000771  10.4600000  2
   3016   3019   3039   3040     1  0.0000000  0.0000000  2
   3016   3022   3023   3024     1  0.0000000  1.2552000  3
   3016   3022   3023   3025     1  0.0000000  1.2552000  3
   3016   3022   3026   3027     1  0.0000000  1.2552000  3
   3016   3022   3026   3028     1  0.0000000  1.2552000  3
   3017   3016   3019   3039     1  0.0000000  0.6508444  3
   3017   3016   3019   3020     1  0.0000000  0.6508444  3
   3017   3016   3019   3021     1  0.0000000  0.6508444  3
   3017   3016   3022   3023     1  0.0000000  1.2552000  3
   3017   3016   3022   3026     1  0.0000000  1.2552000  3
   3018   3016   3019   3039     1  0.0000000  0.6508444  3
   3018   3016   3019   3020     1  0.0000000  0.6508444  3
   3018   3016   3019   3021     1  0.0000000  0.6508444  3
   3018   3016   3022   3023     1  0.0000000  1.2552000  3
   3018   3016   3022   3026     1  0.0000000  1.2552000  3
   3020   3019   3016   3022     1  0.0000000  0.6508444  3
   3020   3019   3039   3040     1  0.0000000  0.0000000  2
   3021   3019   3016   3022     1  0.0000000  0.6508444  3
   3021   3019   3039   3040     1  0.0000000  0.0000000  2
   3022   3023   3032   3033     1  0.0000000  0.6508444  3
   3022   3023   3032   3034     1  0.0000000  0.6508444  3
   3022   3026   3029   3030     1  0.0000000  0.6508444  3
   3022   3026   3029   3031     1  0.0000000  0.6508444  3
   3023   3022   3026   3027     1  0.0000000  1.2552000  3
   3023   3022   3026   3028     1  0.0000000  1.2552000  3
   3024   3023   3022   3026     1  0.0000000  1.2552000  3
   3024   3023   3032   3036     1  0.0000000  0.6508444  3
   3024   3023   3032   3033     1  0.0000000  0.6508444  3
   3024   3023   3032   3034     1  0.0000000  0.6508444  3
   3025   3023   3022   3026     1  0.0000000  1.2552000  3
   3025   3023   3032   3036     1  0.0000000  0.6508444  3
   3025   3023   3032   3033     1  0.0000000  0.6508444  3
   3025   3023   3032   3034     1  0.0000000  0.6508444  3
   3027   3026   3029   3035     1  0.0000000  0.6508444  3
   3027   3026   3029   3030     1  0.0000000  0.6508444  3
   3027   3026   3029   3031     1  0.0000000  0.6508444  3
   3028   3026   3029   3035     1  0.0000000  0.6508444  3
   3028   3026   3029   3030     1  0.0000000  0.6508444  3
   3028   3026   3029   3031     1  0.0000000  0.6508444  3
   3029   3035   4448   4449     1  180.0000771  10.4600000  2
   3030   3029   3035   4448     1  180.0000771  0.0000000  2
   3030   3029   3035   3037     1  0.0000000  3.3472000  1
   3030   3029   3035   3037     1  0.0000000  0.0000000  2
   3030   3029   3035   3037     1  180.0000771  0.3347200  3
   3031   3029   3035   4448     1  180.0000771  0.0000000  2
   3031   3029   3035   3037     1  0.0000000  3.3472000  1
   3031   3029   3035   3037     1  0.0000000  0.0000000  2
   3031   3029   3035   3037     1  180.0000771  0.3347200  3
   3032   3036   4459   4460     1  180.0000771  10.4600000  2
   3033   3032   3036   3038     1  0.0000000  3.3472000  1
   3033   3032   3036   3038     1  0.0000000  0.0000000  2
   3033   3032   3036   3038     1  180.0000771  0.3347200  3
   3033   3032   3036   4459     1  180.0000771  0.0000000  2
   3034   3032   3036   3038     1  0.0000000  3.3472000  1
   3034   3032   3036   3038     1  0.0000000  0.0000000  2
   3034   3032   3036   3038     1  180.0000771  0.3347200  3
   3034   3032   3036   4459     1  180.0000771  0.0000000  2
   3035   4448   4439   4440     1  0.0000000  0.0000000  2
   3035   4448   4439   4441     1  0.0000000  0.0000000  2
   3036   4459   4450   4451     1  0.0000000  0.0000000  2
   3036   4459   4450   4452     1  0.0000000  0.0000000  2
   3037   3035   4448   4449     1  0.0000000  8.3680000  1
   3037   3035   4448   4449     1  180.0000771  10.4600000  2
   3038   3036   4459   4460     1  0.0000000  8.3680000  1
   3038   3036   4459   4460     1  180.0000771  10.4600000  2
   3041   3044   3064   3065     1  0.0000000  0.0000000  2
   3041   3047   3048   3049     1  0.0000000  1.2552000  3
   3041   3047   3048   3050     1  0.0000000  1.2552000  3
   3041   3047   3051   3052     1  0.0000000  1.2552000  3
   3041   3047   3051   3053     1  0.0000000  1.2552000  3
   3042   3041   3044   3064     1  0.0000000  0.6508444  3
   3042   3041   3044   3045     1  0.0000000  0.6508444  3
   3042   3041   3044   3046     1  0.0000000  0.6508444  3
   3042   3041   3047   3048     1  0.0000000  1.2552000  3
   3042   3041   3047   3051     1  0.0000000  1.2552000  3
   3043   3041   3044   3064     1  0.0000000  0.6508444  3
   3043   3041   3044   3045     1  0.0000000  0.6508444  3
   3043   3041   3044   3046     1  0.0000000  0.6508444  3
   3043   3041   3047   3048     1  0.0000000  1.2552000  3
   3043   3041   3047   3051     1  0.0000000  1.2552000  3
   3045   3044   3041   3047     1  0.0000000  0.6508444  3
   3045   3044   3064   3065     1  0.0000000  0.0000000  2
   3046   3044   3041   3047     1  0.0000000  0.6508444  3
   3046   3044   3064   3065     1  0.0000000  0.0000000  2
   3047   3048   3057   3058     1  0.0000000  0.6508444  3
   3047   3048   3057   3059     1  0.0000000  0.6508444  3
   3047   3051   3054   3055     1  0.0000000  0.6508444  3
   3047   3051   3054   3056     1  0.0000000  0.6508444  3
   3048   3047   3051   3052     1  0.0000000  1.2552000  3
   3048   3047   3051   3053     1  0.0000000  1.2552000  3
   3049   3048   3047   3051     1  0.0000000  1.2552000  3
   3049   3048   3057   3061     1  0.0000000  0.6508444  3
   3049   3048   3057   3058     1  0.0000000  0.6508444  3
   3049   3048   3057   3059     1  0.0000000  0.6508444  3
   3050   3048   3047   3051     1  0.0000000  1.2552000  3
   3050   3048   3057   3061     1  0.0000000  0.6508444  3
   3050   3048   3057   3058     1  0.0000000  0.6508444  3
   3050   3048   3057   3059     1  0.0000000  0.6508444  3
   3052   3051   3054   3060     1  0.0000000  0.6508444  3
   3052   3051   3054   3055     1  0.0000000  0.6508444  3
   3052   3051   3054   3056     1  0.0000000  0.6508444  3
   3053   3051   3054   3060     1  0.0000000  0.6508444  3
   3053   3051   3054   3055     1  0.0000000  0.6508444  3
   3053   3051   3054   3056     1  0.0000000  0.6508444  3
   3054   3060   4470   4471     1  180.0000771  10.4600000  2
   3055   3054   3060   4470     1  180.0000771  0.0000000  2
   3055   3054   3060   3062     1  0.0000000  3.3472000  1
   3055   3054   3060   3062     1  0.0000000  0.0000000  2
   3055   3054   3060   3062     1  180.0000771  0.3347200  3
   3056   3054   3060   4470     1  180.0000771  0.0000000  2
   3056   3054   3060   3062     1  0.0000000  3.3472000  1
   3056   3054   3060   3062     1  0.0000000  0.0000000  2
   3056   3054   3060   3062     1  180.0000771  0.3347200  3
   3057   3061   4481   4482     1  180.0000771  10.4600000  2
   3058   3057   3061   3063     1  0.0000000  3.3472000  1
   3058   3057   3061   3063     1  0.0000000  0.0000000  2
   3058   3057   3061   3063     1  180.0000771  0.3347200  3
   3058   3057   3061   4481     1  180.0000771  0.0000000  2
   3059   3057   3061   3063     1  0.0000000  3.3472000  1
   3059   3057   3061   3063     1  0.0000000  0.0000000  2
   3059   3057   3061   3063     1  180.0000771  0.3347200  3
   3059   3057   3061   4481     1  180.0000771  0.0000000  2
   3060   4470   4461   4462     1  0.0000000  0.0000000  2
   3060   4470   4461   4463     1  0.0000000  0.0000000  2
   3061   4481   4472   4473     1  0.0000000  0.0000000  2
   3061   4481   4472   4474     1  0.0000000  0.0000000  2
   3062   3060   4470   4471     1  0.0000000  8.3680000  1
   3062   3060   4470   4471     1  180.0000771  10.4600000  2
   3063   3061   4481   4482     1  0.0000000  8.3680000  1
   3063   3061   4481   4482     1  180.0000771  10.4600000  2
   3066   3069   3089   3090     1  0.0000000  0.0000000  2
   3066   3072   3073   3074     1  0.0000000  1.2552000  3
   3066   3072   3073   3075     1  0.0000000  1.2552000  3
   3066   3072   3076   3077     1  0.0000000  1.2552000  3
   3066   3072   3076   3078     1  0.0000000  1.2552000  3
   3067   3066   3069   3089     1  0.0000000  0.6508444  3
   3067   3066   3069   3070     1  0.0000000  0.6508444  3
   3067   3066   3069   3071     1  0.0000000  0.6508444  3
   3067   3066   3072   3073     1  0.0000000  1.2552000  3
   3067   3066   3072   3076     1  0.0000000  1.2552000  3
   3068   3066   3069   3089     1  0.0000000  0.6508444  3
   3068   3066   3069   3070     1  0.0000000  0.6508444  3
   3068   3066   3069   3071     1  0.0000000  0.6508444  3
   3068   3066   3072   3073     1  0.0000000  1.2552000  3
   3068   3066   3072   3076     1  0.0000000  1.2552000  3
   3070   3069   3066   3072     1  0.0000000  0.6508444  3
   3070   3069   3089   3090     1  0.0000000  0.0000000  2
   3071   3069   3066   3072     1  0.0000000  0.6508444  3
   3071   3069   3089   3090     1  0.0000000  0.0000000  2
   3072   3073   3082   3083     1  0.0000000  0.6508444  3
   3072   3073   3082   3084     1  0.0000000  0.6508444  3
   3072   3076   3079   3080     1  0.0000000  0.6508444  3
   3072   3076   3079   3081     1  0.0000000  0.6508444  3
   3073   3072   3076   3077     1  0.0000000  1.2552000  3
   3073   3072   3076   3078     1  0.0000000  1.2552000  3
   3074   3073   3072   3076     1  0.0000000  1.2552000  3
   3074   3073   3082   3086     1  0.0000000  0.6508444  3
   3074   3073   3082   3083     1  0.0000000  0.6508444  3
   3074   3073   3082   3084     1  0.0000000  0.6508444  3
   3075   3073   3072   3076     1  0.0000000  1.2552000  3
   3075   3073   3082   3086     1  0.0000000  0.6508444  3
   3075   3073   3082   3083     1  0.0000000  0.6508444  3
   3075   3073   3082   3084     1  0.0000000  0.6508444  3
   3077   3076   3079   3085     1  0.0000000  0.6508444  3
   3077   3076   3079   3080     1  0.0000000  0.6508444  3
   3077   3076   3079   3081     1  0.0000000  0.6508444  3
   3078   3076   3079   3085     1  0.0000000  0.6508444  3
   3078   3076   3079   3080     1  0.0000000  0.6508444  3
   3078   3076   3079   3081     1  0.0000000  0.6508444  3
   3079   3085   4492   4493     1  180.0000771  10.4600000  2
   3080   3079   3085   4492     1  180.0000771  0.0000000  2
   3080   3079   3085   3087     1  0.0000000  3.3472000  1
   3080   3079   3085   3087     1  0.0000000  0.0000000  2
   3080   3079   3085   3087     1  180.0000771  0.3347200  3
   3081   3079   3085   4492     1  180.0000771  0.0000000  2
   3081   3079   3085   3087     1  0.0000000  3.3472000  1
   3081   3079   3085   3087     1  0.0000000  0.0000000  2
   3081   3079   3085   3087     1  180.0000771  0.3347200  3
   3082   3086   4503   4504     1  180.0000771  10.4600000  2
   3083   3082   3086   3088     1  0.0000000  3.3472000  1
   3083   3082   3086   3088     1  0.0000000  0.0000000  2
   3083   3082   3086   3088     1  180.0000771  0.3347200  3
   3083   3082   3086   4503     1  180.0000771  0.0000000  2
   3084   3082   3086   3088     1  0.0000000  3.3472000  1
   3084   3082   3086   3088     1  0.0000000  0.0000000  2
   3084   3082   3086   3088     1  180.0000771  0.3347200  3
   3084   3082   3086   4503     1  180.0000771  0.0000000  2
   3085   4492   4483   4484     1  0.0000000  0.0000000  2
   3085   4492   4483   4485     1  0.0000000  0.0000000  2
   3086   4503   4494   4495     1  0.0000000  0.0000000  2
   3086   4503   4494   4496     1  0.0000000  0.0000000  2
   3087   3085   4492   4493     1  0.0000000  8.3680000  1
   3087   3085   4492   4493     1  180.0000771  10.4600000  2
   3088   3086   4503   4504     1  0.0000000  8.3680000  1
   3088   3086   4503   4504     1  180.0000771  10.4600000  2
   3091   3094   3114   3115     1  0.0000000  0.0000000  2
   3091   3097   3098   3099     1  0.0000000  1.2552000  3
   3091   3097   3098   3100     1  0.0000000  1.2552000  3
   3091   3097   3101   3102     1  0.0000000  1.2552000  3
   3091   3097   3101   3103     1  0.0000000  1.2552000  3
   3092   3091   3094   3114     1  0.0000000  0.6508444  3
   3092   3091   3094   3095     1  0.0000000  0.6508444  3
   3092   3091   3094   3096     1  0.0000000  0.6508444  3
   3092   3091   3097   3098     1  0.0000000  1.2552000  3
   3092   3091   3097   3101     1  0.0000000  1.2552000  3
   3093   3091   3094   3114     1  0.0000000  0.6508444  3
   3093   3091   3094   3095     1  0.0000000  0.6508444  3
   3093   3091   3094   3096     1  0.0000000  0.6508444  3
   3093   3091   3097   3098     1  0.0000000  1.2552000  3
   3093   3091   3097   3101     1  0.0000000  1.2552000  3
   3095   3094   3091   3097     1  0.0000000  0.6508444  3
   3095   3094   3114   3115     1  0.0000000  0.0000000  2
   3096   3094   3091   3097     1  0.0000000  0.6508444  3
   3096   3094   3114   3115     1  0.0000000  0.0000000  2
   3097   3098   3107   3108     1  0.0000000  0.6508444  3
   3097   3098   3107   3109     1  0.0000000  0.6508444  3
   3097   3101   3104   3105     1  0.0000000  0.6508444  3
   3097   3101   3104   3106     1  0.0000000  0.6508444  3
   3098   3097   3101   3102     1  0.0000000  1.2552000  3
   3098   3097   3101   3103     1  0.0000000  1.2552000  3
   3099   3098   3097   3101     1  0.0000000  1.2552000  3
   3099   3098   3107   3111     1  0.0000000  0.6508444  3
   3099   3098   3107   3108     1  0.0000000  0.6508444  3
   3099   3098   3107   3109     1  0.0000000  0.6508444  3
   3100   3098   3097   3101     1  0.0000000  1.2552000  3
   3100   3098   3107   3111     1  0.0000000  0.6508444  3
   3100   3098   3107   3108     1  0.0000000  0.6508444  3
   3100   3098   3107   3109     1  0.0000000  0.6508444  3
   3102   3101   3104   3110     1  0.0000000  0.6508444  3
   3102   3101   3104   3105     1  0.0000000  0.6508444  3
   3102   3101   3104   3106     1  0.0000000  0.6508444  3
   3103   3101   3104   3110     1  0.0000000  0.6508444  3
   3103   3101   3104   3105     1  0.0000000  0.6508444  3
   3103   3101   3104   3106     1  0.0000000  0.6508444  3
   3104   3110   4514   4515     1  180.0000771  10.4600000  2
   3105   3104   3110   4514     1  180.0000771  0.0000000  2
   3105   3104   3110   3112     1  0.0000000  3.3472000  1
   3105   3104   3110   3112     1  0.0000000  0.0000000  2
   3105   3104   3110   3112     1  180.0000771  0.3347200  3
   3106   3104   3110   4514     1  180.0000771  0.0000000  2
   3106   3104   3110   3112     1  0.0000000  3.3472000  1
   3106   3104   3110   3112     1  0.0000000  0.0000000  2
   3106   3104   3110   3112     1  180.0000771  0.3347200  3
   3107   3111   4525   4526     1  180.0000771  10.4600000  2
   3108   3107   3111   3113     1  0.0000000  3.3472000  1
   3108   3107   3111   3113     1  0.0000000  0.0000000  2
   3108   3107   3111   3113     1  180.0000771  0.3347200  3
   3108   3107   3111   4525     1  180.0000771  0.0000000  2
   3109   3107   3111   3113     1  0.0000000  3.3472000  1
   3109   3107   3111   3113     1  0.0000000  0.0000000  2
   3109   3107   3111   3113     1  180.0000771  0.3347200  3
   3109   3107   3111   4525     1  180.0000771  0.0000000  2
   3110   4514   4505   4506     1  0.0000000  0.0000000  2
   3110   4514   4505   4507     1  0.0000000  0.0000000  2
   3111   4525   4516   4517     1  0.0000000  0.0000000  2
   3111   4525   4516   4518     1  0.0000000  0.0000000  2
   3112   3110   4514   4515     1  0.0000000  8.3680000  1
   3112   3110   4514   4515     1  180.0000771  10.4600000  2
   3113   3111   4525   4526     1  0.0000000  8.3680000  1
   3113   3111   4525   4526     1  180.0000771  10.4600000  2
   3116   3119   3139   3140     1  0.0000000  0.0000000  2
   3116   3122   3123   3124     1  0.0000000  1.2552000  3
   3116   3122   3123   3125     1  0.0000000  1.2552000  3
   3116   3122   3126   3127     1  0.0000000  1.2552000  3
   3116   3122   3126   3128     1  0.0000000  1.2552000  3
   3117   3116   3119   3139     1  0.0000000  0.6508444  3
   3117   3116   3119   3120     1  0.0000000  0.6508444  3
   3117   3116   3119   3121     1  0.0000000  0.6508444  3
   3117   3116   3122   3123     1  0.0000000  1.2552000  3
   3117   3116   3122   3126     1  0.0000000  1.2552000  3
   3118   3116   3119   3139     1  0.0000000  0.6508444  3
   3118   3116   3119   3120     1  0.0000000  0.6508444  3
   3118   3116   3119   3121     1  0.0000000  0.6508444  3
   3118   3116   3122   3123     1  0.0000000  1.2552000  3
   3118   3116   3122   3126     1  0.0000000  1.2552000  3
   3120   3119   3116   3122     1  0.0000000  0.6508444  3
   3120   3119   3139   3140     1  0.0000000  0.0000000  2
   3121   3119   3116   3122     1  0.0000000  0.6508444  3
   3121   3119   3139   3140     1  0.0000000  0.0000000  2
   3122   3123   3132   3133     1  0.0000000  0.6508444  3
   3122   3123   3132   3134     1  0.0000000  0.6508444  3
   3122   3126   3129   3130     1  0.0000000  0.6508444  3
   3122   3126   3129   3131     1  0.0000000  0.6508444  3
   3123   3122   3126   3127     1  0.0000000  1.2552000  3
   3123   3122   3126   3128     1  0.0000000  1.2552000  3
   3124   3123   3122   3126     1  0.0000000  1.2552000  3
   3124   3123   3132   3136     1  0.0000000  0.6508444  3
   3124   3123   3132   3133     1  0.0000000  0.6508444  3
   3124   3123   3132   3134     1  0.0000000  0.6508444  3
   3125   3123   3122   3126     1  0.0000000  1.2552000  3
   3125   3123   3132   3136     1  0.0000000  0.6508444  3
   3125   3123   3132   3133     1  0.0000000  0.6508444  3
   3125   3123   3132   3134     1  0.0000000  0.6508444  3
   3127   3126   3129   3135     1  0.0000000  0.6508444  3
   3127   3126   3129   3130     1  0.0000000  0.6508444  3
   3127   3126   3129   3131     1  0.0000000  0.6508444  3
   3128   3126   3129   3135     1  0.0000000  0.6508444  3
   3128   3126   3129   3130     1  0.0000000  0.6508444  3
   3128   3126   3129   3131     1  0.0000000  0.6508444  3
   3129   3135   4536   4537     1  180.0000771  10.4600000  2
   3130   3129   3135   4536     1  180.0000771  0.0000000  2
   3130   3129   3135   3137     1  0.0000000  3.3472000  1
   3130   3129   3135   3137     1  0.0000000  0.0000000  2
   3130   3129   3135   3137     1  180.0000771  0.3347200  3
   3131   3129   3135   4536     1  180.0000771  0.0000000  2
   3131   3129   3135   3137     1  0.0000000  3.3472000  1
   3131   3129   3135   3137     1  0.0000000  0.0000000  2
   3131   3129   3135   3137     1  180.0000771  0.3347200  3
   3132   3136   4547   4548     1  180.0000771  10.4600000  2
   3133   3132   3136   4547     1  180.0000771  0.0000000  2
   3133   3132   3136   3138     1  0.0000000  3.3472000  1
   3133   3132   3136   3138     1  0.0000000  0.0000000  2
   3133   3132   3136   3138     1  180.0000771  0.3347200  3
   3134   3132   3136   4547     1  180.0000771  0.0000000  2
   3134   3132   3136   3138     1  0.0000000  3.3472000  1
   3134   3132   3136   3138     1  0.0000000  0.0000000  2
   3134   3132   3136   3138     1  180.0000771  0.3347200  3
   3135   4536   4527   4528     1  0.0000000  0.0000000  2
   3135   4536   4527   4529     1  0.0000000  0.0000000  2
   3136   4547   4538   4539     1  0.0000000  0.0000000  2
   3136   4547   4538   4540     1  0.0000000  0.0000000  2
   3137   3135   4536   4537     1  0.0000000  8.3680000  1
   3137   3135   4536   4537     1  180.0000771  10.4600000  2
   3138   3136   4547   4548     1  0.0000000  8.3680000  1
   3138   3136   4547   4548     1  180.0000771  10.4600000  2
   3141   3144   3147   3148     1  0.0000000  1.2552000  3
   3141   3144   3147   3149     1  0.0000000  1.2552000  3
   3142   3141   3144   3147     1  0.0000000  0.6508444  3
   3142   3141   3144   3145     1  0.0000000  0.6508444  3
   3142   3141   3144   3146     1  0.0000000  0.6508444  3
   3142   3141   3150   3151     1  0.0000000  0.0000000  2
   3143   3141   3144   3147     1  0.0000000  0.6508444  3
   3143   3141   3144   3145     1  0.0000000  0.6508444  3
   3143   3141   3144   3146     1  0.0000000  0.6508444  3
   3143   3141   3150   3151     1  0.0000000  0.0000000  2
   3144   3141   3150   3151     1  0.0000000  0.0000000  2
   3145   3144   3141   3150     1  0.0000000  0.6508444  3
   3145   3144   3147   3148     1  0.0000000  1.2552000  3
   3145   3144   3147   3149     1  0.0000000  1.2552000  3
   3146   3144   3141   3150     1  0.0000000  0.6508444  3
   3146   3144   3147   3148     1  0.0000000  1.2552000  3
   3146   3144   3147   3149     1  0.0000000  1.2552000  3
   3152   3155   3158   3159     1  0.0000000  1.2552000  3
   3152   3155   3158   3160     1  0.0000000  1.2552000  3
   3153   3152   3155   3158     1  0.0000000  0.6508444  3
   3153   3152   3155   3156     1  0.0000000  0.6508444  3
   3153   3152   3155   3157     1  0.0000000  0.6508444  3
   3153   3152   3161   3162     1  0.0000000  0.0000000  2
   3154   3152   3155   3158     1  0.0000000  0.6508444  3
   3154   3152   3155   3156     1  0.0000000  0.6508444  3
   3154   3152   3155   3157     1  0.0000000  0.6508444  3
   3154   3152   3161   3162     1  0.0000000  0.0000000  2
   3155   3152   3161   3162     1  0.0000000  0.0000000  2
   3156   3155   3158   3159     1  0.0000000  1.2552000  3
   3156   3155   3158   3160     1  0.0000000  1.2552000  3
   3156   3155   3152   3161     1  0.0000000  0.6508444  3
   3157   3155   3158   3159     1  0.0000000  1.2552000  3
   3157   3155   3158   3160     1  0.0000000  1.2552000  3
   3157   3155   3152   3161     1  0.0000000  0.6508444  3
   3163   3166   3169   3170     1  0.0000000  1.2552000  3
   3163   3166   3169   3171     1  0.0000000  1.2552000  3
   3164   3163   3166   3169     1  0.0000000  0.6508444  3
   3164   3163   3166   3167     1  0.0000000  0.6508444  3
   3164   3163   3166   3168     1  0.0000000  0.6508444  3
   3164   3163   3172   3173     1  0.0000000  0.0000000  2
   3165   3163   3166   3169     1  0.0000000  0.6508444  3
   3165   3163   3166   3167     1  0.0000000  0.6508444  3
   3165   3163   3166   3168     1  0.0000000  0.6508444  3
   3165   3163   3172   3173     1  0.0000000  0.0000000  2
   3166   3163   3172   3173     1  0.0000000  0.0000000  2
   3167   3166   3163   3172     1  0.0000000  0.6508444  3
   3167   3166   3169   3170     1  0.0000000  1.2552000  3
   3167   3166   3169   3171     1  0.0000000  1.2552000  3
   3168   3166   3163   3172     1  0.0000000  0.6508444  3
   3168   3166   3169   3170     1  0.0000000  1.2552000  3
   3168   3166   3169   3171     1  0.0000000  1.2552000  3
   3174   3177   3180   3181     1  0.0000000  1.2552000  3
   3174   3177   3180   3182     1  0.0000000  1.2552000  3
   3175   3174   3177   3180     1  0.0000000  0.6508444  3
   3175   3174   3177   3178     1  0.0000000  0.6508444  3
   3175   3174   3177   3179     1  0.0000000  0.6508444  3
   3175   3174   3183   3184     1  0.0000000  0.0000000  2
   3176   3174   3177   3180     1  0.0000000  0.6508444  3
   3176   3174   3177   3178     1  0.0000000  0.6508444  3
   3176   3174   3177   3179     1  0.0000000  0.6508444  3
   3176   3174   3183   3184     1  0.0000000  0.0000000  2
   3177   3174   3183   3184     1  0.0000000  0.0000000  2
   3178   3177   3180   3181     1  0.0000000  1.2552000  3
   3178   3177   3180   3182     1  0.0000000  1.2552000  3
   3178   3177   3174   3183     1  0.0000000  0.6508444  3
   3179   3177   3180   3181     1  0.0000000  1.2552000  3
   3179   3177   3180   3182     1  0.0000000  1.2552000  3
   3179   3177   3174   3183     1  0.0000000  0.6508444  3
   3185   3188   3191   3192     1  0.0000000  1.2552000  3
   3185   3188   3191   3193     1  0.0000000  1.2552000  3
   3186   3185   3188   3191     1  0.0000000  0.6508444  3
   3186   3185   3188   3189     1  0.0000000  0.6508444  3
   3186   3185   3188   3190     1  0.0000000  0.6508444  3
   3186   3185   3194   3195     1  0.0000000  0.0000000  2
   3187   3185   3188   3191     1  0.0000000  0.6508444  3
   3187   3185   3188   3189     1  0.0000000  0.6508444  3
   3187   3185   3188   3190     1  0.0000000  0.6508444  3
   3187   3185   3194   3195     1  0.0000000  0.0000000  2
   3188   3185   3194   3195     1  0.0000000  0.0000000  2
   3189   3188   3185   3194     1  0.0000000  0.6508444  3
   3189   3188   3191   3192     1  0.0000000  1.2552000  3
   3189   3188   3191   3193     1  0.0000000  1.2552000  3
   3190   3188   3185   3194     1  0.0000000  0.6508444  3
   3190   3188   3191   3192     1  0.0000000  1.2552000  3
   3190   3188   3191   3193     1  0.0000000  1.2552000  3
   3196   3199   3202   3203     1  0.0000000  1.2552000  3
   3196   3199   3202   3204     1  0.0000000  1.2552000  3
   3197   3196   3199   3202     1  0.0000000  0.6508444  3
   3197   3196   3199   3200     1  0.0000000  0.6508444  3
   3197   3196   3199   3201     1  0.0000000  0.6508444  3
   3197   3196   3205   3206     1  0.0000000  0.0000000  2
   3198   3196   3199   3202     1  0.0000000  0.6508444  3
   3198   3196   3199   3200     1  0.0000000  0.6508444  3
   3198   3196   3199   3201     1  0.0000000  0.6508444  3
   3198   3196   3205   3206     1  0.0000000  0.0000000  2
   3199   3196   3205   3206     1  0.0000000  0.0000000  2
   3200   3199   3202   3203     1  0.0000000  1.2552000  3
   3200   3199   3202   3204     1  0.0000000  1.2552000  3
   3200   3199   3196   3205     1  0.0000000  0.6508444  3
   3201   3199   3202   3203     1  0.0000000  1.2552000  3
   3201   3199   3202   3204     1  0.0000000  1.2552000  3
   3201   3199   3196   3205     1  0.0000000  0.6508444  3
   3207   3210   3213   3214     1  0.0000000  1.2552000  3
   3207   3210   3213   3215     1  0.0000000  1.2552000  3
   3208   3207   3210   3213     1  0.0000000  0.6508444  3
   3208   3207   3210   3211     1  0.0000000  0.6508444  3
   3208   3207   3210   3212     1  0.0000000  0.6508444  3
   3208   3207   3216   3217     1  0.0000000  0.0000000  2
   3209   3207   3210   3213     1  0.0000000  0.6508444  3
   3209   3207   3210   3211     1  0.0000000  0.6508444  3
   3209   3207   3210   3212     1  0.0000000  0.6508444  3
   3209   3207   3216   3217     1  0.0000000  0.0000000  2
   3210   3207   3216   3217     1  0.0000000  0.0000000  2
   3211   3210   3207   3216     1  0.0000000  0.6508444  3
   3211   3210   3213   3214     1  0.0000000  1.2552000  3
   3211   3210   3213   3215     1  0.0000000  1.2552000  3
   3212   3210   3207   3216     1  0.0000000  0.6508444  3
   3212   3210   3213   3214     1  0.0000000  1.2552000  3
   3212   3210   3213   3215     1  0.0000000  1.2552000  3
   3218   3221   3224   3225     1  0.0000000  1.2552000  3
   3218   3221   3224   3226     1  0.0000000  1.2552000  3
   3219   3218   3221   3224     1  0.0000000  0.6508444  3
   3219   3218   3221   3222     1  0.0000000  0.6508444  3
   3219   3218   3221   3223     1  0.0000000  0.6508444  3
   3219   3218   3227   3228     1  0.0000000  0.0000000  2
   3220   3218   3221   3224     1  0.0000000  0.6508444  3
   3220   3218   3221   3222     1  0.0000000  0.6508444  3
   3220   3218   3221   3223     1  0.0000000  0.6508444  3
   3220   3218   3227   3228     1  0.0000000  0.0000000  2
   3221   3218   3227   3228     1  0.0000000  0.0000000  2
   3222   3221   3224   3225     1  0.0000000  1.2552000  3
   3222   3221   3224   3226     1  0.0000000  1.2552000  3
   3222   3221   3218   3227     1  0.0000000  0.6508444  3
   3223   3221   3224   3225     1  0.0000000  1.2552000  3
   3223   3221   3224   3226     1  0.0000000  1.2552000  3
   3223   3221   3218   3227     1  0.0000000  0.6508444  3
   3229   3232   3235   3236     1  0.0000000  1.2552000  3
   3229   3232   3235   3237     1  0.0000000  1.2552000  3
   3230   3229   3232   3235     1  0.0000000  0.6508444  3
   3230   3229   3232   3233     1  0.0000000  0.6508444  3
   3230   3229   3232   3234     1  0.0000000  0.6508444  3
   3230   3229   3238   3239     1  0.0000000  0.0000000  2
   3231   3229   3232   3235     1  0.0000000  0.6508444  3
   3231   3229   3232   3233     1  0.0000000  0.6508444  3
   3231   3229   3232   3234     1  0.0000000  0.6508444  3
   3231   3229   3238   3239     1  0.0000000  0.0000000  2
   3232   3229   3238   3239     1  0.0000000  0.0000000  2
   3233   3232   3229   3238     1  0.0000000  0.6508444  3
   3233   3232   3235   3236     1  0.0000000  1.2552000  3
   3233   3232   3235   3237     1  0.0000000  1.2552000  3
   3234   3232   3229   3238     1  0.0000000  0.6508444  3
   3234   3232   3235   3236     1  0.0000000  1.2552000  3
   3234   3232   3235   3237     1  0.0000000  1.2552000  3
   3240   3243   3246   3247     1  0.0000000  1.2552000  3
   3240   3243   3246   3248     1  0.0000000  1.2552000  3
   3241   3240   3243   3246     1  0.0000000  0.6508444  3
   3241   3240   3243   3244     1  0.0000000  0.6508444  3
   3241   3240   3243   3245     1  0.0000000  0.6508444  3
   3241   3240   3249   3250     1  0.0000000  0.0000000  2
   3242   3240   3243   3246     1  0.0000000  0.6508444  3
   3242   3240   3243   3244     1  0.0000000  0.6508444  3
   3242   3240   3243   3245     1  0.0000000  0.6508444  3
   3242   3240   3249   3250     1  0.0000000  0.0000000  2
   3243   3240   3249   3250     1  0.0000000  0.0000000  2
   3244   3243   3246   3247     1  0.0000000  1.2552000  3
   3244   3243   3246   3248     1  0.0000000  1.2552000  3
   3244   3243   3240   3249     1  0.0000000  0.6508444  3
   3245   3243   3246   3247     1  0.0000000  1.2552000  3
   3245   3243   3246   3248     1  0.0000000  1.2552000  3
   3245   3243   3240   3249     1  0.0000000  0.6508444  3
   3251   3254   3257   3258     1  0.0000000  1.2552000  3
   3251   3254   3257   3259     1  0.0000000  1.2552000  3
   3252   3251   3254   3257     1  0.0000000  0.6508444  3
   3252   3251   3254   3255     1  0.0000000  0.6508444  3
   3252   3251   3254   3256     1  0.0000000  0.6508444  3
   3252   3251   3260   3261     1  0.0000000  0.0000000  2
   3253   3251   3254   3257     1  0.0000000  0.6508444  3
   3253   3251   3254   3255     1  0.0000000  0.6508444  3
   3253   3251   3254   3256     1  0.0000000  0.6508444  3
   3253   3251   3260   3261     1  0.0000000  0.0000000  2
   3254   3251   3260   3261     1  0.0000000  0.0000000  2
   3255   3254   3251   3260     1  0.0000000  0.6508444  3
   3255   3254   3257   3258     1  0.0000000  1.2552000  3
   3255   3254   3257   3259     1  0.0000000  1.2552000  3
   3256   3254   3251   3260     1  0.0000000  0.6508444  3
   3256   3254   3257   3258     1  0.0000000  1.2552000  3
   3256   3254   3257   3259     1  0.0000000  1.2552000  3
   3262   3265   3268   3269     1  0.0000000  1.2552000  3
   3262   3265   3268   3270     1  0.0000000  1.2552000  3
   3263   3262   3265   3268     1  0.0000000  0.6508444  3
   3263   3262   3265   3266     1  0.0000000  0.6508444  3
   3263   3262   3265   3267     1  0.0000000  0.6508444  3
   3263   3262   3271   3272     1  0.0000000  0.0000000  2
   3264   3262   3265   3268     1  0.0000000  0.6508444  3
   3264   3262   3265   3266     1  0.0000000  0.6508444  3
   3264   3262   3265   3267     1  0.0000000  0.6508444  3
   3264   3262   3271   3272     1  0.0000000  0.0000000  2
   3265   3262   3271   3272     1  0.0000000  0.0000000  2
   3266   3265   3268   3269     1  0.0000000  1.2552000  3
   3266   3265   3268   3270     1  0.0000000  1.2552000  3
   3266   3265   3262   3271     1  0.0000000  0.6508444  3
   3267   3265   3268   3269     1  0.0000000  1.2552000  3
   3267   3265   3268   3270     1  0.0000000  1.2552000  3
   3267   3265   3262   3271     1  0.0000000  0.6508444  3
   3273   3276   3279   3280     1  0.0000000  1.2552000  3
   3273   3276   3279   3281     1  0.0000000  1.2552000  3
   3274   3273   3276   3279     1  0.0000000  0.6508444  3
   3274   3273   3276   3277     1  0.0000000  0.6508444  3
   3274   3273   3276   3278     1  0.0000000  0.6508444  3
   3274   3273   3282   3283     1  0.0000000  0.0000000  2
   3275   3273   3276   3279     1  0.0000000  0.6508444  3
   3275   3273   3276   3277     1  0.0000000  0.6508444  3
   3275   3273   3276   3278     1  0.0000000  0.6508444  3
   3275   3273   3282   3283     1  0.0000000  0.0000000  2
   3276   3273   3282   3283     1  0.0000000  0.0000000  2
   3277   3276   3273   3282     1  0.0000000  0.6508444  3
   3277   3276   3279   3280     1  0.0000000  1.2552000  3
   3277   3276   3279   3281     1  0.0000000  1.2552000  3
   3278   3276   3273   3282     1  0.0000000  0.6508444  3
   3278   3276   3279   3280     1  0.0000000  1.2552000  3
   3278   3276   3279   3281     1  0.0000000  1.2552000  3
   3284   3287   3290   3291     1  0.0000000  1.2552000  3
   3284   3287   3290   3292     1  0.0000000  1.2552000  3
   3285   3284   3287   3290     1  0.0000000  0.6508444  3
   3285   3284   3287   3288     1  0.0000000  0.6508444  3
   3285   3284   3287   3289     1  0.0000000  0.6508444  3
   3285   3284   3293   3294     1  0.0000000  0.0000000  2
   3286   3284   3287   3290     1  0.0000000  0.6508444  3
   3286   3284   3287   3288     1  0.0000000  0.6508444  3
   3286   3284   3287   3289     1  0.0000000  0.6508444  3
   3286   3284   3293   3294     1  0.0000000  0.0000000  2
   3287   3284   3293   3294     1  0.0000000  0.0000000  2
   3288   3287   3290   3291     1  0.0000000  1.2552000  3
   3288   3287   3290   3292     1  0.0000000  1.2552000  3
   3288   3287   3284   3293     1  0.0000000  0.6508444  3
   3289   3287   3290   3291     1  0.0000000  1.2552000  3
   3289   3287   3290   3292     1  0.0000000  1.2552000  3
   3289   3287   3284   3293     1  0.0000000  0.6508444  3
   3295   3298   3301   3302     1  0.0000000  1.2552000  3
   3295   3298   3301   3303     1  0.0000000  1.2552000  3
   3296   3295   3298   3301     1  0.0000000  0.6508444  3
   3296   3295   3298   3299     1  0.0000000  0.6508444  3
   3296   3295   3298   3300     1  0.0000000  0.6508444  3
   3296   3295   3304   3305     1  0.0000000  0.0000000  2
   3297   3295   3298   3301     1  0.0000000  0.6508444  3
   3297   3295   3298   3299     1  0.0000000  0.6508444  3
   3297   3295   3298   3300     1  0.0000000  0.6508444  3
   3297   3295   3304   3305     1  0.0000000  0.0000000  2
   3298   3295   3304   3305     1  0.0000000  0.0000000  2
   3299   3298   3295   3304     1  0.0000000  0.6508444  3
   3299   3298   3301   3302     1  0.0000000  1.2552000  3
   3299   3298   3301   3303     1  0.0000000  1.2552000  3
   3300   3298   3295   3304     1  0.0000000  0.6508444  3
   3300   3298   3301   3302     1  0.0000000  1.2552000  3
   3300   3298   3301   3303     1  0.0000000  1.2552000  3
   3306   3309   3312   3313     1  0.0000000  1.2552000  3
   3306   3309   3312   3314     1  0.0000000  1.2552000  3
   3307   3306   3309   3312     1  0.0000000  0.6508444  3
   3307   3306   3309   3310     1  0.0000000  0.6508444  3
   3307   3306   3309   3311     1  0.0000000  0.6508444  3
   3307   3306   3315   3316     1  0.0000000  0.0000000  2
   3308   3306   3309   3312     1  0.0000000  0.6508444  3
   3308   3306   3309   3310     1  0.0000000  0.6508444  3
   3308   3306   3309   3311     1  0.0000000  0.6508444  3
   3308   3306   3315   3316     1  0.0000000  0.0000000  2
   3309   3306   3315   3316     1  0.0000000  0.0000000  2
   3310   3309   3312   3313     1  0.0000000  1.2552000  3
   3310   3309   3312   3314     1  0.0000000  1.2552000  3
   3310   3309   3306   3315     1  0.0000000  0.6508444  3
   3311   3309   3312   3313     1  0.0000000  1.2552000  3
   3311   3309   3312   3314     1  0.0000000  1.2552000  3
   3311   3309   3306   3315     1  0.0000000  0.6508444  3
   3317   3320   3323   3324     1  0.0000000  1.2552000  3
   3317   3320   3323   3325     1  0.0000000  1.2552000  3
   3318   3317   3320   3323     1  0.0000000  0.6508444  3
   3318   3317   3320   3321     1  0.0000000  0.6508444  3
   3318   3317   3320   3322     1  0.0000000  0.6508444  3
   3318   3317   3326   3327     1  0.0000000  0.0000000  2
   3319   3317   3320   3323     1  0.0000000  0.6508444  3
   3319   3317   3320   3321     1  0.0000000  0.6508444  3
   3319   3317   3320   3322     1  0.0000000  0.6508444  3
   3319   3317   3326   3327     1  0.0000000  0.0000000  2
   3320   3317   3326   3327     1  0.0000000  0.0000000  2
   3321   3320   3317   3326     1  0.0000000  0.6508444  3
   3321   3320   3323   3324     1  0.0000000  1.2552000  3
   3321   3320   3323   3325     1  0.0000000  1.2552000  3
   3322   3320   3317   3326     1  0.0000000  0.6508444  3
   3322   3320   3323   3324     1  0.0000000  1.2552000  3
   3322   3320   3323   3325     1  0.0000000  1.2552000  3
   3328   3331   3334   3335     1  0.0000000  1.2552000  3
   3328   3331   3334   3336     1  0.0000000  1.2552000  3
   3329   3328   3331   3334     1  0.0000000  0.6508444  3
   3329   3328   3331   3332     1  0.0000000  0.6508444  3
   3329   3328   3331   3333     1  0.0000000  0.6508444  3
   3329   3328   3337   3338     1  0.0000000  0.0000000  2
   3330   3328   3331   3334     1  0.0000000  0.6508444  3
   3330   3328   3331   3332     1  0.0000000  0.6508444  3
   3330   3328   3331   3333     1  0.0000000  0.6508444  3
   3330   3328   3337   3338     1  0.0000000  0.0000000  2
   3331   3328   3337   3338     1  0.0000000  0.0000000  2
   3332   3331   3334   3335     1  0.0000000  1.2552000  3
   3332   3331   3334   3336     1  0.0000000  1.2552000  3
   3332   3331   3328   3337     1  0.0000000  0.6508444  3
   3333   3331   3334   3335     1  0.0000000  1.2552000  3
   3333   3331   3334   3336     1  0.0000000  1.2552000  3
   3333   3331   3328   3337     1  0.0000000  0.6508444  3
   3339   3342   3345   3346     1  0.0000000  1.2552000  3
   3339   3342   3345   3347     1  0.0000000  1.2552000  3
   3340   3339   3342   3345     1  0.0000000  0.6508444  3
   3340   3339   3342   3343     1  0.0000000  0.6508444  3
   3340   3339   3342   3344     1  0.0000000  0.6508444  3
   3340   3339   3348   3349     1  0.0000000  0.0000000  2
   3341   3339   3342   3345     1  0.0000000  0.6508444  3
   3341   3339   3342   3343     1  0.0000000  0.6508444  3
   3341   3339   3342   3344     1  0.0000000  0.6508444  3
   3341   3339   3348   3349     1  0.0000000  0.0000000  2
   3342   3339   3348   3349     1  0.0000000  0.0000000  2
   3343   3342   3339   3348     1  0.0000000  0.6508444  3
   3343   3342   3345   3346     1  0.0000000  1.2552000  3
   3343   3342   3345   3347     1  0.0000000  1.2552000  3
   3344   3342   3339   3348     1  0.0000000  0.6508444  3
   3344   3342   3345   3346     1  0.0000000  1.2552000  3
   3344   3342   3345   3347     1  0.0000000  1.2552000  3
   3350   3353   3356   3357     1  0.0000000  1.2552000  3
   3350   3353   3356   3358     1  0.0000000  1.2552000  3
   3351   3350   3353   3356     1  0.0000000  0.6508444  3
   3351   3350   3353   3354     1  0.0000000  0.6508444  3
   3351   3350   3353   3355     1  0.0000000  0.6508444  3
   3351   3350   3359   3360     1  0.0000000  0.0000000  2
   3352   3350   3353   3356     1  0.0000000  0.6508444  3
   3352   3350   3353   3354     1  0.0000000  0.6508444  3
   3352   3350   3353   3355     1  0.0000000  0.6508444  3
   3352   3350   3359   3360     1  0.0000000  0.0000000  2
   3353   3350   3359   3360     1  0.0000000  0.0000000  2
   3354   3353   3356   3357     1  0.0000000  1.2552000  3
   3354   3353   3356   3358     1  0.0000000  1.2552000  3
   3354   3353   3350   3359     1  0.0000000  0.6508444  3
   3355   3353   3356   3357     1  0.0000000  1.2552000  3
   3355   3353   3356   3358     1  0.0000000  1.2552000  3
   3355   3353   3350   3359     1  0.0000000  0.6508444  3
   3361   3364   3367   3368     1  0.0000000  1.2552000  3
   3361   3364   3367   3369     1  0.0000000  1.2552000  3
   3362   3361   3364   3367     1  0.0000000  0.6508444  3
   3362   3361   3364   3365     1  0.0000000  0.6508444  3
   3362   3361   3364   3366     1  0.0000000  0.6508444  3
   3362   3361   3370   3371     1  0.0000000  0.0000000  2
   3363   3361   3364   3367     1  0.0000000  0.6508444  3
   3363   3361   3364   3365     1  0.0000000  0.6508444  3
   3363   3361   3364   3366     1  0.0000000  0.6508444  3
   3363   3361   3370   3371     1  0.0000000  0.0000000  2
   3364   3361   3370   3371     1  0.0000000  0.0000000  2
   3365   3364   3361   3370     1  0.0000000  0.6508444  3
   3365   3364   3367   3368     1  0.0000000  1.2552000  3
   3365   3364   3367   3369     1  0.0000000  1.2552000  3
   3366   3364   3361   3370     1  0.0000000  0.6508444  3
   3366   3364   3367   3368     1  0.0000000  1.2552000  3
   3366   3364   3367   3369     1  0.0000000  1.2552000  3
   3372   3375   3378   3379     1  0.0000000  1.2552000  3
   3372   3375   3378   3380     1  0.0000000  1.2552000  3
   3373   3372   3375   3378     1  0.0000000  0.6508444  3
   3373   3372   3375   3376     1  0.0000000  0.6508444  3
   3373   3372   3375   3377     1  0.0000000  0.6508444  3
   3373   3372   3381   3382     1  0.0000000  0.0000000  2
   3374   3372   3375   3378     1  0.0000000  0.6508444  3
   3374   3372   3375   3376     1  0.0000000  0.6508444  3
   3374   3372   3375   3377     1  0.0000000  0.6508444  3
   3374   3372   3381   3382     1  0.0000000  0.0000000  2
   3375   3372   3381   3382     1  0.0000000  0.0000000  2
   3376   3375   3378   3379     1  0.0000000  1.2552000  3
   3376   3375   3378   3380     1  0.0000000  1.2552000  3
   3376   3375   3372   3381     1  0.0000000  0.6508444  3
   3377   3375   3378   3379     1  0.0000000  1.2552000  3
   3377   3375   3378   3380     1  0.0000000  1.2552000  3
   3377   3375   3372   3381     1  0.0000000  0.6508444  3
   3383   3386   3389   3390     1  0.0000000  1.2552000  3
   3383   3386   3389   3391     1  0.0000000  1.2552000  3
   3384   3383   3386   3389     1  0.0000000  0.6508444  3
   3384   3383   3386   3387     1  0.0000000  0.6508444  3
   3384   3383   3386   3388     1  0.0000000  0.6508444  3
   3384   3383   3392   3393     1  0.0000000  0.0000000  2
   3385   3383   3386   3389     1  0.0000000  0.6508444  3
   3385   3383   3386   3387     1  0.0000000  0.6508444  3
   3385   3383   3386   3388     1  0.0000000  0.6508444  3
   3385   3383   3392   3393     1  0.0000000  0.0000000  2
   3386   3383   3392   3393     1  0.0000000  0.0000000  2
   3387   3386   3383   3392     1  0.0000000  0.6508444  3
   3387   3386   3389   3390     1  0.0000000  1.2552000  3
   3387   3386   3389   3391     1  0.0000000  1.2552000  3
   3388   3386   3383   3392     1  0.0000000  0.6508444  3
   3388   3386   3389   3390     1  0.0000000  1.2552000  3
   3388   3386   3389   3391     1  0.0000000  1.2552000  3
   3394   3397   3400   3401     1  0.0000000  1.2552000  3
   3394   3397   3400   3402     1  0.0000000  1.2552000  3
   3395   3394   3397   3400     1  0.0000000  0.6508444  3
   3395   3394   3397   3398     1  0.0000000  0.6508444  3
   3395   3394   3397   3399     1  0.0000000  0.6508444  3
   3395   3394   3403   3404     1  0.0000000  0.0000000  2
   3396   3394   3397   3400     1  0.0000000  0.6508444  3
   3396   3394   3397   3398     1  0.0000000  0.6508444  3
   3396   3394   3397   3399     1  0.0000000  0.6508444  3
   3396   3394   3403   3404     1  0.0000000  0.0000000  2
   3397   3394   3403   3404     1  0.0000000  0.0000000  2
   3398   3397   3400   3401     1  0.0000000  1.2552000  3
   3398   3397   3400   3402     1  0.0000000  1.2552000  3
   3398   3397   3394   3403     1  0.0000000  0.6508444  3
   3399   3397   3400   3401     1  0.0000000  1.2552000  3
   3399   3397   3400   3402     1  0.0000000  1.2552000  3
   3399   3397   3394   3403     1  0.0000000  0.6508444  3
   3405   3408   3411   3412     1  0.0000000  1.2552000  3
   3405   3408   3411   3413     1  0.0000000  1.2552000  3
   3406   3405   3408   3411     1  0.0000000  0.6508444  3
   3406   3405   3408   3409     1  0.0000000  0.6508444  3
   3406   3405   3408   3410     1  0.0000000  0.6508444  3
   3406   3405   3414   3415     1  0.0000000  0.0000000  2
   3407   3405   3408   3411     1  0.0000000  0.6508444  3
   3407   3405   3408   3409     1  0.0000000  0.6508444  3
   3407   3405   3408   3410     1  0.0000000  0.6508444  3
   3407   3405   3414   3415     1  0.0000000  0.0000000  2
   3408   3405   3414   3415     1  0.0000000  0.0000000  2
   3409   3408   3405   3414     1  0.0000000  0.6508444  3
   3409   3408   3411   3412     1  0.0000000  1.2552000  3
   3409   3408   3411   3413     1  0.0000000  1.2552000  3
   3410   3408   3405   3414     1  0.0000000  0.6508444  3
   3410   3408   3411   3412     1  0.0000000  1.2552000  3
   3410   3408   3411   3413     1  0.0000000  1.2552000  3
   3416   3419   3422   3423     1  0.0000000  1.2552000  3
   3416   3419   3422   3424     1  0.0000000  1.2552000  3
   3417   3416   3419   3422     1  0.0000000  0.6508444  3
   3417   3416   3419   3420     1  0.0000000  0.6508444  3
   3417   3416   3419   3421     1  0.0000000  0.6508444  3
   3417   3416   3425   3426     1  0.0000000  0.0000000  2
   3418   3416   3419   3422     1  0.0000000  0.6508444  3
   3418   3416   3419   3420     1  0.0000000  0.6508444  3
   3418   3416   3419   3421     1  0.0000000  0.6508444  3
   3418   3416   3425   3426     1  0.0000000  0.0000000  2
   3419   3416   3425   3426     1  0.0000000  0.0000000  2
   3420   3419   3422   3423     1  0.0000000  1.2552000  3
   3420   3419   3422   3424     1  0.0000000  1.2552000  3
   3420   3419   3416   3425     1  0.0000000  0.6508444  3
   3421   3419   3422   3423     1  0.0000000  1.2552000  3
   3421   3419   3422   3424     1  0.0000000  1.2552000  3
   3421   3419   3416   3425     1  0.0000000  0.6508444  3
   3427   3430   3433   3434     1  0.0000000  1.2552000  3
   3427   3430   3433   3435     1  0.0000000  1.2552000  3
   3428   3427   3430   3433     1  0.0000000  0.6508444  3
   3428   3427   3430   3431     1  0.0000000  0.6508444  3
   3428   3427   3430   3432     1  0.0000000  0.6508444  3
   3428   3427   3436   3437     1  0.0000000  0.0000000  2
   3429   3427   3430   3433     1  0.0000000  0.6508444  3
   3429   3427   3430   3431     1  0.0000000  0.6508444  3
   3429   3427   3430   3432     1  0.0000000  0.6508444  3
   3429   3427   3436   3437     1  0.0000000  0.0000000  2
   3430   3427   3436   3437     1  0.0000000  0.0000000  2
   3431   3430   3427   3436     1  0.0000000  0.6508444  3
   3431   3430   3433   3434     1  0.0000000  1.2552000  3
   3431   3430   3433   3435     1  0.0000000  1.2552000  3
   3432   3430   3427   3436     1  0.0000000  0.6508444  3
   3432   3430   3433   3434     1  0.0000000  1.2552000  3
   3432   3430   3433   3435     1  0.0000000  1.2552000  3
   3438   3441   3444   3445     1  0.0000000  1.2552000  3
   3438   3441   3444   3446     1  0.0000000  1.2552000  3
   3439   3438   3441   3444     1  0.0000000  0.6508444  3
   3439   3438   3441   3442     1  0.0000000  0.6508444  3
   3439   3438   3441   3443     1  0.0000000  0.6508444  3
   3439   3438   3447   3448     1  0.0000000  0.0000000  2
   3440   3438   3441   3444     1  0.0000000  0.6508444  3
   3440   3438   3441   3442     1  0.0000000  0.6508444  3
   3440   3438   3441   3443     1  0.0000000  0.6508444  3
   3440   3438   3447   3448     1  0.0000000  0.0000000  2
   3441   3438   3447   3448     1  0.0000000  0.0000000  2
   3442   3441   3444   3445     1  0.0000000  1.2552000  3
   3442   3441   3444   3446     1  0.0000000  1.2552000  3
   3442   3441   3438   3447     1  0.0000000  0.6508444  3
   3443   3441   3444   3445     1  0.0000000  1.2552000  3
   3443   3441   3444   3446     1  0.0000000  1.2552000  3
   3443   3441   3438   3447     1  0.0000000  0.6508444  3
   3449   3452   3455   3456     1  0.0000000  1.2552000  3
   3449   3452   3455   3457     1  0.0000000  1.2552000  3
   3450   3449   3452   3455     1  0.0000000  0.6508444  3
   3450   3449   3452   3453     1  0.0000000  0.6508444  3
   3450   3449   3452   3454     1  0.0000000  0.6508444  3
   3450   3449   3458   3459     1  0.0000000  0.0000000  2
   3451   3449   3452   3455     1  0.0000000  0.6508444  3
   3451   3449   3452   3453     1  0.0000000  0.6508444  3
   3451   3449   3452   3454     1  0.0000000  0.6508444  3
   3451   3449   3458   3459     1  0.0000000  0.0000000  2
   3452   3449   3458   3459     1  0.0000000  0.0000000  2
   3453   3452   3449   3458     1  0.0000000  0.6508444  3
   3453   3452   3455   3456     1  0.0000000  1.2552000  3
   3453   3452   3455   3457     1  0.0000000  1.2552000  3
   3454   3452   3449   3458     1  0.0000000  0.6508444  3
   3454   3452   3455   3456     1  0.0000000  1.2552000  3
   3454   3452   3455   3457     1  0.0000000  1.2552000  3
   3460   3463   3466   3467     1  0.0000000  1.2552000  3
   3460   3463   3466   3468     1  0.0000000  1.2552000  3
   3461   3460   3463   3466     1  0.0000000  0.6508444  3
   3461   3460   3463   3464     1  0.0000000  0.6508444  3
   3461   3460   3463   3465     1  0.0000000  0.6508444  3
   3461   3460   3469   3470     1  0.0000000  0.0000000  2
   3462   3460   3463   3466     1  0.0000000  0.6508444  3
   3462   3460   3463   3464     1  0.0000000  0.6508444  3
   3462   3460   3463   3465     1  0.0000000  0.6508444  3
   3462   3460   3469   3470     1  0.0000000  0.0000000  2
   3463   3460   3469   3470     1  0.0000000  0.0000000  2
   3464   3463   3466   3467     1  0.0000000  1.2552000  3
   3464   3463   3466   3468     1  0.0000000  1.2552000  3
   3464   3463   3460   3469     1  0.0000000  0.6508444  3
   3465   3463   3466   3467     1  0.0000000  1.2552000  3
   3465   3463   3466   3468     1  0.0000000  1.2552000  3
   3465   3463   3460   3469     1  0.0000000  0.6508444  3
   3471   3474   3477   3478     1  0.0000000  1.2552000  3
   3471   3474   3477   3479     1  0.0000000  1.2552000  3
   3472   3471   3474   3477     1  0.0000000  0.6508444  3
   3472   3471   3474   3475     1  0.0000000  0.6508444  3
   3472   3471   3474   3476     1  0.0000000  0.6508444  3
   3472   3471   3480   3481     1  0.0000000  0.0000000  2
   3473   3471   3474   3477     1  0.0000000  0.6508444  3
   3473   3471   3474   3475     1  0.0000000  0.6508444  3
   3473   3471   3474   3476     1  0.0000000  0.6508444  3
   3473   3471   3480   3481     1  0.0000000  0.0000000  2
   3474   3471   3480   3481     1  0.0000000  0.0000000  2
   3475   3474   3471   3480     1  0.0000000  0.6508444  3
   3475   3474   3477   3478     1  0.0000000  1.2552000  3
   3475   3474   3477   3479     1  0.0000000  1.2552000  3
   3476   3474   3471   3480     1  0.0000000  0.6508444  3
   3476   3474   3477   3478     1  0.0000000  1.2552000  3
   3476   3474   3477   3479     1  0.0000000  1.2552000  3
   3482   3485   3488   3489     1  0.0000000  1.2552000  3
   3482   3485   3488   3490     1  0.0000000  1.2552000  3
   3483   3482   3485   3488     1  0.0000000  0.6508444  3
   3483   3482   3485   3486     1  0.0000000  0.6508444  3
   3483   3482   3485   3487     1  0.0000000  0.6508444  3
   3483   3482   3491   3492     1  0.0000000  0.0000000  2
   3484   3482   3485   3488     1  0.0000000  0.6508444  3
   3484   3482   3485   3486     1  0.0000000  0.6508444  3
   3484   3482   3485   3487     1  0.0000000  0.6508444  3
   3484   3482   3491   3492     1  0.0000000  0.0000000  2
   3485   3482   3491   3492     1  0.0000000  0.0000000  2
   3486   3485   3488   3489     1  0.0000000  1.2552000  3
   3486   3485   3488   3490     1  0.0000000  1.2552000  3
   3486   3485   3482   3491     1  0.0000000  0.6508444  3
   3487   3485   3488   3489     1  0.0000000  1.2552000  3
   3487   3485   3488   3490     1  0.0000000  1.2552000  3
   3487   3485   3482   3491     1  0.0000000  0.6508444  3
   3493   3496   3499   3500     1  0.0000000  1.2552000  3
   3493   3496   3499   3501     1  0.0000000  1.2552000  3
   3494   3493   3496   3499     1  0.0000000  0.6508444  3
   3494   3493   3496   3497     1  0.0000000  0.6508444  3
   3494   3493   3496   3498     1  0.0000000  0.6508444  3
   3494   3493   3502   3503     1  0.0000000  0.0000000  2
   3495   3493   3496   3499     1  0.0000000  0.6508444  3
   3495   3493   3496   3497     1  0.0000000  0.6508444  3
   3495   3493   3496   3498     1  0.0000000  0.6508444  3
   3495   3493   3502   3503     1  0.0000000  0.0000000  2
   3496   3493   3502   3503     1  0.0000000  0.0000000  2
   3497   3496   3493   3502     1  0.0000000  0.6508444  3
   3497   3496   3499   3500     1  0.0000000  1.2552000  3
   3497   3496   3499   3501     1  0.0000000  1.2552000  3
   3498   3496   3493   3502     1  0.0000000  0.6508444  3
   3498   3496   3499   3500     1  0.0000000  1.2552000  3
   3498   3496   3499   3501     1  0.0000000  1.2552000  3
   3504   3507   3510   3511     1  0.0000000  1.2552000  3
   3504   3507   3510   3512     1  0.0000000  1.2552000  3
   3505   3504   3507   3510     1  0.0000000  0.6508444  3
   3505   3504   3507   3508     1  0.0000000  0.6508444  3
   3505   3504   3507   3509     1  0.0000000  0.6508444  3
   3505   3504   3513   3514     1  0.0000000  0.0000000  2
   3506   3504   3507   3510     1  0.0000000  0.6508444  3
   3506   3504   3507   3508     1  0.0000000  0.6508444  3
   3506   3504   3507   3509     1  0.0000000  0.6508444  3
   3506   3504   3513   3514     1  0.0000000  0.0000000  2
   3507   3504   3513   3514     1  0.0000000  0.0000000  2
   3508   3507   3510   3511     1  0.0000000  1.2552000  3
   3508   3507   3510   3512     1  0.0000000  1.2552000  3
   3508   3507   3504   3513     1  0.0000000  0.6508444  3
   3509   3507   3510   3511     1  0.0000000  1.2552000  3
   3509   3507   3510   3512     1  0.0000000  1.2552000  3
   3509   3507   3504   3513     1  0.0000000  0.6508444  3
   3515   3518   3521   3522     1  0.0000000  1.2552000  3
   3515   3518   3521   3523     1  0.0000000  1.2552000  3
   3516   3515   3518   3521     1  0.0000000  0.6508444  3
   3516   3515   3518   3519     1  0.0000000  0.6508444  3
   3516   3515   3518   3520     1  0.0000000  0.6508444  3
   3516   3515   3524   3525     1  0.0000000  0.0000000  2
   3517   3515   3518   3521     1  0.0000000  0.6508444  3
   3517   3515   3518   3519     1  0.0000000  0.6508444  3
   3517   3515   3518   3520     1  0.0000000  0.6508444  3
   3517   3515   3524   3525     1  0.0000000  0.0000000  2
   3518   3515   3524   3525     1  0.0000000  0.0000000  2
   3519   3518   3515   3524     1  0.0000000  0.6508444  3
   3519   3518   3521   3522     1  0.0000000  1.2552000  3
   3519   3518   3521   3523     1  0.0000000  1.2552000  3
   3520   3518   3515   3524     1  0.0000000  0.6508444  3
   3520   3518   3521   3522     1  0.0000000  1.2552000  3
   3520   3518   3521   3523     1  0.0000000  1.2552000  3
   3526   3529   3532   3533     1  0.0000000  1.2552000  3
   3526   3529   3532   3534     1  0.0000000  1.2552000  3
   3527   3526   3529   3532     1  0.0000000  0.6508444  3
   3527   3526   3529   3530     1  0.0000000  0.6508444  3
   3527   3526   3529   3531     1  0.0000000  0.6508444  3
   3527   3526   3535   3536     1  0.0000000  0.0000000  2
   3528   3526   3529   3532     1  0.0000000  0.6508444  3
   3528   3526   3529   3530     1  0.0000000  0.6508444  3
   3528   3526   3529   3531     1  0.0000000  0.6508444  3
   3528   3526   3535   3536     1  0.0000000  0.0000000  2
   3529   3526   3535   3536     1  0.0000000  0.0000000  2
   3530   3529   3532   3533     1  0.0000000  1.2552000  3
   3530   3529   3532   3534     1  0.0000000  1.2552000  3
   3530   3529   3526   3535     1  0.0000000  0.6508444  3
   3531   3529   3532   3533     1  0.0000000  1.2552000  3
   3531   3529   3532   3534     1  0.0000000  1.2552000  3
   3531   3529   3526   3535     1  0.0000000  0.6508444  3
   3537   3540   3543   3544     1  0.0000000  1.2552000  3
   3537   3540   3543   3545     1  0.0000000  1.2552000  3
   3538   3537   3540   3543     1  0.0000000  0.6508444  3
   3538   3537   3540   3541     1  0.0000000  0.6508444  3
   3538   3537   3540   3542     1  0.0000000  0.6508444  3
   3538   3537   3546   3547     1  0.0000000  0.0000000  2
   3539   3537   3540   3543     1  0.0000000  0.6508444  3
   3539   3537   3540   3541     1  0.0000000  0.6508444  3
   3539   3537   3540   3542     1  0.0000000  0.6508444  3
   3539   3537   3546   3547     1  0.0000000  0.0000000  2
   3540   3537   3546   3547     1  0.0000000  0.0000000  2
   3541   3540   3537   3546     1  0.0000000  0.6508444  3
   3541   3540   3543   3544     1  0.0000000  1.2552000  3
   3541   3540   3543   3545     1  0.0000000  1.2552000  3
   3542   3540   3537   3546     1  0.0000000  0.6508444  3
   3542   3540   3543   3544     1  0.0000000  1.2552000  3
   3542   3540   3543   3545     1  0.0000000  1.2552000  3
   3548   3551   3554   3555     1  0.0000000  1.2552000  3
   3548   3551   3554   3556     1  0.0000000  1.2552000  3
   3549   3548   3551   3554     1  0.0000000  0.6508444  3
   3549   3548   3551   3552     1  0.0000000  0.6508444  3
   3549   3548   3551   3553     1  0.0000000  0.6508444  3
   3549   3548   3557   3558     1  0.0000000  0.0000000  2
   3550   3548   3551   3554     1  0.0000000  0.6508444  3
   3550   3548   3551   3552     1  0.0000000  0.6508444  3
   3550   3548   3551   3553     1  0.0000000  0.6508444  3
   3550   3548   3557   3558     1  0.0000000  0.0000000  2
   3551   3548   3557   3558     1  0.0000000  0.0000000  2
   3552   3551   3554   3555     1  0.0000000  1.2552000  3
   3552   3551   3554   3556     1  0.0000000  1.2552000  3
   3552   3551   3548   3557     1  0.0000000  0.6508444  3
   3553   3551   3554   3555     1  0.0000000  1.2552000  3
   3553   3551   3554   3556     1  0.0000000  1.2552000  3
   3553   3551   3548   3557     1  0.0000000  0.6508444  3
   3559   3562   3565   3566     1  0.0000000  1.2552000  3
   3559   3562   3565   3567     1  0.0000000  1.2552000  3
   3560   3559   3562   3565     1  0.0000000  0.6508444  3
   3560   3559   3562   3563     1  0.0000000  0.6508444  3
   3560   3559   3562   3564     1  0.0000000  0.6508444  3
   3560   3559   3568   3569     1  0.0000000  0.0000000  2
   3561   3559   3562   3565     1  0.0000000  0.6508444  3
   3561   3559   3562   3563     1  0.0000000  0.6508444  3
   3561   3559   3562   3564     1  0.0000000  0.6508444  3
   3561   3559   3568   3569     1  0.0000000  0.0000000  2
   3562   3559   3568   3569     1  0.0000000  0.0000000  2
   3563   3562   3559   3568     1  0.0000000  0.6508444  3
   3563   3562   3565   3566     1  0.0000000  1.2552000  3
   3563   3562   3565   3567     1  0.0000000  1.2552000  3
   3564   3562   3559   3568     1  0.0000000  0.6508444  3
   3564   3562   3565   3566     1  0.0000000  1.2552000  3
   3564   3562   3565   3567     1  0.0000000  1.2552000  3
   3570   3573   3576   3577     1  0.0000000  1.2552000  3
   3570   3573   3576   3578     1  0.0000000  1.2552000  3
   3571   3570   3573   3576     1  0.0000000  0.6508444  3
   3571   3570   3573   3574     1  0.0000000  0.6508444  3
   3571   3570   3573   3575     1  0.0000000  0.6508444  3
   3571   3570   3579   3580     1  0.0000000  0.0000000  2
   3572   3570   3573   3576     1  0.0000000  0.6508444  3
   3572   3570   3573   3574     1  0.0000000  0.6508444  3
   3572   3570   3573   3575     1  0.0000000  0.6508444  3
   3572   3570   3579   3580     1  0.0000000  0.0000000  2
   3573   3570   3579   3580     1  0.0000000  0.0000000  2
   3574   3573   3576   3577     1  0.0000000  1.2552000  3
   3574   3573   3576   3578     1  0.0000000  1.2552000  3
   3574   3573   3570   3579     1  0.0000000  0.6508444  3
   3575   3573   3576   3577     1  0.0000000  1.2552000  3
   3575   3573   3576   3578     1  0.0000000  1.2552000  3
   3575   3573   3570   3579     1  0.0000000  0.6508444  3
   3581   3584   3587   3588     1  0.0000000  1.2552000  3
   3581   3584   3587   3589     1  0.0000000  1.2552000  3
   3582   3581   3584   3587     1  0.0000000  0.6508444  3
   3582   3581   3584   3585     1  0.0000000  0.6508444  3
   3582   3581   3584   3586     1  0.0000000  0.6508444  3
   3582   3581   3590   3591     1  0.0000000  0.0000000  2
   3583   3581   3584   3587     1  0.0000000  0.6508444  3
   3583   3581   3584   3585     1  0.0000000  0.6508444  3
   3583   3581   3584   3586     1  0.0000000  0.6508444  3
   3583   3581   3590   3591     1  0.0000000  0.0000000  2
   3584   3581   3590   3591     1  0.0000000  0.0000000  2
   3585   3584   3581   3590     1  0.0000000  0.6508444  3
   3585   3584   3587   3588     1  0.0000000  1.2552000  3
   3585   3584   3587   3589     1  0.0000000  1.2552000  3
   3586   3584   3581   3590     1  0.0000000  0.6508444  3
   3586   3584   3587   3588     1  0.0000000  1.2552000  3
   3586   3584   3587   3589     1  0.0000000  1.2552000  3
   3592   3595   3598   3599     1  0.0000000  1.2552000  3
   3592   3595   3598   3600     1  0.0000000  1.2552000  3
   3593   3592   3595   3598     1  0.0000000  0.6508444  3
   3593   3592   3595   3596     1  0.0000000  0.6508444  3
   3593   3592   3595   3597     1  0.0000000  0.6508444  3
   3593   3592   3601   3602     1  0.0000000  0.0000000  2
   3594   3592   3595   3598     1  0.0000000  0.6508444  3
   3594   3592   3595   3596     1  0.0000000  0.6508444  3
   3594   3592   3595   3597     1  0.0000000  0.6508444  3
   3594   3592   3601   3602     1  0.0000000  0.0000000  2
   3595   3592   3601   3602     1  0.0000000  0.0000000  2
   3596   3595   3598   3599     1  0.0000000  1.2552000  3
   3596   3595   3598   3600     1  0.0000000  1.2552000  3
   3596   3595   3592   3601     1  0.0000000  0.6508444  3
   3597   3595   3598   3599     1  0.0000000  1.2552000  3
   3597   3595   3598   3600     1  0.0000000  1.2552000  3
   3597   3595   3592   3601     1  0.0000000  0.6508444  3
   3603   3606   3609   3610     1  0.0000000  1.2552000  3
   3603   3606   3609   3611     1  0.0000000  1.2552000  3
   3604   3603   3606   3609     1  0.0000000  0.6508444  3
   3604   3603   3606   3607     1  0.0000000  0.6508444  3
   3604   3603   3606   3608     1  0.0000000  0.6508444  3
   3604   3603   3612   3613     1  0.0000000  0.0000000  2
   3605   3603   3606   3609     1  0.0000000  0.6508444  3
   3605   3603   3606   3607     1  0.0000000  0.6508444  3
   3605   3603   3606   3608     1  0.0000000  0.6508444  3
   3605   3603   3612   3613     1  0.0000000  0.0000000  2
   3606   3603   3612   3613     1  0.0000000  0.0000000  2
   3607   3606   3603   3612     1  0.0000000  0.6508444  3
   3607   3606   3609   3610     1  0.0000000  1.2552000  3
   3607   3606   3609   3611     1  0.0000000  1.2552000  3
   3608   3606   3603   3612     1  0.0000000  0.6508444  3
   3608   3606   3609   3610     1  0.0000000  1.2552000  3
   3608   3606   3609   3611     1  0.0000000  1.2552000  3
   3614   3617   3620   3621     1  0.0000000  1.2552000  3
   3614   3617   3620   3622     1  0.0000000  1.2552000  3
   3615   3614   3617   3620     1  0.0000000  0.6508444  3
   3615   3614   3617   3618     1  0.0000000  0.6508444  3
   3615   3614   3617   3619     1  0.0000000  0.6508444  3
   3615   3614   3623   3624     1  0.0000000  0.0000000  2
   3616   3614   3617   3620     1  0.0000000  0.6508444  3
   3616   3614   3617   3618     1  0.0000000  0.6508444  3
   3616   3614   3617   3619     1  0.0000000  0.6508444  3
   3616   3614   3623   3624     1  0.0000000  0.0000000  2
   3617   3614   3623   3624     1  0.0000000  0.0000000  2
   3618   3617   3620   3621     1  0.0000000  1.2552000  3
   3618   3617   3620   3622     1  0.0000000  1.2552000  3
   3618   3617   3614   3623     1  0.0000000  0.6508444  3
   3619   3617   3620   3621     1  0.0000000  1.2552000  3
   3619   3617   3620   3622     1  0.0000000  1.2552000  3
   3619   3617   3614   3623     1  0.0000000  0.6508444  3
   3625   3628   3631   3632     1  0.0000000  1.2552000  3
   3625   3628   3631   3633     1  0.0000000  1.2552000  3
   3626   3625   3628   3631     1  0.0000000  0.6508444  3
   3626   3625   3628   3629     1  0.0000000  0.6508444  3
   3626   3625   3628   3630     1  0.0000000  0.6508444  3
   3626   3625   3634   3635     1  0.0000000  0.0000000  2
   3627   3625   3628   3631     1  0.0000000  0.6508444  3
   3627   3625   3628   3629     1  0.0000000  0.6508444  3
   3627   3625   3628   3630     1  0.0000000  0.6508444  3
   3627   3625   3634   3635     1  0.0000000  0.0000000  2
   3628   3625   3634   3635     1  0.0000000  0.0000000  2
   3629   3628   3625   3634     1  0.0000000  0.6508444  3
   3629   3628   3631   3632     1  0.0000000  1.2552000  3
   3629   3628   3631   3633     1  0.0000000  1.2552000  3
   3630   3628   3625   3634     1  0.0000000  0.6508444  3
   3630   3628   3631   3632     1  0.0000000  1.2552000  3
   3630   3628   3631   3633     1  0.0000000  1.2552000  3
   3636   3639   3642   3643     1  0.0000000  1.2552000  3
   3636   3639   3642   3644     1  0.0000000  1.2552000  3
   3637   3636   3639   3642     1  0.0000000  0.6508444  3
   3637   3636   3639   3640     1  0.0000000  0.6508444  3
   3637   3636   3639   3641     1  0.0000000  0.6508444  3
   3637   3636   3645   3646     1  0.0000000  0.0000000  2
   3638   3636   3639   3642     1  0.0000000  0.6508444  3
   3638   3636   3639   3640     1  0.0000000  0.6508444  3
   3638   3636   3639   3641     1  0.0000000  0.6508444  3
   3638   3636   3645   3646     1  0.0000000  0.0000000  2
   3639   3636   3645   3646     1  0.0000000  0.0000000  2
   3640   3639   3642   3643     1  0.0000000  1.2552000  3
   3640   3639   3642   3644     1  0.0000000  1.2552000  3
   3640   3639   3636   3645     1  0.0000000  0.6508444  3
   3641   3639   3642   3643     1  0.0000000  1.2552000  3
   3641   3639   3642   3644     1  0.0000000  1.2552000  3
   3641   3639   3636   3645     1  0.0000000  0.6508444  3
   3647   3650   3653   3654     1  0.0000000  1.2552000  3
   3647   3650   3653   3655     1  0.0000000  1.2552000  3
   3648   3647   3650   3653     1  0.0000000  0.6508444  3
   3648   3647   3650   3651     1  0.0000000  0.6508444  3
   3648   3647   3650   3652     1  0.0000000  0.6508444  3
   3648   3647   3656   3657     1  0.0000000  0.0000000  2
   3649   3647   3650   3653     1  0.0000000  0.6508444  3
   3649   3647   3650   3651     1  0.0000000  0.6508444  3
   3649   3647   3650   3652     1  0.0000000  0.6508444  3
   3649   3647   3656   3657     1  0.0000000  0.0000000  2
   3650   3647   3656   3657     1  0.0000000  0.0000000  2
   3651   3650   3647   3656     1  0.0000000  0.6508444  3
   3651   3650   3653   3654     1  0.0000000  1.2552000  3
   3651   3650   3653   3655     1  0.0000000  1.2552000  3
   3652   3650   3647   3656     1  0.0000000  0.6508444  3
   3652   3650   3653   3654     1  0.0000000  1.2552000  3
   3652   3650   3653   3655     1  0.0000000  1.2552000  3
   3658   3661   3664   3665     1  0.0000000  1.2552000  3
   3658   3661   3664   3666     1  0.0000000  1.2552000  3
   3659   3658   3661   3664     1  0.0000000  0.6508444  3
   3659   3658   3661   3662     1  0.0000000  0.6508444  3
   3659   3658   3661   3663     1  0.0000000  0.6508444  3
   3659   3658   3667   3668     1  0.0000000  0.0000000  2
   3660   3658   3661   3664     1  0.0000000  0.6508444  3
   3660   3658   3661   3662     1  0.0000000  0.6508444  3
   3660   3658   3661   3663     1  0.0000000  0.6508444  3
   3660   3658   3667   3668     1  0.0000000  0.0000000  2
   3661   3658   3667   3668     1  0.0000000  0.0000000  2
   3662   3661   3664   3665     1  0.0000000  1.2552000  3
   3662   3661   3664   3666     1  0.0000000  1.2552000  3
   3662   3661   3658   3667     1  0.0000000  0.6508444  3
   3663   3661   3664   3665     1  0.0000000  1.2552000  3
   3663   3661   3664   3666     1  0.0000000  1.2552000  3
   3663   3661   3658   3667     1  0.0000000  0.6508444  3
   3669   3672   3675   3676     1  0.0000000  1.2552000  3
   3669   3672   3675   3677     1  0.0000000  1.2552000  3
   3670   3669   3672   3675     1  0.0000000  0.6508444  3
   3670   3669   3672   3673     1  0.0000000  0.6508444  3
   3670   3669   3672   3674     1  0.0000000  0.6508444  3
   3670   3669   3678   3679     1  0.0000000  0.0000000  2
   3671   3669   3672   3675     1  0.0000000  0.6508444  3
   3671   3669   3672   3673     1  0.0000000  0.6508444  3
   3671   3669   3672   3674     1  0.0000000  0.6508444  3
   3671   3669   3678   3679     1  0.0000000  0.0000000  2
   3672   3669   3678   3679     1  0.0000000  0.0000000  2
   3673   3672   3669   3678     1  0.0000000  0.6508444  3
   3673   3672   3675   3676     1  0.0000000  1.2552000  3
   3673   3672   3675   3677     1  0.0000000  1.2552000  3
   3674   3672   3669   3678     1  0.0000000  0.6508444  3
   3674   3672   3675   3676     1  0.0000000  1.2552000  3
   3674   3672   3675   3677     1  0.0000000  1.2552000  3
   3680   3683   3686   3687     1  0.0000000  1.2552000  3
   3680   3683   3686   3688     1  0.0000000  1.2552000  3
   3681   3680   3683   3686     1  0.0000000  0.6508444  3
   3681   3680   3683   3684     1  0.0000000  0.6508444  3
   3681   3680   3683   3685     1  0.0000000  0.6508444  3
   3681   3680   3689   3690     1  0.0000000  0.0000000  2
   3682   3680   3683   3686     1  0.0000000  0.6508444  3
   3682   3680   3683   3684     1  0.0000000  0.6508444  3
   3682   3680   3683   3685     1  0.0000000  0.6508444  3
   3682   3680   3689   3690     1  0.0000000  0.0000000  2
   3683   3680   3689   3690     1  0.0000000  0.0000000  2
   3684   3683   3686   3687     1  0.0000000  1.2552000  3
   3684   3683   3686   3688     1  0.0000000  1.2552000  3
   3684   3683   3680   3689     1  0.0000000  0.6508444  3
   3685   3683   3686   3687     1  0.0000000  1.2552000  3
   3685   3683   3686   3688     1  0.0000000  1.2552000  3
   3685   3683   3680   3689     1  0.0000000  0.6508444  3
   3691   3694   3697   3698     1  0.0000000  1.2552000  3
   3691   3694   3697   3699     1  0.0000000  1.2552000  3
   3692   3691   3694   3697     1  0.0000000  0.6508444  3
   3692   3691   3694   3695     1  0.0000000  0.6508444  3
   3692   3691   3694   3696     1  0.0000000  0.6508444  3
   3692   3691   3700   3701     1  0.0000000  0.0000000  2
   3693   3691   3694   3697     1  0.0000000  0.6508444  3
   3693   3691   3694   3695     1  0.0000000  0.6508444  3
   3693   3691   3694   3696     1  0.0000000  0.6508444  3
   3693   3691   3700   3701     1  0.0000000  0.0000000  2
   3694   3691   3700   3701     1  0.0000000  0.0000000  2
   3695   3694   3691   3700     1  0.0000000  0.6508444  3
   3695   3694   3697   3698     1  0.0000000  1.2552000  3
   3695   3694   3697   3699     1  0.0000000  1.2552000  3
   3696   3694   3691   3700     1  0.0000000  0.6508444  3
   3696   3694   3697   3698     1  0.0000000  1.2552000  3
   3696   3694   3697   3699     1  0.0000000  1.2552000  3
   3702   3705   3708   3709     1  0.0000000  1.2552000  3
   3702   3705   3708   3710     1  0.0000000  1.2552000  3
   3703   3702   3705   3708     1  0.0000000  0.6508444  3
   3703   3702   3705   3706     1  0.0000000  0.6508444  3
   3703   3702   3705   3707     1  0.0000000  0.6508444  3
   3703   3702   3711   3712     1  0.0000000  0.0000000  2
   3704   3702   3705   3708     1  0.0000000  0.6508444  3
   3704   3702   3705   3706     1  0.0000000  0.6508444  3
   3704   3702   3705   3707     1  0.0000000  0.6508444  3
   3704   3702   3711   3712     1  0.0000000  0.0000000  2
   3705   3702   3711   3712     1  0.0000000  0.0000000  2
   3706   3705   3708   3709     1  0.0000000  1.2552000  3
   3706   3705   3708   3710     1  0.0000000  1.2552000  3
   3706   3705   3702   3711     1  0.0000000  0.6508444  3
   3707   3705   3708   3709     1  0.0000000  1.2552000  3
   3707   3705   3708   3710     1  0.0000000  1.2552000  3
   3707   3705   3702   3711     1  0.0000000  0.6508444  3
   3713   3716   3719   3720     1  0.0000000  1.2552000  3
   3713   3716   3719   3721     1  0.0000000  1.2552000  3
   3714   3713   3716   3719     1  0.0000000  0.6508444  3
   3714   3713   3716   3717     1  0.0000000  0.6508444  3
   3714   3713   3716   3718     1  0.0000000  0.6508444  3
   3714   3713   3722   3723     1  0.0000000  0.0000000  2
   3715   3713   3716   3719     1  0.0000000  0.6508444  3
   3715   3713   3716   3717     1  0.0000000  0.6508444  3
   3715   3713   3716   3718     1  0.0000000  0.6508444  3
   3715   3713   3722   3723     1  0.0000000  0.0000000  2
   3716   3713   3722   3723     1  0.0000000  0.0000000  2
   3717   3716   3713   3722     1  0.0000000  0.6508444  3
   3717   3716   3719   3720     1  0.0000000  1.2552000  3
   3717   3716   3719   3721     1  0.0000000  1.2552000  3
   3718   3716   3713   3722     1  0.0000000  0.6508444  3
   3718   3716   3719   3720     1  0.0000000  1.2552000  3
   3718   3716   3719   3721     1  0.0000000  1.2552000  3
   3724   3727   3730   3731     1  0.0000000  1.2552000  3
   3724   3727   3730   3732     1  0.0000000  1.2552000  3
   3725   3724   3727   3730     1  0.0000000  0.6508444  3
   3725   3724   3727   3728     1  0.0000000  0.6508444  3
   3725   3724   3727   3729     1  0.0000000  0.6508444  3
   3725   3724   3733   3734     1  0.0000000  0.0000000  2
   3726   3724   3727   3730     1  0.0000000  0.6508444  3
   3726   3724   3727   3728     1  0.0000000  0.6508444  3
   3726   3724   3727   3729     1  0.0000000  0.6508444  3
   3726   3724   3733   3734     1  0.0000000  0.0000000  2
   3727   3724   3733   3734     1  0.0000000  0.0000000  2
   3728   3727   3730   3731     1  0.0000000  1.2552000  3
   3728   3727   3730   3732     1  0.0000000  1.2552000  3
   3728   3727   3724   3733     1  0.0000000  0.6508444  3
   3729   3727   3730   3731     1  0.0000000  1.2552000  3
   3729   3727   3730   3732     1  0.0000000  1.2552000  3
   3729   3727   3724   3733     1  0.0000000  0.6508444  3
   3735   3738   3741   3742     1  0.0000000  1.2552000  3
   3735   3738   3741   3743     1  0.0000000  1.2552000  3
   3736   3735   3738   3741     1  0.0000000  0.6508444  3
   3736   3735   3738   3739     1  0.0000000  0.6508444  3
   3736   3735   3738   3740     1  0.0000000  0.6508444  3
   3736   3735   3744   3745     1  0.0000000  0.0000000  2
   3737   3735   3738   3741     1  0.0000000  0.6508444  3
   3737   3735   3738   3739     1  0.0000000  0.6508444  3
   3737   3735   3738   3740     1  0.0000000  0.6508444  3
   3737   3735   3744   3745     1  0.0000000  0.0000000  2
   3738   3735   3744   3745     1  0.0000000  0.0000000  2
   3739   3738   3735   3744     1  0.0000000  0.6508444  3
   3739   3738   3741   3742     1  0.0000000  1.2552000  3
   3739   3738   3741   3743     1  0.0000000  1.2552000  3
   3740   3738   3735   3744     1  0.0000000  0.6508444  3
   3740   3738   3741   3742     1  0.0000000  1.2552000  3
   3740   3738   3741   3743     1  0.0000000  1.2552000  3
   3746   3749   3752   3753     1  0.0000000  1.2552000  3
   3746   3749   3752   3754     1  0.0000000  1.2552000  3
   3747   3746   3749   3752     1  0.0000000  0.6508444  3
   3747   3746   3749   3750     1  0.0000000  0.6508444  3
   3747   3746   3749   3751     1  0.0000000  0.6508444  3
   3747   3746   3755   3756     1  0.0000000  0.0000000  2
   3748   3746   3749   3752     1  0.0000000  0.6508444  3
   3748   3746   3749   3750     1  0.0000000  0.6508444  3
   3748   3746   3749   3751     1  0.0000000  0.6508444  3
   3748   3746   3755   3756     1  0.0000000  0.0000000  2
   3749   3746   3755   3756     1  0.0000000  0.0000000  2
   3750   3749   3752   3753     1  0.0000000  1.2552000  3
   3750   3749   3752   3754     1  0.0000000  1.2552000  3
   3750   3749   3746   3755     1  0.0000000  0.6508444  3
   3751   3749   3752   3753     1  0.0000000  1.2552000  3
   3751   3749   3752   3754     1  0.0000000  1.2552000  3
   3751   3749   3746   3755     1  0.0000000  0.6508444  3
   3757   3760   3763   3764     1  0.0000000  1.2552000  3
   3757   3760   3763   3765     1  0.0000000  1.2552000  3
   3758   3757   3760   3763     1  0.0000000  0.6508444  3
   3758   3757   3760   3761     1  0.0000000  0.6508444  3
   3758   3757   3760   3762     1  0.0000000  0.6508444  3
   3758   3757   3766   3767     1  0.0000000  0.0000000  2
   3759   3757   3760   3763     1  0.0000000  0.6508444  3
   3759   3757   3760   3761     1  0.0000000  0.6508444  3
   3759   3757   3760   3762     1  0.0000000  0.6508444  3
   3759   3757   3766   3767     1  0.0000000  0.0000000  2
   3760   3757   3766   3767     1  0.0000000  0.0000000  2
   3761   3760   3757   3766     1  0.0000000  0.6508444  3
   3761   3760   3763   3764     1  0.0000000  1.2552000  3
   3761   3760   3763   3765     1  0.0000000  1.2552000  3
   3762   3760   3757   3766     1  0.0000000  0.6508444  3
   3762   3760   3763   3764     1  0.0000000  1.2552000  3
   3762   3760   3763   3765     1  0.0000000  1.2552000  3
   3768   3771   3774   3775     1  0.0000000  1.2552000  3
   3768   3771   3774   3776     1  0.0000000  1.2552000  3
   3769   3768   3771   3774     1  0.0000000  0.6508444  3
   3769   3768   3771   3772     1  0.0000000  0.6508444  3
   3769   3768   3771   3773     1  0.0000000  0.6508444  3
   3769   3768   3777   3778     1  0.0000000  0.0000000  2
   3770   3768   3771   3774     1  0.0000000  0.6508444  3
   3770   3768   3771   3772     1  0.0000000  0.6508444  3
   3770   3768   3771   3773     1  0.0000000  0.6508444  3
   3770   3768   3777   3778     1  0.0000000  0.0000000  2
   3771   3768   3777   3778     1  0.0000000  0.0000000  2
   3772   3771   3774   3775     1  0.0000000  1.2552000  3
   3772   3771   3774   3776     1  0.0000000  1.2552000  3
   3772   3771   3768   3777     1  0.0000000  0.6508444  3
   3773   3771   3774   3775     1  0.0000000  1.2552000  3
   3773   3771   3774   3776     1  0.0000000  1.2552000  3
   3773   3771   3768   3777     1  0.0000000  0.6508444  3
   3779   3782   3785   3786     1  0.0000000  1.2552000  3
   3779   3782   3785   3787     1  0.0000000  1.2552000  3
   3780   3779   3782   3785     1  0.0000000  0.6508444  3
   3780   3779   3782   3783     1  0.0000000  0.6508444  3
   3780   3779   3782   3784     1  0.0000000  0.6508444  3
   3780   3779   3788   3789     1  0.0000000  0.0000000  2
   3781   3779   3782   3785     1  0.0000000  0.6508444  3
   3781   3779   3782   3783     1  0.0000000  0.6508444  3
   3781   3779   3782   3784     1  0.0000000  0.6508444  3
   3781   3779   3788   3789     1  0.0000000  0.0000000  2
   3782   3779   3788   3789     1  0.0000000  0.0000000  2
   3783   3782   3779   3788     1  0.0000000  0.6508444  3
   3783   3782   3785   3786     1  0.0000000  1.2552000  3
   3783   3782   3785   3787     1  0.0000000  1.2552000  3
   3784   3782   3779   3788     1  0.0000000  0.6508444  3
   3784   3782   3785   3786     1  0.0000000  1.2552000  3
   3784   3782   3785   3787     1  0.0000000  1.2552000  3
   3790   3793   3796   3797     1  0.0000000  1.2552000  3
   3790   3793   3796   3798     1  0.0000000  1.2552000  3
   3791   3790   3793   3796     1  0.0000000  0.6508444  3
   3791   3790   3793   3794     1  0.0000000  0.6508444  3
   3791   3790   3793   3795     1  0.0000000  0.6508444  3
   3791   3790   3799   3800     1  0.0000000  0.0000000  2
   3792   3790   3793   3796     1  0.0000000  0.6508444  3
   3792   3790   3793   3794     1  0.0000000  0.6508444  3
   3792   3790   3793   3795     1  0.0000000  0.6508444  3
   3792   3790   3799   3800     1  0.0000000  0.0000000  2
   3793   3790   3799   3800     1  0.0000000  0.0000000  2
   3794   3793   3796   3797     1  0.0000000  1.2552000  3
   3794   3793   3796   3798     1  0.0000000  1.2552000  3
   3794   3793   3790   3799     1  0.0000000  0.6508444  3
   3795   3793   3796   3797     1  0.0000000  1.2552000  3
   3795   3793   3796   3798     1  0.0000000  1.2552000  3
   3795   3793   3790   3799     1  0.0000000  0.6508444  3
   3801   3804   3807   3808     1  0.0000000  1.2552000  3
   3801   3804   3807   3809     1  0.0000000  1.2552000  3
   3802   3801   3804   3807     1  0.0000000  0.6508444  3
   3802   3801   3804   3805     1  0.0000000  0.6508444  3
   3802   3801   3804   3806     1  0.0000000  0.6508444  3
   3802   3801   3810   3811     1  0.0000000  0.0000000  2
   3803   3801   3804   3807     1  0.0000000  0.6508444  3
   3803   3801   3804   3805     1  0.0000000  0.6508444  3
   3803   3801   3804   3806     1  0.0000000  0.6508444  3
   3803   3801   3810   3811     1  0.0000000  0.0000000  2
   3804   3801   3810   3811     1  0.0000000  0.0000000  2
   3805   3804   3801   3810     1  0.0000000  0.6508444  3
   3805   3804   3807   3808     1  0.0000000  1.2552000  3
   3805   3804   3807   3809     1  0.0000000  1.2552000  3
   3806   3804   3801   3810     1  0.0000000  0.6508444  3
   3806   3804   3807   3808     1  0.0000000  1.2552000  3
   3806   3804   3807   3809     1  0.0000000  1.2552000  3
   3812   3815   3818   3819     1  0.0000000  1.2552000  3
   3812   3815   3818   3820     1  0.0000000  1.2552000  3
   3813   3812   3815   3818     1  0.0000000  0.6508444  3
   3813   3812   3815   3816     1  0.0000000  0.6508444  3
   3813   3812   3815   3817     1  0.0000000  0.6508444  3
   3813   3812   3821   3822     1  0.0000000  0.0000000  2
   3814   3812   3815   3818     1  0.0000000  0.6508444  3
   3814   3812   3815   3816     1  0.0000000  0.6508444  3
   3814   3812   3815   3817     1  0.0000000  0.6508444  3
   3814   3812   3821   3822     1  0.0000000  0.0000000  2
   3815   3812   3821   3822     1  0.0000000  0.0000000  2
   3816   3815   3818   3819     1  0.0000000  1.2552000  3
   3816   3815   3818   3820     1  0.0000000  1.2552000  3
   3816   3815   3812   3821     1  0.0000000  0.6508444  3
   3817   3815   3818   3819     1  0.0000000  1.2552000  3
   3817   3815   3818   3820     1  0.0000000  1.2552000  3
   3817   3815   3812   3821     1  0.0000000  0.6508444  3
   3823   3826   3829   3830     1  0.0000000  1.2552000  3
   3823   3826   3829   3831     1  0.0000000  1.2552000  3
   3824   3823   3826   3829     1  0.0000000  0.6508444  3
   3824   3823   3826   3827     1  0.0000000  0.6508444  3
   3824   3823   3826   3828     1  0.0000000  0.6508444  3
   3824   3823   3832   3833     1  0.0000000  0.0000000  2
   3825   3823   3826   3829     1  0.0000000  0.6508444  3
   3825   3823   3826   3827     1  0.0000000  0.6508444  3
   3825   3823   3826   3828     1  0.0000000  0.6508444  3
   3825   3823   3832   3833     1  0.0000000  0.0000000  2
   3826   3823   3832   3833     1  0.0000000  0.0000000  2
   3827   3826   3823   3832     1  0.0000000  0.6508444  3
   3827   3826   3829   3830     1  0.0000000  1.2552000  3
   3827   3826   3829   3831     1  0.0000000  1.2552000  3
   3828   3826   3823   3832     1  0.0000000  0.6508444  3
   3828   3826   3829   3830     1  0.0000000  1.2552000  3
   3828   3826   3829   3831     1  0.0000000  1.2552000  3
   3834   3837   3840   3841     1  0.0000000  1.2552000  3
   3834   3837   3840   3842     1  0.0000000  1.2552000  3
   3835   3834   3837   3840     1  0.0000000  0.6508444  3
   3835   3834   3837   3838     1  0.0000000  0.6508444  3
   3835   3834   3837   3839     1  0.0000000  0.6508444  3
   3835   3834   3843   3844     1  0.0000000  0.0000000  2
   3836   3834   3837   3840     1  0.0000000  0.6508444  3
   3836   3834   3837   3838     1  0.0000000  0.6508444  3
   3836   3834   3837   3839     1  0.0000000  0.6508444  3
   3836   3834   3843   3844     1  0.0000000  0.0000000  2
   3837   3834   3843   3844     1  0.0000000  0.0000000  2
   3838   3837   3840   3841     1  0.0000000  1.2552000  3
   3838   3837   3840   3842     1  0.0000000  1.2552000  3
   3838   3837   3834   3843     1  0.0000000  0.6508444  3
   3839   3837   3840   3841     1  0.0000000  1.2552000  3
   3839   3837   3840   3842     1  0.0000000  1.2552000  3
   3839   3837   3834   3843     1  0.0000000  0.6508444  3
   3845   3848   3851   3852     1  0.0000000  1.2552000  3
   3845   3848   3851   3853     1  0.0000000  1.2552000  3
   3846   3845   3848   3851     1  0.0000000  0.6508444  3
   3846   3845   3848   3849     1  0.0000000  0.6508444  3
   3846   3845   3848   3850     1  0.0000000  0.6508444  3
   3846   3845   3854   3855     1  0.0000000  0.0000000  2
   3847   3845   3848   3851     1  0.0000000  0.6508444  3
   3847   3845   3848   3849     1  0.0000000  0.6508444  3
   3847   3845   3848   3850     1  0.0000000  0.6508444  3
   3847   3845   3854   3855     1  0.0000000  0.0000000  2
   3848   3845   3854   3855     1  0.0000000  0.0000000  2
   3849   3848   3845   3854     1  0.0000000  0.6508444  3
   3849   3848   3851   3852     1  0.0000000  1.2552000  3
   3849   3848   3851   3853     1  0.0000000  1.2552000  3
   3850   3848   3845   3854     1  0.0000000  0.6508444  3
   3850   3848   3851   3852     1  0.0000000  1.2552000  3
   3850   3848   3851   3853     1  0.0000000  1.2552000  3
   3856   3859   3862   3863     1  0.0000000  1.2552000  3
   3856   3859   3862   3864     1  0.0000000  1.2552000  3
   3857   3856   3859   3862     1  0.0000000  0.6508444  3
   3857   3856   3859   3860     1  0.0000000  0.6508444  3
   3857   3856   3859   3861     1  0.0000000  0.6508444  3
   3857   3856   3865   3866     1  0.0000000  0.0000000  2
   3858   3856   3859   3862     1  0.0000000  0.6508444  3
   3858   3856   3859   3860     1  0.0000000  0.6508444  3
   3858   3856   3859   3861     1  0.0000000  0.6508444  3
   3858   3856   3865   3866     1  0.0000000  0.0000000  2
   3859   3856   3865   3866     1  0.0000000  0.0000000  2
   3860   3859   3862   3863     1  0.0000000  1.2552000  3
   3860   3859   3862   3864     1  0.0000000  1.2552000  3
   3860   3859   3856   3865     1  0.0000000  0.6508444  3
   3861   3859   3862   3863     1  0.0000000  1.2552000  3
   3861   3859   3862   3864     1  0.0000000  1.2552000  3
   3861   3859   3856   3865     1  0.0000000  0.6508444  3
   3867   3870   3873   3874     1  0.0000000  1.2552000  3
   3867   3870   3873   3875     1  0.0000000  1.2552000  3
   3868   3867   3870   3873     1  0.0000000  0.6508444  3
   3868   3867   3870   3871     1  0.0000000  0.6508444  3
   3868   3867   3870   3872     1  0.0000000  0.6508444  3
   3868   3867   3876   3877     1  0.0000000  0.0000000  2
   3869   3867   3870   3873     1  0.0000000  0.6508444  3
   3869   3867   3870   3871     1  0.0000000  0.6508444  3
   3869   3867   3870   3872     1  0.0000000  0.6508444  3
   3869   3867   3876   3877     1  0.0000000  0.0000000  2
   3870   3867   3876   3877     1  0.0000000  0.0000000  2
   3871   3870   3867   3876     1  0.0000000  0.6508444  3
   3871   3870   3873   3874     1  0.0000000  1.2552000  3
   3871   3870   3873   3875     1  0.0000000  1.2552000  3
   3872   3870   3867   3876     1  0.0000000  0.6508444  3
   3872   3870   3873   3874     1  0.0000000  1.2552000  3
   3872   3870   3873   3875     1  0.0000000  1.2552000  3
   3878   3881   3884   3885     1  0.0000000  1.2552000  3
   3878   3881   3884   3886     1  0.0000000  1.2552000  3
   3879   3878   3881   3884     1  0.0000000  0.6508444  3
   3879   3878   3881   3882     1  0.0000000  0.6508444  3
   3879   3878   3881   3883     1  0.0000000  0.6508444  3
   3879   3878   3887   3888     1  0.0000000  0.0000000  2
   3880   3878   3881   3884     1  0.0000000  0.6508444  3
   3880   3878   3881   3882     1  0.0000000  0.6508444  3
   3880   3878   3881   3883     1  0.0000000  0.6508444  3
   3880   3878   3887   3888     1  0.0000000  0.0000000  2
   3881   3878   3887   3888     1  0.0000000  0.0000000  2
   3882   3881   3884   3885     1  0.0000000  1.2552000  3
   3882   3881   3884   3886     1  0.0000000  1.2552000  3
   3882   3881   3878   3887     1  0.0000000  0.6508444  3
   3883   3881   3884   3885     1  0.0000000  1.2552000  3
   3883   3881   3884   3886     1  0.0000000  1.2552000  3
   3883   3881   3878   3887     1  0.0000000  0.6508444  3
   3889   3892   3895   3896     1  0.0000000  1.2552000  3
   3889   3892   3895   3897     1  0.0000000  1.2552000  3
   3890   3889   3892   3895     1  0.0000000  0.6508444  3
   3890   3889   3892   3893     1  0.0000000  0.6508444  3
   3890   3889   3892   3894     1  0.0000000  0.6508444  3
   3890   3889   3898   3899     1  0.0000000  0.0000000  2
   3891   3889   3892   3895     1  0.0000000  0.6508444  3
   3891   3889   3892   3893     1  0.0000000  0.6508444  3
   3891   3889   3892   3894     1  0.0000000  0.6508444  3
   3891   3889   3898   3899     1  0.0000000  0.0000000  2
   3892   3889   3898   3899     1  0.0000000  0.0000000  2
   3893   3892   3889   3898     1  0.0000000  0.6508444  3
   3893   3892   3895   3896     1  0.0000000  1.2552000  3
   3893   3892   3895   3897     1  0.0000000  1.2552000  3
   3894   3892   3889   3898     1  0.0000000  0.6508444  3
   3894   3892   3895   3896     1  0.0000000  1.2552000  3
   3894   3892   3895   3897     1  0.0000000  1.2552000  3
   3900   3903   3906   3907     1  0.0000000  1.2552000  3
   3900   3903   3906   3908     1  0.0000000  1.2552000  3
   3901   3900   3903   3906     1  0.0000000  0.6508444  3
   3901   3900   3903   3904     1  0.0000000  0.6508444  3
   3901   3900   3903   3905     1  0.0000000  0.6508444  3
   3901   3900   3909   3910     1  0.0000000  0.0000000  2
   3902   3900   3903   3906     1  0.0000000  0.6508444  3
   3902   3900   3903   3904     1  0.0000000  0.6508444  3
   3902   3900   3903   3905     1  0.0000000  0.6508444  3
   3902   3900   3909   3910     1  0.0000000  0.0000000  2
   3903   3900   3909   3910     1  0.0000000  0.0000000  2
   3904   3903   3906   3907     1  0.0000000  1.2552000  3
   3904   3903   3906   3908     1  0.0000000  1.2552000  3
   3904   3903   3900   3909     1  0.0000000  0.6508444  3
   3905   3903   3906   3907     1  0.0000000  1.2552000  3
   3905   3903   3906   3908     1  0.0000000  1.2552000  3
   3905   3903   3900   3909     1  0.0000000  0.6508444  3
   3911   3914   3917   3918     1  0.0000000  1.2552000  3
   3911   3914   3917   3919     1  0.0000000  1.2552000  3
   3912   3911   3914   3917     1  0.0000000  0.6508444  3
   3912   3911   3914   3915     1  0.0000000  0.6508444  3
   3912   3911   3914   3916     1  0.0000000  0.6508444  3
   3912   3911   3920   3921     1  0.0000000  0.0000000  2
   3913   3911   3914   3917     1  0.0000000  0.6508444  3
   3913   3911   3914   3915     1  0.0000000  0.6508444  3
   3913   3911   3914   3916     1  0.0000000  0.6508444  3
   3913   3911   3920   3921     1  0.0000000  0.0000000  2
   3914   3911   3920   3921     1  0.0000000  0.0000000  2
   3915   3914   3911   3920     1  0.0000000  0.6508444  3
   3915   3914   3917   3918     1  0.0000000  1.2552000  3
   3915   3914   3917   3919     1  0.0000000  1.2552000  3
   3916   3914   3911   3920     1  0.0000000  0.6508444  3
   3916   3914   3917   3918     1  0.0000000  1.2552000  3
   3916   3914   3917   3919     1  0.0000000  1.2552000  3
   3922   3925   3928   3929     1  0.0000000  1.2552000  3
   3922   3925   3928   3930     1  0.0000000  1.2552000  3
   3923   3922   3925   3928     1  0.0000000  0.6508444  3
   3923   3922   3925   3926     1  0.0000000  0.6508444  3
   3923   3922   3925   3927     1  0.0000000  0.6508444  3
   3923   3922   3931   3932     1  0.0000000  0.0000000  2
   3924   3922   3925   3928     1  0.0000000  0.6508444  3
   3924   3922   3925   3926     1  0.0000000  0.6508444  3
   3924   3922   3925   3927     1  0.0000000  0.6508444  3
   3924   3922   3931   3932     1  0.0000000  0.0000000  2
   3925   3922   3931   3932     1  0.0000000  0.0000000  2
   3926   3925   3928   3929     1  0.0000000  1.2552000  3
   3926   3925   3928   3930     1  0.0000000  1.2552000  3
   3926   3925   3922   3931     1  0.0000000  0.6508444  3
   3927   3925   3928   3929     1  0.0000000  1.2552000  3
   3927   3925   3928   3930     1  0.0000000  1.2552000  3
   3927   3925   3922   3931     1  0.0000000  0.6508444  3
   3933   3936   3939   3940     1  0.0000000  1.2552000  3
   3933   3936   3939   3941     1  0.0000000  1.2552000  3
   3934   3933   3936   3939     1  0.0000000  0.6508444  3
   3934   3933   3936   3937     1  0.0000000  0.6508444  3
   3934   3933   3936   3938     1  0.0000000  0.6508444  3
   3934   3933   3942   3943     1  0.0000000  0.0000000  2
   3935   3933   3936   3939     1  0.0000000  0.6508444  3
   3935   3933   3936   3937     1  0.0000000  0.6508444  3
   3935   3933   3936   3938     1  0.0000000  0.6508444  3
   3935   3933   3942   3943     1  0.0000000  0.0000000  2
   3936   3933   3942   3943     1  0.0000000  0.0000000  2
   3937   3936   3933   3942     1  0.0000000  0.6508444  3
   3937   3936   3939   3940     1  0.0000000  1.2552000  3
   3937   3936   3939   3941     1  0.0000000  1.2552000  3
   3938   3936   3933   3942     1  0.0000000  0.6508444  3
   3938   3936   3939   3940     1  0.0000000  1.2552000  3
   3938   3936   3939   3941     1  0.0000000  1.2552000  3
   3944   3947   3950   3951     1  0.0000000  1.2552000  3
   3944   3947   3950   3952     1  0.0000000  1.2552000  3
   3945   3944   3947   3950     1  0.0000000  0.6508444  3
   3945   3944   3947   3948     1  0.0000000  0.6508444  3
   3945   3944   3947   3949     1  0.0000000  0.6508444  3
   3945   3944   3953   3954     1  0.0000000  0.0000000  2
   3946   3944   3947   3950     1  0.0000000  0.6508444  3
   3946   3944   3947   3948     1  0.0000000  0.6508444  3
   3946   3944   3947   3949     1  0.0000000  0.6508444  3
   3946   3944   3953   3954     1  0.0000000  0.0000000  2
   3947   3944   3953   3954     1  0.0000000  0.0000000  2
   3948   3947   3950   3951     1  0.0000000  1.2552000  3
   3948   3947   3950   3952     1  0.0000000  1.2552000  3
   3948   3947   3944   3953     1  0.0000000  0.6508444  3
   3949   3947   3950   3951     1  0.0000000  1.2552000  3
   3949   3947   3950   3952     1  0.0000000  1.2552000  3
   3949   3947   3944   3953     1  0.0000000  0.6508444  3
   3955   3958   3961   3962     1  0.0000000  1.2552000  3
   3955   3958   3961   3963     1  0.0000000  1.2552000  3
   3956   3955   3958   3961     1  0.0000000  0.6508444  3
   3956   3955   3958   3959     1  0.0000000  0.6508444  3
   3956   3955   3958   3960     1  0.0000000  0.6508444  3
   3956   3955   3964   3965     1  0.0000000  0.0000000  2
   3957   3955   3958   3961     1  0.0000000  0.6508444  3
   3957   3955   3958   3959     1  0.0000000  0.6508444  3
   3957   3955   3958   3960     1  0.0000000  0.6508444  3
   3957   3955   3964   3965     1  0.0000000  0.0000000  2
   3958   3955   3964   3965     1  0.0000000  0.0000000  2
   3959   3958   3955   3964     1  0.0000000  0.6508444  3
   3959   3958   3961   3962     1  0.0000000  1.2552000  3
   3959   3958   3961   3963     1  0.0000000  1.2552000  3
   3960   3958   3955   3964     1  0.0000000  0.6508444  3
   3960   3958   3961   3962     1  0.0000000  1.2552000  3
   3960   3958   3961   3963     1  0.0000000  1.2552000  3
   3966   3969   3972   3973     1  0.0000000  1.2552000  3
   3966   3969   3972   3974     1  0.0000000  1.2552000  3
   3967   3966   3969   3972     1  0.0000000  0.6508444  3
   3967   3966   3969   3970     1  0.0000000  0.6508444  3
   3967   3966   3969   3971     1  0.0000000  0.6508444  3
   3967   3966   3975   3976     1  0.0000000  0.0000000  2
   3968   3966   3969   3972     1  0.0000000  0.6508444  3
   3968   3966   3969   3970     1  0.0000000  0.6508444  3
   3968   3966   3969   3971     1  0.0000000  0.6508444  3
   3968   3966   3975   3976     1  0.0000000  0.0000000  2
   3969   3966   3975   3976     1  0.0000000  0.0000000  2
   3970   3969   3972   3973     1  0.0000000  1.2552000  3
   3970   3969   3972   3974     1  0.0000000  1.2552000  3
   3970   3969   3966   3975     1  0.0000000  0.6508444  3
   3971   3969   3972   3973     1  0.0000000  1.2552000  3
   3971   3969   3972   3974     1  0.0000000  1.2552000  3
   3971   3969   3966   3975     1  0.0000000  0.6508444  3
   3977   3980   3983   3984     1  0.0000000  1.2552000  3
   3977   3980   3983   3985     1  0.0000000  1.2552000  3
   3978   3977   3980   3983     1  0.0000000  0.6508444  3
   3978   3977   3980   3981     1  0.0000000  0.6508444  3
   3978   3977   3980   3982     1  0.0000000  0.6508444  3
   3978   3977   3986   3987     1  0.0000000  0.0000000  2
   3979   3977   3980   3983     1  0.0000000  0.6508444  3
   3979   3977   3980   3981     1  0.0000000  0.6508444  3
   3979   3977   3980   3982     1  0.0000000  0.6508444  3
   3979   3977   3986   3987     1  0.0000000  0.0000000  2
   3980   3977   3986   3987     1  0.0000000  0.0000000  2
   3981   3980   3977   3986     1  0.0000000  0.6508444  3
   3981   3980   3983   3984     1  0.0000000  1.2552000  3
   3981   3980   3983   3985     1  0.0000000  1.2552000  3
   3982   3980   3977   3986     1  0.0000000  0.6508444  3
   3982   3980   3983   3984     1  0.0000000  1.2552000  3
   3982   3980   3983   3985     1  0.0000000  1.2552000  3
   3988   3991   3994   3995     1  0.0000000  1.2552000  3
   3988   3991   3994   3996     1  0.0000000  1.2552000  3
   3989   3988   3991   3994     1  0.0000000  0.6508444  3
   3989   3988   3991   3992     1  0.0000000  0.6508444  3
   3989   3988   3991   3993     1  0.0000000  0.6508444  3
   3989   3988   3997   3998     1  0.0000000  0.0000000  2
   3990   3988   3991   3994     1  0.0000000  0.6508444  3
   3990   3988   3991   3992     1  0.0000000  0.6508444  3
   3990   3988   3991   3993     1  0.0000000  0.6508444  3
   3990   3988   3997   3998     1  0.0000000  0.0000000  2
   3991   3988   3997   3998     1  0.0000000  0.0000000  2
   3992   3991   3994   3995     1  0.0000000  1.2552000  3
   3992   3991   3994   3996     1  0.0000000  1.2552000  3
   3992   3991   3988   3997     1  0.0000000  0.6508444  3
   3993   3991   3994   3995     1  0.0000000  1.2552000  3
   3993   3991   3994   3996     1  0.0000000  1.2552000  3
   3993   3991   3988   3997     1  0.0000000  0.6508444  3
   3999   4002   4005   4006     1  0.0000000  1.2552000  3
   3999   4002   4005   4007     1  0.0000000  1.2552000  3
   4000   3999   4002   4005     1  0.0000000  0.6508444  3
   4000   3999   4002   4003     1  0.0000000  0.6508444  3
   4000   3999   4002   4004     1  0.0000000  0.6508444  3
   4000   3999   4008   4009     1  0.0000000  0.0000000  2
   4001   3999   4002   4005     1  0.0000000  0.6508444  3
   4001   3999   4002   4003     1  0.0000000  0.6508444  3
   4001   3999   4002   4004     1  0.0000000  0.6508444  3
   4001   3999   4008   4009     1  0.0000000  0.0000000  2
   4002   3999   4008   4009     1  0.0000000  0.0000000  2
   4003   4002   3999   4008     1  0.0000000  0.6508444  3
   4003   4002   4005   4006     1  0.0000000  1.2552000  3
   4003   4002   4005   4007     1  0.0000000  1.2552000  3
   4004   4002   3999   4008     1  0.0000000  0.6508444  3
   4004   4002   4005   4006     1  0.0000000  1.2552000  3
   4004   4002   4005   4007     1  0.0000000  1.2552000  3
   4010   4013   4016   4017     1  0.0000000  1.2552000  3
   4010   4013   4016   4018     1  0.0000000  1.2552000  3
   4011   4010   4013   4016     1  0.0000000  0.6508444  3
   4011   4010   4013   4014     1  0.0000000  0.6508444  3
   4011   4010   4013   4015     1  0.0000000  0.6508444  3
   4011   4010   4019   4020     1  0.0000000  0.0000000  2
   4012   4010   4013   4016     1  0.0000000  0.6508444  3
   4012   4010   4013   4014     1  0.0000000  0.6508444  3
   4012   4010   4013   4015     1  0.0000000  0.6508444  3
   4012   4010   4019   4020     1  0.0000000  0.0000000  2
   4013   4010   4019   4020     1  0.0000000  0.0000000  2
   4014   4013   4016   4017     1  0.0000000  1.2552000  3
   4014   4013   4016   4018     1  0.0000000  1.2552000  3
   4014   4013   4010   4019     1  0.0000000  0.6508444  3
   4015   4013   4016   4017     1  0.0000000  1.2552000  3
   4015   4013   4016   4018     1  0.0000000  1.2552000  3
   4015   4013   4010   4019     1  0.0000000  0.6508444  3
   4021   4024   4027   4028     1  0.0000000  1.2552000  3
   4021   4024   4027   4029     1  0.0000000  1.2552000  3
   4022   4021   4024   4027     1  0.0000000  0.6508444  3
   4022   4021   4024   4025     1  0.0000000  0.6508444  3
   4022   4021   4024   4026     1  0.0000000  0.6508444  3
   4022   4021   4030   4031     1  0.0000000  0.0000000  2
   4023   4021   4024   4027     1  0.0000000  0.6508444  3
   4023   4021   4024   4025     1  0.0000000  0.6508444  3
   4023   4021   4024   4026     1  0.0000000  0.6508444  3
   4023   4021   4030   4031     1  0.0000000  0.0000000  2
   4024   4021   4030   4031     1  0.0000000  0.0000000  2
   4025   4024   4021   4030     1  0.0000000  0.6508444  3
   4025   4024   4027   4028     1  0.0000000  1.2552000  3
   4025   4024   4027   4029     1  0.0000000  1.2552000  3
   4026   4024   4021   4030     1  0.0000000  0.6508444  3
   4026   4024   4027   4028     1  0.0000000  1.2552000  3
   4026   4024   4027   4029     1  0.0000000  1.2552000  3
   4032   4035   4038   4039     1  0.0000000  1.2552000  3
   4032   4035   4038   4040     1  0.0000000  1.2552000  3
   4033   4032   4035   4038     1  0.0000000  0.6508444  3
   4033   4032   4035   4036     1  0.0000000  0.6508444  3
   4033   4032   4035   4037     1  0.0000000  0.6508444  3
   4033   4032   4041   4042     1  0.0000000  0.0000000  2
   4034   4032   4035   4038     1  0.0000000  0.6508444  3
   4034   4032   4035   4036     1  0.0000000  0.6508444  3
   4034   4032   4035   4037     1  0.0000000  0.6508444  3
   4034   4032   4041   4042     1  0.0000000  0.0000000  2
   4035   4032   4041   4042     1  0.0000000  0.0000000  2
   4036   4035   4038   4039     1  0.0000000  1.2552000  3
   4036   4035   4038   4040     1  0.0000000  1.2552000  3
   4036   4035   4032   4041     1  0.0000000  0.6508444  3
   4037   4035   4038   4039     1  0.0000000  1.2552000  3
   4037   4035   4038   4040     1  0.0000000  1.2552000  3
   4037   4035   4032   4041     1  0.0000000  0.6508444  3
   4043   4046   4049   4050     1  0.0000000  1.2552000  3
   4043   4046   4049   4051     1  0.0000000  1.2552000  3
   4044   4043   4046   4049     1  0.0000000  0.6508444  3
   4044   4043   4046   4047     1  0.0000000  0.6508444  3
   4044   4043   4046   4048     1  0.0000000  0.6508444  3
   4044   4043   4052   4053     1  0.0000000  0.0000000  2
   4045   4043   4046   4049     1  0.0000000  0.6508444  3
   4045   4043   4046   4047     1  0.0000000  0.6508444  3
   4045   4043   4046   4048     1  0.0000000  0.6508444  3
   4045   4043   4052   4053     1  0.0000000  0.0000000  2
   4046   4043   4052   4053     1  0.0000000  0.0000000  2
   4047   4046   4043   4052     1  0.0000000  0.6508444  3
   4047   4046   4049   4050     1  0.0000000  1.2552000  3
   4047   4046   4049   4051     1  0.0000000  1.2552000  3
   4048   4046   4043   4052     1  0.0000000  0.6508444  3
   4048   4046   4049   4050     1  0.0000000  1.2552000  3
   4048   4046   4049   4051     1  0.0000000  1.2552000  3
   4054   4057   4060   4061     1  0.0000000  1.2552000  3
   4054   4057   4060   4062     1  0.0000000  1.2552000  3
   4055   4054   4057   4060     1  0.0000000  0.6508444  3
   4055   4054   4057   4058     1  0.0000000  0.6508444  3
   4055   4054   4057   4059     1  0.0000000  0.6508444  3
   4055   4054   4063   4064     1  0.0000000  0.0000000  2
   4056   4054   4057   4060     1  0.0000000  0.6508444  3
   4056   4054   4057   4058     1  0.0000000  0.6508444  3
   4056   4054   4057   4059     1  0.0000000  0.6508444  3
   4056   4054   4063   4064     1  0.0000000  0.0000000  2
   4057   4054   4063   4064     1  0.0000000  0.0000000  2
   4058   4057   4060   4061     1  0.0000000  1.2552000  3
   4058   4057   4060   4062     1  0.0000000  1.2552000  3
   4058   4057   4054   4063     1  0.0000000  0.6508444  3
   4059   4057   4060   4061     1  0.0000000  1.2552000  3
   4059   4057   4060   4062     1  0.0000000  1.2552000  3
   4059   4057   4054   4063     1  0.0000000  0.6508444  3
   4065   4068   4071   4072     1  0.0000000  1.2552000  3
   4065   4068   4071   4073     1  0.0000000  1.2552000  3
   4066   4065   4068   4071     1  0.0000000  0.6508444  3
   4066   4065   4068   4069     1  0.0000000  0.6508444  3
   4066   4065   4068   4070     1  0.0000000  0.6508444  3
   4066   4065   4074   4075     1  0.0000000  0.0000000  2
   4067   4065   4068   4071     1  0.0000000  0.6508444  3
   4067   4065   4068   4069     1  0.0000000  0.6508444  3
   4067   4065   4068   4070     1  0.0000000  0.6508444  3
   4067   4065   4074   4075     1  0.0000000  0.0000000  2
   4068   4065   4074   4075     1  0.0000000  0.0000000  2
   4069   4068   4065   4074     1  0.0000000  0.6508444  3
   4069   4068   4071   4072     1  0.0000000  1.2552000  3
   4069   4068   4071   4073     1  0.0000000  1.2552000  3
   4070   4068   4065   4074     1  0.0000000  0.6508444  3
   4070   4068   4071   4072     1  0.0000000  1.2552000  3
   4070   4068   4071   4073     1  0.0000000  1.2552000  3
   4076   4079   4082   4083     1  0.0000000  1.2552000  3
   4076   4079   4082   4084     1  0.0000000  1.2552000  3
   4077   4076   4079   4082     1  0.0000000  0.6508444  3
   4077   4076   4079   4080     1  0.0000000  0.6508444  3
   4077   4076   4079   4081     1  0.0000000  0.6508444  3
   4077   4076   4085   4086     1  0.0000000  0.0000000  2
   4078   4076   4079   4082     1  0.0000000  0.6508444  3
   4078   4076   4079   4080     1  0.0000000  0.6508444  3
   4078   4076   4079   4081     1  0.0000000  0.6508444  3
   4078   4076   4085   4086     1  0.0000000  0.0000000  2
   4079   4076   4085   4086     1  0.0000000  0.0000000  2
   4080   4079   4082   4083     1  0.0000000  1.2552000  3
   4080   4079   4082   4084     1  0.0000000  1.2552000  3
   4080   4079   4076   4085     1  0.0000000  0.6508444  3
   4081   4079   4082   4083     1  0.0000000  1.2552000  3
   4081   4079   4082   4084     1  0.0000000  1.2552000  3
   4081   4079   4076   4085     1  0.0000000  0.6508444  3
   4087   4090   4093   4094     1  0.0000000  1.2552000  3
   4087   4090   4093   4095     1  0.0000000  1.2552000  3
   4088   4087   4090   4093     1  0.0000000  0.6508444  3
   4088   4087   4090   4091     1  0.0000000  0.6508444  3
   4088   4087   4090   4092     1  0.0000000  0.6508444  3
   4088   4087   4096   4097     1  0.0000000  0.0000000  2
   4089   4087   4090   4093     1  0.0000000  0.6508444  3
   4089   4087   4090   4091     1  0.0000000  0.6508444  3
   4089   4087   4090   4092     1  0.0000000  0.6508444  3
   4089   4087   4096   4097     1  0.0000000  0.0000000  2
   4090   4087   4096   4097     1  0.0000000  0.0000000  2
   4091   4090   4087   4096     1  0.0000000  0.6508444  3
   4091   4090   4093   4094     1  0.0000000  1.2552000  3
   4091   4090   4093   4095     1  0.0000000  1.2552000  3
   4092   4090   4087   4096     1  0.0000000  0.6508444  3
   4092   4090   4093   4094     1  0.0000000  1.2552000  3
   4092   4090   4093   4095     1  0.0000000  1.2552000  3
   4098   4101   4104   4105     1  0.0000000  1.2552000  3
   4098   4101   4104   4106     1  0.0000000  1.2552000  3
   4099   4098   4101   4104     1  0.0000000  0.6508444  3
   4099   4098   4101   4102     1  0.0000000  0.6508444  3
   4099   4098   4101   4103     1  0.0000000  0.6508444  3
   4099   4098   4107   4108     1  0.0000000  0.0000000  2
   4100   4098   4101   4104     1  0.0000000  0.6508444  3
   4100   4098   4101   4102     1  0.0000000  0.6508444  3
   4100   4098   4101   4103     1  0.0000000  0.6508444  3
   4100   4098   4107   4108     1  0.0000000  0.0000000  2
   4101   4098   4107   4108     1  0.0000000  0.0000000  2
   4102   4101   4104   4105     1  0.0000000  1.2552000  3
   4102   4101   4104   4106     1  0.0000000  1.2552000  3
   4102   4101   4098   4107     1  0.0000000  0.6508444  3
   4103   4101   4104   4105     1  0.0000000  1.2552000  3
   4103   4101   4104   4106     1  0.0000000  1.2552000  3
   4103   4101   4098   4107     1  0.0000000  0.6508444  3
   4109   4112   4115   4116     1  0.0000000  1.2552000  3
   4109   4112   4115   4117     1  0.0000000  1.2552000  3
   4110   4109   4112   4115     1  0.0000000  0.6508444  3
   4110   4109   4112   4113     1  0.0000000  0.6508444  3
   4110   4109   4112   4114     1  0.0000000  0.6508444  3
   4110   4109   4118   4119     1  0.0000000  0.0000000  2
   4111   4109   4112   4115     1  0.0000000  0.6508444  3
   4111   4109   4112   4113     1  0.0000000  0.6508444  3
   4111   4109   4112   4114     1  0.0000000  0.6508444  3
   4111   4109   4118   4119     1  0.0000000  0.0000000  2
   4112   4109   4118   4119     1  0.0000000  0.0000000  2
   4113   4112   4109   4118     1  0.0000000  0.6508444  3
   4113   4112   4115   4116     1  0.0000000  1.2552000  3
   4113   4112   4115   4117     1  0.0000000  1.2552000  3
   4114   4112   4109   4118     1  0.0000000  0.6508444  3
   4114   4112   4115   4116     1  0.0000000  1.2552000  3
   4114   4112   4115   4117     1  0.0000000  1.2552000  3
   4120   4123   4126   4127     1  0.0000000  1.2552000  3
   4120   4123   4126   4128     1  0.0000000  1.2552000  3
   4121   4120   4123   4126     1  0.0000000  0.6508444  3
   4121   4120   4123   4124     1  0.0000000  0.6508444  3
   4121   4120   4123   4125     1  0.0000000  0.6508444  3
   4121   4120   4129   4130     1  0.0000000  0.0000000  2
   4122   4120   4123   4126     1  0.0000000  0.6508444  3
   4122   4120   4123   4124     1  0.0000000  0.6508444  3
   4122   4120   4123   4125     1  0.0000000  0.6508444  3
   4122   4120   4129   4130     1  0.0000000  0.0000000  2
   4123   4120   4129   4130     1  0.0000000  0.0000000  2
   4124   4123   4126   4127     1  0.0000000  1.2552000  3
   4124   4123   4126   4128     1  0.0000000  1.2552000  3
   4124   4123   4120   4129     1  0.0000000  0.6508444  3
   4125   4123   4126   4127     1  0.0000000  1.2552000  3
   4125   4123   4126   4128     1  0.0000000  1.2552000  3
   4125   4123   4120   4129     1  0.0000000  0.6508444  3
   4131   4134   4137   4138     1  0.0000000  1.2552000  3
   4131   4134   4137   4139     1  0.0000000  1.2552000  3
   4132   4131   4134   4137     1  0.0000000  0.6508444  3
   4132   4131   4134   4135     1  0.0000000  0.6508444  3
   4132   4131   4134   4136     1  0.0000000  0.6508444  3
   4132   4131   4140   4141     1  0.0000000  0.0000000  2
   4133   4131   4134   4137     1  0.0000000  0.6508444  3
   4133   4131   4134   4135     1  0.0000000  0.6508444  3
   4133   4131   4134   4136     1  0.0000000  0.6508444  3
   4133   4131   4140   4141     1  0.0000000  0.0000000  2
   4134   4131   4140   4141     1  0.0000000  0.0000000  2
   4135   4134   4131   4140     1  0.0000000  0.6508444  3
   4135   4134   4137   4138     1  0.0000000  1.2552000  3
   4135   4134   4137   4139     1  0.0000000  1.2552000  3
   4136   4134   4131   4140     1  0.0000000  0.6508444  3
   4136   4134   4137   4138     1  0.0000000  1.2552000  3
   4136   4134   4137   4139     1  0.0000000  1.2552000  3
   4142   4145   4148   4149     1  0.0000000  1.2552000  3
   4142   4145   4148   4150     1  0.0000000  1.2552000  3
   4143   4142   4145   4148     1  0.0000000  0.6508444  3
   4143   4142   4145   4146     1  0.0000000  0.6508444  3
   4143   4142   4145   4147     1  0.0000000  0.6508444  3
   4143   4142   4151   4152     1  0.0000000  0.0000000  2
   4144   4142   4145   4148     1  0.0000000  0.6508444  3
   4144   4142   4145   4146     1  0.0000000  0.6508444  3
   4144   4142   4145   4147     1  0.0000000  0.6508444  3
   4144   4142   4151   4152     1  0.0000000  0.0000000  2
   4145   4142   4151   4152     1  0.0000000  0.0000000  2
   4146   4145   4148   4149     1  0.0000000  1.2552000  3
   4146   4145   4148   4150     1  0.0000000  1.2552000  3
   4146   4145   4142   4151     1  0.0000000  0.6508444  3
   4147   4145   4148   4149     1  0.0000000  1.2552000  3
   4147   4145   4148   4150     1  0.0000000  1.2552000  3
   4147   4145   4142   4151     1  0.0000000  0.6508444  3
   4153   4156   4159   4160     1  0.0000000  1.2552000  3
   4153   4156   4159   4161     1  0.0000000  1.2552000  3
   4154   4153   4156   4159     1  0.0000000  0.6508444  3
   4154   4153   4156   4157     1  0.0000000  0.6508444  3
   4154   4153   4156   4158     1  0.0000000  0.6508444  3
   4154   4153   4162   4163     1  0.0000000  0.0000000  2
   4155   4153   4156   4159     1  0.0000000  0.6508444  3
   4155   4153   4156   4157     1  0.0000000  0.6508444  3
   4155   4153   4156   4158     1  0.0000000  0.6508444  3
   4155   4153   4162   4163     1  0.0000000  0.0000000  2
   4156   4153   4162   4163     1  0.0000000  0.0000000  2
   4157   4156   4153   4162     1  0.0000000  0.6508444  3
   4157   4156   4159   4160     1  0.0000000  1.2552000  3
   4157   4156   4159   4161     1  0.0000000  1.2552000  3
   4158   4156   4153   4162     1  0.0000000  0.6508444  3
   4158   4156   4159   4160     1  0.0000000  1.2552000  3
   4158   4156   4159   4161     1  0.0000000  1.2552000  3
   4164   4167   4170   4171     1  0.0000000  1.2552000  3
   4164   4167   4170   4172     1  0.0000000  1.2552000  3
   4165   4164   4167   4170     1  0.0000000  0.6508444  3
   4165   4164   4167   4168     1  0.0000000  0.6508444  3
   4165   4164   4167   4169     1  0.0000000  0.6508444  3
   4165   4164   4173   4174     1  0.0000000  0.0000000  2
   4166   4164   4167   4170     1  0.0000000  0.6508444  3
   4166   4164   4167   4168     1  0.0000000  0.6508444  3
   4166   4164   4167   4169     1  0.0000000  0.6508444  3
   4166   4164   4173   4174     1  0.0000000  0.0000000  2
   4167   4164   4173   4174     1  0.0000000  0.0000000  2
   4168   4167   4170   4171     1  0.0000000  1.2552000  3
   4168   4167   4170   4172     1  0.0000000  1.2552000  3
   4168   4167   4164   4173     1  0.0000000  0.6508444  3
   4169   4167   4170   4171     1  0.0000000  1.2552000  3
   4169   4167   4170   4172     1  0.0000000  1.2552000  3
   4169   4167   4164   4173     1  0.0000000  0.6508444  3
   4175   4178   4181   4182     1  0.0000000  1.2552000  3
   4175   4178   4181   4183     1  0.0000000  1.2552000  3
   4176   4175   4178   4181     1  0.0000000  0.6508444  3
   4176   4175   4178   4179     1  0.0000000  0.6508444  3
   4176   4175   4178   4180     1  0.0000000  0.6508444  3
   4176   4175   4184   4185     1  0.0000000  0.0000000  2
   4177   4175   4178   4181     1  0.0000000  0.6508444  3
   4177   4175   4178   4179     1  0.0000000  0.6508444  3
   4177   4175   4178   4180     1  0.0000000  0.6508444  3
   4177   4175   4184   4185     1  0.0000000  0.0000000  2
   4178   4175   4184   4185     1  0.0000000  0.0000000  2
   4179   4178   4175   4184     1  0.0000000  0.6508444  3
   4179   4178   4181   4182     1  0.0000000  1.2552000  3
   4179   4178   4181   4183     1  0.0000000  1.2552000  3
   4180   4178   4175   4184     1  0.0000000  0.6508444  3
   4180   4178   4181   4182     1  0.0000000  1.2552000  3
   4180   4178   4181   4183     1  0.0000000  1.2552000  3
   4186   4189   4192   4193     1  0.0000000  1.2552000  3
   4186   4189   4192   4194     1  0.0000000  1.2552000  3
   4187   4186   4189   4192     1  0.0000000  0.6508444  3
   4187   4186   4189   4190     1  0.0000000  0.6508444  3
   4187   4186   4189   4191     1  0.0000000  0.6508444  3
   4187   4186   4195   4196     1  0.0000000  0.0000000  2
   4188   4186   4189   4192     1  0.0000000  0.6508444  3
   4188   4186   4189   4190     1  0.0000000  0.6508444  3
   4188   4186   4189   4191     1  0.0000000  0.6508444  3
   4188   4186   4195   4196     1  0.0000000  0.0000000  2
   4189   4186   4195   4196     1  0.0000000  0.0000000  2
   4190   4189   4192   4193     1  0.0000000  1.2552000  3
   4190   4189   4192   4194     1  0.0000000  1.2552000  3
   4190   4189   4186   4195     1  0.0000000  0.6508444  3
   4191   4189   4192   4193     1  0.0000000  1.2552000  3
   4191   4189   4192   4194     1  0.0000000  1.2552000  3
   4191   4189   4186   4195     1  0.0000000  0.6508444  3
   4197   4200   4203   4204     1  0.0000000  1.2552000  3
   4197   4200   4203   4205     1  0.0000000  1.2552000  3
   4198   4197   4200   4203     1  0.0000000  0.6508444  3
   4198   4197   4200   4201     1  0.0000000  0.6508444  3
   4198   4197   4200   4202     1  0.0000000  0.6508444  3
   4198   4197   4206   4207     1  0.0000000  0.0000000  2
   4199   4197   4200   4203     1  0.0000000  0.6508444  3
   4199   4197   4200   4201     1  0.0000000  0.6508444  3
   4199   4197   4200   4202     1  0.0000000  0.6508444  3
   4199   4197   4206   4207     1  0.0000000  0.0000000  2
   4200   4197   4206   4207     1  0.0000000  0.0000000  2
   4201   4200   4197   4206     1  0.0000000  0.6508444  3
   4201   4200   4203   4204     1  0.0000000  1.2552000  3
   4201   4200   4203   4205     1  0.0000000  1.2552000  3
   4202   4200   4197   4206     1  0.0000000  0.6508444  3
   4202   4200   4203   4204     1  0.0000000  1.2552000  3
   4202   4200   4203   4205     1  0.0000000  1.2552000  3
   4208   4211   4214   4215     1  0.0000000  1.2552000  3
   4208   4211   4214   4216     1  0.0000000  1.2552000  3
   4209   4208   4211   4214     1  0.0000000  0.6508444  3
   4209   4208   4211   4212     1  0.0000000  0.6508444  3
   4209   4208   4211   4213     1  0.0000000  0.6508444  3
   4209   4208   4217   4218     1  0.0000000  0.0000000  2
   4210   4208   4211   4214     1  0.0000000  0.6508444  3
   4210   4208   4211   4212     1  0.0000000  0.6508444  3
   4210   4208   4211   4213     1  0.0000000  0.6508444  3
   4210   4208   4217   4218     1  0.0000000  0.0000000  2
   4211   4208   4217   4218     1  0.0000000  0.0000000  2
   4212   4211   4214   4215     1  0.0000000  1.2552000  3
   4212   4211   4214   4216     1  0.0000000  1.2552000  3
   4212   4211   4208   4217     1  0.0000000  0.6508444  3
   4213   4211   4214   4215     1  0.0000000  1.2552000  3
   4213   4211   4214   4216     1  0.0000000  1.2552000  3
   4213   4211   4208   4217     1  0.0000000  0.6508444  3
   4219   4222   4225   4226     1  0.0000000  1.2552000  3
   4219   4222   4225   4227     1  0.0000000  1.2552000  3
   4220   4219   4222   4225     1  0.0000000  0.6508444  3
   4220   4219   4222   4223     1  0.0000000  0.6508444  3
   4220   4219   4222   4224     1  0.0000000  0.6508444  3
   4220   4219   4228   4229     1  0.0000000  0.0000000  2
   4221   4219   4222   4225     1  0.0000000  0.6508444  3
   4221   4219   4222   4223     1  0.0000000  0.6508444  3
   4221   4219   4222   4224     1  0.0000000  0.6508444  3
   4221   4219   4228   4229     1  0.0000000  0.0000000  2
   4222   4219   4228   4229     1  0.0000000  0.0000000  2
   4223   4222   4219   4228     1  0.0000000  0.6508444  3
   4223   4222   4225   4226     1  0.0000000  1.2552000  3
   4223   4222   4225   4227     1  0.0000000  1.2552000  3
   4224   4222   4219   4228     1  0.0000000  0.6508444  3
   4224   4222   4225   4226     1  0.0000000  1.2552000  3
   4224   4222   4225   4227     1  0.0000000  1.2552000  3
   4230   4233   4236   4237     1  0.0000000  1.2552000  3
   4230   4233   4236   4238     1  0.0000000  1.2552000  3
   4231   4230   4233   4236     1  0.0000000  0.6508444  3
   4231   4230   4233   4234     1  0.0000000  0.6508444  3
   4231   4230   4233   4235     1  0.0000000  0.6508444  3
   4231   4230   4239   4240     1  0.0000000  0.0000000  2
   4232   4230   4233   4236     1  0.0000000  0.6508444  3
   4232   4230   4233   4234     1  0.0000000  0.6508444  3
   4232   4230   4233   4235     1  0.0000000  0.6508444  3
   4232   4230   4239   4240     1  0.0000000  0.0000000  2
   4233   4230   4239   4240     1  0.0000000  0.0000000  2
   4234   4233   4236   4237     1  0.0000000  1.2552000  3
   4234   4233   4236   4238     1  0.0000000  1.2552000  3
   4234   4233   4230   4239     1  0.0000000  0.6508444  3
   4235   4233   4236   4237     1  0.0000000  1.2552000  3
   4235   4233   4236   4238     1  0.0000000  1.2552000  3
   4235   4233   4230   4239     1  0.0000000  0.6508444  3
   4241   4244   4247   4248     1  0.0000000  1.2552000  3
   4241   4244   4247   4249     1  0.0000000  1.2552000  3
   4242   4241   4244   4247     1  0.0000000  0.6508444  3
   4242   4241   4244   4245     1  0.0000000  0.6508444  3
   4242   4241   4244   4246     1  0.0000000  0.6508444  3
   4242   4241   4250   4251     1  0.0000000  0.0000000  2
   4243   4241   4244   4247     1  0.0000000  0.6508444  3
   4243   4241   4244   4245     1  0.0000000  0.6508444  3
   4243   4241   4244   4246     1  0.0000000  0.6508444  3
   4243   4241   4250   4251     1  0.0000000  0.0000000  2
   4244   4241   4250   4251     1  0.0000000  0.0000000  2
   4245   4244   4241   4250     1  0.0000000  0.6508444  3
   4245   4244   4247   4248     1  0.0000000  1.2552000  3
   4245   4244   4247   4249     1  0.0000000  1.2552000  3
   4246   4244   4241   4250     1  0.0000000  0.6508444  3
   4246   4244   4247   4248     1  0.0000000  1.2552000  3
   4246   4244   4247   4249     1  0.0000000  1.2552000  3
   4252   4255   4258   4259     1  0.0000000  1.2552000  3
   4252   4255   4258   4260     1  0.0000000  1.2552000  3
   4253   4252   4255   4258     1  0.0000000  0.6508444  3
   4253   4252   4255   4256     1  0.0000000  0.6508444  3
   4253   4252   4255   4257     1  0.0000000  0.6508444  3
   4253   4252   4261   4262     1  0.0000000  0.0000000  2
   4254   4252   4255   4258     1  0.0000000  0.6508444  3
   4254   4252   4255   4256     1  0.0000000  0.6508444  3
   4254   4252   4255   4257     1  0.0000000  0.6508444  3
   4254   4252   4261   4262     1  0.0000000  0.0000000  2
   4255   4252   4261   4262     1  0.0000000  0.0000000  2
   4256   4255   4258   4259     1  0.0000000  1.2552000  3
   4256   4255   4258   4260     1  0.0000000  1.2552000  3
   4256   4255   4252   4261     1  0.0000000  0.6508444  3
   4257   4255   4258   4259     1  0.0000000  1.2552000  3
   4257   4255   4258   4260     1  0.0000000  1.2552000  3
   4257   4255   4252   4261     1  0.0000000  0.6508444  3
   4263   4266   4269   4270     1  0.0000000  1.2552000  3
   4263   4266   4269   4271     1  0.0000000  1.2552000  3
   4264   4263   4266   4269     1  0.0000000  0.6508444  3
   4264   4263   4266   4267     1  0.0000000  0.6508444  3
   4264   4263   4266   4268     1  0.0000000  0.6508444  3
   4264   4263   4272   4273     1  0.0000000  0.0000000  2
   4265   4263   4266   4269     1  0.0000000  0.6508444  3
   4265   4263   4266   4267     1  0.0000000  0.6508444  3
   4265   4263   4266   4268     1  0.0000000  0.6508444  3
   4265   4263   4272   4273     1  0.0000000  0.0000000  2
   4266   4263   4272   4273     1  0.0000000  0.0000000  2
   4267   4266   4263   4272     1  0.0000000  0.6508444  3
   4267   4266   4269   4270     1  0.0000000  1.2552000  3
   4267   4266   4269   4271     1  0.0000000  1.2552000  3
   4268   4266   4263   4272     1  0.0000000  0.6508444  3
   4268   4266   4269   4270     1  0.0000000  1.2552000  3
   4268   4266   4269   4271     1  0.0000000  1.2552000  3
   4274   4277   4280   4281     1  0.0000000  1.2552000  3
   4274   4277   4280   4282     1  0.0000000  1.2552000  3
   4275   4274   4277   4280     1  0.0000000  0.6508444  3
   4275   4274   4277   4278     1  0.0000000  0.6508444  3
   4275   4274   4277   4279     1  0.0000000  0.6508444  3
   4275   4274   4283   4284     1  0.0000000  0.0000000  2
   4276   4274   4277   4280     1  0.0000000  0.6508444  3
   4276   4274   4277   4278     1  0.0000000  0.6508444  3
   4276   4274   4277   4279     1  0.0000000  0.6508444  3
   4276   4274   4283   4284     1  0.0000000  0.0000000  2
   4277   4274   4283   4284     1  0.0000000  0.0000000  2
   4278   4277   4280   4281     1  0.0000000  1.2552000  3
   4278   4277   4280   4282     1  0.0000000  1.2552000  3
   4278   4277   4274   4283     1  0.0000000  0.6508444  3
   4279   4277   4280   4281     1  0.0000000  1.2552000  3
   4279   4277   4280   4282     1  0.0000000  1.2552000  3
   4279   4277   4274   4283     1  0.0000000  0.6508444  3
   4285   4288   4291   4292     1  0.0000000  1.2552000  3
   4285   4288   4291   4293     1  0.0000000  1.2552000  3
   4286   4285   4288   4291     1  0.0000000  0.6508444  3
   4286   4285   4288   4289     1  0.0000000  0.6508444  3
   4286   4285   4288   4290     1  0.0000000  0.6508444  3
   4286   4285   4294   4295     1  0.0000000  0.0000000  2
   4287   4285   4288   4291     1  0.0000000  0.6508444  3
   4287   4285   4288   4289     1  0.0000000  0.6508444  3
   4287   4285   4288   4290     1  0.0000000  0.6508444  3
   4287   4285   4294   4295     1  0.0000000  0.0000000  2
   4288   4285   4294   4295     1  0.0000000  0.0000000  2
   4289   4288   4285   4294     1  0.0000000  0.6508444  3
   4289   4288   4291   4292     1  0.0000000  1.2552000  3
   4289   4288   4291   4293     1  0.0000000  1.2552000  3
   4290   4288   4285   4294     1  0.0000000  0.6508444  3
   4290   4288   4291   4292     1  0.0000000  1.2552000  3
   4290   4288   4291   4293     1  0.0000000  1.2552000  3
   4296   4299   4302   4303     1  0.0000000  1.2552000  3
   4296   4299   4302   4304     1  0.0000000  1.2552000  3
   4297   4296   4299   4302     1  0.0000000  0.6508444  3
   4297   4296   4299   4300     1  0.0000000  0.6508444  3
   4297   4296   4299   4301     1  0.0000000  0.6508444  3
   4297   4296   4305   4306     1  0.0000000  0.0000000  2
   4298   4296   4299   4302     1  0.0000000  0.6508444  3
   4298   4296   4299   4300     1  0.0000000  0.6508444  3
   4298   4296   4299   4301     1  0.0000000  0.6508444  3
   4298   4296   4305   4306     1  0.0000000  0.0000000  2
   4299   4296   4305   4306     1  0.0000000  0.0000000  2
   4300   4299   4302   4303     1  0.0000000  1.2552000  3
   4300   4299   4302   4304     1  0.0000000  1.2552000  3
   4300   4299   4296   4305     1  0.0000000  0.6508444  3
   4301   4299   4302   4303     1  0.0000000  1.2552000  3
   4301   4299   4302   4304     1  0.0000000  1.2552000  3
   4301   4299   4296   4305     1  0.0000000  0.6508444  3
   4307   4310   4313   4314     1  0.0000000  1.2552000  3
   4307   4310   4313   4315     1  0.0000000  1.2552000  3
   4308   4307   4310   4313     1  0.0000000  0.6508444  3
   4308   4307   4310   4311     1  0.0000000  0.6508444  3
   4308   4307   4310   4312     1  0.0000000  0.6508444  3
   4308   4307   4316   4317     1  0.0000000  0.0000000  2
   4309   4307   4310   4313     1  0.0000000  0.6508444  3
   4309   4307   4310   4311     1  0.0000000  0.6508444  3
   4309   4307   4310   4312     1  0.0000000  0.6508444  3
   4309   4307   4316   4317     1  0.0000000  0.0000000  2
   4310   4307   4316   4317     1  0.0000000  0.0000000  2
   4311   4310   4307   4316     1  0.0000000  0.6508444  3
   4311   4310   4313   4314     1  0.0000000  1.2552000  3
   4311   4310   4313   4315     1  0.0000000  1.2552000  3
   4312   4310   4307   4316     1  0.0000000  0.6508444  3
   4312   4310   4313   4314     1  0.0000000  1.2552000  3
   4312   4310   4313   4315     1  0.0000000  1.2552000  3
   4318   4321   4324   4325     1  0.0000000  1.2552000  3
   4318   4321   4324   4326     1  0.0000000  1.2552000  3
   4319   4318   4321   4324     1  0.0000000  0.6508444  3
   4319   4318   4321   4322     1  0.0000000  0.6508444  3
   4319   4318   4321   4323     1  0.0000000  0.6508444  3
   4319   4318   4327   4328     1  0.0000000  0.0000000  2
   4320   4318   4321   4324     1  0.0000000  0.6508444  3
   4320   4318   4321   4322     1  0.0000000  0.6508444  3
   4320   4318   4321   4323     1  0.0000000  0.6508444  3
   4320   4318   4327   4328     1  0.0000000  0.0000000  2
   4321   4318   4327   4328     1  0.0000000  0.0000000  2
   4322   4321   4324   4325     1  0.0000000  1.2552000  3
   4322   4321   4324   4326     1  0.0000000  1.2552000  3
   4322   4321   4318   4327     1  0.0000000  0.6508444  3
   4323   4321   4324   4325     1  0.0000000  1.2552000  3
   4323   4321   4324   4326     1  0.0000000  1.2552000  3
   4323   4321   4318   4327     1  0.0000000  0.6508444  3
   4329   4332   4335   4336     1  0.0000000  1.2552000  3
   4329   4332   4335   4337     1  0.0000000  1.2552000  3
   4330   4329   4332   4335     1  0.0000000  0.6508444  3
   4330   4329   4332   4333     1  0.0000000  0.6508444  3
   4330   4329   4332   4334     1  0.0000000  0.6508444  3
   4330   4329   4338   4339     1  0.0000000  0.0000000  2
   4331   4329   4332   4335     1  0.0000000  0.6508444  3
   4331   4329   4332   4333     1  0.0000000  0.6508444  3
   4331   4329   4332   4334     1  0.0000000  0.6508444  3
   4331   4329   4338   4339     1  0.0000000  0.0000000  2
   4332   4329   4338   4339     1  0.0000000  0.0000000  2
   4333   4332   4329   4338     1  0.0000000  0.6508444  3
   4333   4332   4335   4336     1  0.0000000  1.2552000  3
   4333   4332   4335   4337     1  0.0000000  1.2552000  3
   4334   4332   4329   4338     1  0.0000000  0.6508444  3
   4334   4332   4335   4336     1  0.0000000  1.2552000  3
   4334   4332   4335   4337     1  0.0000000  1.2552000  3
   4340   4343   4346   4347     1  0.0000000  1.2552000  3
   4340   4343   4346   4348     1  0.0000000  1.2552000  3
   4341   4340   4343   4346     1  0.0000000  0.6508444  3
   4341   4340   4343   4344     1  0.0000000  0.6508444  3
   4341   4340   4343   4345     1  0.0000000  0.6508444  3
   4341   4340   4349   4350     1  0.0000000  0.0000000  2
   4342   4340   4343   4346     1  0.0000000  0.6508444  3
   4342   4340   4343   4344     1  0.0000000  0.6508444  3
   4342   4340   4343   4345     1  0.0000000  0.6508444  3
   4342   4340   4349   4350     1  0.0000000  0.0000000  2
   4343   4340   4349   4350     1  0.0000000  0.0000000  2
   4344   4343   4346   4347     1  0.0000000  1.2552000  3
   4344   4343   4346   4348     1  0.0000000  1.2552000  3
   4344   4343   4340   4349     1  0.0000000  0.6508444  3
   4345   4343   4346   4347     1  0.0000000  1.2552000  3
   4345   4343   4346   4348     1  0.0000000  1.2552000  3
   4345   4343   4340   4349     1  0.0000000  0.6508444  3
   4351   4354   4357   4358     1  0.0000000  1.2552000  3
   4351   4354   4357   4359     1  0.0000000  1.2552000  3
   4352   4351   4354   4357     1  0.0000000  0.6508444  3
   4352   4351   4354   4355     1  0.0000000  0.6508444  3
   4352   4351   4354   4356     1  0.0000000  0.6508444  3
   4352   4351   4360   4361     1  0.0000000  0.0000000  2
   4353   4351   4354   4357     1  0.0000000  0.6508444  3
   4353   4351   4354   4355     1  0.0000000  0.6508444  3
   4353   4351   4354   4356     1  0.0000000  0.6508444  3
   4353   4351   4360   4361     1  0.0000000  0.0000000  2
   4354   4351   4360   4361     1  0.0000000  0.0000000  2
   4355   4354   4351   4360     1  0.0000000  0.6508444  3
   4355   4354   4357   4358     1  0.0000000  1.2552000  3
   4355   4354   4357   4359     1  0.0000000  1.2552000  3
   4356   4354   4351   4360     1  0.0000000  0.6508444  3
   4356   4354   4357   4358     1  0.0000000  1.2552000  3
   4356   4354   4357   4359     1  0.0000000  1.2552000  3
   4362   4365   4368   4369     1  0.0000000  1.2552000  3
   4362   4365   4368   4370     1  0.0000000  1.2552000  3
   4363   4362   4365   4368     1  0.0000000  0.6508444  3
   4363   4362   4365   4366     1  0.0000000  0.6508444  3
   4363   4362   4365   4367     1  0.0000000  0.6508444  3
   4363   4362   4371   4372     1  0.0000000  0.0000000  2
   4364   4362   4365   4368     1  0.0000000  0.6508444  3
   4364   4362   4365   4366     1  0.0000000  0.6508444  3
   4364   4362   4365   4367     1  0.0000000  0.6508444  3
   4364   4362   4371   4372     1  0.0000000  0.0000000  2
   4365   4362   4371   4372     1  0.0000000  0.0000000  2
   4366   4365   4368   4369     1  0.0000000  1.2552000  3
   4366   4365   4368   4370     1  0.0000000  1.2552000  3
   4366   4365   4362   4371     1  0.0000000  0.6508444  3
   4367   4365   4368   4369     1  0.0000000  1.2552000  3
   4367   4365   4368   4370     1  0.0000000  1.2552000  3
   4367   4365   4362   4371     1  0.0000000  0.6508444  3
   4373   4376   4379   4380     1  0.0000000  1.2552000  3
   4373   4376   4379   4381     1  0.0000000  1.2552000  3
   4374   4373   4376   4379     1  0.0000000  0.6508444  3
   4374   4373   4376   4377     1  0.0000000  0.6508444  3
   4374   4373   4376   4378     1  0.0000000  0.6508444  3
   4374   4373   4382   4383     1  0.0000000  0.0000000  2
   4375   4373   4376   4379     1  0.0000000  0.6508444  3
   4375   4373   4376   4377     1  0.0000000  0.6508444  3
   4375   4373   4376   4378     1  0.0000000  0.6508444  3
   4375   4373   4382   4383     1  0.0000000  0.0000000  2
   4376   4373   4382   4383     1  0.0000000  0.0000000  2
   4377   4376   4373   4382     1  0.0000000  0.6508444  3
   4377   4376   4379   4380     1  0.0000000  1.2552000  3
   4377   4376   4379   4381     1  0.0000000  1.2552000  3
   4378   4376   4373   4382     1  0.0000000  0.6508444  3
   4378   4376   4379   4380     1  0.0000000  1.2552000  3
   4378   4376   4379   4381     1  0.0000000  1.2552000  3
   4384   4387   4390   4391     1  0.0000000  1.2552000  3
   4384   4387   4390   4392     1  0.0000000  1.2552000  3
   4385   4384   4387   4390     1  0.0000000  0.6508444  3
   4385   4384   4387   4388     1  0.0000000  0.6508444  3
   4385   4384   4387   4389     1  0.0000000  0.6508444  3
   4385   4384   4393   4394     1  0.0000000  0.0000000  2
   4386   4384   4387   4390     1  0.0000000  0.6508444  3
   4386   4384   4387   4388     1  0.0000000  0.6508444  3
   4386   4384   4387   4389     1  0.0000000  0.6508444  3
   4386   4384   4393   4394     1  0.0000000  0.0000000  2
   4387   4384   4393   4394     1  0.0000000  0.0000000  2
   4388   4387   4390   4391     1  0.0000000  1.2552000  3
   4388   4387   4390   4392     1  0.0000000  1.2552000  3
   4388   4387   4384   4393     1  0.0000000  0.6508444  3
   4389   4387   4390   4391     1  0.0000000  1.2552000  3
   4389   4387   4390   4392     1  0.0000000  1.2552000  3
   4389   4387   4384   4393     1  0.0000000  0.6508444  3
   4395   4398   4401   4402     1  0.0000000  1.2552000  3
   4395   4398   4401   4403     1  0.0000000  1.2552000  3
   4396   4395   4398   4401     1  0.0000000  0.6508444  3
   4396   4395   4398   4399     1  0.0000000  0.6508444  3
   4396   4395   4398   4400     1  0.0000000  0.6508444  3
   4396   4395   4404   4405     1  0.0000000  0.0000000  2
   4397   4395   4398   4401     1  0.0000000  0.6508444  3
   4397   4395   4398   4399     1  0.0000000  0.6508444  3
   4397   4395   4398   4400     1  0.0000000  0.6508444  3
   4397   4395   4404   4405     1  0.0000000  0.0000000  2
   4398   4395   4404   4405     1  0.0000000  0.0000000  2
   4399   4398   4395   4404     1  0.0000000  0.6508444  3
   4399   4398   4401   4402     1  0.0000000  1.2552000  3
   4399   4398   4401   4403     1  0.0000000  1.2552000  3
   4400   4398   4395   4404     1  0.0000000  0.6508444  3
   4400   4398   4401   4402     1  0.0000000  1.2552000  3
   4400   4398   4401   4403     1  0.0000000  1.2552000  3
   4406   4409   4412   4413     1  0.0000000  1.2552000  3
   4406   4409   4412   4414     1  0.0000000  1.2552000  3
   4407   4406   4409   4412     1  0.0000000  0.6508444  3
   4407   4406   4409   4410     1  0.0000000  0.6508444  3
   4407   4406   4409   4411     1  0.0000000  0.6508444  3
   4407   4406   4415   4416     1  0.0000000  0.0000000  2
   4408   4406   4409   4412     1  0.0000000  0.6508444  3
   4408   4406   4409   4410     1  0.0000000  0.6508444  3
   4408   4406   4409   4411     1  0.0000000  0.6508444  3
   4408   4406   4415   4416     1  0.0000000  0.0000000  2
   4409   4406   4415   4416     1  0.0000000  0.0000000  2
   4410   4409   4412   4413     1  0.0000000  1.2552000  3
   4410   4409   4412   4414     1  0.0000000  1.2552000  3
   4410   4409   4406   4415     1  0.0000000  0.6508444  3
   4411   4409   4412   4413     1  0.0000000  1.2552000  3
   4411   4409   4412   4414     1  0.0000000  1.2552000  3
   4411   4409   4406   4415     1  0.0000000  0.6508444  3
   4417   4420   4423   4424     1  0.0000000  1.2552000  3
   4417   4420   4423   4425     1  0.0000000  1.2552000  3
   4418   4417   4420   4423     1  0.0000000  0.6508444  3
   4418   4417   4420   4421     1  0.0000000  0.6508444  3
   4418   4417   4420   4422     1  0.0000000  0.6508444  3
   4418   4417   4426   4427     1  0.0000000  0.0000000  2
   4419   4417   4420   4423     1  0.0000000  0.6508444  3
   4419   4417   4420   4421     1  0.0000000  0.6508444  3
   4419   4417   4420   4422     1  0.0000000  0.6508444  3
   4419   4417   4426   4427     1  0.0000000  0.0000000  2
   4420   4417   4426   4427     1  0.0000000  0.0000000  2
   4421   4420   4417   4426     1  0.0000000  0.6508444  3
   4421   4420   4423   4424     1  0.0000000  1.2552000  3
   4421   4420   4423   4425     1  0.0000000  1.2552000  3
   4422   4420   4417   4426     1  0.0000000  0.6508444  3
   4422   4420   4423   4424     1  0.0000000  1.2552000  3
   4422   4420   4423   4425     1  0.0000000  1.2552000  3
   4428   4431   4434   4435     1  0.0000000  1.2552000  3
   4428   4431   4434   4436     1  0.0000000  1.2552000  3
   4429   4428   4431   4434     1  0.0000000  0.6508444  3
   4429   4428   4431   4432     1  0.0000000  0.6508444  3
   4429   4428   4431   4433     1  0.0000000  0.6508444  3
   4429   4428   4437   4438     1  0.0000000  0.0000000  2
   4430   4428   4431   4434     1  0.0000000  0.6508444  3
   4430   4428   4431   4432     1  0.0000000  0.6508444  3
   4430   4428   4431   4433     1  0.0000000  0.6508444  3
   4430   4428   4437   4438     1  0.0000000  0.0000000  2
   4431   4428   4437   4438     1  0.0000000  0.0000000  2
   4432   4431   4434   4435     1  0.0000000  1.2552000  3
   4432   4431   4434   4436     1  0.0000000  1.2552000  3
   4432   4431   4428   4437     1  0.0000000  0.6508444  3
   4433   4431   4434   4435     1  0.0000000  1.2552000  3
   4433   4431   4434   4436     1  0.0000000  1.2552000  3
   4433   4431   4428   4437     1  0.0000000  0.6508444  3
   4439   4442   4445   4446     1  0.0000000  1.2552000  3
   4439   4442   4445   4447     1  0.0000000  1.2552000  3
   4440   4439   4442   4445     1  0.0000000  0.6508444  3
   4440   4439   4442   4443     1  0.0000000  0.6508444  3
   4440   4439   4442   4444     1  0.0000000  0.6508444  3
   4440   4439   4448   4449     1  0.0000000  0.0000000  2
   4441   4439   4442   4445     1  0.0000000  0.6508444  3
   4441   4439   4442   4443     1  0.0000000  0.6508444  3
   4441   4439   4442   4444     1  0.0000000  0.6508444  3
   4441   4439   4448   4449     1  0.0000000  0.0000000  2
   4442   4439   4448   4449     1  0.0000000  0.0000000  2
   4443   4442   4439   4448     1  0.0000000  0.6508444  3
   4443   4442   4445   4446     1  0.0000000  1.2552000  3
   4443   4442   4445   4447     1  0.0000000  1.2552000  3
   4444   4442   4439   4448     1  0.0000000  0.6508444  3
   4444   4442   4445   4446     1  0.0000000  1.2552000  3
   4444   4442   4445   4447     1  0.0000000  1.2552000  3
   4450   4453   4456   4457     1  0.0000000  1.2552000  3
   4450   4453   4456   4458     1  0.0000000  1.2552000  3
   4451   4450   4453   4456     1  0.0000000  0.6508444  3
   4451   4450   4453   4454     1  0.0000000  0.6508444  3
   4451   4450   4453   4455     1  0.0000000  0.6508444  3
   4451   4450   4459   4460     1  0.0000000  0.0000000  2
   4452   4450   4453   4456     1  0.0000000  0.6508444  3
   4452   4450   4453   4454     1  0.0000000  0.6508444  3
   4452   4450   4453   4455     1  0.0000000  0.6508444  3
   4452   4450   4459   4460     1  0.0000000  0.0000000  2
   4453   4450   4459   4460     1  0.0000000  0.0000000  2
   4454   4453   4456   4457     1  0.0000000  1.2552000  3
   4454   4453   4456   4458     1  0.0000000  1.2552000  3
   4454   4453   4450   4459     1  0.0000000  0.6508444  3
   4455   4453   4456   4457     1  0.0000000  1.2552000  3
   4455   4453   4456   4458     1  0.0000000  1.2552000  3
   4455   4453   4450   4459     1  0.0000000  0.6508444  3
   4461   4464   4467   4468     1  0.0000000  1.2552000  3
   4461   4464   4467   4469     1  0.0000000  1.2552000  3
   4462   4461   4464   4467     1  0.0000000  0.6508444  3
   4462   4461   4464   4465     1  0.0000000  0.6508444  3
   4462   4461   4464   4466     1  0.0000000  0.6508444  3
   4462   4461   4470   4471     1  0.0000000  0.0000000  2
   4463   4461   4464   4467     1  0.0000000  0.6508444  3
   4463   4461   4464   4465     1  0.0000000  0.6508444  3
   4463   4461   4464   4466     1  0.0000000  0.6508444  3
   4463   4461   4470   4471     1  0.0000000  0.0000000  2
   4464   4461   4470   4471     1  0.0000000  0.0000000  2
   4465   4464   4461   4470     1  0.0000000  0.6508444  3
   4465   4464   4467   4468     1  0.0000000  1.2552000  3
   4465   4464   4467   4469     1  0.0000000  1.2552000  3
   4466   4464   4461   4470     1  0.0000000  0.6508444  3
   4466   4464   4467   4468     1  0.0000000  1.2552000  3
   4466   4464   4467   4469     1  0.0000000  1.2552000  3
   4472   4475   4478   4479     1  0.0000000  1.2552000  3
   4472   4475   4478   4480     1  0.0000000  1.2552000  3
   4473   4472   4475   4478     1  0.0000000  0.6508444  3
   4473   4472   4475   4476     1  0.0000000  0.6508444  3
   4473   4472   4475   4477     1  0.0000000  0.6508444  3
   4473   4472   4481   4482     1  0.0000000  0.0000000  2
   4474   4472   4475   4478     1  0.0000000  0.6508444  3
   4474   4472   4475   4476     1  0.0000000  0.6508444  3
   4474   4472   4475   4477     1  0.0000000  0.6508444  3
   4474   4472   4481   4482     1  0.0000000  0.0000000  2
   4475   4472   4481   4482     1  0.0000000  0.0000000  2
   4476   4475   4478   4479     1  0.0000000  1.2552000  3
   4476   4475   4478   4480     1  0.0000000  1.2552000  3
   4476   4475   4472   4481     1  0.0000000  0.6508444  3
   4477   4475   4478   4479     1  0.0000000  1.2552000  3
   4477   4475   4478   4480     1  0.0000000  1.2552000  3
   4477   4475   4472   4481     1  0.0000000  0.6508444  3
   4483   4486   4489   4490     1  0.0000000  1.2552000  3
   4483   4486   4489   4491     1  0.0000000  1.2552000  3
   4484   4483   4486   4489     1  0.0000000  0.6508444  3
   4484   4483   4486   4487     1  0.0000000  0.6508444  3
   4484   4483   4486   4488     1  0.0000000  0.6508444  3
   4484   4483   4492   4493     1  0.0000000  0.0000000  2
   4485   4483   4486   4489     1  0.0000000  0.6508444  3
   4485   4483   4486   4487     1  0.0000000  0.6508444  3
   4485   4483   4486   4488     1  0.0000000  0.6508444  3
   4485   4483   4492   4493     1  0.0000000  0.0000000  2
   4486   4483   4492   4493     1  0.0000000  0.0000000  2
   4487   4486   4483   4492     1  0.0000000  0.6508444  3
   4487   4486   4489   4490     1  0.0000000  1.2552000  3
   4487   4486   4489   4491     1  0.0000000  1.2552000  3
   4488   4486   4483   4492     1  0.0000000  0.6508444  3
   4488   4486   4489   4490     1  0.0000000  1.2552000  3
   4488   4486   4489   4491     1  0.0000000  1.2552000  3
   4494   4497   4500   4501     1  0.0000000  1.2552000  3
   4494   4497   4500   4502     1  0.0000000  1.2552000  3
   4495   4494   4497   4500     1  0.0000000  0.6508444  3
   4495   4494   4497   4498     1  0.0000000  0.6508444  3
   4495   4494   4497   4499     1  0.0000000  0.6508444  3
   4495   4494   4503   4504     1  0.0000000  0.0000000  2
   4496   4494   4497   4500     1  0.0000000  0.6508444  3
   4496   4494   4497   4498     1  0.0000000  0.6508444  3
   4496   4494   4497   4499     1  0.0000000  0.6508444  3
   4496   4494   4503   4504     1  0.0000000  0.0000000  2
   4497   4494   4503   4504     1  0.0000000  0.0000000  2
   4498   4497   4500   4501     1  0.0000000  1.2552000  3
   4498   4497   4500   4502     1  0.0000000  1.2552000  3
   4498   4497   4494   4503     1  0.0000000  0.6508444  3
   4499   4497   4500   4501     1  0.0000000  1.2552000  3
   4499   4497   4500   4502     1  0.0000000  1.2552000  3
   4499   4497   4494   4503     1  0.0000000  0.6508444  3
   4505   4508   4511   4512     1  0.0000000  1.2552000  3
   4505   4508   4511   4513     1  0.0000000  1.2552000  3
   4506   4505   4508   4511     1  0.0000000  0.6508444  3
   4506   4505   4508   4509     1  0.0000000  0.6508444  3
   4506   4505   4508   4510     1  0.0000000  0.6508444  3
   4506   4505   4514   4515     1  0.0000000  0.0000000  2
   4507   4505   4508   4511     1  0.0000000  0.6508444  3
   4507   4505   4508   4509     1  0.0000000  0.6508444  3
   4507   4505   4508   4510     1  0.0000000  0.6508444  3
   4507   4505   4514   4515     1  0.0000000  0.0000000  2
   4508   4505   4514   4515     1  0.0000000  0.0000000  2
   4509   4508   4505   4514     1  0.0000000  0.6508444  3
   4509   4508   4511   4512     1  0.0000000  1.2552000  3
   4509   4508   4511   4513     1  0.0000000  1.2552000  3
   4510   4508   4505   4514     1  0.0000000  0.6508444  3
   4510   4508   4511   4512     1  0.0000000  1.2552000  3
   4510   4508   4511   4513     1  0.0000000  1.2552000  3
   4516   4519   4522   4523     1  0.0000000  1.2552000  3
   4516   4519   4522   4524     1  0.0000000  1.2552000  3
   4517   4516   4519   4522     1  0.0000000  0.6508444  3
   4517   4516   4519   4520     1  0.0000000  0.6508444  3
   4517   4516   4519   4521     1  0.0000000  0.6508444  3
   4517   4516   4525   4526     1  0.0000000  0.0000000  2
   4518   4516   4519   4522     1  0.0000000  0.6508444  3
   4518   4516   4519   4520     1  0.0000000  0.6508444  3
   4518   4516   4519   4521     1  0.0000000  0.6508444  3
   4518   4516   4525   4526     1  0.0000000  0.0000000  2
   4519   4516   4525   4526     1  0.0000000  0.0000000  2
   4520   4519   4522   4523     1  0.0000000  1.2552000  3
   4520   4519   4522   4524     1  0.0000000  1.2552000  3
   4520   4519   4516   4525     1  0.0000000  0.6508444  3
   4521   4519   4522   4523     1  0.0000000  1.2552000  3
   4521   4519   4522   4524     1  0.0000000  1.2552000  3
   4521   4519   4516   4525     1  0.0000000  0.6508444  3
   4527   4530   4533   4534     1  0.0000000  1.2552000  3
   4527   4530   4533   4535     1  0.0000000  1.2552000  3
   4528   4527   4530   4533     1  0.0000000  0.6508444  3
   4528   4527   4530   4531     1  0.0000000  0.6508444  3
   4528   4527   4530   4532     1  0.0000000  0.6508444  3
   4528   4527   4536   4537     1  0.0000000  0.0000000  2
   4529   4527   4530   4533     1  0.0000000  0.6508444  3
   4529   4527   4530   4531     1  0.0000000  0.6508444  3
   4529   4527   4530   4532     1  0.0000000  0.6508444  3
   4529   4527   4536   4537     1  0.0000000  0.0000000  2
   4530   4527   4536   4537     1  0.0000000  0.0000000  2
   4531   4530   4527   4536     1  0.0000000  0.6508444  3
   4531   4530   4533   4534     1  0.0000000  1.2552000  3
   4531   4530   4533   4535     1  0.0000000  1.2552000  3
   4532   4530   4527   4536     1  0.0000000  0.6508444  3
   4532   4530   4533   4534     1  0.0000000  1.2552000  3
   4532   4530   4533   4535     1  0.0000000  1.2552000  3
   4538   4541   4544   4545     1  0.0000000  1.2552000  3
   4538   4541   4544   4546     1  0.0000000  1.2552000  3
   4539   4538   4541   4544     1  0.0000000  0.6508444  3
   4539   4538   4541   4542     1  0.0000000  0.6508444  3
   4539   4538   4541   4543     1  0.0000000  0.6508444  3
   4539   4538   4547   4548     1  0.0000000  0.0000000  2
   4540   4538   4541   4544     1  0.0000000  0.6508444  3
   4540   4538   4541   4542     1  0.0000000  0.6508444  3
   4540   4538   4541   4543     1  0.0000000  0.6508444  3
   4540   4538   4547   4548     1  0.0000000  0.0000000  2
   4541   4538   4547   4548     1  0.0000000  0.0000000  2
   4542   4541   4544   4545     1  0.0000000  1.2552000  3
   4542   4541   4544   4546     1  0.0000000  1.2552000  3
   4542   4541   4538   4547     1  0.0000000  0.6508444  3
   4543   4541   4544   4545     1  0.0000000  1.2552000  3
   4543   4541   4544   4546     1  0.0000000  1.2552000  3
   4543   4541   4538   4547     1  0.0000000  0.6508444  3
     33     44     64     65     4  180.0000771  4.6024000  2
     34     69     89     90     4  180.0000771  4.6024000  2
     35     94    114    115     4  180.0000771  4.6024000  2
     36    119    139    140     4  180.0000771  4.6024000  2
     60    144    164    165     4  180.0000771  4.6024000  2
     61    169    189    190     4  180.0000771  4.6024000  2
     85    194    214    215     4  180.0000771  4.6024000  2
     86    219    239    240     4  180.0000771  4.6024000  2
    110    244    264    265     4  180.0000771  4.6024000  2
    111    269    289    290     4  180.0000771  4.6024000  2
    135    294    314    315     4  180.0000771  4.6024000  2
    136    319    339    340     4  180.0000771  4.6024000  2
    160    344    364    365     4  180.0000771  4.6024000  2
    161    369    389    390     4  180.0000771  4.6024000  2
    185    394    414    415     4  180.0000771  4.6024000  2
    186    419    439    440     4  180.0000771  4.6024000  2
    210    444    464    465     4  180.0000771  4.6024000  2
    211    469    489    490     4  180.0000771  4.6024000  2
    235    494    514    515     4  180.0000771  4.6024000  2
    236    519    539    540     4  180.0000771  4.6024000  2
    260    544    564    565     4  180.0000771  4.6024000  2
    261    569    589    590     4  180.0000771  4.6024000  2
    285    594    614    615     4  180.0000771  4.6024000  2
    286    619    639    640     4  180.0000771  4.6024000  2
    310    644    664    665     4  180.0000771  4.6024000  2
    311    669    689    690     4  180.0000771  4.6024000  2
    335    694    714    715     4  180.0000771  4.6024000  2
    336    719    739    740     4  180.0000771  4.6024000  2
    360    744    764    765     4  180.0000771  4.6024000  2
    361    769    789    790     4  180.0000771  4.6024000  2
    385    794    814    815     4  180.0000771  4.6024000  2
    386    819    839    840     4  180.0000771  4.6024000  2
    410    844    864    865     4  180.0000771  4.6024000  2
    411    869    889    890     4  180.0000771  4.6024000  2
    435    894    914    915     4  180.0000771  4.6024000  2
    436    919    939    940     4  180.0000771  4.6024000  2
    460    944    964    965     4  180.0000771  4.6024000  2
    461    969    989    990     4  180.0000771  4.6024000  2
    485    994   1014   1015     4  180.0000771  4.6024000  2
    486   1019   1039   1040     4  180.0000771  4.6024000  2
    510   1044   1064   1065     4  180.0000771  4.6024000  2
    511   1069   1089   1090     4  180.0000771  4.6024000  2
    535   1094   1114   1115     4  180.0000771  4.6024000  2
    536   1119   1139   1140     4  180.0000771  4.6024000  2
    560   1144   1164   1165     4  180.0000771  4.6024000  2
    561   1169   1189   1190     4  180.0000771  4.6024000  2
    585   1194   1214   1215     4  180.0000771  4.6024000  2
    586   1219   1239   1240     4  180.0000771  4.6024000  2
    610   1244   1264   1265     4  180.0000771  4.6024000  2
    611   1269   1289   1290     4  180.0000771  4.6024000  2
    635   1294   1314   1315     4  180.0000771  4.6024000  2
    636   1319   1339   1340     4  180.0000771  4.6024000  2
    660   1344   1364   1365     4  180.0000771  4.6024000  2
    661   1369   1389   1390     4  180.0000771  4.6024000  2
    685   1394   1414   1415     4  180.0000771  4.6024000  2
    686   1419   1439   1440     4  180.0000771  4.6024000  2
    710   1444   1464   1465     4  180.0000771  4.6024000  2
    711   1469   1489   1490     4  180.0000771  4.6024000  2
    735   1494   1514   1515     4  180.0000771  4.6024000  2
    736   1519   1539   1540     4  180.0000771  4.6024000  2
    760   1544   1564   1565     4  180.0000771  4.6024000  2
    761   1569   1589   1590     4  180.0000771  4.6024000  2
    785   1594   1614   1615     4  180.0000771  4.6024000  2
    786   1619   1639   1640     4  180.0000771  4.6024000  2
    810   1644   1664   1665     4  180.0000771  4.6024000  2
    811   1669   1689   1690     4  180.0000771  4.6024000  2
    835   1694   1714   1715     4  180.0000771  4.6024000  2
    836   1719   1739   1740     4  180.0000771  4.6024000  2
    860   1744   1764   1765     4  180.0000771  4.6024000  2
    861   1769   1789   1790     4  180.0000771  4.6024000  2
    885   1794   1814   1815     4  180.0000771  4.6024000  2
    886   1819   1839   1840     4  180.0000771  4.6024000  2
    910   1844   1864   1865     4  180.0000771  4.6024000  2
    911   1869   1889   1890     4  180.0000771  4.6024000  2
    935   1894   1914   1915     4  180.0000771  4.6024000  2
    936   1919   1939   1940     4  180.0000771  4.6024000  2
    960   1944   1964   1965     4  180.0000771  4.6024000  2
    961   1969   1989   1990     4  180.0000771  4.6024000  2
    985   1994   2014   2015     4  180.0000771  4.6024000  2
    986   2019   2039   2040     4  180.0000771  4.6024000  2
   1010   2044   2064   2065     4  180.0000771  4.6024000  2
   1011   2069   2089   2090     4  180.0000771  4.6024000  2
   1035   2094   2114   2115     4  180.0000771  4.6024000  2
   1036   2119   2139   2140     4  180.0000771  4.6024000  2
   1060   2144   2164   2165     4  180.0000771  4.6024000  2
   1061   2169   2189   2190     4  180.0000771  4.6024000  2
   1085   2194   2214   2215     4  180.0000771  4.6024000  2
   1086   2219   2239   2240     4  180.0000771  4.6024000  2
   1110   2244   2264   2265     4  180.0000771  4.6024000  2
   1111   2269   2289   2290     4  180.0000771  4.6024000  2
   1135   2294   2314   2315     4  180.0000771  4.6024000  2
   1136   2319   2339   2340     4  180.0000771  4.6024000  2
   1160   2344   2364   2365     4  180.0000771  4.6024000  2
   1161   2369   2389   2390     4  180.0000771  4.6024000  2
   1185   2394   2414   2415     4  180.0000771  4.6024000  2
   1186   2419   2439   2440     4  180.0000771  4.6024000  2
   1210   2444   2464   2465     4  180.0000771  4.6024000  2
   1211   2469   2489   2490     4  180.0000771  4.6024000  2
   1235   2494   2514   2515     4  180.0000771  4.6024000  2
   1236   2519   2539   2540     4  180.0000771  4.6024000  2
   1260   2544   2564   2565     4  180.0000771  4.6024000  2
   1261   2569   2589   2590     4  180.0000771  4.6024000  2
   1285   2594   2614   2615     4  180.0000771  4.6024000  2
   1286   2619   2639   2640     4  180.0000771  4.6024000  2
   1310   2644   2664   2665     4  180.0000771  4.6024000  2
   1311   2669   2689   2690     4  180.0000771  4.6024000  2
   1335   2694   2714   2715     4  180.0000771  4.6024000  2
   1336   2719   2739   2740     4  180.0000771  4.6024000  2
   1360   2744   2764   2765     4  180.0000771  4.6024000  2
   1361   2769   2789   2790     4  180.0000771  4.6024000  2
   1385   2794   2814   2815     4  180.0000771  4.6024000  2
   1386   2819   2839   2840     4  180.0000771  4.6024000  2
   1410   2844   2864   2865     4  180.0000771  4.6024000  2
   1411   2869   2889   2890     4  180.0000771  4.6024000  2
   1435   2894   2914   2915     4  180.0000771  4.6024000  2
   1436   2919   2939   2940     4  180.0000771  4.6024000  2
   1460   2944   2964   2965     4  180.0000771  4.6024000  2
   1461   2969   2989   2990     4  180.0000771  4.6024000  2
   1485   2994   3014   3015     4  180.0000771  4.6024000  2
   1486   3019   3039   3040     4  180.0000771  4.6024000  2
   1510   3044   3064   3065     4  180.0000771  4.6024000  2
   1511   3069   3089   3090     4  180.0000771  4.6024000  2
   1535   3094   3114   3115     4  180.0000771  4.6024000  2
   1536   3119   3139   3140     4  180.0000771  4.6024000  2
   1560   3141   3150   3151     4  180.0000771  4.6024000  2
   1561   3152   3161   3162     4  180.0000771  4.6024000  2
   1585   3163   3172   3173     4  180.0000771  4.6024000  2
   1586   3174   3183   3184     4  180.0000771  4.6024000  2
   1610   3185   3194   3195     4  180.0000771  4.6024000  2
   1611   3196   3205   3206     4  180.0000771  4.6024000  2
   1635   3207   3216   3217     4  180.0000771  4.6024000  2
   1636   3218   3227   3228     4  180.0000771  4.6024000  2
   1660   3229   3238   3239     4  180.0000771  4.6024000  2
   1661   3240   3249   3250     4  180.0000771  4.6024000  2
   1685   3251   3260   3261     4  180.0000771  4.6024000  2
   1686   3262   3271   3272     4  180.0000771  4.6024000  2
   1710   3273   3282   3283     4  180.0000771  4.6024000  2
   1711   3284   3293   3294     4  180.0000771  4.6024000  2
   1735   3295   3304   3305     4  180.0000771  4.6024000  2
   1736   3306   3315   3316     4  180.0000771  4.6024000  2
   1760   3317   3326   3327     4  180.0000771  4.6024000  2
   1761   3328   3337   3338     4  180.0000771  4.6024000  2
   1785   3339   3348   3349     4  180.0000771  4.6024000  2
   1786   3350   3359   3360     4  180.0000771  4.6024000  2
   1810   3361   3370   3371     4  180.0000771  4.6024000  2
   1811   3372   3381   3382     4  180.0000771  4.6024000  2
   1835   3383   3392   3393     4  180.0000771  4.6024000  2
   1836   3394   3403   3404     4  180.0000771  4.6024000  2
   1860   3405   3414   3415     4  180.0000771  4.6024000  2
   1861   3416   3425   3426     4  180.0000771  4.6024000  2
   1885   3427   3436   3437     4  180.0000771  4.6024000  2
   1886   3438   3447   3448     4  180.0000771  4.6024000  2
   1910   3449   3458   3459     4  180.0000771  4.6024000  2
   1911   3460   3469   3470     4  180.0000771  4.6024000  2
   1935   3471   3480   3481     4  180.0000771  4.6024000  2
   1936   3482   3491   3492     4  180.0000771  4.6024000  2
   1960   3493   3502   3503     4  180.0000771  4.6024000  2
   1961   3504   3513   3514     4  180.0000771  4.6024000  2
   1985   3515   3524   3525     4  180.0000771  4.6024000  2
   1986   3526   3535   3536     4  180.0000771  4.6024000  2
   2010   3537   3546   3547     4  180.0000771  4.6024000  2
   2011   3548   3557   3558     4  180.0000771  4.6024000  2
   2035   3559   3568   3569     4  180.0000771  4.6024000  2
   2036   3570   3579   3580     4  180.0000771  4.6024000  2
   2060   3581   3590   3591     4  180.0000771  4.6024000  2
   2061   3592   3601   3602     4  180.0000771  4.6024000  2
   2085   3603   3612   3613     4  180.0000771  4.6024000  2
   2086   3614   3623   3624     4  180.0000771  4.6024000  2
   2110   3625   3634   3635     4  180.0000771  4.6024000  2
   2111   3636   3645   3646     4  180.0000771  4.6024000  2
   2135   3647   3656   3657     4  180.0000771  4.6024000  2
   2136   3658   3667   3668     4  180.0000771  4.6024000  2
   2160   3669   3678   3679     4  180.0000771  4.6024000  2
   2161   3680   3689   3690     4  180.0000771  4.6024000  2
   2185   3691   3700   3701     4  180.0000771  4.6024000  2
   2186   3702   3711   3712     4  180.0000771  4.6024000  2
   2210   3713   3722   3723     4  180.0000771  4.6024000  2
   2211   3724   3733   3734     4  180.0000771  4.6024000  2
   2235   3735   3744   3745     4  180.0000771  4.6024000  2
   2236   3746   3755   3756     4  180.0000771  4.6024000  2
   2260   3757   3766   3767     4  180.0000771  4.6024000  2
   2261   3768   3777   3778     4  180.0000771  4.6024000  2
   2285   3779   3788   3789     4  180.0000771  4.6024000  2
   2286   3790   3799   3800     4  180.0000771  4.6024000  2
   2310   3801   3810   3811     4  180.0000771  4.6024000  2
   2311   3812   3821   3822     4  180.0000771  4.6024000  2
   2335   3823   3832   3833     4  180.0000771  4.6024000  2
   2336   3834   3843   3844     4  180.0000771  4.6024000  2
   2360   3845   3854   3855     4  180.0000771  4.6024000  2
   2361   3856   3865   3866     4  180.0000771  4.6024000  2
   2385   3867   3876   3877     4  180.0000771  4.6024000  2
   2386   3878   3887   3888     4  180.0000771  4.6024000  2
   2410   3889   3898   3899     4  180.0000771  4.6024000  2
   2411   3900   3909   3910     4  180.0000771  4.6024000  2
   2435   3911   3920   3921     4  180.0000771  4.6024000  2
   2436   3922   3931   3932     4  180.0000771  4.6024000  2
   2460   3933   3942   3943     4  180.0000771  4.6024000  2
   2461   3944   3953   3954     4  180.0000771  4.6024000  2
   2485   3955   3964   3965     4  180.0000771  4.6024000  2
   2486   3966   3975   3976     4  180.0000771  4.6024000  2
   2510   3977   3986   3987     4  180.0000771  4.6024000  2
   2511   3988   3997   3998     4  180.0000771  4.6024000  2
   2535   3999   4008   4009     4  180.0000771  4.6024000  2
   2536   4010   4019   4020     4  180.0000771  4.6024000  2
   2560   4021   4030   4031     4  180.0000771  4.6024000  2
   2561   4032   4041   4042     4  180.0000771  4.6024000  2
   2585   4043   4052   4053     4  180.0000771  4.6024000  2
   2586   4054   4063   4064     4  180.0000771  4.6024000  2
   2610   4065   4074   4075     4  180.0000771  4.6024000  2
   2611   4076   4085   4086     4  180.0000771  4.6024000  2
   2635   4087   4096   4097     4  180.0000771  4.6024000  2
   2636   4098   4107   4108     4  180.0000771  4.6024000  2
   2660   4109   4118   4119     4  180.0000771  4.6024000  2
   2661   4120   4129   4130     4  180.0000771  4.6024000  2
   2685   4131   4140   4141     4  180.0000771  4.6024000  2
   2686   4142   4151   4152     4  180.0000771  4.6024000  2
   2710   4153   4162   4163     4  180.0000771  4.6024000  2
   2711   4164   4173   4174     4  180.0000771  4.6024000  2
   2735   4175   4184   4185     4  180.0000771  4.6024000  2
   2736   4186   4195   4196     4  180.0000771  4.6024000  2
   2760   4197   4206   4207     4  180.0000771  4.6024000  2
   2761   4208   4217   4218     4  180.0000771  4.6024000  2
   2785   4219   4228   4229     4  180.0000771  4.6024000  2
   2786   4230   4239   4240     4  180.0000771  4.6024000  2
   2810   4241   4250   4251     4  180.0000771  4.6024000  2
   2811   4252   4261   4262     4  180.0000771  4.6024000  2
   2835   4263   4272   4273     4  180.0000771  4.6024000  2
   2836   4274   4283   4284     4  180.0000771  4.6024000  2
   2860   4285   4294   4295     4  180.0000771  4.6024000  2
   2861   4296   4305   4306     4  180.0000771  4.6024000  2
   2885   4307   4316   4317     4  180.0000771  4.6024000  2
   2886   4318   4327   4328     4  180.0000771  4.6024000  2
   2910   4329   4338   4339     4  180.0000771  4.6024000  2
   2911   4340   4349   4350     4  180.0000771  4.6024000  2
   2935   4351   4360   4361     4  180.0000771  4.6024000  2
   2936   4362   4371   4372     4  180.0000771  4.6024000  2
   2960   4373   4382   4383     4  180.0000771  4.6024000  2
   2961   4384   4393   4394     4  180.0000771  4.6024000  2
   2985   4395   4404   4405     4  180.0000771  4.6024000  2
   2986   4406   4415   4416     4  180.0000771  4.6024000  2
   3010   4417   4426   4427     4  180.0000771  4.6024000  2
   3011   4428   4437   4438     4  180.0000771  4.6024000  2
   3035   4439   4448   4449     4  180.0000771  4.6024000  2
   3036   4450   4459   4460     4  180.0000771  4.6024000  2
   3060   4461   4470   4471     4  180.0000771  4.6024000  2
   3061   4472   4481   4482     4  180.0000771  4.6024000  2
   3085   4483   4492   4493     4  180.0000771  4.6024000  2
   3086   4494   4503   4504     4  180.0000771  4.6024000  2
   3110   4505   4514   4515     4  180.0000771  4.6024000  2
   3111   4516   4525   4526     4  180.0000771  4.6024000  2
   3135   4527   4536   4537     4  180.0000771  4.6024000  2
   3136   4538   4547   4548     4  180.0000771  4.6024000  2

;[ system ]
;; Name
;Generic title
;
;[ molecules ]
;; Compound       #mols
;g5np_pamam              1
